FOO
135168
    1MOL0     O    1   7.336   4.764   5.170 -0.1254  0.2045  0.0506
    1MOL0     C    2   7.411   4.743   5.267 -0.2479  0.3883 -0.0885
    1MOL0     O    3   7.402   4.800   5.396 -0.3597  0.4514  0.0757
    1MOL0     C    4   7.283   4.859   5.428  0.2584  0.7652 -0.1817
    1MOL0     C    5   7.288   4.987   5.458  0.8284 -0.5085  0.5090
    1MOL0     C    6   7.170   5.062   5.484 -0.3838  0.4628  0.1766
    1MOL0     C    7   7.041   5.004   5.467 -0.7614 -0.8337 -0.5892
    1MOL0     O    8   6.931   5.080   5.509 -0.2986 -0.0252 -0.5125
    1MOL0     C    9   6.857   5.024   5.616  1.0113  0.1112 -0.4488
    1MOL0     C   10   6.735   4.963   5.554 -0.1391 -0.1709 -0.8267
    1MOL0     C   11   6.613   4.950   5.639  1.2524 -0.1269  0.4137
    1MOL0     C   12   6.510   4.893   5.533  0.2736  0.1113  0.1492
    1MOL0     C   13   6.386   4.835   5.593  0.8971 -0.1524 -0.0265
    1MOL0     C   14   6.296   4.789   5.485 -0.0378 -0.0971  0.5557
    1MOL0     C   15   6.144   4.765   5.535 -0.0122  0.6892  0.5025
    1MOL0     C   16   6.071   4.890   5.572 -0.2473 -0.6569 -0.2160
    1MOL0     N   17   5.934   4.853   5.607  0.1473 -0.9508 -0.4117
    1MOL0     C   18   5.847   4.953   5.656 -0.2701  0.3322 -0.4132
    1MOL0     C   19   5.721   4.910   5.649 -0.1143 -0.3265  0.1810
    1MOL0     C   20   5.603   4.994   5.692 -0.6403  0.0253  0.0823
    1MOL0     C   21   5.467   4.951   5.626 -0.4082 -0.6923 -0.1544
    1MOL0     C   22   5.353   5.027   5.698 -0.1432 -0.1584 -0.0061
    1MOL0     C   23   5.240   5.064   5.592 -0.4865  0.1849 -0.2881
    1MOL0     O   24   5.116   5.099   5.668 -0.8873  0.5380  0.5496
    1MOL0     C   25   5.003   5.142   5.602  0.4805 -1.0137  0.6613
    1MOL0     C   26   4.907   5.212   5.683  0.6942  0.3430 -0.0249
    1MOL0     C   27   4.792   5.274   5.612  0.0588 -0.2156 -1.3559
    1MOL0     C   28   4.764   5.249   5.474 -0.9234  0.1933 -0.9133
    1MOL0     C   29   4.645   5.293   5.405 -0.2201  0.2657  1.1405
    1MOL0     O   30   4.571   5.368   5.478  0.3950  0.5689  0.1934
    1MOL0     C   31   4.459   5.424   5.421  0.5395 -0.3240  0.9043
    1MOL0     C   32   4.341   5.361   5.425  0.7391  0.0125 -0.4588
    1MOL0     C   33   4.224   5.418   5.363 -0.1799  0.1900  0.0882
    1MOL0     C   34   4.234   5.545   5.310  0.2184  0.1174 -0.2832
    1MOL0     O   35   4.120   5.615   5.266 -0.0296  0.0179  0.6225
    1MOL0     C   36   3.993   5.537   5.252 -0.5987  0.0963 -0.1516
    1MOL0     C   37   3.893   5.643   5.226 -0.6728 -0.6205  0.3486
    1MOL0     C   38   3.763   5.574   5.183 -0.3062 -0.4342 -0.3078
    1MOL0     C   39   3.679   5.682   5.122 -0.4023 -0.1009  0.3516
    1MOL0     C   40   3.531   5.645   5.099  0.1108  0.3641  0.5479
    1MOL0     C   41   3.442   5.759   5.076 -0.3256  0.5525 -0.6995
    1MOL0     C   42   3.297   5.713   5.100  0.3716 -0.1564 -0.6573
    1MOL0     C   43   3.232   5.658   4.983  1.1526  0.1098  0.8132
    1MOL0    Cl   44   3.051   5.625   5.019  0.3381  0.2484  0.1050
    1MOL0     C   45   4.356   5.614   5.316 -0.0233 -0.2588 -0.5426
    1MOL0     C   46   4.465   5.552   5.373 -0.1582 -0.5088  0.9361
    1MOL0     O   47   4.614   5.246   5.296 -0.0044 -0.1672 -0.1950
    1MOL0     C   48   4.857   5.164   5.411  0.5724  0.5272 -0.8003
    1MOL0     C   49   4.976   5.113   5.465  0.1803 -0.1878  0.2921
    1MOL0     N   50   5.739   4.774   5.618  0.1826  0.4015 -0.0976
    1MOL0     N   51   5.862   4.743   5.579  0.5821  0.6254 -0.9149
    1MOL0     C   52   7.040   4.872   5.432  0.1024 -0.0341 -0.1547
    1MOL0     C   53   7.160   4.795   5.414  1.0314 -0.8097 -0.8657
    1MOL0     C   54   7.533   4.656   5.238  0.5241  0.1702 -0.1360
    1MOL0     C   55   7.648   4.674   5.312  0.6464 -0.2482 -0.4097
    1MOL0     C   56   7.766   4.604   5.285  0.5622 -0.1563  0.6811
    1MOL0     C   57   7.770   4.511   5.181 -0.9346 -0.6099  0.0923
    1MOL0     O   58   7.885   4.449   5.153 -1.0671 -0.0025 -1.4168
    1MOL0     C   59   7.905   4.358   5.050  0.2076  0.1274 -0.2589
    1MOL0     C   60   7.854   4.220   5.090 -0.6735 -0.7164  0.1281
    1MOL0     C   61   7.750   4.171   4.986  0.5623  0.7629  0.0614
    1MOL0     C   62   7.715   4.028   5.003  0.0488  0.3804 -0.0102
    1MOL0     C   63   7.810   3.933   4.959 -0.4469  1.1784 -0.1084
    1MOL0     C   64   7.904   3.881   4.900 -0.6777  0.4834  0.8928
    1MOL0     C   65   7.653   4.491   5.099 -0.4179 -0.6614 -0.3071
    1MOL0     C   66   7.533   4.560   5.138 -0.0649  0.4818  0.6375
    1MOL0     H   67   7.383   5.038   5.448  1.7486 -2.4718 -1.6586
    1MOL0     H   68   7.159   5.165   5.518 -0.8788  0.1507  0.9708
    1MOL0     H   69   6.814   5.098   5.684 -1.5354 -1.8946  0.3160
    1MOL0     H   70   6.912   4.948   5.673 -0.8657  0.5958  2.1824
    1MOL0     H   71   6.768   4.867   5.512  2.6255  0.0989  0.5345
    1MOL0     H   72   6.701   5.035   5.480 -1.3110  0.1699  0.0161
    1MOL0     H   73   6.588   5.049   5.676 -0.3942 -0.9002  1.4800
    1MOL0     H   74   6.632   4.881   5.722 -2.1209 -0.8588  0.7285
    1MOL0     H   75   6.487   4.972   5.461 -2.4963  2.3099  3.1653
    1MOL0     H   76   6.551   4.815   5.469  0.2435  0.1784  0.0485
    1MOL0     H   77   6.334   4.911   5.652  0.1509 -1.3908  0.9723
    1MOL0     H   78   6.405   4.749   5.658 -1.5332 -0.1639  0.7565
    1MOL0     H   79   6.339   4.703   5.433  0.8967  2.0832 -2.6137
    1MOL0     H   80   6.276   4.872   5.417  0.3155  1.6886  2.5262
    1MOL0     H   81   6.090   4.714   5.454  3.0477 -0.7144 -0.8387
    1MOL0     H   82   6.148   4.695   5.619 -4.9580 -1.7043 -0.8481
    1MOL0     H   83   6.077   4.964   5.492 -1.2780 -3.2015 -2.8478
    1MOL0     H   84   6.115   4.928   5.665 -0.5747 -1.6097  0.3490
    1MOL0     H   85   5.881   5.051   5.688 -0.3403 -0.4185  2.1456
    1MOL0     H   86   5.617   5.101   5.675  1.2285  0.0075  1.2417
    1MOL0     H   87   5.601   4.980   5.801 -1.2598  1.2538  0.2499
    1MOL0     H   88   5.452   4.843   5.629 -2.1693 -0.4695  0.2263
    1MOL0     H   89   5.476   4.979   5.520 -1.9513  2.6099  0.4488
    1MOL0     H   90   5.303   4.983   5.785 -0.4048  0.5185  0.1940
    1MOL0     H   91   5.388   5.126   5.727  1.0361 -0.8651  1.0487
    1MOL0     H   92   5.223   4.972   5.535 -4.2630  1.3005 -1.2837
    1MOL0     H   93   5.270   5.136   5.516  2.2517 -0.6242 -0.0577
    1MOL0     H   94   4.934   5.224   5.788 -1.2419 -1.0270  0.6781
    1MOL0     H   95   4.728   5.348   5.659  0.7922  0.9681 -2.1549
    1MOL0     H   96   4.338   5.259   5.462 -0.4756  0.8799  2.0619
    1MOL0     H   97   4.131   5.364   5.362 -1.8649  2.8665  1.0217
    1MOL0     H   98   3.974   5.479   5.344  2.1631 -1.7542 -0.6230
    1MOL0     H   99   3.989   5.464   5.171  1.0970  0.0202 -0.2111
    1MOL0     H  100   3.930   5.699   5.139  0.7858 -2.2513 -0.1395
    1MOL0     H  101   3.866   5.706   5.311  3.3998  2.0598 -0.0711
    1MOL0     H  102   3.710   5.534   5.270 -0.6325 -0.5991 -0.5767
    1MOL0     H  103   3.788   5.504   5.103 -2.0162  2.0758 -3.2944
    1MOL0     H  104   3.664   5.764   5.192 -1.2339 -1.1291  1.4270
    1MOL0     H  105   3.714   5.712   5.023  0.5171  2.4767  1.3784
    1MOL0     H  106   3.495   5.586   5.184  0.6600  0.7499  1.0568
    1MOL0     H  107   3.528   5.584   5.009 -1.4070  1.6129 -0.2999
    1MOL0     H  108   3.458   5.794   4.973 -1.3604 -2.2486 -1.9038
    1MOL0     H  109   3.472   5.834   5.150  0.6543 -1.0068  0.5436
    1MOL0     H  110   3.294   5.643   5.184 -0.7940  1.3427  0.5862
    1MOL0     H  111   3.235   5.797   5.132  0.3385 -0.8582  1.2277
    1MOL0     H  112   3.281   5.563   4.963 -1.0910 -1.2969  1.6322
    1MOL0     H  113   3.238   5.732   4.902  0.9978 -0.3305  0.3936
    1MOL0     H  114   4.363   5.719   5.292  2.1773  0.2285  1.7464
    1MOL0     H  115   4.558   5.605   5.386 -1.0131  0.8372  1.7916
    1MOL0     H  116   4.826   5.125   5.314 -1.8910  0.2581  0.0215
    1MOL0     H  117   5.045   5.050   5.409  1.4223  0.4152  1.1027
    1MOL0     H  118   6.944   4.826   5.415  0.8741 -1.0562 -1.9948
    1MOL0     H  119   7.160   4.689   5.392  2.8922 -0.2459 -4.1979
    1MOL0     H  120   7.663   4.756   5.381 -0.3136 -1.9991  1.9824
    1MOL0     H  121   7.852   4.615   5.351 -0.9681 -0.4566  2.8160
    1MOL0     H  122   8.012   4.358   5.029 -0.1388 -0.4625 -2.2695
    1MOL0     H  123   7.854   4.399   4.963  2.3839 -0.0520 -1.7028
    1MOL0     H  124   7.933   4.144   5.095 -1.5743 -1.5723  1.7651
    1MOL0     H  125   7.814   4.221   5.191 -0.1303  0.0535  0.3483
    1MOL0     H  126   7.792   4.180   4.885  1.5018 -0.3697  0.3351
    1MOL0     H  127   7.655   4.224   4.982 -0.4044 -0.6932  2.2651
    1MOL0     H  128   7.691   4.011   5.109 -0.6022 -0.3272 -0.2624
    1MOL0     H  129   7.618   4.010   4.955  0.4871  2.6850 -1.9398
    1MOL0     H  130   7.973   3.825   4.840 -1.4026  1.3660 -0.8257
    1MOL0     H  131   7.658   4.445   5.001  0.7701  3.1481 -2.2605
    1MOL0     H  132   7.445   4.549   5.076  1.8484 -3.0993 -1.9008
    2MOL0     O  133   8.770   7.474   9.251  0.5810 -0.1622  0.4382
    2MOL0     C  134   8.807   7.360   9.284 -0.3075  0.5494 -1.1594
    2MOL0     O  135   8.725   7.247   9.271 -0.4724 -0.2363 -0.2353
    2MOL0     C  136   8.608   7.242   9.204 -0.3752  0.1882 -0.0308
    2MOL0     C  137   8.534   7.122   9.232  0.5051  0.4848 -0.4040
    2MOL0     C  138   8.406   7.105   9.161 -0.0359 -0.2606  0.4786
    2MOL0     C  139   8.351   7.198   9.082 -0.3589 -0.2578  0.4744
    2MOL0     O  140   8.235   7.184   9.012  0.5229 -0.7638 -0.3467
    2MOL0     C  141   8.141   7.086   9.062  0.4107 -0.5175  0.5525
    2MOL0     C  142   8.004   7.124   9.015 -0.0569 -0.2061  0.0079
    2MOL0     C  143   7.938   7.211   9.114  0.6274  0.5794  0.0479
    2MOL0     C  144   7.798   7.237   9.071  1.0073 -0.0901 -0.6979
    2MOL0     C  145   7.721   7.306   9.184 -0.2567  0.5250 -0.4165
    2MOL0     C  146   7.582   7.374   9.160  0.1117  0.5140 -0.2542
    2MOL0     C  147   7.474   7.266   9.130  0.5643  0.3917 -0.0889
    2MOL0     C  148   7.347   7.337   9.075  0.8125  0.0091 -0.2072
    2MOL0     N  149   7.239   7.354   9.173  0.0588 -0.8328 -0.0101
    2MOL0     C  150   7.239   7.447   9.281  0.6270 -0.1999  0.1315
    2MOL0     C  151   7.124   7.413   9.346  0.7758 -0.7291 -0.3425
    2MOL0     C  152   7.070   7.487   9.467 -0.3886  0.0482 -0.4125
    2MOL0     C  153   6.959   7.412   9.544 -0.8214 -0.0995 -0.3734
    2MOL0     C  154   6.942   7.462   9.690 -0.3963 -0.3450  0.4701
    2MOL0     C  155   6.937   7.611   9.695 -0.3994  0.0383 -1.0248
    2MOL0     O  156   6.854   7.652   9.806 -0.6078 -0.1805  0.2675
    2MOL0     C  157   6.722   7.634   9.804  1.0776  0.0194 -0.1236
    2MOL0     C  158   6.649   7.597   9.688  0.2291  0.2202  0.1234
    2MOL0     C  159   6.506   7.606   9.683 -0.5935  0.0292 -0.0260
    2MOL0     C  160   6.440   7.655   9.796 -0.0478  0.6454 -0.3022
    2MOL0     C  161   6.293   7.631   9.795 -0.1843  0.3544  0.0841
    2MOL0     O  162   6.230   7.663   9.910 -0.0626  0.3350 -0.5637
    2MOL0     C  163   6.093   7.675   9.901  0.4116  0.6680  0.8287
    2MOL0     C  164   6.046   7.791   9.829 -0.3641  0.5675 -0.1528
    2MOL0     C  165   5.914   7.799   9.804  0.0877  0.2607 -0.0843
    2MOL0     C  166   5.827   7.697   9.861  0.4811 -0.7495 -0.1665
    2MOL0     O  167   5.690   7.706   9.851 -0.6407 -0.1860 -0.2018
    2MOL0     C  168   5.630   7.825   9.904 -0.4427  0.1287  0.6589
    2MOL0     C  169   5.506   7.780   9.988 -0.2778  0.1807  0.3005
    2MOL0     C  170   5.408   7.887  10.010  0.6102  0.7010 -0.4417
    2MOL0     C  171   5.276   7.830  10.053  0.8630 -0.4248 -0.7272
    2MOL0     C  172   5.160   7.933  10.039  0.0541  0.0099 -0.2622
    2MOL0     C  173   5.044   7.882  10.123 -0.5780 -0.2828  0.2393
    2MOL0     C  174   5.069   7.885  10.280  0.6106 -0.7079  0.0805
    2MOL0     C  175   5.109   8.025  10.333  0.5521 -0.4567 -0.2210
    2MOL0    Cl  176   4.992   8.149  10.278  0.1723  0.3907  0.5498
    2MOL0     C  177   5.876   7.585   9.924  0.5922  0.0933 -0.0384
    2MOL0     C  178   6.011   7.571   9.936 -0.6240  0.4969  0.3883
    2MOL0     O  179   6.236   7.587   9.690  0.4813 -0.6327 -0.6665
    2MOL0     C  180   6.506   7.700   9.907 -0.2150 -0.5340 -0.2202
    2MOL0     C  181   6.648   7.687   9.915  0.3890  0.1563 -0.2742
    2MOL0     N  182   7.062   7.310   9.285 -0.1723 -0.3008 -0.6746
    2MOL0     N  183   7.132   7.278   9.180 -0.7050 -0.4878 -0.4411
    2MOL0     C  184   8.425   7.315   9.056  0.9515 -0.0812 -0.6420
    2MOL0     C  185   8.552   7.336   9.115  0.4851 -0.0311 -0.0359
    2MOL0     C  186   8.937   7.350   9.348 -0.5437  0.1737 -0.0140
    2MOL0     C  187   8.959   7.231   9.429 -0.0765  0.3894 -0.3877
    2MOL0     C  188   9.083   7.208   9.491  0.2614  0.4155 -0.0396
    2MOL0     C  189   9.181   7.302   9.477  0.8228 -1.0288 -0.6371
    2MOL0     O  190   9.299   7.282   9.543  0.0306  0.2077 -0.3592
    2MOL0     C  191   9.427   7.335   9.500  0.6512 -0.4186  0.0813
    2MOL0     C  192   9.506   7.387   9.621 -0.0271  0.5226 -0.0553
    2MOL0     C  193   9.440   7.506   9.688  0.3592 -0.4507 -0.2292
    2MOL0     C  194   9.509   7.538   9.825 -0.9410  0.0380 -0.6354
    2MOL0     C  195   9.649   7.591   9.820 -0.5068 -0.0740 -0.4193
    2MOL0     C  196   9.768   7.632   9.800  0.1323  0.0025 -0.9102
    2MOL0     C  197   9.160   7.424   9.409 -0.3030  0.3408 -0.3079
    2MOL0     C  198   9.037   7.444   9.345 -0.5873 -0.3014 -0.2284
    2MOL0     H  199   8.583   7.052   9.299  0.9417  1.5012  0.3606
    2MOL0     H  200   8.362   7.007   9.176  0.6195 -0.4760  1.1032
    2MOL0     H  201   8.136   7.069   9.169 -3.2357  0.5394  0.6630
    2MOL0     H  202   8.167   6.995   9.006  0.6229  0.2008 -0.5608
    2MOL0     H  203   7.955   7.028   8.999  0.6800 -0.5944  0.0275
    2MOL0     H  204   8.023   7.173   8.920 -0.2026  1.7128  0.9264
    2MOL0     H  205   7.986   7.310   9.120 -1.8324  1.7520  2.0331
    2MOL0     H  206   7.931   7.168   9.214  2.6980  0.4199  0.1834
    2MOL0     H  207   7.801   7.310   8.989 -2.2545  0.3304 -0.5842
    2MOL0     H  208   7.748   7.146   9.038 -1.0074  0.3349  0.9842
    2MOL0     H  209   7.781   7.393   9.214  2.7481 -1.3677 -0.5381
    2MOL0     H  210   7.719   7.246   9.275 -0.4258  3.2270  1.4912
    2MOL0     H  211   7.584   7.447   9.078 -2.0973  1.3442  0.3494
    2MOL0     H  212   7.544   7.424   9.250 -0.0862  0.3373 -0.2386
    2MOL0     H  213   7.521   7.201   9.056  3.8237  1.2011  1.0735
    2MOL0     H  214   7.442   7.214   9.221 -0.1357 -0.3948 -0.7727
    2MOL0     H  215   7.324   7.255   9.005  2.8237  0.3887 -1.4002
    2MOL0     H  216   7.375   7.424   9.016 -0.8175 -0.7670 -2.2685
    2MOL0     H  217   7.311   7.523   9.309  1.2203 -1.6479  2.8230
    2MOL0     H  218   7.032   7.587   9.444 -1.3619  0.2206  1.6853
    2MOL0     H  219   7.163   7.498   9.524 -0.4282 -1.2796 -0.0615
    2MOL0     H  220   6.986   7.306   9.541  1.6869  0.4599 -0.0405
    2MOL0     H  221   6.870   7.415   9.480 -0.6666 -0.8011 -0.6395
    2MOL0     H  222   6.842   7.425   9.716 -0.8217 -1.8069 -2.8419
    2MOL0     H  223   7.018   7.435   9.765 -1.7615  0.4208  2.2234
    2MOL0     H  224   6.890   7.639   9.601  1.1901  0.1160 -1.8219
    2MOL0     H  225   7.034   7.661   9.699  0.3803 -1.4266 -0.6820
    2MOL0     H  226   6.700   7.564   9.599 -0.1352 -0.3517  0.1173
    2MOL0     H  227   6.458   7.569   9.594  0.4077 -1.1577 -0.1034
    2MOL0     H  228   6.111   7.863   9.781  1.3907 -1.0348 -0.3229
    2MOL0     H  229   5.872   7.882   9.748 -3.9974 -1.8380 -0.5362
    2MOL0     H  230   5.608   7.890   9.819  0.7047 -1.3832 -0.8591
    2MOL0     H  231   5.702   7.889   9.955 -0.1218  0.9164 -0.7504
    2MOL0     H  232   5.547   7.736  10.079  1.0710  0.9370  0.0836
    2MOL0     H  233   5.451   7.701   9.936 -5.5181  4.0637 -0.9888
    2MOL0     H  234   5.395   7.944   9.917  1.9210  0.5491 -0.7456
    2MOL0     H  235   5.446   7.964  10.077 -2.8291  2.9101 -0.7793
    2MOL0     H  236   5.246   7.744   9.992  0.8860 -0.1284 -1.1582
    2MOL0     H  237   5.289   7.797  10.157 -0.5905 -0.7251 -0.6216
    2MOL0     H  238   5.125   7.943   9.935 -2.0585  0.1064  0.4189
    2MOL0     H  239   5.184   8.035  10.069  1.7646 -0.8922  1.6776
    2MOL0     H  240   5.023   7.780  10.091 -0.4875  0.1895 -1.4218
    2MOL0     H  241   4.958   7.944  10.094 -0.1172 -0.7085 -2.2226
    2MOL0     H  242   4.972   7.854  10.321  0.5436 -1.5626 -0.6877
    2MOL0     H  243   5.150   7.817  10.307 -0.2003 -1.8304 -0.1846
    2MOL0     H  244   5.215   8.044  10.315  0.3934 -0.2090 -0.9246
    2MOL0     H  245   5.095   8.024  10.441 -2.2399  1.4328 -0.4587
    2MOL0     H  246   5.813   7.503   9.956  1.9392 -0.4830  1.2384
    2MOL0     H  247   6.049   7.484   9.989  0.8611  0.1529 -1.1463
    2MOL0     H  248   6.447   7.733   9.992 -1.8430 -3.9727  0.1298
    2MOL0     H  249   6.696   7.732  10.001 -0.2063  1.6851 -0.7081
    2MOL0     H  250   8.378   7.379   8.983 -0.7609 -4.0520 -3.3589
    2MOL0     H  251   8.611   7.417   9.074  0.2394 -0.6315 -1.6619
    2MOL0     H  252   8.887   7.150   9.435 -0.1738  0.3011 -2.2323
    2MOL0     H  253   9.105   7.111   9.534 -2.1077 -0.3143 -0.3364
    2MOL0     H  254   9.415   7.406   9.417 -0.9868 -0.4072  0.3071
    2MOL0     H  255   9.483   7.244   9.474  0.2491 -0.8092  0.5814
    2MOL0     H  256   9.504   7.302   9.689  2.6541  0.3971 -0.0389
    2MOL0     H  257   9.611   7.410   9.603  0.7319 -2.7068 -0.3385
    2MOL0     H  258   9.336   7.492   9.719  1.3484  1.1284  4.6341
    2MOL0     H  259   9.456   7.597   9.628  2.4280 -0.7249 -0.1587
    2MOL0     H  260   9.468   7.626   9.875 -1.5214 -0.1616 -0.7487
    2MOL0     H  261   9.507   7.446   9.884  1.2219  1.5289  1.9652
    2MOL0     H  262   9.860   7.688   9.790  0.6063  0.6467  4.2360
    2MOL0     H  263   9.239   7.498   9.395  1.0568 -0.8124  0.9713
    2MOL0     H  264   9.018   7.541   9.300  0.8584  0.1958  0.1527
    3MOL0     O  265   0.928   3.262   6.887 -0.6513  0.6871  0.0535
    3MOL0     C  266   0.988   3.179   6.959 -0.2477 -0.9593  0.0669
    3MOL0     O  267   0.934   3.075   7.016 -0.5840 -0.5375 -0.5321
    3MOL0     C  268   0.801   3.053   7.021 -0.3578 -0.4806  0.0635
    3MOL0     C  269   0.760   2.926   6.984 -0.0999 -0.5714 -0.1073
    3MOL0     C  270   0.624   2.897   6.994  0.0099  0.3398  0.6970
    3MOL0     C  271   0.521   2.987   7.025  0.3759 -1.2958 -0.0112
    3MOL0     O  272   0.388   2.955   7.027  0.4310  0.0892  0.6303
    3MOL0     C  273   0.360   2.853   7.125 -0.5300  1.0405  0.2103
    3MOL0     C  274   0.321   2.918   7.257 -0.4210  0.7896  0.2689
    3MOL0     C  275   0.191   2.997   7.256 -0.1666 -0.6292 -0.4832
    3MOL0     C  276   0.131   2.988   7.397 -0.0454  0.0051  0.9246
    3MOL0     C  277  -0.002   3.066   7.390 -0.5391 -0.1634  0.0397
    3MOL0     C  278  -0.099   3.000   7.487 -0.0420 -0.0782  0.1520
    3MOL0     C  279  -0.243   3.043   7.457  0.3031 -0.5493  0.5665
    3MOL0     C  280  -0.268   3.189   7.459  0.2319  0.1335  0.4464
    3MOL0     N  281  -0.368   3.218   7.561  0.2764 -0.6871 -0.2538
    3MOL0     C  282  -0.352   3.310   7.668 -0.2828 -0.7095  0.7045
    3MOL0     C  283  -0.475   3.339   7.725 -1.1668 -0.4898  0.1947
    3MOL0     C  284  -0.501   3.451   7.822  0.0689 -0.1042 -0.3046
    3MOL0     C  285  -0.610   3.555   7.780  0.1146  0.2450  0.1671
    3MOL0     C  286  -0.635   3.653   7.886  0.7709  0.2546  1.0883
    3MOL0     C  287  -0.772   3.711   7.880  0.0591 -0.4902  0.5183
    3MOL0     O  288  -0.770   3.811   7.982  0.5693 -0.2994 -0.5558
    3MOL0     C  289  -0.872   3.906   7.989  0.0381 -0.2330  0.2482
    3MOL0     C  290  -0.982   3.910   7.913 -0.1097  0.8718  0.3934
    3MOL0     C  291  -1.085   3.990   7.941  0.7277 -0.2971 -0.5415
    3MOL0     C  292  -1.079   4.077   8.049 -0.1399  0.1968  0.0926
    3MOL0     C  293  -1.196   4.149   8.086 -0.1837  0.6939  0.5141
    3MOL0     O  294  -1.171   4.264   8.160  0.3129  0.0002  0.0082
    3MOL0     C  295  -1.281   4.329   8.206 -0.0923 -0.1933 -0.4511
    3MOL0     C  296  -1.296   4.346   8.341  0.1941 -0.0363 -0.8078
    3MOL0     C  297  -1.405   4.426   8.386  0.0910  0.7545  0.5605
    3MOL0     C  298  -1.502   4.483   8.299  0.4365  0.4540  0.3979
    3MOL0     O  299  -1.613   4.551   8.344 -0.1811  0.5855 -0.4000
    3MOL0     C  300  -1.636   4.600   8.474  0.0066 -0.4607  0.2835
    3MOL0     C  301  -1.693   4.492   8.571  0.1862 -0.7730 -0.1842
    3MOL0     C  302  -1.825   4.446   8.505  0.8586  1.0062  0.2278
    3MOL0     C  303  -1.942   4.545   8.526  0.2729  0.1018  0.4537
    3MOL0     C  304  -2.081   4.497   8.483  0.2634  0.2296 -0.0628
    3MOL0     C  305  -2.169   4.619   8.459 -0.6010 -0.1622 -0.5714
    3MOL0     C  306  -2.141   4.694   8.324  0.5401  0.3536 -0.3760
    3MOL0     C  307  -2.181   4.843   8.324 -0.0489  0.6687 -0.4994
    3MOL0    Cl  308  -2.348   4.888   8.384 -0.0123  0.4042  0.1066
    3MOL0     C  309  -1.477   4.457   8.167 -0.3075  0.2911  0.0379
    3MOL0     C  310  -1.371   4.384   8.119 -0.6615 -0.6136  0.1646
    3MOL0     O  311  -1.307   4.108   8.056  0.9874  0.1948  0.2362
    3MOL0     C  312  -0.963   4.088   8.120 -0.6741  0.3482  0.6274
    3MOL0     C  313  -0.858   4.000   8.088 -0.4106 -0.4485 -0.9034
    3MOL0     N  314  -0.566   3.262   7.656 -0.1179  0.1726 -0.7282
    3MOL0     N  315  -0.504   3.184   7.572 -0.7083 -0.4699 -0.2054
    3MOL0     C  316   0.566   3.117   7.040  1.4670  0.4461 -0.1794
    3MOL0     C  317   0.701   3.148   7.048  0.6112 -0.2118 -0.0292
    3MOL0     C  318   1.134   3.200   6.963 -0.4787 -0.6711  0.8646
    3MOL0     C  319   1.219   3.117   7.037 -0.1490 -0.6763  0.1413
    3MOL0     C  320   1.356   3.148   7.056  0.1846  0.6144 -0.1501
    3MOL0     C  321   1.416   3.252   6.991 -0.8437 -0.1959  0.3528
    3MOL0     O  322   1.552   3.257   7.014  0.1331 -0.5445 -0.1909
    3MOL0     C  323   1.609   3.389   7.041  0.1903 -0.6076  0.1433
    3MOL0     C  324   1.745   3.385   7.101 -0.4071 -0.8953 -0.1644
    3MOL0     C  325   1.764   3.352   7.254 -0.2778  0.4243  0.6149
    3MOL0     C  326   1.747   3.198   7.273  0.2000 -0.9588  0.6072
    3MOL0     C  327   1.614   3.158   7.322 -0.0028  0.1662 -0.1638
    3MOL0     C  328   1.517   3.121   7.375  0.6685  0.2469 -0.3190
    3MOL0     C  329   1.344   3.338   6.910  0.8095 -0.8889 -0.0188
    3MOL0     C  330   1.206   3.316   6.898 -0.5532  0.2701 -0.0631
    3MOL0     H  331   0.835   2.858   6.945 -0.7437 -0.8467 -0.9129
    3MOL0     H  332   0.575   2.808   6.956 -1.7613  0.8378  1.7117
    3MOL0     H  333   0.452   2.793   7.132 -0.4415  0.7478 -2.4850
    3MOL0     H  334   0.283   2.784   7.089  1.1994 -0.8487 -0.0282
    3MOL0     H  335   0.402   2.980   7.296  1.3717 -1.1588 -0.2162
    3MOL0     H  336   0.320   2.834   7.327  2.9932  1.1939  0.9888
    3MOL0     H  337   0.113   2.966   7.186 -0.5236  2.0702 -1.3705
    3MOL0     H  338   0.208   3.101   7.230  2.7767 -0.1801  2.5574
    3MOL0     H  339   0.103   2.882   7.399 -0.7260  0.1864  2.6888
    3MOL0     H  340   0.203   3.013   7.475 -0.0445 -1.7562  1.5312
    3MOL0     H  341  -0.044   3.056   7.290 -0.8309 -0.0374  0.1487
    3MOL0     H  342   0.029   3.170   7.403 -1.0960  0.3409 -2.1693
    3MOL0     H  343  -0.070   3.024   7.590  0.0967  1.3020 -0.1975
    3MOL0     H  344  -0.088   2.893   7.468  3.8681  0.2293 -0.1177
    3MOL0     H  345  -0.272   3.011   7.357 -0.7872  0.5551  0.5155
    3MOL0     H  346  -0.313   3.000   7.529 -0.5570  2.0712  1.4315
    3MOL0     H  347  -0.311   3.219   7.363  2.6414  3.4318  0.2526
    3MOL0     H  348  -0.179   3.247   7.484  1.2254 -1.3718  0.5582
    3MOL0     H  349  -0.259   3.361   7.689 -0.0499 -0.0170 -1.6935
    3MOL0     H  350  -0.408   3.501   7.853 -0.8177  0.6819  1.2143
    3MOL0     H  351  -0.534   3.407   7.917 -2.2935  4.8167  1.5267
    3MOL0     H  352  -0.700   3.503   7.744  0.3281  0.4891 -0.7526
    3MOL0     H  353  -0.578   3.607   7.689  1.5168  0.6219  0.8455
    3MOL0     H  354  -0.626   3.598   7.980  0.8802 -1.7319 -0.0246
    3MOL0     H  355  -0.551   3.723   7.880  0.8002  0.1014 -2.7710
    3MOL0     H  356  -0.841   3.631   7.906 -1.7899 -0.1445 -2.8301
    3MOL0     H  357  -0.802   3.750   7.783  0.7604  1.9740  1.2046
    3MOL0     H  358  -1.001   3.832   7.841 -2.1848  1.7112 -0.0293
    3MOL0     H  359  -1.185   3.980   7.898 -0.8374  3.0808  1.8465
    3MOL0     H  360  -1.225   4.298   8.407  0.6759 -0.0900 -1.3618
    3MOL0     H  361  -1.409   4.431   8.495 -0.5909  2.4067  0.4867
    3MOL0     H  362  -1.705   4.685   8.471  0.4371 -0.1357 -2.0100
    3MOL0     H  363  -1.541   4.628   8.521 -0.6596  0.7676  0.9708
    3MOL0     H  364  -1.726   4.535   8.666 -0.0397 -1.1181 -0.1028
    3MOL0     H  365  -1.617   4.418   8.597  0.2106 -0.7946 -0.3136
    3MOL0     H  366  -1.853   4.349   8.547  0.9518 -0.6601 -3.2138
    3MOL0     H  367  -1.810   4.435   8.397 -0.6490  2.0107 -0.0978
    3MOL0     H  368  -1.945   4.572   8.632 -0.1374 -1.3381  0.8278
    3MOL0     H  369  -1.916   4.628   8.460 -0.3156 -1.3376 -1.6741
    3MOL0     H  370  -2.125   4.441   8.565  1.3711 -0.0010  0.3956
    3MOL0     H  371  -2.081   4.428   8.398 -0.6063 -0.0205  0.1337
    3MOL0     H  372  -2.141   4.685   8.542 -2.0293 -1.1055  0.7103
    3MOL0     H  373  -2.274   4.593   8.477 -1.0692  0.5508 -2.1266
    3MOL0     H  374  -2.033   4.691   8.309  0.8172  0.4040  1.3412
    3MOL0     H  375  -2.175   4.653   8.229  5.0034  0.0454 -2.0910
    3MOL0     H  376  -2.167   4.880   8.222 -0.3837 -2.0528 -1.6111
    3MOL0     H  377  -2.104   4.880   8.392 -0.8390  1.6180 -0.0882
    3MOL0     H  378  -1.560   4.480   8.101 -0.8816 -2.1443 -0.1537
    3MOL0     H  379  -1.343   4.367   8.015 -1.5068  0.8013 -0.3139
    3MOL0     H  380  -0.957   4.144   8.212  0.3023  0.5563  0.4507
    3MOL0     H  381  -0.761   4.017   8.133 -0.7738  0.5242 -0.4695
    3MOL0     H  382   0.496   3.199   7.054  0.9903  0.2190 -1.1378
    3MOL0     H  383   0.739   3.250   7.054 -0.0775  0.1661 -1.4852
    3MOL0     H  384   1.184   3.023   7.080 -0.8884 -1.0329 -1.1664
    3MOL0     H  385   1.419   3.079   7.110 -0.1307 -0.7482 -1.4419
    3MOL0     H  386   1.552   3.461   7.100  2.2365 -0.6276  2.2955
    3MOL0     H  387   1.625   3.440   6.945  0.7302  1.8314  1.4559
    3MOL0     H  388   1.797   3.310   7.040  0.5280 -0.5585  0.2143
    3MOL0     H  389   1.799   3.479   7.086  0.5595 -1.1366  1.5779
    3MOL0     H  390   1.702   3.409   7.324 -0.5912 -2.3906  2.8104
    3MOL0     H  391   1.870   3.373   7.272  0.8049 -2.7775 -1.1565
    3MOL0     H  392   1.769   3.149   7.177  0.2404  1.4294 -0.6819
    3MOL0     H  393   1.815   3.166   7.352 -0.8850  0.7181  2.3018
    3MOL0     H  394   1.428   3.084   7.423  1.5657 -4.1309 -1.6069
    3MOL0     H  395   1.386   3.425   6.860 -0.8467 -0.6356 -1.0446
    3MOL0     H  396   1.144   3.384   6.841  1.5703  0.2467 -2.5689
    4MOL0     O  397   6.488   4.228   3.066 -0.4454  0.3932  0.1193
    4MOL0     C  398   6.550   4.271   3.164  0.2903  0.5637 -0.3596
    4MOL0     O  399   6.497   4.334   3.269  0.0175  0.5852 -0.1777
    4MOL0     C  400   6.362   4.341   3.264  0.2739  0.0558  0.1301
    4MOL0     C  401   6.271   4.246   3.329 -0.2682 -0.0302 -0.1558
    4MOL0     C  402   6.137   4.259   3.312  0.0956  0.3401  0.2361
    4MOL0     C  403   6.080   4.371   3.253 -1.1784 -0.4616  1.3738
    4MOL0     O  404   5.947   4.398   3.231  0.5593 -0.0659 -0.0763
    4MOL0     C  405   5.873   4.365   3.353  0.5862  0.5430 -0.6480
    4MOL0     C  406   5.731   4.421   3.350 -0.6938 -0.0561 -0.1688
    4MOL0     C  407   5.649   4.367   3.467 -0.0247 -0.4855  0.4513
    4MOL0     C  408   5.683   4.424   3.608 -0.5037  0.4928  0.0376
    4MOL0     C  409   5.620   4.357   3.728  0.2653  0.1985  0.7190
    4MOL0     C  410   5.670   4.408   3.868  0.7728  0.6549 -0.2409
    4MOL0     C  411   5.621   4.319   3.981  0.0764  0.3726  0.2447
    4MOL0     C  412   5.663   4.356   4.122 -0.2995 -0.3973 -0.6073
    4MOL0     N  413   5.573   4.292   4.224 -0.3032  0.4871  0.8708
    4MOL0     C  414   5.573   4.169   4.286  0.3151  0.1566  0.0739
    4MOL0     C  415   5.467   4.169   4.368  1.2360 -0.2666  0.7277
    4MOL0     C  416   5.447   4.067   4.476 -0.3636  0.0257  0.3237
    4MOL0     C  417   5.309   4.063   4.538  0.1516 -0.0191 -0.0362
    4MOL0     C  418   5.193   4.016   4.437 -0.7914 -0.3227 -0.1302
    4MOL0     C  419   5.069   3.974   4.501  1.2351  0.1912 -1.0399
    4MOL0     O  420   5.068   3.844   4.576  0.4675  0.0967  0.4559
    4MOL0     C  421   4.957   3.815   4.653 -0.5051  0.4230  0.4057
    4MOL0     C  422   4.956   3.695   4.724 -0.1644  0.8168  0.1079
    4MOL0     C  423   4.845   3.649   4.797  0.6815  0.0075  0.0994
    4MOL0     C  424   4.731   3.728   4.805  0.3132  0.1513 -0.3748
    4MOL0     C  425   4.615   3.682   4.884 -0.8000  0.1727  0.1644
    4MOL0     O  426   4.499   3.732   4.834 -0.4623 -0.5360  0.4526
    4MOL0     C  427   4.382   3.672   4.879 -0.7820  0.4824 -0.7123
    4MOL0     C  428   4.291   3.598   4.801 -0.4416 -0.2348  0.2416
    4MOL0     C  429   4.178   3.540   4.859 -0.3056  0.1309  0.3086
    4MOL0     C  430   4.142   3.554   4.992 -0.0697  0.4692  0.4958
    4MOL0     O  431   4.034   3.503   5.054 -0.3669  0.1745 -0.8626
    4MOL0     C  432   3.905   3.490   4.987 -0.1616 -0.8513 -0.3752
    4MOL0     C  433   3.798   3.449   5.084 -0.0636 -1.1478  0.6082
    4MOL0     C  434   3.673   3.392   5.008 -0.3311 -0.3889 -0.3704
    4MOL0     C  435   3.553   3.369   5.094 -0.9488 -0.1743  0.0408
    4MOL0     C  436   3.441   3.300   5.022 -0.1654  0.1468  0.6950
    4MOL0     C  437   3.298   3.299   5.085  0.2407 -0.4323 -0.1018
    4MOL0     C  438   3.311   3.242   5.233 -1.1505 -0.0758  0.7241
    4MOL0     C  439   3.180   3.218   5.311 -0.0432 -0.0120  0.2709
    4MOL0    Cl  440   3.201   3.158   5.473 -0.3693  0.3828 -0.6485
    4MOL0     C  441   4.224   3.638   5.060  0.5552  0.2135 -0.3496
    4MOL0     C  442   4.339   3.695   5.011 -1.1956  0.0537 -0.2313
    4MOL0     O  443   4.627   3.610   4.984  1.2064 -0.1339  0.3216
    4MOL0     C  444   4.731   3.856   4.738  0.1533  0.7605 -0.8405
    4MOL0     C  445   4.853   3.898   4.676  0.1027  0.6896  0.3386
    4MOL0     N  446   5.385   4.279   4.337 -0.5893  0.3631  0.7447
    4MOL0     N  447   5.454   4.349   4.252 -0.7519 -0.6200 -0.3397
    4MOL0     C  448   6.163   4.456   3.184  0.6997 -0.7421  0.6927
    4MOL0     C  449   6.298   4.450   3.194 -0.7045  0.5108  0.2878
    4MOL0     C  450   6.700   4.260   3.177 -0.2565 -0.1646 -0.4421
    4MOL0     C  451   6.773   4.163   3.112 -0.8989 -0.3382 -0.0155
    4MOL0     C  452   6.912   4.153   3.123 -0.5374 -0.1323 -0.7842
    4MOL0     C  453   6.987   4.258   3.183  0.1397 -0.4234  1.1836
    4MOL0     O  454   7.124   4.251   3.204  0.0779  0.2601  0.0589
    4MOL0     C  455   7.199   4.190   3.106  0.5008  0.0318  0.3039
    4MOL0     C  456   7.352   4.182   3.148  0.9640 -0.0895 -0.6280
    4MOL0     C  457   7.444   4.121   3.039  0.3091 -0.9706  0.2474
    4MOL0     C  458   7.590   4.141   3.079  0.2438 -0.4148  0.1146
    4MOL0     C  459   7.682   4.070   2.993 -0.2482 -0.1774  0.2880
    4MOL0     C  460   7.757   3.996   2.931 -0.2633  0.2991 -0.8679
    4MOL0     C  461   6.921   4.349   3.261 -0.3351  0.1096  0.4247
    4MOL0     C  462   6.777   4.353   3.257 -0.0766  0.9112  0.6196
    4MOL0     H  463   6.314   4.156   3.371  0.6476  0.1738 -0.6294
    4MOL0     H  464   6.069   4.182   3.348 -3.1991  2.5882 -0.6358
    4MOL0     H  465   5.933   4.402   3.437 -0.6077 -0.6394  0.7699
    4MOL0     H  466   5.864   4.258   3.373  0.7519  0.7201  0.4413
    4MOL0     H  467   5.682   4.403   3.254 -0.1910  1.3869 -0.7285
    4MOL0     H  468   5.737   4.529   3.363 -2.0017 -0.1973  2.0802
    4MOL0     H  469   5.665   4.260   3.453 -1.8808 -0.5448 -1.9789
    4MOL0     H  470   5.545   4.396   3.447 -0.1401  0.8625  2.6462
    4MOL0     H  471   5.792   4.416   3.616 -0.4435 -0.0345 -1.0303
    4MOL0     H  472   5.664   4.532   3.613  1.0720  0.7533  4.2953
    4MOL0     H  473   5.642   4.250   3.732 -0.6199  0.0281  1.2925
    4MOL0     H  474   5.511   4.370   3.728  0.0679 -1.2597  1.8370
    4MOL0     H  475   5.632   4.509   3.887  0.9432  1.0031 -1.6281
    4MOL0     H  476   5.779   4.418   3.872  0.6785  1.5010  1.2731
    4MOL0     H  477   5.512   4.317   3.975 -0.1957 -2.1315  3.2536
    4MOL0     H  478   5.659   4.218   3.962 -0.1338 -0.3033  2.9695
    4MOL0     H  479   5.662   4.465   4.129  2.0802 -0.2392 -1.6616
    4MOL0     H  480   5.769   4.329   4.134 -1.0972 -3.3575  0.7469
    4MOL0     H  481   5.649   4.092   4.292 -1.8681 -2.0727  0.7351
    4MOL0     H  482   5.518   4.088   4.558 -1.6181 -0.2196  1.5069
    4MOL0     H  483   5.481   3.972   4.433  1.6059  0.7526  0.1405
    4MOL0     H  484   5.279   4.165   4.564 -2.1063 -0.2543 -1.4562
    4MOL0     H  485   5.307   4.008   4.632  1.2558 -2.6296 -1.4307
    4MOL0     H  486   5.166   4.104   4.378 -0.6543  0.4965  1.0014
    4MOL0     H  487   5.228   3.934   4.373  0.4842  0.3967 -0.3905
    4MOL0     H  488   4.988   3.972   4.428  1.5130  0.0635 -1.3478
    4MOL0     H  489   5.036   4.045   4.577  0.3358 -0.3389 -0.9271
    4MOL0     H  490   5.048   3.637   4.718 -0.6931 -0.0014 -0.2464
    4MOL0     H  491   4.852   3.557   4.853  1.3381 -0.2460 -0.3825
    4MOL0     H  492   4.315   3.588   4.696 -0.4961 -1.7412  0.3457
    4MOL0     H  493   4.116   3.476   4.798  1.3177  0.2773 -1.5944
    4MOL0     H  494   3.912   3.416   4.906  0.3765  0.0259 -1.1574
    4MOL0     H  495   3.875   3.585   4.943 -1.0107 -0.1710  1.5725
    4MOL0     H  496   3.780   3.536   5.147 -1.6947 -2.3409  1.8668
    4MOL0     H  497   3.826   3.368   5.152  0.0951 -0.6052  1.1981
    4MOL0     H  498   3.702   3.296   4.964  2.2207 -2.1003  4.3661
    4MOL0     H  499   3.651   3.469   4.933 -0.2346 -0.4204 -0.4305
    4MOL0     H  500   3.591   3.303   5.172 -0.3663 -0.5053 -0.5197
    4MOL0     H  501   3.518   3.461   5.142 -1.5911  0.4445 -1.5383
    4MOL0     H  502   3.468   3.195   5.005  1.1687  0.5192  0.3807
    4MOL0     H  503   3.434   3.346   4.923 -0.3308  1.2515  1.2049
    4MOL0     H  504   3.226   3.238   5.030  0.4195 -0.8556  0.1310
    4MOL0     H  505   3.257   3.400   5.083 -1.6036 -1.1485  0.0128
    4MOL0     H  506   3.356   3.144   5.214 -3.7298 -0.6476 -4.4933
    4MOL0     H  507   3.369   3.311   5.294 -2.2813 -0.6543  2.5262
    4MOL0     H  508   3.121   3.145   5.255 -0.4472  0.9407 -0.5880
    4MOL0     H  509   3.124   3.311   5.320  1.5786  0.9368  1.0670
    4MOL0     H  510   4.204   3.649   5.166 -0.0796  0.1137 -0.4498
    4MOL0     H  511   4.411   3.751   5.070 -0.3335 -1.9715  0.7390
    4MOL0     H  512   4.650   3.928   4.744  1.0348  1.8247 -1.3773
    4MOL0     H  513   4.852   4.001   4.642 -0.1779  0.5183 -0.1916
    4MOL0     H  514   6.126   4.535   3.119 -1.6392 -2.5496 -0.3269
    4MOL0     H  515   6.358   4.529   3.151 -0.2316  1.0655  1.8862
    4MOL0     H  516   6.723   4.083   3.057 -2.6319  0.2117  0.7002
    4MOL0     H  517   6.966   4.062   3.098  1.9033  1.0668 -0.1219
    4MOL0     H  518   7.183   4.231   3.006  0.8966 -1.0974 -0.2413
    4MOL0     H  519   7.178   4.084   3.088  0.3465  0.0614  0.3092
    4MOL0     H  520   7.382   4.284   3.175 -1.8058  0.8903 -0.9977
    4MOL0     H  521   7.349   4.122   3.239  1.2481  0.4965 -0.2236
    4MOL0     H  522   7.429   4.155   2.936 -1.7403  1.7733  1.3307
    4MOL0     H  523   7.428   4.013   3.028  2.0933 -1.1463 -1.2650
    4MOL0     H  524   7.618   4.246   3.080  2.3960 -0.9296  1.9720
    4MOL0     H  525   7.601   4.110   3.184 -1.2641 -1.0502  0.1166
    4MOL0     H  526   7.826   3.930   2.881 -2.3158 -0.8408 -2.3466
    4MOL0     H  527   6.976   4.413   3.329  1.5209 -0.8194 -0.1359
    4MOL0     H  528   6.724   4.415   3.329 -2.8673 -1.3189  0.6377
    5MOL0     O  529   6.971   1.408  11.080  0.1299 -0.1049  0.4221
    5MOL0     C  530   6.984   1.525  11.047 -0.0964  0.0250 -0.3253
    5MOL0     O  531   7.105   1.594  11.017 -0.2989  0.2206 -0.1641
    5MOL0     C  532   7.224   1.527  11.002 -0.3333  0.8427  0.9083
    5MOL0     C  533   7.323   1.593  10.938  0.8135 -0.2869  0.1602
    5MOL0     C  534   7.450   1.548  10.926 -0.6038 -0.0535  0.7158
    5MOL0     C  535   7.492   1.420  10.973 -0.6883 -1.4552  0.4591
    5MOL0     O  536   7.622   1.372  10.965  0.1527  0.5644  1.1157
    5MOL0     C  537   7.728   1.469  10.921 -0.7243  0.0339 -0.1100
    5MOL0     C  538   7.866   1.405  10.925 -0.7166  0.4423 -0.5734
    5MOL0     C  539   7.896   1.350  11.062 -0.3046  0.4649 -0.6673
    5MOL0     C  540   8.004   1.240  11.058  0.1998 -0.0436  0.3561
    5MOL0     C  541   8.141   1.292  11.019  0.6283  0.5060 -0.4811
    5MOL0     C  542   8.249   1.194  11.062 -0.4024 -0.1848 -0.8710
    5MOL0     C  543   8.381   1.240  10.996  0.5837  0.7914 -0.5263
    5MOL0     C  544   8.496   1.143  11.045 -0.2329  0.8620 -0.1299
    5MOL0     N  545   8.461   0.999  11.035  0.2813  0.2656 -0.0261
    5MOL0     C  546   8.425   0.928  10.924  0.6921 -0.1051  0.2358
    5MOL0     C  547   8.402   0.808  10.965 -0.0748 -0.2200 -0.1698
    5MOL0     C  548   8.341   0.705  10.875  0.2064  0.2293  0.2963
    5MOL0     C  549   8.193   0.714  10.902 -0.2301  0.7240  0.1147
    5MOL0     C  550   8.129   0.842  10.851 -0.2509 -0.7014  0.1315
    5MOL0     C  551   7.976   0.854  10.886  0.0560 -0.1183 -0.5562
    5MOL0     O  552   7.955   0.838  11.024 -0.3040  0.4966 -0.3270
    5MOL0     C  553   7.834   0.864  11.072 -0.0513  0.3821  0.2513
    5MOL0     C  554   7.827   0.889  11.214  0.0301 -0.4512  0.6630
    5MOL0     C  555   7.710   0.924  11.280  0.6550  0.5230 -0.5612
    5MOL0     C  556   7.586   0.920  11.207 -0.7349 -0.2615 -0.3240
    5MOL0     C  557   7.460   0.943  11.277  1.0335  0.8287 -0.1980
    5MOL0     O  558   7.353   0.983  11.199  0.7875 -0.4833  0.4998
    5MOL0     C  559   7.236   1.013  11.265  0.1825 -1.0910 -0.7524
    5MOL0     C  560   7.139   0.914  11.267  0.7752  0.4900 -0.6516
    5MOL0     C  561   7.008   0.944  11.323  0.5606 -0.4891  0.3733
    5MOL0     C  562   6.975   1.084  11.359 -0.6344 -0.5900 -0.2764
    5MOL0     O  563   6.847   1.098  11.394  0.0394 -0.2128  0.0353
    5MOL0     C  564   6.794   1.232  11.413  0.3278 -0.6518  0.1954
    5MOL0     C  565   6.640   1.219  11.431  0.0253 -0.3698  0.3774
    5MOL0     C  566   6.573   1.354  11.470 -0.4348  0.4329 -0.5746
    5MOL0     C  567   6.427   1.333  11.516  0.6055  0.8731  0.1808
    5MOL0     C  568   6.342   1.456  11.561  1.1866 -0.3774 -0.1671
    5MOL0     C  569   6.204   1.418  11.618 -0.4451  0.4511 -0.0654
    5MOL0     C  570   6.148   1.522  11.713  0.2434 -0.3577 -0.4327
    5MOL0     C  571   6.000   1.493  11.745 -0.5179 -0.1701  0.7571
    5MOL0    Cl  572   5.944   1.622  11.856  0.0053  0.6932  0.1781
    5MOL0     C  573   7.077   1.186  11.359  0.1826  0.6891 -0.1880
    5MOL0     C  574   7.207   1.143  11.311  0.0047 -0.2184 -0.2869
    5MOL0     O  575   7.448   0.916  11.399  0.0832  0.0846 -0.2834
    5MOL0     C  576   7.597   0.900  11.064 -0.0623 -0.4171 -0.0883
    5MOL0     C  577   7.718   0.874  11.002  0.2561  0.5745 -0.3714
    5MOL0     N  578   8.432   0.794  11.101 -1.0450  0.8490 -0.8620
    5MOL0     N  579   8.483   0.908  11.137 -0.5733  0.3439 -0.5420
    5MOL0     C  580   7.388   1.354  11.029  0.2210  0.2334 -0.2414
    5MOL0     C  581   7.258   1.402  11.052  0.6821 -0.4601  0.8988
    5MOL0     C  582   6.863   1.609  11.035 -0.8909  0.8290 -0.2216
    5MOL0     C  583   6.876   1.727  10.958  0.2089  0.2505 -0.8086
    5MOL0     C  584   6.766   1.802  10.944  0.9613  0.2335  0.2457
    5MOL0     C  585   6.639   1.778  11.005  0.0683 -1.0565 -0.7877
    5MOL0     O  586   6.518   1.853  10.986 -0.0925 -0.1331 -0.0806
    5MOL0     C  587   6.542   1.988  11.026 -0.4560 -1.0323 -0.2608
    5MOL0     C  588   6.410   2.061  11.050 -0.5279 -0.1312  0.1609
    5MOL0     C  589   6.330   2.000  11.160 -0.1676 -0.3051  0.0212
    5MOL0     C  590   6.177   2.013  11.141 -0.0266  0.1440 -0.0325
    5MOL0     C  591   6.142   2.158  11.137 -0.2970 -0.0239  0.0708
    5MOL0     C  592   6.102   2.269  11.129  0.7862  0.4029 -0.0705
    5MOL0     C  593   6.624   1.659  11.069 -0.5045 -1.2226 -0.1011
    5MOL0     C  594   6.736   1.579  11.090  0.7807 -0.0518  0.3139
    5MOL0     H  595   7.296   1.684  10.884 -0.6328 -0.7735  0.0304
    5MOL0     H  596   7.513   1.614  10.867 -2.1441  1.9137  1.1406
    5MOL0     H  597   7.733   1.561  10.980  1.5555 -0.8027  1.1467
    5MOL0     H  598   7.701   1.489  10.817 -2.7237 -2.0216 -0.0597
    5MOL0     H  599   7.947   1.467  10.885  0.0627  0.8198  1.4633
    5MOL0     H  600   7.866   1.321  10.855 -0.1708  1.5044 -1.8873
    5MOL0     H  601   7.809   1.310  11.115  0.0828  1.4847  0.8115
    5MOL0     H  602   7.950   1.422  11.124  1.9549 -1.5424 -0.1894
    5MOL0     H  603   8.000   1.187  11.153 -3.2939  1.8715  1.4431
    5MOL0     H  604   7.975   1.166  10.983  1.1268  0.0751 -0.1374
    5MOL0     H  605   8.163   1.383  11.074  3.1872  0.0343 -0.5825
    5MOL0     H  606   8.141   1.315  10.912 -1.6298  1.1019 -0.3914
    5MOL0     H  607   8.217   1.093  11.033 -1.1344 -0.6057  1.2078
    5MOL0     H  608   8.258   1.180  11.171  1.2648 -1.5973 -1.1437
    5MOL0     H  609   8.366   1.242  10.888  1.4337 -0.4606 -0.6880
    5MOL0     H  610   8.419   1.336  11.031  2.0203 -0.5907  1.9821
    5MOL0     H  611   8.521   1.157  11.150 -1.7990  0.3443  0.3321
    5MOL0     H  612   8.585   1.159  10.983 -0.5566 -0.0110 -0.8564
    5MOL0     H  613   8.407   0.966  10.824  1.2074  0.7003  0.4421
    5MOL0     H  614   8.373   0.607  10.913 -0.2465  1.4054  4.2212
    5MOL0     H  615   8.369   0.729  10.773  0.4552 -1.5853 -0.0934
    5MOL0     H  616   8.171   0.700  11.008 -0.3069  4.1129  0.6604
    5MOL0     H  617   8.146   0.640  10.836  0.0268  0.5422  0.1361
    5MOL0     H  618   8.188   0.925  10.890  1.1452 -1.8977  0.6558
    5MOL0     H  619   8.140   0.832  10.743 -2.7192 -0.0334 -0.2548
    5MOL0     H  620   7.912   0.786  10.829 -0.6908 -0.7125  0.9111
    5MOL0     H  621   7.956   0.958  10.858 -0.6862 -0.0400  0.2108
    5MOL0     H  622   7.921   0.899  11.266 -0.4475  0.0264  1.4480
    5MOL0     H  623   7.702   0.961  11.382  1.7082  1.7812 -0.9057
    5MOL0     H  624   7.166   0.813  11.238 -2.7974 -2.2094  3.9101
    5MOL0     H  625   6.932   0.866  11.324  0.0184  0.0313  1.2855
    5MOL0     H  626   6.820   1.305  11.336  2.7700 -0.4178  1.1648
    5MOL0     H  627   6.816   1.281  11.508 -4.3292 -0.3843  1.3956
    5MOL0     H  628   6.630   1.134  11.499  1.0981 -2.5376 -1.9958
    5MOL0     H  629   6.589   1.197  11.337  1.0157 -2.0159  0.1884
    5MOL0     H  630   6.569   1.425  11.387 -0.2185 -0.0260 -0.9777
    5MOL0     H  631   6.631   1.404  11.549  0.5706  0.3526 -1.2464
    5MOL0     H  632   6.375   1.283  11.434 -1.3654 -0.1725  1.9535
    5MOL0     H  633   6.440   1.264  11.599  1.0396  1.2402  0.4232
    5MOL0     H  634   6.328   1.526  11.479  0.5052 -0.7964 -0.4156
    5MOL0     H  635   6.392   1.501  11.647  0.5543  0.1352 -0.0662
    5MOL0     H  636   6.218   1.323  11.670 -1.5098  1.3004  1.8511
    5MOL0     H  637   6.137   1.401  11.533 -2.8290 -0.1225  1.8267
    5MOL0     H  638   6.208   1.528  11.804 -3.0458 -1.2690  1.9765
    5MOL0     H  639   6.153   1.617  11.658  1.9530  0.1495  0.5356
    5MOL0     H  640   5.995   1.396  11.795  2.1485 -1.6595 -1.5655
    5MOL0     H  641   5.946   1.489  11.650  0.8529 -1.0352 -0.0303
    5MOL0     H  642   7.039   1.284  11.386 -0.8409  0.6193 -1.2801
    5MOL0     H  643   7.275   1.227  11.306 -0.2881 -0.0347 -1.9220
    5MOL0     H  644   7.506   0.899  11.005 -0.6403 -1.3789  0.7864
    5MOL0     H  645   7.704   0.843  10.899 -0.5013  0.4280 -0.2320
    5MOL0     H  646   7.410   1.256  11.069  0.4943  1.4388  2.8997
    5MOL0     H  647   7.184   1.332  11.088 -1.0820  0.9511  0.1795
    5MOL0     H  648   6.967   1.769  10.916  0.9169 -0.4270  0.0302
    5MOL0     H  649   6.781   1.891  10.883  1.2086 -1.2062 -1.9093
    5MOL0     H  650   6.605   2.030  10.947 -0.2824  0.2662  0.5393
    5MOL0     H  651   6.604   1.998  11.116  1.2084 -1.7086 -1.2913
    5MOL0     H  652   6.432   2.165  11.074 -1.8607 -0.4460  3.2613
    5MOL0     H  653   6.348   2.058  10.960  2.2928 -1.2305 -1.9248
    5MOL0     H  654   6.364   2.046  11.254  2.8754 -0.0466 -1.0965
    5MOL0     H  655   6.342   1.893  11.178 -2.1259 -0.1509  2.8922
    5MOL0     H  656   6.147   1.959  11.050  0.7347  0.7050 -0.6359
    5MOL0     H  657   6.128   1.981  11.233 -0.1152  3.1370  1.0822
    5MOL0     H  658   6.058   2.367  11.131 -3.2197 -1.1666 -1.1306
    5MOL0     H  659   6.525   1.627  11.099 -0.4243 -1.0569  0.3394
    5MOL0     H  660   6.714   1.493  11.152 -0.3896  0.6120  0.8459
    6MOL0     O  661   4.093   4.323   3.305 -0.2568  0.6206 -0.4374
    6MOL0     C  662   4.128   4.286   3.423 -0.4745 -1.3057  0.3731
    6MOL0     O  663   4.257   4.262   3.473  0.5819  0.0151  0.3320
    6MOL0     C  664   4.371   4.266   3.396  0.0412  0.6198  0.8352
    6MOL0     C  665   4.483   4.319   3.456  0.2294 -0.0355  0.3029
    6MOL0     C  666   4.596   4.353   3.380  0.2865 -0.0852  0.4063
    6MOL0     C  667   4.612   4.313   3.253 -0.1946  0.5710  1.0304
    6MOL0     O  668   4.732   4.339   3.187 -0.0977 -0.0550 -0.3262
    6MOL0     C  669   4.772   4.239   3.098  0.0339 -0.0449  0.0542
    6MOL0     C  670   4.923   4.213   3.105 -0.9064 -0.5386 -0.1929
    6MOL0     C  671   5.015   4.333   3.057  0.2014 -0.8198  0.5395
    6MOL0     C  672   5.023   4.442   3.166  0.2205 -0.3302 -0.0332
    6MOL0     C  673   5.135   4.545   3.148  0.4925  0.3756  0.3703
    6MOL0     C  674   5.156   4.648   3.256  0.0241 -0.6316 -1.0798
    6MOL0     C  675   5.308   4.695   3.250  0.8661 -0.5662 -0.3783
    6MOL0     C  676   5.400   4.610   3.340  0.2776  0.6206  0.2159
    6MOL0     N  677   5.396   4.661   3.480 -0.4678  0.4575  0.1353
    6MOL0     C  678   5.312   4.616   3.580  0.1527 -0.0950  1.1571
    6MOL0     C  679   5.342   4.689   3.689  0.3377 -0.1801  0.5479
    6MOL0     C  680   5.287   4.683   3.830 -0.0602 -0.2440 -0.0455
    6MOL0     C  681   5.308   4.538   3.881 -0.3047  0.0984 -0.1043
    6MOL0     C  682   5.199   4.492   3.982  0.3944 -0.5065  0.4029
    6MOL0     C  683   5.196   4.572   4.115  0.3418 -0.2652  0.0451
    6MOL0     O  684   5.137   4.489   4.212  0.0657 -0.2859 -0.1541
    6MOL0     C  685   4.998   4.474   4.208 -0.0364 -0.5372 -0.8980
    6MOL0     C  686   4.954   4.352   4.266 -0.1462  0.1780  0.0138
    6MOL0     C  687   4.824   4.319   4.283 -1.3376 -0.3206 -0.4748
    6MOL0     C  688   4.733   4.417   4.234  0.4387  0.7245 -0.5683
    6MOL0     C  689   4.586   4.385   4.235 -0.7079 -0.2950 -0.5852
    6MOL0     O  690   4.512   4.449   4.143 -0.3244  0.0069  0.6906
    6MOL0     C  691   4.379   4.426   4.135  0.2533  0.0222 -0.4678
    6MOL0     C  692   4.324   4.367   4.018 -0.8132  0.3075 -0.1218
    6MOL0     C  693   4.186   4.366   3.996 -0.4409  0.1371 -0.2360
    6MOL0     C  694   4.102   4.413   4.096 -0.4881 -0.1894  0.5995
    6MOL0     O  695   3.976   4.430   4.064  0.3232  0.5865  0.5315
    6MOL0     C  696   3.954   4.512   3.950  0.3530 -0.0923  0.5115
    6MOL0     C  697   3.808   4.558   3.955 -0.0358 -0.7082  0.3620
    6MOL0     C  698   3.775   4.681   4.049 -0.2537 -0.4165  0.4579
    6MOL0     C  699   3.857   4.805   4.024 -0.3472  0.0832  0.3688
    6MOL0     C  700   3.804   4.942   4.068  0.3038  0.4919 -0.0150
    6MOL0     C  701   3.793   4.947   4.224  0.0277 -0.5360  0.0917
    6MOL0     C  702   3.931   4.963   4.279 -0.1937  0.1762 -0.2136
    6MOL0     C  703   3.935   5.023   4.418 -0.3019  0.3306 -0.0869
    6MOL0    Cl  704   3.896   5.196   4.418 -0.1303  0.4180 -0.0069
    6MOL0     C  705   4.151   4.461   4.210 -0.1573 -0.6515 -1.0142
    6MOL0     C  706   4.290   4.469   4.239  0.3392 -0.0833  1.4712
    6MOL0     O  707   4.543   4.304   4.319 -0.5859 -0.6477 -0.5061
    6MOL0     C  708   4.769   4.541   4.179  0.0106  0.3770  0.5833
    6MOL0     C  709   4.907   4.572   4.167  0.1834  0.0413 -0.1627
    6MOL0     N  710   5.443   4.771   3.657  0.1014  0.8759  0.6467
    6MOL0     N  711   5.476   4.759   3.528  0.1470 -0.0439 -0.4970
    6MOL0     C  712   4.499   4.250   3.185 -0.1440 -0.1983 -1.0253
    6MOL0     C  713   4.376   4.225   3.263  0.1195 -0.7858 -0.2741
    6MOL0     C  714   4.002   4.277   3.515  0.3710 -0.2207  0.7342
    6MOL0     C  715   3.872   4.311   3.462 -0.8161  1.1691  0.4835
    6MOL0     C  716   3.768   4.304   3.553  0.9968 -0.0232  0.4591
    6MOL0     C  717   3.785   4.245   3.684  0.6388 -0.4325  0.4154
    6MOL0     O  718   3.685   4.204   3.765 -0.0990 -0.2508 -0.0217
    6MOL0     C  719   3.548   4.227   3.732  1.0902 -0.1145  0.1399
    6MOL0     C  720   3.437   4.214   3.853  0.5059  0.2009 -0.4354
    6MOL0     C  721   3.292   4.160   3.814 -0.4191 -0.0328  0.1659
    6MOL0     C  722   3.220   4.262   3.720  0.6124 -0.9309  0.4676
    6MOL0     C  723   3.095   4.214   3.672  0.4893 -0.7244 -0.7924
    6MOL0     C  724   2.996   4.158   3.630 -0.4469  0.6189  0.3968
    6MOL0     C  725   3.913   4.214   3.722 -0.7966  0.5990  0.0251
    6MOL0     C  726   4.028   4.240   3.647  0.5355 -0.1788 -0.3393
    6MOL0     H  727   4.476   4.358   3.557 -1.7038  1.8131 -0.4803
    6MOL0     H  728   4.681   4.408   3.418  0.5297  1.1278 -1.7781
    6MOL0     H  729   4.758   4.279   2.997  2.7570  1.5647  0.2189
    6MOL0     H  730   4.717   4.146   3.117 -1.5186  0.2627 -2.5044
    6MOL0     H  731   4.943   4.125   3.045  1.4076  0.4554 -0.9972
    6MOL0     H  732   4.956   4.197   3.209  2.2881  3.7049 -0.2825
    6MOL0     H  733   4.973   4.371   2.963  0.2632 -0.1875  0.7664
    6MOL0     H  734   5.115   4.295   3.032 -0.3246 -0.8339 -1.8257
    6MOL0     H  735   4.932   4.502   3.159  0.1550 -0.3527  0.5872
    6MOL0     H  736   5.030   4.397   3.265  2.3868  0.8156  0.4167
    6MOL0     H  737   5.112   4.598   3.055  0.0170  0.2837  0.4350
    6MOL0     H  738   5.227   4.486   3.143  0.2081 -0.0551  0.1871
    6MOL0     H  739   5.122   4.610   3.353 -0.1981  0.5256 -0.6858
    6MOL0     H  740   5.097   4.740   3.249 -3.1857 -2.1049  2.5833
    6MOL0     H  741   5.341   4.691   3.146 -0.1184 -0.7818 -0.6898
    6MOL0     H  742   5.307   4.802   3.273 -1.3822 -0.5347 -0.4879
    6MOL0     H  743   5.501   4.625   3.301  1.1694  0.2754  2.2917
    6MOL0     H  744   5.379   4.503   3.336 -3.4492  1.1669  1.4110
    6MOL0     H  745   5.255   4.524   3.571  0.5901 -0.2851  0.1615
    6MOL0     H  746   5.182   4.711   3.841 -0.4353 -0.2724 -2.8730
    6MOL0     H  747   5.350   4.757   3.881 -1.5590  1.3792 -0.4533
    6MOL0     H  748   5.410   4.530   3.921 -0.1928 -0.6437 -0.5198
    6MOL0     H  749   5.306   4.466   3.799  0.9894 -0.4755  0.3326
    6MOL0     H  750   5.099   4.498   3.938  0.0807 -0.8686  1.0592
    6MOL0     H  751   5.220   4.387   4.003 -0.9744 -0.8914 -0.0759
    6MOL0     H  752   5.150   4.670   4.103 -0.3402 -0.5346  0.4438
    6MOL0     H  753   5.299   4.578   4.152 -0.2972 -1.6670  2.2561
    6MOL0     H  754   5.024   4.279   4.305 -0.3918  0.2823  0.6651
    6MOL0     H  755   4.787   4.226   4.324 -2.4188 -0.6943 -2.2226
    6MOL0     H  756   4.397   4.330   3.948 -0.3392 -0.9191  0.9934
    6MOL0     H  757   4.147   4.336   3.899 -0.8670 -0.3360  0.0759
    6MOL0     H  758   3.959   4.455   3.857  1.5554  1.2592 -0.2980
    6MOL0     H  759   4.020   4.599   3.940 -2.4804  2.0905 -0.6521
    6MOL0     H  760   3.757   4.466   3.984  0.2222 -1.4711 -1.4904
    6MOL0     H  761   3.784   4.576   3.850  1.3577  2.6418  0.4796
    6MOL0     H  762   3.781   4.636   4.148 -0.3847 -4.1571 -1.0692
    6MOL0     H  763   3.673   4.712   4.022  0.0520 -1.2919 -1.9705
    6MOL0     H  764   3.962   4.791   4.053 -0.7488 -0.1755  1.7926
    6MOL0     H  765   3.850   4.810   3.915  1.0643 -1.3798  0.1639
    6MOL0     H  766   3.703   4.956   4.028 -0.0491 -0.6638  0.4245
    6MOL0     H  767   3.871   5.020   4.030  2.1294 -0.8711  0.2884
    6MOL0     H  768   3.739   4.857   4.258 -1.1052  0.5321  1.2134
    6MOL0     H  769   3.735   5.034   4.254  2.1552  1.5351 -1.4144
    6MOL0     H  770   3.959   4.859   4.299  0.6233  0.9130  2.9767
    6MOL0     H  771   4.002   5.012   4.212  2.7595 -0.5753  2.1420
    6MOL0     H  772   4.029   5.002   4.470 -0.3920 -0.2667 -0.1492
    6MOL0     H  773   3.861   4.971   4.481 -0.3485 -0.1198 -0.5073
    6MOL0     H  774   4.093   4.512   4.286  2.5504 -0.8365  1.3419
    6MOL0     H  775   4.322   4.519   4.330 -0.4420  0.0242  1.7007
    6MOL0     H  776   4.690   4.610   4.154  1.5396  1.0733 -2.8192
    6MOL0     H  777   4.943   4.669   4.135 -0.3914 -0.0864 -1.2145
    6MOL0     H  778   4.504   4.229   3.079  1.8505  1.8323 -1.4196
    6MOL0     H  779   4.286   4.192   3.212 -1.7237  2.0085  0.9956
    6MOL0     H  780   3.864   4.337   3.357  0.7957  2.2489  0.5898
    6MOL0     H  781   3.669   4.326   3.514  1.4177  1.5676  0.2343
    6MOL0     H  782   3.512   4.153   3.660 -2.3620 -0.3517  1.8869
    6MOL0     H  783   3.537   4.329   3.694  3.7943 -0.5105 -1.9791
    6MOL0     H  784   3.481   4.145   3.926  0.1267 -0.6184 -0.9622
    6MOL0     H  785   3.429   4.315   3.894  0.6514  0.1189 -0.2073
    6MOL0     H  786   3.230   4.143   3.903 -0.1649  0.2777  0.4043
    6MOL0     H  787   3.301   4.070   3.754 -0.9696  0.5502 -0.8184
    6MOL0     H  788   3.197   4.356   3.771  1.0823  0.2238 -1.3098
    6MOL0     H  789   3.287   4.287   3.637 -1.5335 -0.0001 -1.0803
    6MOL0     H  790   2.926   4.089   3.588 -1.4239  1.9204 -0.1653
    6MOL0     H  791   3.922   4.187   3.826 -0.9579 -0.4895 -0.2359
    6MOL0     H  792   4.129   4.212   3.674 -0.0009  0.2977  2.4011
    7MOL0     O  793   6.316   4.660   9.626  0.2926 -0.4516  0.5400
    7MOL0     C  794   6.261   4.767   9.639 -0.3624 -0.0737 -1.1680
    7MOL0     O  795   6.140   4.806   9.583 -0.3427 -0.0697 -0.8284
    7MOL0     C  796   6.071   4.720   9.500  0.3384  0.6442  0.2293
    7MOL0     C  797   6.070   4.577   9.497  0.5371  0.8281 -1.0769
    7MOL0     C  798   5.991   4.499   9.410 -0.5642 -0.4731  0.3937
    7MOL0     C  799   5.897   4.563   9.323  0.0111 -0.8168 -0.3316
    7MOL0     O  800   5.814   4.487   9.251 -0.1340 -0.2405 -0.1574
    7MOL0     C  801   5.689   4.535   9.206  0.6072  0.6065 -0.0607
    7MOL0     C  802   5.612   4.432   9.120  0.4221  0.4429 -0.1156
    7MOL0     C  803   5.565   4.319   9.216  0.0823 -0.5539  0.4190
    7MOL0     C  804   5.504   4.206   9.127  0.0327  0.4352  0.0271
    7MOL0     C  805   5.445   4.098   9.208 -0.1843 -0.2387  0.0146
    7MOL0     C  806   5.350   4.010   9.128  0.0869  0.5335  0.5353
    7MOL0     C  807   5.216   4.076   9.079 -0.1329 -1.1505  0.2776
    7MOL0     C  808   5.122   3.991   8.992  0.2319  0.6027  0.2257
    7MOL0     N  809   5.011   4.059   8.923 -0.6180  0.0508 -0.5787
    7MOL0     C  810   5.010   4.122   8.802  0.4037 -0.3877  0.3832
    7MOL0     C  811   4.890   4.174   8.785  0.0081 -0.4370 -0.2872
    7MOL0     C  812   4.837   4.251   8.670 -0.4061  0.6777  0.3521
    7MOL0     C  813   4.688   4.228   8.661  0.1037 -1.0042  0.9584
    7MOL0     C  814   4.631   4.308   8.546  0.1858  0.4221 -0.5328
    7MOL0     C  815   4.482   4.276   8.533  0.2345 -0.2426 -0.3699
    7MOL0     O  816   4.430   4.329   8.411 -0.3055  0.3599 -0.5998
    7MOL0     C  817   4.301   4.371   8.416  0.2224 -0.4412 -0.1567
    7MOL0     C  818   4.199   4.329   8.504 -0.2471 -0.0323  0.2251
    7MOL0     C  819   4.069   4.383   8.487  0.4402  0.6798 -0.3868
    7MOL0     C  820   4.032   4.461   8.372 -0.4529  0.6585 -0.3146
    7MOL0     C  821   3.897   4.506   8.360  0.0898 -0.9365 -0.4113
    7MOL0     O  822   3.862   4.611   8.277  0.1129  0.1453 -0.1440
    7MOL0     C  823   3.725   4.625   8.257 -0.6030  0.2270  0.4603
    7MOL0     C  824   3.657   4.720   8.341 -0.0331 -0.2826  0.1481
    7MOL0     C  825   3.515   4.731   8.326  0.0058 -0.2114  0.2429
    7MOL0     C  826   3.446   4.658   8.230 -0.2457 -0.5177 -0.0959
    7MOL0     O  827   3.303   4.660   8.213  0.0038 -0.2680  0.7766
    7MOL0     C  828   3.229   4.754   8.287  0.1465 -0.4898 -0.2157
    7MOL0     C  829   3.085   4.758   8.236  0.4747 -0.3637  1.0831
    7MOL0     C  830   3.085   4.824   8.101 -0.4290  0.3357 -0.0901
    7MOL0     C  831   2.931   4.812   8.054 -1.3039 -0.1182  0.2871
    7MOL0     C  832   2.924   4.876   7.912 -0.5895 -0.1619  0.4419
    7MOL0     C  833   2.780   4.911   7.876  0.4035 -0.1955 -0.0388
    7MOL0     C  834   2.773   4.977   7.736  0.2827 -0.5403 -0.7196
    7MOL0     C  835   2.619   4.985   7.696 -1.1039  0.8524  0.8824
    7MOL0    Cl  836   2.541   5.106   7.785 -0.4712 -0.6670 -0.2139
    7MOL0     C  837   3.517   4.578   8.138 -0.6147 -0.2969 -0.7581
    7MOL0     C  838   3.656   4.554   8.158 -0.6075 -0.4563 -0.2733
    7MOL0     O  839   3.821   4.455   8.442 -0.0742  0.6603 -0.3750
    7MOL0     C  840   4.136   4.512   8.293 -0.9718 -0.9815 -0.3568
    7MOL0     C  841   4.273   4.462   8.317  0.5815  0.6506 -0.2559
    7MOL0     N  842   4.819   4.139   8.899  0.3207  0.0907  0.6633
    7MOL0     N  843   4.891   4.067   8.977  0.6057 -0.0117  0.4339
    7MOL0     C  844   5.907   4.709   9.321  0.5695  0.1609  0.3952
    7MOL0     C  845   5.994   4.787   9.405 -0.0859  0.3882  1.3101
    7MOL0     C  846   6.328   4.868   9.730 -0.4571 -0.5766 -0.3433
    7MOL0     C  847   6.428   4.821   9.820  0.2530  0.7095  0.1310
    7MOL0     C  848   6.508   4.912   9.890 -0.1893  0.0955 -0.2064
    7MOL0     C  849   6.485   5.048   9.893  0.4432 -1.3276 -0.4289
    7MOL0     O  850   6.537   5.145   9.983 -0.5198 -0.1783  0.4907
    7MOL0     C  851   6.623   5.111  10.097  0.4795  0.9195  1.0195
    7MOL0     C  852   6.668   5.233  10.174  0.1687  0.3702  0.1017
    7MOL0     C  853   6.735   5.337  10.072  0.4858 -0.4685 -0.2792
    7MOL0     C  854   6.814   5.443  10.154  0.3226  0.0444  0.2077
    7MOL0     C  855   6.948   5.404  10.203 -0.7700 -0.0435 -0.3485
    7MOL0     C  856   7.052   5.375  10.265 -0.2001  0.0932  0.2991
    7MOL0     C  857   6.393   5.094   9.808  0.5395  0.2498  0.6469
    7MOL0     C  858   6.314   5.011   9.724  0.6545  0.0469  1.1057
    7MOL0     H  859   6.137   4.515   9.556  0.7681 -0.1077 -2.2658
    7MOL0     H  860   5.995   4.391   9.402  2.8503 -0.3169 -3.7008
    7MOL0     H  861   5.708   4.623   9.143 -0.6171  0.5089 -0.6127
    7MOL0     H  862   5.628   4.568   9.291 -0.8029 -2.1276  0.0888
    7MOL0     H  863   5.686   4.387   9.053  0.4065 -0.1997  0.2882
    7MOL0     H  864   5.533   4.488   9.068  1.5522  2.4712  0.2513
    7MOL0     H  865   5.488   4.350   9.287  0.3638 -1.7525  1.2674
    7MOL0     H  866   5.650   4.272   9.265 -1.1022 -2.4239  0.7744
    7MOL0     H  867   5.425   4.247   9.063 -1.5256 -3.6318 -1.0027
    7MOL0     H  868   5.586   4.169   9.065 -2.5457 -2.4189 -2.0523
    7MOL0     H  869   5.391   4.137   9.295 -0.5464 -4.1607  1.8076
    7MOL0     H  870   5.521   4.024   9.238 -0.3415  0.2088  1.6259
    7MOL0     H  871   5.317   3.931   9.195  0.0955  1.4913  1.7122
    7MOL0     H  872   5.413   3.980   9.044 -1.5901 -0.9467 -0.2582
    7MOL0     H  873   5.165   4.100   9.173  0.1418  2.2175 -0.3194
    7MOL0     H  874   5.237   4.176   9.041  0.9983 -1.2024  0.7352
    7MOL0     H  875   5.084   3.916   9.062 -0.2507  1.5288  0.9942
    7MOL0     H  876   5.186   3.946   8.916  0.0540 -0.2896  0.5984
    7MOL0     H  877   5.087   4.136   8.726  0.7498 -0.4167  0.7257
    7MOL0     H  878   4.885   4.210   8.580  0.5576  1.2744  0.5795
    7MOL0     H  879   4.866   4.356   8.671  1.1330  0.4103 -2.6992
    7MOL0     H  880   4.639   4.260   8.754  1.5924 -2.0602  2.1580
    7MOL0     H  881   4.661   4.122   8.651 -3.5759 -0.1299  0.1222
    7MOL0     H  882   4.653   4.414   8.559 -0.4035  0.6358 -1.1900
    7MOL0     H  883   4.683   4.277   8.455  0.9567  0.0631  0.0185
    7MOL0     H  884   4.426   4.322   8.615 -2.8910 -0.6590 -2.0870
    7MOL0     H  885   4.466   4.168   8.530  0.4519 -0.2714 -0.4506
    7MOL0     H  886   4.228   4.252   8.575  1.2579 -0.9172 -1.2625
    7MOL0     H  887   4.000   4.345   8.562  1.3862  1.4613  0.9081
    7MOL0     H  888   3.703   4.793   8.407  0.4088 -1.1973  0.8730
    7MOL0     H  889   3.461   4.794   8.396 -1.3826 -1.1280  0.0355
    7MOL0     H  890   3.281   4.850   8.288  1.0089 -0.9095 -1.8991
    7MOL0     H  891   3.228   4.707   8.386  0.5786 -1.5509 -0.7000
    7MOL0     H  892   3.029   4.819   8.307 -0.7817  2.4754 -2.0798
    7MOL0     H  893   3.048   4.658   8.212 -0.5106 -0.4041  2.6228
    7MOL0     H  894   3.158   4.781   8.032 -0.2465  0.7897 -0.1805
    7MOL0     H  895   3.111   4.928   8.119 -0.6955  0.3135  0.4585
    7MOL0     H  896   2.897   4.708   8.050 -0.2802 -0.4423 -0.2778
    7MOL0     H  897   2.875   4.873   8.127  0.4238  2.2694 -0.2580
    7MOL0     H  898   2.958   4.807   7.835 -3.2238  0.7178 -1.6722
    7MOL0     H  899   2.980   4.970   7.908 -0.6896 -0.0712  1.0436
    7MOL0     H  900   2.735   4.966   7.959 -0.2053 -0.6928 -0.0280
    7MOL0     H  901   2.735   4.811   7.868  2.1629 -0.9716 -0.6838
    7MOL0     H  902   2.813   5.078   7.720 -3.4914  1.4244  0.7878
    7MOL0     H  903   2.833   4.920   7.664  3.5351  0.6840  0.8114
    7MOL0     H  904   2.572   4.886   7.705  0.6517 -0.3033 -1.5451
    7MOL0     H  905   2.615   5.015   7.591  1.1485 -2.4652 -0.3321
    7MOL0     H  906   3.470   4.527   8.055 -0.7634 -1.5921  0.1003
    7MOL0     H  907   3.715   4.496   8.088 -1.2984  0.7131 -1.8992
    7MOL0     H  908   4.117   4.589   8.219 -3.4169 -0.0702  1.1258
    7MOL0     H  909   4.352   4.489   8.247  1.3464 -1.6181 -0.3565
    7MOL0     H  910   5.851   4.760   9.243  2.2874 -1.7667 -2.2779
    7MOL0     H  911   5.998   4.895   9.390  2.3258  0.2677  0.6058
    7MOL0     H  912   6.451   4.716   9.832  1.0596  0.9576  0.8740
    7MOL0     H  913   6.588   4.875   9.954 -1.5482  0.7380  1.9959
    7MOL0     H  914   6.707   5.046  10.072 -1.0780 -1.0664  0.6546
    7MOL0     H  915   6.566   5.047  10.165 -0.5310  2.0090  1.2495
    7MOL0     H  916   6.571   5.272  10.202 -1.0265 -1.6757 -0.9090
    7MOL0     H  917   6.736   5.207  10.256 -0.8568 -4.1598 -0.1785
    7MOL0     H  918   6.662   5.383  10.006 -0.4274 -0.5833  0.6344
    7MOL0     H  919   6.812   5.282  10.016  2.6128  2.5514 -0.5964
    7MOL0     H  920   6.826   5.534  10.094  1.1863 -2.3183 -3.5049
    7MOL0     H  921   6.749   5.471  10.238  0.1181 -0.6654  0.2932
    7MOL0     H  922   7.146   5.366  10.316 -1.4427 -3.0544  2.3428
    7MOL0     H  923   6.372   5.200   9.805 -0.6032  0.0916  2.0652
    7MOL0     H  924   6.237   5.056   9.661 -0.8878 -0.2165  2.7244
    8MOL0     O  925   5.732   8.657   1.622 -0.2464  0.3982  0.2786
    8MOL0     C  926   5.773   8.661   1.510 -0.5635 -0.3407  0.2661
    8MOL0     O  927   5.694   8.669   1.397 -0.1947 -0.4660 -0.7316
    8MOL0     C  928   5.561   8.707   1.415  0.0171  0.0765 -0.1905
    8MOL0     C  929   5.540   8.830   1.474 -0.5356  0.1222 -0.4551
    8MOL0     C  930   5.404   8.868   1.505 -0.9111 -0.0672  0.2439
    8MOL0     C  931   5.298   8.791   1.462 -0.0664 -0.4051  0.0849
    8MOL0     O  932   5.173   8.835   1.497 -0.3888 -0.7289 -0.1840
    8MOL0     C  933   5.070   8.761   1.453  0.8135 -0.3139 -0.4743
    8MOL0     C  934   4.940   8.818   1.517  0.3987  0.0030 -0.4501
    8MOL0     C  935   4.815   8.747   1.461  1.2616 -0.0084  0.3230
    8MOL0     C  936   4.683   8.811   1.514 -0.3613  0.2148  0.0076
    8MOL0     C  937   4.570   8.749   1.427  0.1140 -0.0810  0.0052
    8MOL0     C  938   4.429   8.802   1.465 -0.1612  0.4326 -0.8562
    8MOL0     C  939   4.311   8.735   1.408  0.4626 -0.4169  1.2697
    8MOL0     C  940   4.217   8.656   1.504 -0.9447  0.3424 -0.3139
    8MOL0     N  941   4.115   8.578   1.432  0.3919 -0.3073 -1.0106
    8MOL0     C  942   3.977   8.603   1.444 -1.1025  0.0060 -0.4651
    8MOL0     C  943   3.925   8.502   1.376 -0.1534 -0.0718 -0.5729
    8MOL0     C  944   3.775   8.478   1.355 -0.6453  0.6736  0.1722
    8MOL0     C  945   3.740   8.559   1.228 -0.3925 -0.0308  0.3675
    8MOL0     C  946   3.595   8.521   1.185  0.0452 -0.0462  0.1334
    8MOL0     C  947   3.582   8.368   1.154 -0.2128  0.7143  0.4091
    8MOL0     O  948   3.450   8.363   1.094 -0.3998 -0.6555  0.4901
    8MOL0     C  949   3.333   8.405   1.152 -0.1798 -0.2121 -0.6475
    8MOL0     C  950   3.224   8.437   1.067 -0.1721  0.0188  0.3115
    8MOL0     C  951   3.104   8.482   1.119 -0.0465 -0.2485  0.3370
    8MOL0     C  952   3.093   8.506   1.254 -0.1271 -0.5081 -0.1358
    8MOL0     C  953   2.962   8.566   1.296 -0.3549  0.2076  0.1677
    8MOL0     O  954   2.894   8.620   1.200  0.2156  0.0672 -0.4996
    8MOL0     C  955   2.761   8.653   1.220 -0.1285  0.4449  0.1180
    8MOL0     C  956   2.725   8.775   1.277 -0.5544 -0.3279 -0.7377
    8MOL0     C  957   2.587   8.809   1.286 -0.7889 -0.8744 -0.1482
    8MOL0     C  958   2.489   8.732   1.215 -0.1846 -0.4376  0.0410
    8MOL0     O  959   2.353   8.753   1.224  0.3481 -0.2011 -0.1560
    8MOL0     C  960   2.303   8.863   1.299 -0.5687  0.5514 -0.4846
    8MOL0     C  961   2.152   8.881   1.259  0.3619 -0.5945  0.3516
    8MOL0     C  962   2.047   8.808   1.350  0.3464 -0.0915  0.6602
    8MOL0     C  963   1.906   8.856   1.326  0.0447  0.2940  0.2098
    8MOL0     C  964   1.793   8.784   1.390  0.4334  0.3015 -0.3558
    8MOL0     C  965   1.661   8.856   1.351  0.6206  0.4314  0.1963
    8MOL0     C  966   1.536   8.786   1.405  0.2056 -0.3052 -0.1809
    8MOL0     C  967   1.403   8.849   1.355  0.2158  0.6281 -0.0068
    8MOL0    Cl  968   1.416   8.810   1.182  0.4619 -0.0171  0.1197
    8MOL0     C  969   2.531   8.614   1.144 -0.9079  0.2766 -0.5601
    8MOL0     C  970   2.670   8.578   1.143  0.2931  0.2713  1.0816
    8MOL0     O  971   2.928   8.557   1.418  0.1262  0.4178  0.3130
    8MOL0     C  972   3.198   8.469   1.338  0.1100  0.3231 -0.8564
    8MOL0     C  973   3.317   8.424   1.285 -0.3983  0.1662  0.1134
    8MOL0     N  974   4.022   8.414   1.332  0.5583 -0.3219 -0.0926
    8MOL0     N  975   4.132   8.465   1.364 -0.2898  0.1496 -0.3578
    8MOL0     C  976   5.323   8.672   1.397 -0.1272  1.0430  1.0279
    8MOL0     C  977   5.453   8.626   1.376  0.0452 -0.2140 -0.0559
    8MOL0     C  978   5.920   8.660   1.490 -0.2497  0.4810  0.0239
    8MOL0     C  979   5.971   8.715   1.373 -0.3093  1.2850  0.5921
    8MOL0     C  980   6.110   8.722   1.344  0.4986 -0.0006  0.2603
    8MOL0     C  981   6.204   8.658   1.428  0.2498 -0.0905 -0.1904
    8MOL0     O  982   6.342   8.672   1.389  0.2479  0.5352 -0.4774
    8MOL0     C  983   6.445   8.639   1.487  0.0653  0.2172  0.7473
    8MOL0     C  984   6.580   8.669   1.420 -0.1919  0.3268  0.6221
    8MOL0     C  985   6.620   8.561   1.312  0.7768  0.3530  0.0050
    8MOL0     C  986   6.734   8.618   1.228  0.6247 -0.3128 -0.6719
    8MOL0     C  987   6.805   8.518   1.136 -1.2207  0.0080 -0.2629
    8MOL0     C  988   6.874   8.444   1.070  0.5508 -0.6210 -0.0715
    8MOL0     C  989   6.157   8.612   1.554  0.1450  0.5605  0.1028
    8MOL0     C  990   6.018   8.608   1.580 -0.3782  0.5873 -0.6415
    8MOL0     H  991   5.622   8.895   1.502 -0.4873  0.5102 -1.4335
    8MOL0     H  992   5.393   8.962   1.559  0.5376 -1.0460  2.3450
    8MOL0     H  993   5.070   8.658   1.490  0.2338 -0.0396  0.3347
    8MOL0     H  994   5.062   8.754   1.344  0.2124 -0.7113 -0.4047
    8MOL0     H  995   4.928   8.924   1.491 -0.4503  0.0484  0.0840
    8MOL0     H  996   4.936   8.806   1.625 -2.1828 -2.5756 -0.7032
    8MOL0     H  997   4.807   8.644   1.494  1.1135  0.5404  2.1119
    8MOL0     H  998   4.818   8.758   1.352 -0.7110  3.0379  0.4465
    8MOL0     H  999   4.667   8.796   1.621 -1.4944 -1.3372 -0.3408
    8MOL0     H 1000   4.697   8.917   1.490  1.6527 -0.4950 -2.4331
    8MOL0     H 1001   4.577   8.640   1.435 -0.1287 -0.1214 -0.3241
    8MOL0     H 1002   4.598   8.770   1.323  1.3303 -2.3016 -0.1847
    8MOL0     H 1003   4.434   8.906   1.430 -0.9466  1.2975  1.3942
    8MOL0     H 1004   4.420   8.796   1.574 -1.8879 -0.2185 -1.0086
    8MOL0     H 1005   4.255   8.816   1.360  1.0916 -0.4747  0.4346
    8MOL0     H 1006   4.349   8.668   1.331  1.5961  1.7522 -0.1484
    8MOL0     H 1007   4.169   8.725   1.574  1.6648  0.2481  1.7125
    8MOL0     H 1008   4.281   8.592   1.565  2.3053  1.7893 -1.9777
    8MOL0     H 1009   3.927   8.688   1.490 -0.4502  0.7662 -1.1194
    8MOL0     H 1010   3.714   8.505   1.441 -0.8524  1.7009 -0.2729
    8MOL0     H 1011   3.761   8.372   1.332  0.0291  0.5324  0.3949
    8MOL0     H 1012   3.818   8.547   1.153 -0.5376  0.6788  0.0959
    8MOL0     H 1013   3.741   8.665   1.255  1.3851 -1.0981  5.8880
    8MOL0     H 1014   3.540   8.552   1.274  2.0674  0.4422  1.2901
    8MOL0     H 1015   3.563   8.587   1.104  0.8982 -1.0014 -1.0089
    8MOL0     H 1016   3.588   8.303   1.241  1.7397  1.1001  0.6131
    8MOL0     H 1017   3.658   8.336   1.081 -1.3860 -2.6977  0.5239
    8MOL0     H 1018   3.228   8.425   0.959 -2.2002  4.5417 -0.4957
    8MOL0     H 1019   3.022   8.492   1.048 -0.5397 -0.0178  0.9267
    8MOL0     H 1020   2.815   8.821   1.318  0.6125 -1.4837 -1.9006
    8MOL0     H 1021   2.563   8.904   1.333  0.3924  1.4563 -3.8180
    8MOL0     H 1022   2.368   8.950   1.283  0.0405  0.0285 -0.8766
    8MOL0     H 1023   2.307   8.843   1.407 -1.6978 -1.9045 -0.8467
    8MOL0     H 1024   2.136   8.841   1.158 -0.7820  1.1391 -0.1834
    8MOL0     H 1025   2.124   8.985   1.246  0.6463 -0.2429  2.2614
    8MOL0     H 1026   2.072   8.831   1.454  2.3975  0.6337  0.0604
    8MOL0     H 1027   2.070   8.705   1.322  0.5962  0.3230 -0.7430
    8MOL0     H 1028   1.894   8.963   1.346  1.6926  0.2156  1.8295
    8MOL0     H 1029   1.881   8.839   1.221 -0.3795 -1.0182  0.5043
    8MOL0     H 1030   1.803   8.794   1.499  2.3562  1.7585 -0.6172
    8MOL0     H 1031   1.796   8.680   1.358  1.9091  0.5216 -0.9923
    8MOL0     H 1032   1.661   8.853   1.241 -0.0908  1.8009  0.1340
    8MOL0     H 1033   1.660   8.962   1.377  0.4916  0.4497  0.1212
    8MOL0     H 1034   1.527   8.679   1.387 -0.6286 -0.8128  2.6893
    8MOL0     H 1035   1.538   8.792   1.514 -0.6787  2.2220 -0.2417
    8MOL0     H 1036   1.406   8.957   1.370 -1.2624  1.1055 -2.5413
    8MOL0     H 1037   1.319   8.792   1.398 -0.3381 -0.4105 -2.2665
    8MOL0     H 1038   2.456   8.555   1.092 -0.7617  1.2757 -1.9840
    8MOL0     H 1039   2.702   8.490   1.088 -2.8045 -0.3052  0.0338
    8MOL0     H 1040   3.188   8.480   1.446 -1.9437 -1.7689 -0.7454
    8MOL0     H 1041   3.403   8.396   1.345  0.8817  0.4852 -1.5005
    8MOL0     H 1042   5.246   8.610   1.352  1.5503  0.2735 -1.0002
    8MOL0     H 1043   5.463   8.528   1.330 -0.4115  0.1742 -1.0189
    8MOL0     H 1044   5.895   8.749   1.302 -0.3209 -0.2616 -0.1867
    8MOL0     H 1045   6.132   8.771   1.249 -2.1608  0.5514 -0.1512
    8MOL0     H 1046   6.420   8.543   1.533 -3.5738  1.9149  2.7587
    8MOL0     H 1047   6.444   8.710   1.571 -1.0365 -0.4943  1.3718
    8MOL0     H 1048   6.586   8.772   1.383 -2.2248  1.7876  3.9094
    8MOL0     H 1049   6.662   8.661   1.491 -0.9285  1.0428  1.5824
    8MOL0     H 1050   6.530   8.552   1.251  1.0739  1.6950 -0.6545
    8MOL0     H 1051   6.655   8.468   1.358  1.3182  0.2436 -0.6038
    8MOL0     H 1052   6.678   8.689   1.166 -1.7136  1.6477  3.2735
    8MOL0     H 1053   6.805   8.677   1.286  1.0131 -1.3584 -0.0623
    8MOL0     H 1054   6.946   8.376   1.028 -1.6262 -3.8013  0.9340
    8MOL0     H 1055   6.227   8.566   1.622  1.7932  2.1479 -0.4555
    8MOL0     H 1056   5.985   8.554   1.668 -2.6546 -0.3274 -1.9701
    9MOL0     O 1057   8.157   7.719   8.802  0.5247  0.2163  0.4161
    9MOL0     C 1058   8.213   7.776   8.711  0.1112 -0.6166  0.3210
    9MOL0     O 1059   8.149   7.858   8.613  0.3761  0.6024  0.3199
    9MOL0     C 1060   8.007   7.870   8.616 -1.3597  0.1916 -0.1529
    9MOL0     C 1061   7.952   7.986   8.671  0.7203 -0.1255  0.2550
    9MOL0     C 1062   7.816   7.995   8.682 -0.6474  0.5907  0.2039
    9MOL0     C 1063   7.727   7.899   8.632  0.0455  0.3913  0.1426
    9MOL0     O 1064   7.595   7.932   8.622 -0.3909  0.7407  0.1447
    9MOL0     C 1065   7.519   7.871   8.511  0.2253  0.1252  0.3897
    9MOL0     C 1066   7.380   7.929   8.502  0.6575 -1.1148 -0.3400
    9MOL0     C 1067   7.280   7.874   8.603 -0.3483 -0.1339 -0.4196
    9MOL0     C 1068   7.148   7.957   8.598 -0.2830 -0.2162  0.9714
    9MOL0     C 1069   7.035   7.906   8.689  0.6737  0.1140 -0.5155
    9MOL0     C 1070   6.901   7.972   8.660  0.0596 -0.9759  0.2122
    9MOL0     C 1071   6.818   7.972   8.786 -0.3744 -0.6388  0.2823
    9MOL0     C 1072   6.679   8.020   8.759  0.9396 -0.0385 -0.2341
    9MOL0     N 1073   6.596   7.987   8.872  0.0424 -0.1168 -0.5727
    9MOL0     C 1074   6.529   8.080   8.948 -0.1772  0.1127 -0.5797
    9MOL0     C 1075   6.431   8.002   9.006  0.5799 -0.1328 -0.2445
    9MOL0     C 1076   6.313   8.041   9.097 -0.7244  0.6016 -0.2574
    9MOL0     C 1077   6.221   8.139   9.029 -0.4337 -0.0130 -0.0360
    9MOL0     C 1078   6.132   8.065   8.926  0.1228 -0.5211 -0.7873
    9MOL0     C 1079   6.044   8.163   8.843 -0.0300 -0.9014 -0.5348
    9MOL0     O 1080   6.114   8.287   8.808  0.3199 -0.5925 -0.3947
    9MOL0     C 1081   6.217   8.278   8.720 -0.3627 -0.1096 -0.5138
    9MOL0     C 1082   6.314   8.387   8.718 -0.2592 -0.1393 -0.2355
    9MOL0     C 1083   6.427   8.385   8.633 -0.2830  0.0019  0.5184
    9MOL0     C 1084   6.452   8.276   8.557  0.1514 -0.3546  0.7852
    9MOL0     C 1085   6.577   8.263   8.484 -0.2397  0.3817 -0.3289
    9MOL0     O 1086   6.608   8.136   8.431  0.2091  0.5399  0.2802
    9MOL0     C 1087   6.735   8.105   8.389 -0.3616  0.3819  0.2248
    9MOL0     C 1088   6.736   8.004   8.290 -0.0743  0.2857  0.1121
    9MOL0     C 1089   6.858   7.968   8.219  0.6097  0.6363  0.0132
    9MOL0     C 1090   6.978   8.040   8.253 -0.1930  0.0135  1.2666
    9MOL0     O 1091   7.104   8.026   8.190  0.5629 -0.1151 -0.5490
    9MOL0     C 1092   7.117   7.916   8.103 -0.1817  0.4802  0.3627
    9MOL0     C 1093   7.246   7.921   8.030 -0.1149  1.3606  0.7321
    9MOL0     C 1094   7.357   7.881   8.126 -0.1293  0.1437 -0.1146
    9MOL0     C 1095   7.492   7.885   8.040  0.8204  0.3293  0.5436
    9MOL0     C 1096   7.611   7.845   8.126 -0.2870 -0.5875 -0.3708
    9MOL0     C 1097   7.742   7.867   8.053  0.6560  0.0902  0.2960
    9MOL0     C 1098   7.846   7.786   8.101  0.1007 -0.4994  0.3594
    9MOL0     C 1099   7.944   7.755   7.995 -0.1322 -0.5557  0.5333
    9MOL0    Cl 1100   7.871   7.618   7.902  0.2336 -0.5241  0.0344
    9MOL0     C 1101   6.967   8.148   8.338 -0.5758 -0.0162 -0.5387
    9MOL0     C 1102   6.853   8.179   8.410 -0.2485 -0.1063  0.0486
    9MOL0     O 1103   6.642   8.367   8.472  0.0068  0.7681 -0.5657
    9MOL0     C 1104   6.363   8.172   8.557 -1.2961  0.0931 -0.1319
    9MOL0     C 1105   6.248   8.177   8.629 -0.7639  0.4151  0.2917
    9MOL0     N 1106   6.456   7.868   8.983 -0.9223  0.5282  0.4776
    9MOL0     N 1107   6.557   7.859   8.896  0.7927  0.0028 -0.2886
    9MOL0     C 1108   7.787   7.791   8.559  0.0941 -0.1802  0.8194
    9MOL0     C 1109   7.921   7.780   8.553 -0.6090 -0.1693  0.2476
    9MOL0     C 1110   8.354   7.738   8.702  0.2355 -0.1006 -0.2112
    9MOL0     C 1111   8.431   7.794   8.595  0.3656 -0.8554  0.6818
    9MOL0     C 1112   8.565   7.763   8.566  0.4282 -0.0011  0.1289
    9MOL0     C 1113   8.619   7.661   8.647 -0.4737  0.5640  0.2527
    9MOL0     O 1114   8.747   7.608   8.631  0.7894 -0.3824 -0.1323
    9MOL0     C 1115   8.834   7.641   8.522 -0.0078 -0.2440 -0.3714
    9MOL0     C 1116   8.821   7.547   8.409  0.4210  0.6429 -0.2240
    9MOL0     C 1117   8.855   7.403   8.452  0.5279 -0.2325 -0.0813
    9MOL0     C 1118   8.839   7.296   8.333  0.4768 -0.2885 -0.7205
    9MOL0     C 1119   8.902   7.174   8.386 -0.2087  0.5839  0.6206
    9MOL0     C 1120   8.965   7.076   8.434  0.1870  0.1615  0.0185
    9MOL0     C 1121   8.545   7.605   8.749  0.0917 -0.5725 -0.0691
    9MOL0     C 1122   8.415   7.646   8.782 -0.0675  0.1174 -0.0170
    9MOL0     H 1123   8.020   8.061   8.711  4.2044 -2.6290 -0.4587
    9MOL0     H 1124   7.771   8.077   8.738  1.0241 -0.2140  2.9165
    9MOL0     H 1125   7.510   7.763   8.527  1.8078  0.1975  2.0880
    9MOL0     H 1126   7.570   7.890   8.416  0.8499 -2.9422 -0.0027
    9MOL0     H 1127   7.342   7.914   8.401 -1.2303 -1.3348  0.3549
    9MOL0     H 1128   7.383   8.036   8.523 -0.1964 -1.0453 -0.5079
    9MOL0     H 1129   7.326   7.868   8.702  4.9204 -1.3196 -2.5627
    9MOL0     H 1130   7.251   7.770   8.583  3.0608 -2.0485  3.2197
    9MOL0     H 1131   7.162   8.061   8.629  1.1465 -0.2483  0.4893
    9MOL0     H 1132   7.124   7.965   8.491 -0.0019  0.2351  0.9345
    9MOL0     H 1133   7.060   7.909   8.796 -0.5439  0.3472 -0.2255
    9MOL0     H 1134   7.023   7.799   8.673 -0.5149  0.0969  0.3611
    9MOL0     H 1135   6.858   7.917   8.576 -0.6847 -0.0903 -0.0136
    9MOL0     H 1136   6.912   8.075   8.624  1.4293 -0.3206  2.3159
    9MOL0     H 1137   6.820   7.875   8.836  0.3125 -0.0698  1.3976
    9MOL0     H 1138   6.852   8.040   8.865 -1.1492 -1.2122  1.1366
    9MOL0     H 1139   6.639   7.952   8.683 -0.3488 -1.7159  1.8321
    9MOL0     H 1140   6.679   8.121   8.717 -4.5746  0.3295 -0.1183
    9MOL0     H 1141   6.534   8.189   8.948  2.6882  0.0661 -0.9394
    9MOL0     H 1142   6.344   8.086   9.192 -0.8150  2.4139 -1.0455
    9MOL0     H 1143   6.249   7.957   9.126 -5.2833  3.7212 -0.2440
    9MOL0     H 1144   6.282   8.216   8.981 -0.8930 -0.4747 -1.4060
    9MOL0     H 1145   6.159   8.181   9.109  0.1918  1.1508 -0.1468
    9MOL0     H 1146   6.193   8.007   8.856 -0.4796 -0.4426 -1.3812
    9MOL0     H 1147   6.076   7.983   8.973 -1.2768 -1.5267 -3.9887
    9MOL0     H 1148   5.965   8.187   8.914  1.9627  1.1620  1.1888
    9MOL0     H 1149   6.004   8.106   8.759  2.7334 -2.8027 -0.6959
    9MOL0     H 1150   6.306   8.469   8.788  1.3806  0.0335 -0.2141
    9MOL0     H 1151   6.480   8.480   8.623 -3.2526  1.5767 -1.7039
    9MOL0     H 1152   6.650   7.947   8.255  1.0207 -1.3883  0.0587
    9MOL0     H 1153   6.850   7.880   8.156 -2.9118  0.2243  0.8098
    9MOL0     H 1154   7.028   7.926   8.041 -2.5629  0.3153  3.4888
    9MOL0     H 1155   7.114   7.823   8.160  0.7795 -1.5334 -2.6398
    9MOL0     H 1156   7.262   8.025   8.002 -1.6371  1.3202 -0.3877
    9MOL0     H 1157   7.255   7.852   7.945  0.4117  1.5836  0.6032
    9MOL0     H 1158   7.340   7.783   8.172 -3.3562  1.3609  1.6449
    9MOL0     H 1159   7.356   7.963   8.200 -2.2702  0.0868 -0.0204
    9MOL0     H 1160   7.481   7.815   7.957 -0.6071  1.3228 -0.1445
    9MOL0     H 1161   7.519   7.984   8.002 -2.4717  1.1247 -0.0385
    9MOL0     H 1162   7.603   7.740   8.154  0.8463  0.0054  2.6625
    9MOL0     H 1163   7.609   7.895   8.224 -3.2171 -0.8987 -0.1747
    9MOL0     H 1164   7.759   7.975   8.062 -2.4432  0.6551  0.7185
    9MOL0     H 1165   7.721   7.849   7.948  0.1708 -0.7170  0.5250
    9MOL0     H 1166   7.906   7.845   8.170  0.2336  2.4274 -2.0619
    9MOL0     H 1167   7.812   7.701   8.162 -0.9774 -0.5585 -0.2898
    9MOL0     H 1168   8.040   7.714   8.027 -0.6052 -2.1978 -0.0756
    9MOL0     H 1169   7.954   7.844   7.933 -2.3135 -0.4725  0.2207
    9MOL0     H 1170   7.057   8.205   8.356 -1.3758  1.7790 -1.9734
    9MOL0     H 1171   6.869   8.266   8.474  0.7925  0.9980 -1.6275
    9MOL0     H 1172   6.373   8.083   8.497 -0.6227 -2.1625  3.0471
    9MOL0     H 1173   6.188   8.088   8.612  0.3590 -0.2161 -0.5294
    9MOL0     H 1174   7.730   7.705   8.525  1.5250 -0.6970 -0.3536
    9MOL0     H 1175   7.958   7.691   8.503 -2.4925 -0.2277 -1.1807
    9MOL0     H 1176   8.395   7.862   8.519  1.2368  2.1670  2.8042
    9MOL0     H 1177   8.611   7.813   8.481  2.8127  1.3003  2.0598
    9MOL0     H 1178   8.932   7.650   8.571  0.4587  4.8499 -1.6745
    9MOL0     H 1179   8.817   7.743   8.486  0.8711  1.0287  2.4909
    9MOL0     H 1180   8.723   7.552   8.361 -0.4401 -0.1965  1.3713
    9MOL0     H 1181   8.894   7.580   8.334  1.2605 -1.2564 -0.3092
    9MOL0     H 1182   8.795   7.370   8.538 -1.3543  0.9634 -0.8760
    9MOL0     H 1183   8.955   7.404   8.496  0.9152 -0.9323 -0.9228
    9MOL0     H 1184   8.732   7.278   8.315  0.2283 -1.1594  1.4166
    9MOL0     H 1185   8.891   7.331   8.243  0.7205  1.7061  0.1381
    9MOL0     H 1186   9.012   6.992   8.482 -0.8170 -0.2138  0.3613
    9MOL0     H 1187   8.598   7.533   8.809  0.6486 -1.0454 -1.1011
    9MOL0     H 1188   8.360   7.596   8.860  1.8680 -1.1089  0.6152
   10MOL0     O 1189   9.974   3.157   6.736 -1.0004  0.0413 -1.0794
   10MOL0     C 1190   9.964   3.130   6.854 -0.1498  0.4451 -0.5569
   10MOL0     O 1191   9.883   3.036   6.909 -0.5955  0.5791 -0.2033
   10MOL0     C 1192   9.787   2.971   6.838 -0.2606 -1.0140 -0.0538
   10MOL0     C 1193   9.777   2.837   6.859 -0.4208 -0.0958 -0.3889
   10MOL0     C 1194   9.674   2.770   6.806 -0.1168 -0.2808  0.0300
   10MOL0     C 1195   9.579   2.836   6.721 -0.2350  0.5796 -0.4552
   10MOL0     O 1196   9.464   2.773   6.678  0.3022  0.7852  0.0761
   10MOL0     C 1197   9.493   2.651   6.604  0.7095 -0.4526 -0.7405
   10MOL0     C 1198   9.562   2.687   6.474 -0.5608 -0.2006  1.0883
   10MOL0     C 1199   9.563   2.565   6.376  0.8451  0.0537  0.5453
   10MOL0     C 1200   9.430   2.553   6.288  0.2852  0.3685  0.0837
   10MOL0     C 1201   9.434   2.437   6.183  0.0386 -0.6102  0.5730
   10MOL0     C 1202   9.321   2.434   6.087 -0.0667  0.6869 -0.2158
   10MOL0     C 1203   9.192   2.400   6.169 -0.8323  0.3092  0.0425
   10MOL0     C 1204   9.083   2.357   6.078  0.6297  0.7054 -0.3918
   10MOL0     N 1205   8.969   2.317   6.158  1.1791  0.1112  0.4595
   10MOL0     C 1206   8.924   2.188   6.173  1.3874 -0.4159  0.4119
   10MOL0     C 1207   8.795   2.203   6.213 -0.1603  0.6952 -0.2976
   10MOL0     C 1208   8.699   2.086   6.233  0.0356  0.2905 -0.4270
   10MOL0     C 1209   8.752   1.989   6.343  0.3655  0.1076 -0.2743
   10MOL0     C 1210   8.765   2.048   6.489  0.3596 -0.0112 -0.3552
   10MOL0     C 1211   8.657   2.145   6.530  0.2620 -0.4862 -0.5850
   10MOL0     O 1212   8.539   2.074   6.577 -0.2026  0.0570  0.0692
   10MOL0     C 1213   8.432   2.145   6.629  0.3430 -0.0462 -0.7031
   10MOL0     C 1214   8.422   2.285   6.650 -0.2226  0.5617 -0.0880
   10MOL0     C 1215   8.295   2.336   6.683 -1.4855  0.3048  1.1382
   10MOL0     C 1216   8.195   2.251   6.720  0.3044 -0.2724 -0.2539
   10MOL0     C 1217   8.059   2.311   6.754 -1.2453 -0.6466  0.1922
   10MOL0     O 1218   7.979   2.227   6.826  0.1375  0.1065 -0.1682
   10MOL0     C 1219   7.853   2.257   6.855 -0.0070 -0.0784  0.6041
   10MOL0     C 1220   7.750   2.166   6.816  0.1267  1.0741 -0.1538
   10MOL0     C 1221   7.611   2.183   6.856 -0.7582 -0.8994  0.1278
   10MOL0     C 1222   7.572   2.306   6.922 -1.2403 -0.0372  0.9935
   10MOL0     O 1223   7.445   2.329   6.950 -0.3312  0.0524  0.2065
   10MOL0     C 1224   7.388   2.228   7.038 -0.9166 -0.4356  0.7174
   10MOL0     C 1225   7.237   2.249   7.056 -0.2559  0.6817 -0.9871
   10MOL0     C 1226   7.158   2.256   6.926 -0.6500 -1.2407  0.6283
   10MOL0     C 1227   7.008   2.213   6.951 -0.5841  0.4649  0.0064
   10MOL0     C 1228   6.935   2.295   7.058  0.2323  0.3670  0.5012
   10MOL0     C 1229   6.784   2.276   7.071 -0.4060  0.8562 -0.8790
   10MOL0     C 1230   6.750   2.122   7.076  0.0893  0.2047  0.1281
   10MOL0     C 1231   6.604   2.083   7.095 -0.3320 -0.2064 -0.7594
   10MOL0    Cl 1232   6.491   2.153   6.979  0.0447  0.2314 -0.6283
   10MOL0     C 1233   7.675   2.397   6.951 -0.3948  0.2335  0.2384
   10MOL0     C 1234   7.815   2.382   6.916  0.3446  0.2158 -0.2822
   10MOL0     O 1235   8.047   2.430   6.726  0.2941  0.2517 -0.0387
   10MOL0     C 1236   8.215   2.109   6.711 -0.5899 -0.2474 -0.1540
   10MOL0     C 1237   8.327   2.054   6.655 -0.5435 -0.3911 -0.3975
   10MOL0     N 1238   8.768   2.334   6.224 -0.5051  0.2563 -0.9952
   10MOL0     N 1239   8.870   2.403   6.196 -0.0818 -0.5047  0.3358
   10MOL0     C 1240   9.597   2.973   6.694  0.7248  0.4520 -0.1784
   10MOL0     C 1241   9.697   3.039   6.754  0.0340  0.0881  0.7018
   10MOL0     C 1242  10.073   3.171   6.939  0.2976  0.1335  0.1241
   10MOL0     C 1243  10.131   3.094   7.036 -0.6296 -0.0574  0.2757
   10MOL0     C 1244  10.237   3.133   7.114 -0.7037 -0.6119 -0.2188
   10MOL0     C 1245  10.278   3.270   7.110  0.2106  0.4326  0.4330
   10MOL0     O 1246  10.367   3.335   7.193 -0.2122  0.0735  0.2068
   10MOL0     C 1247  10.454   3.274   7.285  0.1366  0.0368 -0.8554
   10MOL0     C 1248  10.574   3.214   7.215 -0.5896 -0.2484 -0.0784
   10MOL0     C 1249  10.662   3.310   7.137 -0.8453 -0.6624 -0.3780
   10MOL0     C 1250  10.754   3.234   7.045  0.4847 -0.4909 -0.5075
   10MOL0     C 1251  10.881   3.310   7.009  1.1190 -0.0963  0.1496
   10MOL0     C 1252  10.982   3.368   6.974 -0.4661 -0.6627  0.0421
   10MOL0     C 1253  10.217   3.352   7.016 -0.1718 -0.0313  0.1352
   10MOL0     C 1254  10.124   3.305   6.925 -0.4215  0.1609 -0.4791
   10MOL0     H 1255   9.844   2.783   6.925  2.9681 -1.0767 -4.1943
   10MOL0     H 1256   9.653   2.665   6.824 -0.5292 -0.2722 -0.3694
   10MOL0     H 1257   9.394   2.611   6.580  0.4164  0.8015 -1.7511
   10MOL0     H 1258   9.548   2.581   6.668 -0.2636  0.0746  0.7410
   10MOL0     H 1259   9.668   2.706   6.491 -0.6466 -1.6163  3.8007
   10MOL0     H 1260   9.511   2.776   6.434  0.5911 -1.0241 -2.5408
   10MOL0     H 1261   9.573   2.476   6.439 -3.1179 -2.3896 -1.8311
   10MOL0     H 1262   9.646   2.569   6.306  0.0060 -0.5526 -0.5056
   10MOL0     H 1263   9.351   2.534   6.361  0.5724  1.7697  0.7987
   10MOL0     H 1264   9.412   2.646   6.233 -0.9480  0.7526  1.0669
   10MOL0     H 1265   9.441   2.340   6.232  2.4889  0.5266  2.7925
   10MOL0     H 1266   9.523   2.451   6.121 -0.4486  2.2178  0.3791
   10MOL0     H 1267   9.337   2.350   6.019  1.0684  2.3704 -2.1560
   10MOL0     H 1268   9.306   2.532   6.040  0.7291  1.9490  1.9842
   10MOL0     H 1269   9.225   2.317   6.232  0.6688  1.5388  0.9513
   10MOL0     H 1270   9.175   2.481   6.241  1.1109 -1.4244  2.6669
   10MOL0     H 1271   9.121   2.273   6.020  2.5047 -0.2109  1.9800
   10MOL0     H 1272   9.050   2.441   6.016 -3.1067  0.8971  1.6141
   10MOL0     H 1273   8.978   2.097   6.149  0.1321 -1.7292  2.3361
   10MOL0     H 1274   8.693   2.030   6.138  2.4769  0.6907 -0.8947
   10MOL0     H 1275   8.602   2.112   6.275  1.0795  0.9151  1.7400
   10MOL0     H 1276   8.843   1.935   6.313 -1.9141 -4.4273  0.0708
   10MOL0     H 1277   8.683   1.906   6.361  1.5249 -0.4887  1.7475
   10MOL0     H 1278   8.774   1.969   6.564 -0.5392 -0.4215 -0.6615
   10MOL0     H 1279   8.856   2.108   6.489 -1.3116  2.6693  0.0987
   10MOL0     H 1280   8.640   2.228   6.461  1.8526  0.8484  0.5372
   10MOL0     H 1281   8.682   2.203   6.620 -3.6796  1.4015 -0.4928
   10MOL0     H 1282   8.507   2.351   6.639  2.7508 -2.8011  0.8802
   10MOL0     H 1283   8.290   2.444   6.687  0.8365  0.5439 -0.7620
   10MOL0     H 1284   7.770   2.071   6.767 -3.0183  0.5717 -0.6810
   10MOL0     H 1285   7.543   2.102   6.830  0.4798 -1.8696 -0.1925
   10MOL0     H 1286   7.446   2.246   7.129  1.7791  0.3680 -1.0187
   10MOL0     H 1287   7.415   2.127   7.003 -1.1363  0.3675 -2.0266
   10MOL0     H 1288   7.220   2.335   7.121  1.2948  0.1919  0.1382
   10MOL0     H 1289   7.196   2.157   7.100  0.3118 -0.7455 -3.2701
   10MOL0     H 1290   7.200   2.191   6.849 -1.9485 -0.6685 -0.6004
   10MOL0     H 1291   7.165   2.361   6.894  1.0304 -1.0803  1.3970
   10MOL0     H 1292   6.956   2.218   6.855  2.6588 -1.4469 -2.0103
   10MOL0     H 1293   7.007   2.109   6.985 -3.0807  0.8781  1.4905
   10MOL0     H 1294   6.961   2.400   7.041 -1.6867  0.7597 -0.3024
   10MOL0     H 1295   6.980   2.273   7.155  0.9163  0.2388  0.1665
   10MOL0     H 1296   6.739   2.327   6.985  1.5352  3.7313 -0.3111
   10MOL0     H 1297   6.755   2.321   7.166 -1.6303  2.5923 -2.0223
   10MOL0     H 1298   6.778   2.074   6.982 -3.4204  1.5913 -1.8026
   10MOL0     H 1299   6.810   2.075   7.155 -0.9011  0.7188  1.2224
   10MOL0     H 1300   6.579   2.114   7.197 -2.7034 -0.1190 -1.3272
   10MOL0     H 1301   6.587   1.975   7.087 -0.3269 -0.3106  0.4123
   10MOL0     H 1302   7.646   2.489   7.001 -1.0966 -0.0865  0.4315
   10MOL0     H 1303   7.887   2.454   6.953  0.4320 -0.3188  0.6232
   10MOL0     H 1304   8.137   2.042   6.746 -0.4799  0.1956  0.9733
   10MOL0     H 1305   8.344   1.947   6.653  0.8225 -0.3297  2.6386
   10MOL0     H 1306   9.522   3.018   6.630  1.3975 -0.5889 -1.7382
   10MOL0     H 1307   9.711   3.145   6.736 -0.8270  0.0392 -0.3016
   10MOL0     H 1308  10.099   2.990   7.042 -0.1695 -0.2395 -0.3309
   10MOL0     H 1309  10.287   3.064   7.181  3.2319  1.6906 -0.4759
   10MOL0     H 1310  10.399   3.204   7.348 -0.3144 -0.1912 -1.4923
   10MOL0     H 1311  10.483   3.355   7.353  1.1578  0.9735 -2.3479
   10MOL0     H 1312  10.638   3.171   7.292 -0.7972 -0.7612 -0.1934
   10MOL0     H 1313  10.537   3.136   7.148 -2.5841 -0.9167  1.7033
   10MOL0     H 1314  10.730   3.358   7.207 -0.1374  3.7773 -3.7237
   10MOL0     H 1315  10.606   3.391   7.090  0.4894 -0.7207 -2.1638
   10MOL0     H 1316  10.778   3.139   7.094 -3.5546 -1.1072  0.7268
   10MOL0     H 1317  10.691   3.213   6.958 -1.5077 -1.2022  1.0192
   10MOL0     H 1318  11.068   3.419   6.933 -1.5066  0.2220 -1.1310
   10MOL0     H 1319  10.245   3.456   7.002 -0.9416  0.5370  2.3596
   10MOL0     H 1320  10.099   3.372   6.843  1.7744  1.6503 -0.0037
   11MOL0     O 1321   5.235   1.105  10.879 -0.0279 -0.2566  0.4819
   11MOL0     C 1322   5.220   0.987  10.842 -0.5928  0.2427 -0.2391
   11MOL0     O 1323   5.105   0.915  10.863  0.0986 -0.4747 -0.1673
   11MOL0     C 1324   4.991   0.986  10.888 -0.1745  0.7614  0.0087
   11MOL0     C 1325   4.932   1.065  10.789 -0.2999 -0.3023 -0.7077
   11MOL0     C 1326   4.814   1.136  10.811 -0.8411 -0.2314  1.2573
   11MOL0     C 1327   4.743   1.123  10.927  0.1008  0.5949 -0.3849
   11MOL0     O 1328   4.633   1.200  10.942 -0.2297  0.1234 -0.0132
   11MOL0     C 1329   4.536   1.155  11.034 -0.2667 -1.2976  0.5121
   11MOL0     C 1330   4.399   1.208  10.996 -0.1009  0.1882 -0.1031
   11MOL0     C 1331   4.291   1.142  11.080  0.8521  0.1995  0.4047
   11MOL0     C 1332   4.157   1.191  11.029  0.4175  0.2348  0.3068
   11MOL0     C 1333   4.041   1.106  11.077 -1.3166  0.5254 -0.2274
   11MOL0     C 1334   3.914   1.165  11.039 -0.0265 -0.2751 -0.5651
   11MOL0     C 1335   3.787   1.109  11.108 -0.0701  0.3630 -0.4169
   11MOL0     C 1336   3.663   1.187  11.076 -0.6765  0.5370 -0.5775
   11MOL0     N 1337   3.537   1.135  11.125 -0.2896  0.1808 -0.2122
   11MOL0     C 1338   3.435   1.214  11.173 -0.8196  0.5010 -0.3869
   11MOL0     C 1339   3.325   1.141  11.161  0.6447  0.4459 -0.2020
   11MOL0     C 1340   3.189   1.200  11.189  0.1166 -0.2736  0.3739
   11MOL0     C 1341   3.076   1.100  11.191  0.3334  0.5174 -0.3377
   11MOL0     C 1342   3.088   0.996  11.294  0.4378  0.0270  0.7247
   11MOL0     C 1343   2.994   0.890  11.244  1.0162  0.2810  0.1322
   11MOL0     O 1344   2.980   0.808  11.367 -0.1517  0.9155  0.7494
   11MOL0     C 1345   2.861   0.782  11.430 -0.1105  0.4284 -0.3100
   11MOL0     C 1346   2.861   0.669  11.513  1.2805  0.2177  0.7167
   11MOL0     C 1347   2.755   0.638  11.602 -0.1279  0.1625 -0.1210
   11MOL0     C 1348   2.655   0.730  11.615  0.4555 -0.5082  0.0809
   11MOL0     C 1349   2.549   0.710  11.714  0.1177  0.9611 -0.7645
   11MOL0     O 1350   2.456   0.802  11.729  0.0142  0.9128 -0.1377
   11MOL0     C 1351   2.357   0.792  11.834 -0.0716  0.6023 -0.6697
   11MOL0     C 1352   2.324   0.905  11.909 -0.3178  0.5776 -0.6152
   11MOL0     C 1353   2.239   0.904  12.023 -0.6191  0.5210 -1.1420
   11MOL0     C 1354   2.170   0.783  12.048 -0.3508 -0.6009 -0.2236
   11MOL0     O 1355   2.072   0.759  12.147  0.1575  0.1254 -0.3315
   11MOL0     C 1356   2.023   0.865  12.235  0.6094 -0.5797 -0.1684
   11MOL0     C 1357   1.911   0.805  12.315 -0.1318 -0.5193 -0.9671
   11MOL0     C 1358   1.837   0.909  12.385  0.3905  0.2421  0.2405
   11MOL0     C 1359   1.690   0.866  12.415  0.1339  0.1996 -0.9676
   11MOL0     C 1360   1.632   0.957  12.521  0.0022 -0.2374 -0.0289
   11MOL0     C 1361   1.494   0.915  12.561  0.0486  0.0846 -0.0374
   11MOL0     C 1362   1.435   1.014  12.667 -0.3596  0.6294 -0.6372
   11MOL0     C 1363   1.281   1.027  12.644 -0.1039 -0.2075 -0.6154
   11MOL0    Cl 1364   1.216   1.170  12.739  0.0527 -0.3999  0.3266
   11MOL0     C 1365   2.193   0.669  11.965  0.2561 -0.1198  0.7610
   11MOL0     C 1366   2.280   0.679  11.858 -0.6062 -0.0347 -0.8147
   11MOL0     O 1367   2.542   0.599  11.771 -0.5569 -0.0501 -0.2979
   11MOL0     C 1368   2.656   0.846  11.532 -0.2578  0.5025 -0.6018
   11MOL0     C 1369   2.750   0.865  11.437  0.2546 -0.9091 -1.2752
   11MOL0     N 1370   3.357   1.021  11.094 -0.5376 -0.0836 -0.3973
   11MOL0     N 1371   3.486   1.014  11.087 -0.8747 -0.0533  0.4004
   11MOL0     C 1372   4.797   1.043  11.031  0.0642 -0.4837 -0.2578
   11MOL0     C 1373   4.926   0.985  11.013  0.2301  0.2400 -0.2525
   11MOL0     C 1374   5.343   0.913  10.815  0.4495 -0.0260 -0.1575
   11MOL0     C 1375   5.337   0.767  10.806  0.0666 -0.0092  0.0452
   11MOL0     C 1376   5.461   0.698  10.803  0.5758  0.3895 -0.5843
   11MOL0     C 1377   5.581   0.762  10.790 -0.3669  0.0538 -0.0000
   11MOL0     O 1378   5.704   0.705  10.782 -0.1460  0.6007  0.5903
   11MOL0     C 1379   5.733   0.566  10.809 -0.4870 -0.5225  0.5459
   11MOL0     C 1380   5.887   0.541  10.775  0.5067  0.2601  0.3280
   11MOL0     C 1381   5.922   0.395  10.816 -0.3541  0.6806 -0.3221
   11MOL0     C 1382   6.071   0.371  10.813  0.3753 -0.1474 -0.2324
   11MOL0     C 1383   6.123   0.374  10.679 -0.2099 -0.5738 -0.1958
   11MOL0     C 1384   6.197   0.385  10.580  0.1188 -0.1737 -0.3732
   11MOL0     C 1385   5.592   0.902  10.783  0.2695  0.4568  0.1006
   11MOL0     C 1386   5.473   0.978  10.808 -0.4866 -0.7216 -0.1002
   11MOL0     H 1387   4.956   1.057  10.684 -2.3563 -3.0486 -1.0773
   11MOL0     H 1388   4.780   1.202  10.732 -0.8683 -2.2058 -0.4649
   11MOL0     H 1389   4.558   1.187  11.137 -2.4849  0.1197  0.5942
   11MOL0     H 1390   4.527   1.046  11.042  0.7637 -1.3766  0.8345
   11MOL0     H 1391   4.393   1.174  10.892  3.1440 -4.0111  0.8094
   11MOL0     H 1392   4.398   1.317  10.999  1.4554  0.2737 -1.3396
   11MOL0     H 1393   4.307   1.161  11.186 -1.3908  1.7606  0.5300
   11MOL0     H 1394   4.292   1.036  11.054 -1.3950  0.7597 -2.6463
   11MOL0     H 1395   4.130   1.293  11.057 -1.8981 -0.0610 -0.5873
   11MOL0     H 1396   4.160   1.186  10.920  1.2416 -1.6337  0.3683
   11MOL0     H 1397   4.044   1.096  11.186 -1.0852  3.7470  0.1624
   11MOL0     H 1398   4.057   1.010  11.027 -0.8590  0.6452 -0.3127
   11MOL0     H 1399   3.901   1.154  10.931 -0.3063 -1.7490 -0.4056
   11MOL0     H 1400   3.916   1.270  11.069  0.3669 -0.2150 -0.7957
   11MOL0     H 1401   3.770   1.010  11.066  1.6942 -1.1853  2.1962
   11MOL0     H 1402   3.807   1.093  11.215  2.1937 -0.4135 -0.8873
   11MOL0     H 1403   3.647   1.209  10.970 -0.1196 -2.4173 -1.3533
   11MOL0     H 1404   3.670   1.284  11.126 -0.3505 -0.6645  1.8786
   11MOL0     H 1405   3.443   1.314  11.216  1.7588 -0.1232  0.7718
   11MOL0     H 1406   3.176   1.287  11.123  0.9942 -0.0420  0.4845
   11MOL0     H 1407   3.188   1.245  11.288 -1.3373 -1.5951  0.9955
   11MOL0     H 1408   3.078   1.054  11.092 -1.3111 -0.8165  0.2051
   11MOL0     H 1409   2.980   1.151  11.205 -0.7441 -1.2518 -0.9832
   11MOL0     H 1410   3.187   0.952  11.309  1.7109  2.2611 -0.5194
   11MOL0     H 1411   3.049   1.038  11.387 -0.3025  0.4665  0.2239
   11MOL0     H 1412   3.044   0.838  11.161  1.3513 -0.8513  1.0065
   11MOL0     H 1413   2.896   0.925  11.212  2.2541  2.1419 -1.8679
   11MOL0     H 1414   2.936   0.591  11.515 -0.0417 -1.0847  1.4910
   11MOL0     H 1415   2.770   0.552  11.667  1.3344 -0.4845 -1.2602
   11MOL0     H 1416   2.373   0.996  11.877  0.3238  0.6589  0.5619
   11MOL0     H 1417   2.237   0.991  12.087  2.8776  0.0736 -0.2068
   11MOL0     H 1418   1.988   0.955  12.183 -1.4716 -0.7242  0.8836
   11MOL0     H 1419   2.106   0.894  12.300  1.0266 -2.2702  0.1001
   11MOL0     H 1420   1.934   0.738  12.398 -1.6510 -0.7611 -0.7207
   11MOL0     H 1421   1.848   0.750  12.244 -0.7178 -1.9332  0.5970
   11MOL0     H 1422   1.850   1.005  12.335  2.7764 -0.3967 -0.4577
   11MOL0     H 1423   1.880   0.927  12.484  3.0813 -0.3602 -0.7351
   11MOL0     H 1424   1.625   0.864  12.327 -2.5348  2.0667  0.8087
   11MOL0     H 1425   1.690   0.765  12.456  0.1251 -0.0231 -1.5115
   11MOL0     H 1426   1.638   1.060  12.486  1.9327 -0.3139 -0.0732
   11MOL0     H 1427   1.694   0.946  12.611  1.8453  2.1291 -0.9179
   11MOL0     H 1428   1.500   0.811  12.592 -2.8218 -1.0097 -2.6626
   11MOL0     H 1429   1.436   0.920  12.468  0.8677  1.4604 -0.5085
   11MOL0     H 1430   1.467   0.993  12.769  0.8308 -1.7168 -1.4218
   11MOL0     H 1431   1.483   1.111  12.649 -1.2296  1.4888  1.4153
   11MOL0     H 1432   1.228   0.935  12.669  0.6461 -0.3020  0.7830
   11MOL0     H 1433   1.264   1.053  12.540  0.4419  0.9037 -0.4447
   11MOL0     H 1434   2.141   0.576  11.986  0.0051 -0.2090 -0.1916
   11MOL0     H 1435   2.294   0.589  11.798  1.9250  0.6037 -1.2938
   11MOL0     H 1436   2.576   0.919  11.544  0.6549  1.3494  0.5637
   11MOL0     H 1437   2.729   0.948  11.370 -4.0335 -0.8678 -0.1548
   11MOL0     H 1438   4.741   1.033  11.123 -2.8475 -3.4308 -2.1254
   11MOL0     H 1439   4.962   0.938  11.104 -2.1283  0.6877  0.9856
   11MOL0     H 1440   5.241   0.717  10.799  0.2772 -0.3599 -0.4124
   11MOL0     H 1441   5.456   0.590  10.800 -0.2685  0.4221 -0.8363
   11MOL0     H 1442   5.669   0.502  10.747 -2.9768 -0.4519  2.8810
   11MOL0     H 1443   5.726   0.557  10.917  4.5060  0.1588  1.1748
   11MOL0     H 1444   5.902   0.564  10.669 -2.8420 -3.1976 -1.1161
   11MOL0     H 1445   5.943   0.612  10.837 -0.9085 -0.2216  2.2499
   11MOL0     H 1446   5.878   0.318  10.752  1.6968  0.5789 -1.6994
   11MOL0     H 1447   5.886   0.379  10.918  3.4653 -2.4930  0.7922
   11MOL0     H 1448   6.124   0.455  10.859  0.3164  0.5523 -1.4116
   11MOL0     H 1449   6.092   0.275  10.862  1.1929  0.4312  0.5820
   11MOL0     H 1450   6.258   0.413  10.496  0.2665  1.4482  0.2514
   11MOL0     H 1451   5.685   0.949  10.755  0.1864  0.9365  0.6228
   11MOL0     H 1452   5.473   1.087  10.804 -1.1121 -0.7361 -0.9115
   12MOL0     O 1453   7.633   3.150   7.765  0.1793 -0.0259  0.5424
   12MOL0     C 1454   7.652   3.038   7.800 -0.1317 -0.1196  0.6531
   12MOL0     O 1455   7.560   2.934   7.811  0.1225 -0.8773  0.0958
   12MOL0     C 1456   7.425   2.966   7.781  1.2189 -0.4647  0.3486
   12MOL0     C 1457   7.378   3.024   7.663  0.2279 -0.5862  0.4606
   12MOL0     C 1458   7.250   3.038   7.628  0.1960 -0.1821  0.8975
   12MOL0     C 1459   7.152   3.002   7.722  0.8876  0.4278  0.2741
   12MOL0     O 1460   7.019   3.023   7.683  0.3503 -0.3041 -0.2059
   12MOL0     C 1461   6.925   3.054   7.790  0.0860  0.0181 -0.2325
   12MOL0     C 1462   6.803   3.132   7.733  0.5264  0.4248 -0.2994
   12MOL0     C 1463   6.711   3.160   7.850 -0.3812  0.0693 -0.5599
   12MOL0     C 1464   6.601   3.258   7.809 -0.4323  0.5461  0.3489
   12MOL0     C 1465   6.545   3.327   7.930 -0.1673 -0.2610 -0.5863
   12MOL0     C 1466   6.461   3.451   7.891 -0.6627  1.2389 -0.7505
   12MOL0     C 1467   6.360   3.485   7.999 -0.3868  0.1993 -0.4461
   12MOL0     C 1468   6.297   3.621   7.973  0.6452 -0.0881 -0.3587
   12MOL0     N 1469   6.184   3.644   8.063  0.6274 -0.0794  0.5863
   12MOL0     C 1470   6.192   3.728   8.172 -1.1422 -0.5702 -0.9566
   12MOL0     C 1471   6.063   3.734   8.214 -0.4925  0.2466  0.4056
   12MOL0     C 1472   6.020   3.774   8.353  0.1209  0.3139  0.2675
   12MOL0     C 1473   6.048   3.916   8.392 -0.4744 -0.1872  0.0320
   12MOL0     C 1474   5.964   3.973   8.511 -0.6962  0.2390 -0.6096
   12MOL0     C 1475   6.040   3.948   8.647  0.3707 -0.6398  0.1877
   12MOL0     O 1476   5.965   4.009   8.752  0.7840 -0.6943 -0.2849
   12MOL0     C 1477   6.018   4.004   8.879 -0.1890  0.2940  0.4370
   12MOL0     C 1478   6.053   3.885   8.946  0.3013  0.8686  0.0211
   12MOL0     C 1479   6.113   3.894   9.068  0.0228 -0.2286 -0.1247
   12MOL0     C 1480   6.135   4.016   9.133  0.3944  0.3902 -0.2455
   12MOL0     C 1481   6.203   4.013   9.263  0.6787 -0.2093  0.0049
   12MOL0     O 1482   6.228   4.135   9.320  0.3427  0.1627 -0.9122
   12MOL0     C 1483   6.270   4.155   9.454  0.1449 -0.2935  0.2684
   12MOL0     C 1484   6.328   4.279   9.478 -0.4305 -0.0301  0.1545
   12MOL0     C 1485   6.350   4.330   9.604 -0.0631 -0.2480 -0.4040
   12MOL0     C 1486   6.306   4.253   9.715  0.6185 -0.1016  0.1421
   12MOL0     O 1487   6.320   4.284   9.851  0.3771  0.6354  0.5447
   12MOL0     C 1488   6.285   4.408   9.908 -0.8466 -0.2396 -0.3405
   12MOL0     C 1489   6.190   4.372  10.029 -0.1297 -0.9722  0.6412
   12MOL0     C 1490   6.041   4.351   9.979 -0.4382  0.3322  0.2685
   12MOL0     C 1491   5.946   4.357  10.094  0.2232 -0.1229  0.9176
   12MOL0     C 1492   5.802   4.342  10.052 -0.7103  0.4790  0.7041
   12MOL0     C 1493   5.745   4.453   9.976 -0.3785 -0.0765 -0.4701
   12MOL0     C 1494   5.593   4.453   9.957  1.0986 -0.4808 -0.4569
   12MOL0     C 1495   5.524   4.583   9.984 -0.0283 -0.0721  0.8652
   12MOL0    Cl 1496   5.566   4.655  10.147  0.0299  0.1307 -0.3027
   12MOL0     C 1497   6.253   4.120   9.690 -0.4084 -0.5077  0.3625
   12MOL0     C 1498   6.231   4.078   9.563 -0.4079 -0.0937  0.3195
   12MOL0     O 1499   6.247   3.905   9.311  0.2909 -0.5699 -0.2692
   12MOL0     C 1500   6.090   4.133   9.071 -0.2394  0.5013  0.6868
   12MOL0     C 1501   6.028   4.129   8.942  0.0326 -0.1111  0.0235
   12MOL0     N 1502   5.984   3.663   8.127 -0.3960 -0.1061 -0.0926
   12MOL0     N 1503   6.054   3.597   8.038 -1.0246 -0.4164  0.3128
   12MOL0     C 1504   7.187   2.945   7.839  0.3233  0.3161  0.1783
   12MOL0     C 1505   7.321   2.923   7.866 -0.9289  0.2771 -0.1961
   12MOL0     C 1506   7.792   3.005   7.798  0.3706 -0.6906  0.0245
   12MOL0     C 1507   7.891   3.077   7.731  1.0358  0.0055 -0.6462
   12MOL0     C 1508   8.022   3.032   7.738 -0.7385  0.1197  0.4901
   12MOL0     C 1509   8.052   2.916   7.810  0.0749 -0.3251 -0.3936
   12MOL0     O 1510   8.174   2.850   7.793  0.1621  0.1042 -0.4858
   12MOL0     C 1511   8.264   2.867   7.689 -0.0505 -1.2437 -0.3290
   12MOL0     C 1512   8.404   2.864   7.744 -0.1247  0.2956 -0.9974
   12MOL0     C 1513   8.512   2.856   7.631 -0.2999  0.1333  1.0263
   12MOL0     C 1514   8.591   2.986   7.605  0.2239 -0.7254  0.1612
   12MOL0     C 1515   8.661   3.025   7.727 -0.3289 -0.5740  0.5382
   12MOL0     C 1516   8.729   3.057   7.821  0.0491 -0.4531  0.2407
   12MOL0     C 1517   7.957   2.839   7.874  0.3342 -0.3191 -0.0293
   12MOL0     C 1518   7.830   2.895   7.876  0.0829 -0.2461  0.0127
   12MOL0     H 1519   7.445   3.058   7.584  0.2929 -1.8362 -0.0484
   12MOL0     H 1520   7.213   3.077   7.534 -1.8645 -0.8792  1.3666
   12MOL0     H 1521   6.983   3.113   7.862 -0.5720  1.2809 -0.7257
   12MOL0     H 1522   6.898   2.961   7.841  1.2738 -0.2698 -0.0770
   12MOL0     H 1523   6.754   3.076   7.653  0.7983  1.5347 -1.2668
   12MOL0     H 1524   6.839   3.222   7.684 -0.8834  0.2635 -1.7254
   12MOL0     H 1525   6.773   3.205   7.928 -1.4076 -0.2457  0.4681
   12MOL0     H 1526   6.669   3.069   7.894 -0.2952 -0.4743 -1.5822
   12MOL0     H 1527   6.648   3.329   7.741  2.4017  1.1108  2.7004
   12MOL0     H 1528   6.523   3.212   7.748 -2.5057  3.3713  0.6378
   12MOL0     H 1529   6.622   3.355   8.003 -1.2267 -0.2370  0.5612
   12MOL0     H 1530   6.478   3.255   7.978 -2.9632  1.6097 -1.4328
   12MOL0     H 1531   6.417   3.434   7.792 -1.7104  0.2270 -0.1386
   12MOL0     H 1532   6.535   3.530   7.876  0.5618  0.4735  1.0111
   12MOL0     H 1533   6.285   3.406   7.993 -1.4526  1.0149  1.3279
   12MOL0     H 1534   6.408   3.485   8.098  2.5788  0.4222 -1.7835
   12MOL0     H 1535   6.264   3.627   7.869 -1.1263  0.1663  0.1909
   12MOL0     H 1536   6.363   3.709   7.974 -1.0818  1.3262 -2.1769
   12MOL0     H 1537   6.277   3.773   8.221 -1.9753  2.0956 -1.7824
   12MOL0     H 1538   6.089   3.715   8.414 -0.4586  1.3574  1.9943
   12MOL0     H 1539   5.916   3.742   8.366 -0.9279  3.2057 -0.0992
   12MOL0     H 1540   6.026   3.983   8.308 -2.4738  0.0887  0.7179
   12MOL0     H 1541   6.156   3.935   8.394 -0.8992  2.7680  0.7944
   12MOL0     H 1542   5.950   4.080   8.493 -0.0999  0.3295 -0.5728
   12MOL0     H 1543   5.863   3.933   8.518 -1.2099  1.6565  0.6889
   12MOL0     H 1544   6.145   3.981   8.647  0.5668 -1.2034  1.2977
   12MOL0     H 1545   6.054   3.840   8.653 -0.3778 -0.7260  0.4883
   12MOL0     H 1546   6.049   3.785   8.905  0.0847  0.9581 -0.1765
   12MOL0     H 1547   6.134   3.799   9.116 -1.7934 -1.0438 -0.8543
   12MOL0     H 1548   6.358   4.335   9.390  1.1283  0.0899  0.7420
   12MOL0     H 1549   6.401   4.426   9.610 -1.1049  0.2577  0.5651
   12MOL0     H 1550   6.233   4.483   9.848  1.7815  0.3349 -2.0237
   12MOL0     H 1551   6.371   4.464   9.945 -1.8770  0.6244  0.8439
   12MOL0     H 1552   6.183   4.466  10.085 -1.1747  0.6126 -1.9344
   12MOL0     H 1553   6.226   4.289  10.090  2.9597  1.6727  2.7812
   12MOL0     H 1554   6.046   4.252   9.934  3.2672  1.4948 -2.3270
   12MOL0     H 1555   6.009   4.413   9.895  1.1350  0.3262 -0.3621
   12MOL0     H 1556   5.972   4.269  10.154  0.3686 -1.5455 -1.1373
   12MOL0     H 1557   5.956   4.445  10.158  0.3896  1.1141 -0.7701
   12MOL0     H 1558   5.742   4.327  10.143  1.2162  0.7403  2.0756
   12MOL0     H 1559   5.791   4.254   9.987 -0.0560  0.6402  0.3753
   12MOL0     H 1560   5.784   4.452   9.873 -2.9098 -0.8533 -1.4786
   12MOL0     H 1561   5.778   4.542  10.032  0.3743 -0.7607  0.2113
   12MOL0     H 1562   5.577   4.430   9.852  0.4507  1.3001 -0.7803
   12MOL0     H 1563   5.557   4.375  10.025  4.9898  1.2360  4.1806
   12MOL0     H 1564   5.416   4.569   9.981  0.0609 -0.9469  1.5168
   12MOL0     H 1565   5.548   4.655   9.905 -1.5158 -0.2696  0.1941
   12MOL0     H 1566   6.222   4.052   9.769  0.0278  1.3206  2.1807
   12MOL0     H 1567   6.165   3.992   9.562  0.6195 -0.9084  0.4675
   12MOL0     H 1568   6.111   4.225   9.125 -0.2720  0.5714  0.5799
   12MOL0     H 1569   5.995   4.220   8.894 -1.1578 -0.3766  0.2997
   12MOL0     H 1570   7.105   2.916   7.905 -0.8985 -3.7739 -2.7258
   12MOL0     H 1571   7.342   2.872   7.960  1.9387 -1.9511 -1.8925
   12MOL0     H 1572   7.873   3.172   7.681  0.2893  0.5299  0.5727
   12MOL0     H 1573   8.096   3.089   7.683  1.0676 -2.0584  0.5064
   12MOL0     H 1574   8.257   2.962   7.635 -0.2815 -0.6968  0.6399
   12MOL0     H 1575   8.249   2.784   7.619 -0.8314 -0.9482 -0.5245
   12MOL0     H 1576   8.433   2.944   7.812 -1.7862  2.1830 -2.3966
   12MOL0     H 1577   8.406   2.774   7.805 -3.9812  1.3728  1.0028
   12MOL0     H 1578   8.459   2.826   7.540 -0.6344  0.2237  1.1863
   12MOL0     H 1579   8.586   2.780   7.659  0.9871  0.8471 -0.3592
   12MOL0     H 1580   8.671   2.962   7.534  0.2762 -2.6766  0.8276
   12MOL0     H 1581   8.520   3.059   7.565 -0.6700 -2.1309 -0.8736
   12MOL0     H 1582   8.787   3.088   7.905 -2.3726 -0.2978  1.9540
   12MOL0     H 1583   7.980   2.747   7.926  0.8422  0.1649  0.6097
   12MOL0     H 1584   7.751   2.856   7.939  0.6860  0.1491  1.0415
   13MOL0     O 1585   3.568   1.158   6.171 -0.0708  0.6870  0.6826
   13MOL0     C 1586   3.667   1.078   6.148  1.7560  0.4615  0.3270
   13MOL0     O 1587   3.659   0.976   6.058  0.1758  0.1296  0.8061
   13MOL0     C 1588   3.549   0.960   5.982  0.2000 -0.3581 -0.4919
   13MOL0     C 1589   3.564   1.007   5.842 -0.0821 -1.1283  0.2350
   13MOL0     C 1590   3.447   0.979   5.756 -0.3499  0.3964 -0.5376
   13MOL0     C 1591   3.336   0.906   5.801  0.7664 -0.0132  0.0548
   13MOL0     O 1592   3.241   0.886   5.701  0.0352 -0.2828  0.3109
   13MOL0     C 1593   3.116   0.822   5.740 -0.2150 -0.7806 -0.1147
   13MOL0     C 1594   3.025   0.808   5.612 -0.8407  0.5079 -0.3285
   13MOL0     C 1595   2.881   0.759   5.656 -0.1509  1.0722 -0.5524
   13MOL0     C 1596   2.894   0.619   5.731  1.4665  0.1932  0.4848
   13MOL0     C 1597   2.756   0.572   5.778  0.3391  0.6159 -0.2914
   13MOL0     C 1598   2.709   0.633   5.909 -0.7984  0.5493  0.6936
   13MOL0     C 1599   2.573   0.584   5.965 -0.0595  0.2690 -0.0226
   13MOL0     C 1600   2.461   0.617   5.870 -0.1474  0.6513  1.0030
   13MOL0     N 1601   2.328   0.563   5.903  0.4907  0.2662 -0.1881
   13MOL0     C 1602   2.246   0.612   6.002 -0.5699  0.1395 -0.4179
   13MOL0     C 1603   2.138   0.523   5.998 -0.2211 -0.0903 -0.5127
   13MOL0     C 1604   2.019   0.542   6.088  0.8315 -0.2825  0.5099
   13MOL0     C 1605   1.899   0.467   6.025  0.3205 -0.1420  0.1232
   13MOL0     C 1606   1.787   0.481   6.130 -0.5663 -0.0299 -0.1945
   13MOL0     C 1607   1.675   0.365   6.119 -0.3362 -0.1533 -0.4042
   13MOL0     O 1608   1.571   0.400   6.206 -0.3449 -0.7128  0.8537
   13MOL0     C 1609   1.460   0.329   6.183  0.7648 -0.0500  0.5429
   13MOL0     C 1610   1.428   0.222   6.261  0.5524 -0.0877 -0.3073
   13MOL0     C 1611   1.297   0.165   6.258 -0.1525 -0.3810 -0.3987
   13MOL0     C 1612   1.186   0.218   6.188 -0.0256 -0.4127 -0.3540
   13MOL0     C 1613   1.048   0.171   6.209  0.7339  0.4801  0.3280
   13MOL0     O 1614   0.969   0.187   6.102  0.2969 -0.7428 -0.1438
   13MOL0     C 1615   0.837   0.149   6.116  0.1699 -0.7664  0.0043
   13MOL0     C 1616   0.750   0.235   6.190  0.0952  0.7429  0.4106
   13MOL0     C 1617   0.618   0.198   6.195 -0.7809  0.3579  0.5279
   13MOL0     C 1618   0.569   0.078   6.139 -0.3097  0.3808 -1.2953
   13MOL0     O 1619   0.432   0.071   6.165  0.0182  0.0954 -0.0285
   13MOL0     C 1620   0.388  -0.062   6.164  0.1206 -0.3073  0.1027
   13MOL0     C 1621   0.245  -0.062   6.219  0.1570  0.1802  0.8789
   13MOL0     C 1622   0.138   0.023   6.141 -0.0387 -0.3257  0.2294
   13MOL0     C 1623   0.001   0.005   6.208  0.2106  0.5361  0.6699
   13MOL0     C 1624  -0.104   0.091   6.132  0.3318  0.0496  0.0148
   13MOL0     C 1625  -0.241   0.051   6.179  0.4774 -0.1728  0.4523
   13MOL0     C 1626  -0.296   0.151   6.287 -0.2803  0.1402  0.1667
   13MOL0     C 1627  -0.419   0.088   6.352  0.0323 -0.6925 -0.7574
   13MOL0    Cl 1628  -0.541   0.081   6.226  0.0782 -0.0727  0.1785
   13MOL0     C 1629   0.655  -0.008   6.072 -0.2854 -0.1136  0.0891
   13MOL0     C 1630   0.792   0.031   6.060  0.6408  0.5578 -0.9967
   13MOL0     O 1631   1.012   0.118   6.313  0.0396  0.6448 -0.7699
   13MOL0     C 1632   1.222   0.326   6.103  0.1794 -0.7513 -0.3357
   13MOL0     C 1633   1.351   0.376   6.102  0.8513  0.1773 -0.2203
   13MOL0     N 1634   2.157   0.419   5.909  0.2816  0.2510  0.2761
   13MOL0     N 1635   2.270   0.450   5.849 -0.6153  0.2749 -0.2033
   13MOL0     C 1636   3.331   0.865   5.932  0.5750 -1.3526  0.7864
   13MOL0     C 1637   3.433   0.888   6.024 -0.4536  0.6857 -0.0699
   13MOL0     C 1638   3.798   1.101   6.214 -0.1267 -0.1661 -0.0035
   13MOL0     C 1639   3.917   1.044   6.168 -0.2677  0.0649  0.4256
   13MOL0     C 1640   4.039   1.079   6.224  1.0769  0.0822  0.2577
   13MOL0     C 1641   4.050   1.148   6.345 -0.1254 -0.0733  0.6474
   13MOL0     O 1642   4.176   1.169   6.400 -0.2061  0.7704 -0.3850
   13MOL0     C 1643   4.189   1.199   6.541  0.0449 -0.3565  0.0388
   13MOL0     C 1644   4.323   1.137   6.579  0.0168 -0.2537  0.3388
   13MOL0     C 1645   4.441   1.233   6.608 -0.5109  0.1981 -0.4834
   13MOL0     C 1646   4.552   1.166   6.679 -0.4138 -0.8326 -0.3594
   13MOL0     C 1647   4.661   1.265   6.714  0.3127 -0.3984 -1.1286
   13MOL0     C 1648   4.744   1.349   6.754  0.2727  0.9824 -0.1510
   13MOL0     C 1649   3.930   1.198   6.398 -0.3157  0.2668 -0.5943
   13MOL0     C 1650   3.808   1.183   6.329  0.3670 -0.5080 -0.6726
   13MOL0     H 1651   3.647   1.069   5.809 -0.3897  1.2853  3.5389
   13MOL0     H 1652   3.442   1.012   5.653  1.1758 -0.1776 -0.8220
   13MOL0     H 1653   3.054   0.872   5.815 -0.0133 -0.8297  0.0842
   13MOL0     H 1654   3.142   0.723   5.776  1.4202  0.6940  3.1757
   13MOL0     H 1655   3.069   0.740   5.539 -1.2014  1.0735 -1.0991
   13MOL0     H 1656   3.012   0.904   5.561 -0.7811  0.9006  0.3852
   13MOL0     H 1657   2.815   0.736   5.572  0.8492 -0.2499 -1.0193
   13MOL0     H 1658   2.840   0.840   5.717  1.8268  1.9826 -0.3577
   13MOL0     H 1659   2.938   0.556   5.653  0.2609  0.0548 -0.1126
   13MOL0     H 1660   2.957   0.620   5.820 -0.7163 -0.7769  2.1319
   13MOL0     H 1661   2.752   0.464   5.793  0.9455  0.1873 -2.8279
   13MOL0     H 1662   2.686   0.593   5.697  0.2630 -0.6290 -0.5603
   13MOL0     H 1663   2.700   0.742   5.901  1.4850  0.7001 -0.6444
   13MOL0     H 1664   2.786   0.609   5.983 -0.8756 -3.4669 -0.3070
   13MOL0     H 1665   2.577   0.474   5.970 -2.1064  0.2053  2.4298
   13MOL0     H 1666   2.556   0.619   6.067  0.9262  0.6266  0.0340
   13MOL0     H 1667   2.474   0.556   5.780 -0.5943  0.5705  0.9919
   13MOL0     H 1668   2.458   0.722   5.840  1.0663  0.2694 -0.5843
   13MOL0     H 1669   2.258   0.693   6.073 -0.9204 -0.0163 -0.1742
   13MOL0     H 1670   1.983   0.643   6.110 -1.4661 -1.2659  1.6285
   13MOL0     H 1671   2.048   0.506   6.187  0.6562 -1.1604  0.2514
   13MOL0     H 1672   1.929   0.363   6.007  1.8742 -0.0784  2.0860
   13MOL0     H 1673   1.871   0.516   5.931 -0.3617 -1.5160 -0.4282
   13MOL0     H 1674   1.841   0.476   6.225  0.8811  0.2496 -0.9615
   13MOL0     H 1675   1.743   0.581   6.123  1.7692  1.2778  2.0058
   13MOL0     H 1676   1.716   0.266   6.142 -0.7222  0.2422  2.3369
   13MOL0     H 1677   1.638   0.359   6.016  1.2346  2.1534 -1.1993
   13MOL0     H 1678   1.506   0.187   6.328 -0.8971 -1.6287  0.6609
   13MOL0     H 1679   1.267   0.078   6.315 -1.1133 -0.2699 -0.7131
   13MOL0     H 1680   0.774   0.325   6.245  2.1284  0.5047 -0.0217
   13MOL0     H 1681   0.570   0.258   6.272  1.8955  2.0146  1.0289
   13MOL0     H 1682   0.454  -0.127   6.221  0.5724  0.6801  0.7462
   13MOL0     H 1683   0.385  -0.105   6.064  2.4603 -0.8371  0.2151
   13MOL0     H 1684   0.247  -0.045   6.327 -1.7917 -2.6650  1.4934
   13MOL0     H 1685   0.221  -0.168   6.206  1.7364 -0.0856 -0.1459
   13MOL0     H 1686   0.133  -0.007   6.036  1.5861  0.2630 -0.0418
   13MOL0     H 1687   0.163   0.129   6.133 -1.4459  0.0051 -0.1773
   13MOL0     H 1688  -0.030  -0.100   6.198 -1.0367  0.9301  0.2319
   13MOL0     H 1689  -0.006   0.036   6.313  0.3271 -0.7345  1.0727
   13MOL0     H 1690  -0.095   0.084   6.023 -1.2639  0.0058 -0.1380
   13MOL0     H 1691  -0.097   0.198   6.153 -0.5947  0.5573 -2.0194
   13MOL0     H 1692  -0.241  -0.057   6.197  2.6151 -0.2144  0.4651
   13MOL0     H 1693  -0.307   0.062   6.092  1.2040 -0.2073 -0.1122
   13MOL0     H 1694  -0.220   0.159   6.365 -1.2493  2.1154  0.9840
   13MOL0     H 1695  -0.322   0.252   6.253  1.9169 -0.0867 -2.6592
   13MOL0     H 1696  -0.452   0.149   6.436  0.9837 -0.0813 -0.8137
   13MOL0     H 1697  -0.397  -0.010   6.395 -1.8770 -0.0742  1.8729
   13MOL0     H 1698   0.629  -0.100   6.020  1.4088 -1.5918  1.6991
   13MOL0     H 1699   0.865  -0.019   5.997 -1.4720 -0.5155 -2.7440
   13MOL0     H 1700   1.147   0.374   6.041  1.6261  2.7083  0.3739
   13MOL0     H 1701   1.375   0.453   6.030 -2.0033  2.2866  0.8810
   13MOL0     H 1702   3.243   0.816   5.972 -0.0466 -1.2218 -0.3584
   13MOL0     H 1703   3.428   0.851   6.126  0.3046 -3.4959 -1.3403
   13MOL0     H 1704   3.911   0.983   6.078 -2.7284  0.3519  0.3470
   13MOL0     H 1705   4.132   1.043   6.181  1.9056  0.7092  1.4763
   13MOL0     H 1706   4.109   1.155   6.602 -0.7488  1.5815  0.4804
   13MOL0     H 1707   4.184   1.307   6.556  1.9934  0.1969 -2.4811
   13MOL0     H 1708   4.289   1.080   6.666  1.7452 -0.3483  0.9809
   13MOL0     H 1709   4.351   1.060   6.507 -0.6375 -1.4781  1.3598
   13MOL0     H 1710   4.406   1.318   6.667 -0.7673  1.7784 -2.7935
   13MOL0     H 1711   4.478   1.275   6.514 -1.9816  2.3394 -0.1843
   13MOL0     H 1712   4.513   1.115   6.767 -1.1446 -1.9933 -1.3161
   13MOL0     H 1713   4.599   1.083   6.626  0.9915 -0.1079 -0.2999
   13MOL0     H 1714   4.808   1.428   6.788  1.0711  0.1722  0.2346
   13MOL0     H 1715   3.936   1.250   6.493  0.1138 -0.2729 -0.3241
   13MOL0     H 1716   3.722   1.230   6.377  2.4225  1.6929  1.1561
   14MOL0     O 1717   9.915   2.058   2.420  0.3740  0.1986 -0.2072
   14MOL0     C 1718   9.957   2.145   2.349  0.8603 -0.1651  0.2187
   14MOL0     O 1719   9.902   2.176   2.228  0.0597  0.5283  0.1918
   14MOL0     C 1720   9.805   2.093   2.176  0.4406  0.7991  0.4147
   14MOL0     C 1721   9.837   1.960   2.134  0.5681 -0.2014 -0.2302
   14MOL0     C 1722   9.736   1.871   2.095 -0.1506  0.4345 -0.4382
   14MOL0     C 1723   9.602   1.915   2.119 -0.2340  0.6058  0.6452
   14MOL0     O 1724   9.498   1.825   2.098  0.1868  0.1953  0.2766
   14MOL0     C 1725   9.487   1.787   1.961 -0.0115 -0.4529  0.0444
   14MOL0     C 1726   9.342   1.769   1.905 -0.3353  0.3698  0.7972
   14MOL0     C 1727   9.274   1.641   1.927 -0.3273  0.7282  0.5229
   14MOL0     C 1728   9.136   1.627   1.864 -0.0326 -0.2714  0.4061
   14MOL0     C 1729   9.091   1.486   1.881  0.6474 -1.0152 -0.3411
   14MOL0     C 1730   8.941   1.489   1.912 -0.3133  0.0123  0.5534
   14MOL0     C 1731   8.881   1.352   1.928 -0.2934  0.2086 -0.1530
   14MOL0     C 1732   8.728   1.355   1.935  0.0977 -0.0812  1.4133
   14MOL0     N 1733   8.676   1.414   2.059 -0.0386  0.4672  0.4435
   14MOL0     C 1734   8.601   1.357   2.150  0.4765 -0.5023  0.4191
   14MOL0     C 1735   8.584   1.447   2.254 -0.1969  0.9059  0.9923
   14MOL0     C 1736   8.505   1.405   2.372 -0.1081  0.3531  0.0798
   14MOL0     C 1737   8.360   1.388   2.332 -0.5521  0.0899 -0.0967
   14MOL0     C 1738   8.278   1.358   2.464 -0.6408  1.9631 -0.4288
   14MOL0     C 1739   8.125   1.370   2.442 -0.8665  0.6668  0.5905
   14MOL0     O 1740   8.088   1.270   2.352  0.1194  0.6106 -0.3002
   14MOL0     C 1741   7.954   1.261   2.323  0.3532  0.5506 -0.1164
   14MOL0     C 1742   7.857   1.357   2.351  0.6104 -0.6967  0.7812
   14MOL0     C 1743   7.727   1.333   2.314  0.1689  0.2324 -0.7218
   14MOL0     C 1744   7.690   1.210   2.248 -0.4680 -0.3932 -0.6712
   14MOL0     C 1745   7.547   1.188   2.223  0.0317  0.5408  0.0809
   14MOL0     O 1746   7.460   1.278   2.268 -0.0851  0.0361  0.1181
   14MOL0     C 1747   7.329   1.260   2.251 -0.0273  0.9495  1.0040
   14MOL0     C 1748   7.243   1.265   2.365  1.1220  1.1697  0.5825
   14MOL0     C 1749   7.100   1.280   2.346 -0.0721 -0.6419 -0.4296
   14MOL0     C 1750   7.051   1.278   2.216 -0.5363  0.1501 -0.1694
   14MOL0     O 1751   6.917   1.292   2.195 -0.4552  0.6736  0.3488
   14MOL0     C 1752   6.866   1.186   2.109  0.8750 -0.2648  0.3705
   14MOL0     C 1753   6.710   1.176   2.120  0.1623  0.8310 -0.2282
   14MOL0     C 1754   6.667   1.119   2.248  1.3868 -0.1887  0.0765
   14MOL0     C 1755   6.511   1.111   2.231  0.1878 -0.4349 -0.5074
   14MOL0     C 1756   6.441   1.025   2.336  0.8893  0.4064 -0.0449
   14MOL0     C 1757   6.481   0.879   2.339  0.5922  0.1497  0.3686
   14MOL0     C 1758   6.416   0.796   2.446 -0.0768 -0.0725 -0.4474
   14MOL0     C 1759   6.268   0.776   2.436 -0.0042 -0.3893  0.2581
   14MOL0    Cl 1760   6.217   0.698   2.595 -0.0262 -0.1907  0.5841
   14MOL0     C 1761   7.139   1.252   2.100  0.0123 -0.0481  0.1300
   14MOL0     C 1762   7.275   1.251   2.121 -0.2119 -0.9406  0.0155
   14MOL0     O 1763   7.521   1.080   2.174  0.2104 -0.4490 -0.4221
   14MOL0     C 1764   7.790   1.114   2.226 -0.0514  0.2764 -0.2240
   14MOL0     C 1765   7.915   1.140   2.271 -0.6068 -0.5773 -0.5235
   14MOL0     N 1766   8.650   1.559   2.228  0.3338  0.2060  0.6533
   14MOL0     N 1767   8.706   1.539   2.108  0.9792 -0.3720  0.8386
   14MOL0     C 1768   9.573   2.045   2.167 -0.4419 -0.1141  0.6214
   14MOL0     C 1769   9.675   2.131   2.196  0.2866 -0.1974 -0.2745
   14MOL0     C 1770  10.077   2.216   2.386 -0.4328  0.4558 -0.8493
   14MOL0     C 1771  10.119   2.218   2.511  0.6654 -0.5461  0.2496
   14MOL0     C 1772  10.243   2.274   2.544 -0.4796  0.8747 -0.2638
   14MOL0     C 1773  10.316   2.350   2.453 -0.4479  0.3440 -0.3330
   14MOL0     O 1774  10.438   2.403   2.503 -0.1765  0.3011  0.4199
   14MOL0     C 1775  10.531   2.480   2.421  0.4184 -0.0105 -0.7530
   14MOL0     C 1776  10.493   2.619   2.388  0.6514 -0.6029  0.2395
   14MOL0     C 1777  10.484   2.713   2.514  0.8614 -0.0119  0.1340
   14MOL0     C 1778  10.360   2.800   2.496  1.6759  1.0547 -0.6003
   14MOL0     C 1779  10.345   2.887   2.613  0.5083  0.8569 -0.7149
   14MOL0     C 1780  10.315   2.968   2.699 -0.5623 -0.4204 -0.7647
   14MOL0     C 1781  10.269   2.363   2.322  0.2516  0.2434 -0.0329
   14MOL0     C 1782  10.154   2.284   2.288  0.1996 -0.3537  0.1274
   14MOL0     H 1783   9.944   1.942   2.131  0.4131 -1.7589  1.4085
   14MOL0     H 1784   9.766   1.771   2.067  0.4169 -0.0608  1.7353
   14MOL0     H 1785   9.548   1.696   1.951  0.0250 -0.7474  2.4019
   14MOL0     H 1786   9.528   1.867   1.899 -0.0181  2.0078  3.0020
   14MOL0     H 1787   9.362   1.776   1.797 -1.0312  0.3070  0.6576
   14MOL0     H 1788   9.286   1.850   1.953 -2.5602 -0.1116 -0.8174
   14MOL0     H 1789   9.279   1.623   2.035  0.8645  1.4934  0.6230
   14MOL0     H 1790   9.338   1.568   1.876  0.8085  0.6176  2.0150
   14MOL0     H 1791   9.077   1.705   1.913  1.9321 -0.0059  2.5094
   14MOL0     H 1792   9.137   1.639   1.755  1.0306 -2.5168  0.1014
   14MOL0     H 1793   9.141   1.427   1.959  0.2698  1.1067  1.5996
   14MOL0     H 1794   9.121   1.437   1.788  2.4739 -1.4997  0.4636
   14MOL0     H 1795   8.891   1.533   1.826  0.1531  0.1231  0.3368
   14MOL0     H 1796   8.929   1.552   2.001 -0.3335 -0.5363  0.9471
   14MOL0     H 1797   8.911   1.279   1.853 -2.5286 -2.9828  1.8024
   14MOL0     H 1798   8.891   1.306   2.027 -1.0354  2.4657  1.0551
   14MOL0     H 1799   8.694   1.251   1.930  1.3691 -0.5803  2.7666
   14MOL0     H 1800   8.678   1.412   1.856 -0.5434  0.2848  2.0728
   14MOL0     H 1801   8.559   1.257   2.160 -2.1508  0.6647  2.0128
   14MOL0     H 1802   8.514   1.488   2.443 -2.1872  1.2458 -0.6128
   14MOL0     H 1803   8.552   1.316   2.415 -0.8789 -0.6938 -1.1897
   14MOL0     H 1804   8.344   1.301   2.267 -0.8176 -0.6470  0.9383
   14MOL0     H 1805   8.326   1.486   2.299  2.7335  1.7648  1.1327
   14MOL0     H 1806   8.301   1.257   2.497 -1.0912  1.9239 -0.2193
   14MOL0     H 1807   8.297   1.433   2.542 -0.1129  2.0658 -0.6525
   14MOL0     H 1808   8.097   1.469   2.405 -1.5631 -0.1072 -1.0712
   14MOL0     H 1809   8.074   1.349   2.536  1.9757  2.6886  2.7657
   14MOL0     H 1810   7.870   1.443   2.416 -1.7647 -0.6641  1.3280
   14MOL0     H 1811   7.650   1.405   2.342 -0.2954 -0.8088  0.8022
   14MOL0     H 1812   7.281   1.288   2.464  2.9920  0.6300  0.0328
   14MOL0     H 1813   7.029   1.302   2.424 -0.3559 -1.0481 -0.5721
   14MOL0     H 1814   6.909   1.096   2.153 -0.2593 -0.5732  0.8985
   14MOL0     H 1815   6.890   1.201   2.004 -3.6556 -1.9880 -1.1494
   14MOL0     H 1816   6.681   1.113   2.035 -0.6844  0.4219  0.3489
   14MOL0     H 1817   6.664   1.273   2.100  0.4275  1.0967  0.4191
   14MOL0     H 1818   6.688   1.193   2.326 -4.1776  1.5513  0.3261
   14MOL0     H 1819   6.706   1.018   2.263  0.0045 -0.8097 -0.3737
   14MOL0     H 1820   6.465   1.210   2.230 -1.8386 -1.2354  2.0134
   14MOL0     H 1821   6.489   1.062   2.135  1.9907 -2.9015  0.2260
   14MOL0     H 1822   6.332   1.035   2.325  1.0249  2.8150  0.4053
   14MOL0     H 1823   6.462   1.068   2.434 -0.5623  0.0420  0.4586
   14MOL0     H 1824   6.589   0.863   2.350  0.8995  0.2393 -1.9706
   14MOL0     H 1825   6.445   0.831   2.247 -1.8558  0.3981  1.1121
   14MOL0     H 1826   6.460   0.695   2.444  0.7433  0.2602 -0.0267
   14MOL0     H 1827   6.440   0.844   2.542  1.8774  0.7876 -1.3092
   14MOL0     H 1828   6.234   0.708   2.357  2.8470 -1.8264  0.1269
   14MOL0     H 1829   6.220   0.874   2.424  0.7101 -0.0658 -0.0330
   14MOL0     H 1830   7.097   1.257   2.000 -1.1436 -0.6526  0.5698
   14MOL0     H 1831   7.338   1.245   2.032 -1.9097 -2.0022 -1.1776
   14MOL0     H 1832   7.769   1.013   2.193  2.2468 -0.0544 -0.8581
   14MOL0     H 1833   7.986   1.058   2.266 -3.1382 -3.0661  1.0329
   14MOL0     H 1834   9.472   2.084   2.171  0.2000  1.6519  0.3228
   14MOL0     H 1835   9.653   2.228   2.240  0.6392 -0.7833  1.2785
   14MOL0     H 1836  10.071   2.161   2.590 -1.4182  0.0140 -0.5367
   14MOL0     H 1837  10.289   2.262   2.641  0.6180 -2.2369 -1.0388
   14MOL0     H 1838  10.558   2.426   2.330 -0.3003  0.1124 -1.0424
   14MOL0     H 1839  10.625   2.481   2.476 -1.3059 -0.1056  2.4322
   14MOL0     H 1840  10.557   2.658   2.308 -1.8202 -0.1091 -1.6490
   14MOL0     H 1841  10.394   2.612   2.341  0.2894  0.7368  0.7823
   14MOL0     H 1842  10.574   2.775   2.516 -0.1922  1.6060 -0.0962
   14MOL0     H 1843  10.466   2.651   2.602 -3.0167  0.2650 -0.3022
   14MOL0     H 1844  10.367   2.862   2.406 -1.6704 -0.6562 -2.2299
   14MOL0     H 1845  10.274   2.733   2.486  0.1544  2.4950  1.8396
   14MOL0     H 1846  10.299   3.037   2.779  1.7750  2.3171 -2.4988
   14MOL0     H 1847  10.331   2.412   2.247  3.7630  0.3345  2.6363
   14MOL0     H 1848  10.114   2.288   2.187  1.0439 -1.1567 -0.2482
   15MOL0     O 1849   8.833   6.879   3.116  0.5142 -0.1863  0.7181
   15MOL0     C 1850   8.852   6.978   3.187 -0.3945 -0.3992 -1.0187
   15MOL0     O 1851   8.767   7.083   3.206  0.2588 -0.5514 -0.3535
   15MOL0     C 1852   8.655   7.113   3.145  0.1176 -0.6607  1.3142
   15MOL0     C 1853   8.606   7.050   3.031  0.1666 -0.1066  0.0056
   15MOL0     C 1854   8.493   7.107   2.967 -0.3907 -0.2605  0.3282
   15MOL0     C 1855   8.429   7.219   3.016  0.3219  0.0944  0.2822
   15MOL0     O 1856   8.299   7.252   2.975  0.0741 -0.6939 -0.4743
   15MOL0     C 1857   8.296   7.304   2.840 -0.6089 -1.1605 -0.4155
   15MOL0     C 1858   8.176   7.240   2.763 -0.5687 -0.6132 -0.0648
   15MOL0     C 1859   8.196   7.247   2.616  0.6071 -0.0411 -0.0295
   15MOL0     C 1860   8.068   7.189   2.545  0.4391  0.5543 -0.0003
   15MOL0     C 1861   8.059   7.033   2.543 -0.4836  0.0858  0.4641
   15MOL0     C 1862   7.963   6.981   2.434 -0.3692 -0.3046  0.7725
   15MOL0     C 1863   7.814   7.027   2.455 -0.4160  0.0366  0.4436
   15MOL0     C 1864   7.741   6.925   2.533 -1.1951 -0.0422  0.8470
   15MOL0     N 1865   7.609   6.966   2.571  0.0397 -0.0931 -0.3779
   15MOL0     C 1866   7.566   7.092   2.607  0.5076  0.2538 -0.4294
   15MOL0     C 1867   7.431   7.093   2.600  1.1347 -0.0546  0.9727
   15MOL0     C 1868   7.340   7.213   2.623 -0.2695 -0.1164 -0.1342
   15MOL0     C 1869   7.231   7.206   2.516  0.1383  0.9125 -0.1709
   15MOL0     C 1870   7.130   7.325   2.552  0.0167  0.7852 -0.9169
   15MOL0     C 1871   7.041   7.346   2.423  0.4778  0.2999 -0.0748
   15MOL0     O 1872   7.081   7.470   2.356 -0.0592 -0.9524 -0.2006
   15MOL0     C 1873   6.992   7.527   2.269 -0.2489  0.3629 -0.0907
   15MOL0     C 1874   6.883   7.459   2.216  0.3562 -1.7297 -0.8716
   15MOL0     C 1875   6.805   7.517   2.115 -1.0477  0.5841  0.1557
   15MOL0     C 1876   6.838   7.647   2.065 -0.2068  1.3072  0.3588
   15MOL0     C 1877   6.764   7.685   1.939  0.4793  0.1427  0.1694
   15MOL0     O 1878   6.791   7.811   1.880 -0.4396 -0.0901 -0.3572
   15MOL0     C 1879   6.726   7.847   1.766  0.6459  0.0694  0.0795
   15MOL0     C 1880   6.587   7.842   1.735 -0.8068 -0.1677  0.3694
   15MOL0     C 1881   6.542   7.889   1.612 -0.1178 -0.2721 -0.3090
   15MOL0     C 1882   6.621   7.952   1.516 -0.7844  0.7559 -0.0449
   15MOL0     O 1883   6.564   7.971   1.389 -0.2162 -0.4257 -0.0961
   15MOL0     C 1884   6.631   8.062   1.307  0.9229  0.2619  0.6684
   15MOL0     C 1885   6.545   8.092   1.185  0.2912 -0.0803 -0.0355
   15MOL0     C 1886   6.588   8.206   1.095  0.2528 -0.4026  0.0714
   15MOL0     C 1887   6.463   8.257   1.011 -0.0983 -0.3448 -1.4589
   15MOL0     C 1888   6.492   8.382   0.920  0.0592  0.1101 -0.8563
   15MOL0     C 1889   6.391   8.491   0.939 -0.0613 -0.2622 -0.0488
   15MOL0     C 1890   6.430   8.611   0.857  0.2034  0.8153  0.1741
   15MOL0     C 1891   6.436   8.580   0.702 -0.0197 -0.2773 -0.2668
   15MOL0    Cl 1892   6.290   8.519   0.643  0.0777 -0.2802  0.3437
   15MOL0     C 1893   6.750   7.975   1.556 -0.0071  0.7403  0.4653
   15MOL0     C 1894   6.801   7.925   1.676 -0.6170  1.2494 -0.1528
   15MOL0     O 1895   6.684   7.610   1.886 -0.7587  0.6932 -0.2428
   15MOL0     C 1896   6.944   7.716   2.118  0.1358 -0.4029  0.4522
   15MOL0     C 1897   7.014   7.659   2.219 -0.0302  0.0485  0.2906
   15MOL0     N 1898   7.389   6.965   2.563 -0.2973  0.1215 -0.0323
   15MOL0     N 1899   7.500   6.892   2.552 -0.0681 -0.3802  0.4195
   15MOL0     C 1900   8.479   7.280   3.132  0.5363  0.1696 -0.3007
   15MOL0     C 1901   8.586   7.222   3.196 -0.0610 -0.0023 -0.0860
   15MOL0     C 1902   8.987   6.991   3.247 -0.3153  0.4437 -0.0315
   15MOL0     C 1903   9.017   7.074   3.364 -0.1429  0.0968  0.3862
   15MOL0     C 1904   9.149   7.079   3.421  0.4108 -0.6111  0.3034
   15MOL0     C 1905   9.253   7.012   3.350 -1.2533  0.0754  0.5359
   15MOL0     O 1906   9.376   7.042   3.400  0.3306  0.0256  0.6926
   15MOL0     C 1907   9.497   6.992   3.332  0.3654  0.0761  0.0241
   15MOL0     C 1908   9.617   7.056   3.401 -0.5399  0.2455 -0.0606
   15MOL0     C 1909   9.749   6.989   3.387  0.2797  0.6376 -0.0071
   15MOL0     C 1910   9.859   7.078   3.439 -0.8388 -0.3547  0.1655
   15MOL0     C 1911   9.990   7.035   3.377 -0.5442 -0.0991  0.2208
   15MOL0     C 1912  10.105   6.995   3.356  0.7020 -0.4836 -0.0601
   15MOL0     C 1913   9.225   6.941   3.232  0.5008  0.4099 -0.3240
   15MOL0     C 1914   9.091   6.927   3.183 -0.1043  0.4944 -0.0936
   15MOL0     H 1915   8.647   6.958   2.992  0.4873  0.4413 -0.9689
   15MOL0     H 1916   8.458   7.051   2.881  0.8447 -0.9838  0.2826
   15MOL0     H 1917   8.396   7.283   2.800 -0.9391 -0.8146 -1.4276
   15MOL0     H 1918   8.278   7.412   2.844  1.6891 -0.7386 -0.1378
   15MOL0     H 1919   8.085   7.294   2.792 -0.1767 -0.7815  1.5631
   15MOL0     H 1920   8.174   7.133   2.786  2.2868 -1.0620 -1.4124
   15MOL0     H 1921   8.291   7.217   2.570 -0.3112  1.5207 -3.2964
   15MOL0     H 1922   8.189   7.352   2.589 -0.0801 -0.5819 -2.2449
   15MOL0     H 1923   7.972   7.218   2.587 -1.2021 -1.5802 -2.0354
   15MOL0     H 1924   8.068   7.231   2.444 -0.5359  2.2382  0.6665
   15MOL0     H 1925   8.027   6.988   2.637 -0.9393 -3.3056 -1.1537
   15MOL0     H 1926   8.160   6.993   2.527  0.2813  2.3928 -0.9351
   15MOL0     H 1927   7.966   6.872   2.429  0.1003 -0.3752  2.1111
   15MOL0     H 1928   8.000   7.032   2.345  1.4888 -1.3902  0.8649
   15MOL0     H 1929   7.813   7.127   2.500 -0.1226 -0.6656  2.0749
   15MOL0     H 1930   7.769   7.023   2.355 -1.5405 -1.1499  0.9736
   15MOL0     H 1931   7.801   6.915   2.625  2.1428  1.2967 -0.9883
   15MOL0     H 1932   7.732   6.831   2.480  0.6526  0.2442 -0.0572
   15MOL0     H 1933   7.626   7.177   2.639 -0.4660 -0.1777  2.9045
   15MOL0     H 1934   7.396   7.307   2.624 -1.8702  0.9571 -2.4454
   15MOL0     H 1935   7.299   7.195   2.723  0.7771 -3.8410 -0.2265
   15MOL0     H 1936   7.179   7.110   2.521 -0.2483  1.1620  2.2600
   15MOL0     H 1937   7.285   7.203   2.421  2.5025 -2.4581  1.0922
   15MOL0     H 1938   7.063   7.294   2.633 -0.0040  0.1172 -1.1861
   15MOL0     H 1939   7.186   7.419   2.561  0.1216  0.6734 -0.3957
   15MOL0     H 1940   6.934   7.351   2.448  0.8530  0.3032  1.6917
   15MOL0     H 1941   7.041   7.265   2.350 -1.5367  0.5918 -0.4496
   15MOL0     H 1942   6.865   7.355   2.243  0.5137 -1.3101  0.9719
   15MOL0     H 1943   6.727   7.455   2.072  0.0949 -2.3062  1.9328
   15MOL0     H 1944   6.517   7.792   1.801  1.9669 -3.2149  1.2723
   15MOL0     H 1945   6.434   7.884   1.605 -0.0822  0.6961 -2.0505
   15MOL0     H 1946   6.721   8.012   1.270 -0.8158 -0.8521 -2.3986
   15MOL0     H 1947   6.654   8.157   1.356 -2.6071  1.7613 -0.2945
   15MOL0     H 1948   6.447   8.130   1.215  1.4468  2.5438  0.6462
   15MOL0     H 1949   6.539   7.999   1.128  0.3824  0.2702 -0.6252
   15MOL0     H 1950   6.671   8.178   1.030  1.2831  0.6915  0.8715
   15MOL0     H 1951   6.631   8.285   1.158  0.4646  0.2360 -0.8485
   15MOL0     H 1952   6.433   8.166   0.958 -0.1048 -0.5348 -1.1283
   15MOL0     H 1953   6.381   8.283   1.079  0.7723 -1.7881  0.2078
   15MOL0     H 1954   6.488   8.343   0.818  0.6211 -1.1073 -0.4347
   15MOL0     H 1955   6.595   8.417   0.939  0.7697 -2.1347 -0.2797
   15MOL0     H 1956   6.382   8.514   1.046  2.5065  3.4834 -0.4730
   15MOL0     H 1957   6.291   8.452   0.919  0.1267 -1.2600  0.8339
   15MOL0     H 1958   6.359   8.691   0.879  0.8539  1.4306  0.0839
   15MOL0     H 1959   6.530   8.647   0.882 -0.3947  1.8784  1.2009
   15MOL0     H 1960   6.517   8.515   0.666 -1.4084 -1.3826 -1.5731
   15MOL0     H 1961   6.439   8.681   0.660  0.8415  0.8360  2.2790
   15MOL0     H 1962   6.820   8.027   1.491 -0.7604  0.8415 -0.2767
   15MOL0     H 1963   6.904   7.953   1.696 -0.9587  2.6946 -0.3326
   15MOL0     H 1964   6.978   7.813   2.082 -0.6860 -0.1880  0.2378
   15MOL0     H 1965   7.107   7.708   2.244  0.2254 -1.1762  1.8699
   15MOL0     H 1966   8.418   7.363   3.166 -0.8041  0.0551 -2.2283
   15MOL0     H 1967   8.614   7.275   3.287  1.5824  2.0364 -1.7017
   15MOL0     H 1968   8.935   7.123   3.414  0.3415  1.5866 -0.2355
   15MOL0     H 1969   9.172   7.138   3.509  1.0477  2.4368 -1.7558
   15MOL0     H 1970   9.491   7.018   3.226  0.7712  0.2287  0.0371
   15MOL0     H 1971   9.507   6.883   3.345  1.3620  0.1931  0.3269
   15MOL0     H 1972   9.623   7.158   3.362 -4.1760  0.9669  0.8742
   15MOL0     H 1973   9.594   7.065   3.508  3.2548 -2.2017  1.1400
   15MOL0     H 1974   9.759   6.981   3.279 -3.6066  1.0326 -0.5528
   15MOL0     H 1975   9.757   6.891   3.435 -3.5700  0.8698  1.5015
   15MOL0     H 1976   9.846   7.183   3.409  1.2869  0.5809  2.2355
   15MOL0     H 1977   9.849   7.078   3.548 -0.5175 -0.3626  0.1968
   15MOL0     H 1978  10.198   6.948   3.334 -0.0955 -2.5139  0.6808
   15MOL0     H 1979   9.307   6.894   3.179  0.3016 -0.8516  0.4420
   15MOL0     H 1980   9.067   6.866   3.096 -1.3629 -0.5481  0.9415
   16MOL0     O 1981  10.353  10.304  10.944 -0.0491  0.1280 -0.6417
   16MOL0     C 1982  10.385  10.372  11.044 -0.4487 -0.4917 -0.5301
   16MOL0     O 1983  10.326  10.489  11.089  0.5611  0.2364  0.0071
   16MOL0     C 1984  10.208  10.522  11.029 -0.0007  1.0592 -0.0591
   16MOL0     C 1985  10.177  10.526  10.895  0.4244 -0.6160 -0.6658
   16MOL0     C 1986  10.048  10.569  10.855  0.3756 -0.4936  0.3911
   16MOL0     C 1987   9.956  10.618  10.945  0.6918  0.3028 -0.4699
   16MOL0     O 1988   9.831  10.643  10.900  0.0777 -0.4598 -0.3784
   16MOL0     C 1989   9.764  10.762  10.944 -0.1390  0.4118 -0.2676
   16MOL0     C 1990   9.620  10.745  10.881  0.1415  0.0165 -0.2039
   16MOL0     C 1991   9.539  10.872  10.918 -0.7688  0.3808  0.0001
   16MOL0     C 1992   9.401  10.870  10.846  0.0809  0.0343  0.1178
   16MOL0     C 1993   9.328  11.000  10.879 -0.5216  0.2867 -0.7347
   16MOL0     C 1994   9.224  11.040  10.770  0.4853  0.2477  0.6321
   16MOL0     C 1995   9.126  11.152  10.818 -0.7948 -0.8632 -0.1143
   16MOL0     C 1996   9.032  11.200  10.706  0.2233  0.5140 -0.0318
   16MOL0     N 1997   8.896  11.224  10.756 -0.2924  0.1977  0.0631
   16MOL0     C 1998   8.833  11.342  10.763  0.1383 -0.2673 -0.3812
   16MOL0     C 1999   8.707  11.318  10.804 -0.0701 -0.0322  0.5452
   16MOL0     C 2000   8.608  11.424  10.841 -0.0865  0.0772  0.0200
   16MOL0     C 2001   8.675  11.502  10.953 -1.3675  0.2034 -0.0866
   16MOL0     C 2002   8.597  11.621  11.017  0.4959 -1.1224  0.8004
   16MOL0     C 2003   8.454  11.585  11.066  0.8517  0.0326  0.0018
   16MOL0     O 2004   8.417  11.681  11.165  0.5105  0.5265  0.3178
   16MOL0     C 2005   8.283  11.701  11.186  0.8214  0.3394  0.5269
   16MOL0     C 2006   8.182  11.623  11.140 -0.3822  0.4330  0.3785
   16MOL0     C 2007   8.053  11.643  11.174 -0.2869 -0.0182 -0.3497
   16MOL0     C 2008   8.018  11.749  11.261  0.2965  0.0530 -0.0240
   16MOL0     C 2009   7.874  11.769  11.295  0.1888  0.2033  0.0007
   16MOL0     O 2010   7.779  11.702  11.233  1.1697  0.3006  0.0099
   16MOL0     C 2011   7.655  11.695  11.298 -1.4364  0.1710  0.7997
   16MOL0     C 2012   7.555  11.777  11.260 -0.5226 -1.0772  0.1490
   16MOL0     C 2013   7.431  11.772  11.326 -0.9010 -0.4657 -0.6727
   16MOL0     C 2014   7.406  11.677  11.421  0.4975  0.2655  0.5308
   16MOL0     O 2015   7.293  11.677  11.500  0.6830 -0.4801 -0.8653
   16MOL0     C 2016   7.181  11.759  11.456 -0.4064 -0.6481 -0.6453
   16MOL0     C 2017   7.070  11.760  11.564 -0.5281  0.6515  0.1401
   16MOL0     C 2018   6.935  11.842  11.529  0.2790  0.2127  0.9225
   16MOL0     C 2019   6.842  11.881  11.643 -0.2921 -0.1242  0.0284
   16MOL0     C 2020   6.723  11.973  11.596  0.1170  0.5862 -0.3755
   16MOL0     C 2021   6.616  12.003  11.709  0.4949 -0.2544 -0.5289
   16MOL0     C 2022   6.498  12.081  11.647  0.0296 -0.2830 -1.4042
   16MOL0     C 2023   6.409  12.137  11.761 -0.3874  0.2120  0.4794
   16MOL0    Cl 2024   6.286  12.239  11.701  0.0386  0.1130 -0.0406
   16MOL0     C 2025   7.508  11.591  11.448  0.2603 -0.3162  0.4552
   16MOL0     C 2026   7.631  11.593  11.381 -0.1781  0.1017  0.2287
   16MOL0     O 2027   7.852  11.859  11.382  0.6951  0.1150  0.2603
   16MOL0     C 2028   8.121  11.832  11.311 -0.4860  0.2053  0.7814
   16MOL0     C 2029   8.252  11.808  11.266  0.4558  0.1088 -0.6823
   16MOL0     N 2030   8.697  11.175  10.822 -0.5679 -0.2530  0.4059
   16MOL0     N 2031   8.814  11.123  10.791 -0.3416 -1.0915  0.5324
   16MOL0     C 2032   9.992  10.606  11.076 -0.5265 -0.3143  0.7936
   16MOL0     C 2033  10.113  10.563  11.124 -0.1819  0.5300 -0.0601
   16MOL0     C 2034  10.485  10.317  11.139 -0.6246  1.1169 -0.7378
   16MOL0     C 2035  10.595  10.233  11.097 -0.4119 -0.8675 -0.4426
   16MOL0     C 2036  10.680  10.180  11.198  0.6962 -0.0047 -0.5966
   16MOL0     C 2037  10.665  10.197  11.336  0.8428  0.3585 -0.4123
   16MOL0     O 2038  10.754  10.164  11.435  0.1940  0.2526  0.4283
   16MOL0     C 2039  10.873  10.093  11.394  1.7375  0.1033 -0.4814
   16MOL0     C 2040  10.979  10.090  11.495  0.0095  0.2757  0.8591
   16MOL0     C 2041  11.029  10.238  11.520 -0.0584  0.2791  0.2414
   16MOL0     C 2042  11.177  10.257  11.566 -0.6023 -0.3757 -0.1540
   16MOL0     C 2043  11.214  10.400  11.606 -0.3725 -0.1850 -0.4805
   16MOL0     C 2044  11.242  10.517  11.635  1.1773  0.3937  0.0361
   16MOL0     C 2045  10.564  10.283  11.375 -0.4835  0.1497 -0.5186
   16MOL0     C 2046  10.481  10.346  11.279 -0.2389  0.4073  0.2866
   16MOL0     H 2047  10.254  10.503  10.822 -0.6111  1.4035 -2.4726
   16MOL0     H 2048  10.032  10.558  10.748 -3.8558  1.2138  0.6633
   16MOL0     H 2049   9.811  10.851  10.902 -0.1156  0.0274 -1.0817
   16MOL0     H 2050   9.759  10.762  11.053  1.5679 -2.3294 -0.0835
   16MOL0     H 2051   9.565  10.659  10.922  3.0886 -1.3240  1.2289
   16MOL0     H 2052   9.629  10.745  10.772 -2.3617 -0.7689 -0.4746
   16MOL0     H 2053   9.594  10.962  10.892 -1.5446  1.3741  1.6575
   16MOL0     H 2054   9.518  10.869  11.026  0.4486  3.8227  0.4310
   16MOL0     H 2055   9.404  10.872  10.737  0.8822 -0.4050  0.1209
   16MOL0     H 2056   9.342  10.785  10.880 -0.3980 -0.1003 -1.0051
   16MOL0     H 2057   9.403  11.077  10.901  0.9758 -1.6512  1.4045
   16MOL0     H 2058   9.288  10.982  10.979 -0.3065 -0.2768 -0.7493
   16MOL0     H 2059   9.160  10.957  10.740 -1.0885  2.0825 -1.4357
   16MOL0     H 2060   9.278  11.077  10.683 -0.8959  0.3169 -0.2179
   16MOL0     H 2061   9.071  11.100  10.897  0.3263 -0.2092  1.1224
   16MOL0     H 2062   9.163  11.234  10.881  0.5512 -1.8368  0.4006
   16MOL0     H 2063   9.039  11.119  10.632 -0.0035 -0.1552  0.6657
   16MOL0     H 2064   9.068  11.294  10.665  0.6743  1.0287  1.4872
   16MOL0     H 2065   8.868  11.438  10.724  0.7162 -0.8806 -1.4282
   16MOL0     H 2066   8.518  11.372  10.876 -0.4013 -0.8436 -2.0511
   16MOL0     H 2067   8.573  11.484  10.757 -0.3506 -0.1186 -0.0120
   16MOL0     H 2068   8.766  11.545  10.909 -0.6002 -1.3246 -0.0528
   16MOL0     H 2069   8.709  11.438  11.035  0.3404  1.0038 -0.1291
   16MOL0     H 2070   8.651  11.672  11.098  1.2468 -0.6237 -0.0031
   16MOL0     H 2071   8.589  11.694  10.936  3.3323 -0.9743  0.5422
   16MOL0     H 2072   8.448  11.485  11.109 -1.7387  1.3736  3.1721
   16MOL0     H 2073   8.393  11.596  10.975 -0.1823 -2.0759  0.3597
   16MOL0     H 2074   8.203  11.533  11.083 -2.0268 -0.9735  1.8342
   16MOL0     H 2075   7.978  11.570  11.146 -1.4990  1.1070 -0.1190
   16MOL0     H 2076   7.582  11.859  11.194 -0.9433  0.2955  1.6186
   16MOL0     H 2077   7.360  11.851  11.304 -2.0735 -1.1001  0.6585
   16MOL0     H 2078   7.158  11.705  11.364  0.1583 -2.4730  0.2430
   16MOL0     H 2079   7.200  11.866  11.442 -0.7664  0.0357  2.9674
   16MOL0     H 2080   7.110  11.790  11.661 -0.0755 -0.8819  0.4537
   16MOL0     H 2081   7.040  11.655  11.579  1.0560  0.3209  1.1861
   16MOL0     H 2082   6.884  11.772  11.462  0.7584  3.1144 -2.7907
   16MOL0     H 2083   6.957  11.925  11.462 -0.8604 -1.4853 -1.7160
   16MOL0     H 2084   6.802  11.798  11.702  2.0506 -0.5638  1.1466
   16MOL0     H 2085   6.896  11.949  11.710 -0.6933 -0.4803  0.7226
   16MOL0     H 2086   6.674  11.926  11.510 -0.6137  0.8961 -0.1324
   16MOL0     H 2087   6.762  12.065  11.553  2.0423 -0.3862 -0.8389
   16MOL0     H 2088   6.675  12.056  11.784  2.7094 -2.4576 -0.6030
   16MOL0     H 2089   6.567  11.917  11.754  0.2772 -0.7565 -1.6948
   16MOL0     H 2090   6.528  12.166  11.586  0.4147  1.6909  1.3283
   16MOL0     H 2091   6.439  12.013  11.585  0.7390  0.2016 -2.6477
   16MOL0     H 2092   6.477  12.199  11.821 -0.6696  1.2938 -0.2948
   16MOL0     H 2093   6.365  12.061  11.826  0.8493 -1.6127 -0.7533
   16MOL0     H 2094   7.489  11.512  11.520  0.2058  0.1104  0.9159
   16MOL0     H 2095   7.714  11.526  11.400  1.3387  1.5500 -0.9410
   16MOL0     H 2096   8.092  11.909  11.382  2.7897  3.4973 -1.1263
   16MOL0     H 2097   8.328  11.873  11.307 -0.2106  0.9593 -0.7687
   16MOL0     H 2098   9.919  10.644  11.147  2.0380  0.7971  2.9837
   16MOL0     H 2099  10.137  10.570  11.229 -1.6452 -0.7674  0.3993
   16MOL0     H 2100  10.608  10.219  10.990 -1.9353 -1.8755 -0.5285
   16MOL0     H 2101  10.754  10.108  11.165  2.7378  0.4183  2.6148
   16MOL0     H 2102  10.906  10.143  11.303 -1.0988 -1.1412 -2.3348
   16MOL0     H 2103  10.861   9.992  11.353  0.5046 -0.0839  0.2812
   16MOL0     H 2104  10.944  10.041  11.586 -0.6814  1.5999  1.3288
   16MOL0     H 2105  11.059  10.023  11.461 -0.5329  0.1133 -0.1229
   16MOL0     H 2106  10.960  10.277  11.595 -1.8483  1.2176 -1.7942
   16MOL0     H 2107  11.030  10.302  11.431 -0.2053  0.4967  0.3956
   16MOL0     H 2108  11.182  10.206  11.663  1.5593  1.9643  1.0701
   16MOL0     H 2109  11.253  10.218  11.498 -0.9069 -0.4020 -0.4856
   16MOL0     H 2110  11.278  10.613  11.667  1.7734  0.8807 -1.9136
   16MOL0     H 2111  10.547  10.297  11.482  0.9988 -1.7214  0.0105
   16MOL0     H 2112  10.393  10.400  11.314 -0.7923  0.5571 -1.2333
   17MOL0     O 2113   9.139  10.845   7.298 -0.0755  0.4953  0.2095
   17MOL0     C 2114   9.065  10.945   7.290  0.6284  0.8019 -0.2488
   17MOL0     O 2115   8.979  10.973   7.184  0.6972 -0.1356 -0.4074
   17MOL0     C 2116   8.971  10.876   7.087  0.6910  0.4476 -0.6388
   17MOL0     C 2117   9.082  10.827   7.019 -0.3087 -0.1043 -0.7107
   17MOL0     C 2118   9.065  10.740   6.911 -0.3889 -0.1720  0.2443
   17MOL0     C 2119   8.943  10.673   6.876 -0.4045  0.4863  0.9074
   17MOL0     O 2120   8.945  10.602   6.760 -0.2155  1.0030  0.3353
   17MOL0     C 2121   8.847  10.499   6.738  0.0019  0.4143  0.3646
   17MOL0     C 2122   8.854  10.443   6.599 -0.7188  0.3902  0.5076
   17MOL0     C 2123   8.734  10.352   6.549  0.5343  0.2817  0.2294
   17MOL0     C 2124   8.623  10.436   6.477  0.1743 -0.1370  0.3073
   17MOL0     C 2125   8.488  10.363   6.490  0.3254 -0.0345 -0.0423
   17MOL0     C 2126   8.487  10.226   6.411  0.5460 -0.1453 -0.0448
   17MOL0     C 2127   8.348  10.167   6.386 -0.4776 -0.0128  0.6445
   17MOL0     C 2128   8.297  10.106   6.517  0.2076 -0.8148  0.2112
   17MOL0     N 2129   8.148  10.080   6.490 -0.5192  0.0830 -0.5284
   17MOL0     C 2130   8.045  10.178   6.478 -0.6723  0.6968 -0.3935
   17MOL0     C 2131   7.937  10.102   6.453  0.1359  0.2253 -0.1257
   17MOL0     C 2132   7.792  10.134   6.429 -0.3790  0.4387  0.4352
   17MOL0     C 2133   7.703  10.067   6.529 -0.0190 -0.7141 -0.3467
   17MOL0     C 2134   7.559  10.115   6.511  0.7361  0.2973 -0.4695
   17MOL0     C 2135   7.469  10.024   6.592  0.0701 -0.2519 -0.2520
   17MOL0     O 2136   7.475  10.035   6.738 -0.0314  0.3084 -0.7549
   17MOL0     C 2137   7.374   9.968   6.793 -0.0185 -0.6163  0.4579
   17MOL0     C 2138   7.255  10.030   6.821 -0.4441 -0.0978 -0.1637
   17MOL0     C 2139   7.150   9.962   6.876  0.0563 -0.2061  0.0055
   17MOL0     C 2140   7.171   9.838   6.925  0.3923  0.1497  0.6921
   17MOL0     C 2141   7.056   9.771   6.998 -1.1117  0.3246 -0.6111
   17MOL0     O 2142   6.944   9.846   7.016 -0.1582  0.1738 -0.7369
   17MOL0     C 2143   6.818   9.801   7.043 -0.4906  0.1436 -1.0365
   17MOL0     C 2144   6.774   9.713   7.145  0.1665  0.4805 -0.4570
   17MOL0     C 2145   6.635   9.676   7.175 -0.1065  0.4643 -0.7171
   17MOL0     C 2146   6.536   9.736   7.092 -0.0999 -0.2921  0.5270
   17MOL0     O 2147   6.399   9.726   7.110  0.1028  0.4507  0.0173
   17MOL0     C 2148   6.345   9.649   7.224  0.8400 -0.3103 -0.1113
   17MOL0     C 2149   6.186   9.673   7.210 -0.5949 -0.2216 -0.7066
   17MOL0     C 2150   6.110   9.588   7.313  0.2458 -0.0124 -0.3055
   17MOL0     C 2151   5.971   9.558   7.265 -0.8070 -0.0958 -0.5276
   17MOL0     C 2152   5.894   9.480   7.363  0.3760  0.3060 -0.1017
   17MOL0     C 2153   5.752   9.460   7.309  1.0043  0.1228  0.4899
   17MOL0     C 2154   5.660   9.415   7.421 -0.6090 -0.1136 -0.1125
   17MOL0     C 2155   5.511   9.437   7.383 -0.0038 -0.0461 -0.2343
   17MOL0    Cl 2156   5.421   9.447   7.539 -0.4060  0.0722  0.0429
   17MOL0     C 2157   6.579   9.818   6.991 -0.2136 -1.2531 -0.7964
   17MOL0     C 2158   6.715   9.846   6.967 -0.4053 -0.1291 -0.5936
   17MOL0     O 2159   7.080   9.656   7.034  0.6011 -0.4859 -0.4780
   17MOL0     C 2160   7.299   9.767   6.899  0.2182 -0.3864 -0.0656
   17MOL0     C 2161   7.389   9.828   6.820  0.4062 -0.5020 -0.5932
   17MOL0     N 2162   7.974   9.973   6.443  0.7504 -0.0042 -0.3243
   17MOL0     N 2163   8.095   9.964   6.469  0.1090  0.3253  0.7306
   17MOL0     C 2164   8.836  10.715   6.963 -0.2351  0.1638  0.4593
   17MOL0     C 2165   8.844  10.815   7.061 -0.3422 -0.5479  0.7749
   17MOL0     C 2166   9.069  11.042   7.400 -0.4053  0.5025 -1.2848
   17MOL0     C 2167   9.012  11.172   7.378 -0.2510  0.3173 -1.0289
   17MOL0     C 2168   9.001  11.263   7.478  0.4046 -0.1789  0.0508
   17MOL0     C 2169   9.041  11.233   7.602  0.5157  0.2743 -0.5524
   17MOL0     O 2170   9.021  11.317   7.705 -0.4553 -0.4662  0.5353
   17MOL0     C 2171   9.145  11.391   7.730 -0.3744  0.4771 -0.1644
   17MOL0     C 2172   9.122  11.451   7.863 -0.2244  0.3249 -0.7015
   17MOL0     C 2173   9.128  11.342   7.976  0.3382  0.0594  0.2699
   17MOL0     C 2174   9.102  11.395   8.113  0.9113 -0.0722 -0.3459
   17MOL0     C 2175   8.989  11.486   8.119  0.3998 -0.7065 -0.1096
   17MOL0     C 2176   8.886  11.551   8.110  0.1123 -0.0764  0.1720
   17MOL0     C 2177   9.107  11.114   7.622 -0.1845 -0.0799 -0.9156
   17MOL0     C 2178   9.128  11.012   7.528  0.7573 -0.3826  0.2949
   17MOL0     H 2179   9.182  10.866   7.035  0.4531 -2.4759  0.6698
   17MOL0     H 2180   9.148  10.723   6.842 -1.6274  3.2727 -2.3368
   17MOL0     H 2181   8.750  10.547   6.755  0.5492  2.6340 -2.1212
   17MOL0     H 2182   8.867  10.420   6.811 -0.1774  0.7760  0.8146
   17MOL0     H 2183   8.936  10.371   6.588  0.7814  2.3504 -2.3826
   17MOL0     H 2184   8.868  10.520   6.523 -1.0936 -0.0307  0.0055
   17MOL0     H 2185   8.694  10.305   6.639 -2.8798 -1.4233 -1.9720
   17MOL0     H 2186   8.773  10.279   6.478  0.8965  1.0682 -0.4021
   17MOL0     H 2187   8.617  10.537   6.518 -2.0496  0.8177 -2.1114
   17MOL0     H 2188   8.644  10.441   6.370  4.1459 -0.7447  0.8975
   17MOL0     H 2189   8.412  10.425   6.442 -0.2613  1.3372  2.4784
   17MOL0     H 2190   8.461  10.352   6.595  2.6064 -2.0456  0.4106
   17MOL0     H 2191   8.546  10.144   6.453  0.8351 -1.3304 -2.6057
   17MOL0     H 2192   8.536  10.253   6.318  1.0653  0.9420  0.5242
   17MOL0     H 2193   8.290  10.259   6.374 -1.8799 -0.6838  2.0350
   17MOL0     H 2194   8.338  10.102   6.299 -1.0151  2.0831 -0.9437
   17MOL0     H 2195   8.301  10.179   6.598 -0.5006 -0.3611 -0.1596
   17MOL0     H 2196   8.364  10.023   6.544 -2.0771 -2.5888  0.7965
   17MOL0     H 2197   8.039  10.285   6.494 -0.7093  1.0225 -2.3840
   17MOL0     H 2198   7.756  10.102   6.331  1.2909  2.3799 -0.9053
   17MOL0     H 2199   7.776  10.243   6.427 -3.8031  0.0348  0.7698
   17MOL0     H 2200   7.743  10.085   6.629 -0.6670  0.4817 -0.2868
   17MOL0     H 2201   7.701   9.959   6.511  1.2542 -0.8866  0.4204
   17MOL0     H 2202   7.555  10.223   6.531 -0.5218  0.4222 -1.2269
   17MOL0     H 2203   7.521  10.092   6.411 -2.5844 -1.0911  0.9348
   17MOL0     H 2204   7.479   9.923   6.550 -1.0597 -0.3945 -0.2320
   17MOL0     H 2205   7.369  10.060   6.565 -0.0904 -1.1031 -0.8505
   17MOL0     H 2206   7.240  10.135   6.796 -2.2480 -0.4413 -0.6926
   17MOL0     H 2207   7.064  10.025   6.895  0.9352  0.4673  2.0839
   17MOL0     H 2208   6.849   9.687   7.219 -2.5424 -0.8349  2.0444
   17MOL0     H 2209   6.621   9.613   7.263  2.5939  2.3344  1.2314
   17MOL0     H 2210   6.383   9.695   7.316  0.6373  0.3673 -0.3602
   17MOL0     H 2211   6.378   9.545   7.233  2.2469  0.2575  2.2440
   17MOL0     H 2212   6.151   9.657   7.107 -1.6071  0.6060 -0.5074
   17MOL0     H 2213   6.166   9.778   7.231  0.7267 -0.3950  1.7134
   17MOL0     H 2214   6.113   9.643   7.407 -3.0559  2.7002 -1.5621
   17MOL0     H 2215   6.163   9.494   7.331  0.2314  0.4043  2.2201
   17MOL0     H 2216   5.926   9.658   7.263  0.6731  0.6643  0.8882
   17MOL0     H 2217   5.982   9.523   7.162  1.3325  2.0832 -1.1617
   17MOL0     H 2218   5.903   9.525   7.463 -1.6518 -0.7760  0.6337
   17MOL0     H 2219   5.934   9.378   7.360  0.4548  0.1995  2.4088
   17MOL0     H 2220   5.751   9.385   7.229  2.2418  1.9608 -1.3656
   17MOL0     H 2221   5.719   9.552   7.260  2.5293 -0.1990 -1.2809
   17MOL0     H 2222   5.689   9.315   7.453  0.3944 -0.0304 -0.7063
   17MOL0     H 2223   5.688   9.486   7.499  4.8087  0.2454 -1.9693
   17MOL0     H 2224   5.469   9.360   7.317  1.2726 -1.8645  0.9633
   17MOL0     H 2225   5.488   9.531   7.331 -2.2372  0.5295  1.6555
   17MOL0     H 2226   6.503   9.868   6.932 -1.6641 -1.3479  0.9087
   17MOL0     H 2227   6.737   9.904   6.878 -1.2627  0.7711 -0.2373
   17MOL0     H 2228   7.319   9.663   6.926  0.7573 -1.4878 -3.9981
   17MOL0     H 2229   7.476   9.771   6.789 -0.8301 -1.7142 -1.9392
   17MOL0     H 2230   8.740  10.668   6.945 -0.8164  0.5322  2.3623
   17MOL0     H 2231   8.760  10.837   7.126 -0.2091  1.3290  0.3532
   17MOL0     H 2232   8.975  11.191   7.277  1.1032  2.0725 -1.2405
   17MOL0     H 2233   8.942  11.352   7.461  0.4162 -0.2103 -0.1601
   17MOL0     H 2234   9.157  11.473   7.659 -1.0082 -0.1893 -1.0589
   17MOL0     H 2235   9.235  11.330   7.730 -0.4857  0.2525  1.5147
   17MOL0     H 2236   9.204  11.522   7.880 -0.6374  0.4902  0.7298
   17MOL0     H 2237   9.028  11.506   7.861 -0.7292 -0.1648  2.7047
   17MOL0     H 2238   9.223  11.290   7.990 -0.0084 -0.1113  2.4178
   17MOL0     H 2239   9.050  11.272   7.944 -0.8925  1.6700 -0.4267
   17MOL0     H 2240   9.088  11.312   8.182  1.3579 -0.0120 -0.1747
   17MOL0     H 2241   9.196  11.448   8.133  0.8918 -0.5408  1.0876
   17MOL0     H 2242   8.786  11.587   8.100 -0.5697 -2.3162 -2.0167
   17MOL0     H 2243   9.153  11.085   7.716  0.9984 -1.8931 -1.9839
   17MOL0     H 2244   9.178  10.918   7.547  1.8972  0.4446  1.5876
   18MOL0     O 2245   5.446   1.950  10.509 -0.5224 -0.3233  0.7777
   18MOL0     C 2246   5.485   2.064  10.535  0.1026 -1.0414 -0.4370
   18MOL0     O 2247   5.418   2.153  10.615  0.2421 -0.0745  0.2512
   18MOL0     C 2248   5.301   2.132  10.683 -0.2913  0.5307  0.0285
   18MOL0     C 2249   5.220   2.022  10.669 -0.0619 -0.0958  0.1374
   18MOL0     C 2250   5.096   2.022  10.727  0.0599  0.6463 -0.0824
   18MOL0     C 2251   5.046   2.133  10.797 -1.2057 -0.2712  0.6745
   18MOL0     O 2252   4.929   2.130  10.860  0.0489 -0.6103 -0.7116
   18MOL0     C 2253   4.934   2.057  10.982  0.2357  0.5525 -0.8363
   18MOL0     C 2254   4.797   1.996  11.008  0.2582 -0.1905 -0.7093
   18MOL0     C 2255   4.686   2.100  10.985  0.0903 -0.6898 -0.3778
   18MOL0     C 2256   4.543   2.057  11.034 -0.1559  0.7832 -0.1591
   18MOL0     C 2257   4.456   2.176  11.018 -0.1709 -0.1105  0.0922
   18MOL0     C 2258   4.341   2.146  11.115  0.3813  0.1150  0.4217
   18MOL0     C 2259   4.210   2.210  11.078  0.0698  0.1790  0.2219
   18MOL0     C 2260   4.116   2.198  11.201  0.3181  0.5014  0.1428
   18MOL0     N 2261   3.980   2.226  11.162 -0.1134 -0.0255 -0.1828
   18MOL0     C 2262   3.909   2.340  11.189  0.2881 -0.2323  0.0201
   18MOL0     C 2263   3.783   2.317  11.132 -0.8805 -0.9977  0.8038
   18MOL0     C 2264   3.664   2.415  11.116  0.3584 -0.5227  0.4178
   18MOL0     C 2265   3.634   2.461  10.983 -1.2059  0.5934 -0.0722
   18MOL0     C 2266   3.523   2.376  10.914  0.1611  0.2365 -0.2135
   18MOL0     C 2267   3.491   2.429  10.772  0.0941  0.3305  0.5555
   18MOL0     O 2268   3.370   2.353  10.722 -0.7233 -0.2270 -0.4229
   18MOL0     C 2269   3.246   2.390  10.763 -0.9244  0.7844 -0.1017
   18MOL0     C 2270   3.140   2.304  10.742 -0.1936  0.4255 -0.2403
   18MOL0     C 2271   3.005   2.347  10.750  0.5574 -0.5533 -0.2356
   18MOL0     C 2272   2.971   2.482  10.787  0.4796  0.1378 -0.6598
   18MOL0     C 2273   2.832   2.526  10.791 -0.3833  0.0766 -0.7402
   18MOL0     O 2274   2.730   2.442  10.781 -0.4006  0.5066 -0.5058
   18MOL0     C 2275   2.598   2.491  10.771  0.9586  1.1248 -0.2141
   18MOL0     C 2276   2.553   2.596  10.685  0.1644 -0.3952 -0.0622
   18MOL0     C 2277   2.423   2.635  10.679 -0.1903 -0.1412 -0.9496
   18MOL0     C 2278   2.325   2.566  10.744 -0.1325  0.1538  0.4627
   18MOL0     O 2279   2.190   2.607  10.719 -0.2800 -0.1662 -0.4807
   18MOL0     C 2280   2.079   2.514  10.728  0.1204 -0.3568 -0.0453
   18MOL0     C 2281   2.013   2.547  10.854  0.4523 -0.0079  0.0102
   18MOL0     C 2282   1.916   2.445  10.889  0.1134 -0.4910 -0.0043
   18MOL0     C 2283   1.840   2.481  11.023 -0.4046 -0.4534  0.8290
   18MOL0     C 2284   1.697   2.420  11.026 -0.5208 -0.0043  0.0498
   18MOL0     C 2285   1.628   2.439  11.165  0.0407 -1.2403 -0.0276
   18MOL0     C 2286   1.480   2.397  11.159  0.8006  0.2173 -0.9763
   18MOL0     C 2287   1.411   2.416  11.292  0.3921 -0.2931 -0.0150
   18MOL0    Cl 2288   1.436   2.280  11.408 -0.1860 -0.0205 -0.3171
   18MOL0     C 2289   2.364   2.466  10.833 -0.3740 -0.3616  0.1281
   18MOL0     C 2290   2.497   2.421  10.833  0.0614 -0.5757  0.2128
   18MOL0     O 2291   2.812   2.646  10.801  0.2608  0.1609  0.9824
   18MOL0     C 2292   3.083   2.565  10.813  0.2421  0.6122  0.2402
   18MOL0     C 2293   3.212   2.523  10.805 -0.9039 -0.8464  0.9374
   18MOL0     N 2294   3.786   2.193  11.082 -0.5382 -0.1260 -0.3501
   18MOL0     N 2295   3.898   2.143  11.088 -0.2752 -0.6718 -0.0875
   18MOL0     C 2296   5.128   2.243  10.807 -0.0017 -0.5122 -0.4254
   18MOL0     C 2297   5.255   2.243  10.752  0.5511  0.7510 -0.4030
   18MOL0     C 2298   5.605   2.112  10.473  0.4968  0.1345 -0.5056
   18MOL0     C 2299   5.659   2.236  10.504 -0.3658  0.5181  0.1629
   18MOL0     C 2300   5.785   2.290  10.457  0.4282  0.5072  0.2423
   18MOL0     C 2301   5.861   2.217  10.371  0.9695  0.8766  0.2618
   18MOL0     O 2302   5.979   2.268  10.331  0.1374 -0.5155 -0.1521
   18MOL0     C 2303   6.052   2.218  10.226  0.3880 -0.6473  0.5071
   18MOL0     C 2304   6.159   2.319  10.191  0.0606 -0.3909  0.1439
   18MOL0     C 2305   6.237   2.292  10.058  0.1113  0.2383 -0.2936
   18MOL0     C 2306   6.354   2.383  10.036 -0.1833  0.5181  0.3096
   18MOL0     C 2307   6.460   2.352  10.132  0.3001 -1.1371 -0.3884
   18MOL0     C 2308   6.551   2.333  10.213 -0.0994  0.2467  0.1204
   18MOL0     C 2309   5.813   2.094  10.334 -0.0579 -0.5838  0.4052
   18MOL0     C 2310   5.693   2.039  10.382  0.0253 -0.5075  0.4970
   18MOL0     H 2311   5.251   1.930  10.620 -3.2180 -0.4174 -1.4746
   18MOL0     H 2312   5.042   1.928  10.732  2.7321 -1.0490 -0.9625
   18MOL0     H 2313   4.961   2.119  11.069 -2.3685  0.6039  0.0244
   18MOL0     H 2314   5.001   1.973  10.962 -2.6095 -1.4625 -2.5743
   18MOL0     H 2315   4.789   1.960  11.111 -4.8704  4.4755  1.0107
   18MOL0     H 2316   4.787   1.911  10.939 -0.0374 -0.4579 -0.3433
   18MOL0     H 2317   4.683   2.122  10.878  1.5096 -0.4886 -0.3864
   18MOL0     H 2318   4.712   2.195  11.033  2.0027 -1.3445 -0.0223
   18MOL0     H 2319   4.500   1.975  10.976 -2.4641  2.6927 -1.3058
   18MOL0     H 2320   4.545   2.029  11.140  0.4295  3.1701  0.5093
   18MOL0     H 2321   4.420   2.183  10.915  0.7387 -0.9191 -0.2905
   18MOL0     H 2322   4.513   2.268  11.035  1.8799 -1.3276  0.1281
   18MOL0     H 2323   4.372   2.187  11.212 -0.9582 -0.7036  1.2212
   18MOL0     H 2324   4.316   2.040  11.109  1.9493 -0.1850 -2.4405
   18MOL0     H 2325   4.239   2.313  11.053 -0.1826  0.6864  1.8897
   18MOL0     H 2326   4.169   2.163  10.988  1.6612  2.2039 -1.6849
   18MOL0     H 2327   4.143   2.258  11.289  0.8949  1.1472 -0.4607
   18MOL0     H 2328   4.120   2.095  11.236  5.4595  0.2711 -0.3606
   18MOL0     H 2329   3.938   2.438  11.224 -0.2906 -0.9122  2.6374
   18MOL0     H 2330   3.689   2.503  11.177 -1.1452  1.1197 -1.1737
   18MOL0     H 2331   3.575   2.370  11.161  0.1409  0.3117  0.8497
   18MOL0     H 2332   3.721   2.450  10.918 -0.8555 -1.2773  0.6687
   18MOL0     H 2333   3.616   2.569  10.987 -4.8025  0.0917  0.9858
   18MOL0     H 2334   3.545   2.269  10.901 -1.9372 -0.5633  1.9650
   18MOL0     H 2335   3.429   2.390  10.970 -1.0676  0.1073 -2.1502
   18MOL0     H 2336   3.575   2.399  10.709  1.5655 -1.5630  3.2018
   18MOL0     H 2337   3.498   2.536  10.751  0.0251  0.3061  0.4030
   18MOL0     H 2338   3.166   2.204  10.709  0.3543  0.7898 -0.9401
   18MOL0     H 2339   2.918   2.284  10.737 -1.7195  2.4285 -0.6999
   18MOL0     H 2340   2.618   2.652  10.619  1.4836 -1.6130  0.1463
   18MOL0     H 2341   2.398   2.728  10.628 -3.9130 -0.4706  0.0094
   18MOL0     H 2342   2.117   2.412  10.717 -0.4202 -0.4776 -0.8482
   18MOL0     H 2343   1.999   2.527  10.655  0.2584 -0.7490 -0.2698
   18MOL0     H 2344   1.963   2.645  10.855 -0.6486 -0.4810 -1.9032
   18MOL0     H 2345   2.088   2.546  10.933  0.8562 -1.2309 -0.3722
   18MOL0     H 2346   1.977   2.357  10.909  1.1676  0.3520  0.6102
   18MOL0     H 2347   1.838   2.425  10.815 -0.2420 -3.2720  1.0081
   18MOL0     H 2348   1.904   2.448  11.106  0.2487 -0.9508  0.1471
   18MOL0     H 2349   1.813   2.586  11.033 -2.0028 -0.8065  0.4355
   18MOL0     H 2350   1.696   2.316  10.995 -1.0375 -0.0423  0.1901
   18MOL0     H 2351   1.645   2.476  10.948  1.1021 -0.3892 -1.3527
   18MOL0     H 2352   1.637   2.545  11.192 -2.3946 -1.1282  0.5401
   18MOL0     H 2353   1.681   2.377  11.239  2.8420  0.8638 -0.1077
   18MOL0     H 2354   1.417   2.442  11.082 -0.7947 -0.3883 -0.0774
   18MOL0     H 2355   1.482   2.291  11.131  2.4730 -0.0512 -0.0012
   18MOL0     H 2356   1.304   2.438  11.282  0.0567 -1.8887 -0.3082
   18MOL0     H 2357   1.452   2.509  11.331  1.4022  0.2301 -2.1487
   18MOL0     H 2358   2.292   2.412  10.894 -0.1189 -0.2624  0.5240
   18MOL0     H 2359   2.518   2.336  10.897  1.1068 -0.1318  0.4870
   18MOL0     H 2360   3.068   2.670  10.837 -0.3424  0.8628 -1.1424
   18MOL0     H 2361   3.298   2.588  10.820 -0.4792 -0.9781 -0.7075
   18MOL0     H 2362   5.094   2.327  10.867  3.3211 -0.9602  2.4151
   18MOL0     H 2363   5.311   2.336  10.752  1.4580  0.2111  0.0328
   18MOL0     H 2364   5.612   2.299  10.578 -0.2363 -0.1144  0.7973
   18MOL0     H 2365   5.821   2.389  10.486 -2.1771  1.6110 -0.0248
   18MOL0     H 2366   5.988   2.206  10.138  0.7172  1.1102  0.0029
   18MOL0     H 2367   6.102   2.123  10.248 -0.5955 -1.6325 -1.2432
   18MOL0     H 2368   6.107   2.415  10.182  0.1635 -0.3121  0.3597
   18MOL0     H 2369   6.226   2.333  10.277 -2.2324  0.8935  1.8221
   18MOL0     H 2370   6.168   2.307   9.974  1.1136  1.4690 -0.9160
   18MOL0     H 2371   6.262   2.185  10.059 -2.1690 -0.3620 -0.4664
   18MOL0     H 2372   6.390   2.355   9.936  0.6855 -2.0544  1.2741
   18MOL0     H 2373   6.319   2.487  10.035 -2.5548 -0.1857 -2.4258
   18MOL0     H 2374   6.634   2.311  10.276  0.6279  1.8920 -0.1970
   18MOL0     H 2375   5.869   2.032  10.264  1.0544  1.6640 -0.7889
   18MOL0     H 2376   5.663   1.942  10.345 -1.7013  1.2881 -3.4500
   19MOL0     O 2377   7.399   9.583   9.731 -0.1219 -0.0823  0.7921
   19MOL0     C 2378   7.388   9.492   9.649  0.3488 -0.2495  0.6035
   19MOL0     O 2379   7.275   9.457   9.590 -0.1326 -0.5740 -0.3051
   19MOL0     C 2380   7.176   9.547   9.608 -0.1182 -0.2173 -0.2058
   19MOL0     C 2381   7.079   9.521   9.697 -0.3475 -0.6315  0.6936
   19MOL0     C 2382   6.965   9.605   9.707 -0.2211  0.3256  0.8279
   19MOL0     C 2383   6.967   9.721   9.631  0.0437 -1.0861 -0.4130
   19MOL0     O 2384   6.878   9.826   9.639  0.2417  0.7526 -0.2865
   19MOL0     C 2385   6.791   9.821   9.753  0.8161  0.2605  0.1853
   19MOL0     C 2386   6.707   9.948   9.729  0.4643 -0.1807  0.4828
   19MOL0     C 2387   6.587   9.956   9.827 -0.1821  0.3124  0.1250
   19MOL0     C 2388   6.505  10.092   9.826  0.2758  0.1739  0.2956
   19MOL0     C 2389   6.411  10.116   9.944  0.7524 -0.9155  0.3097
   19MOL0     C 2390   6.345  10.254   9.931  0.9038 -0.9223  0.8985
   19MOL0     C 2391   6.250  10.299  10.049 -0.9362  0.0574  0.6252
   19MOL0     C 2392   6.104  10.264  10.031 -0.0874 -0.2670 -0.4555
   19MOL0     N 2393   6.039  10.299   9.902  0.3491 -0.5918 -0.3527
   19MOL0     C 2394   6.003  10.423   9.858  0.2238  0.5351 -0.5356
   19MOL0     C 2395   5.976  10.397   9.724  0.4266 -0.7653 -0.1273
   19MOL0     C 2396   5.929  10.500   9.631 -0.2073 -0.2001 -0.6296
   19MOL0     C 2397   5.840  10.433   9.526 -0.1081 -0.4194 -0.3501
   19MOL0     C 2398   5.773  10.546   9.434 -0.0856 -0.9016 -0.1892
   19MOL0     C 2399   5.684  10.495   9.322  0.2793  0.1427 -0.2455
   19MOL0     O 2400   5.591  10.402   9.383  0.2247  0.0018  0.0346
   19MOL0     C 2401   5.459  10.448   9.417  0.2011  0.2692  0.0309
   19MOL0     C 2402   5.378  10.344   9.466  1.0484  0.1972  0.9130
   19MOL0     C 2403   5.250  10.375   9.517 -0.8434  0.6240 -0.1644
   19MOL0     C 2404   5.204  10.505   9.510  0.3457 -0.8130 -0.2363
   19MOL0     C 2405   5.072  10.526   9.556  0.6639  0.1039  0.2660
   19MOL0     O 2406   4.987  10.422   9.548 -0.3790  0.0064 -0.0489
   19MOL0     C 2407   4.862  10.446   9.590 -0.1244 -0.3296 -0.2517
   19MOL0     C 2408   4.819  10.401   9.718  0.6310  0.1839 -0.5630
   19MOL0     C 2409   4.686  10.435   9.759 -0.6100  0.0571  0.0997
   19MOL0     C 2410   4.604  10.496   9.668  0.4272  0.2382 -0.3040
   19MOL0     O 2411   4.475  10.523   9.696  0.4604  0.7920 -0.6376
   19MOL0     C 2412   4.421  10.502   9.820 -0.5229 -0.2090 -0.7674
   19MOL0     C 2413   4.274  10.541   9.799  0.0311  0.1684  0.1459
   19MOL0     C 2414   4.207  10.495   9.925 -1.5273  0.4033 -0.4597
   19MOL0     C 2415   4.063  10.553   9.923  0.3369  0.2933  0.1600
   19MOL0     C 2416   3.992  10.547  10.057  0.1024  0.1902  0.6575
   19MOL0     C 2417   3.952  10.399  10.088  0.1995  0.4431  0.7655
   19MOL0     C 2418   3.892  10.385  10.224  0.7066  0.0795 -0.1360
   19MOL0     C 2419   3.923  10.249  10.281  0.1605 -0.0983  0.6899
   19MOL0    Cl 2420   3.852  10.122  10.173  0.2671 -0.0183  0.2678
   19MOL0     C 2421   4.650  10.543   9.541  0.5804  0.1903 -0.7596
   19MOL0     C 2422   4.781  10.521   9.506  0.3079  0.1392  0.3399
   19MOL0     O 2423   5.040  10.640   9.599  0.3250  0.4118 -0.5104
   19MOL0     C 2424   5.292  10.613   9.467 -0.3094  0.0704  1.0687
   19MOL0     C 2425   5.423  10.580   9.425  0.7706 -0.5629 -0.6749
   19MOL0     N 2426   5.995  10.263   9.698 -0.1486 -1.0244 -0.6562
   19MOL0     N 2427   6.019  10.200   9.812 -0.1245 -0.3791  0.2128
   19MOL0     C 2428   7.076   9.753   9.546  1.1772  0.2699 -0.1743
   19MOL0     C 2429   7.178   9.664   9.537 -0.1583 -0.6403  0.5521
   19MOL0     C 2430   7.497   9.395   9.620 -0.0109  0.4574  0.9314
   19MOL0     C 2431   7.616   9.395   9.701 -0.0218  0.0733 -0.9707
   19MOL0     C 2432   7.728   9.307   9.681 -0.6505 -0.1512  0.4192
   19MOL0     C 2433   7.719   9.209   9.578 -0.4115 -0.0795 -0.1951
   19MOL0     O 2434   7.822   9.115   9.558 -0.2424 -0.1790  0.1362
   19MOL0     C 2435   7.940   9.121   9.640 -0.2288  0.1324  0.1842
   19MOL0     C 2436   8.027   8.999   9.626 -0.0943  0.3444 -0.5534
   19MOL0     C 2437   8.148   9.002   9.719 -0.4076 -0.0943  0.6984
   19MOL0     C 2438   8.207   8.859   9.737  0.3993  0.2675  0.0156
   19MOL0     C 2439   8.262   8.807   9.615 -0.4193  0.5156 -0.2547
   19MOL0     C 2440   8.307   8.773   9.505  0.1821  0.3861 -0.1976
   19MOL0     C 2441   7.600   9.206   9.495 -0.2220 -0.2291 -1.0500
   19MOL0     C 2442   7.502   9.306   9.512  0.2320 -0.0307  0.4678
   19MOL0     H 2443   7.091   9.434   9.761 -0.5354  0.5726  2.4391
   19MOL0     H 2444   6.891   9.605   9.787 -1.6127  2.1182 -0.3855
   19MOL0     H 2445   6.848   9.836   9.846 -1.4416  0.5505  1.6040
   19MOL0     H 2446   6.727   9.733   9.741  1.2650  0.2021 -2.2883
   19MOL0     H 2447   6.680   9.940   9.623  1.8722 -3.0232  0.2590
   19MOL0     H 2448   6.767  10.038   9.741  0.5275 -0.1519 -0.0399
   19MOL0     H 2449   6.623   9.950   9.930 -0.4248 -1.5273  0.1510
   19MOL0     H 2450   6.518   9.875   9.800  0.3895  0.5932 -2.3959
   19MOL0     H 2451   6.578  10.172   9.839 -0.4831  0.6782  1.7591
   19MOL0     H 2452   6.458  10.101   9.728  0.6405  0.5467  0.1523
   19MOL0     H 2453   6.455  10.115  10.044 -2.0820 -0.7011  1.6573
   19MOL0     H 2454   6.332  10.040   9.943 -1.3878  1.1744  1.4237
   19MOL0     H 2455   6.299  10.257   9.832  0.2274  2.6581  1.1801
   19MOL0     H 2456   6.430  10.322   9.923  1.1991 -1.3809 -0.0077
   19MOL0     H 2457   6.287  10.254  10.142 -2.8996 -0.5799  1.1522
   19MOL0     H 2458   6.260  10.408  10.058 -0.3945  0.2494 -1.6914
   19MOL0     H 2459   6.049  10.317  10.110 -1.9125 -2.3622 -0.2290
   19MOL0     H 2460   6.091  10.157  10.051 -1.3638 -0.2602 -1.1510
   19MOL0     H 2461   6.000  10.523   9.899  1.8326  0.7921 -0.9877
   19MOL0     H 2462   6.010  10.556   9.584 -0.4821  0.4450 -0.3477
   19MOL0     H 2463   5.878  10.579   9.687 -0.0023 -0.6717  0.2511
   19MOL0     H 2464   5.753  10.393   9.578  1.4756  0.2787  3.1150
   19MOL0     H 2465   5.890  10.363   9.459 -2.5431 -1.2710 -1.4101
   19MOL0     H 2466   5.713  10.621   9.486  0.1501  0.7830 -2.2009
   19MOL0     H 2467   5.857  10.604   9.393 -2.2608  3.7903  1.3298
   19MOL0     H 2468   5.750  10.451   9.246  2.4343  1.5189  0.7165
   19MOL0     H 2469   5.634  10.575   9.267 -0.7679  0.7991  1.6054
   19MOL0     H 2470   5.423  10.245   9.466 -1.7786 -1.2647  3.5728
   19MOL0     H 2471   5.189  10.291   9.550 -0.1274 -0.2426 -1.0031
   19MOL0     H 2472   4.886  10.355   9.790  0.0246 -1.2420 -0.8586
   19MOL0     H 2473   4.650  10.395   9.853 -0.8338 -0.8817 -0.3781
   19MOL0     H 2474   4.467  10.552   9.906  2.0596  0.9010 -2.6717
   19MOL0     H 2475   4.429  10.395   9.839 -0.8258 -0.2137 -0.6496
   19MOL0     H 2476   4.223  10.487   9.719 -0.3456  0.8586 -0.0861
   19MOL0     H 2477   4.263  10.648   9.779 -1.0025  0.1635  0.6269
   19MOL0     H 2478   4.267  10.539  10.005 -0.3260 -0.8751 -0.6200
   19MOL0     H 2479   4.203  10.386   9.936  1.1037  0.1775 -1.1296
   19MOL0     H 2480   4.081  10.655   9.889  1.0496  0.0629 -0.1691
   19MOL0     H 2481   4.001  10.500   9.850  1.5957 -1.4298  0.2815
   19MOL0     H 2482   3.907  10.616  10.054 -1.3578 -1.4640  1.7122
   19MOL0     H 2483   4.065  10.586  10.128  2.0785  1.0097 -1.6778
   19MOL0     H 2484   4.044  10.340  10.085  1.6684  2.5653  1.4719
   19MOL0     H 2485   3.890  10.348  10.014  2.1455 -1.7693  0.5316
   19MOL0     H 2486   3.932  10.469  10.281 -0.7066  2.6748 -2.7238
   19MOL0     H 2487   3.782  10.390  10.225  0.6503  2.8347 -3.4530
   19MOL0     H 2488   3.872  10.248  10.378 -0.2359 -0.6045  0.4880
   19MOL0     H 2489   4.030  10.228  10.286 -0.1423 -3.2267 -2.0766
   19MOL0     H 2490   4.580  10.584   9.469  1.4735 -1.7903 -2.8768
   19MOL0     H 2491   4.810  10.554   9.407  3.8441 -0.8904  0.8758
   19MOL0     H 2492   5.267  10.717   9.450  0.6221  0.5695  2.5219
   19MOL0     H 2493   5.488  10.662   9.395  1.1144 -0.5666  0.0310
   19MOL0     H 2494   7.061   9.843   9.488 -0.5037  0.1166 -0.0396
   19MOL0     H 2495   7.261   9.675   9.468 -0.6185 -0.0012  0.0969
   19MOL0     H 2496   7.630   9.462   9.785  0.7357 -3.3377  1.8563
   19MOL0     H 2497   7.822   9.331   9.730  0.6673 -0.3273 -1.8901
   19MOL0     H 2498   7.917   9.137   9.746  2.0680  2.1364  0.4622
   19MOL0     H 2499   7.997   9.209   9.611  2.7463 -1.7127 -0.0223
   19MOL0     H 2500   7.961   8.914   9.647 -2.7070  2.5874  0.9743
   19MOL0     H 2501   8.065   8.999   9.523 -0.7524 -0.1824 -0.8114
   19MOL0     H 2502   8.127   9.034   9.822  2.2088  1.5321  0.8147
   19MOL0     H 2503   8.220   9.074   9.680 -1.1371  0.2561 -0.0190
   19MOL0     H 2504   8.274   8.846   9.822 -1.5731 -2.5944  1.3033
   19MOL0     H 2505   8.129   8.788   9.767 -0.0868  0.6007 -0.4326
   19MOL0     H 2506   8.344   8.741   9.410  0.9680 -0.6813  0.4481
   19MOL0     H 2507   7.597   9.128   9.420 -2.9168 -0.5347 -0.7127
   19MOL0     H 2508   7.429   9.319   9.433  2.2724 -1.7188 -1.8669
   20MOL0     O 2509   4.999   4.359   8.358  0.5004  0.0212 -0.1092
   20MOL0     C 2510   4.988   4.474   8.409 -0.2750  0.0337  0.0871
   20MOL0     O 2511   5.065   4.522   8.515 -0.5905  0.0377 -0.9440
   20MOL0     C 2512   5.159   4.429   8.575  0.1175 -0.3175 -0.0886
   20MOL0     C 2513   5.246   4.344   8.509 -0.4514  0.2019  0.0424
   20MOL0     C 2514   5.344   4.267   8.576  0.1207 -0.7265  0.0668
   20MOL0     C 2515   5.360   4.270   8.714  0.4937 -0.4058  0.1489
   20MOL0     O 2516   5.443   4.203   8.791 -0.2236  0.3510  0.4423
   20MOL0     C 2517   5.583   4.212   8.750 -0.2973  0.2476 -0.5925
   20MOL0     C 2518   5.624   4.352   8.725 -0.7198 -0.2744  0.2053
   20MOL0     C 2519   5.779   4.362   8.716  0.2533  0.4573  0.0451
   20MOL0     C 2520   5.827   4.506   8.675  1.5969 -0.8600 -0.1271
   20MOL0     C 2521   5.979   4.511   8.691 -0.0382 -0.1751  0.4707
   20MOL0     C 2522   6.063   4.420   8.591 -0.2672  0.4909 -0.0987
   20MOL0     C 2523   6.033   4.442   8.444 -0.2246 -0.1045 -0.0506
   20MOL0     C 2524   6.136   4.370   8.351  0.4582  0.0291 -0.0626
   20MOL0     N 2525   6.101   4.417   8.218 -0.2348  0.0090  0.4167
   20MOL0     C 2526   6.000   4.361   8.142  0.3794  0.5023  0.3989
   20MOL0     C 2527   5.995   4.432   8.033  0.0235 -0.7829  0.1863
   20MOL0     C 2528   5.896   4.426   7.916 -0.3693 -0.0286 -0.5919
   20MOL0     C 2529   5.785   4.524   7.939 -0.4925 -0.2794 -0.5249
   20MOL0     C 2530   5.660   4.480   7.865  0.1147 -0.5392 -0.6133
   20MOL0     C 2531   5.597   4.340   7.908  0.5348 -0.7059  1.3087
   20MOL0     O 2532   5.492   4.316   7.808 -0.7917  0.3249 -0.5338
   20MOL0     C 2533   5.372   4.377   7.828  0.1229  0.4183 -0.2626
   20MOL0     C 2534   5.286   4.348   7.933 -0.3800 -0.2295  0.6826
   20MOL0     C 2535   5.155   4.405   7.935  0.1264  1.0010  0.5268
   20MOL0     C 2536   5.121   4.508   7.842  0.5646  0.0350 -0.3938
   20MOL0     C 2537   4.985   4.571   7.846 -0.1542  0.4965 -0.2900
   20MOL0     O 2538   4.955   4.665   7.756 -0.6519 -0.3652  0.2783
   20MOL0     C 2539   4.830   4.720   7.760  0.4202 -0.0343  0.1354
   20MOL0     C 2540   4.729   4.651   7.686  0.0468  0.2625  0.1155
   20MOL0     C 2541   4.589   4.683   7.701 -0.2105 -0.3567  0.3440
   20MOL0     C 2542   4.556   4.789   7.780  0.4237 -0.6427 -0.2261
   20MOL0     O 2543   4.420   4.824   7.784 -0.1533  0.6142 -0.5977
   20MOL0     C 2544   4.374   4.914   7.888 -0.3532 -0.5704  0.1724
   20MOL0     C 2545   4.226   4.953   7.866 -0.4347 -0.2525  0.7157
   20MOL0     C 2546   4.214   5.046   7.739  0.3255 -0.2495  0.4784
   20MOL0     C 2547   4.072   5.070   7.722 -0.2932  0.2520 -0.6473
   20MOL0     C 2548   4.017   5.197   7.800  0.8775 -0.9041 -0.4084
   20MOL0     C 2549   3.863   5.185   7.826 -0.3780 -1.2071  0.2123
   20MOL0     C 2550   3.805   5.313   7.904  0.8463  0.2989  0.2914
   20MOL0     C 2551   3.653   5.325   7.892  0.2124 -0.2166 -0.0324
   20MOL0    Cl 2552   3.596   5.480   7.965  0.1489 -0.2993 -0.4601
   20MOL0     C 2553   4.653   4.862   7.851  0.6064  0.3551 -0.5933
   20MOL0     C 2554   4.786   4.826   7.844  0.4806  0.4363 -0.1470
   20MOL0     O 2555   4.903   4.524   7.920 -0.4975  0.2330  0.1250
   20MOL0     C 2556   5.214   4.548   7.744  0.4040 -0.0179 -0.4443
   20MOL0     C 2557   5.335   4.484   7.740 -0.1994  0.0059 -0.1804
   20MOL0     N 2558   6.084   4.538   8.051 -0.6525  0.7060 -0.0545
   20MOL0     N 2559   6.153   4.520   8.156 -0.3463 -0.3940  0.6002
   20MOL0     C 2560   5.282   4.365   8.780 -0.8298 -0.7230 -0.7725
   20MOL0     C 2561   5.181   4.441   8.713 -0.2255  0.5356 -0.4809
   20MOL0     C 2562   4.856   4.543   8.382  0.5927 -1.0227  0.0626
   20MOL0     C 2563   4.827   4.665   8.444 -1.5317 -0.2822  0.2047
   20MOL0     C 2564   4.709   4.738   8.402 -0.7352  0.5856  0.1925
   20MOL0     C 2565   4.616   4.681   8.318  0.1789 -0.2352  0.3684
   20MOL0     O 2566   4.509   4.753   8.277 -0.2903 -0.1681  0.1809
   20MOL0     C 2567   4.439   4.815   8.388 -0.7188 -0.9102 -0.4105
   20MOL0     C 2568   4.299   4.833   8.343  0.8295 -0.3949  0.7165
   20MOL0     C 2569   4.199   4.883   8.445 -0.1005  0.1177  0.7790
   20MOL0     C 2570   4.056   4.893   8.378 -1.4148 -0.3168 -0.3485
   20MOL0     C 2571   4.038   4.989   8.275  0.0549  0.2853  0.1361
   20MOL0     C 2572   4.034   5.069   8.177  0.2552  1.3456 -0.5281
   20MOL0     C 2573   4.640   4.548   8.273  0.2494  0.0407  0.2001
   20MOL0     C 2574   4.761   4.489   8.287  0.1478  0.5089 -0.3758
   20MOL0     H 2575   5.251   4.334   8.401  1.2883  2.2720 -0.1354
   20MOL0     H 2576   5.420   4.215   8.518  0.0329  0.3752 -1.0892
   20MOL0     H 2577   5.597   4.172   8.649 -1.2265 -1.4751 -0.0939
   20MOL0     H 2578   5.644   4.153   8.819 -1.8466  0.7889  1.3412
   20MOL0     H 2579   5.582   4.423   8.797 -1.9950  4.1844 -4.3043
   20MOL0     H 2580   5.592   4.392   8.628  1.5671 -0.8127 -0.8552
   20MOL0     H 2581   5.802   4.285   8.642 -2.7852 -0.2335 -0.3223
   20MOL0     H 2582   5.810   4.337   8.818  0.8215  0.5292 -0.1078
   20MOL0     H 2583   5.793   4.531   8.574  1.9667 -2.4344 -0.6859
   20MOL0     H 2584   5.789   4.579   8.747  0.7629 -0.8404 -0.5830
   20MOL0     H 2585   6.009   4.483   8.793 -0.4988  1.9939  1.2420
   20MOL0     H 2586   6.016   4.613   8.675 -1.2395  0.2872  0.5386
   20MOL0     H 2587   6.036   4.317   8.616 -1.4322 -0.1264 -3.4184
   20MOL0     H 2588   6.170   4.428   8.612 -0.4436 -0.0002  1.0765
   20MOL0     H 2589   5.933   4.403   8.420 -1.6607  1.3843  2.9343
   20MOL0     H 2590   6.026   4.549   8.424 -1.0208 -0.0351  0.5051
   20MOL0     H 2591   6.121   4.263   8.368 -1.1025  0.6331  3.2255
   20MOL0     H 2592   6.236   4.403   8.378  0.1267  0.7262  0.3520
   20MOL0     H 2593   5.926   4.285   8.163 -0.7903  1.9024  1.4991
   20MOL0     H 2594   5.864   4.322   7.907  0.7225 -0.6314  1.6584
   20MOL0     H 2595   5.951   4.438   7.823  2.4708 -0.6177  0.8860
   20MOL0     H 2596   5.819   4.619   7.898 -2.7288  0.0257 -1.7983
   20MOL0     H 2597   5.769   4.528   8.047  1.8740 -4.7173  0.2406
   20MOL0     H 2598   5.586   4.559   7.882  1.2617  0.5611 -0.6003
   20MOL0     H 2599   5.674   4.477   7.757  0.2349 -1.7321 -0.5745
   20MOL0     H 2600   5.556   4.346   8.009  0.8943 -1.4099  1.5037
   20MOL0     H 2601   5.669   4.258   7.897 -1.2218 -2.0244 -1.6918
   20MOL0     H 2602   5.313   4.266   7.999 -1.6754 -0.8965  0.4250
   20MOL0     H 2603   5.087   4.355   8.003  0.1957  0.8046  0.4519
   20MOL0     H 2604   4.752   4.563   7.627 -0.5111 -0.4316  0.9107
   20MOL0     H 2605   4.525   4.627   7.634  0.9374  0.5720 -1.6121
   20MOL0     H 2606   4.435   5.002   7.907 -2.0801  0.5332  0.8781
   20MOL0     H 2607   4.373   4.853   7.979  0.2619 -0.4509  0.2635
   20MOL0     H 2608   4.185   5.001   7.955 -2.4478 -0.4347 -0.0719
   20MOL0     H 2609   4.170   4.860   7.851  1.1621 -1.6061  2.5910
   20MOL0     H 2610   4.249   5.004   7.644 -0.7345 -0.2167  0.0576
   20MOL0     H 2611   4.261   5.144   7.746  1.0310 -0.3424 -1.8723
   20MOL0     H 2612   4.058   5.090   7.615 -2.2244  0.0999 -0.4580
   20MOL0     H 2613   4.018   4.976   7.740  2.9605 -2.1479 -2.4308
   20MOL0     H 2614   4.033   5.287   7.739 -0.6566 -1.3610 -1.5395
   20MOL0     H 2615   4.075   5.218   7.890  1.6645  1.9680 -1.4589
   20MOL0     H 2616   3.841   5.093   7.880 -0.8084 -2.1308 -1.4647
   20MOL0     H 2617   3.815   5.181   7.728 -4.1486  1.0589  1.7253
   20MOL0     H 2618   3.826   5.305   8.011 -1.8009 -0.3366  0.8327
   20MOL0     H 2619   3.849   5.399   7.853 -0.2411 -0.3260 -1.7995
   20MOL0     H 2620   3.611   5.242   7.949 -1.6427  0.7029  0.0100
   20MOL0     H 2621   3.609   5.313   7.792  1.8373 -1.1105 -0.6809
   20MOL0     H 2622   4.631   4.955   7.903  2.0614  0.4579 -0.1053
   20MOL0     H 2623   4.847   4.887   7.911 -0.3297  1.1654 -0.0633
   20MOL0     H 2624   5.187   4.628   7.676 -2.0869  0.1997  0.7007
   20MOL0     H 2625   5.420   4.514   7.679  1.9474  0.7967  2.9448
   20MOL0     H 2626   5.301   4.387   8.885 -1.2617  2.6906 -1.3082
   20MOL0     H 2627   5.118   4.504   8.775  0.1855 -0.7127  1.2981
   20MOL0     H 2628   4.901   4.707   8.512  0.1361  1.5660 -2.5829
   20MOL0     H 2629   4.702   4.843   8.428  2.6003  0.9109  0.2353
   20MOL0     H 2630   4.485   4.909   8.421 -0.0233 -1.6712  0.8555
   20MOL0     H 2631   4.448   4.752   8.477 -0.5621 -1.8679 -1.0885
   20MOL0     H 2632   4.296   4.893   8.252  3.1117 -1.7419 -0.3165
   20MOL0     H 2633   4.262   4.734   8.313  0.3463  0.1003 -0.3369
   20MOL0     H 2634   4.235   4.977   8.487 -1.3017 -0.1840  2.6321
   20MOL0     H 2635   4.176   4.819   8.531 -1.0871 -0.2080  0.2867
   20MOL0     H 2636   4.030   4.795   8.337 -2.2274 -0.9805  1.6358
   20MOL0     H 2637   3.992   4.911   8.464  3.1084  1.9148  2.9582
   20MOL0     H 2638   4.031   5.147   8.103 -0.9899  0.6144 -1.2787
   20MOL0     H 2639   4.556   4.512   8.214  1.0346 -1.6192  0.0364
   20MOL0     H 2640   4.776   4.392   8.241  0.4133  0.5774 -0.4350
   21MOL0     O 2641   1.988   8.878   7.743 -0.0856  0.1309 -0.5239
   21MOL0     C 2642   1.990   8.787   7.660 -0.0960  0.7972 -0.4755
   21MOL0     O 2643   1.897   8.678   7.652  0.5996 -0.3793 -0.1984
   21MOL0     C 2644   1.802   8.660   7.751  0.7372 -0.5412 -0.0144
   21MOL0     C 2645   1.724   8.775   7.786  1.0081 -0.1544  0.6740
   21MOL0     C 2646   1.630   8.768   7.889 -0.2358  0.3952  0.3104
   21MOL0     C 2647   1.608   8.645   7.950 -0.5585 -0.0687  0.7008
   21MOL0     O 2648   1.517   8.615   8.046 -0.3274  0.6585 -0.2174
   21MOL0     C 2649   1.422   8.715   8.085  1.0146  0.3535  0.5715
   21MOL0     C 2650   1.480   8.788   8.203 -0.0945 -0.0826 -0.0462
   21MOL0     C 2651   1.380   8.893   8.263 -0.2298  0.0137  0.3450
   21MOL0     C 2652   1.243   8.822   8.298 -0.5168  0.7646  0.1090
   21MOL0     C 2653   1.165   8.897   8.407 -0.1463  0.1612  0.2274
   21MOL0     C 2654   1.060   8.806   8.467 -0.1598  0.0490  0.2107
   21MOL0     C 2655   1.024   8.841   8.609  1.1227 -0.1407  0.7572
   21MOL0     C 2656   0.964   8.720   8.686 -0.4806 -0.0738  0.2519
   21MOL0     N 2657   0.858   8.652   8.604  0.0452  0.4162  0.5126
   21MOL0     C 2658   0.874   8.525   8.548 -0.6501  0.3077  0.6768
   21MOL0     C 2659   0.747   8.477   8.539  0.4313 -0.9174  0.5382
   21MOL0     C 2660   0.689   8.341   8.498  0.5916  1.3946 -0.0129
   21MOL0     C 2661   0.669   8.342   8.348  0.2693  0.0434  0.6749
   21MOL0     C 2662   0.600   8.225   8.294  0.0398 -0.2635 -0.7044
   21MOL0     C 2663   0.684   8.095   8.302 -1.1143  1.0510 -0.0548
   21MOL0     O 2664   0.810   8.123   8.241  0.2394  0.2065  0.2974
   21MOL0     C 2665   0.917   8.033   8.240  0.3447  0.6774 -0.0561
   21MOL0     C 2666   1.039   8.068   8.185  0.1790  0.1857  0.0250
   21MOL0     C 2667   1.138   7.975   8.191 -0.3693  0.5647 -0.5789
   21MOL0     C 2668   1.115   7.839   8.237 -0.1399  0.5133  0.2390
   21MOL0     C 2669   1.225   7.744   8.225  1.0346 -0.9028  0.5934
   21MOL0     O 2670   1.210   7.621   8.289 -0.0051 -0.5168 -0.8420
   21MOL0     C 2671   1.332   7.564   8.296  0.3933 -0.0176  0.5188
   21MOL0     C 2672   1.372   7.463   8.214  0.3798  0.2937  0.7926
   21MOL0     C 2673   1.487   7.390   8.233  0.8585  0.3455  0.2132
   21MOL0     C 2674   1.571   7.413   8.343  0.0437  0.3053 -0.4917
   21MOL0     O 2675   1.690   7.342   8.364  0.0567  0.1078  0.0584
   21MOL0     C 2676   1.752   7.279   8.246  0.1072  0.2905 -0.2971
   21MOL0     C 2677   1.899   7.242   8.278 -0.3364  0.0245 -0.2511
   21MOL0     C 2678   1.973   7.370   8.322 -0.3711  0.1688  0.0458
   21MOL0     C 2679   2.121   7.341   8.358 -0.1336  0.0953 -0.2018
   21MOL0     C 2680   2.138   7.318   8.498  0.5301  0.7742 -0.1468
   21MOL0     C 2681   2.276   7.263   8.534 -0.3837  0.0913 -0.4545
   21MOL0     C 2682   2.315   7.245   8.684  0.4076  1.0420  0.6048
   21MOL0     C 2683   2.359   7.358   8.771  0.2074 -0.1084 -0.3200
   21MOL0    Cl 2684   2.532   7.391   8.731 -0.1277 -0.0154  0.1929
   21MOL0     C 2685   1.532   7.515   8.434 -0.8284 -0.3085 -0.4246
   21MOL0     C 2686   1.408   7.589   8.408 -0.5672  0.8715 -1.0582
   21MOL0     O 2687   1.313   7.776   8.147  0.5886 -0.0436 -0.3760
   21MOL0     C 2688   0.985   7.802   8.270  0.3011 -0.0334 -0.2119
   21MOL0     C 2689   0.896   7.901   8.283  0.3244 -0.7478  0.4343
   21MOL0     N 2690   0.658   8.581   8.556 -0.2683 -0.1570 -0.1840
   21MOL0     N 2691   0.726   8.683   8.604  0.7208  0.6935 -0.4213
   21MOL0     C 2692   1.668   8.528   7.903  0.6027 -0.6372 -0.5546
   21MOL0     C 2693   1.768   8.539   7.808 -0.5111  0.8756 -0.8204
   21MOL0     C 2694   2.089   8.800   7.557  0.5905 -0.2104 -0.4195
   21MOL0     C 2695   2.132   8.685   7.484  0.0060 -0.7131 -0.7356
   21MOL0     C 2696   2.208   8.699   7.365 -0.5350  0.5145  0.0875
   21MOL0     C 2697   2.250   8.826   7.324 -0.5060 -0.5854 -0.0780
   21MOL0     O 2698   2.322   8.844   7.209  0.6632 -0.8369 -1.0466
   21MOL0     C 2699   2.367   8.727   7.137  0.7968 -0.1297 -0.4743
   21MOL0     C 2700   2.487   8.666   7.208 -0.3581  0.0422 -1.1815
   21MOL0     C 2701   2.579   8.773   7.278 -0.6969 -0.1443 -0.1442
   21MOL0     C 2702   2.583   8.751   7.425 -0.2272 -0.1335  0.4063
   21MOL0     C 2703   2.658   8.635   7.464  0.2354  0.2856 -0.2333
   21MOL0     C 2704   2.718   8.529   7.482 -0.4367 -0.2073  0.3364
   21MOL0     C 2705   2.227   8.933   7.407  0.2446  0.1419  0.0865
   21MOL0     C 2706   2.138   8.923   7.519  0.0853 -0.4043  0.1420
   21MOL0     H 2707   1.740   8.874   7.744 -1.7762 -0.1733 -0.6184
   21MOL0     H 2708   1.594   8.865   7.923 -1.3598 -0.0361  0.3923
   21MOL0     H 2709   1.336   8.658   8.123  2.4375 -0.7502  2.2843
   21MOL0     H 2710   1.399   8.779   8.000  2.6016 -1.0042 -0.9578
   21MOL0     H 2711   1.573   8.838   8.173  0.5138 -0.4285  1.1836
   21MOL0     H 2712   1.511   8.720   8.283 -4.1120  1.9943  3.6931
   21MOL0     H 2713   1.359   8.964   8.182 -0.9073 -2.2539 -1.5633
   21MOL0     H 2714   1.421   8.960   8.340 -0.1730  0.1022  0.2393
   21MOL0     H 2715   1.178   8.824   8.210  0.2304 -0.3440 -0.4971
   21MOL0     H 2716   1.272   8.722   8.330  0.7101  1.5374  1.5497
   21MOL0     H 2717   1.106   8.981   8.368 -1.2737 -0.7968 -0.2312
   21MOL0     H 2718   1.239   8.936   8.477 -1.3878  2.5834  0.3087
   21MOL0     H 2719   1.087   8.701   8.460 -0.7642 -0.0051 -3.5746
   21MOL0     H 2720   0.970   8.808   8.403 -0.2770  4.7053  0.1260
   21MOL0     H 2721   1.115   8.876   8.659  2.1819 -0.6798 -0.7480
   21MOL0     H 2722   0.947   8.920   8.608  0.0871 -1.1229  0.2983
   21MOL0     H 2723   0.924   8.754   8.781  0.6462  2.9578 -0.2602
   21MOL0     H 2724   1.045   8.649   8.705 -0.7639 -0.3034  0.6129
   21MOL0     H 2725   0.961   8.461   8.536 -0.4898  0.6249  0.1508
   21MOL0     H 2726   0.591   8.334   8.547  1.4308 -1.5396  1.4426
   21MOL0     H 2727   0.743   8.255   8.536 -1.7599 -1.8531 -3.2980
   21MOL0     H 2728   0.767   8.366   8.305  0.7686  2.3426  2.8220
   21MOL0     H 2729   0.608   8.430   8.326 -0.8852 -1.0100 -0.4778
   21MOL0     H 2730   0.504   8.231   8.346  0.1843  3.0611 -0.5726
   21MOL0     H 2731   0.575   8.244   8.189 -2.0859  1.1664 -0.0312
   21MOL0     H 2732   0.635   8.021   8.238  0.1458  2.3539 -2.6674
   21MOL0     H 2733   0.697   8.058   8.404 -0.3395 -1.2005 -0.9193
   21MOL0     H 2734   1.063   8.167   8.147  0.6248  0.3897  0.8094
   21MOL0     H 2735   1.233   8.008   8.152  0.3672  1.2453  1.6405
   21MOL0     H 2736   1.316   7.423   8.129  1.3312 -0.3246  0.4362
   21MOL0     H 2737   1.516   7.310   8.165  2.9017  0.2341  1.1405
   21MOL0     H 2738   1.746   7.331   8.150  0.9673 -1.1611 -1.1762
   21MOL0     H 2739   1.698   7.189   8.215 -1.4036  1.3323 -0.8094
   21MOL0     H 2740   1.952   7.202   8.192  2.8036 -1.4130  2.1312
   21MOL0     H 2741   1.898   7.178   8.367 -3.4924 -1.6067 -1.3072
   21MOL0     H 2742   1.919   7.423   8.401 -0.0415  2.1012 -0.9480
   21MOL0     H 2743   1.971   7.437   8.235  0.8824  2.1047  1.4173
   21MOL0     H 2744   2.160   7.256   8.301  1.2472  1.6025 -1.6244
   21MOL0     H 2745   2.185   7.427   8.339 -0.1940  1.3297  4.2559
   21MOL0     H 2746   2.063   7.253   8.543  2.4961 -0.1894  1.8890
   21MOL0     H 2747   2.128   7.418   8.543 -1.9591  1.7840 -2.6144
   21MOL0     H 2748   2.355   7.330   8.499  0.0775  0.5021  1.2829
   21MOL0     H 2749   2.275   7.164   8.487 -0.3587 -0.4572  0.6569
   21MOL0     H 2750   2.238   7.196   8.744  0.3088 -2.5236 -2.0957
   21MOL0     H 2751   2.388   7.164   8.685 -1.7227 -1.0386 -0.8594
   21MOL0     H 2752   2.348   7.338   8.878  0.5880 -1.3212 -0.5011
   21MOL0     H 2753   2.294   7.444   8.751  1.9455  1.5512  0.8174
   21MOL0     H 2754   1.597   7.533   8.519  1.3712 -2.1272 -1.6123
   21MOL0     H 2755   1.381   7.666   8.479 -0.2888  2.3959 -2.5570
   21MOL0     H 2756   0.975   7.697   8.295  2.5323 -0.5141 -1.0820
   21MOL0     H 2757   0.797   7.874   8.317 -0.8735  0.4414 -1.8729
   21MOL0     H 2758   1.649   8.433   7.950  0.0095  0.3408  1.2623
   21MOL0     H 2759   1.825   8.452   7.778 -1.7155  0.1397 -1.0290
   21MOL0     H 2760   2.086   8.589   7.504 -0.6236  0.0876  2.0727
   21MOL0     H 2761   2.227   8.603   7.318 -0.9642  0.7327 -0.5505
   21MOL0     H 2762   2.393   8.765   7.037 -1.3986  0.1834 -0.9661
   21MOL0     H 2763   2.284   8.661   7.111 -1.4226  2.9745 -1.8369
   21MOL0     H 2764   2.446   8.610   7.292  0.1824  2.7756  1.0641
   21MOL0     H 2765   2.538   8.595   7.142  1.7761 -0.0604  0.4789
   21MOL0     H 2766   2.551   8.875   7.250  1.6371  0.1670 -1.6382
   21MOL0     H 2767   2.679   8.769   7.233 -1.2186  0.3924 -1.3943
   21MOL0     H 2768   2.638   8.832   7.473  1.5809 -1.4713  0.7159
   21MOL0     H 2769   2.485   8.747   7.472  0.1876  0.5136  1.3633
   21MOL0     H 2770   2.753   8.429   7.499  1.1022  0.2036 -0.2325
   21MOL0     H 2771   2.263   9.034   7.393 -1.0710  1.2601  3.4980
   21MOL0     H 2772   2.123   9.014   7.577 -0.3563  0.0443 -0.6660
   22MOL0     O 2773   6.078   1.001   3.356 -0.1352 -0.3837  0.3537
   22MOL0     C 2774   6.118   0.891   3.392 -0.8549 -0.1341  0.5688
   22MOL0     O 2775   6.038   0.797   3.458 -0.1108  0.0685  0.0632
   22MOL0     C 2776   5.901   0.815   3.475  0.0537 -0.3452 -0.2990
   22MOL0     C 2777   5.810   0.766   3.385  0.4581 -0.3810 -1.2798
   22MOL0     C 2778   5.678   0.792   3.393  0.4970 -0.1623  0.1098
   22MOL0     C 2779   5.623   0.853   3.517  0.3698 -0.0189 -0.2967
   22MOL0     O 2780   5.494   0.857   3.542 -0.0782 -0.0234 -0.4441
   22MOL0     C 2781   5.408   0.912   3.438  0.2721  0.2044  0.0633
   22MOL0     C 2782   5.262   0.873   3.455 -0.9167  0.5195  0.1178
   22MOL0     C 2783   5.176   0.967   3.367 -1.2370  0.4932  0.0531
   22MOL0     C 2784   5.028   0.937   3.355 -0.1057 -0.2237 -1.0349
   22MOL0     C 2785   4.963   0.911   3.497 -0.0836  0.3720 -0.6664
   22MOL0     C 2786   4.815   0.879   3.483  0.1458  0.1173  0.4944
   22MOL0     C 2787   4.747   0.858   3.614  0.9488  0.3724 -0.5531
   22MOL0     C 2788   4.594   0.863   3.606  0.8246 -0.6613 -0.2357
   22MOL0     N 2789   4.547   0.830   3.746 -0.1955 -0.0293  0.4043
   22MOL0     C 2790   4.548   0.913   3.853  0.0063  0.1429 -0.1892
   22MOL0     C 2791   4.484   0.839   3.952  0.4642 -0.6038  0.4882
   22MOL0     C 2792   4.477   0.888   4.098  0.4728  0.3870 -0.5759
   22MOL0     C 2793   4.363   0.982   4.107  0.5367  0.5948 -0.5658
   22MOL0     C 2794   4.223   0.916   4.098  0.7521  0.7577  0.2081
   22MOL0     C 2795   4.117   1.026   4.106 -0.3241  0.2700  1.2865
   22MOL0     O 2796   4.086   1.093   3.977  0.3236 -0.0384  0.7113
   22MOL0     C 2797   3.992   1.194   3.964  0.1357  0.4165 -0.7832
   22MOL0     C 2798   3.925   1.263   4.064 -0.2075  0.6009  0.2046
   22MOL0     C 2799   3.823   1.350   4.039 -0.2497 -0.2594 -0.2265
   22MOL0     C 2800   3.792   1.380   3.904 -1.1003  0.0545 -0.7009
   22MOL0     C 2801   3.690   1.485   3.872 -0.5412 -0.4886 -0.1035
   22MOL0     O 2802   3.645   1.543   3.988  0.4711  0.2485  0.0668
   22MOL0     C 2803   3.522   1.603   3.992  0.2829  0.0524 -0.3051
   22MOL0     C 2804   3.512   1.710   4.079 -0.1628 -0.5266 -0.4987
   22MOL0     C 2805   3.400   1.787   4.096  0.7263  0.2820  0.5239
   22MOL0     C 2806   3.284   1.760   4.016  0.1903 -0.4060  0.2406
   22MOL0     O 2807   3.182   1.850   4.030  0.4058 -0.0922  0.0135
   22MOL0     C 2808   3.045   1.827   3.974  1.0278  0.6106 -0.0306
   22MOL0     C 2809   2.957   1.726   4.057  0.0980 -0.2913  0.5015
   22MOL0     C 2810   2.809   1.706   4.004  0.3268  0.7545 -0.1179
   22MOL0     C 2811   2.714   1.832   4.034 -0.7159  0.3546  0.3699
   22MOL0     C 2812   2.568   1.806   4.012 -0.4765 -0.2499  0.6149
   22MOL0     C 2813   2.509   1.696   4.089  0.2108 -0.2994  0.0427
   22MOL0     C 2814   2.364   1.667   4.038  0.3003  0.5864  0.0043
   22MOL0     C 2815   2.258   1.755   4.103  0.1353  0.4303 -0.5501
   22MOL0    Cl 2816   2.088   1.726   4.030  0.5190 -0.0384  0.4011
   22MOL0     C 2817   3.286   1.644   3.936  0.2323  0.1664 -0.9959
   22MOL0     C 2818   3.406   1.563   3.933  0.1048 -0.9891 -0.0691
   22MOL0     O 2819   3.637   1.501   3.756  0.6396  0.1061 -0.1366
   22MOL0     C 2820   3.861   1.318   3.798  0.2096  0.4503 -0.0940
   22MOL0     C 2821   3.957   1.221   3.827 -0.7785 -0.0470 -0.2801
   22MOL0     N 2822   4.454   0.713   3.901  0.6313 -0.4593 -0.3932
   22MOL0     N 2823   4.501   0.704   3.780  0.9899 -0.1183  0.3783
   22MOL0     C 2824   5.720   0.912   3.600 -0.5724  0.7123 -0.0741
   22MOL0     C 2825   5.853   0.888   3.580  0.5059 -0.0733  1.1441
   22MOL0     C 2826   6.266   0.867   3.401 -1.3878 -0.1102  0.4568
   22MOL0     C 2827   6.345   0.984   3.418  0.3203  0.4659  1.1185
   22MOL0     C 2828   6.482   0.976   3.406 -0.4464  0.4955 -0.3546
   22MOL0     C 2829   6.542   0.850   3.401  0.1668  0.8786  0.1958
   22MOL0     O 2830   6.675   0.850   3.383  0.1071  0.6365 -0.6680
   22MOL0     C 2831   6.736   0.724   3.363  0.3541 -0.5133  0.2449
   22MOL0     C 2832   6.887   0.750   3.364 -0.2688 -0.3385 -0.1477
   22MOL0     C 2833   6.930   0.842   3.252 -0.4569  0.5194  0.4154
   22MOL0     C 2834   6.855   0.831   3.112 -0.1021  0.1520 -0.3245
   22MOL0     C 2835   6.893   0.706   3.043  0.1322  0.4813  0.4610
   22MOL0     C 2836   6.910   0.603   2.992  0.0462 -0.1357 -0.2277
   22MOL0     C 2837   6.464   0.735   3.397 -0.5364 -1.0832 -0.9624
   22MOL0     C 2838   6.326   0.743   3.391 -1.0648 -0.1761 -0.4139
   22MOL0     H 2839   5.851   0.706   3.304  3.6891  0.6031 -0.5218
   22MOL0     H 2840   5.616   0.755   3.312  1.3717 -1.2633 -0.0659
   22MOL0     H 2841   5.428   0.884   3.335  1.8093 -0.3040  0.4787
   22MOL0     H 2842   5.421   1.021   3.444  1.3368  0.2223 -2.0294
   22MOL0     H 2843   5.241   0.888   3.561  0.8514  0.7002  0.4751
   22MOL0     H 2844   5.237   0.771   3.425 -2.7800  1.0685 -0.3348
   22MOL0     H 2845   5.220   0.972   3.267  0.1385  1.0674  0.6592
   22MOL0     H 2846   5.179   1.069   3.407 -4.2036  2.0036 -2.9784
   22MOL0     H 2847   4.977   1.023   3.312  0.0247  0.9138  0.9748
   22MOL0     H 2848   5.026   0.847   3.292 -0.2523  0.1617 -1.5858
   22MOL0     H 2849   4.976   0.994   3.567 -1.2282 -1.8018  2.3543
   22MOL0     H 2850   5.014   0.834   3.557  3.2143  3.0265  0.2753
   22MOL0     H 2851   4.804   0.785   3.429  1.0559 -0.3163  1.0269
   22MOL0     H 2852   4.761   0.959   3.432 -1.2273 -1.5297 -0.7182
   22MOL0     H 2853   4.777   0.763   3.658  0.4309 -0.0025 -1.0000
   22MOL0     H 2854   4.777   0.939   3.682  1.2348 -1.7277  1.9769
   22MOL0     H 2855   4.547   0.795   3.535 -3.0671  1.5374 -0.0111
   22MOL0     H 2856   4.562   0.966   3.586  1.4345 -0.4804 -0.3039
   22MOL0     H 2857   4.577   1.017   3.850  1.5662 -0.2677 -0.4559
   22MOL0     H 2858   4.569   0.944   4.119  1.6903 -1.0176 -1.9377
   22MOL0     H 2859   4.469   0.812   4.176  1.5500  1.8056  0.9830
   22MOL0     H 2860   4.371   1.054   4.025 -3.7998  1.3363 -0.5983
   22MOL0     H 2861   4.366   1.043   4.198 -1.1714 -2.2998  1.6082
   22MOL0     H 2862   4.223   0.863   4.002  0.2449 -1.2681  1.2791
   22MOL0     H 2863   4.207   0.848   4.181  1.3013 -0.2543 -0.4995
   22MOL0     H 2864   4.170   1.104   4.162  1.1269 -0.3499  0.8085
   22MOL0     H 2865   4.032   0.980   4.158 -2.0096 -0.3500 -1.7561
   22MOL0     H 2866   3.943   1.233   4.167  1.6255 -3.8707 -1.1624
   22MOL0     H 2867   3.777   1.413   4.114  0.8585 -0.3850  0.5920
   22MOL0     H 2868   3.608   1.728   4.127 -1.5041 -0.6514  2.4572
   22MOL0     H 2869   3.384   1.869   4.167 -0.6590  0.1258  0.4304
   22MOL0     H 2870   3.051   1.804   3.867  0.3767 -1.3552  0.3053
   22MOL0     H 2871   2.999   1.926   3.974  0.2702  0.2705  0.1685
   22MOL0     H 2872   2.961   1.773   4.156  0.8394  3.1011 -1.0155
   22MOL0     H 2873   3.013   1.632   4.055  0.9893  0.2395  0.3140
   22MOL0     H 2874   2.775   1.630   4.075  0.2995  0.2067 -0.7159
   22MOL0     H 2875   2.815   1.673   3.900 -0.6127 -1.3039  0.4309
   22MOL0     H 2876   2.718   1.870   4.137 -3.6517 -0.6460  0.9698
   22MOL0     H 2877   2.739   1.915   3.967 -0.4519 -0.2257 -0.2586
   22MOL0     H 2878   2.570   1.783   3.905  1.2406  1.5596  0.1883
   22MOL0     H 2879   2.510   1.896   4.035 -2.4394 -1.7639  1.9008
   22MOL0     H 2880   2.513   1.716   4.197  0.2064 -2.5787  0.5141
   22MOL0     H 2881   2.568   1.605   4.072  0.4797  0.0031 -0.6753
   22MOL0     H 2882   2.370   1.671   3.929  3.9873  0.0061  0.0441
   22MOL0     H 2883   2.344   1.569   4.081 -0.2126 -0.1889 -1.9168
   22MOL0     H 2884   2.282   1.858   4.077  1.9304 -0.4950 -2.8995
   22MOL0     H 2885   2.278   1.758   4.211 -3.1554  2.1654  0.1601
   22MOL0     H 2886   3.194   1.615   3.887 -1.3882  0.4630  1.6911
   22MOL0     H 2887   3.410   1.470   3.875  1.5639 -0.8827 -0.1776
   22MOL0     H 2888   3.843   1.343   3.693 -1.0821  4.1322  0.8530
   22MOL0     H 2889   4.001   1.170   3.742  1.0270  1.9757 -0.6715
   22MOL0     H 2890   5.699   0.961   3.695  1.8426  1.1018  0.3207
   22MOL0     H 2891   5.920   0.939   3.649 -1.7736  3.5283  0.9198
   22MOL0     H 2892   6.305   1.084   3.434  3.5588  2.3381 -1.2081
   22MOL0     H 2893   6.541   1.067   3.415 -0.8402  0.6844  0.4046
   22MOL0     H 2894   6.686   0.673   3.280 -3.8719 -0.8590  2.7179
   22MOL0     H 2895   6.713   0.659   3.448  0.4128 -3.4563 -1.8381
   22MOL0     H 2896   6.914   0.797   3.459 -1.9496  0.2702  0.0741
   22MOL0     H 2897   6.944   0.657   3.358 -0.7891 -0.8211  1.6550
   22MOL0     H 2898   7.036   0.825   3.233 -0.5621  0.5842 -0.2320
   22MOL0     H 2899   6.927   0.949   3.278  0.6197  1.1536 -1.8907
   22MOL0     H 2900   6.748   0.833   3.132  0.4507  0.7577  3.4174
   22MOL0     H 2901   6.886   0.918   3.053 -1.2280 -0.2825 -1.6145
   22MOL0     H 2902   6.921   0.502   2.957  0.4302  0.4217 -1.8257
   22MOL0     H 2903   6.506   0.635   3.391 -1.0626 -1.2338 -2.6789
   22MOL0     H 2904   6.269   0.651   3.399  0.6216 -1.1914  0.5518
   23MOL0     O 2905   8.729   5.944   7.272  0.4024 -1.4594 -0.3845
   23MOL0     C 2906   8.775   5.839   7.247 -0.6238 -0.1005  0.2606
   23MOL0     O 2907   8.728   5.719   7.287  0.1572  0.1554 -0.5925
   23MOL0     C 2908   8.605   5.705   7.349 -0.2363 -0.0059  0.4115
   23MOL0     C 2909   8.516   5.610   7.301  0.4865  0.1302  0.4186
   23MOL0     C 2910   8.389   5.595   7.358 -0.1434 -1.3006 -0.2009
   23MOL0     C 2911   8.341   5.677   7.464 -0.3480  0.2763 -0.4075
   23MOL0     O 2912   8.209   5.665   7.509 -0.8209 -0.1988 -0.1189
   23MOL0     C 2913   8.136   5.780   7.550  0.1959 -0.3277 -0.3237
   23MOL0     C 2914   7.995   5.779   7.495  0.2277 -0.0625  0.0772
   23MOL0     C 2915   7.933   5.923   7.480  0.0431 -0.3805  0.9639
   23MOL0     C 2916   7.786   5.906   7.463  1.1577 -0.0527  0.2235
   23MOL0     C 2917   7.711   6.039   7.448  0.3871  0.2765 -0.7788
   23MOL0     C 2918   7.738   6.109   7.322  1.1825  0.7863  0.3446
   23MOL0     C 2919   7.618   6.199   7.272 -0.0210  1.4203  0.5070
   23MOL0     C 2920   7.662   6.282   7.151 -0.5752  0.5979  0.2151
   23MOL0     N 2921   7.546   6.358   7.097 -0.3314  0.9138  0.2003
   23MOL0     C 2922   7.467   6.315   6.991 -0.3638 -0.4165 -0.0716
   23MOL0     C 2923   7.429   6.433   6.939  0.5091 -0.4618  0.1343
   23MOL0     C 2924   7.342   6.454   6.828  0.2461  0.2206  0.3413
   23MOL0     C 2925   7.214   6.526   6.861  0.2770 -0.5196 -0.0093
   23MOL0     C 2926   7.109   6.504   6.750 -0.5927 -0.5813 -0.5554
   23MOL0     C 2927   6.978   6.576   6.792 -0.7214 -0.1531  0.2150
   23MOL0     O 2928   6.915   6.527   6.917  0.0928 -0.7261  0.2964
   23MOL0     C 2929   6.802   6.588   6.967  0.0112  0.7646 -1.1747
   23MOL0     C 2930   6.737   6.518   7.066  0.2338 -0.6604  0.0018
   23MOL0     C 2931   6.612   6.565   7.113 -0.8720  0.8076 -1.0005
   23MOL0     C 2932   6.556   6.689   7.073 -0.2586 -0.9288 -0.1248
   23MOL0     C 2933   6.427   6.750   7.104 -0.1351 -0.0813  0.6436
   23MOL0     O 2934   6.384   6.873   7.055 -1.1665 -0.1163 -0.1000
   23MOL0     C 2935   6.286   6.939   7.116  0.7013  0.2856  0.8803
   23MOL0     C 2936   6.328   7.031   7.212 -0.2490 -0.7668 -0.2232
   23MOL0     C 2937   6.236   7.123   7.268  0.1823  0.4231 -0.3743
   23MOL0     C 2938   6.107   7.118   7.217  1.2106  0.6963  0.4447
   23MOL0     O 2939   6.018   7.211   7.265  0.5508  0.2807 -0.0971
   23MOL0     C 2940   5.876   7.201   7.235 -0.4088  0.3431  0.4008
   23MOL0     C 2941   5.807   7.275   7.353  0.6286 -0.4216 -0.8270
   23MOL0     C 2942   5.655   7.240   7.362 -0.4457 -0.6687  0.3293
   23MOL0     C 2943   5.590   7.308   7.478 -0.1831 -0.9548  0.5230
   23MOL0     C 2944   5.442   7.274   7.494 -0.1739 -0.0114  0.6802
   23MOL0     C 2945   5.386   7.366   7.607 -0.8315  0.3875 -0.3195
   23MOL0     C 2946   5.237   7.349   7.636 -0.7543  0.4160 -0.2301
   23MOL0     C 2947   5.160   7.383   7.503 -0.1541  0.6572  0.8470
   23MOL0    Cl 2948   4.986   7.397   7.526 -0.1483 -0.0942  0.0059
   23MOL0     C 2949   6.072   7.025   7.125  0.5373 -0.2539  0.6457
   23MOL0     C 2950   6.160   6.937   7.064 -0.9493 -0.6071 -0.2319
   23MOL0     O 2951   6.368   6.686   7.191 -0.1722  0.5158  0.4228
   23MOL0     C 2952   6.633   6.766   6.980 -0.0026 -0.2387  0.2490
   23MOL0     C 2953   6.761   6.718   6.933  0.2486  0.3896  0.5870
   23MOL0     N 2954   7.469   6.537   7.019  0.5180  0.0174  0.3235
   23MOL0     N 2955   7.547   6.494   7.108  0.6726  0.5837 -0.1488
   23MOL0     C 2956   8.430   5.761   7.520  0.2784 -0.2192 -0.5166
   23MOL0     C 2957   8.562   5.782   7.465  0.8230 -0.3132 -0.0777
   23MOL0     C 2958   8.901   5.832   7.176  0.0671 -0.4211  0.2058
   23MOL0     C 2959   8.958   5.941   7.099 -0.9924 -0.4507 -0.2035
   23MOL0     C 2960   9.078   5.939   7.036 -0.1265 -0.1345 -0.7410
   23MOL0     C 2961   9.156   5.825   7.029  0.7116 -0.6535  0.1718
   23MOL0     O 2962   9.277   5.819   6.960 -0.1541  0.2045  0.4424
   23MOL0     C 2963   9.312   5.690   6.902 -0.7465 -0.2032  0.0283
   23MOL0     C 2964   9.460   5.695   6.837 -0.2780  1.1234  0.8245
   23MOL0     C 2965   9.490   5.577   6.729 -0.3625 -0.0336  0.5924
   23MOL0     C 2966   9.628   5.593   6.661 -0.0571 -0.5828 -0.1748
   23MOL0     C 2967   9.732   5.556   6.757 -0.9565  0.5466 -0.7422
   23MOL0     C 2968   9.830   5.526   6.827  0.9848 -0.6780  0.1776
   23MOL0     C 2969   9.099   5.708   7.101  0.1822  0.0043 -0.2756
   23MOL0     C 2970   8.977   5.718   7.169  0.2060  0.7513  0.5096
   23MOL0     H 2971   8.553   5.552   7.217 -0.2034 -0.2368  0.3552
   23MOL0     H 2972   8.324   5.530   7.300 -0.6116 -1.2292  0.2412
   23MOL0     H 2973   8.172   5.877   7.517  0.8980 -0.7752 -0.9022
   23MOL0     H 2974   8.149   5.788   7.659  0.8413  1.5611 -0.4999
   23MOL0     H 2975   7.927   5.721   7.559 -0.7556  0.7517 -0.2037
   23MOL0     H 2976   7.991   5.740   7.392 -2.5150 -0.7658  0.3509
   23MOL0     H 2977   7.973   5.977   7.394  1.4487  0.4336  2.0777
   23MOL0     H 2978   7.952   5.983   7.570  1.9489  1.9846 -0.8738
   23MOL0     H 2979   7.769   5.848   7.372 -0.1907 -1.0380  1.0788
   23MOL0     H 2980   7.744   5.852   7.548  0.5809  1.0796  0.6804
   23MOL0     H 2981   7.736   6.112   7.526  3.0134 -0.1293 -1.1442
   23MOL0     H 2982   7.606   6.014   7.465 -0.1143  3.2201  1.1744
   23MOL0     H 2983   7.737   6.042   7.235 -0.5937 -0.3904  1.1950
   23MOL0     H 2984   7.833   6.162   7.331  0.9246  1.6433 -1.4873
   23MOL0     H 2985   7.527   6.140   7.259  2.3450 -3.1175  2.1518
   23MOL0     H 2986   7.584   6.265   7.352  1.2263  2.4958  0.1876
   23MOL0     H 2987   7.703   6.219   7.072 -1.8613  0.1176 -0.0982
   23MOL0     H 2988   7.741   6.352   7.181  1.5097 -0.9487 -1.3867
   23MOL0     H 2989   7.440   6.214   6.962  0.6143 -0.6326 -0.2335
   23MOL0     H 2990   7.303   6.365   6.778 -0.9510  1.1332 -0.4356
   23MOL0     H 2991   7.408   6.507   6.759 -1.3930  1.1121 -0.6198
   23MOL0     H 2992   7.236   6.633   6.861  1.7249 -0.7525 -2.0085
   23MOL0     H 2993   7.175   6.492   6.958  0.5955  0.4615  0.4760
   23MOL0     H 2994   7.140   6.558   6.660  0.7800 -0.6617 -0.1542
   23MOL0     H 2995   7.093   6.397   6.741  3.0093 -1.4196  1.1723
   23MOL0     H 2996   6.916   6.576   6.702 -2.8817 -2.8005  1.5873
   23MOL0     H 2997   7.014   6.679   6.804  2.9563 -1.4385  1.3781
   23MOL0     H 2998   6.789   6.427   7.095 -1.9921 -2.2271 -0.5811
   23MOL0     H 2999   6.550   6.514   7.187 -0.5724  1.4265 -0.3119
   23MOL0     H 3000   6.431   7.036   7.246 -0.7303  0.0705  1.1796
   23MOL0     H 3001   6.259   7.199   7.343 -2.8265  0.1689  0.9503
   23MOL0     H 3002   5.831   7.101   7.229 -0.1909  0.0211  2.9539
   23MOL0     H 3003   5.836   7.260   7.152  0.0551 -0.0139 -0.0814
   23MOL0     H 3004   5.820   7.383   7.355  1.0961 -0.4610 -1.3639
   23MOL0     H 3005   5.849   7.224   7.440 -0.0516 -2.1457 -1.4637
   23MOL0     H 3006   5.657   7.131   7.372  1.1970 -0.9144 -1.8142
   23MOL0     H 3007   5.609   7.264   7.266  1.1550 -0.1825 -0.3507
   23MOL0     H 3008   5.638   7.287   7.574  0.0153 -0.0221  0.6381
   23MOL0     H 3009   5.585   7.415   7.457 -1.1442 -0.6218  2.2590
   23MOL0     H 3010   5.415   7.173   7.526 -3.3036  1.1143  1.9867
   23MOL0     H 3011   5.379   7.294   7.407 -1.7067 -2.5628  1.1075
   23MOL0     H 3012   5.407   7.472   7.590  2.1833  0.0644  0.7360
   23MOL0     H 3013   5.430   7.336   7.703  0.1055  0.5664 -0.6785
   23MOL0     H 3014   5.213   7.250   7.675  0.3699  1.1764  2.7411
   23MOL0     H 3015   5.207   7.420   7.714  1.4042 -1.3303  2.3653
   23MOL0     H 3016   5.170   7.302   7.430 -1.2845 -0.4667  1.8887
   23MOL0     H 3017   5.202   7.478   7.469  0.4205  0.1680  0.1732
   23MOL0     H 3018   5.968   7.017   7.092  0.9722 -0.4038 -0.7641
   23MOL0     H 3019   6.137   6.877   6.977 -0.8956  0.6055 -1.1090
   23MOL0     H 3020   6.604   6.869   6.962 -0.6034 -0.9624 -3.7023
   23MOL0     H 3021   6.819   6.789   6.874 -1.9200  0.4794 -1.5763
   23MOL0     H 3022   8.394   5.815   7.607 -0.3588 -0.7183 -0.4673
   23MOL0     H 3023   8.624   5.864   7.498 -1.3362  2.5316 -2.5222
   23MOL0     H 3024   8.905   6.035   7.109  0.3951  0.6731 -2.6399
   23MOL0     H 3025   9.101   6.032   6.985  2.4407  0.2024  0.8672
   23MOL0     H 3026   9.241   5.670   6.822 -0.5271 -0.2781 -0.1497
   23MOL0     H 3027   9.308   5.607   6.973 -0.2980  0.5146  0.9325
   23MOL0     H 3028   9.460   5.793   6.787 -0.2241  1.9936  2.4835
   23MOL0     H 3029   9.540   5.701   6.912 -0.2469  2.3473  0.7120
   23MOL0     H 3030   9.406   5.591   6.660 -0.5970  1.5066  1.1494
   23MOL0     H 3031   9.472   5.477   6.768 -1.0279 -0.0497  0.2662
   23MOL0     H 3032   9.625   5.537   6.567  2.8147 -0.6762 -0.3199
   23MOL0     H 3033   9.642   5.701   6.648  0.0138 -0.6939 -1.1406
   23MOL0     H 3034   9.908   5.501   6.896  1.3736  3.2729  1.4122
   23MOL0     H 3035   9.148   5.611   7.096  1.9876  0.8332  0.6613
   23MOL0     H 3036   8.949   5.621   7.208  2.3100 -0.0346  0.2068
   24MOL0     O 3037   2.507   8.060   1.701  0.6913 -0.1552 -0.1844
   24MOL0     C 3038   2.415   8.096   1.776  0.1100 -1.0123  0.0227
   24MOL0     O 3039   2.320   8.018   1.836 -0.2986  0.3961  0.5265
   24MOL0     C 3040   2.333   7.885   1.822 -0.3631  0.1477 -0.8972
   24MOL0     C 3041   2.449   7.813   1.852 -0.2094 -0.5553 -0.4963
   24MOL0     C 3042   2.458   7.670   1.848 -0.4891 -0.7206  0.7661
   24MOL0     C 3043   2.336   7.597   1.829  0.2625 -0.5637  0.0160
   24MOL0     O 3044   2.331   7.460   1.842  0.3481  0.0856 -0.2797
   24MOL0     C 3045   2.429   7.381   1.918  0.0045  0.8043  0.3714
   24MOL0     C 3046   2.524   7.318   1.809 -0.0131 -0.4308 -0.3711
   24MOL0     C 3047   2.452   7.219   1.726 -0.0139  0.3789  0.3600
   24MOL0     C 3048   2.528   7.123   1.638  0.1271 -0.0937  0.1167
   24MOL0     C 3049   2.424   7.061   1.542  0.2258  0.0908  0.4993
   24MOL0     C 3050   2.490   6.952   1.454 -0.7771  0.6587 -0.2772
   24MOL0     C 3051   2.386   6.851   1.397 -0.5085 -0.5269 -0.6256
   24MOL0     C 3052   2.298   6.915   1.285 -0.1913 -0.7263 -0.3909
   24MOL0     N 3053   2.238   6.815   1.191  0.7174  0.6162 -0.2851
   24MOL0     C 3054   2.163   6.704   1.228  0.9574 -0.2954  0.0535
   24MOL0     C 3055   2.126   6.648   1.113  0.2426  0.2324 -0.4023
   24MOL0     C 3056   2.037   6.531   1.076 -0.2440  0.1897  0.1600
   24MOL0     C 3057   1.898   6.567   1.093  0.7427 -0.0924  0.1033
   24MOL0     C 3058   1.816   6.456   1.051  0.7992  0.2654  0.5889
   24MOL0     C 3059   1.669   6.484   1.051  0.2751 -0.5240 -0.3316
   24MOL0     O 3060   1.606   6.513   1.185  0.6760 -0.1388  0.4800
   24MOL0     C 3061   1.475   6.542   1.174  0.4556  0.4199  0.2823
   24MOL0     C 3062   1.416   6.565   1.292  1.5983  0.2863  0.1859
   24MOL0     C 3063   1.282   6.603   1.294 -0.3825  1.0859 -0.7175
   24MOL0     C 3064   1.210   6.618   1.173  1.0255  1.2282 -0.2257
   24MOL0     C 3065   1.063   6.624   1.178 -0.0888 -0.4158  0.4438
   24MOL0     O 3066   1.002   6.647   1.297 -0.2965 -0.1211  0.2793
   24MOL0     C 3067   0.868   6.644   1.293 -0.1087 -0.2859  0.0891
   24MOL0     C 3068   0.799   6.760   1.339  0.6896  0.3778  0.3648
   24MOL0     C 3069   0.657   6.764   1.338 -0.1804 -0.0101  0.2754
   24MOL0     C 3070   0.584   6.640   1.313 -1.0007  0.7527 -0.5099
   24MOL0     O 3071   0.449   6.627   1.321  0.6752 -0.4346 -0.0782
   24MOL0     C 3072   0.388   6.736   1.385  0.6682 -0.8968  0.1768
   24MOL0     C 3073   0.243   6.698   1.424 -0.3576 -0.0525  0.3549
   24MOL0     C 3074   0.247   6.591   1.526 -0.5015 -0.2754  0.2766
   24MOL0     C 3075   0.106   6.568   1.575 -0.9347  0.1285  0.0547
   24MOL0     C 3076   0.098   6.450   1.674 -0.3193  0.7879 -0.1472
   24MOL0     C 3077  -0.041   6.408   1.722 -0.3347  0.1634  0.8042
   24MOL0     C 3078  -0.049   6.306   1.834 -0.0801 -0.7336  0.7745
   24MOL0     C 3079  -0.074   6.170   1.776 -0.4321 -0.6219 -0.9327
   24MOL0    Cl 3080   0.086   6.112   1.693  0.1055 -0.1463  0.5213
   24MOL0     C 3081   0.663   6.536   1.264 -0.1532 -0.1218 -0.2278
   24MOL0     C 3082   0.800   6.530   1.252  0.7762 -0.2070  0.3095
   24MOL0     O 3083   1.010   6.624   1.061  0.3132  0.4536  0.4443
   24MOL0     C 3084   1.278   6.611   1.052  0.1720 -0.4637 -0.3412
   24MOL0     C 3085   1.408   6.556   1.053 -0.3381  0.3028  0.4622
   24MOL0     N 3086   2.195   6.705   1.006  0.5654 -0.4635 -0.1472
   24MOL0     N 3087   2.263   6.802   1.056 -0.2924  0.9609 -0.4007
   24MOL0     C 3088   2.213   7.668   1.800 -0.3859 -0.3137  0.1398
   24MOL0     C 3089   2.220   7.810   1.794  0.2018 -0.3800 -0.5792
   24MOL0     C 3090   2.402   8.236   1.815  0.6894 -0.0837  0.0429
   24MOL0     C 3091   2.281   8.288   1.858  0.2667 -0.1711  0.2226
   24MOL0     C 3092   2.270   8.411   1.915  0.3236 -0.2377  0.7780
   24MOL0     C 3093   2.381   8.489   1.931 -0.2245  0.0536 -0.3445
   24MOL0     O 3094   2.383   8.608   2.003 -0.3867  0.4045  0.1300
   24MOL0     C 3095   2.267   8.684   2.036  0.4366  0.6489 -0.0389
   24MOL0     C 3096   2.203   8.633   2.169 -0.1509 -1.0153 -0.1813
   24MOL0     C 3097   2.180   8.758   2.266 -0.2861 -0.3045  0.5561
   24MOL0     C 3098   2.147   8.704   2.401  0.5672  0.2678 -0.0791
   24MOL0     C 3099   2.009   8.663   2.414  0.7523  0.3471 -0.4981
   24MOL0     C 3100   1.906   8.606   2.421 -0.0804  0.4417 -0.0798
   24MOL0     C 3101   2.505   8.448   1.874 -0.0746  0.2104 -0.3643
   24MOL0     C 3102   2.512   8.322   1.808 -0.0273  0.0166 -0.0529
   24MOL0     H 3103   2.540   7.870   1.871 -1.3159  0.5321  2.0729
   24MOL0     H 3104   2.554   7.622   1.862 -1.8407 -3.5408  1.1589
   24MOL0     H 3105   2.387   7.299   1.978  1.1636 -0.7490 -0.8505
   24MOL0     H 3106   2.493   7.444   1.980 -1.2689  2.1407  0.3950
   24MOL0     H 3107   2.599   7.261   1.866 -0.4766  0.6569  1.4230
   24MOL0     H 3108   2.565   7.398   1.746 -1.9622  0.4192 -0.6242
   24MOL0     H 3109   2.389   7.275   1.655  0.8455 -0.3761 -1.0423
   24MOL0     H 3110   2.389   7.158   1.791  0.8304  1.4916  2.3062
   24MOL0     H 3111   2.588   7.187   1.572 -0.3318  1.2032  0.9007
   24MOL0     H 3112   2.595   7.060   1.696  3.6137  2.5121 -0.7023
   24MOL0     H 3113   2.391   7.136   1.469 -0.1892 -3.3751 -3.2800
   24MOL0     H 3114   2.345   7.024   1.607  1.5088 -0.1750  1.9742
   24MOL0     H 3115   2.559   6.890   1.511 -2.2384 -1.2774 -0.5049
   24MOL0     H 3116   2.550   6.995   1.373  2.1863 -1.9080  0.3902
   24MOL0     H 3117   2.444   6.771   1.350  0.5285 -1.2233  1.6892
   24MOL0     H 3118   2.326   6.815   1.481 -2.4920  1.2830 -1.1979
   24MOL0     H 3119   2.359   6.988   1.232  0.3672  2.4441  4.1072
   24MOL0     H 3120   2.214   6.969   1.331  0.7655 -0.2678  0.8638
   24MOL0     H 3121   2.132   6.667   1.326  2.2666  0.4521  0.7692
   24MOL0     H 3122   2.050   6.452   1.149 -2.0831  1.4752  1.9744
   24MOL0     H 3123   2.063   6.491   0.977 -2.0864 -0.0985 -0.2466
   24MOL0     H 3124   1.885   6.646   1.018  1.8814 -1.1980 -1.3234
   24MOL0     H 3125   1.883   6.595   1.198 -0.1613 -0.7467  0.1536
   24MOL0     H 3126   1.842   6.414   0.953  0.2368  0.0693  0.5149
   24MOL0     H 3127   1.820   6.375   1.125  0.1977 -0.8124 -0.5047
   24MOL0     H 3128   1.639   6.390   1.005  0.6336 -1.4761  1.2701
   24MOL0     H 3129   1.655   6.562   0.977 -0.8226 -0.3880 -0.0019
   24MOL0     H 3130   1.468   6.566   1.387  3.7309  0.3927 -0.9207
   24MOL0     H 3131   1.234   6.620   1.390 -0.0492 -3.0013  0.3496
   24MOL0     H 3132   0.860   6.845   1.365  1.6227  0.0049 -0.5207
   24MOL0     H 3133   0.612   6.858   1.365  1.5812  0.8903  0.2160
   24MOL0     H 3134   0.374   6.813   1.309 -4.3837  0.8601  2.4778
   24MOL0     H 3135   0.439   6.773   1.475 -1.1152 -0.2458  0.9644
   24MOL0     H 3136   0.197   6.658   1.333  0.3095 -1.3617  0.5637
   24MOL0     H 3137   0.189   6.789   1.450  0.3532  0.2516  0.8073
   24MOL0     H 3138   0.305   6.619   1.615 -1.0591  0.0522  0.5409
   24MOL0     H 3139   0.276   6.497   1.477 -0.8409 -1.0070  1.4419
   24MOL0     H 3140   0.077   6.663   1.622  2.3227 -0.5418  4.0270
   24MOL0     H 3141   0.037   6.549   1.492 -1.2883 -1.6144  0.7093
   24MOL0     H 3142   0.156   6.480   1.762 -1.7713  1.8709  0.4890
   24MOL0     H 3143   0.149   6.368   1.623 -1.9480  0.6952 -1.7336
   24MOL0     H 3144  -0.098   6.369   1.638 -0.5359  0.5608  0.7499
   24MOL0     H 3145  -0.086   6.499   1.763  0.4212 -0.0131  2.1116
   24MOL0     H 3146   0.034   6.315   1.904 -1.4943 -0.3897  2.4736
   24MOL0     H 3147  -0.132   6.326   1.902 -1.8256  0.0956 -1.4605
   24MOL0     H 3148  -0.161   6.166   1.711  0.8355 -0.7543 -2.6992
   24MOL0     H 3149  -0.106   6.107   1.860  1.8148  0.7988  1.1410
   24MOL0     H 3150   0.617   6.444   1.230  0.9054 -1.1061  0.8770
   24MOL0     H 3151   0.845   6.442   1.206 -1.3832 -2.0922  1.6174
   24MOL0     H 3152   1.224   6.626   0.959  1.2959 -0.0464 -0.9477
   24MOL0     H 3153   1.455   6.544   0.956 -1.4833 -1.1058  0.0449
   24MOL0     H 3154   2.127   7.604   1.792  1.2069 -2.2955 -4.7097
   24MOL0     H 3155   2.129   7.866   1.775 -2.0150 -1.5528  4.6948
   24MOL0     H 3156   2.191   8.228   1.849  0.2679 -0.3114  1.0980
   24MOL0     H 3157   2.171   8.431   1.954  1.5221  1.2871  3.2847
   24MOL0     H 3158   2.182   8.668   1.969  1.0942 -1.2099 -0.4848
   24MOL0     H 3159   2.292   8.791   2.042  0.1489  1.0743 -3.8901
   24MOL0     H 3160   2.113   8.573   2.157  0.7790 -3.0870  2.1387
   24MOL0     H 3161   2.272   8.569   2.226 -0.7254 -2.4976 -1.0961
   24MOL0     H 3162   2.091   8.807   2.226 -1.2875 -1.7581  0.9239
   24MOL0     H 3163   2.263   8.829   2.271  0.3016 -0.8370 -0.9761
   24MOL0     H 3164   2.208   8.618   2.429 -0.2113  0.7983  3.7431
   24MOL0     H 3165   2.170   8.786   2.470  0.2876  1.2969 -1.1729
   24MOL0     H 3166   1.807   8.565   2.419  0.4554 -1.0333 -3.2977
   24MOL0     H 3167   2.588   8.517   1.878  1.6683 -1.7192 -1.3965
   24MOL0     H 3168   2.603   8.280   1.765 -1.5585 -4.1152  0.3729
   25MOL0     O 3169   5.497   9.887  10.096 -0.1814 -0.6479 -0.1403
   25MOL0     C 3170   5.576   9.836  10.011  0.3712  0.1422 -0.6578
   25MOL0     O 3171   5.688   9.887   9.972  0.2001  0.4263 -0.2344
   25MOL0     C 3172   5.710  10.017  10.018  0.1646  0.3824  0.4300
   25MOL0     C 3173   5.795  10.051  10.124 -0.4340  0.3284 -0.1854
   25MOL0     C 3174   5.811  10.181  10.161  0.4661  0.6209 -1.3571
   25MOL0     C 3175   5.746  10.283  10.099 -0.9472 -0.3079 -0.6839
   25MOL0     O 3176   5.763  10.405  10.154 -0.3518 -0.2735  0.0390
   25MOL0     C 3177   5.643  10.493  10.158  0.4431 -0.3122 -0.0089
   25MOL0     C 3178   5.544  10.441  10.270  0.1181 -0.8466 -0.4593
   25MOL0     C 3179   5.443  10.562  10.301  0.3498  0.2321 -0.0114
   25MOL0     C 3180   5.359  10.550  10.427 -0.1523 -0.1152 -0.5417
   25MOL0     C 3181   5.271  10.428  10.422  0.4633 -0.0945 -0.2537
   25MOL0     C 3182   5.169  10.430  10.535  0.4693 -0.4297  0.9414
   25MOL0     C 3183   5.032  10.486  10.497  0.0056  0.0284  0.3392
   25MOL0     C 3184   4.938  10.526  10.605  0.3385 -0.5344 -0.5599
   25MOL0     N 3185   4.829  10.617  10.560  0.1959  0.1458 -0.6088
   25MOL0     C 3186   4.826  10.747  10.573 -0.0019 -0.4488 -0.2643
   25MOL0     C 3187   4.709  10.782  10.522  0.3244 -0.4445 -0.9197
   25MOL0     C 3188   4.651  10.919  10.495 -0.0526 -0.1847  0.0054
   25MOL0     C 3189   4.588  10.976  10.625 -0.9800  0.7543 -0.5442
   25MOL0     C 3190   4.437  10.994  10.622 -0.8502 -0.3461  0.5512
   25MOL0     C 3191   4.377  10.859  10.588 -0.3262  0.6902 -0.4464
   25MOL0     O 3192   4.236  10.888  10.596  0.5938 -0.4337 -0.5207
   25MOL0     C 3193   4.161  10.880  10.711  0.7268 -0.3281  0.1643
   25MOL0     C 3194   4.016  10.878  10.691 -0.4226  0.3469 -0.4763
   25MOL0     C 3195   3.929  10.903  10.801 -0.0728 -0.7558 -0.4632
   25MOL0     C 3196   3.988  10.913  10.930 -0.1871 -0.0804 -0.5527
   25MOL0     C 3197   3.901  10.939  11.037  0.9308 -0.6061  0.0468
   25MOL0     O 3198   3.765  10.901  11.029  0.1786  0.4059 -0.1225
   25MOL0     C 3199   3.694  10.893  11.148 -0.8204  1.0745  0.6254
   25MOL0     C 3200   3.565  10.956  11.157  0.3212  0.0580  0.5438
   25MOL0     C 3201   3.484  10.941  11.262 -0.0495  0.3302 -0.2458
   25MOL0     C 3202   3.518  10.853  11.367  0.7624  1.1332 -0.0776
   25MOL0     O 3203   3.423  10.828  11.465 -0.6227 -0.4658  0.0298
   25MOL0     C 3204   3.468  10.763  11.587 -0.2995  0.3563  0.1918
   25MOL0     C 3205   3.358  10.725  11.682  0.1052 -0.3547 -0.0797
   25MOL0     C 3206   3.303  10.858  11.749  0.5448 -0.0026  0.6929
   25MOL0     C 3207   3.198  10.826  11.857  0.7410 -0.3883 -0.1748
   25MOL0     C 3208   3.168  10.948  11.942  0.5885 -0.0278  0.5361
   25MOL0     C 3209   3.046  11.011  11.891  0.2415  0.4043  0.2077
   25MOL0     C 3210   3.018  11.141  11.959  0.1458 -0.9127 -0.4285
   25MOL0     C 3211   2.913  11.223  11.876 -0.0875  0.2862 -0.7964
   25MOL0    Cl 3212   2.750  11.142  11.883  0.0234 -0.1473  0.7744
   25MOL0     C 3213   3.646  10.783  11.361 -0.0864  0.5468  0.2325
   25MOL0     C 3214   3.742  10.813  11.255  0.1283 -0.3081 -0.3625
   25MOL0     O 3215   3.952  11.002  11.126  0.1216  0.4527 -0.4715
   25MOL0     C 3216   4.127  10.898  10.951 -0.0584  0.1317  0.1943
   25MOL0     C 3217   4.212  10.895  10.840  0.2779  0.0259  0.4453
   25MOL0     N 3218   4.637  10.668  10.477  0.0144 -0.3093  0.1435
   25MOL0     N 3219   4.709  10.567  10.506 -0.6384  0.8221 -0.1252
   25MOL0     C 3220   5.651  10.257   9.999  0.3542 -0.0389  0.0017
   25MOL0     C 3221   5.643  10.123   9.956 -0.3660  0.4007  0.4912
   25MOL0     C 3222   5.535   9.707   9.964  0.3997 -0.1374  0.5972
   25MOL0     C 3223   5.406   9.656   9.979 -0.3403 -0.0630 -0.5461
   25MOL0     C 3224   5.367   9.539   9.916 -0.3149  0.1560  0.2535
   25MOL0     C 3225   5.464   9.468   9.843  0.6106  0.2404 -0.0261
   25MOL0     O 3226   5.430   9.343   9.796 -0.3053 -0.0459 -0.4772
   25MOL0     C 3227   5.529   9.259   9.722  0.1912  0.4520  0.7610
   25MOL0     C 3228   5.462   9.153   9.631  0.2830  0.4571  0.3647
   25MOL0     C 3229   5.561   9.109   9.514 -0.1459 -0.0709 -0.5993
   25MOL0     C 3230   5.493   9.017   9.413  0.0963 -0.0622 -0.5016
   25MOL0     C 3231   5.362   9.057   9.367 -0.8089 -0.1691 -0.4196
   25MOL0     C 3232   5.268   9.113   9.328  0.0814 -0.4288  0.8291
   25MOL0     C 3233   5.594   9.512   9.833 -0.5088  0.1799  0.4139
   25MOL0     C 3234   5.630   9.632   9.892 -0.1401 -0.1797 -0.9171
   25MOL0     H 3235   5.843   9.972  10.181  3.0832  0.9718 -1.9540
   25MOL0     H 3236   5.888  10.193  10.237 -0.5470 -1.4140  0.0771
   25MOL0     H 3237   5.592  10.492  10.061 -0.7261 -3.5323  0.5317
   25MOL0     H 3238   5.666  10.599  10.172 -1.8615 -0.0032  2.0430
   25MOL0     H 3239   5.601  10.420  10.362  1.8173 -0.0557 -1.2772
   25MOL0     H 3240   5.501  10.345  10.241  0.1583 -0.6321 -1.2537
   25MOL0     H 3241   5.373  10.571  10.218  0.5316 -0.3234 -0.2299
   25MOL0     H 3242   5.503  10.653  10.312  0.5765  0.0686  0.1080
   25MOL0     H 3243   5.426  10.528  10.511 -1.2275 -2.6129 -0.2449
   25MOL0     H 3244   5.315  10.649  10.438  0.4184  0.1749 -0.8487
   25MOL0     H 3245   5.322  10.332  10.438  1.2023  0.4908  1.0519
   25MOL0     H 3246   5.226  10.429  10.322  1.0926  0.8227 -0.5445
   25MOL0     H 3247   5.212  10.479  10.623 -0.5953  0.3507  1.0350
   25MOL0     H 3248   5.149  10.325  10.561  0.7641 -1.6568 -3.1248
   25MOL0     H 3249   5.048  10.567  10.426 -0.5087 -0.9848 -0.9877
   25MOL0     H 3250   4.981  10.419  10.426  1.1768  0.3525 -0.8386
   25MOL0     H 3251   4.995  10.567  10.688 -0.9257 -0.4218  0.2735
   25MOL0     H 3252   4.893  10.438  10.652 -0.3701  0.1467  0.0658
   25MOL0     H 3253   4.899  10.821  10.607 -1.3588  1.0933 -0.5634
   25MOL0     H 3254   4.582  10.916  10.410 -1.5992 -1.1551  1.2495
   25MOL0     H 3255   4.733  10.983  10.462  0.0100  0.7262  1.7801
   25MOL0     H 3256   4.636  11.073  10.640  1.5189  0.1767 -3.6959
   25MOL0     H 3257   4.610  10.912  10.711 -1.7376  1.4629  0.1994
   25MOL0     H 3258   4.395  11.042  10.711 -0.9985  4.1695 -1.6798
   25MOL0     H 3259   4.406  11.073  10.553 -3.8818 -0.9046  1.1302
   25MOL0     H 3260   4.406  10.779  10.655 -3.0319 -1.4500 -1.6290
   25MOL0     H 3261   4.412  10.807  10.498 -0.5273 -0.6180  0.2081
   25MOL0     H 3262   3.974  10.881  10.591 -1.1301 -0.4104 -0.2174
   25MOL0     H 3263   3.822  10.922  10.795  0.2049  0.5586 -1.8236
   25MOL0     H 3264   3.551  11.013  11.066  0.6467  1.2144  1.2093
   25MOL0     H 3265   3.393  10.998  11.273 -1.0159 -1.0489 -0.8406
   25MOL0     H 3266   3.546  10.811  11.647 -0.1686  0.8978 -0.3974
   25MOL0     H 3267   3.511  10.669  11.552 -0.7740  0.2857 -0.2175
   25MOL0     H 3268   3.402  10.664  11.761  1.8307  2.0932  0.9899
   25MOL0     H 3269   3.273  10.670  11.641  0.8501 -2.3100  0.8761
   25MOL0     H 3270   3.272  10.925  11.668 -0.2522 -0.1595  0.8689
   25MOL0     H 3271   3.392  10.901  11.797  0.0157 -1.3123  2.9828
   25MOL0     H 3272   3.102  10.786  11.826  0.1289  0.7643  0.1778
   25MOL0     H 3273   3.245  10.746  11.914  1.6965 -1.0238 -1.7865
   25MOL0     H 3274   3.251  11.019  11.937 -0.7303  1.5527  0.6238
   25MOL0     H 3275   3.159  10.920  12.048 -1.7707  0.7214  0.5803
   25MOL0     H 3276   2.961  10.945  11.908 -2.1231  2.8082 -1.4632
   25MOL0     H 3277   3.051  11.017  11.781  0.1455  0.0236  0.1783
   25MOL0     H 3278   2.985  11.135  12.063  1.4256  1.6695  0.2172
   25MOL0     H 3279   3.105  11.207  11.964 -1.5447  1.3315  1.3681
   25MOL0     H 3280   2.949  11.231  11.774 -2.2748 -0.8245 -1.7320
   25MOL0     H 3281   2.903  11.319  11.929 -2.1445 -1.4367  2.2767
   25MOL0     H 3282   3.667  10.698  11.426  0.0027  2.2204  2.4870
   25MOL0     H 3283   3.827  10.747  11.239 -2.2483 -2.9423 -3.8261
   25MOL0     H 3284   4.174  10.899  11.048  1.8979  1.0994 -0.7064
   25MOL0     H 3285   4.318  10.900  10.863  0.6540 -3.1358 -0.1585
   25MOL0     H 3286   5.585  10.331   9.954 -2.2342 -0.8606  2.1337
   25MOL0     H 3287   5.584  10.095   9.869  1.8856 -0.7414 -0.7668
   25MOL0     H 3288   5.328   9.703  10.037  1.8033  1.2281  1.4672
   25MOL0     H 3289   5.267   9.505   9.943 -0.3778  0.3997  0.3341
   25MOL0     H 3290   5.597   9.197   9.782 -0.6789 -0.9275  0.3761
   25MOL0     H 3291   5.593   9.321   9.659  1.2190  0.1066  1.4376
   25MOL0     H 3292   5.440   9.068   9.695 -0.4813 -0.8464 -1.5380
   25MOL0     H 3293   5.360   9.168   9.595  0.2163  0.2487  0.4672
   25MOL0     H 3294   5.648   9.064   9.563 -1.0796  1.9080  3.3335
   25MOL0     H 3295   5.597   9.197   9.461 -0.3108  0.3886  0.0334
   25MOL0     H 3296   5.562   9.032   9.330  2.1066 -0.3873  1.0293
   25MOL0     H 3297   5.494   8.911   9.440 -2.7628 -0.0193  0.0830
   25MOL0     H 3298   5.183   9.169   9.296  1.3616  1.0600 -0.1541
   25MOL0     H 3299   5.664   9.459   9.770  0.2593  2.3887 -0.6823
   25MOL0     H 3300   5.733   9.665   9.893  0.0847 -0.8562 -1.2220
   26MOL0     O 3301   3.534   8.946   0.197 -0.0761  0.3920 -0.7028
   26MOL0     C 3302   3.540   8.871   0.103  0.6607  0.2791  0.1998
   26MOL0     O 3303   3.437   8.833   0.021  0.9637  0.1723  0.6417
   26MOL0     C 3304   3.303   8.852   0.065  0.7189  0.9796  0.1439
   26MOL0     C 3305   3.255   8.781   0.181  0.8953 -0.4253  0.5840
   26MOL0     C 3306   3.131   8.806   0.233 -0.1747  0.0925 -0.8365
   26MOL0     C 3307   3.050   8.897   0.172  0.5981 -0.3268 -0.0074
   26MOL0     O 3308   2.917   8.897   0.207  0.1908 -0.2183 -0.4276
   26MOL0     C 3309   2.892   8.929   0.349  0.0114 -0.2527  0.6608
   26MOL0     C 3310   2.748   8.884   0.392  0.4136 -0.0869 -0.4887
   26MOL0     C 3311   2.733   8.729   0.388 -0.7729 -0.0022 -0.0670
   26MOL0     C 3312   2.617   8.668   0.460  0.0920 -0.2319 -1.1064
   26MOL0     C 3313   2.483   8.714   0.406 -0.1883  1.3147 -0.5485
   26MOL0     C 3314   2.443   8.674   0.261  0.7091  0.6568  0.3691
   26MOL0     C 3315   2.287   8.694   0.232  0.1100 -0.2841 -0.6589
   26MOL0     C 3316   2.263   8.661   0.085  0.1472 -0.9318  0.5178
   26MOL0     N 3317   2.125   8.692   0.060 -0.3562  0.0944  0.4474
   26MOL0     C 3318   2.076   8.766  -0.042 -0.4139 -0.0541  0.9002
   26MOL0     C 3319   1.946   8.745  -0.049  0.3069  0.3371  0.2601
   26MOL0     C 3320   1.855   8.809  -0.149 -0.1684  0.2649 -0.0277
   26MOL0     C 3321   1.732   8.717  -0.191 -0.4560 -0.2481 -0.2647
   26MOL0     C 3322   1.616   8.789  -0.254 -0.6984 -0.1586  0.2819
   26MOL0     C 3323   1.480   8.718  -0.250  0.8887 -0.4128  1.0100
   26MOL0     O 3324   1.407   8.796  -0.340  0.4341 -0.0947 -0.1915
   26MOL0     C 3325   1.279   8.764  -0.386 -0.4898  0.9220  0.9530
   26MOL0     C 3326   1.232   8.839  -0.488  0.5209  0.0729 -0.3527
   26MOL0     C 3327   1.111   8.808  -0.556 -0.0090  0.4505 -0.0005
   26MOL0     C 3328   1.043   8.693  -0.518  0.0838  0.5849 -0.1451
   26MOL0     C 3329   0.900   8.669  -0.570 -0.5131 -0.4031 -0.6786
   26MOL0     O 3330   0.846   8.549  -0.546  0.0061  0.1668 -0.3802
   26MOL0     C 3331   0.715   8.535  -0.594  0.2445  0.7389 -0.1055
   26MOL0     C 3332   0.695   8.448  -0.698 -0.0009  0.8379  0.2221
   26MOL0     C 3333   0.570   8.438  -0.767 -0.6313 -0.2978 -1.5714
   26MOL0     C 3334   0.464   8.502  -0.713  0.3588 -0.3521 -1.0764
   26MOL0     O 3335   0.346   8.509  -0.782 -0.1775 -0.3894 -0.0572
   26MOL0     C 3336   0.285   8.381  -0.826 -0.1378 -0.1925 -0.3441
   26MOL0     C 3337   0.144   8.405  -0.883  0.1091  0.0489 -0.2774
   26MOL0     C 3338   0.048   8.287  -0.848  0.2488  0.0856 -0.1152
   26MOL0     C 3339  -0.095   8.310  -0.905 -0.4217 -0.0768  0.8097
   26MOL0     C 3340  -0.105   8.274  -1.059 -0.3799 -0.2170 -0.1707
   26MOL0     C 3341  -0.058   8.135  -1.101  0.2632 -0.4513 -0.4694
   26MOL0     C 3342  -0.138   8.092  -1.222  0.2704  0.0198 -0.6202
   26MOL0     C 3343  -0.126   7.940  -1.242 -0.5733 -0.3948 -0.2228
   26MOL0    Cl 3344   0.048   7.894  -1.249 -0.3685  0.1638 -0.0292
   26MOL0     C 3345   0.481   8.577  -0.595 -0.3460 -0.2461  0.8570
   26MOL0     C 3346   0.605   8.603  -0.538 -0.4744 -0.3516  0.6749
   26MOL0     O 3347   0.839   8.766  -0.613  0.0907  0.6474 -0.1841
   26MOL0     C 3348   1.090   8.620  -0.408 -0.0789 -0.6417 -0.7014
   26MOL0     C 3349   1.205   8.659  -0.341  0.3706  0.1999 -0.9281
   26MOL0     N 3350   1.905   8.676   0.063  0.1335  0.0359  0.1462
   26MOL0     N 3351   2.011   8.644   0.132  0.0526 -0.5296 -0.0717
   26MOL0     C 3352   3.090   8.963   0.055  0.0864 -0.1668 -0.0105
   26MOL0     C 3353   3.225   8.946   0.001  0.1845 -0.2374 -0.2710
   26MOL0     C 3354   3.669   8.830   0.055 -0.5490  0.8447 -1.1364
   26MOL0     C 3355   3.791   8.897   0.080 -0.0521 -0.2451 -0.3098
   26MOL0     C 3356   3.910   8.840   0.042 -0.8341 -0.7583 -0.7500
   26MOL0     C 3357   3.919   8.715  -0.022 -0.2071 -0.1747 -0.3904
   26MOL0     O 3358   4.045   8.676  -0.046  0.0621 -0.5408 -0.5297
   26MOL0     C 3359   4.070   8.545  -0.085 -0.4978 -0.2798 -0.3916
   26MOL0     C 3360   4.214   8.515  -0.132 -0.0691 -0.4621 -0.6448
   26MOL0     C 3361   4.247   8.368  -0.155 -0.7061  0.2342  0.4170
   26MOL0     C 3362   4.353   8.354  -0.262 -0.3470 -0.0365  0.3753
   26MOL0     C 3363   4.310   8.384  -0.398  0.2967 -0.2824 -0.0970
   26MOL0     C 3364   4.263   8.410  -0.508  0.0997 -0.3744  0.3538
   26MOL0     C 3365   3.793   8.656  -0.059 -0.1868 -0.4044  0.3646
   26MOL0     C 3366   3.674   8.715  -0.022  0.0207 -0.2935  0.1174
   26MOL0     H 3367   3.314   8.713   0.241  1.3800  0.4316  1.1018
   26MOL0     H 3368   3.105   8.743   0.317  0.4885  1.4077  0.4116
   26MOL0     H 3369   2.906   9.036   0.369  2.6004 -0.2262 -0.7745
   26MOL0     H 3370   2.958   8.877   0.419  1.7216  0.4999 -0.3077
   26MOL0     H 3371   2.672   8.915   0.319 -1.1562  1.1366  1.5728
   26MOL0     H 3372   2.706   8.930   0.482 -1.8924 -0.5714 -1.2620
   26MOL0     H 3373   2.826   8.693   0.432  0.5555  1.8015 -1.2392
   26MOL0     H 3374   2.731   8.715   0.279  0.0905  0.1181 -0.1099
   26MOL0     H 3375   2.619   8.559   0.454  2.1446 -0.1605 -3.0941
   26MOL0     H 3376   2.622   8.701   0.564  2.9140 -2.3415 -0.4633
   26MOL0     H 3377   2.481   8.823   0.414  1.7193  1.5616 -2.5422
   26MOL0     H 3378   2.409   8.683   0.481  1.0354  1.2039  0.6432
   26MOL0     H 3379   2.473   8.570   0.246 -0.0194  0.4286  0.4553
   26MOL0     H 3380   2.496   8.734   0.187 -0.2361 -0.1690 -1.0313
   26MOL0     H 3381   2.221   8.639   0.299  0.6008 -0.4426 -0.2982
   26MOL0     H 3382   2.261   8.799   0.249 -0.6295 -0.6594  0.6919
   26MOL0     H 3383   2.287   8.559   0.054 -0.8280 -0.3765 -2.3847
   26MOL0     H 3384   2.316   8.734   0.023  2.5524 -0.3228  3.1132
   26MOL0     H 3385   2.118   8.838  -0.112  0.2481 -0.7965  0.5179
   26MOL0     H 3386   1.911   8.832  -0.240 -1.2724  1.3798 -0.4620
   26MOL0     H 3387   1.823   8.899  -0.097 -0.1069 -0.4050  1.1944
   26MOL0     H 3388   1.707   8.645  -0.113 -0.2673  0.3122  0.3234
   26MOL0     H 3389   1.783   8.648  -0.259  2.9160  0.7742  1.0094
   26MOL0     H 3390   1.605   8.887  -0.207 -2.2536 -0.3692  0.4238
   26MOL0     H 3391   1.644   8.810  -0.358 -2.1293 -3.2792 -0.8588
   26MOL0     H 3392   1.437   8.715  -0.149  0.7021  1.2734  1.0076
   26MOL0     H 3393   1.489   8.618  -0.293  1.6153  0.3223 -0.6371
   26MOL0     H 3394   1.301   8.919  -0.513  0.6210  0.1021  0.0102
   26MOL0     H 3395   1.082   8.878  -0.635 -0.7847  0.4342  0.2624
   26MOL0     H 3396   0.778   8.389  -0.734 -0.1983  0.7136 -0.0365
   26MOL0     H 3397   0.555   8.352  -0.832 -0.6121 -1.4738 -0.0883
   26MOL0     H 3398   0.280   8.304  -0.748  3.0007 -1.3656 -1.1292
   26MOL0     H 3399   0.354   8.339  -0.901  0.0101 -0.3764 -0.1063
   26MOL0     H 3400   0.150   8.415  -0.992 -2.1853  1.1168 -0.3415
   26MOL0     H 3401   0.105   8.494  -0.834  1.0829  0.1629  0.3292
   26MOL0     H 3402   0.048   8.289  -0.738  2.7017 -0.6486 -0.0275
   26MOL0     H 3403   0.097   8.192  -0.872  3.2894  0.7352  2.6797
   26MOL0     H 3404  -0.156   8.232  -0.857  0.4042 -0.5853  1.0603
   26MOL0     H 3405  -0.120   8.414  -0.882  1.0456  0.3507  0.5866
   26MOL0     H 3406  -0.060   8.350  -1.122 -0.1259 -0.9698 -0.9230
   26MOL0     H 3407  -0.211   8.292  -1.081 -0.7167  0.4695  1.7669
   26MOL0     H 3408  -0.077   8.065  -1.019 -0.3008 -1.4934 -1.4587
   26MOL0     H 3409   0.050   8.131  -1.115  0.5997 -2.4131  1.9961
   26MOL0     H 3410  -0.243   8.112  -1.201  0.5308  0.3170  0.4272
   26MOL0     H 3411  -0.098   8.132  -1.316  0.1755  0.4154 -0.4913
   26MOL0     H 3412  -0.173   7.914  -1.337  0.1986  0.8852 -0.9904
   26MOL0     H 3413  -0.165   7.880  -1.159 -1.1928  2.3003  1.5709
   26MOL0     H 3414   0.397   8.626  -0.546  0.6578  3.2716 -0.5649
   26MOL0     H 3415   0.625   8.675  -0.460  1.9364 -0.6950  0.4531
   26MOL0     H 3416   1.035   8.531  -0.380  2.7651 -2.5058 -0.7162
   26MOL0     H 3417   1.242   8.602  -0.256 -1.0120  0.8094  0.1134
   26MOL0     H 3418   3.017   9.027   0.008 -0.2926 -2.2190 -2.4028
   26MOL0     H 3419   3.273   9.006  -0.076  1.1396 -1.9343 -1.0558
   26MOL0     H 3420   3.788   8.991   0.134 -3.4639 -0.5110  0.2068
   26MOL0     H 3421   4.004   8.885   0.071 -1.6270 -0.4437  1.5951
   26MOL0     H 3422   4.005   8.518  -0.169 -0.1126 -2.2012 -0.1265
   26MOL0     H 3423   4.041   8.481  -0.001 -0.3864 -2.9198 -2.2272
   26MOL0     H 3424   4.232   8.580  -0.218 -0.8198  2.4826  1.2596
   26MOL0     H 3425   4.294   8.547  -0.064  1.4297  2.5584 -3.5260
   26MOL0     H 3426   4.164   8.304  -0.187  1.4860 -2.2655 -0.6483
   26MOL0     H 3427   4.280   8.331  -0.058  1.3536  0.2797 -0.2224
   26MOL0     H 3428   4.441   8.417  -0.246 -0.6075  0.6725 -0.9075
   26MOL0     H 3429   4.379   8.247  -0.262 -0.1012 -0.0136  1.9065
   26MOL0     H 3430   4.246   8.420  -0.614  1.6622 -5.2366 -0.6007
   26MOL0     H 3431   3.794   8.565  -0.118  0.9779 -0.7207  0.8335
   26MOL0     H 3432   3.582   8.664  -0.046  0.1994 -2.5335  3.4976
   27MOL0     O 3433   1.981   0.378   3.878 -0.0504  0.0413 -0.0386
   27MOL0     C 3434   1.994   0.262   3.837 -0.7043 -0.1305  0.6644
   27MOL0     O 3435   2.090   0.171   3.877  0.2800 -0.4056 -0.6698
   27MOL0     C 3436   2.208   0.215   3.932 -0.4321  0.3000 -0.5936
   27MOL0     C 3437   2.285   0.324   3.883  0.2704  0.6173  1.2279
   27MOL0     C 3438   2.401   0.360   3.941  0.7503 -0.2046 -0.3549
   27MOL0     C 3439   2.456   0.300   4.054 -0.3472 -0.4847  0.2918
   27MOL0     O 3440   2.567   0.356   4.105  0.0203  0.3086  0.2875
   27MOL0     C 3441   2.670   0.262   4.150  0.1278  0.5759  0.4018
   27MOL0     C 3442   2.787   0.284   4.053  0.4854  0.1190  0.2004
   27MOL0     C 3443   2.909   0.217   4.109 -0.5485  0.1849  0.2941
   27MOL0     C 3444   3.042   0.258   4.045  0.5500  0.1221 -0.4615
   27MOL0     C 3445   3.152   0.264   4.149  0.0716  0.2563 -0.5583
   27MOL0     C 3446   3.197   0.128   4.202  0.7841  1.0534 -0.0059
   27MOL0     C 3447   3.318   0.130   4.289 -0.0975  0.0013 -1.0106
   27MOL0     C 3448   3.344  -0.015   4.337 -0.5814 -0.7938  0.3115
   27MOL0     N 3449   3.232  -0.074   4.398  0.3964  0.1438  0.6477
   27MOL0     C 3450   3.170  -0.048   4.517  0.6943  0.5227 -0.2739
   27MOL0     C 3451   3.049  -0.116   4.511 -0.0948 -0.4292 -0.3701
   27MOL0     C 3452   2.940  -0.098   4.606  0.1543  0.0084 -0.7743
   27MOL0     C 3453   2.875   0.030   4.595  0.9210  0.8803  0.0326
   27MOL0     C 3454   2.788   0.039   4.470 -0.0741  0.9787 -0.8412
   27MOL0     C 3455   2.684  -0.060   4.444 -0.0694  0.1513 -0.1481
   27MOL0     O 3456   2.569  -0.012   4.515  0.2466  0.3087 -0.3451
   27MOL0     C 3457   2.450  -0.082   4.482 -0.8112 -0.8508 -0.3434
   27MOL0     C 3458   2.336  -0.011   4.523 -0.3592  0.3187 -0.8509
   27MOL0     C 3459   2.209  -0.067   4.486 -0.8918 -0.0942 -0.7332
   27MOL0     C 3460   2.206  -0.186   4.411  0.3553  1.3816 -0.3905
   27MOL0     C 3461   2.071  -0.248   4.378  0.2036 -0.4344  0.0640
   27MOL0     O 3462   1.958  -0.200   4.439 -0.7788  0.5335  0.6108
   27MOL0     C 3463   1.835  -0.261   4.431  0.4653 -0.0685  1.0677
   27MOL0     C 3464   1.720  -0.179   4.438  0.1581  0.0210 -0.2049
   27MOL0     C 3465   1.595  -0.242   4.444 -0.0217  0.2152  0.8617
   27MOL0     C 3466   1.580  -0.384   4.425  0.6929 -0.2180  0.6850
   27MOL0     O 3467   1.466  -0.459   4.404 -0.3666  0.4494  0.8434
   27MOL0     C 3468   1.340  -0.393   4.444  0.5958 -0.3195 -0.2271
   27MOL0     C 3469   1.223  -0.494   4.423  0.1878 -0.6329  0.1958
   27MOL0     C 3470   1.088  -0.438   4.421 -0.0175 -0.3567 -0.4472
   27MOL0     C 3471   0.993  -0.558   4.404 -0.4868 -0.5698  0.4331
   27MOL0     C 3472   0.853  -0.505   4.357 -0.2587  0.7165 -0.0688
   27MOL0     C 3473   0.752  -0.612   4.370  0.9617 -0.4176 -1.3292
   27MOL0     C 3474   0.614  -0.559   4.322 -0.8608 -0.0676 -0.5915
   27MOL0     C 3475   0.500  -0.658   4.331 -0.2015  0.6421 -0.1408
   27MOL0    Cl 3476   0.466  -0.732   4.506 -0.2477 -0.4395  0.0270
   27MOL0     C 3477   1.689  -0.462   4.418 -0.0765 -0.3259  0.0060
   27MOL0     C 3478   1.814  -0.402   4.427 -0.8335  0.1470 -0.0473
   27MOL0     O 3479   2.064  -0.340   4.292 -0.3016 -0.0049  0.0442
   27MOL0     C 3480   2.323  -0.258   4.390 -0.0424 -0.2041 -0.3047
   27MOL0     C 3481   2.444  -0.207   4.430  0.1934 -0.5683 -0.6620
   27MOL0     N 3482   3.046  -0.195   4.396 -0.2629  0.2063  0.5927
   27MOL0     N 3483   3.161  -0.177   4.341 -0.3101 -0.6873 -0.4911
   27MOL0     C 3484   2.378   0.189   4.109  0.0103  0.6896  0.2031
   27MOL0     C 3485   2.261   0.146   4.040 -0.0818  0.3868 -0.5314
   27MOL0     C 3486   1.901   0.215   3.734  0.1810  0.2255  0.0571
   27MOL0     C 3487   1.887   0.074   3.711  0.6568 -1.0009  0.4662
   27MOL0     C 3488   1.791   0.025   3.622  0.4222 -0.0650 -0.7921
   27MOL0     C 3489   1.710   0.117   3.556  0.2976 -0.3408 -0.1891
   27MOL0     O 3490   1.616   0.079   3.461 -0.1656 -0.3933  0.8964
   27MOL0     C 3491   1.636  -0.052   3.404 -0.5528  0.1080  0.3360
   27MOL0     C 3492   1.550  -0.160   3.474 -0.1389 -1.0818  0.2028
   27MOL0     C 3493   1.408  -0.154   3.428  0.5467  0.6442  0.0901
   27MOL0     C 3494   1.323  -0.242   3.510  0.3179  0.0035  0.4856
   27MOL0     C 3495   1.179  -0.214   3.496 -0.0971  0.2477 -0.3055
   27MOL0     C 3496   1.063  -0.184   3.481  0.2687  0.5186 -0.3173
   27MOL0     C 3497   1.725   0.254   3.575  0.7661  0.1091 -0.8300
   27MOL0     C 3498   1.820   0.306   3.661  0.3794 -0.6629  0.4594
   27MOL0     H 3499   2.255   0.375   3.792  2.8535  2.2355  1.1662
   27MOL0     H 3500   2.465   0.440   3.903  2.3544  0.1722  2.8407
   27MOL0     H 3501   2.628   0.162   4.159 -0.3663  0.9648  3.3792
   27MOL0     H 3502   2.705   0.292   4.249  1.4206  1.1255 -0.2062
   27MOL0     H 3503   2.791   0.394   4.047 -3.1216  0.4471  1.3759
   27MOL0     H 3504   2.764   0.252   3.951  0.7188  2.0878 -0.5165
   27MOL0     H 3505   2.889   0.109   4.103 -2.1645  0.4345  0.6761
   27MOL0     H 3506   2.914   0.253   4.212  0.5404  1.0776 -0.0505
   27MOL0     H 3507   3.064   0.179   3.973 -1.2367  0.3285 -1.2868
   27MOL0     H 3508   3.038   0.359   4.004 -0.3392  0.4901  0.4889
   27MOL0     H 3509   3.132   0.313   4.245  0.0685  0.3014 -0.5821
   27MOL0     H 3510   3.230   0.320   4.096  0.0360  1.5299  0.6756
   27MOL0     H 3511   3.224   0.058   4.123  0.7023  0.6389  0.3293
   27MOL0     H 3512   3.104   0.083   4.239  0.5817  1.3488 -0.1507
   27MOL0     H 3513   3.408   0.158   4.234 -1.4690  1.5866 -2.5829
   27MOL0     H 3514   3.309   0.192   4.379 -0.0900  1.5529 -2.0288
   27MOL0     H 3515   3.419  -0.012   4.417 -2.3920 -2.1023  2.1439
   27MOL0     H 3516   3.381  -0.080   4.257  0.7048 -0.9327  0.9932
   27MOL0     H 3517   3.200   0.022   4.595  0.5909 -0.0741  0.3118
   27MOL0     H 3518   2.978  -0.106   4.708  0.1942 -3.1591 -0.9352
   27MOL0     H 3519   2.872  -0.184   4.611  0.2047 -0.0257 -0.6846
   27MOL0     H 3520   2.949   0.111   4.587  0.8744  0.9944  0.6708
   27MOL0     H 3521   2.813   0.046   4.683 -0.7527  1.9717 -1.2797
   27MOL0     H 3522   2.748   0.141   4.470  0.8361  1.4868  2.9505
   27MOL0     H 3523   2.856   0.028   4.385  1.1389 -2.8079  0.4338
   27MOL0     H 3524   2.722  -0.157   4.478  1.2168  1.0278  1.0066
   27MOL0     H 3525   2.664  -0.075   4.338 -1.0536 -0.8424  0.1499
   27MOL0     H 3526   2.342   0.084   4.575  0.5622 -0.4199  0.4617
   27MOL0     H 3527   2.121  -0.009   4.511  0.4503  1.4179  0.6465
   27MOL0     H 3528   1.728  -0.072   4.457 -0.4464 -0.1051  0.8910
   27MOL0     H 3529   1.516  -0.169   4.453  1.4796  2.4928 -2.5782
   27MOL0     H 3530   1.317  -0.315   4.371 -1.9723  1.2731  2.0486
   27MOL0     H 3531   1.344  -0.345   4.543  2.6853 -0.6148 -0.1243
   27MOL0     H 3532   1.228  -0.563   4.508  3.1307 -2.2889 -1.1755
   27MOL0     H 3533   1.238  -0.549   4.330  2.9408  0.4951 -0.1231
   27MOL0     H 3534   1.074  -0.362   4.344 -2.1053  1.0244  1.1786
   27MOL0     H 3535   1.076  -0.385   4.516  1.1871  2.0136 -1.5423
   27MOL0     H 3536   1.025  -0.627   4.326 -2.6050  1.6437 -2.6473
   27MOL0     H 3537   0.982  -0.602   4.503  0.1330  0.1452  0.8283
   27MOL0     H 3538   0.847  -0.461   4.257 -2.1139  1.5712  0.3683
   27MOL0     H 3539   0.817  -0.424   4.421  1.2630  0.5075  1.0987
   27MOL0     H 3540   0.734  -0.646   4.472 -1.8317 -0.3711 -1.7233
   27MOL0     H 3541   0.789  -0.700   4.316 -0.5287 -0.4609 -2.3396
   27MOL0     H 3542   0.581  -0.477   4.387  0.1657  1.3531 -1.7867
   27MOL0     H 3543   0.629  -0.521   4.221  4.1868  0.1477  0.0039
   27MOL0     H 3544   0.528  -0.741   4.265  2.4219  2.7736 -1.8776
   27MOL0     H 3545   0.404  -0.620   4.295 -1.3517  1.0905  3.0532
   27MOL0     H 3546   1.683  -0.570   4.429 -4.0184 -0.1941  0.5201
   27MOL0     H 3547   1.897  -0.469   4.407 -0.2152  0.6047  0.9044
   27MOL0     H 3548   2.332  -0.357   4.345  3.3887 -1.4364  2.6047
   27MOL0     H 3549   2.530  -0.273   4.423 -2.2988 -4.0886 -0.7586
   27MOL0     H 3550   2.416   0.138   4.197  2.3711 -1.4738 -1.8998
   27MOL0     H 3551   2.203   0.074   4.095  0.9141 -0.1165 -0.1164
   27MOL0     H 3552   1.946   0.004   3.769  1.0401 -1.2985 -0.2624
   27MOL0     H 3553   1.776  -0.082   3.612  0.0992  0.0758 -1.9786
   27MOL0     H 3554   1.743  -0.073   3.394 -0.6248 -0.2919  0.3925
   27MOL0     H 3555   1.604  -0.054   3.299  0.1830  2.5047 -0.0134
   27MOL0     H 3556   1.591  -0.260   3.462 -1.8347 -1.8255  0.3100
   27MOL0     H 3557   1.559  -0.149   3.582  2.9249 -0.4195 -0.0395
   27MOL0     H 3558   1.387  -0.184   3.325 -1.1824 -2.2292  1.1557
   27MOL0     H 3559   1.381  -0.048   3.439  4.0672  1.7903 -0.9547
   27MOL0     H 3560   1.351  -0.342   3.477  1.4745  1.0643 -1.9778
   27MOL0     H 3561   1.344  -0.235   3.617  0.2986  1.5187  0.4211
   27MOL0     H 3562   0.964  -0.144   3.491  1.1611  2.3702  2.5110
   27MOL0     H 3563   1.648   0.309   3.522 -2.1402 -3.8774 -1.2358
   27MOL0     H 3564   1.821   0.414   3.678 -0.9878 -1.1071  4.6629
   28MOL0     O 3565   6.840   2.191   7.429  0.3091  0.1160  0.5159
   28MOL0     C 3566   6.911   2.092   7.449  0.6490 -0.7472  0.6682
   28MOL0     O 3567   6.879   1.964   7.487 -0.1721  0.2027  0.2992
   28MOL0     C 3568   6.746   1.927   7.476  0.1867  1.1625 -0.1406
   28MOL0     C 3569   6.658   1.968   7.567  0.2467 -0.4054  0.7857
   28MOL0     C 3570   6.523   1.931   7.570 -0.1468  1.0808 -0.4927
   28MOL0     C 3571   6.470   1.841   7.483 -0.6629  0.0845  0.3457
   28MOL0     O 3572   6.336   1.810   7.500 -0.1294 -0.4333 -0.6662
   28MOL0     C 3573   6.282   1.711   7.413 -0.1929 -0.2819  0.3661
   28MOL0     C 3574   6.140   1.683   7.469 -0.2151 -0.0879 -0.8531
   28MOL0     C 3575   6.043   1.591   7.406  0.0363  0.6319  0.5228
   28MOL0     C 3576   6.096   1.456   7.352 -1.3676 -0.0605  0.1232
   28MOL0     C 3577   6.009   1.387   7.252  0.0544 -0.9843 -0.2641
   28MOL0     C 3578   6.044   1.247   7.202  0.1595 -0.5785 -0.4336
   28MOL0     C 3579   6.188   1.218   7.146 -0.1748 -0.2683  0.0638
   28MOL0     C 3580   6.291   1.170   7.258 -0.6626  0.0806 -0.5968
   28MOL0     N 3581   6.417   1.104   7.213  0.4772  0.0592 -0.1977
   28MOL0     C 3582   6.501   1.143   7.108  0.5914 -0.6291 -0.3373
   28MOL0     C 3583   6.602   1.056   7.104 -0.0567  0.4872  0.7768
   28MOL0     C 3584   6.722   1.045   7.015  0.0908 -0.2897  0.1985
   28MOL0     C 3585   6.853   1.043   7.089 -0.0510 -0.0349  0.6910
   28MOL0     C 3586   6.893   0.903   7.115 -0.1999 -0.0671 -0.3400
   28MOL0     C 3587   6.972   0.905   7.249 -0.2030  0.2149 -0.4177
   28MOL0     O 3588   7.099   0.976   7.240 -0.6614  0.0349 -0.1046
   28MOL0     C 3589   7.178   0.928   7.139 -0.4413  0.4621 -0.1546
   28MOL0     C 3590   7.244   0.806   7.147  0.2087  0.7747  0.5671
   28MOL0     C 3591   7.336   0.762   7.052  0.3397  0.4955 -0.7874
   28MOL0     C 3592   7.375   0.848   6.945 -0.2012 -0.2310  0.2446
   28MOL0     C 3593   7.471   0.796   6.851  0.3144 -1.0986 -0.0794
   28MOL0     O 3594   7.521   0.880   6.762  0.1757 -0.0744  0.3699
   28MOL0     C 3595   7.611   0.836   6.669 -0.8965 -0.5329  0.1153
   28MOL0     C 3596   7.737   0.893   6.689 -0.1314 -0.0222 -0.6363
   28MOL0     C 3597   7.836   0.864   6.599 -0.1038 -0.0703 -0.2950
   28MOL0     C 3598   7.821   0.762   6.502 -0.5745  0.3487 -0.7722
   28MOL0     O 3599   7.931   0.735   6.421  0.0615  0.1766 -0.0628
   28MOL0     C 3600   7.916   0.739   6.275  0.8661  1.4536  0.0523
   28MOL0     C 3601   7.948   0.885   6.221  0.3525 -0.1769 -0.4075
   28MOL0     C 3602   7.839   0.930   6.126 -0.1980  0.3719  0.7636
   28MOL0     C 3603   7.867   1.076   6.081 -0.0949  0.6013  0.0438
   28MOL0     C 3604   7.756   1.121   5.987  0.8864  0.0839 -0.0886
   28MOL0     C 3605   7.783   1.262   5.925  0.1524  0.6683  1.4584
   28MOL0     C 3606   7.654   1.317   5.858  0.5184 -0.5320  0.2452
   28MOL0     C 3607   7.686   1.461   5.797 -0.2046  0.5710  0.5236
   28MOL0    Cl 3608   7.527   1.529   5.739 -0.4361 -0.1035 -0.4291
   28MOL0     C 3609   7.699   0.695   6.487 -1.1497  0.3562 -0.6159
   28MOL0     C 3610   7.592   0.731   6.573 -0.3554  0.7825 -0.3737
   28MOL0     O 3611   7.499   0.676   6.858 -0.2587 -0.6001 -0.0437
   28MOL0     C 3612   7.306   0.973   6.941 -0.0746 -0.0009 -0.3544
   28MOL0     C 3613   7.201   1.007   7.031 -1.0646 -0.8740  0.3907
   28MOL0     N 3614   6.579   0.962   7.199 -0.5027  0.2848  0.1625
   28MOL0     N 3615   6.470   0.991   7.258 -0.0585  0.3563  0.6736
   28MOL0     C 3616   6.564   1.788   7.389  0.2165  0.2457  0.1804
   28MOL0     C 3617   6.698   1.839   7.382 -0.0391  0.0360 -0.2249
   28MOL0     C 3618   7.055   2.123   7.444  0.4571 -0.1145  0.2330
   28MOL0     C 3619   7.106   2.256   7.445 -0.1207  0.2462  0.0670
   28MOL0     C 3620   7.248   2.268   7.446  0.7210  0.3140  0.0270
   28MOL0     C 3621   7.340   2.168   7.436  0.5995 -0.1328 -0.1203
   28MOL0     O 3622   7.482   2.182   7.428  0.3316  0.1250 -0.0569
   28MOL0     C 3623   7.546   2.312   7.417 -0.4436 -0.0495 -0.4557
   28MOL0     C 3624   7.685   2.265   7.382  0.0091  0.1108  0.1575
   28MOL0     C 3625   7.770   2.371   7.321 -0.4716 -0.3960  0.5896
   28MOL0     C 3626   7.917   2.322   7.295  0.1730  0.3846  0.2330
   28MOL0     C 3627   8.008   2.425   7.249  0.8470 -0.5368  1.1732
   28MOL0     C 3628   8.076   2.515   7.208  0.5310 -0.4290 -0.7179
   28MOL0     C 3629   7.283   2.036   7.429 -0.6739 -0.0643 -0.1298
   28MOL0     C 3630   7.147   2.018   7.423  0.0145 -0.2343 -0.7236
   28MOL0     H 3631   6.685   2.039   7.645 -1.7014 -0.1541  1.2987
   28MOL0     H 3632   6.454   1.964   7.647  1.2056 -1.1694  1.8263
   28MOL0     H 3633   6.347   1.623   7.417  1.5083  0.9092 -0.0637
   28MOL0     H 3634   6.288   1.755   7.313 -0.8321  0.1581  0.5137
   28MOL0     H 3635   6.082   1.776   7.477  1.5180  0.9535  0.2824
   28MOL0     H 3636   6.157   1.655   7.573  0.4771  1.4400 -0.5231
   28MOL0     H 3637   5.993   1.649   7.328 -2.7839 -1.8893  0.2415
   28MOL0     H 3638   5.965   1.577   7.481  0.6462  0.3074  1.1080
   28MOL0     H 3639   6.191   1.477   7.303 -0.5255 -0.5380  1.4929
   28MOL0     H 3640   6.119   1.398   7.442  0.1049  1.9696  1.1496
   28MOL0     H 3641   6.013   1.460   7.170 -0.5850  2.0980  2.2611
   28MOL0     H 3642   5.912   1.388   7.302  0.9787 -1.1404  1.6107
   28MOL0     H 3643   5.986   1.230   7.112 -1.0434 -2.7029  0.6665
   28MOL0     H 3644   6.010   1.177   7.279 -2.1662  1.7076  0.7692
   28MOL0     H 3645   6.174   1.134   7.076 -1.4722  0.7170 -0.9213
   28MOL0     H 3646   6.223   1.308   7.096 -0.0457  0.1446  0.8842
   28MOL0     H 3647   6.241   1.095   7.320 -1.1837 -1.1592 -2.4279
   28MOL0     H 3648   6.321   1.249   7.327  1.9598 -1.3204  0.0014
   28MOL0     H 3649   6.489   1.224   7.037  0.4367 -1.7615 -1.6170
   28MOL0     H 3650   6.716   1.135   6.954 -2.9004  0.6121  1.6514
   28MOL0     H 3651   6.712   0.961   6.946 -0.9813 -0.0144  0.0082
   28MOL0     H 3652   6.840   1.095   7.184  1.5787 -3.5600  3.0467
   28MOL0     H 3653   6.921   1.089   7.016 -1.1486  1.1266  0.3712
   28MOL0     H 3654   6.806   0.838   7.129  0.0526 -0.5498 -0.9447
   28MOL0     H 3655   6.951   0.864   7.031  3.4846 -0.6159  2.2554
   28MOL0     H 3656   6.983   0.799   7.273 -0.1337  0.3004 -0.0667
   28MOL0     H 3657   6.913   0.932   7.337  0.5692 -1.7603  0.7768
   28MOL0     H 3658   7.245   0.765   7.248  1.2332  0.5880  0.4889
   28MOL0     H 3659   7.391   0.669   7.063  0.6905  0.3780 -3.0410
   28MOL0     H 3660   7.748   0.973   6.761 -1.4845  1.2634 -1.8221
   28MOL0     H 3661   7.931   0.917   6.602 -1.4856  2.5197  0.5097
   28MOL0     H 3662   7.818   0.706   6.239  2.1221  0.5057 -2.7640
   28MOL0     H 3663   7.996   0.675   6.237  1.8039  2.0750  0.9293
   28MOL0     H 3664   8.044   0.897   6.169  0.4804  1.3988  0.1347
   28MOL0     H 3665   7.938   0.951   6.308 -3.4349 -1.1085  0.0165
   28MOL0     H 3666   7.737   0.908   6.160  0.8006  0.0905  3.8806
   28MOL0     H 3667   7.845   0.873   6.032 -0.6384  2.5644 -0.6618
   28MOL0     H 3668   7.873   1.136   6.172  0.4095 -0.3360  0.6468
   28MOL0     H 3669   7.961   1.084   6.026 -0.2054  4.3741  0.1585
   28MOL0     H 3670   7.663   1.127   6.046  1.4057  2.5493  0.5933
   28MOL0     H 3671   7.735   1.041   5.916 -2.4397  0.3339  0.4518
   28MOL0     H 3672   7.869   1.246   5.859 -2.1905 -3.1063 -1.0708
   28MOL0     H 3673   7.807   1.332   6.006  0.2096  1.7229  0.5499
   28MOL0     H 3674   7.613   1.249   5.782 -1.9161  1.0113  0.0533
   28MOL0     H 3675   7.573   1.328   5.931  1.0336 -1.8551  1.0634
   28MOL0     H 3676   7.749   1.442   5.710 -1.5387 -0.5987 -0.2064
   28MOL0     H 3677   7.730   1.521   5.878  1.8635 -2.4830  1.8442
   28MOL0     H 3678   7.678   0.615   6.417 -1.6074  1.9167 -2.3545
   28MOL0     H 3679   7.491   0.693   6.569  0.6545 -2.3975  1.2679
   28MOL0     H 3680   7.341   1.032   6.858 -0.7073 -4.0291 -3.8214
   28MOL0     H 3681   7.152   1.103   7.021  1.1014  0.3372  0.8787
   28MOL0     H 3682   6.540   1.719   7.308  2.1037  1.2137 -1.2916
   28MOL0     H 3683   6.757   1.791   7.305  0.2537  0.3403 -0.1950
   28MOL0     H 3684   7.041   2.343   7.438  1.6232  1.5109 -1.3967
   28MOL0     H 3685   7.296   2.365   7.435  3.9437 -1.2278 -0.6552
   28MOL0     H 3686   7.540   2.375   7.506  1.3769 -0.5739  0.0678
   28MOL0     H 3687   7.505   2.360   7.328  1.0591 -0.1839 -1.2354
   28MOL0     H 3688   7.730   2.223   7.472  0.0101 -0.7058 -0.2110
   28MOL0     H 3689   7.673   2.184   7.309  1.2482 -0.1526  0.2260
   28MOL0     H 3690   7.791   2.450   7.394 -2.1292  0.8298 -0.2197
   28MOL0     H 3691   7.724   2.417   7.233  4.1235  0.3967 -1.7386
   28MOL0     H 3692   7.960   2.262   7.377  0.4196 -0.8456 -0.7593
   28MOL0     H 3693   7.916   2.249   7.213 -3.3539 -1.0616  1.3829
   28MOL0     H 3694   8.138   2.597   7.177  4.2488 -3.1796 -1.2258
   28MOL0     H 3695   7.345   1.948   7.425  0.1088  0.5131 -1.1662
   28MOL0     H 3696   7.106   1.918   7.411 -1.9145  0.6205 -1.7558
   29MOL0     O 3697   4.167   5.979   5.735 -0.3003 -0.4446 -0.0961
   29MOL0     C 3698   4.211   5.883   5.677 -0.6673 -0.0147 -0.0086
   29MOL0     O 3699   4.175   5.841   5.556  0.0280  0.0792  0.5289
   29MOL0     C 3700   4.069   5.892   5.486 -0.2883  0.2987 -0.0607
   29MOL0     C 3701   4.085   5.905   5.345  0.1936 -0.5719  0.2153
   29MOL0     C 3702   3.984   5.956   5.267 -0.1622  0.0585 -0.3098
   29MOL0     C 3703   3.864   5.989   5.318  1.3438 -1.4165 -0.5503
   29MOL0     O 3704   3.760   6.033   5.242 -0.5284 -0.5213 -0.0988
   29MOL0     C 3705   3.792   6.130   5.135  0.6137  0.4093 -0.7864
   29MOL0     C 3706   3.665   6.206   5.091  0.3238  0.0424  0.6443
   29MOL0     C 3707   3.545   6.106   5.076 -0.1857  0.2143  0.0982
   29MOL0     C 3708   3.432   6.168   5.000 -0.4719  0.4766 -0.1097
   29MOL0     C 3709   3.324   6.064   4.970 -0.0611  0.1813  0.0985
   29MOL0     C 3710   3.198   6.124   4.902  0.4885 -0.3390  0.8828
   29MOL0     C 3711   3.109   6.011   4.840  0.0872 -0.1446 -0.2779
   29MOL0     C 3712   2.977   6.074   4.794  0.5377 -0.2624  0.2728
   29MOL0     N 3713   2.880   5.978   4.748  0.2474 -0.3297  0.8361
   29MOL0     C 3714   2.863   5.941   4.613  0.5242  0.1264 -0.2304
   29MOL0     C 3715   2.735   5.892   4.605 -0.5310  0.4478  1.2059
   29MOL0     C 3716   2.662   5.855   4.483 -0.1937 -0.0947  0.1121
   29MOL0     C 3717   2.565   5.963   4.437 -0.2056  0.2898 -0.5905
   29MOL0     C 3718   2.491   5.937   4.308 -0.5550 -0.3675  0.4321
   29MOL0     C 3719   2.379   6.040   4.283  0.3784 -0.0065  0.9537
   29MOL0     O 3720   2.282   6.052   4.386  0.1516 -0.4829  1.0954
   29MOL0     C 3721   2.199   5.950   4.393 -0.0644 -0.3779  0.5053
   29MOL0     C 3722   2.219   5.855   4.490  0.2057 -0.6686 -0.2734
   29MOL0     C 3723   2.139   5.743   4.497  0.6253  0.9922  0.0908
   29MOL0     C 3724   2.032   5.724   4.402 -1.0763 -0.2429 -0.1773
   29MOL0     C 3725   1.948   5.602   4.405  0.4616 -0.2715 -1.3170
   29MOL0     O 3726   1.891   5.568   4.288  0.1994  0.2742 -0.2094
   29MOL0     C 3727   1.812   5.457   4.297  0.2815 -0.0153  0.1946
   29MOL0     C 3728   1.686   5.467   4.356  0.0236  0.4223 -0.3900
   29MOL0     C 3729   1.609   5.349   4.371  0.0242  0.1254 -0.3343
   29MOL0     C 3730   1.648   5.226   4.312  0.0595 -0.5703  0.1145
   29MOL0     O 3731   1.576   5.114   4.310  0.1739  0.4652 -0.0591
   29MOL0     C 3732   1.627   4.985   4.327  0.1034 -0.6906  0.2093
   29MOL0     C 3733   1.516   4.882   4.349 -1.2865 -0.3264  0.0096
   29MOL0     C 3734   1.418   4.923   4.456  0.4146  0.4107 -0.3499
   29MOL0     C 3735   1.316   4.806   4.482 -0.8549 -0.6922  0.2106
   29MOL0     C 3736   1.202   4.860   4.573 -0.3928  0.6739  0.9941
   29MOL0     C 3737   1.116   4.745   4.622  0.4379  0.0176  0.0432
   29MOL0     C 3738   0.996   4.803   4.707 -0.1198  0.6343 -0.2639
   29MOL0     C 3739   0.890   4.697   4.743  0.1317 -0.2077  0.1276
   29MOL0    Cl 3740   0.819   4.623   4.592 -0.2445 -0.1768  0.1600
   29MOL0     C 3741   1.782   5.232   4.253  0.5932  0.3751  0.5028
   29MOL0     C 3742   1.859   5.337   4.255 -0.0379 -0.1848 -0.4385
   29MOL0     O 3743   1.925   5.553   4.516  0.6904 -0.5610 -0.0035
   29MOL0     C 3744   2.015   5.817   4.304 -0.4232 -0.1046 -0.2042
   29MOL0     C 3745   2.099   5.934   4.297  0.0435 -0.5908 -0.0317
   29MOL0     N 3746   2.677   5.905   4.726 -0.4204 -0.2362 -1.3068
   29MOL0     N 3747   2.765   5.949   4.813 -0.4677 -0.7685 -0.4584
   29MOL0     C 3748   3.844   5.981   5.458  0.4841  0.1023  1.0281
   29MOL0     C 3749   3.943   5.934   5.544  0.8474  0.9483  0.5673
   29MOL0     C 3750   4.316   5.799   5.731  0.3124  0.7677 -0.0657
   29MOL0     C 3751   4.414   5.853   5.813  0.1680 -0.5013  0.0533
   29MOL0     C 3752   4.532   5.784   5.848  0.6765  0.0846 -0.3680
   29MOL0     C 3753   4.540   5.645   5.809  0.0918 -0.3521 -0.5809
   29MOL0     O 3754   4.651   5.567   5.838  0.2390  0.0869 -0.3301
   29MOL0     C 3755   4.776   5.633   5.865 -0.3823  0.0839  1.0428
   29MOL0     C 3756   4.901   5.537   5.878  0.3243  0.4533 -0.6751
   29MOL0     C 3757   5.016   5.636   5.914 -0.1752  0.0941 -0.1296
   29MOL0     C 3758   5.141   5.558   5.953  0.2144  0.4271  0.2196
   29MOL0     C 3759   5.197   5.481   5.842 -0.5593 -0.0527 -0.8307
   29MOL0     C 3760   5.229   5.406   5.757 -0.1269 -0.0108 -0.0960
   29MOL0     C 3761   4.438   5.589   5.737 -0.1655  0.0807  0.2726
   29MOL0     C 3762   4.337   5.667   5.689  0.0820  0.3770 -0.3825
   29MOL0     H 3763   4.168   5.886   5.279 -1.0047  1.4848 -2.0255
   29MOL0     H 3764   4.002   5.966   5.160  3.3373  0.4390  0.1717
   29MOL0     H 3765   3.835   6.067   5.057  0.2482  0.6294 -1.1683
   29MOL0     H 3766   3.861   6.206   5.172 -1.0001  0.9694  1.3236
   29MOL0     H 3767   3.689   6.250   4.994  2.6433  1.1239  1.6330
   29MOL0     H 3768   3.635   6.287   5.158 -2.2593  0.3201 -0.7070
   29MOL0     H 3769   3.513   6.063   5.173  0.0682 -2.4535 -0.9021
   29MOL0     H 3770   3.583   6.020   5.020 -2.2342  0.1073 -1.2327
   29MOL0     H 3771   3.391   6.251   5.058  2.6613  1.2737  1.1317
   29MOL0     H 3772   3.475   6.215   4.911  0.0701  0.9780  0.4081
   29MOL0     H 3773   3.311   6.024   5.071  0.1567  0.2044  0.1354
   29MOL0     H 3774   3.358   5.981   4.907  1.4282  1.5383 -0.9852
   29MOL0     H 3775   3.223   6.189   4.817  2.4100 -2.1845 -0.0697
   29MOL0     H 3776   3.136   6.180   4.972  1.2604  1.4318  0.2200
   29MOL0     H 3777   3.170   5.952   4.771  1.7516  0.7383  0.3709
   29MOL0     H 3778   3.084   5.931   4.911  0.7371  0.1683  0.3156
   29MOL0     H 3779   2.997   6.135   4.705  0.5018 -0.7832 -0.0954
   29MOL0     H 3780   2.929   6.131   4.874  1.9849  1.0150  0.2822
   29MOL0     H 3781   2.925   5.960   4.527  1.2635 -0.4817  0.1531
   29MOL0     H 3782   2.595   5.770   4.503 -1.4834  0.9017  0.1399
   29MOL0     H 3783   2.732   5.839   4.401 -0.4108  0.5495 -0.2052
   29MOL0     H 3784   2.611   6.062   4.440 -1.8626  1.0818  0.4090
   29MOL0     H 3785   2.482   5.975   4.508 -0.8754 -0.6891 -1.1736
   29MOL0     H 3786   2.558   5.937   4.220 -3.4891 -0.7890 -1.9620
   29MOL0     H 3787   2.451   5.836   4.316 -0.7210 -0.3510 -0.1186
   29MOL0     H 3788   2.319   6.014   4.196 -0.8881 -0.1082  1.8362
   29MOL0     H 3789   2.422   6.136   4.254  0.8022 -0.9865 -2.0007
   29MOL0     H 3790   2.295   5.865   4.566  0.3155 -0.3824 -0.4220
   29MOL0     H 3791   2.151   5.666   4.573  1.2871  0.1829 -0.8127
   29MOL0     H 3792   1.650   5.558   4.403 -1.5326 -0.4335  0.1623
   29MOL0     H 3793   1.512   5.361   4.419  0.3134 -0.5291  0.4323
   29MOL0     H 3794   1.702   4.978   4.406  0.1240 -1.3629  0.1372
   29MOL0     H 3795   1.670   4.955   4.231 -0.4089 -1.6461  0.2626
   29MOL0     H 3796   1.561   4.790   4.387  0.9642  0.5621 -0.3358
   29MOL0     H 3797   1.481   4.857   4.248  0.4150  0.3202 -0.7720
   29MOL0     H 3798   1.359   5.010   4.424 -0.2409  0.4596  0.9242
   29MOL0     H 3799   1.467   4.939   4.552 -1.1502 -0.5797  0.6595
   29MOL0     H 3800   1.259   4.774   4.394 -2.4184  2.3407 -0.0341
   29MOL0     H 3801   1.376   4.724   4.520  2.0923 -0.4211 -3.2608
   29MOL0     H 3802   1.143   4.925   4.508  1.7161  1.7252  0.0596
   29MOL0     H 3803   1.245   4.923   4.651  1.5967 -1.8230  2.0830
   29MOL0     H 3804   1.171   4.672   4.682 -1.3382 -0.8384  0.6960
   29MOL0     H 3805   1.083   4.696   4.531 -1.2448  1.4953 -0.1969
   29MOL0     H 3806   1.037   4.844   4.800 -0.7489 -1.1130  0.8315
   29MOL0     H 3807   0.942   4.881   4.653  0.6594  0.4333 -1.3737
   29MOL0     H 3808   0.811   4.756   4.791  0.3532  1.1925 -1.1406
   29MOL0     H 3809   0.932   4.619   4.806 -0.8807 -0.1690  0.8733
   29MOL0     H 3810   1.829   5.148   4.205  1.6110  0.8850  0.5858
   29MOL0     H 3811   1.957   5.335   4.208 -0.9992  0.0928 -2.5599
   29MOL0     H 3812   1.938   5.801   4.228 -0.4632 -0.5795 -0.0662
   29MOL0     H 3813   2.082   6.003   4.215 -1.2746 -2.1252 -1.1306
   29MOL0     H 3814   3.743   5.993   5.495  0.2596 -1.8314  1.1206
   29MOL0     H 3815   3.924   5.903   5.646  1.5775  0.4366  0.5534
   29MOL0     H 3816   4.400   5.957   5.841  0.7442 -0.9295  2.1513
   29MOL0     H 3817   4.606   5.840   5.904  0.9422  0.0032 -0.6374
   29MOL0     H 3818   4.767   5.689   5.959  1.9849  1.2868  0.6351
   29MOL0     H 3819   4.805   5.695   5.780 -0.7383 -1.6562 -0.4006
   29MOL0     H 3820   4.886   5.460   5.954  1.0152  1.3428  0.3953
   29MOL0     H 3821   4.922   5.485   5.785 -4.2826 -1.5497 -0.8545
   29MOL0     H 3822   4.979   5.694   6.000  1.1249  0.2909  0.3120
   29MOL0     H 3823   5.036   5.709   5.835  0.4734  0.4553  0.3593
   29MOL0     H 3824   5.221   5.622   5.992  0.8708  0.0194 -0.4258
   29MOL0     H 3825   5.112   5.488   6.032  1.8283  3.3917  3.7255
   29MOL0     H 3826   5.264   5.337   5.683 -0.9929  0.4920 -0.9976
   29MOL0     H 3827   4.465   5.485   5.716  0.1266 -0.3005  2.3365
   29MOL0     H 3828   4.268   5.622   5.618  0.7378 -1.7452  0.2185
   30MOL0     O 3829   2.165   2.578   5.407  0.2402  0.5853 -0.3443
   30MOL0     C 3830   2.192   2.470   5.360 -0.2558 -0.4779  0.2571
   30MOL0     O 3831   2.127   2.349   5.381 -0.8987 -0.3489 -0.6138
   30MOL0     C 3832   2.024   2.341   5.474 -0.8687  0.1578  0.5667
   30MOL0     C 3833   1.912   2.272   5.437 -0.2024  0.8784 -0.3723
   30MOL0     C 3834   1.810   2.250   5.535 -0.3020 -0.1346  0.4053
   30MOL0     C 3835   1.812   2.302   5.658  0.3898 -0.4056  0.5863
   30MOL0     O 3836   1.724   2.271   5.753 -0.2808 -1.0201  0.3146
   30MOL0     C 3837   1.599   2.210   5.715 -0.6730  0.0410  0.2941
   30MOL0     C 3838   1.513   2.224   5.830  1.3149 -0.3768 -0.7636
   30MOL0     C 3839   1.374   2.168   5.793 -0.6969 -0.2042 -0.6936
   30MOL0     C 3840   1.280   2.186   5.918  0.0266 -0.2681 -0.4232
   30MOL0     C 3841   1.310   2.075   6.028  0.2673  0.1552 -0.5721
   30MOL0     C 3842   1.199   2.084   6.139  0.4474  0.1020 -0.1578
   30MOL0     C 3843   1.232   2.019   6.270 -0.2627 -0.1503 -0.8829
   30MOL0     C 3844   1.112   1.958   6.344 -1.2735 -0.3985 -0.1514
   30MOL0     N 3845   1.040   2.076   6.404  0.5212 -1.1698  0.0276
   30MOL0     C 3846   0.933   2.140   6.348 -0.4184 -0.3872 -0.0210
   30MOL0     C 3847   0.870   2.197   6.456 -0.1900  0.2188  1.0547
   30MOL0     C 3848   0.735   2.280   6.437 -0.4402  0.7438  0.2562
   30MOL0     C 3849   0.648   2.292   6.563  0.8718  0.8767  0.2172
   30MOL0     C 3850   0.520   2.365   6.544  0.3626  0.0082  0.7573
   30MOL0     C 3851   0.466   2.415   6.675  0.4986  0.1957  0.0283
   30MOL0     O 3852   0.364   2.511   6.649  0.6115  0.0776 -0.5760
   30MOL0     C 3853   0.243   2.484   6.716  0.6668 -0.3819  0.5541
   30MOL0     C 3854   0.207   2.566   6.816  0.1265  0.3264 -0.2166
   30MOL0     C 3855   0.091   2.547   6.892  0.7884 -0.1909 -0.1716
   30MOL0     C 3856   0.008   2.436   6.862  0.7153  0.3445  0.7039
   30MOL0     C 3857  -0.122   2.414   6.927  0.0939 -0.1994  0.8200
   30MOL0     O 3858  -0.191   2.298   6.888 -0.3737  0.0538  0.2878
   30MOL0     C 3859  -0.314   2.255   6.933 -0.5016  0.0052  0.0802
   30MOL0     C 3860  -0.383   2.305   7.045  0.0858  0.1776 -0.2245
   30MOL0     C 3861  -0.516   2.278   7.060  0.6171 -0.0159  0.2390
   30MOL0     C 3862  -0.572   2.174   6.983 -0.3573 -0.7538  0.1474
   30MOL0     O 3863  -0.715   2.137   6.980 -0.0039 -0.3080 -0.1145
   30MOL0     C 3864  -0.814   2.200   7.056 -0.8095 -0.6795  0.4730
   30MOL0     C 3865  -0.948   2.171   6.996  0.1296 -0.0308  0.6299
   30MOL0     C 3866  -0.984   2.266   6.880 -0.1807  0.4765  0.5431
   30MOL0     C 3867  -1.129   2.251   6.848  0.5262  0.3340  0.5699
   30MOL0     C 3868  -1.164   2.348   6.738 -0.4254 -0.4985 -0.4124
   30MOL0     C 3869  -1.313   2.357   6.719 -0.9951  0.2059  0.1649
   30MOL0     C 3870  -1.359   2.244   6.635  0.4774 -0.7111  0.6440
   30MOL0     C 3871  -1.499   2.279   6.588 -1.5301  0.4866  0.8344
   30MOL0    Cl 3872  -1.563   2.129   6.539 -0.2502  0.2647  0.2521
   30MOL0     C 3873  -0.491   2.102   6.887 -0.6341  0.8707 -0.6678
   30MOL0     C 3874  -0.368   2.158   6.854  0.5229  0.6357  0.2515
   30MOL0     O 3875  -0.154   2.496   7.012  0.2085  0.7028  0.1785
   30MOL0     C 3876   0.042   2.355   6.754 -0.2411 -0.4935  0.7188
   30MOL0     C 3877   0.158   2.380   6.682 -0.0954  0.3717 -0.1716
   30MOL0     N 3878   0.941   2.179   6.569  0.2403 -0.1939  0.2246
   30MOL0     N 3879   1.048   2.108   6.543 -0.1466  0.5583  0.1046
   30MOL0     C 3880   1.920   2.380   5.698 -0.5298  0.2801 -0.0220
   30MOL0     C 3881   2.033   2.397   5.605  0.2601  0.2965 -0.8245
   30MOL0     C 3882   2.310   2.473   5.266  0.3453  0.7149  0.9398
   30MOL0     C 3883   2.382   2.590   5.241  0.0733  0.0876  0.3878
   30MOL0     C 3884   2.487   2.592   5.157 -0.2595 -0.1523  0.3041
   30MOL0     C 3885   2.548   2.475   5.112 -0.3601 -0.8391 -0.3924
   30MOL0     O 3886   2.665   2.476   5.044 -0.2798  0.2318  0.3650
   30MOL0     C 3887   2.756   2.582   5.060  0.0623 -0.1825  0.3541
   30MOL0     C 3888   2.892   2.550   4.996 -0.2989 -0.5062 -0.1387
   30MOL0     C 3889   2.938   2.417   5.070 -0.7871 -1.0440 -0.1377
   30MOL0     C 3890   3.068   2.371   5.001 -0.3367  0.4581 -0.1268
   30MOL0     C 3891   3.152   2.282   5.078  0.4948 -0.8502 -0.1589
   30MOL0     C 3892   3.220   2.198   5.124 -0.4684  0.1504 -1.0298
   30MOL0     C 3893   2.486   2.355   5.139 -0.5768 -0.0936 -0.5221
   30MOL0     C 3894   2.367   2.351   5.215 -0.7028 -0.2102  0.4281
   30MOL0     H 3895   1.902   2.230   5.338  0.8952 -0.0813 -0.0942
   30MOL0     H 3896   1.729   2.190   5.494 -1.6940  2.2770 -0.5583
   30MOL0     H 3897   1.611   2.105   5.685 -1.1243 -0.4515  1.7156
   30MOL0     H 3898   1.556   2.272   5.637  1.1146  2.0788  0.8303
   30MOL0     H 3899   1.514   2.328   5.863  1.1645 -0.7880  0.5939
   30MOL0     H 3900   1.549   2.164   5.914 -0.2580  0.2468  0.3871
   30MOL0     H 3901   1.370   2.062   5.767 -0.1330 -2.1940  5.5497
   30MOL0     H 3902   1.334   2.224   5.708  0.4180 -2.7254 -2.9872
   30MOL0     H 3903   1.277   2.279   5.976 -1.4196 -1.9633  2.4862
   30MOL0     H 3904   1.177   2.165   5.888 -0.6286 -1.5043  2.3070
   30MOL0     H 3905   1.410   2.095   6.068  1.0682 -2.5592 -1.0036
   30MOL0     H 3906   1.313   1.978   5.977  2.2154 -0.0933 -0.0653
   30MOL0     H 3907   1.111   2.037   6.095  1.5016 -1.2457 -0.8908
   30MOL0     H 3908   1.185   2.186   6.176 -0.9429  0.0139 -0.3977
   30MOL0     H 3909   1.293   1.933   6.243 -0.4454 -0.7236  0.4657
   30MOL0     H 3910   1.299   2.075   6.336 -1.3429  1.0149 -0.7289
   30MOL0     H 3911   1.132   1.895   6.430 -2.1877 -0.7704 -0.1997
   30MOL0     H 3912   1.051   1.902   6.273 -0.1592 -0.2228 -1.2932
   30MOL0     H 3913   0.901   2.145   6.244  2.9290  3.5358 -1.1269
   30MOL0     H 3914   0.677   2.232   6.357 -0.0840 -0.4103  0.6770
   30MOL0     H 3915   0.760   2.384   6.413 -1.2844  0.5127 -1.9501
   30MOL0     H 3916   0.712   2.344   6.635  0.2422  1.6196  0.2624
   30MOL0     H 3917   0.617   2.196   6.604 -0.1852  1.4115  0.7329
   30MOL0     H 3918   0.530   2.445   6.471  0.3172  0.4365  1.2089
   30MOL0     H 3919   0.447   2.293   6.507 -1.0465  1.6265  0.2298
   30MOL0     H 3920   0.543   2.474   6.725  0.6441 -0.2001  0.2814
   30MOL0     H 3921   0.444   2.340   6.752  0.6854  0.4467  0.3322
   30MOL0     H 3922   0.261   2.658   6.835 -0.4355  0.3537  1.3368
   30MOL0     H 3923   0.065   2.611   6.976 -1.0450 -1.2005  0.0829
   30MOL0     H 3924  -0.337   2.378   7.111 -0.6228 -1.9337  2.8260
   30MOL0     H 3925  -0.582   2.318   7.137 -1.4052 -0.5258 -1.1634
   30MOL0     H 3926  -0.792   2.307   7.046  1.7951 -1.3550 -2.4106
   30MOL0     H 3927  -0.806   2.170   7.161  1.7907 -1.4174  0.1354
   30MOL0     H 3928  -1.018   2.194   7.076  2.1071 -0.1293  2.4907
   30MOL0     H 3929  -0.959   2.067   6.963 -3.0467  0.0698  1.0982
   30MOL0     H 3930  -0.913   2.251   6.798 -0.5668 -0.2130  0.3281
   30MOL0     H 3931  -0.973   2.371   6.909  1.4316 -0.3331  3.1539
   30MOL0     H 3932  -1.164   2.153   6.814 -1.2622  1.1449 -0.0121
   30MOL0     H 3933  -1.190   2.274   6.935 -0.3287  0.1856  0.0232
   30MOL0     H 3934  -1.118   2.319   6.643  1.5011  0.6342  0.0999
   30MOL0     H 3935  -1.126   2.449   6.761 -2.0564 -0.1598  1.0380
   30MOL0     H 3936  -1.326   2.447   6.657  0.0883  0.7716  0.7343
   30MOL0     H 3937  -1.374   2.362   6.810 -3.2197  0.5733 -1.2525
   30MOL0     H 3938  -1.287   2.223   6.556  4.1420 -0.3481  3.5776
   30MOL0     H 3939  -1.364   2.153   6.697 -2.3592 -0.2393  1.2103
   30MOL0     H 3940  -1.505   2.343   6.500 -1.0220  1.2051  1.3172
   30MOL0     H 3941  -1.561   2.324   6.666 -2.0580  0.7771  0.2541
   30MOL0     H 3942  -0.550   2.026   6.836  1.4325 -1.5327  0.2955
   30MOL0     H 3943  -0.309   2.122   6.771  1.3332 -0.8638  1.4189
   30MOL0     H 3944  -0.009   2.271   6.709  2.2949 -1.7293 -0.0810
   30MOL0     H 3945   0.196   2.326   6.596 -0.0862 -0.8703  0.5803
   30MOL0     H 3946   1.918   2.420   5.799  3.1296 -1.3265  0.8613
   30MOL0     H 3947   2.115   2.463   5.631  1.9350 -1.2844 -1.8712
   30MOL0     H 3948   2.350   2.689   5.272  1.0697  0.2405  0.9854
   30MOL0     H 3949   2.515   2.688   5.115 -2.4454 -0.6565 -2.6536
   30MOL0     H 3950   2.767   2.613   5.165 -1.6754  3.3047 -0.3352
   30MOL0     H 3951   2.732   2.674   5.006  0.3013 -0.5758 -0.4336
   30MOL0     H 3952   2.872   2.537   4.889  2.2383  3.3004 -1.2819
   30MOL0     H 3953   2.964   2.632   4.996 -0.0303 -0.7349 -0.7223
   30MOL0     H 3954   2.863   2.338   5.058 -1.8241 -0.1341  0.1625
   30MOL0     H 3955   2.958   2.431   5.176 -1.2689 -0.5315 -0.1097
   30MOL0     H 3956   3.038   2.327   4.906  1.0034  2.5941 -1.6099
   30MOL0     H 3957   3.135   2.455   4.982  0.9015  0.6677  4.0754
   30MOL0     H 3958   3.261   2.127   5.194 -3.2246 -1.2853 -0.7206
   30MOL0     H 3959   2.523   2.260   5.101 -0.5237  0.0332 -0.7940
   30MOL0     H 3960   2.320   2.254   5.231  0.3081 -0.6051  1.0789
   31MOL0     O 3961   5.822   8.473   6.282  0.5406 -0.2463  0.0567
   31MOL0     C 3962   5.837   8.450   6.164  0.0569  0.9984 -0.5315
   31MOL0     O 3963   5.739   8.418   6.075 -0.2775 -0.2375 -0.4295
   31MOL0     C 3964   5.623   8.370   6.127 -0.8828 -0.3239 -0.2478
   31MOL0     C 3965   5.535   8.448   6.210  0.0250  0.7172 -0.5119
   31MOL0     C 3966   5.438   8.380   6.276  0.6094  0.0866  0.2288
   31MOL0     C 3967   5.395   8.243   6.241 -0.0151 -0.5500 -0.2635
   31MOL0     O 3968   5.288   8.186   6.297 -0.0163 -0.7374  0.1272
   31MOL0     C 3969   5.219   8.080   6.220  0.0736 -0.2098  0.6736
   31MOL0     C 3970   5.065   8.089   6.258 -0.6462 -0.6835 -0.2774
   31MOL0     C 3971   4.998   7.953   6.241 -0.1958  0.6187  0.2676
   31MOL0     C 3972   4.855   7.972   6.297 -1.6985  0.0493  0.2679
   31MOL0     C 3973   4.786   7.838   6.314  0.5792  0.1135  0.0536
   31MOL0     C 3974   4.772   7.761   6.179 -0.5105 -0.9742  0.4622
   31MOL0     C 3975   4.696   7.832   6.065 -0.0216 -0.5695  1.0687
   31MOL0     C 3976   4.544   7.852   6.091 -0.1857  0.1788  0.2709
   31MOL0     N 3977   4.473   7.723   6.094 -0.5346  0.2643 -0.2417
   31MOL0     C 3978   4.442   7.647   5.987  0.2550  0.2590  0.8938
   31MOL0     C 3979   4.354   7.557   6.041 -0.9912  0.3526  0.1822
   31MOL0     C 3980   4.291   7.438   5.981 -0.1782 -0.9589 -0.3775
   31MOL0     C 3981   4.143   7.429   6.000 -0.3154 -0.0605 -0.3272
   31MOL0     C 3982   4.070   7.350   5.893  0.5396 -0.1076  0.3194
   31MOL0     C 3983   4.107   7.201   5.891  0.3775  0.3931 -0.8467
   31MOL0     O 3984   4.086   7.131   6.020  0.7936  0.6324  0.3744
   31MOL0     C 3985   4.189   7.107   6.100 -0.0124 -0.2011 -0.0504
   31MOL0     C 3986   4.312   7.058   6.052 -0.0918  0.2949 -1.0988
   31MOL0     C 3987   4.411   7.028   6.150 -0.1627  0.5106 -0.1803
   31MOL0     C 3988   4.401   7.052   6.284 -0.0565  0.2683 -0.3898
   31MOL0     C 3989   4.491   7.006   6.391 -0.5291  0.4170  0.4610
   31MOL0     O 3990   4.441   7.007   6.516 -0.1803  0.3595  0.2607
   31MOL0     C 3991   4.518   6.948   6.610  0.4799  0.3900 -0.6310
   31MOL0     C 3992   4.635   7.004   6.649 -0.0564  0.2787  0.1122
   31MOL0     C 3993   4.723   6.931   6.738 -0.4723 -0.5919  0.4015
   31MOL0     C 3994   4.697   6.806   6.782 -0.7223 -0.0936  0.7056
   31MOL0     O 3995   4.779   6.734   6.877 -0.3837 -0.7093  1.0190
   31MOL0     C 3996   4.908   6.794   6.907 -0.1754  0.6324 -0.0818
   31MOL0     C 3997   5.027   6.748   6.811 -0.7893 -1.1755  0.4957
   31MOL0     C 3998   5.164   6.814   6.845  0.6987 -0.8094  0.0310
   31MOL0     C 3999   5.273   6.785   6.743 -0.8229 -0.7035  0.1943
   31MOL0     C 4000   5.394   6.876   6.765  0.7488 -0.0904 -0.6449
   31MOL0     C 4001   5.495   6.858   6.651 -0.9310 -0.1470  0.2067
   31MOL0     C 4002   5.561   6.722   6.646  0.0894  0.0745  0.3231
   31MOL0     C 4003   5.586   6.643   6.775  0.1057  0.7763 -0.1347
   31MOL0    Cl 4004   5.716   6.733   6.862 -0.2240  0.0083 -0.5464
   31MOL0     C 4005   4.582   6.745   6.743  0.0588 -0.7274  0.2229
   31MOL0     C 4006   4.488   6.815   6.664 -0.2282  0.1350  0.7455
   31MOL0     O 4007   4.603   6.959   6.358 -0.2673 -0.3150  0.5341
   31MOL0     C 4008   4.282   7.104   6.322 -0.6270  0.1769 -0.6328
   31MOL0     C 4009   4.182   7.137   6.229  0.8020  0.3104  0.0758
   31MOL0     N 4010   4.333   7.591   6.170 -0.0799  0.8042 -0.2031
   31MOL0     N 4011   4.401   7.693   6.200  0.3507  1.5191  0.0061
   31MOL0     C 4012   5.481   8.177   6.158 -0.1754  0.3719  0.2775
   31MOL0     C 4013   5.592   8.239   6.094 -0.3522 -0.3897 -0.0568
   31MOL0     C 4014   5.970   8.468   6.102 -0.2190 -0.3754 -0.1702
   31MOL0     C 4015   6.071   8.533   6.169  0.6633 -0.9009  0.7231
   31MOL0     C 4016   6.194   8.546   6.108  0.1969  0.1829 -0.5667
   31MOL0     C 4017   6.231   8.473   5.995  0.3216  0.2746  0.4024
   31MOL0     O 4018   6.358   8.471   5.949  0.2571 -0.0119  0.0484
   31MOL0     C 4019   6.381   8.424   5.816  0.1058 -0.1557  0.2261
   31MOL0     C 4020   6.404   8.265   5.821 -0.3072  0.6418  0.1947
   31MOL0     C 4021   6.553   8.245   5.792 -0.5398  0.0784 -0.3252
   31MOL0     C 4022   6.604   8.093   5.792 -0.1900  0.1769 -0.5134
   31MOL0     C 4023   6.745   8.095   5.760 -0.8298  0.6095  1.0764
   31MOL0     C 4024   6.864   8.094   5.746 -0.5997 -0.5373 -0.0294
   31MOL0     C 4025   6.128   8.391   5.937  1.4941 -0.1829  0.9100
   31MOL0     C 4026   5.998   8.398   5.987  0.4779 -0.2012  0.5324
   31MOL0     H 4027   5.562   8.548   6.243 -3.5397  0.8286  2.7745
   31MOL0     H 4028   5.383   8.443   6.346  0.5464 -0.1817  0.4248
   31MOL0     H 4029   5.254   7.980   6.246  0.3938 -0.1979  0.3048
   31MOL0     H 4030   5.228   8.107   6.114 -0.7191  1.1877  0.9236
   31MOL0     H 4031   5.009   8.166   6.204  1.4958  1.5037  0.4447
   31MOL0     H 4032   5.054   8.117   6.363 -0.4216 -1.1745 -0.1165
   31MOL0     H 4033   5.060   7.868   6.274  1.9122  1.9986  0.0890
   31MOL0     H 4034   4.986   7.944   6.133  3.4814  0.5405 -0.2705
   31MOL0     H 4035   4.857   8.014   6.398  0.6191 -0.2839  0.4076
   31MOL0     H 4036   4.799   8.043   6.236 -1.3920  0.3137  0.2932
   31MOL0     H 4037   4.688   7.849   6.363 -0.4410 -2.2579 -1.2584
   31MOL0     H 4038   4.845   7.781   6.385  0.9648  0.0989 -0.2755
   31MOL0     H 4039   4.722   7.665   6.195 -0.5171 -0.8780  1.0389
   31MOL0     H 4040   4.874   7.736   6.148  0.2953  3.2922 -1.0167
   31MOL0     H 4041   4.737   7.932   6.054 -1.8537  0.1702  0.5631
   31MOL0     H 4042   4.713   7.779   5.971 -3.3092 -2.6792  1.4733
   31MOL0     H 4043   4.501   7.909   6.008  0.0220 -0.7801 -0.5079
   31MOL0     H 4044   4.531   7.905   6.186  0.3640 -2.0918  1.7038
   31MOL0     H 4045   4.487   7.640   5.889 -2.0152 -3.0444 -0.1006
   31MOL0     H 4046   4.338   7.351   6.029  2.2637  1.6551  2.3813
   31MOL0     H 4047   4.324   7.442   5.876  0.7171  1.0805 -0.0579
   31MOL0     H 4048   4.113   7.534   5.997  1.6687  0.6229  1.0498
   31MOL0     H 4049   4.117   7.390   6.099 -0.5196  1.9028  0.4442
   31MOL0     H 4050   3.961   7.358   5.904  0.4387  1.5223 -1.3779
   31MOL0     H 4051   4.093   7.396   5.796 -2.5301  2.0928  0.4919
   31MOL0     H 4052   4.213   7.200   5.867  0.9737 -0.3215  1.5415
   31MOL0     H 4053   4.054   7.144   5.814  0.7429  0.4893 -1.1744
   31MOL0     H 4054   4.321   7.044   5.944 -2.6426  0.9331 -1.4638
   31MOL0     H 4055   4.510   6.990   6.129 -0.1009  0.2826  0.5014
   31MOL0     H 4056   4.665   7.094   6.596  3.0255 -1.1131 -0.7072
   31MOL0     H 4057   4.816   6.979   6.765 -1.1617 -0.1544  2.2068
   31MOL0     H 4058   4.938   6.757   7.005  1.2410  2.3090  0.1759
   31MOL0     H 4059   4.896   6.902   6.920 -2.2510  0.4805 -0.3927
   31MOL0     H 4060   5.003   6.781   6.709 -0.5965  1.4544  1.2459
   31MOL0     H 4061   5.046   6.641   6.800 -0.4124 -1.0413 -0.2604
   31MOL0     H 4062   5.197   6.771   6.940  1.0356 -3.1268 -1.0701
   31MOL0     H 4063   5.160   6.923   6.854  1.6159 -0.4859 -2.5062
   31MOL0     H 4064   5.310   6.682   6.747  1.0571 -0.1636 -1.4703
   31MOL0     H 4065   5.239   6.809   6.642  0.5382  0.9699  0.0755
   31MOL0     H 4066   5.441   6.860   6.863 -1.3981  0.0721  0.4711
   31MOL0     H 4067   5.354   6.978   6.768 -3.5113 -1.5911  1.2376
   31MOL0     H 4068   5.574   6.932   6.664 -1.3168  0.1221  1.1500
   31MOL0     H 4069   5.460   6.886   6.551  0.1939  0.5245 -0.0184
   31MOL0     H 4070   5.485   6.656   6.602 -1.1941 -0.3688  2.9731
   31MOL0     H 4071   5.650   6.721   6.584  0.4190  2.3968  0.6785
   31MOL0     H 4072   5.628   6.548   6.739 -0.4637  1.2485 -2.1855
   31MOL0     H 4073   5.493   6.628   6.830  0.1259 -0.8511 -0.4858
   31MOL0     H 4074   4.550   6.647   6.778 -4.5151  0.2508 -0.6382
   31MOL0     H 4075   4.388   6.776   6.649 -1.0131  2.7666 -1.6718
   31MOL0     H 4076   4.263   7.126   6.427 -0.8137 -0.0658 -0.6142
   31MOL0     H 4077   4.092   7.167   6.282  0.4505 -2.2022  1.0480
   31MOL0     H 4078   5.458   8.072   6.141  0.3390 -0.3717  3.5265
   31MOL0     H 4079   5.657   8.179   6.031  0.5171 -1.2157  1.5400
   31MOL0     H 4080   6.054   8.594   6.256 -1.1882  0.3878 -0.4783
   31MOL0     H 4081   6.267   8.613   6.153  0.6785  0.6615 -2.0208
   31MOL0     H 4082   6.472   8.469   5.775  1.5842 -1.3215  1.9819
   31MOL0     H 4083   6.307   8.450   5.741  0.4604  1.3158  0.3529
   31MOL0     H 4084   6.359   8.228   5.914  0.2049  1.7007  0.8926
   31MOL0     H 4085   6.353   8.210   5.742 -0.6520  2.3419 -0.8083
   31MOL0     H 4086   6.613   8.302   5.864  0.3587  0.6962 -1.5429
   31MOL0     H 4087   6.581   8.275   5.691 -1.5371  0.0049 -0.6402
   31MOL0     H 4088   6.592   8.051   5.892  1.0563 -1.0608 -0.8523
   31MOL0     H 4089   6.552   8.042   5.710  0.7415 -0.1218 -0.9356
   31MOL0     H 4090   6.970   8.099   5.727 -0.3084  0.5016  1.6448
   31MOL0     H 4091   6.148   8.331   5.849  1.1559  0.0297  0.6838
   31MOL0     H 4092   5.928   8.346   5.922 -1.3449  1.5257  1.0456
   32MOL0     O 4093   2.940   8.678   9.920  0.3356  0.4871  0.8244
   32MOL0     C 4094   2.848   8.710   9.998  0.2493 -0.0939 -0.6140
   32MOL0     O 4095   2.730   8.635  10.029 -0.0991 -0.3250  0.2914
   32MOL0     C 4096   2.698   8.525   9.952  0.1025  0.5594 -0.2181
   32MOL0     C 4097   2.632   8.420  10.022 -0.0421 -0.3788 -0.3053
   32MOL0     C 4098   2.584   8.315   9.953  0.8342 -0.4922 -0.4014
   32MOL0     C 4099   2.583   8.308   9.810  0.0066 -0.1511  0.3865
   32MOL0     O 4100   2.511   8.202   9.759 -0.7717 -0.7052 -0.0419
   32MOL0     C 4101   2.551   8.163   9.624  1.0986 -0.5252 -0.4795
   32MOL0     C 4102   2.472   8.041   9.587  0.1764  0.2915  0.1208
   32MOL0     C 4103   2.330   8.074   9.551 -0.4664  0.2937 -0.5742
   32MOL0     C 4104   2.248   7.947   9.520 -0.4427 -0.3587 -0.2787
   32MOL0     C 4105   2.105   7.991   9.476 -1.1985  0.5327  0.4990
   32MOL0     C 4106   2.014   7.870   9.499  0.1498 -0.2911 -0.4261
   32MOL0     C 4107   1.866   7.910   9.469 -0.2096  0.4240 -0.2349
   32MOL0     C 4108   1.834   7.933   9.323  0.4469 -0.5925 -0.3721
   32MOL0     N 4109   1.711   7.866   9.284 -0.2171  0.1058  0.2166
   32MOL0     C 4110   1.586   7.908   9.301  0.2999 -0.0066 -0.7116
   32MOL0     C 4111   1.506   7.813   9.262  0.2325  0.3264 -0.0931
   32MOL0     C 4112   1.356   7.813   9.269  1.1351 -0.7054 -0.2653
   32MOL0     C 4113   1.280   7.758   9.148  1.1358  0.5708 -0.5700
   32MOL0     C 4114   1.315   7.822   9.015 -0.1155 -0.6040  0.4055
   32MOL0     C 4115   1.244   7.948   8.984 -0.1731  0.3658 -0.1720
   32MOL0     O 4116   1.267   8.056   9.081  0.0232  0.1235  0.3231
   32MOL0     C 4117   1.391   8.122   9.081 -0.2835  0.2119  0.2091
   32MOL0     C 4118   1.424   8.196   9.199  0.6452  0.2735 -0.4016
   32MOL0     C 4119   1.547   8.258   9.221 -0.0008  0.3872  0.3336
   32MOL0     C 4120   1.644   8.249   9.110 -0.0857  0.1506  0.2180
   32MOL0     C 4121   1.779   8.312   9.121 -0.2380 -0.2048  0.1706
   32MOL0     O 4122   1.805   8.382   9.234  0.5347  0.8977 -0.3568
   32MOL0     C 4123   1.926   8.434   9.264  0.1628 -0.3985  0.2357
   32MOL0     C 4124   2.041   8.361   9.301  0.6943 -0.5060  0.0367
   32MOL0     C 4125   2.163   8.422   9.329  0.6822  0.2894  0.0034
   32MOL0     C 4126   2.171   8.565   9.316  0.0331  0.8407  0.0761
   32MOL0     O 4127   2.292   8.620   9.331  0.1349 -0.1051  0.6052
   32MOL0     C 4128   2.303   8.760   9.315 -0.4819  0.3460  0.2346
   32MOL0     C 4129   2.442   8.791   9.277 -0.5390  0.6580  0.5947
   32MOL0     C 4130   2.535   8.764   9.398  0.7126 -0.8658  0.2178
   32MOL0     C 4131   2.678   8.769   9.355 -0.6263 -0.2636 -0.5838
   32MOL0     C 4132   2.770   8.757   9.482 -0.9742 -0.4038  1.1025
   32MOL0     C 4133   2.909   8.804   9.445 -0.3152 -0.8815  1.1801
   32MOL0     C 4134   3.007   8.775   9.557  0.4425  0.2860  0.2352
   32MOL0     C 4135   3.043   8.902   9.637  0.3476 -0.7276  0.1131
   32MOL0    Cl 4136   2.896   8.983   9.705 -0.6069  0.0834  0.1907
   32MOL0     C 4137   2.057   8.641   9.285 -0.3606 -0.1729 -0.1203
   32MOL0     C 4138   1.938   8.572   9.269  0.1114  0.6989  0.6524
   32MOL0     O 4139   1.861   8.296   9.032  1.0708 -0.1581 -0.8025
   32MOL0     C 4140   1.613   8.175   8.993 -0.3604  0.1528 -0.5449
   32MOL0     C 4141   1.491   8.116   8.981 -0.4030  0.7333 -0.1543
   32MOL0     N 4142   1.577   7.706   9.217 -0.9970 -0.4388 -0.0900
   32MOL0     N 4143   1.697   7.729   9.247 -0.2921 -0.8105  0.4457
   32MOL0     C 4144   2.646   8.415   9.734  0.0772  0.2580  0.2140
   32MOL0     C 4145   2.706   8.517   9.812 -0.5289  0.4750  0.2347
   32MOL0     C 4146   2.881   8.827  10.085  0.3000 -0.3949  0.1750
   32MOL0     C 4147   3.003   8.893  10.076 -0.4861 -0.4196  0.0563
   32MOL0     C 4148   3.038   8.999  10.159  0.9568 -0.1026  0.4617
   32MOL0     C 4149   2.939   9.052  10.250  0.3918  0.4778 -0.6391
   32MOL0     O 4150   2.958   9.160  10.334 -0.0301  0.2079  1.0158
   32MOL0     C 4151   2.968   9.277  10.254 -0.6289  0.0002  0.0482
   32MOL0     C 4152   3.090   9.356  10.295 -0.2430 -0.1380  0.5641
   32MOL0     C 4153   3.222   9.275  10.264  0.2332 -0.8174 -0.4868
   32MOL0     C 4154   3.347   9.358  10.306  0.4088 -0.6981  0.4634
   32MOL0     C 4155   3.468   9.281  10.280  1.4454 -0.3501  0.3817
   32MOL0     C 4156   3.574   9.222  10.262  0.3604  1.0777  0.7019
   32MOL0     C 4157   2.819   8.981  10.269  0.1393  0.4215  0.6957
   32MOL0     C 4158   2.794   8.871  10.186 -0.8911  0.6837  0.2084
   32MOL0     H 4159   2.626   8.439  10.129  1.9533  0.4593 -0.2989
   32MOL0     H 4160   2.540   8.231  10.006  3.0415 -0.7359  1.1526
   32MOL0     H 4161   2.658   8.140   9.620  1.5556  1.3950 -0.5069
   32MOL0     H 4162   2.518   8.242   9.556 -1.1329  1.2971  2.4691
   32MOL0     H 4163   2.468   7.968   9.669  0.6318 -1.0743 -1.0270
   32MOL0     H 4164   2.514   7.982   9.504 -1.7427 -2.4355  0.9372
   32MOL0     H 4165   2.335   8.132   9.459  1.1776 -1.9641 -2.0286
   32MOL0     H 4166   2.282   8.135   9.628 -0.6214 -1.2357  0.5962
   32MOL0     H 4167   2.300   7.896   9.439  4.2041  1.6430  1.1060
   32MOL0     H 4168   2.257   7.881   9.606  2.7551 -0.4330 -0.5560
   32MOL0     H 4169   2.105   8.032   9.375 -2.2954  1.2885  0.7855
   32MOL0     H 4170   2.067   8.061   9.551  2.3503  0.3080  2.7066
   32MOL0     H 4171   2.020   7.828   9.600 -1.1099  1.7506  0.5700
   32MOL0     H 4172   2.026   7.785   9.432 -1.2951  0.1282 -1.2521
   32MOL0     H 4173   1.802   7.825   9.494  1.1609 -0.7080 -0.4376
   32MOL0     H 4174   1.814   7.985   9.530  0.2342  1.2521 -0.8476
   32MOL0     H 4175   1.919   7.907   9.259  0.2132  1.4235 -1.5816
   32MOL0     H 4176   1.815   8.040   9.316 -1.6729 -0.9419 -0.3916
   32MOL0     H 4177   1.551   8.005   9.336 -0.0622 -0.0298 -1.0056
   32MOL0     H 4178   1.314   7.911   9.293 -1.8350 -2.1194  0.8206
   32MOL0     H 4179   1.331   7.755   9.359 -0.3228  2.1529  1.3093
   32MOL0     H 4180   1.172   7.775   9.159  1.1269  2.0112 -2.3956
   32MOL0     H 4181   1.292   7.650   9.141 -1.1778  0.3329 -1.7938
   32MOL0     H 4182   1.424   7.835   9.009  0.4901 -1.7326  5.2142
   32MOL0     H 4183   1.277   7.752   8.940 -0.8150 -0.5373  0.6947
   32MOL0     H 4184   1.137   7.928   8.979 -0.2824  0.8952 -0.0031
   32MOL0     H 4185   1.276   7.990   8.888  0.8740  1.7248  0.7270
   32MOL0     H 4186   1.341   8.208   9.268 -0.7782 -1.1410 -1.7699
   32MOL0     H 4187   1.566   8.307   9.315 -0.4360 -0.4159  0.8546
   32MOL0     H 4188   2.042   8.253   9.293  0.8852 -0.4383 -1.0414
   32MOL0     H 4189   2.261   8.376   9.339  0.9692  0.9495  0.2976
   32MOL0     H 4190   2.272   8.813   9.406 -0.1207 -1.1673  1.2685
   32MOL0     H 4191   2.241   8.801   9.234  0.8136  0.1889 -0.8733
   32MOL0     H 4192   2.453   8.898   9.257  0.6392  0.3025 -0.8381
   32MOL0     H 4193   2.478   8.733   9.192  0.0047  0.2493  1.0916
   32MOL0     H 4194   2.510   8.663   9.429 -1.0044 -0.4664  0.2072
   32MOL0     H 4195   2.511   8.831   9.481 -1.3193  0.4387 -1.3047
   32MOL0     H 4196   2.694   8.699   9.273 -0.7450 -0.7543 -0.1913
   32MOL0     H 4197   2.692   8.870   9.315 -2.3196 -0.7783 -2.5916
   32MOL0     H 4198   2.769   8.653   9.518  0.8628 -0.4452  1.1407
   32MOL0     H 4199   2.734   8.825   9.560 -1.7934  2.7809 -1.8521
   32MOL0     H 4200   2.904   8.910   9.419 -2.5830 -1.8340 -3.2683
   32MOL0     H 4201   2.930   8.747   9.354  0.6993 -3.4562  2.8917
   32MOL0     H 4202   2.968   8.697   9.623 -0.6134  0.6181  0.0098
   32MOL0     H 4203   3.102   8.743   9.512  1.9482 -0.9945  3.9310
   32MOL0     H 4204   3.105   8.963   9.572 -0.1626 -1.7450 -1.4015
   32MOL0     H 4205   3.116   8.873   9.713  1.5110  3.7052  0.9347
   32MOL0     H 4206   2.042   8.749   9.291 -1.9650 -0.4342  2.1238
   32MOL0     H 4207   1.847   8.630   9.261  0.3756  0.9122 -1.1729
   32MOL0     H 4208   1.686   8.165   8.913 -0.3507 -1.0521 -0.4004
   32MOL0     H 4209   1.483   8.063   8.886  2.6596 -2.0964  0.9279
   32MOL0     H 4210   2.651   8.416   9.626 -1.8538  2.3347  0.0625
   32MOL0     H 4211   2.758   8.596   9.758 -0.5117 -0.1417 -0.6534
   32MOL0     H 4212   3.070   8.850  10.001  1.0871  0.5544  0.8361
   32MOL0     H 4213   3.126   9.058  10.133 -0.1866  2.4151  1.8792
   32MOL0     H 4214   2.879   9.335  10.280 -0.5562 -1.1623  3.3316
   32MOL0     H 4215   2.959   9.262  10.146 -1.7310  1.5235 -0.1093
   32MOL0     H 4216   3.093   9.450  10.241 -2.8288  1.1350  2.4307
   32MOL0     H 4217   3.080   9.379  10.402  0.6955  2.2451  0.1988
   32MOL0     H 4218   3.230   9.256  10.157  0.6814  0.4754 -0.7067
   32MOL0     H 4219   3.227   9.184  10.324 -0.0616 -1.1074 -0.8973
   32MOL0     H 4220   3.347   9.447  10.242 -2.0232 -0.9096  0.0531
   32MOL0     H 4221   3.336   9.386  10.411 -1.8442 -0.6227  0.2623
   32MOL0     H 4222   3.663   9.168  10.238  0.8255  2.1089  0.0122
   32MOL0     H 4223   2.742   9.027  10.331  0.0978  2.0298 -0.4781
   32MOL0     H 4224   2.697   8.821  10.197 -1.3071  1.5153  0.4010
   33MOL0     O 4225  10.163   2.256   5.120  0.0413  0.1661 -0.3435
   33MOL0     C 4226  10.163   2.179   5.217  0.1585  0.5486  0.4408
   33MOL0     O 4227  10.050   2.140   5.281  0.3932  0.6033 -0.2365
   33MOL0     C 4228   9.926   2.189   5.239 -1.1648  0.0221 -0.0606
   33MOL0     C 4229   9.866   2.142   5.126 -0.6662 -0.0189  0.4461
   33MOL0     C 4230   9.742   2.189   5.075  0.0007 -0.2006  1.1424
   33MOL0     C 4231   9.670   2.284   5.144  0.5806  0.9571  0.3638
   33MOL0     O 4232   9.552   2.324   5.091  0.4238  0.1135 -0.0240
   33MOL0     C 4233   9.474   2.425   5.164  0.2558 -0.0148  0.0748
   33MOL0     C 4234   9.357   2.485   5.077  0.3882  0.0332 -0.3333
   33MOL0     C 4235   9.424   2.575   4.973  0.2416 -0.1907 -0.0145
   33MOL0     C 4236   9.310   2.640   4.884 -0.8331  0.5643 -0.8122
   33MOL0     C 4237   9.358   2.739   4.776 -0.1718 -0.6767 -0.2690
   33MOL0     C 4238   9.256   2.846   4.742 -0.0099  0.9681 -0.0849
   33MOL0     C 4239   9.309   2.919   4.613  0.1784 -0.1561  0.1300
   33MOL0     C 4240   9.201   3.016   4.548  0.3184  0.0142  0.2078
   33MOL0     N 4241   9.115   2.923   4.471 -0.5192 -0.0041 -0.0424
   33MOL0     C 4242   9.111   2.931   4.338 -0.7196 -0.2606  0.4799
   33MOL0     C 4243   9.007   2.858   4.296  0.6494  0.2829  0.4428
   33MOL0     C 4244   8.986   2.837   4.145  0.4227  0.0133 -0.9788
   33MOL0     C 4245   8.925   2.966   4.090 -0.1998 -0.0806 -0.4597
   33MOL0     C 4246   8.788   3.007   4.150  0.4931  0.2114 -0.6835
   33MOL0     C 4247   8.739   3.124   4.077 -0.2844 -0.1374 -0.2061
   33MOL0     O 4248   8.692   3.091   3.947 -0.0288  0.5033 -0.3467
   33MOL0     C 4249   8.560   3.057   3.925 -1.0648 -0.8254  0.6389
   33MOL0     C 4250   8.471   3.006   4.024  0.8511 -0.3176 -0.6222
   33MOL0     C 4251   8.335   2.988   3.998 -0.3096  0.6725  0.8593
   33MOL0     C 4252   8.292   2.986   3.861  0.6193  0.0658  0.7466
   33MOL0     C 4253   8.145   2.961   3.820 -0.0145  0.0115 -0.9993
   33MOL0     O 4254   8.076   2.898   3.911 -0.2541 -0.0915 -1.4075
   33MOL0     C 4255   7.947   2.846   3.900 -0.3824 -0.2426 -0.1256
   33MOL0     C 4256   7.852   2.896   3.810  0.7214  0.0210 -0.7020
   33MOL0     C 4257   7.722   2.856   3.823  0.0823  0.3044  0.8122
   33MOL0     C 4258   7.689   2.774   3.935 -0.4347  0.0796  0.1098
   33MOL0     O 4259   7.556   2.732   3.951 -0.0796 -0.6524  0.4185
   33MOL0     C 4260   7.447   2.825   3.924 -0.3622  0.3841  0.2327
   33MOL0     C 4261   7.313   2.772   3.970  0.0072 -0.1862  0.3556
   33MOL0     C 4262   7.279   2.645   3.895  0.0837 -0.0036 -0.1076
   33MOL0     C 4263   7.132   2.603   3.911  0.4646  0.0667  0.2395
   33MOL0     C 4264   7.095   2.463   3.862 -0.1023  0.0983  0.6349
   33MOL0     C 4265   6.943   2.428   3.881 -0.4062 -0.1771 -0.5070
   33MOL0     C 4266   6.926   2.284   3.854  0.2689  0.4040 -0.3673
   33MOL0     C 4267   6.776   2.238   3.849  0.3281  0.4761 -0.6445
   33MOL0    Cl 4268   6.787   2.068   3.898  0.1805  0.6395 -0.2135
   33MOL0     C 4269   7.779   2.734   4.032  0.0134 -0.2629 -1.0276
   33MOL0     C 4270   7.907   2.775   4.012  0.1267 -0.3467 -0.3739
   33MOL0     O 4271   8.112   2.984   3.704 -0.3874  0.0780 -0.0581
   33MOL0     C 4272   8.389   3.004   3.762  0.2340 -0.0490  0.9996
   33MOL0     C 4273   8.521   3.038   3.788  0.7061 -0.1235  0.3293
   33MOL0     N 4274   8.950   2.791   4.410  0.2886 -0.0755 -0.2427
   33MOL0     N 4275   9.023   2.832   4.508  0.5624  0.0468 -0.1297
   33MOL0     C 4276   9.738   2.342   5.264 -0.8426  0.0544 -0.4678
   33MOL0     C 4277   9.859   2.287   5.316  0.3827 -0.9927  0.3790
   33MOL0     C 4278  10.296   2.127   5.265  0.5738  1.1156 -0.2188
   33MOL0     C 4279  10.303   2.049   5.379 -0.4306  0.2466 -0.2910
   33MOL0     C 4280  10.426   2.022   5.444 -0.5163  0.3257 -0.2544
   33MOL0     C 4281  10.548   2.077   5.393 -0.3720 -0.4397 -0.4019
   33MOL0     O 4282  10.667   2.049   5.446 -1.3921  0.8672 -0.0691
   33MOL0     C 4283  10.759   2.159   5.470 -0.5154  0.3226  0.5671
   33MOL0     C 4284  10.831   2.141   5.598 -0.1136  0.1950 -0.3545
   33MOL0     C 4285  10.744   2.144   5.726 -0.7911  0.2546 -0.0666
   33MOL0     C 4286  10.829   2.109   5.847 -0.2381 -0.3359  0.3070
   33MOL0     C 4287  10.779   2.180   5.965 -0.4675  0.2688  0.6182
   33MOL0     C 4288  10.757   2.251   6.063 -1.3472  0.1291 -0.5350
   33MOL0     C 4289  10.534   2.161   5.276 -0.0664  0.0255 -0.3952
   33MOL0     C 4290  10.412   2.190   5.223  0.1311  0.0012  0.4842
   33MOL0     H 4291   9.918   2.078   5.056  2.2033  3.4249 -0.9170
   33MOL0     H 4292   9.705   2.148   4.982  1.9521 -1.2733  0.7822
   33MOL0     H 4293   9.536   2.504   5.207 -0.3639 -0.5279  2.0475
   33MOL0     H 4294   9.427   2.378   5.251 -0.0080 -2.8378 -1.5050
   33MOL0     H 4295   9.288   2.542   5.139  1.5835 -0.0433  1.1397
   33MOL0     H 4296   9.303   2.407   5.023  0.4679  0.9161 -1.7290
   33MOL0     H 4297   9.498   2.515   4.918 -0.9852 -1.5388 -0.2604
   33MOL0     H 4298   9.475   2.658   5.022  3.7440 -1.8557 -0.4731
   33MOL0     H 4299   9.252   2.561   4.836 -1.3036  2.0622 -2.8537
   33MOL0     H 4300   9.245   2.687   4.958 -1.1804 -1.7053  0.4049
   33MOL0     H 4301   9.373   2.672   4.691 -1.6796 -0.7608 -0.5115
   33MOL0     H 4302   9.452   2.788   4.800 -0.4381  1.1218 -2.5176
   33MOL0     H 4303   9.263   2.907   4.832  3.5911  1.2232 -0.3966
   33MOL0     H 4304   9.158   2.798   4.731  0.9334 -0.6015 -2.4085
   33MOL0     H 4305   9.390   2.987   4.641  0.9059 -1.2276  0.6351
   33MOL0     H 4306   9.343   2.846   4.540 -4.5406 -0.6942 -1.8573
   33MOL0     H 4307   9.250   3.090   4.485  3.1980 -2.9863 -1.4030
   33MOL0     H 4308   9.144   3.066   4.627  0.3026  3.1353 -1.6176
   33MOL0     H 4309   9.178   2.983   4.270 -2.0036 -0.3866 -0.9363
   33MOL0     H 4310   8.917   2.753   4.134 -2.3431  2.3270 -2.6857
   33MOL0     H 4311   9.082   2.813   4.098  1.5429 -0.6571  1.4907
   33MOL0     H 4312   8.913   2.961   3.981 -0.8331  0.5216 -0.4318
   33MOL0     H 4313   8.987   3.054   4.110  0.9481 -1.3401  1.8766
   33MOL0     H 4314   8.724   2.919   4.139  4.0666 -2.5528 -1.0472
   33MOL0     H 4315   8.809   3.043   4.251  4.0299 -0.9111 -0.9008
   33MOL0     H 4316   8.827   3.188   4.063  0.3664 -0.6586  1.2887
   33MOL0     H 4317   8.662   3.165   4.141 -1.8824 -0.8563 -1.5852
   33MOL0     H 4318   8.495   3.016   4.129 -3.4439  0.3108  0.4967
   33MOL0     H 4319   8.265   2.984   4.081  0.3134  1.2955  1.4317
   33MOL0     H 4320   7.881   2.947   3.719 -0.9807  1.7892 -0.3164
   33MOL0     H 4321   7.650   2.885   3.747 -1.7422  0.6254  2.5728
   33MOL0     H 4322   7.437   2.853   3.818 -2.2075  3.0971  1.0148
   33MOL0     H 4323   7.466   2.916   3.980 -1.4785 -0.1496  1.5172
   33MOL0     H 4324   7.239   2.848   3.942  2.5254  2.9758  1.5838
   33MOL0     H 4325   7.305   2.755   4.077 -0.7568 -1.0118  0.1805
   33MOL0     H 4326   7.344   2.566   3.935  0.8048  0.3765 -0.5186
   33MOL0     H 4327   7.311   2.647   3.791  2.1406  0.6584  0.4755
   33MOL0     H 4328   7.102   2.606   4.016  0.9977 -0.0667  0.4003
   33MOL0     H 4329   7.060   2.663   3.855 -3.0868 -2.1333  2.1072
   33MOL0     H 4330   7.156   2.389   3.916  3.0527  1.1524 -1.1931
   33MOL0     H 4331   7.132   2.454   3.760  0.6649 -0.3028  0.9381
   33MOL0     H 4332   6.892   2.490   3.807 -0.2068  2.3162  1.3447
   33MOL0     H 4333   6.906   2.446   3.982  2.4021 -1.3251  0.8351
   33MOL0     H 4334   6.967   2.255   3.756 -0.6486 -0.7094 -0.4451
   33MOL0     H 4335   6.975   2.246   3.944  0.2059 -2.5077 -1.4354
   33MOL0     H 4336   6.748   2.250   3.744 -0.9554 -2.1594 -0.6669
   33MOL0     H 4337   6.723   2.300   3.921 -0.3034  2.8064 -2.9441
   33MOL0     H 4338   7.740   2.679   4.116  1.3450  1.0270  0.4964
   33MOL0     H 4339   7.988   2.758   4.083 -0.6183 -3.4487 -0.1020
   33MOL0     H 4340   8.375   2.979   3.657  1.9755 -1.1593  0.9883
   33MOL0     H 4341   8.597   3.063   3.715 -0.4146  1.7053 -0.2899
   33MOL0     H 4342   9.694   2.427   5.315  2.3376  0.3020  2.1690
   33MOL0     H 4343   9.901   2.333   5.405  1.4774 -1.1098 -0.0578
   33MOL0     H 4344  10.218   1.995   5.421 -0.0856  0.2558  0.4285
   33MOL0     H 4345  10.421   1.955   5.529 -3.2786 -0.2671 -0.7870
   33MOL0     H 4346  10.707   2.254   5.457 -0.1859  0.3314 -0.8158
   33MOL0     H 4347  10.838   2.164   5.395  0.0005 -0.2480  1.0580
   33MOL0     H 4348  10.879   2.043   5.599  0.6560  0.5657 -0.1908
   33MOL0     H 4349  10.901   2.224   5.611  0.0757 -0.1793  1.2493
   33MOL0     H 4350  10.660   2.076   5.714 -1.1388  0.4864  0.9022
   33MOL0     H 4351  10.716   2.250   5.734  3.3648  1.4533  1.3369
   33MOL0     H 4352  10.832   2.004   5.878 -0.8442 -0.3124  0.4490
   33MOL0     H 4353  10.934   2.133   5.825 -0.8590  1.2574 -1.2217
   33MOL0     H 4354  10.743   2.302   6.156 -1.2156  0.2962 -0.6070
   33MOL0     H 4355  10.621   2.211   5.236  0.1682 -1.5195 -1.9168
   33MOL0     H 4356  10.399   2.253   5.136  0.5793 -0.1654  0.2942
   34MOL0     O 4357  10.102   1.916   0.114 -0.1590  0.4797  0.2886
   34MOL0     C 4358  10.148   1.842   0.200 -0.8795  0.2724 -0.4577
   34MOL0     O 4359  10.130   1.847   0.336  0.0038 -0.6311  0.6943
   34MOL0     C 4360  10.046   1.938   0.380 -0.1106 -1.0826 -0.6982
   34MOL0     C 4361  10.101   2.063   0.427  0.0070  1.3627  0.7173
   34MOL0     C 4362  10.020   2.157   0.472  0.3164 -0.3668  0.0322
   34MOL0     C 4363   9.881   2.118   0.495 -0.5027 -0.1299  0.8468
   34MOL0     O 4364   9.782   2.200   0.531 -0.1473 -0.1138  0.4799
   34MOL0     C 4365   9.796   2.344   0.496 -0.9120  0.7607  0.1774
   34MOL0     C 4366   9.674   2.415   0.550  0.4461  0.0174  0.6658
   34MOL0     C 4367   9.551   2.394   0.450 -0.8292  0.3055  0.7026
   34MOL0     C 4368   9.429   2.433   0.515  0.6834 -0.1861 -0.2561
   34MOL0     C 4369   9.310   2.354   0.450  0.1638 -0.5641 -0.4460
   34MOL0     C 4370   9.302   2.408   0.304 -0.1690  0.0757  0.0718
   34MOL0     C 4371   9.170   2.371   0.236 -0.2860  0.0897 -0.0298
   34MOL0     C 4372   9.169   2.221   0.189 -0.0073 -0.4448  1.1172
   34MOL0     N 4373   9.033   2.172   0.216 -0.5324 -0.2226 -0.7003
   34MOL0     C 4374   8.923   2.211   0.143  0.8702 -0.1354 -0.2053
   34MOL0     C 4375   8.822   2.146   0.206  0.1597  1.1725  0.5617
   34MOL0     C 4376   8.680   2.159   0.165  0.1349 -0.5751  0.8785
   34MOL0     C 4377   8.632   2.299   0.193  0.0292  0.6576  0.3064
   34MOL0     C 4378   8.493   2.304   0.143 -0.3827 -0.2870  0.5726
   34MOL0     C 4379   8.429   2.440   0.153 -0.2919 -0.4384  0.0239
   34MOL0     O 4380   8.326   2.435   0.058  0.0635  0.0693 -0.3504
   34MOL0     C 4381   8.234   2.533   0.052  0.7798 -0.7819  0.0193
   34MOL0     C 4382   8.125   2.512  -0.026 -0.2891 -0.2560 -0.2013
   34MOL0     C 4383   8.020   2.610  -0.030 -0.2621  0.2960 -0.2281
   34MOL0     C 4384   8.024   2.732   0.039  0.1686  0.7128 -0.0833
   34MOL0     C 4385   7.902   2.824   0.052 -0.0827  1.0998  0.0289
   34MOL0     O 4386   7.917   2.935   0.124  0.1584  0.7150 -0.1205
   34MOL0     C 4387   7.809   3.020   0.107  0.9181 -0.3180  0.5585
   34MOL0     C 4388   7.694   3.013   0.184  0.2217  0.1736  0.5296
   34MOL0     C 4389   7.593   3.102   0.171 -0.6939  0.4361  0.1595
   34MOL0     C 4390   7.594   3.200   0.074 -0.5957 -0.3052  1.2571
   34MOL0     O 4391   7.502   3.291   0.046  0.6375 -0.0003 -0.2877
   34MOL0     C 4392   7.367   3.267   0.090  0.1740  0.2803  0.7984
   34MOL0     C 4393   7.275   3.389   0.065  0.0637  0.3812 -0.0624
   34MOL0     C 4394   7.137   3.357   0.088 -0.5034 -0.0600  0.3998
   34MOL0     C 4395   7.057   3.490   0.057  0.1812 -0.1098  0.2014
   34MOL0     C 4396   6.908   3.479   0.094  0.0305  0.9301 -0.4173
   34MOL0     C 4397   6.835   3.606   0.031 -0.4751  0.2126 -0.3009
   34MOL0     C 4398   6.679   3.586   0.033 -0.2751  0.0413 -0.6432
   34MOL0     C 4399   6.608   3.521  -0.088 -0.4016 -0.3356 -0.2768
   34MOL0    Cl 4400   6.613   3.343  -0.073  0.1319  0.1308 -0.0246
   34MOL0     C 4401   7.711   3.208  -0.010  0.3689 -0.0838 -0.4354
   34MOL0     C 4402   7.815   3.118   0.004 -0.2000  0.1353 -0.2086
   34MOL0     O 4403   7.801   2.797  -0.012  0.2293 -0.4080 -0.0217
   34MOL0     C 4404   8.141   2.755   0.117 -0.4828  0.4980  0.2396
   34MOL0     C 4405   8.248   2.661   0.103 -0.2391 -0.6868  0.0944
   34MOL0     N 4406   8.870   2.084   0.324  0.0669  0.8445  0.0679
   34MOL0     N 4407   8.994   2.108   0.333 -0.7516 -0.3377  0.2941
   34MOL0     C 4408   9.833   1.997   0.458  0.6013 -1.3578 -0.2429
   34MOL0     C 4409   9.917   1.906   0.410 -0.0066 -0.0613  0.7450
   34MOL0     C 4410  10.243   1.734   0.162  0.4789  0.7826  0.1850
   34MOL0     C 4411  10.267   1.706   0.028 -0.7396  0.3335  0.8048
   34MOL0     C 4412  10.359   1.596  -0.004  0.0535  0.9104 -0.4958
   34MOL0     C 4413  10.435   1.530   0.098  0.3960  0.2549 -0.0334
   34MOL0     O 4414  10.522   1.436   0.067 -1.1777 -0.2371  0.1323
   34MOL0     C 4415  10.489   1.344  -0.042 -1.4388 -0.1735  0.4318
   34MOL0     C 4416  10.590   1.229  -0.041  0.3127 -0.8890 -1.0046
   34MOL0     C 4417  10.733   1.284  -0.030  0.5142  0.3391  0.2510
   34MOL0     C 4418  10.836   1.181  -0.072  0.1228 -0.2346  0.2409
   34MOL0     C 4419  10.853   1.071   0.019  0.0485  0.1909 -0.1302
   34MOL0     C 4420  10.866   0.977   0.092 -0.1887 -0.3230  0.2233
   34MOL0     C 4421  10.409   1.565   0.226  0.0684 -0.4436  0.3667
   34MOL0     C 4422  10.314   1.664   0.268  0.3050 -0.2842  0.8168
   34MOL0     H 4423  10.208   2.083   0.422 -0.1800  2.1250 -1.1026
   34MOL0     H 4424  10.051   2.259   0.496 -0.0101 -0.2063 -0.2150
   34MOL0     H 4425   9.817   2.362   0.390 -0.1663  4.0224  0.7652
   34MOL0     H 4426   9.887   2.380   0.544 -1.0138  0.3082  0.7171
   34MOL0     H 4427   9.687   2.521   0.573 -0.6813  0.2576  0.2349
   34MOL0     H 4428   9.651   2.368   0.647 -0.5292  0.0262  0.4492
   34MOL0     H 4429   9.543   2.289   0.422 -1.8168  1.1587 -2.6238
   34MOL0     H 4430   9.571   2.453   0.360  0.3699 -1.4599 -0.2490
   34MOL0     H 4431   9.446   2.403   0.618  0.7181 -2.3841 -0.8551
   34MOL0     H 4432   9.406   2.539   0.503 -1.7243 -0.6551 -0.4432
   34MOL0     H 4433   9.215   2.368   0.502  0.1014  1.3420 -0.9953
   34MOL0     H 4434   9.330   2.246   0.456 -1.4813 -0.8680  0.1110
   34MOL0     H 4435   9.383   2.362   0.248 -0.8644 -1.6858  0.4598
   34MOL0     H 4436   9.303   2.517   0.289 -0.9642 -0.0073 -0.6691
   34MOL0     H 4437   9.086   2.388   0.303  0.7064  1.2623  0.9802
   34MOL0     H 4438   9.156   2.434   0.148  1.6090 -0.0686 -0.4994
   34MOL0     H 4439   9.245   2.160   0.238  0.8761  0.1107  0.4804
   34MOL0     H 4440   9.188   2.213   0.082  1.5812  1.8820  1.1470
   34MOL0     H 4441   8.900   2.260   0.049 -0.9291  1.4011  0.9390
   34MOL0     H 4442   8.622   2.081   0.215  0.3094 -0.4398  1.2995
   34MOL0     H 4443   8.675   2.124   0.061  0.2780 -0.7596  0.9313
   34MOL0     H 4444   8.691   2.367   0.131 -1.0240  1.8523  0.5775
   34MOL0     H 4445   8.641   2.328   0.298 -2.1034  2.4662  0.0597
   34MOL0     H 4446   8.501   2.266   0.041 -2.4996 -2.3270  1.0900
   34MOL0     H 4447   8.435   2.226   0.194 -0.0093 -0.3520  0.8956
   34MOL0     H 4448   8.503   2.514   0.123  0.9069 -1.4632  0.3553
   34MOL0     H 4449   8.409   2.468   0.257  1.4267  1.1560 -0.0275
   34MOL0     H 4450   8.110   2.425  -0.089 -2.3066  0.5797 -0.9752
   34MOL0     H 4451   7.928   2.569  -0.071 -0.9095 -0.7559  2.0697
   34MOL0     H 4452   7.691   2.935   0.259 -0.7470 -0.7919 -0.4813
   34MOL0     H 4453   7.512   3.089   0.242 -0.5496 -2.3505 -0.0915
   34MOL0     H 4454   7.347   3.238   0.194 -0.9074 -2.6522 -0.1254
   34MOL0     H 4455   7.324   3.190   0.025  1.2709 -0.0514  0.4525
   34MOL0     H 4456   7.290   3.423  -0.037  0.6647  1.3762  0.3487
   34MOL0     H 4457   7.308   3.470   0.130  1.6281  0.0244 -0.3819
   34MOL0     H 4458   7.110   3.325   0.189 -4.5849 -0.9407 -0.7846
   34MOL0     H 4459   7.112   3.280   0.014  0.1778 -0.7257  0.8417
   34MOL0     H 4460   7.094   3.573   0.118  0.3459 -0.9930  1.3332
   34MOL0     H 4461   7.076   3.518  -0.047  0.2090 -0.6816  0.0522
   34MOL0     H 4462   6.899   3.470   0.203 -2.3570 -0.9761 -0.6973
   34MOL0     H 4463   6.863   3.393   0.043 -1.8521  0.8677  1.2373
   34MOL0     H 4464   6.860   3.619  -0.075  4.4877  3.2588  0.9190
   34MOL0     H 4465   6.879   3.694   0.078 -0.4850  0.0364  0.0390
   34MOL0     H 4466   6.647   3.535   0.125 -0.7211  0.5998 -0.4850
   34MOL0     H 4467   6.640   3.688   0.027 -0.1185  0.1995  0.7520
   34MOL0     H 4468   6.673   3.550  -0.171  0.7923 -0.1289  0.7121
   34MOL0     H 4469   6.509   3.566  -0.104 -0.3872 -0.6326 -1.3013
   34MOL0     H 4470   7.709   3.286  -0.085 -1.6875  1.5157  1.1496
   34MOL0     H 4471   7.906   3.116  -0.055  0.0918 -0.6877  0.2346
   34MOL0     H 4472   8.146   2.838   0.188 -2.2770 -0.5549  1.6833
   34MOL0     H 4473   8.337   2.677   0.163  0.7153 -2.1049 -0.8898
   34MOL0     H 4474   9.727   1.978   0.467  0.0809 -0.1650 -2.9458
   34MOL0     H 4475   9.879   1.804   0.412  0.0093 -0.2020 -2.0124
   34MOL0     H 4476  10.215   1.754  -0.054 -2.7571 -0.8741  1.3181
   34MOL0     H 4477  10.381   1.566  -0.107  2.4835 -4.1266  1.1346
   34MOL0     H 4478  10.508   1.401  -0.133  1.8392 -2.4886 -0.5233
   34MOL0     H 4479  10.386   1.309  -0.036 -2.6382  3.0991  0.9881
   34MOL0     H 4480  10.573   1.174   0.052  0.2721 -1.7510 -1.5105
   34MOL0     H 4481  10.578   1.158  -0.124  2.1659 -1.7480 -0.6011
   34MOL0     H 4482  10.748   1.328   0.068 -0.9228  3.7102 -0.9006
   34MOL0     H 4483  10.738   1.364  -0.104  1.4614  1.3158  1.3310
   34MOL0     H 4484  10.822   1.149  -0.176 -0.5543  0.1972  0.1880
   34MOL0     H 4485  10.929   1.238  -0.075 -2.1358  3.8313 -1.7468
   34MOL0     H 4486  10.864   0.899   0.165 -3.9226  0.2012  0.8901
   34MOL0     H 4487  10.469   1.517   0.303  1.3569 -1.3050 -1.1315
   34MOL0     H 4488  10.300   1.684   0.373 -1.5209  1.2696  0.3245
   35MOL0     O 4489   0.439   6.653   7.571  0.4076 -0.8024 -0.5797
   35MOL0     C 4490   0.469   6.536   7.543 -0.4089  0.4927 -0.4081
   35MOL0     O 4491   0.386   6.429   7.522 -0.4110  0.5782 -0.1726
   35MOL0     C 4492   0.248   6.441   7.549 -0.9398  0.0630  0.3578
   35MOL0     C 4493   0.169   6.381   7.449 -0.1271  1.0563  0.6963
   35MOL0     C 4494   0.026   6.395   7.447 -0.7120  0.5277  0.0561
   35MOL0     C 4495  -0.028   6.457   7.560  1.0408  0.1269  0.1237
   35MOL0     O 4496  -0.162   6.467   7.575 -0.2366 -0.6511 -0.0642
   35MOL0     C 4497  -0.247   6.403   7.487 -0.0174  0.2420 -1.0435
   35MOL0     C 4498  -0.391   6.422   7.533  0.1147 -0.0939  0.4773
   35MOL0     C 4499  -0.503   6.340   7.462  0.1851  0.1351 -0.8183
   35MOL0     C 4500  -0.508   6.355   7.307  0.4768  0.2976  0.5950
   35MOL0     C 4501  -0.593   6.248   7.246 -0.8615 -0.0713 -0.2744
   35MOL0     C 4502  -0.742   6.274   7.253 -0.5591 -0.2622  0.2373
   35MOL0     C 4503  -0.817   6.150   7.196  0.6386  0.1193 -0.5403
   35MOL0     C 4504  -0.960   6.186   7.144 -0.6068  0.5785 -0.1689
   35MOL0     N 4505  -1.040   6.075   7.098 -0.1731  0.0999 -0.3676
   35MOL0     C 4506  -1.007   5.996   6.987 -0.1066 -0.2290  0.2302
   35MOL0     C 4507  -1.114   5.920   6.964  0.1401 -0.4310 -0.1396
   35MOL0     C 4508  -1.137   5.829   6.848 -0.1628  0.0779  0.6924
   35MOL0     C 4509  -1.287   5.841   6.804  0.1363 -0.2543 -0.1805
   35MOL0     C 4510  -1.320   5.977   6.739 -0.0390 -0.1894 -0.0607
   35MOL0     C 4511  -1.468   5.987   6.705  0.6895  0.9500 -0.0515
   35MOL0     O 4512  -1.536   6.009   6.825  0.7937  0.1407  0.4792
   35MOL0     C 4513  -1.660   6.077   6.831 -0.6544  0.1586 -0.4657
   35MOL0     C 4514  -1.703   6.118   6.958  0.3684  0.2766 -0.2765
   35MOL0     C 4515  -1.812   6.200   6.974  0.9868 -0.0248  0.0886
   35MOL0     C 4516  -1.895   6.230   6.870 -0.0978 -0.5118 -0.2864
   35MOL0     C 4517  -2.019   6.305   6.892 -0.2656 -0.3421  0.4755
   35MOL0     O 4518  -2.083   6.351   6.778 -0.3223  0.5588  0.5567
   35MOL0     C 4519  -2.215   6.366   6.755  0.9503 -0.3621  0.1054
   35MOL0     C 4520  -2.251   6.450   6.648 -0.3716 -0.4975 -0.3371
   35MOL0     C 4521  -2.388   6.482   6.629 -0.6016 -0.4981 -0.3347
   35MOL0     C 4522  -2.488   6.420   6.697  0.3434  0.4153  0.5693
   35MOL0     O 4523  -2.626   6.445   6.688  0.3587  0.5494 -0.6874
   35MOL0     C 4524  -2.673   6.515   6.568 -0.0014  0.6257 -0.0830
   35MOL0     C 4525  -2.825   6.561   6.571  1.0335 -0.1006 -0.7944
   35MOL0     C 4526  -2.871   6.607   6.437  0.6111  0.2042  0.1225
   35MOL0     C 4527  -2.999   6.687   6.446 -0.9646  0.9542 -0.0877
   35MOL0     C 4528  -3.067   6.684   6.317 -0.6478 -0.1288  0.6044
   35MOL0     C 4529  -3.194   6.776   6.315 -0.5127  0.0626  0.3264
   35MOL0     C 4530  -3.138   6.918   6.335  0.1733 -0.6366  0.1223
   35MOL0     C 4531  -3.244   7.019   6.300  0.4845 -0.7287 -0.2559
   35MOL0    Cl 4532  -3.178   7.180   6.264  0.2463 -0.6107 -0.3289
   35MOL0     C 4533  -2.448   6.333   6.800  0.0563  0.0826 -0.2262
   35MOL0     C 4534  -2.318   6.306   6.834 -0.3536  0.1049 -0.5306
   35MOL0     O 4535  -2.063   6.315   7.005  0.1931 -0.0687  0.6324
   35MOL0     C 4536  -1.856   6.183   6.743 -1.4445  0.8090 -0.5069
   35MOL0     C 4537  -1.735   6.102   6.724  0.6659  0.3581  0.1376
   35MOL0     N 4538  -1.197   5.939   7.079  0.2388  0.0986  0.8790
   35MOL0     N 4539  -1.157   6.041   7.143 -0.0192  0.7429 -0.0360
   35MOL0     C 4540   0.051   6.499   7.666 -0.3270  0.4627 -0.2323
   35MOL0     C 4541   0.190   6.501   7.659 -0.5297 -0.0721 -0.2392
   35MOL0     C 4542   0.616   6.506   7.556 -0.6431 -0.3518  0.1339
   35MOL0     C 4543   0.710   6.610   7.589 -0.3642  0.6758  0.4837
   35MOL0     C 4544   0.848   6.579   7.595 -0.1706  0.1910 -1.1423
   35MOL0     C 4545   0.897   6.449   7.583  0.2876  0.1266  0.1938
   35MOL0     O 4546   1.027   6.408   7.600 -0.0183  0.1905  0.6777
   35MOL0     C 4547   1.093   6.444   7.722 -0.9736  0.4555 -0.4302
   35MOL0     C 4548   1.190   6.331   7.774  0.0054 -0.0316 -0.2725
   35MOL0     C 4549   1.124   6.182   7.779  0.6542  0.0468 -0.0524
   35MOL0     C 4550   1.189   6.084   7.876 -0.3026 -0.4042 -0.4146
   35MOL0     C 4551   1.332   6.053   7.849 -0.2394 -0.5813 -0.8952
   35MOL0     C 4552   1.446   6.040   7.824 -0.3153  0.6269 -0.5415
   35MOL0     C 4553   0.804   6.346   7.553 -0.4144  0.1299  0.6676
   35MOL0     C 4554   0.664   6.377   7.536  0.1337  0.0178 -0.2995
   35MOL0     H 4555   0.211   6.336   7.360 -4.1814 -1.3912 -0.2534
   35MOL0     H 4556  -0.030   6.366   7.359 -2.0654 -1.6522  1.5273
   35MOL0     H 4557  -0.221   6.297   7.491 -2.6795 -0.4671 -0.3584
   35MOL0     H 4558  -0.235   6.452   7.390  0.2845  0.8663 -0.6967
   35MOL0     H 4559  -0.414   6.525   7.504  1.6258 -0.6753 -3.2845
   35MOL0     H 4560  -0.404   6.391   7.637 -1.6364 -2.1980 -0.2919
   35MOL0     H 4561  -0.602   6.374   7.493  1.5654  3.7664  0.2512
   35MOL0     H 4562  -0.498   6.234   7.486  3.2043  0.1884 -0.8138
   35MOL0     H 4563  -0.550   6.451   7.278 -2.4143 -0.3070  2.4044
   35MOL0     H 4564  -0.404   6.337   7.276  0.5849  1.7244  0.0871
   35MOL0     H 4565  -0.572   6.153   7.295  3.2512  0.2621 -1.0654
   35MOL0     H 4566  -0.571   6.240   7.140 -1.4401  2.1121 -0.6097
   35MOL0     H 4567  -0.760   6.367   7.197 -2.7903 -1.5016 -1.2579
   35MOL0     H 4568  -0.773   6.284   7.357  3.0892  1.5242  1.3484
   35MOL0     H 4569  -0.769   6.111   7.106 -1.2399  1.8766 -2.4405
   35MOL0     H 4570  -0.823   6.069   7.268  2.8652 -1.3261 -1.8835
   35MOL0     H 4571  -0.960   6.258   7.061 -0.5770 -3.1508 -3.7311
   35MOL0     H 4572  -1.016   6.222   7.230 -0.3901  1.6023 -0.4454
   35MOL0     H 4573  -0.933   6.000   6.908 -2.5464 -2.2301 -2.3716
   35MOL0     H 4574  -1.116   5.728   6.886 -0.9953 -0.5656 -0.5130
   35MOL0     H 4575  -1.062   5.854   6.773 -0.2102  0.1675  0.6753
   35MOL0     H 4576  -1.345   5.823   6.895  0.5060  0.9075  0.3046
   35MOL0     H 4577  -1.298   5.761   6.730 -0.1615  0.9092 -1.4269
   35MOL0     H 4578  -1.282   6.067   6.789  0.1663  0.8260 -1.9592
   35MOL0     H 4579  -1.267   5.986   6.644  0.3055  2.5230  0.3145
   35MOL0     H 4580  -1.506   5.902   6.647 -3.4981  0.7186  2.5643
   35MOL0     H 4581  -1.480   6.081   6.649 -1.7761  2.2434  2.3985
   35MOL0     H 4582  -1.643   6.073   7.037 -1.5305  0.8741  1.5607
   35MOL0     H 4583  -1.828   6.231   7.076  0.5797 -1.0644  0.3442
   35MOL0     H 4584  -2.165   6.488   6.594  0.4392  0.4893  1.5298
   35MOL0     H 4585  -2.410   6.571   6.570  2.5320  2.4842  2.5098
   35MOL0     H 4586  -2.672   6.449   6.482 -3.2226  1.3656 -0.8283
   35MOL0     H 4587  -2.619   6.607   6.547 -0.5923  1.5031  1.9146
   35MOL0     H 4588  -2.838   6.642   6.644 -0.2116  2.0681 -3.2330
   35MOL0     H 4589  -2.884   6.472   6.595  1.5135  0.0019  0.8782
   35MOL0     H 4590  -2.883   6.522   6.370 -1.8852  0.7253 -0.1963
   35MOL0     H 4591  -2.800   6.677   6.391  0.5776  0.8238  0.9845
   35MOL0     H 4592  -3.060   6.638   6.522 -1.6523  0.7945 -0.7309
   35MOL0     H 4593  -2.970   6.786   6.481  0.1197  0.6331 -0.0444
   35MOL0     H 4594  -3.086   6.578   6.298  1.4306 -0.4599  0.0607
   35MOL0     H 4595  -3.003   6.720   6.235 -1.1061 -0.0574  0.2749
   35MOL0     H 4596  -3.275   6.751   6.384 -0.1616  0.8940  1.0666
   35MOL0     H 4597  -3.234   6.777   6.213  2.1133  1.0415 -0.7915
   35MOL0     H 4598  -3.107   6.939   6.438 -0.0098 -1.4826  0.3647
   35MOL0     H 4599  -3.046   6.935   6.280  1.6487 -2.7441  1.7489
   35MOL0     H 4600  -3.319   7.026   6.379 -0.2510 -0.1392 -0.9939
   35MOL0     H 4601  -3.294   6.983   6.210 -0.3730 -1.3212  0.4397
   35MOL0     H 4602  -2.528   6.288   6.857  0.0840 -0.1454 -0.3683
   35MOL0     H 4603  -2.302   6.246   6.924  0.8179 -0.5157 -1.1266
   35MOL0     H 4604  -1.920   6.194   6.657 -1.1431  1.6793 -0.6254
   35MOL0     H 4605  -1.702   6.062   6.628  0.7081  0.1045  0.2564
   35MOL0     H 4606   0.004   6.542   7.753 -1.6792 -1.0430 -0.1709
   35MOL0     H 4607   0.255   6.543   7.736  0.9665 -1.9974 -0.3661
   35MOL0     H 4608   0.687   6.716   7.595  1.7923  1.1545  1.1076
   35MOL0     H 4609   0.920   6.650   7.634 -1.6220  0.9337  0.3173
   35MOL0     H 4610   1.020   6.467   7.801 -1.5461 -1.3366 -0.3926
   35MOL0     H 4611   1.155   6.533   7.707  1.2713 -1.0698 -0.7811
   35MOL0     H 4612   1.278   6.333   7.709  0.8728  2.5535  0.8232
   35MOL0     H 4613   1.239   6.355   7.869  1.4452 -2.9954 -0.1284
   35MOL0     H 4614   1.137   6.132   7.683  0.4847  0.5941 -0.3689
   35MOL0     H 4615   1.019   6.180   7.809  1.0652 -1.4381  1.4074
   35MOL0     H 4616   1.178   6.128   7.976  0.3933 -1.0823 -0.0268
   35MOL0     H 4617   1.129   5.993   7.878 -1.5504  0.2179 -3.5512
   35MOL0     H 4618   1.551   6.029   7.806  0.4664  1.7957  2.6397
   35MOL0     H 4619   0.836   6.244   7.531 -1.7211 -0.4978  1.5399
   35MOL0     H 4620   0.596   6.296   7.515  0.8015 -0.8791  0.8632
   36MOL0     O 4621   0.838   2.507   1.387  0.4898 -0.5764  0.0236
   36MOL0     C 4622   0.899   2.584   1.456 -0.1824 -0.1426 -0.0749
   36MOL0     O 4623   0.864   2.719   1.474  0.2268 -0.1396  0.2415
   36MOL0     C 4624   0.748   2.763   1.424  0.0895  0.0095  0.0033
   36MOL0     C 4625   0.625   2.695   1.411 -0.7433 -0.0932  0.7131
   36MOL0     C 4626   0.518   2.766   1.351  0.7019 -0.0028 -0.0530
   36MOL0     C 4627   0.522   2.901   1.309 -0.4426  0.2473  0.3499
   36MOL0     O 4628   0.415   2.951   1.243 -0.1452  0.4782 -0.1713
   36MOL0     C 4629   0.432   3.091   1.203  0.9349  0.8380  0.6295
   36MOL0     C 4630   0.313   3.123   1.112  0.0121  0.5225 -1.0264
   36MOL0     C 4631   0.183   3.113   1.190 -0.0835 -0.3523  0.5305
   36MOL0     C 4632   0.072   3.145   1.089 -0.2991 -1.0480  0.1012
   36MOL0     C 4633  -0.066   3.137   1.145  0.6904  0.3588 -0.6746
   36MOL0     C 4634  -0.174   3.186   1.043 -0.3524  0.7103 -0.2170
   36MOL0     C 4635  -0.306   3.184   1.112  0.4586 -0.3566 -0.1169
   36MOL0     C 4636  -0.408   3.250   1.023  0.2164  0.3261 -0.4890
   36MOL0     N 4637  -0.543   3.219   1.085 -0.7432  0.8766 -0.5676
   36MOL0     C 4638  -0.600   3.233   1.216 -0.6480 -0.2206 -0.3183
   36MOL0     C 4639  -0.728   3.192   1.209 -0.1242  0.2610 -0.3278
   36MOL0     C 4640  -0.841   3.170   1.314 -0.4904 -0.2411  0.6524
   36MOL0     C 4641  -0.950   3.280   1.293 -0.4606  0.0239 -0.0830
   36MOL0     C 4642  -1.050   3.275   1.177  0.0899 -0.6704  0.6766
   36MOL0     C 4643  -1.132   3.147   1.163  0.6013  0.0268 -0.3620
   36MOL0     O 4644  -1.208   3.130   1.286  0.0484 -0.0129  0.8046
   36MOL0     C 4645  -1.299   3.227   1.315  0.6288  0.8146  0.9883
   36MOL0     C 4646  -1.347   3.249   1.447 -0.7761  0.0854  0.8068
   36MOL0     C 4647  -1.463   3.317   1.475  0.4729 -0.1692  0.0583
   36MOL0     C 4648  -1.532   3.382   1.377  0.1442  0.9550  0.2672
   36MOL0     C 4649  -1.663   3.454   1.406 -0.1287 -0.1788  0.0171
   36MOL0     O 4650  -1.734   3.505   1.304 -0.0437 -1.2592 -0.1208
   36MOL0     C 4651  -1.864   3.549   1.318 -0.5420 -0.2509  0.6798
   36MOL0     C 4652  -1.914   3.588   1.194  0.0154  0.1426 -0.2749
   36MOL0     C 4653  -2.037   3.656   1.181  0.8183 -0.2260 -0.4583
   36MOL0     C 4654  -2.118   3.671   1.296  0.0309  0.6274 -0.8205
   36MOL0     O 4655  -2.211   3.763   1.311 -0.1093  1.0561  0.0432
   36MOL0     C 4656  -2.273   3.846   1.212  0.1551 -0.3883 -0.1728
   36MOL0     C 4657  -2.411   3.905   1.255 -0.3603 -0.0923 -0.2349
   36MOL0     C 4658  -2.432   3.927   1.402  0.6664 -0.2180 -0.2983
   36MOL0     C 4659  -2.583   3.979   1.416  0.4912  1.0371  0.4659
   36MOL0     C 4660  -2.635   3.982   1.554  0.3613 -0.2133  0.0286
   36MOL0     C 4661  -2.636   3.841   1.631  0.2060 -0.4541  0.6047
   36MOL0     C 4662  -2.758   3.772   1.594  1.1070 -0.3404 -0.0693
   36MOL0     C 4663  -2.770   3.634   1.644  0.5452  0.1321  0.3085
   36MOL0    Cl 4664  -2.932   3.555   1.628  0.2298 -0.0586  0.4650
   36MOL0     C 4665  -2.069   3.620   1.419 -0.2729 -0.2433 -0.4115
   36MOL0     C 4666  -1.940   3.571   1.428 -0.1909  0.5900 -0.3798
   36MOL0     O 4667  -1.696   3.451   1.521  0.4807  0.0953 -0.1045
   36MOL0     C 4668  -1.486   3.369   1.250  0.3603 -0.0883 -0.2744
   36MOL0     C 4669  -1.379   3.286   1.219 -0.5789  0.3078  1.3322
   36MOL0     N 4670  -0.752   3.160   1.085  0.1084  0.8385  0.5562
   36MOL0     N 4671  -0.652   3.188   1.007 -0.5036 -0.0081 -0.7061
   36MOL0     C 4672   0.652   2.962   1.322  0.2323  0.8598  0.0097
   36MOL0     C 4673   0.757   2.892   1.384  0.5264 -0.8678 -0.6655
   36MOL0     C 4674   1.031   2.533   1.495  0.5014 -0.2152  0.3193
   36MOL0     C 4675   1.095   2.585   1.606 -0.3431 -0.5270 -0.2992
   36MOL0     C 4676   1.229   2.551   1.637  0.4966 -0.0576 -0.0726
   36MOL0     C 4677   1.298   2.462   1.556  0.5344  0.4108  0.0019
   36MOL0     O 4678   1.427   2.411   1.594  0.0345  0.6787  0.0970
   36MOL0     C 4679   1.506   2.478   1.689  0.2211 -0.4432 -0.0398
   36MOL0     C 4680   1.648   2.425   1.693 -0.3394  1.0510 -0.4260
   36MOL0     C 4681   1.690   2.350   1.820  0.4610 -0.0962 -0.2855
   36MOL0     C 4682   1.843   2.322   1.823 -0.4669 -0.6702 -0.2491
   36MOL0     C 4683   1.867   2.210   1.731 -0.0995  0.3044  0.6976
   36MOL0     C 4684   1.881   2.116   1.658 -0.8728  1.0906 -0.2841
   36MOL0     C 4685   1.239   2.409   1.439  0.5448  0.6264 -0.8307
   36MOL0     C 4686   1.107   2.441   1.416 -0.1668  0.0547  0.3851
   36MOL0     H 4687   0.621   2.590   1.437 -1.6558  0.1640  1.6876
   36MOL0     H 4688   0.427   2.711   1.325  0.1723  1.0111 -0.3967
   36MOL0     H 4689   0.517   3.106   1.135 -0.4696  2.4896 -0.8726
   36MOL0     H 4690   0.426   3.155   1.292  0.1072  0.8582  0.5653
   36MOL0     H 4691   0.316   3.048   1.033  0.4824  0.2910 -0.7938
   36MOL0     H 4692   0.325   3.225   1.075  1.6242  0.0379 -1.9698
   36MOL0     H 4693   0.174   3.178   1.278 -0.8814  1.9558 -1.1733
   36MOL0     H 4694   0.187   3.009   1.224  2.8035  0.0161  1.6597
   36MOL0     H 4695   0.088   3.247   1.053 -0.4748 -0.1918  2.3323
   36MOL0     H 4696   0.086   3.077   1.004  0.2746 -2.3704  1.2181
   36MOL0     H 4697  -0.067   3.207   1.229  1.2145 -0.4272  0.0027
   36MOL0     H 4698  -0.091   3.035   1.177 -1.5976  1.2100  0.4745
   36MOL0     H 4699  -0.165   3.129   0.950  1.5376  0.5315  0.0260
   36MOL0     H 4700  -0.156   3.290   1.015  0.0728  1.1905  1.7153
   36MOL0     H 4701  -0.325   3.078   1.134  0.6464 -0.6455 -1.2730
   36MOL0     H 4702  -0.303   3.251   1.198  0.1158  1.5057 -1.5055
   36MOL0     H 4703  -0.400   3.222   0.918  2.9630 -0.1001 -0.2194
   36MOL0     H 4704  -0.394   3.358   1.017 -0.6949  0.4711 -0.2745
   36MOL0     H 4705  -0.554   3.278   1.303 -1.6973  1.5523 -0.6341
   36MOL0     H 4706  -0.795   3.179   1.413  3.5455  0.3889 -1.1003
   36MOL0     H 4707  -0.886   3.070   1.314 -0.5158 -0.2362  1.6093
   36MOL0     H 4708  -0.901   3.377   1.288  1.3244 -0.7641  1.1913
   36MOL0     H 4709  -1.016   3.280   1.381 -0.2820  0.4523  0.0470
   36MOL0     H 4710  -1.120   3.357   1.198  2.1971  0.9911  1.5134
   36MOL0     H 4711  -0.990   3.284   1.087 -1.3522 -1.2412 -0.3873
   36MOL0     H 4712  -1.068   3.058   1.167 -1.6860 -1.6759  1.1730
   36MOL0     H 4713  -1.190   3.152   1.071  0.4615 -2.4550 -0.4578
   36MOL0     H 4714  -1.307   3.200   1.535 -0.8638 -0.1382  0.7222
   36MOL0     H 4715  -1.489   3.338   1.579 -0.6182 -1.9922  0.2015
   36MOL0     H 4716  -1.865   3.578   1.098  1.5535  3.3974  0.0430
   36MOL0     H 4717  -2.082   3.682   1.087  0.4148  2.3572  0.3749
   36MOL0     H 4718  -2.292   3.788   1.121 -1.5487  0.8855 -0.6795
   36MOL0     H 4719  -2.207   3.927   1.180 -0.4631 -0.1764 -0.9245
   36MOL0     H 4720  -2.491   3.841   1.214 -0.1704 -0.7213  0.3573
   36MOL0     H 4721  -2.418   4.009   1.221 -2.0021  1.4389  4.1482
   36MOL0     H 4722  -2.367   4.007   1.440  2.1725 -1.5153 -0.0173
   36MOL0     H 4723  -2.414   3.830   1.449 -0.1016 -0.6136 -0.8011
   36MOL0     H 4724  -2.587   4.075   1.365 -1.3450  0.4025 -0.6885
   36MOL0     H 4725  -2.664   3.925   1.366  0.9414  0.9004 -0.1483
   36MOL0     H 4726  -2.733   4.030   1.551 -1.3788 -3.4668  0.4023
   36MOL0     H 4727  -2.564   4.042   1.611  0.1704 -0.5937  0.6819
   36MOL0     H 4728  -2.642   3.855   1.739  0.3053 -0.2501  0.5829
   36MOL0     H 4729  -2.548   3.782   1.602 -1.2686 -1.2734 -2.8369
   36MOL0     H 4730  -2.844   3.827   1.633 -0.0742 -1.4350 -1.0675
   36MOL0     H 4731  -2.766   3.768   1.485  1.2083  0.3659 -0.1102
   36MOL0     H 4732  -2.740   3.617   1.747  1.8506 -1.0271 -0.2393
   36MOL0     H 4733  -2.703   3.580   1.577 -1.8440  0.7244 -2.8286
   36MOL0     H 4734  -2.123   3.644   1.510  1.1530 -1.0928  0.6952
   36MOL0     H 4735  -1.916   3.545   1.531 -1.0248  1.2216 -0.0151
   36MOL0     H 4736  -1.543   3.415   1.170 -0.1028  1.0963  0.7135
   36MOL0     H 4737  -1.356   3.287   1.112 -0.2839  3.1524  1.3397
   36MOL0     H 4738   0.671   3.067   1.303  1.4766  0.4886 -0.8626
   36MOL0     H 4739   0.850   2.946   1.396 -0.2891  0.3206  0.6308
   36MOL0     H 4740   1.052   2.665   1.666 -0.8392 -1.1011  0.1233
   36MOL0     H 4741   1.275   2.590   1.727  1.3843 -2.2171  0.4767
   36MOL0     H 4742   1.463   2.471   1.789 -0.4507  4.0919  0.2065
   36MOL0     H 4743   1.512   2.584   1.664 -0.2326 -0.1439  1.0737
   36MOL0     H 4744   1.661   2.368   1.600 -1.0563  1.0554 -0.5382
   36MOL0     H 4745   1.713   2.509   1.669  1.7970 -0.4539 -0.1417
   36MOL0     H 4746   1.640   2.253   1.822  1.4364 -0.6031  0.5539
   36MOL0     H 4747   1.651   2.408   1.905  1.0327  2.8083 -1.8730
   36MOL0     H 4748   1.899   2.409   1.789 -0.1931 -1.3871 -1.7698
   36MOL0     H 4749   1.883   2.307   1.923  0.1195  1.7834 -0.0599
   36MOL0     H 4750   1.907   2.032   1.596  0.2235  1.8274 -0.8575
   36MOL0     H 4751   1.295   2.335   1.383  1.5132 -1.1469  2.1987
   36MOL0     H 4752   1.061   2.393   1.330 -1.8863  0.4953  1.0155
   37MOL0     O 4753   1.575   7.303   3.897  0.0937 -0.1113 -0.0022
   37MOL0     C 4754   1.552   7.198   3.966  0.1991 -0.2227  0.1695
   37MOL0     O 4755   1.437   7.134   3.979  0.7998  0.2925  0.3610
   37MOL0     C 4756   1.322   7.191   3.919  1.0909  0.7293 -0.4870
   37MOL0     C 4757   1.232   7.278   3.983 -0.5673  0.4117  0.0321
   37MOL0     C 4758   1.113   7.311   3.925 -0.6057 -0.0177  0.4573
   37MOL0     C 4759   1.100   7.284   3.786  0.9493  0.1105 -0.4418
   37MOL0     O 4760   0.987   7.318   3.713 -0.1398 -0.6798 -0.0316
   37MOL0     C 4761   1.001   7.357   3.574 -0.2405 -0.3783 -0.4265
   37MOL0     C 4762   0.890   7.463   3.535 -1.1728  0.2135 -0.5920
   37MOL0     C 4763   0.753   7.398   3.548  0.1841 -0.1852 -0.1132
   37MOL0     C 4764   0.637   7.500   3.514 -1.0001  0.5805 -0.0668
   37MOL0     C 4765   0.490   7.437   3.516 -0.5141 -0.4632  0.2529
   37MOL0     C 4766   0.443   7.363   3.389  0.1643 -0.2306 -0.0556
   37MOL0     C 4767   0.292   7.329   3.382 -0.7905 -0.4705 -0.4245
   37MOL0     C 4768   0.207   7.457   3.365 -0.4444 -0.1397 -0.7315
   37MOL0     N 4769   0.066   7.422   3.341  0.3366  1.1022 -1.1100
   37MOL0     C 4770   0.017   7.349   3.235 -0.4756  0.3986 -0.0370
   37MOL0     C 4771  -0.106   7.321   3.265  0.2648  0.3834 -0.5055
   37MOL0     C 4772  -0.204   7.254   3.179 -0.3018  0.2055  0.1675
   37MOL0     C 4773  -0.272   7.132   3.238 -0.1087  0.0490 -0.3829
   37MOL0     C 4774  -0.374   7.162   3.349  0.9298  0.2982  0.0847
   37MOL0     C 4775  -0.505   7.226   3.303  0.2330 -0.9317  0.5953
   37MOL0     O 4776  -0.572   7.284   3.413  0.0014  0.0751  1.1034
   37MOL0     C 4777  -0.690   7.349   3.393 -0.4305 -0.2376  0.6719
   37MOL0     C 4778  -0.808   7.270   3.406  0.0965 -1.0582  0.0260
   37MOL0     C 4779  -0.924   7.338   3.399 -0.1858  0.0043  0.3905
   37MOL0     C 4780  -0.934   7.474   3.373 -0.4764  0.4603  0.0927
   37MOL0     C 4781  -1.069   7.538   3.364 -0.4822  0.0489 -0.0920
   37MOL0     O 4782  -1.172   7.457   3.326 -0.2084 -0.3752 -0.3220
   37MOL0     C 4783  -1.308   7.501   3.336 -1.0347  0.1345  0.5928
   37MOL0     C 4784  -1.362   7.595   3.417  0.2693  0.2549 -0.2708
   37MOL0     C 4785  -1.504   7.615   3.419  0.6401 -0.2316  0.7646
   37MOL0     C 4786  -1.586   7.535   3.338 -1.2539  0.8496 -0.2542
   37MOL0     O 4787  -1.718   7.533   3.357  0.0132 -0.4989 -0.0265
   37MOL0     C 4788  -1.800   7.478   3.260  0.2454  0.3933  0.2808
   37MOL0     C 4789  -1.948   7.496   3.305  0.0217 -0.2635 -0.1368
   37MOL0     C 4790  -2.039   7.430   3.196  0.6661  0.1376  0.4369
   37MOL0     C 4791  -2.192   7.439   3.239 -0.5324  0.0179 -0.4000
   37MOL0     C 4792  -2.285   7.365   3.137  0.1170 -0.2123  0.1782
   37MOL0     C 4793  -2.364   7.464   3.052 -1.0747 -0.1936  0.3938
   37MOL0     C 4794  -2.422   7.391   2.925 -1.1936 -0.2618 -0.4848
   37MOL0     C 4795  -2.522   7.469   2.842  0.3742 -0.0362  0.3807
   37MOL0    Cl 4796  -2.540   7.372   2.688 -0.1829  0.1625 -0.3841
   37MOL0     C 4797  -1.527   7.446   3.249 -0.3633 -0.4469  0.5349
   37MOL0     C 4798  -1.389   7.429   3.248  0.3807  0.2612 -0.3736
   37MOL0     O 4799  -1.078   7.654   3.387  0.1815 -0.2063  0.4174
   37MOL0     C 4800  -0.818   7.543   3.343 -0.2666 -0.8538  0.2185
   37MOL0     C 4801  -0.691   7.482   3.363  0.0628 -0.5686  0.2839
   37MOL0     N 4802  -0.139   7.405   3.359 -0.0141  0.3139 -0.6673
   37MOL0     N 4803  -0.035   7.459   3.415 -0.3162  0.1083 -0.7558
   37MOL0     C 4804   1.190   7.197   3.723  0.1625 -0.5788  0.2031
   37MOL0     C 4805   1.301   7.157   3.788 -0.1036 -0.3085  0.4544
   37MOL0     C 4806   1.665   7.149   4.051 -0.5200  0.4194  0.4858
   37MOL0     C 4807   1.792   7.219   4.058  0.1905  0.7162 -0.4027
   37MOL0     C 4808   1.903   7.175   4.131  0.1164 -0.6562 -1.4482
   37MOL0     C 4809   1.886   7.060   4.207  0.2088 -0.8671 -0.2021
   37MOL0     O 4810   1.982   7.006   4.292 -0.1462 -0.1779 -0.0950
   37MOL0     C 4811   2.117   7.050   4.296 -0.4030 -0.6738 -0.1425
   37MOL0     C 4812   2.184   6.979   4.418  0.2531  0.0797  0.0075
   37MOL0     C 4813   2.333   6.955   4.438 -0.1957 -0.1140  0.1448
   37MOL0     C 4814   2.395   6.871   4.320  1.5370  0.6177 -0.1509
   37MOL0     C 4815   2.318   6.746   4.291 -0.0066 -0.8375  0.7614
   37MOL0     C 4816   2.246   6.651   4.275  0.4365  0.0490  0.8894
   37MOL0     C 4817   1.764   6.993   4.209  0.1138 -0.0556 -0.7029
   37MOL0     C 4818   1.660   7.038   4.136  0.7988  0.3996  0.0932
   37MOL0     H 4819   1.254   7.302   4.086 -0.0156 -0.5008  0.1321
   37MOL0     H 4820   1.030   7.364   3.971 -1.7065 -0.7592 -0.5854
   37MOL0     H 4821   0.984   7.281   3.497 -2.1446  0.5276 -0.9650
   37MOL0     H 4822   1.097   7.402   3.549 -0.9359  1.8600  0.6993
   37MOL0     H 4823   0.917   7.480   3.431 -1.1630  0.6243 -0.5232
   37MOL0     H 4824   0.883   7.554   3.595 -0.9292 -0.6325  0.7649
   37MOL0     H 4825   0.748   7.343   3.642  2.6356  2.3321  1.6261
   37MOL0     H 4826   0.756   7.318   3.473  1.3124 -0.7540  0.5200
   37MOL0     H 4827   0.646   7.579   3.589  0.5227  0.0656  0.3318
   37MOL0     H 4828   0.648   7.540   3.413 -0.6772  2.0427  0.5138
   37MOL0     H 4829   0.425   7.520   3.545 -0.6956 -1.4841  3.0113
   37MOL0     H 4830   0.480   7.382   3.610  3.4035  0.7925  1.6216
   37MOL0     H 4831   0.494   7.266   3.391  4.0628  1.6352 -0.6916
   37MOL0     H 4832   0.466   7.412   3.295  1.8652 -1.4805 -0.3437
   37MOL0     H 4833   0.277   7.269   3.291 -2.7158 -2.6405  1.1869
   37MOL0     H 4834   0.258   7.271   3.469  1.3050  0.7799  1.3031
   37MOL0     H 4835   0.246   7.500   3.272  5.3058  0.7308  1.6722
   37MOL0     H 4836   0.228   7.538   3.436  1.4854 -1.6499  0.5245
   37MOL0     H 4837   0.079   7.320   3.151  0.7522  0.2312  0.8966
   37MOL0     H 4838  -0.140   7.220   3.098  1.5069 -0.5854  1.8511
   37MOL0     H 4839  -0.281   7.322   3.140  1.4997  1.4320 -1.4577
   37MOL0     H 4840  -0.207   7.056   3.283 -1.2929 -0.1741  1.0317
   37MOL0     H 4841  -0.324   7.079   3.159  0.8194 -0.4413 -0.6783
   37MOL0     H 4842  -0.396   7.072   3.408 -1.9555  0.6905 -0.2428
   37MOL0     H 4843  -0.337   7.232   3.425  1.4640  0.9839 -0.8005
   37MOL0     H 4844  -0.570   7.160   3.245 -1.5296  1.9202 -0.9462
   37MOL0     H 4845  -0.473   7.303   3.232  1.4133 -0.0576  2.0162
   37MOL0     H 4846  -0.809   7.162   3.410  2.1869 -1.0929  1.3118
   37MOL0     H 4847  -1.008   7.269   3.407 -0.3175 -0.1125 -1.4591
   37MOL0     H 4848  -1.303   7.649   3.491 -0.8774  0.6784  0.3461
   37MOL0     H 4849  -1.552   7.687   3.485 -1.9449  1.9963 -3.1341
   37MOL0     H 4850  -1.778   7.371   3.260  0.8988  0.5231  0.3388
   37MOL0     H 4851  -1.783   7.521   3.161  0.5602 -3.3529 -1.4670
   37MOL0     H 4852  -1.959   7.603   3.324  0.2384 -0.5945  2.2169
   37MOL0     H 4853  -1.964   7.447   3.402  0.2745  0.8581  0.4948
   37MOL0     H 4854  -2.009   7.325   3.188  0.6499  0.1295  0.4865
   37MOL0     H 4855  -2.030   7.490   3.105 -0.1854 -0.0419  0.2264
   37MOL0     H 4856  -2.212   7.388   3.334 -0.2511 -1.6703 -1.2008
   37MOL0     H 4857  -2.209   7.547   3.241  1.1819  0.3783 -2.1135
   37MOL0     H 4858  -2.359   7.317   3.202  0.8862  0.2126  1.4108
   37MOL0     H 4859  -2.238   7.294   3.068  1.7897  2.4912 -1.6134
   37MOL0     H 4860  -2.304   7.552   3.025  0.8786 -1.6793 -0.3251
   37MOL0     H 4861  -2.449   7.495   3.113 -1.6333 -1.0018  0.0388
   37MOL0     H 4862  -2.345   7.349   2.861 -0.4495 -1.5856  1.1859
   37MOL0     H 4863  -2.476   7.309   2.975 -0.4610  0.6412  1.9642
   37MOL0     H 4864  -2.484   7.567   2.811 -0.3639 -0.4800 -2.2407
   37MOL0     H 4865  -2.616   7.478   2.898 -1.0688  1.1586 -2.0516
   37MOL0     H 4866  -1.580   7.387   3.175 -0.3209  0.0003  0.1432
   37MOL0     H 4867  -1.360   7.337   3.198 -0.8448  0.2084 -0.9993
   37MOL0     H 4868  -0.826   7.648   3.318 -1.0082 -0.5581  1.6594
   37MOL0     H 4869  -0.605   7.545   3.344 -1.7977  0.8895 -4.7171
   37MOL0     H 4870   1.176   7.169   3.620  2.1448 -1.7124  0.1930
   37MOL0     H 4871   1.379   7.099   3.740  2.5683  0.0016  4.0414
   37MOL0     H 4872   1.801   7.306   3.994  0.1216  1.2429  0.2943
   37MOL0     H 4873   1.995   7.231   4.138  0.8188 -1.9014  3.6107
   37MOL0     H 4874   2.118   7.157   4.317 -0.5606 -0.8073  0.5787
   37MOL0     H 4875   2.166   7.019   4.203 -0.2397 -1.1504  0.0973
   37MOL0     H 4876   2.156   7.027   4.512  0.7824  0.2305  0.0925
   37MOL0     H 4877   2.143   6.878   4.432  1.5086 -0.3127  1.1262
   37MOL0     H 4878   2.351   6.907   4.535  0.2072  1.4051  0.8591
   37MOL0     H 4879   2.381   7.053   4.447 -0.9015  0.1837  0.8909
   37MOL0     H 4880   2.397   6.928   4.226  0.8589 -0.7829 -1.0408
   37MOL0     H 4881   2.498   6.848   4.350  1.6993  0.0249 -1.1126
   37MOL0     H 4882   2.166   6.580   4.282 -0.8677  1.6099  2.7745
   37MOL0     H 4883   1.757   6.903   4.269 -1.6064  1.2088  1.1396
   37MOL0     H 4884   1.567   6.983   4.148 -0.5570  2.8165  1.3807
   38MOL0     O 4885   7.952   6.300   7.795 -0.1781 -0.4568  0.5488
   38MOL0     C 4886   8.038   6.321   7.879 -0.8864  0.3461 -0.4786
   38MOL0     O 4887   8.021   6.376   7.999  0.0441 -0.6179  0.2784
   38MOL0     C 4888   7.899   6.439   8.009 -0.5885  0.5766  0.2411
   38MOL0     C 4889   7.898   6.579   7.988  0.2805  0.1547 -0.3452
   38MOL0     C 4890   7.776   6.653   8.004 -0.7137  0.6408 -0.1184
   38MOL0     C 4891   7.658   6.587   8.045 -0.5713 -0.6117 -0.2074
   38MOL0     O 4892   7.540   6.646   8.070  0.4542 -0.8566  0.0774
   38MOL0     C 4893   7.539   6.787   8.081  0.4721 -0.5358 -0.3536
   38MOL0     C 4894   7.396   6.832   8.127 -0.4334 -0.0102  0.9120
   38MOL0     C 4895   7.344   6.778   8.262  0.0681 -0.3246  0.3249
   38MOL0     C 4896   7.198   6.823   8.290 -0.2605 -0.0766 -0.5825
   38MOL0     C 4897   7.156   6.761   8.419  0.4843  1.0381  0.1074
   38MOL0     C 4898   7.021   6.815   8.463 -0.2779  0.0934 -0.3960
   38MOL0     C 4899   6.999   6.773   8.612 -1.4133  0.1790  0.1539
   38MOL0     C 4900   6.901   6.867   8.679  0.5125 -0.2296 -0.1411
   38MOL0     N 4901   6.778   6.863   8.599  0.2114 -0.3221  0.2546
   38MOL0     C 4902   6.691   6.755   8.595  0.4512 -0.3849 -0.4097
   38MOL0     C 4903   6.582   6.807   8.534 -0.2234 -0.4211  0.9193
   38MOL0     C 4904   6.454   6.723   8.509  0.9511 -0.2388  0.4331
   38MOL0     C 4905   6.322   6.790   8.549 -0.7015 -0.1526 -0.3754
   38MOL0     C 4906   6.211   6.685   8.521  0.5975 -0.1314 -0.2896
   38MOL0     C 4907   6.083   6.748   8.467  0.2369 -0.5038  0.0329
   38MOL0     O 4908   6.022   6.850   8.545 -0.2700  0.0056 -0.5574
   38MOL0     C 4909   5.897   6.891   8.500  0.1710  0.8593 -0.1645
   38MOL0     C 4910   5.836   6.880   8.376  0.3159 -0.4724 -0.0963
   38MOL0     C 4911   5.710   6.932   8.352 -0.5630 -0.4708 -0.7034
   38MOL0     C 4912   5.638   7.014   8.444 -0.4078 -0.5514  0.1260
   38MOL0     C 4913   5.496   7.056   8.421  0.5347  0.4382 -0.3881
   38MOL0     O 4914   5.430   7.123   8.511  0.1768 -1.0427  0.0260
   38MOL0     C 4915   5.300   7.162   8.499  0.4175 -0.2778 -0.1586
   38MOL0     C 4916   5.256   7.281   8.559  0.1033 -0.6151  0.4487
   38MOL0     C 4917   5.127   7.336   8.539  0.3666  0.2207  0.1071
   38MOL0     C 4918   5.026   7.259   8.483  0.1525  0.2107  0.0210
   38MOL0     O 4919   4.893   7.295   8.490 -1.0767 -0.2695  0.4167
   38MOL0     C 4920   4.797   7.194   8.516  0.1539 -0.4433  0.0939
   38MOL0     C 4921   4.735   7.229   8.644 -0.6095  1.1797 -0.8698
   38MOL0     C 4922   4.616   7.132   8.677 -0.6138  0.2095 -0.2891
   38MOL0     C 4923   4.545   7.162   8.813 -0.1336 -0.2949  0.5120
   38MOL0     C 4924   4.426   7.077   8.856  0.0785  1.3137 -0.3958
   38MOL0     C 4925   4.462   6.929   8.838 -0.3238  0.4268 -0.0286
   38MOL0     C 4926   4.341   6.833   8.876 -0.0567 -0.8510  0.4880
   38MOL0     C 4927   4.368   6.686   8.856  0.4965  0.0110 -0.7105
   38MOL0    Cl 4928   4.235   6.602   8.923 -0.1184  0.2031  0.1010
   38MOL0     C 4929   5.069   7.138   8.423 -0.6483 -0.0295 -0.3993
   38MOL0     C 4930   5.198   7.094   8.433 -0.1749  0.9847  0.4148
   38MOL0     O 4931   5.455   7.019   8.310 -0.0091  0.2436 -0.0611
   38MOL0     C 4932   5.704   7.031   8.570 -0.3983 -0.2592  0.3238
   38MOL0     C 4933   5.838   6.970   8.596 -0.1170  0.1319  0.8369
   38MOL0     N 4934   6.603   6.938   8.508  0.3711  0.0996  0.3891
   38MOL0     N 4935   6.723   6.971   8.540 -0.3664  0.3868  0.7725
   38MOL0     C 4936   7.661   6.448   8.063  0.3008 -0.0849  0.2531
   38MOL0     C 4937   7.781   6.372   8.048 -0.5407  0.5432 -0.4755
   38MOL0     C 4938   8.184   6.286   7.847 -1.2193  0.7587  0.2848
   38MOL0     C 4939   8.283   6.293   7.947  0.1405 -0.3346 -0.3883
   38MOL0     C 4940   8.407   6.245   7.928 -0.4907  0.5637  0.6031
   38MOL0     C 4941   8.445   6.187   7.807  0.1228  0.2402  0.2790
   38MOL0     O 4942   8.569   6.128   7.805 -0.2773 -0.1914 -0.5873
   38MOL0     C 4943   8.662   6.192   7.711 -0.5359  0.2170 -0.3293
   38MOL0     C 4944   8.785   6.108   7.684 -0.0554  0.4813 -0.0708
   38MOL0     C 4945   8.889   6.194   7.598 -0.2286  0.4530  0.8369
   38MOL0     C 4946   8.972   6.087   7.512  0.5059  0.1148 -0.1857
   38MOL0     C 4947   9.071   6.149   7.426 -0.1069 -0.7617 -0.3638
   38MOL0     C 4948   9.163   6.186   7.358  0.2196  0.7124  0.5065
   38MOL0     C 4949   8.350   6.189   7.700  0.0128 -0.7862 -0.1488
   38MOL0     C 4950   8.219   6.238   7.724  0.3019  1.0270  0.7019
   38MOL0     H 4951   7.979   6.646   7.961  0.2875  0.1921 -0.2302
   38MOL0     H 4952   7.778   6.762   8.004 -2.3674  0.6971  0.0006
   38MOL0     H 4953   7.568   6.833   7.985  1.1442 -1.6683 -0.7127
   38MOL0     H 4954   7.609   6.815   8.160 -1.5556  2.4015  0.5800
   38MOL0     H 4955   7.333   6.808   8.041  2.5171  2.2387 -2.1402
   38MOL0     H 4956   7.403   6.940   8.145 -1.6296 -0.0804  1.9109
   38MOL0     H 4957   7.399   6.814   8.350 -0.9172 -3.6708  2.4808
   38MOL0     H 4958   7.350   6.669   8.267 -2.7629 -0.4904  2.0563
   38MOL0     H 4959   7.185   6.930   8.308 -2.7933 -0.5781  1.1281
   38MOL0     H 4960   7.131   6.797   8.207 -1.5702  0.5770  0.2353
   38MOL0     H 4961   7.229   6.788   8.496 -0.5645 -0.8003  1.8536
   38MOL0     H 4962   7.144   6.652   8.417 -0.7204  1.1735 -0.3581
   38MOL0     H 4963   6.943   6.780   8.394 -0.2400 -0.6161 -0.0833
   38MOL0     H 4964   7.024   6.924   8.469 -0.4804  0.1725 -1.5156
   38MOL0     H 4965   6.977   6.666   8.614 -0.4211 -0.1835 -3.2410
   38MOL0     H 4966   7.089   6.787   8.673 -2.1944 -1.2238  1.7101
   38MOL0     H 4967   6.935   6.970   8.670  0.8839 -0.1084  2.1480
   38MOL0     H 4968   6.883   6.842   8.784 -0.4425 -1.5501 -0.5801
   38MOL0     H 4969   6.702   6.654   8.632 -1.9838 -0.0874  1.3846
   38MOL0     H 4970   6.464   6.626   8.559 -0.0454 -0.6332 -0.1041
   38MOL0     H 4971   6.450   6.696   8.403 -2.7465 -0.3795  0.4773
   38MOL0     H 4972   6.317   6.889   8.503  1.2627  0.0181 -0.2853
   38MOL0     H 4973   6.330   6.814   8.656  0.8465 -3.1660  0.2709
   38MOL0     H 4974   6.253   6.616   8.446  0.1941  0.0567 -0.6942
   38MOL0     H 4975   6.185   6.624   8.607  1.3099 -0.7983 -0.5338
   38MOL0     H 4976   6.014   6.664   8.452 -3.3909  1.7943  2.3329
   38MOL0     H 4977   6.112   6.802   8.376 -0.2629  1.1241  0.8059
   38MOL0     H 4978   5.887   6.823   8.299 -0.4531 -1.6660  0.2460
   38MOL0     H 4979   5.684   6.907   8.250  0.4750 -1.9371 -0.6324
   38MOL0     H 4980   5.327   7.337   8.619  1.5307 -1.4662 -0.3922
   38MOL0     H 4981   5.105   7.435   8.578  0.6407  0.0787  0.6406
   38MOL0     H 4982   4.828   7.090   8.522 -1.0735 -0.7751  1.0955
   38MOL0     H 4983   4.724   7.190   8.434 -0.1496  1.7967  0.1723
   38MOL0     H 4984   4.698   7.332   8.641  1.0074  1.9171  1.8074
   38MOL0     H 4985   4.805   7.218   8.727  1.0051  1.9259 -2.0850
   38MOL0     H 4986   4.666   7.035   8.677 -1.5695 -0.4430  3.5878
   38MOL0     H 4987   4.547   7.129   8.592  1.7314  1.5114 -2.3776
   38MOL0     H 4988   4.613   7.166   8.899  1.1683 -0.5858 -0.4865
   38MOL0     H 4989   4.508   7.265   8.812 -2.1986 -0.9759 -1.8737
   38MOL0     H 4990   4.336   7.098   8.797 -0.3814  0.4713 -0.0094
   38MOL0     H 4991   4.400   7.099   8.960  0.3952 -3.7889  1.0525
   38MOL0     H 4992   4.549   6.908   8.901  1.2208  2.2053 -1.4345
   38MOL0     H 4993   4.490   6.911   8.734 -1.0761  0.4777 -0.2463
   38MOL0     H 4994   4.337   6.848   8.985  0.2368 -2.5459  0.7603
   38MOL0     H 4995   4.250   6.865   8.824 -1.6907 -3.1547  1.7623
   38MOL0     H 4996   4.461   6.658   8.906 -0.7516 -0.5203  1.4453
   38MOL0     H 4997   4.383   6.647   8.755  1.4979 -0.7878 -0.2660
   38MOL0     H 4998   5.010   7.068   8.366 -1.6977  1.1367 -0.7941
   38MOL0     H 4999   5.217   6.997   8.390  0.5945  1.6781 -0.8798
   38MOL0     H 5000   5.654   7.088   8.648 -0.1206  0.7599 -0.2270
   38MOL0     H 5001   5.881   7.002   8.691 -0.6710  3.8786 -0.0158
   38MOL0     H 5002   7.569   6.409   8.105  1.1070 -1.3694  0.8783
   38MOL0     H 5003   7.782   6.268   8.080 -0.1028  0.5207 -0.5595
   38MOL0     H 5004   8.253   6.331   8.043 -1.2064 -1.1039 -0.4791
   38MOL0     H 5005   8.475   6.238   8.013 -0.8212  0.2274  0.8456
   38MOL0     H 5006   8.698   6.288   7.749  0.4395 -0.2542 -0.0318
   38MOL0     H 5007   8.618   6.228   7.618  0.0737  0.6310 -0.4621
   38MOL0     H 5008   8.819   6.072   7.782 -1.8774  0.6068  0.6578
   38MOL0     H 5009   8.763   6.019   7.625  1.2950 -1.0669  1.6449
   38MOL0     H 5010   8.960   6.251   7.659 -0.5102  0.9995  0.6661
   38MOL0     H 5011   8.831   6.265   7.538 -0.0967 -0.6278 -0.6007
   38MOL0     H 5012   9.026   6.013   7.572  1.6312  2.4310  1.7913
   38MOL0     H 5013   8.910   6.022   7.448 -0.2311 -1.6103  2.1362
   38MOL0     H 5014   9.240   6.229   7.298 -1.0574  1.3451 -0.7278
   38MOL0     H 5015   8.391   6.144   7.610  1.0547  0.4653 -0.3238
   38MOL0     H 5016   8.143   6.214   7.650 -0.5218 -1.5875  2.2565
   39MOL0     O 5017   2.825   6.307  10.794 -1.0035  0.2577  0.0566
   39MOL0     C 5018   2.897   6.220  10.751  0.0698  0.4017  0.7132
   39MOL0     O 5019   2.857   6.120  10.675 -0.4470  0.1025 -0.2268
   39MOL0     C 5020   2.729   6.099  10.651 -0.2901 -0.2153 -0.8241
   39MOL0     C 5021   2.635   6.192  10.617  0.0098 -0.5760 -0.4278
   39MOL0     C 5022   2.501   6.157  10.591 -0.4367  0.2587  0.6273
   39MOL0     C 5023   2.457   6.023  10.598 -0.1513  0.9883  0.8991
   39MOL0     O 5024   2.338   5.965  10.557  0.4333 -0.2987 -0.1917
   39MOL0     C 5025   2.222   6.054  10.541 -0.8671 -0.2163 -0.1959
   39MOL0     C 5026   2.113   6.002  10.631  1.1185  0.3660 -0.2214
   39MOL0     C 5027   1.977   6.072  10.592 -0.3824 -0.0364 -0.1814
   39MOL0     C 5028   1.864   6.042  10.691 -0.2079  0.1791  0.5496
   39MOL0     C 5029   1.719   6.048  10.627 -0.2914 -0.3623 -0.4261
   39MOL0     C 5030   1.610   6.067  10.736 -0.0040 -0.0542  0.9807
   39MOL0     C 5031   1.471   6.070  10.667 -0.0997 -0.3664 -0.0573
   39MOL0     C 5032   1.365   6.083  10.772  0.6506  0.2690 -0.5445
   39MOL0     N 5033   1.227   6.067  10.711 -0.3863  0.0376  0.4148
   39MOL0     C 5034   1.135   6.164  10.685 -0.7290  0.9114 -0.1070
   39MOL0     C 5035   1.040   6.096  10.615 -0.3075  0.1228 -0.8149
   39MOL0     C 5036   0.931   6.156  10.526 -0.8930 -0.6624 -0.3331
   39MOL0     C 5037   0.917   6.309  10.569  0.1351 -0.5250 -0.4235
   39MOL0     C 5038   0.822   6.383  10.471 -0.7218  0.2043  0.5993
   39MOL0     C 5039   0.679   6.335  10.478  0.1404 -0.6513  0.1119
   39MOL0     O 5040   0.644   6.334  10.609  0.0146 -0.1482  0.4965
   39MOL0     C 5041   0.514   6.341  10.641 -0.1051 -0.2166 -0.0084
   39MOL0     C 5042   0.486   6.328  10.773 -0.1365  0.2369 -0.0653
   39MOL0     C 5043   0.350   6.325  10.813  0.5962  0.6854  0.9275
   39MOL0     C 5044   0.235   6.326  10.724 -0.2130  0.2999 -0.4352
   39MOL0     C 5045   0.099   6.309  10.776  0.1301  0.6761 -0.1020
   39MOL0     O 5046   0.002   6.286  10.686  0.6511  0.0902  0.1358
   39MOL0     C 5047  -0.127   6.273  10.739  0.0825 -0.3274 -0.2868
   39MOL0     C 5048  -0.184   6.147  10.744 -0.6560 -0.1942 -0.5943
   39MOL0     C 5049  -0.304   6.113  10.807  0.1069  0.2088 -0.0771
   39MOL0     C 5050  -0.379   6.221  10.865  0.1600  0.6679  0.1958
   39MOL0     O 5051  -0.491   6.193  10.940  0.0691 -0.6714 -0.2291
   39MOL0     C 5052  -0.583   6.283  10.996 -0.2293  0.3200 -0.6539
   39MOL0     C 5053  -0.731   6.218  10.981  0.1929 -0.0175  0.1438
   39MOL0     C 5054  -0.815   6.228  10.848 -0.3472 -0.0663  0.2228
   39MOL0     C 5055  -0.725   6.183  10.730  0.1863 -0.2502 -0.0060
   39MOL0     C 5056  -0.806   6.179  10.596 -0.0014 -0.2130  0.6079
   39MOL0     C 5057  -0.833   6.320  10.539 -0.3497  0.1624 -0.0837
   39MOL0     C 5058  -0.892   6.315  10.393  0.6281  0.3851  0.5231
   39MOL0     C 5059  -0.899   6.452  10.328  0.1815 -0.2942 -0.8053
   39MOL0    Cl 5060  -0.746   6.537  10.350  0.4627 -0.2800 -0.4988
   39MOL0     C 5061  -0.329   6.356  10.853  0.5296  0.8864  0.9562
   39MOL0     C 5062  -0.210   6.378  10.787 -0.0559 -0.2118  0.1009
   39MOL0     O 5063   0.084   6.313  10.898  0.3268  0.2180  0.2257
   39MOL0     C 5064   0.268   6.332  10.584  0.1551 -0.7600  0.0756
   39MOL0     C 5065   0.405   6.340  10.545  0.2124  0.5084 -0.0004
   39MOL0     N 5066   1.066   5.958  10.612  0.3692 -0.7191 -0.6095
   39MOL0     N 5067   1.180   5.948  10.662 -0.3136  0.2333 -0.8979
   39MOL0     C 5068   2.555   5.925  10.630 -0.6844  0.0676 -0.3047
   39MOL0     C 5069   2.684   5.962  10.655 -0.0710 -0.6707 -0.3852
   39MOL0     C 5070   3.040   6.235  10.789  0.3105 -0.5902 -0.2457
   39MOL0     C 5071   3.138   6.142  10.756 -0.3108 -0.1913 -0.2570
   39MOL0     C 5072   3.272   6.155  10.803  0.2097 -0.7056 -0.2597
   39MOL0     C 5073   3.317   6.266  10.878  0.5186 -0.1615 -0.0178
   39MOL0     O 5074   3.435   6.280  10.945  1.0566  1.1209  0.0792
   39MOL0     C 5075   3.546   6.194  10.927  0.7092  0.0408  0.2109
   39MOL0     C 5076   3.661   6.257  11.000  0.2883  0.1018  0.5015
   39MOL0     C 5077   3.790   6.182  10.988 -0.3511 -0.1477 -0.8946
   39MOL0     C 5078   3.802   6.067  11.093 -0.2003 -0.3804 -0.6554
   39MOL0     C 5079   3.944   6.014  11.107  0.3215 -0.3524 -0.2836
   39MOL0     C 5080   4.061   5.983  11.113  0.1097  0.0906 -0.4726
   39MOL0     C 5081   3.213   6.357  10.908  0.1880 -0.2409  0.5916
   39MOL0     C 5082   3.082   6.339  10.869 -0.2192  0.4545 -0.4318
   39MOL0     H 5083   2.655   6.299  10.616 -0.3744 -0.4715 -2.7889
   39MOL0     H 5084   2.437   6.238  10.559 -1.1865 -0.7389 -0.4827
   39MOL0     H 5085   2.189   6.038  10.438 -0.2915  1.8523 -0.7484
   39MOL0     H 5086   2.234   6.163  10.538 -0.2731 -0.2906 -0.8887
   39MOL0     H 5087   2.139   6.017  10.736 -1.8251  0.9223  0.4973
   39MOL0     H 5088   2.103   5.894  10.617 -0.6546  0.2250  1.6721
   39MOL0     H 5089   1.945   6.030  10.496 -4.0773 -1.5643  1.5074
   39MOL0     H 5090   1.995   6.180  10.589 -0.0270 -0.1098 -2.1060
   39MOL0     H 5091   1.885   5.942  10.730  1.3013 -0.6906 -2.1738
   39MOL0     H 5092   1.861   6.120  10.767  0.4127  1.1014 -0.3553
   39MOL0     H 5093   1.708   5.955  10.571  1.4457  0.6012 -2.5149
   39MOL0     H 5094   1.704   6.132  10.559  2.2057  0.2977 -0.2596
   39MOL0     H 5095   1.621   6.161  10.791  1.0693  0.6323 -0.3416
   39MOL0     H 5096   1.610   5.980  10.802 -0.0908 -1.2708 -0.5625
   39MOL0     H 5097   1.458   6.157  10.602 -2.5215 -0.9670 -0.4668
   39MOL0     H 5098   1.446   5.975  10.619 -0.1798 -0.3901  0.0303
   39MOL0     H 5099   1.378   6.179  10.821 -0.4855 -1.4044  3.4106
   39MOL0     H 5100   1.374   6.003  10.847 -1.6153 -0.0613 -0.5715
   39MOL0     H 5101   1.147   6.268  10.716  3.3268  0.6713 -0.2328
   39MOL0     H 5102   0.834   6.106  10.533 -1.4750  0.3744 -0.8523
   39MOL0     H 5103   0.970   6.142  10.424  0.7801 -1.0134  0.3171
   39MOL0     H 5104   1.018   6.350  10.563 -0.1888  0.6846  1.5526
   39MOL0     H 5105   0.893   6.323  10.674  2.5498 -3.0940  0.5755
   39MOL0     H 5106   0.836   6.489  10.494  0.5575  0.9012 -2.8027
   39MOL0     H 5107   0.845   6.358  10.367 -0.2225 -0.7330  0.9188
   39MOL0     H 5108   0.671   6.233  10.439 -0.5758 -0.5032 -0.1453
   39MOL0     H 5109   0.611   6.404  10.428  1.2510  0.9359  0.7075
   39MOL0     H 5110   0.561   6.334  10.851  0.0230 -2.2875  0.0831
   39MOL0     H 5111   0.331   6.327  10.919 -1.0015  2.1775  0.6550
   39MOL0     H 5112  -0.120   6.069  10.704 -0.6419 -0.3001 -0.3701
   39MOL0     H 5113  -0.318   6.006  10.814  2.9482 -0.1389  1.7847
   39MOL0     H 5114  -0.586   6.387  10.963  1.1085  0.4221 -0.5215
   39MOL0     H 5115  -0.570   6.284  11.105 -0.8280 -1.6035 -0.5287
   39MOL0     H 5116  -0.783   6.267  11.064  0.6371 -2.0335  1.6991
   39MOL0     H 5117  -0.733   6.112  11.008  2.6675  0.1556  1.3298
   39MOL0     H 5118  -0.833   6.334  10.825 -1.2717 -0.4969 -1.1563
   39MOL0     H 5119  -0.913   6.182  10.859 -0.4124  0.5571  2.7296
   39MOL0     H 5120  -0.641   6.252  10.716  0.5884  0.0535  3.1271
   39MOL0     H 5121  -0.674   6.089  10.750 -1.9877 -1.2595  1.2412
   39MOL0     H 5122  -0.905   6.138  10.617 -0.5979  0.0830 -1.3993
   39MOL0     H 5123  -0.738   6.121  10.532  1.9366  0.8808  1.5907
   39MOL0     H 5124  -0.737   6.372  10.546 -1.2814  2.1779 -1.3524
   39MOL0     H 5125  -0.902   6.371  10.606  0.3838 -0.2928  1.0474
   39MOL0     H 5126  -0.836   6.258  10.318  0.4820  0.1497  0.5923
   39MOL0     H 5127  -0.991   6.270  10.402  0.6154 -0.3248 -2.2097
   39MOL0     H 5128  -0.975   6.508  10.383 -0.0973 -1.7612  0.3710
   39MOL0     H 5129  -0.925   6.444  10.222 -0.1289 -2.3679 -0.6213
   39MOL0     H 5130  -0.386   6.445  10.878  1.8923  1.1430  3.4839
   39MOL0     H 5131  -0.172   6.479  10.777 -0.7646 -0.0234 -0.8514
   39MOL0     H 5132   0.194   6.320  10.505 -0.1639  1.3211  0.0250
   39MOL0     H 5133   0.417   6.337  10.437  2.3007  0.5784  0.1959
   39MOL0     H 5134   2.518   5.823  10.634 -1.2187  0.2994  1.7049
   39MOL0     H 5135   2.766   5.891  10.660  1.2941  0.5158 -3.4977
   39MOL0     H 5136   3.115   6.053  10.700  0.9962 -0.2829 -0.6862
   39MOL0     H 5137   3.346   6.082  10.771  3.1489  2.1122 -0.4648
   39MOL0     H 5138   3.568   6.179  10.821  3.1345  3.0812  0.1430
   39MOL0     H 5139   3.525   6.095  10.968  0.1586  0.5704  1.2538
   39MOL0     H 5140   3.670   6.359  10.962  1.2122 -0.7452 -1.6970
   39MOL0     H 5141   3.641   6.274  11.107 -1.0735  1.1273  0.1141
   39MOL0     H 5142   3.876   6.243  11.017 -0.5347 -0.3524  0.1111
   39MOL0     H 5143   3.811   6.158  10.883 -3.5016  2.1949 -2.2444
   39MOL0     H 5144   3.773   6.102  11.193 -0.6799 -2.9697  0.1851
   39MOL0     H 5145   3.745   5.976  11.076  1.0318 -1.2683 -0.1534
   39MOL0     H 5146   4.167   5.972  11.129  0.1147  2.3717  1.5587
   39MOL0     H 5147   3.232   6.441  10.973 -1.0281  0.5520 -0.0392
   39MOL0     H 5148   3.003   6.408  10.897 -1.2552 -0.8074 -0.1173
   40MOL0     O 5149   6.181   9.667   7.704  0.2700  0.2420  0.1531
   40MOL0     C 5150   6.241   9.727   7.788  0.0670  0.2814 -0.3362
   40MOL0     O 5151   6.377   9.756   7.788  0.2551 -0.0387  0.1933
   40MOL0     C 5152   6.470   9.696   7.705 -0.1379 -0.0333 -0.0396
   40MOL0     C 5153   6.595   9.759   7.715 -0.1603  0.4693  0.0379
   40MOL0     C 5154   6.710   9.710   7.644  0.2471 -0.7471  0.7708
   40MOL0     C 5155   6.689   9.599   7.558 -0.4173  0.0317  0.1446
   40MOL0     O 5156   6.796   9.535   7.502 -0.2617 -0.1637 -0.2660
   40MOL0     C 5157   6.928   9.574   7.525  0.2315  0.1736 -0.1036
   40MOL0     C 5158   7.017   9.479   7.435 -0.2360  0.5990 -0.0816
   40MOL0     C 5159   7.154   9.529   7.423  0.1065 -0.8015 -0.1086
   40MOL0     C 5160   7.222   9.447   7.314 -0.9181  0.6262  0.5975
   40MOL0     C 5161   7.283   9.316   7.368  0.5053 -0.0281 -0.8776
   40MOL0     C 5162   7.386   9.256   7.270  0.4957 -0.5799  0.4951
   40MOL0     C 5163   7.470   9.147   7.345  0.0328 -0.0790 -0.7933
   40MOL0     C 5164   7.598   9.104   7.272  0.0107 -0.6899 -0.5102
   40MOL0     N 5165   7.560   9.005   7.169 -0.4282  0.9644 -1.7729
   40MOL0     C 5166   7.527   9.030   7.039 -0.1602  1.2920  0.8552
   40MOL0     C 5167   7.504   8.905   6.983 -0.9081  0.7743 -0.3940
   40MOL0     C 5168   7.464   8.878   6.840  0.3503  0.0284 -0.1538
   40MOL0     C 5169   7.314   8.909   6.809 -0.5811 -0.0914 -0.0647
   40MOL0     C 5170   7.223   8.801   6.869 -0.6448 -0.0916  0.0739
   40MOL0     C 5171   7.078   8.847   6.876  0.8426  0.1077 -0.0374
   40MOL0     O 5172   6.984   8.757   6.934 -0.6760 -0.0956  0.0134
   40MOL0     C 5173   6.853   8.786   6.943 -0.2047 -0.6194  0.0980
   40MOL0     C 5174   6.788   8.702   7.027  0.2517  0.5149 -0.0677
   40MOL0     C 5175   6.650   8.703   7.040  0.3444  0.4832 -0.0320
   40MOL0     C 5176   6.577   8.797   6.960 -0.3287 -0.0201  0.0646
   40MOL0     C 5177   6.426   8.802   6.974 -0.2816  0.8826  0.8089
   40MOL0     O 5178   6.370   8.719   7.062 -0.2055  0.0217  0.1448
   40MOL0     C 5179   6.234   8.725   7.081 -0.2770 -0.4208  0.3456
   40MOL0     C 5180   6.156   8.615   7.053  0.1421  0.2687  0.4927
   40MOL0     C 5181   6.022   8.612   7.076  0.8117 -0.8723  0.3292
   40MOL0     C 5182   5.954   8.724   7.127  0.0100 -0.4501 -0.8043
   40MOL0     O 5183   5.822   8.741   7.156 -0.5522  1.2165  0.3933
   40MOL0     C 5184   5.734   8.698   7.056 -0.1466  0.1055 -0.0656
   40MOL0     C 5185   5.604   8.682   7.125 -0.1185 -1.2597  0.5824
   40MOL0     C 5186   5.509   8.598   7.039 -0.2045 -0.6008 -0.6042
   40MOL0     C 5187   5.388   8.569   7.134 -0.7549  0.3109 -0.3714
   40MOL0     C 5188   5.282   8.480   7.069 -0.3396  0.1478 -0.1257
   40MOL0     C 5189   5.152   8.490   7.140 -0.1059 -0.3180  0.1730
   40MOL0     C 5190   5.065   8.377   7.100  0.4417  0.9098 -0.3846
   40MOL0     C 5191   5.107   8.249   7.169  0.4182 -0.5667  0.2721
   40MOL0    Cl 5192   4.989   8.121   7.129 -0.0853  0.0853 -0.3297
   40MOL0     C 5193   6.032   8.834   7.164  0.4640  0.3315  0.5150
   40MOL0     C 5194   6.170   8.836   7.138 -0.1318 -0.2614 -0.3440
   40MOL0     O 5195   6.367   8.881   6.901 -0.4841  0.3095  0.6571
   40MOL0     C 5196   6.642   8.888   6.872  0.0446  0.6121  0.0818
   40MOL0     C 5197   6.787   8.889   6.871  0.3328  0.3676  0.0245
   40MOL0     N 5198   7.513   8.816   7.090 -0.4004  0.2127  0.6058
   40MOL0     N 5199   7.542   8.874   7.203  0.5722  0.3246  0.8262
   40MOL0     C 5200   6.560   9.532   7.543 -0.1229 -0.0993  0.0746
   40MOL0     C 5201   6.450   9.590   7.615 -0.5598  0.8714 -0.3327
   40MOL0     C 5202   6.158   9.795   7.895  0.2232  0.2269  0.2920
   40MOL0     C 5203   6.204   9.902   7.970  0.0349  0.1408 -0.2998
   40MOL0     C 5204   6.125   9.958   8.068 -0.0982  0.0504  0.5191
   40MOL0     C 5205   5.994   9.921   8.087  0.0011  0.7055  0.1688
   40MOL0     O 5206   5.905   9.980   8.173 -0.4664 -1.0529 -0.4056
   40MOL0     C 5207   5.940  10.105   8.240  0.8774  0.1771  0.0581
   40MOL0     C 5208   6.026  10.091   8.368 -0.0827 -0.2266  0.0760
   40MOL0     C 5209   6.061  10.217   8.434 -0.3081 -0.2969 -0.0451
   40MOL0     C 5210   6.084  10.194   8.582  0.0882  0.5008 -0.9515
   40MOL0     C 5211   6.193  10.096   8.610 -0.1805  0.8313  0.0906
   40MOL0     C 5212   6.278  10.009   8.606 -0.6684 -0.8727  0.4774
   40MOL0     C 5213   5.942   9.827   8.002  0.0699  0.0106 -0.3024
   40MOL0     C 5214   6.021   9.767   7.912  0.0087  0.1241  0.4363
   40MOL0     H 5215   6.596   9.848   7.777 -2.0964  1.7201 -1.5947
   40MOL0     H 5216   6.810   9.741   7.671 -1.0369  1.5383  3.3061
   40MOL0     H 5217   6.965   9.549   7.624  1.6942 -1.8579 -1.0805
   40MOL0     H 5218   6.948   9.677   7.494  0.8716 -0.7147 -2.9057
   40MOL0     H 5219   6.977   9.471   7.333 -1.4668  0.1886  0.4172
   40MOL0     H 5220   7.017   9.383   7.487 -1.9055 -0.2549 -1.5654
   40MOL0     H 5221   7.196   9.519   7.524 -2.1727  0.8481  1.1007
   40MOL0     H 5222   7.156   9.636   7.401  4.3991 -0.5231  0.7978
   40MOL0     H 5223   7.152   9.424   7.233 -2.7994  1.1886  1.9959
   40MOL0     H 5224   7.301   9.512   7.274  0.0513 -0.5467  0.5558
   40MOL0     H 5225   7.212   9.244   7.409 -0.2131  1.0310 -0.2163
   40MOL0     H 5226   7.333   9.350   7.460 -1.0219 -0.6057  0.1983
   40MOL0     H 5227   7.446   9.332   7.219 -1.1696 -0.9769 -2.3017
   40MOL0     H 5228   7.329   9.201   7.194 -2.4681 -0.1429  2.2055
   40MOL0     H 5229   7.506   9.178   7.444  0.6084 -0.0948 -0.9958
   40MOL0     H 5230   7.406   9.060   7.362 -1.0887  1.0591  1.3337
   40MOL0     H 5231   7.665   9.068   7.351 -2.6559 -0.8488  1.8669
   40MOL0     H 5232   7.646   9.187   7.220  2.2558 -0.8504  1.1795
   40MOL0     H 5233   7.534   9.117   6.975  0.1694  0.5041 -0.2142
   40MOL0     H 5234   7.477   8.770   6.829 -2.3296 -0.5240  1.2786
   40MOL0     H 5235   7.535   8.926   6.773  1.4527 -2.0756 -0.5776
   40MOL0     H 5236   7.313   8.887   6.702  1.0125 -1.2849  0.1246
   40MOL0     H 5237   7.278   9.007   6.840  1.0802  0.0976  1.4423
   40MOL0     H 5238   7.245   8.705   6.821  2.4265  2.3902 -4.2340
   40MOL0     H 5239   7.256   8.800   6.973  0.1278  0.0080 -0.1661
   40MOL0     H 5240   7.058   8.869   6.771 -0.9847 -2.8996 -0.4524
   40MOL0     H 5241   7.073   8.939   6.935 -0.1059 -0.4181  0.7502
   40MOL0     H 5242   6.830   8.618   7.082 -1.2999 -1.1969 -1.3682
   40MOL0     H 5243   6.607   8.627   7.104  1.6549 -0.5655 -0.3553
   40MOL0     H 5244   6.208   8.530   7.010 -1.7800 -0.1092 -1.2786
   40MOL0     H 5245   5.974   8.518   7.052  1.7092 -1.0024 -1.0719
   40MOL0     H 5246   5.767   8.603   7.013  0.0819  0.3390 -0.4070
   40MOL0     H 5247   5.727   8.770   6.974 -0.4866  0.7331  0.5052
   40MOL0     H 5248   5.575   8.784   7.152 -1.1956  0.0396 -4.4117
   40MOL0     H 5249   5.623   8.624   7.216  2.9778  0.0040  0.8770
   40MOL0     H 5250   5.562   8.506   7.013  2.6448  0.2942  1.5581
   40MOL0     H 5251   5.485   8.640   6.941  2.2811 -1.6684 -1.7670
   40MOL0     H 5252   5.423   8.511   7.221 -1.8077 -0.5764 -0.5158
   40MOL0     H 5253   5.337   8.657   7.176  1.8553  0.8208  2.0870
   40MOL0     H 5254   5.327   8.381   7.072  1.5467  0.9805  1.7849
   40MOL0     H 5255   5.271   8.508   6.964 -0.2538 -0.6936 -0.3656
   40MOL0     H 5256   5.096   8.580   7.111 -0.4981 -0.8954 -0.9142
   40MOL0     H 5257   5.164   8.495   7.249 -1.2159  2.3521  0.2634
   40MOL0     H 5258   4.962   8.388   7.135  0.9880  1.2848  1.1865
   40MOL0     H 5259   5.054   8.370   6.992 -0.2197  0.8351 -0.3137
   40MOL0     H 5260   5.120   8.261   7.277  0.1962  0.2050  0.2182
   40MOL0     H 5261   5.204   8.218   7.130 -0.0373 -1.0713 -0.5014
   40MOL0     H 5262   5.980   8.910   7.222  0.0997 -0.3214  1.0639
   40MOL0     H 5263   6.230   8.923   7.165  0.8691 -1.6102  2.0892
   40MOL0     H 5264   6.591   8.967   6.818  0.2960  2.2319  2.0716
   40MOL0     H 5265   6.829   8.967   6.808 -0.4041 -0.9506 -2.1995
   40MOL0     H 5266   6.552   9.440   7.485  1.0185  0.6822 -1.4007
   40MOL0     H 5267   6.353   9.540   7.608 -0.0800 -0.2349  0.5112
   40MOL0     H 5268   6.303   9.945   7.961 -0.3184  1.3985  1.2476
   40MOL0     H 5269   6.162  10.045   8.120 -2.4573  0.8821  0.9259
   40MOL0     H 5270   5.849  10.150   8.280  1.0263 -0.0747  0.6888
   40MOL0     H 5271   5.983  10.170   8.163  0.8208 -0.4843 -0.5371
   40MOL0     H 5272   5.962  10.036   8.438 -0.3066  1.4614  1.2450
   40MOL0     H 5273   6.113  10.026   8.353  1.3003  1.4925  0.2742
   40MOL0     H 5274   5.983  10.292   8.421  0.7982  0.7850 -0.6822
   40MOL0     H 5275   6.153  10.256   8.390  0.8809 -3.3455 -0.5018
   40MOL0     H 5276   6.106  10.288   8.633  3.0500 -1.3787  1.5979
   40MOL0     H 5277   5.995  10.150   8.628 -0.8119  3.1281 -0.0238
   40MOL0     H 5278   6.354   9.933   8.612 -1.0082 -1.2218  0.4106
   40MOL0     H 5279   5.837   9.801   8.003  0.6082 -2.4599 -0.5793
   40MOL0     H 5280   5.964   9.690   7.861  1.2592  0.5410 -1.7584
   41MOL0     O 5281   6.935   3.826   7.407  0.2847  0.1319  1.7699
   41MOL0     C 5282   7.007   3.915   7.363  0.5152  0.3199  0.3137
   41MOL0     O 5283   6.990   3.972   7.240 -0.1899 -0.0949  0.4504
   41MOL0     C 5284   6.875   3.941   7.164  0.5809  0.1222 -0.4120
   41MOL0     C 5285   6.774   4.041   7.145 -0.4127  0.2034  0.7351
   41MOL0     C 5286   6.652   4.015   7.076 -0.3921 -0.2697  0.2921
   41MOL0     C 5287   6.630   3.892   7.014 -0.0968  0.1306 -0.2562
   41MOL0     O 5288   6.527   3.853   6.935  0.3750 -0.2541 -0.1809
   41MOL0     C 5289   6.433   3.950   6.884  0.2062 -0.0358 -0.6511
   41MOL0     C 5290   6.321   3.980   6.989 -0.6995  0.1249 -0.3351
   41MOL0     C 5291   6.228   4.084   6.938  1.1606  0.3563 -0.4085
   41MOL0     C 5292   6.093   4.064   7.013 -0.5765 -0.3225 -0.2213
   41MOL0     C 5293   5.977   4.161   6.965 -0.6551  0.5986 -0.0075
   41MOL0     C 5294   5.863   4.176   7.070  0.3360  0.2844  0.0051
   41MOL0     C 5295   5.803   4.038   7.103 -0.0973  0.0410  0.1682
   41MOL0     C 5296   5.685   4.054   7.196 -0.3860  1.2012 -0.2700
   41MOL0     N 5297   5.584   4.142   7.139 -0.1318 -0.0477 -0.3460
   41MOL0     C 5298   5.519   4.115   7.023 -0.4569  0.9046  0.1052
   41MOL0     C 5299   5.445   4.225   7.006  0.8162 -0.3209  0.3876
   41MOL0     C 5300   5.364   4.253   6.886  0.8821  0.1373 -0.1303
   41MOL0     C 5301   5.216   4.273   6.905  0.0968  0.3889  0.3958
   41MOL0     C 5302   5.180   4.381   7.009 -0.1005 -0.6312 -0.2852
   41MOL0     C 5303   5.032   4.410   6.998 -0.4060  0.0897  0.0828
   41MOL0     O 5304   5.004   4.505   6.896  0.2395 -0.5955 -0.5414
   41MOL0     C 5305   4.868   4.537   6.878  0.5280 -0.0354 -0.5084
   41MOL0     C 5306   4.765   4.484   6.962  0.2017 -0.1416 -0.1420
   41MOL0     C 5307   4.632   4.529   6.951  0.3599  0.7113 -0.0400
   41MOL0     C 5308   4.599   4.615   6.845 -1.1260  0.7768  0.5671
   41MOL0     C 5309   4.468   4.669   6.842  0.0822 -0.4811  0.5520
   41MOL0     O 5310   4.379   4.641   6.944 -0.1515 -0.1198 -0.1379
   41MOL0     C 5311   4.236   4.644   6.939 -1.0728 -0.0125 -0.2425
   41MOL0     C 5312   4.171   4.641   7.066  0.3144 -0.9850  0.5020
   41MOL0     C 5313   4.034   4.608   7.072  0.3046 -0.7362  0.0152
   41MOL0     C 5314   3.956   4.596   6.954  0.1656 -0.3201 -0.8286
   41MOL0     O 5315   3.822   4.581   6.962 -0.5615 -0.1312 -1.2569
   41MOL0     C 5316   3.766   4.510   6.850 -0.4664  0.2027  0.2172
   41MOL0     C 5317   3.665   4.417   6.907  1.3990 -0.9310  0.0277
   41MOL0     C 5318   3.591   4.334   6.804  0.1895  0.8163  0.8420
   41MOL0     C 5319   3.484   4.244   6.862 -0.5302 -0.8764  0.0585
   41MOL0     C 5320   3.384   4.187   6.766 -0.2373 -0.2644  0.3244
   41MOL0     C 5321   3.302   4.292   6.693  0.4027 -0.2450  0.3896
   41MOL0     C 5322   3.193   4.241   6.601  0.2332  0.6022 -0.8249
   41MOL0     C 5323   3.081   4.167   6.668  0.1821 -0.4544  0.2013
   41MOL0    Cl 5324   3.002   4.265   6.803 -0.0811 -0.1208  0.3052
   41MOL0     C 5325   4.024   4.614   6.832 -0.6402  0.2246  0.5887
   41MOL0     C 5326   4.160   4.632   6.820  0.6858 -0.5694 -0.0442
   41MOL0     O 5327   4.443   4.741   6.744  0.9149 -0.5527  0.3257
   41MOL0     C 5328   4.698   4.664   6.753  0.8177  0.2188  0.2360
   41MOL0     C 5329   4.828   4.627   6.773  0.1802  0.7520  0.2580
   41MOL0     N 5330   5.474   4.314   7.105 -0.4517 -0.3960 -0.2516
   41MOL0     N 5331   5.567   4.266   7.186 -0.2207  0.1228 -0.1793
   41MOL0     C 5332   6.729   3.799   7.028  0.4385 -0.0152  0.8768
   41MOL0     C 5333   6.846   3.822   7.107  1.4150  0.2108 -0.0802
   41MOL0     C 5334   7.124   3.958   7.439 -0.0671 -0.0081 -0.4192
   41MOL0     C 5335   7.176   4.086   7.423 -0.4294  0.4828 -0.6600
   41MOL0     C 5336   7.276   4.143   7.510  0.0221  0.3821  0.1206
   41MOL0     C 5337   7.326   4.066   7.613  0.6386  0.1410 -0.3826
   41MOL0     O 5338   7.420   4.108   7.707  0.5495  0.0265 -0.3119
   41MOL0     C 5339   7.482   4.231   7.698  0.0462 -0.3268 -0.0555
   41MOL0     C 5340   7.614   4.222   7.781 -0.0337 -0.0814 -0.2121
   41MOL0     C 5341   7.712   4.103   7.761  0.0188 -0.3002  0.2774
   41MOL0     C 5342   7.764   4.082   7.619  0.3211 -0.1065 -0.8873
   41MOL0     C 5343   7.787   4.204   7.540 -0.0074  0.4394  0.0323
   41MOL0     C 5344   7.818   4.296   7.469  0.1859 -0.7463 -0.6873
   41MOL0     C 5345   7.275   3.933   7.626  0.7288 -0.1115  0.1171
   41MOL0     C 5346   7.180   3.882   7.542  0.2883  0.0684 -0.5174
   41MOL0     H 5347   6.788   4.142   7.181 -0.1744  0.3440  0.2483
   41MOL0     H 5348   6.577   4.088   7.048 -1.5402 -2.1543 -1.8219
   41MOL0     H 5349   6.375   3.916   6.798 -6.5456  3.8123  1.6002
   41MOL0     H 5350   6.489   4.039   6.852  0.0791 -1.1333 -4.4051
   41MOL0     H 5351   6.367   4.016   7.081 -0.5189 -0.1975 -0.2987
   41MOL0     H 5352   6.271   3.885   7.012 -0.0701 -0.5336 -1.6137
   41MOL0     H 5353   6.203   4.070   6.833  0.6137  0.3033 -0.2749
   41MOL0     H 5354   6.261   4.187   6.952  0.6969  0.4792 -0.1953
   41MOL0     H 5355   6.051   3.964   7.004  1.7904 -1.2158 -2.5589
   41MOL0     H 5356   6.113   4.073   7.120  0.3679 -1.4724 -0.2806
   41MOL0     H 5357   5.935   4.118   6.874 -0.1438  0.5415 -0.2194
   41MOL0     H 5358   6.021   4.259   6.944  0.6202 -0.2391 -1.4883
   41MOL0     H 5359   5.780   4.230   7.024  0.1544 -1.1212 -1.4019
   41MOL0     H 5360   5.894   4.224   7.163 -0.2026 -0.9283  0.8394
   41MOL0     H 5361   5.772   3.996   7.007  0.7169  0.8593 -0.4748
   41MOL0     H 5362   5.882   3.975   7.146  1.1472  0.8159 -0.8879
   41MOL0     H 5363   5.719   4.094   7.292 -0.7688 -1.3517  1.0061
   41MOL0     H 5364   5.647   3.956   7.227  1.4899  0.8059  0.9106
   41MOL0     H 5365   5.526   4.029   6.957 -1.6759  2.2771 -1.8967
   41MOL0     H 5366   5.369   4.162   6.826 -0.9621 -0.8201  1.0522
   41MOL0     H 5367   5.401   4.339   6.830 -0.5961  1.4402  0.8162
   41MOL0     H 5368   5.166   4.178   6.924  2.8016 -1.7108 -2.1040
   41MOL0     H 5369   5.185   4.298   6.803 -3.0837 -0.6159  1.0144
   41MOL0     H 5370   5.196   4.346   7.111  0.6800 -2.2563 -0.9270
   41MOL0     H 5371   5.235   4.475   6.993  0.0156 -0.6055  0.2659
   41MOL0     H 5372   5.017   4.457   7.096  1.3175 -0.4653  0.6592
   41MOL0     H 5373   4.972   4.320   6.989 -1.5936  0.7926  0.8194
   41MOL0     H 5374   4.770   4.420   7.050  1.6678  0.8275  0.5311
   41MOL0     H 5375   4.548   4.506   7.016 -0.9112  2.2730 -1.0290
   41MOL0     H 5376   4.226   4.627   7.158 -0.8877  0.6558  1.5110
   41MOL0     H 5377   3.997   4.594   7.173  2.3481  0.0836  0.9296
   41MOL0     H 5378   3.841   4.448   6.801 -0.9463 -0.8418  0.7775
   41MOL0     H 5379   3.718   4.577   6.778 -0.2236  1.4737  1.1973
   41MOL0     H 5380   3.585   4.473   6.957  0.1752 -2.3865 -0.2181
   41MOL0     H 5381   3.710   4.354   6.984 -0.8645  0.7454  2.9450
   41MOL0     H 5382   3.665   4.265   6.763 -0.5480 -1.0550  2.5169
   41MOL0     H 5383   3.549   4.401   6.728 -1.2333  0.5623  1.3754
   41MOL0     H 5384   3.548   4.167   6.907  0.3267  0.7838  1.8134
   41MOL0     H 5385   3.438   4.305   6.940  1.3734  2.5228 -1.2563
   41MOL0     H 5386   3.315   4.120   6.817  0.0502 -0.9589 -0.1878
   41MOL0     H 5387   3.438   4.120   6.699 -0.0989  0.8426 -0.7199
   41MOL0     H 5388   3.368   4.341   6.621  0.5490 -0.0263  0.6701
   41MOL0     H 5389   3.262   4.361   6.768 -0.6715  0.1526 -0.5300
   41MOL0     H 5390   3.145   4.318   6.540 -2.9762 -0.9908 -0.5179
   41MOL0     H 5391   3.241   4.178   6.526  1.7527 -1.3466  1.6243
   41MOL0     H 5392   3.114   4.075   6.718 -2.7085 -0.1008  3.1470
   41MOL0     H 5393   3.016   4.155   6.581  2.4926 -0.0397 -1.6864
   41MOL0     H 5394   3.962   4.610   6.743 -0.8546 -0.6047  0.7670
   41MOL0     H 5395   4.210   4.634   6.724  0.5501  0.7438 -0.1030
   41MOL0     H 5396   4.682   4.742   6.678 -0.6389 -1.1847 -0.9728
   41MOL0     H 5397   4.908   4.655   6.706 -0.9974 -1.0275 -2.0480
   41MOL0     H 5398   6.725   3.715   6.959  3.6345 -0.7883  1.4676
   41MOL0     H 5399   6.922   3.744   7.104  1.5392  0.2693 -3.7158
   41MOL0     H 5400   7.128   4.150   7.350 -1.2667  0.6541  0.0295
   41MOL0     H 5401   7.308   4.246   7.499  3.7896 -0.6272 -0.0490
   41MOL0     H 5402   7.419   4.309   7.741  1.0032  0.3060  0.2220
   41MOL0     H 5403   7.502   4.273   7.599  2.3061  0.3307  0.6223
   41MOL0     H 5404   7.666   4.319   7.771  1.7730 -0.8763  1.0124
   41MOL0     H 5405   7.595   4.220   7.888  2.6450  0.2506  0.3367
   41MOL0     H 5406   7.661   4.009   7.781 -0.0269 -0.4759 -0.6435
   41MOL0     H 5407   7.793   4.122   7.832 -1.7714  0.7162  2.1537
   41MOL0     H 5408   7.853   4.019   7.614  1.3545  1.2773 -0.4864
   41MOL0     H 5409   7.687   4.019   7.573  1.4549 -1.1837 -1.3679
   41MOL0     H 5410   7.845   4.375   7.402 -0.3680  0.0360 -0.0001
   41MOL0     H 5411   7.307   3.865   7.704 -0.5074 -1.8690 -0.8453
   41MOL0     H 5412   7.130   3.790   7.571 -1.1958  1.0965  0.3098
   42MOL0     O 5413   5.322   5.868   8.577  0.3157 -0.0127 -0.5351
   42MOL0     C 5414   5.331   5.837   8.462  0.3494 -0.3216 -0.7440
   42MOL0     O 5415   5.245   5.887   8.376  0.3687  0.1237  0.3076
   42MOL0     C 5416   5.137   5.958   8.418  0.2859  0.1822  0.0923
   42MOL0     C 5417   5.150   6.087   8.469  0.0129 -1.1358  0.1380
   42MOL0     C 5418   5.033   6.158   8.509  0.3878  0.3288 -0.3868
   42MOL0     C 5419   4.902   6.110   8.488 -0.8314  0.2333  1.3474
   42MOL0     O 5420   4.788   6.181   8.526 -0.0961  0.8279 -0.0048
   42MOL0     C 5421   4.749   6.261   8.418 -0.5430  0.6338  0.3688
   42MOL0     C 5422   4.635   6.362   8.458  0.5289  0.0861  1.0389
   42MOL0     C 5423   4.495   6.310   8.459 -1.0403  0.3403 -0.5787
   42MOL0     C 5424   4.392   6.418   8.492 -0.3080 -0.1070 -0.2918
   42MOL0     C 5425   4.246   6.378   8.466 -0.1168  0.6022  0.4445
   42MOL0     C 5426   4.214   6.264   8.572  0.1892  0.1444  0.4338
   42MOL0     C 5427   4.063   6.238   8.592  0.6966  0.3835  0.2841
   42MOL0     C 5428   3.994   6.366   8.649  0.0833  0.2353  0.4182
   42MOL0     N 5429   3.860   6.337   8.678  0.0370  0.1547  0.4470
   42MOL0     C 5430   3.797   6.373   8.797  0.5625  1.3083  0.1046
   42MOL0     C 5431   3.666   6.333   8.769  0.1795 -0.9040 -0.7202
   42MOL0     C 5432   3.553   6.369   8.859  0.0752  0.7062 -0.3609
   42MOL0     C 5433   3.510   6.512   8.845 -0.0786 -0.1218 -0.4919
   42MOL0     C 5434   3.396   6.533   8.945 -0.2711 -0.1838 -0.3372
   42MOL0     C 5435   3.317   6.665   8.929  0.4802 -0.4784  0.1673
   42MOL0     O 5436   3.222   6.670   8.819 -0.7109 -0.0303 -0.7955
   42MOL0     C 5437   3.109   6.589   8.832  0.9988 -0.4991  0.3718
   42MOL0     C 5438   3.064   6.525   8.937  0.1119  0.0698  0.6971
   42MOL0     C 5439   2.948   6.461   8.926  0.0719  1.3384 -0.4126
   42MOL0     C 5440   2.874   6.454   8.804  0.4116  0.2245 -0.2661
   42MOL0     C 5441   2.756   6.365   8.793  0.3266  0.3865 -1.0166
   42MOL0     O 5442   2.736   6.284   8.907  0.4471  0.7108  0.5407
   42MOL0     C 5443   2.617   6.220   8.937 -0.8917  0.4393 -0.0772
   42MOL0     C 5444   2.492   6.266   8.888  0.2730 -0.0458  0.5370
   42MOL0     C 5445   2.378   6.215   8.932 -0.1104  0.1790  0.0357
   42MOL0     C 5446   2.381   6.101   9.011 -0.1543 -0.2273 -0.6108
   42MOL0     O 5447   2.272   6.040   9.061  1.0879  0.0384  0.7245
   42MOL0     C 5448   2.141   6.063   9.000  0.4275 -0.2926 -0.2251
   42MOL0     C 5449   2.047   5.965   9.073 -0.7672  0.1752 -0.1543
   42MOL0     C 5450   1.904   5.979   9.038  0.1378 -0.4758 -0.1399
   42MOL0     C 5451   1.827   5.855   9.079  0.5660 -0.8925 -0.0041
   42MOL0     C 5452   1.676   5.858   9.033  0.5086 -0.3220 -0.4553
   42MOL0     C 5453   1.599   5.736   9.091 -0.8564 -0.0661  0.5256
   42MOL0     C 5454   1.456   5.733   9.026 -0.2927  1.1181  0.2520
   42MOL0     C 5455   1.392   5.600   9.039  0.5003  0.6219  0.8427
   42MOL0    Cl 5456   1.331   5.567   9.213  0.0202 -0.0044  0.0057
   42MOL0     C 5457   2.500   6.045   9.047  0.0075  0.4644  0.1668
   42MOL0     C 5458   2.613   6.114   9.019 -0.4478  0.2639 -0.4365
   42MOL0     O 5459   2.687   6.367   8.690 -0.2653  0.0974 -0.5221
   42MOL0     C 5460   2.924   6.517   8.691 -0.9509 -0.5101 -0.6499
   42MOL0     C 5461   3.038   6.590   8.708  0.0137  0.5904  0.4736
   42MOL0     N 5462   3.658   6.258   8.652 -0.5201  0.3068  0.4320
   42MOL0     N 5463   3.776   6.271   8.602  0.8037 -0.1542 -0.4081
   42MOL0     C 5464   4.898   5.983   8.436  0.9041 -0.2918  0.7675
   42MOL0     C 5465   5.006   5.908   8.398 -0.1851 -0.1564  0.1953
   42MOL0     C 5466   5.446   5.757   8.412 -0.4728 -1.7037  0.3875
   42MOL0     C 5467   5.554   5.721   8.504 -0.3011 -0.0229  0.4666
   42MOL0     C 5468   5.665   5.648   8.454 -0.4283  0.1098  0.2612
   42MOL0     C 5469   5.668   5.592   8.328  0.8122  0.9560 -0.0570
   42MOL0     O 5470   5.777   5.528   8.267  0.6850  0.3704  1.0307
   42MOL0     C 5471   5.907   5.528   8.327  0.0843  0.1759  0.4983
   42MOL0     C 5472   5.937   5.383   8.390  0.8995 -0.6163 -0.4490
   42MOL0     C 5473   6.070   5.357   8.468 -0.7186  0.4145 -0.1282
   42MOL0     C 5474   6.123   5.215   8.469 -0.3101 -0.3265  0.0577
   42MOL0     C 5475   6.167   5.167   8.333  0.4422 -0.8748  0.2655
   42MOL0     C 5476   6.185   5.153   8.216 -0.0242  0.3981  0.6571
   42MOL0     C 5477   5.553   5.614   8.244  1.0728 -0.0857 -0.3216
   42MOL0     C 5478   5.442   5.698   8.287  0.0804 -0.4898 -0.1884
   42MOL0     H 5479   5.247   6.133   8.454 -0.5190  0.5467  1.5102
   42MOL0     H 5480   5.044   6.248   8.568  2.2967 -0.2448  0.2036
   42MOL0     H 5481   4.724   6.190   8.338 -0.2885  2.1362 -1.1009
   42MOL0     H 5482   4.836   6.313   8.376 -1.3683 -0.3428 -2.8807
   42MOL0     H 5483   4.637   6.439   8.380 -1.3298 -0.0375  0.8329
   42MOL0     H 5484   4.666   6.416   8.548  1.6358  4.3229 -1.5855
   42MOL0     H 5485   4.485   6.231   8.534 -2.8599 -0.8377 -1.9839
   42MOL0     H 5486   4.468   6.266   8.363  0.1351  0.3751 -0.9336
   42MOL0     H 5487   4.400   6.445   8.598  2.5822 -0.1922 -0.4011
   42MOL0     H 5488   4.408   6.512   8.439 -1.1651  0.2521  0.0753
   42MOL0     H 5489   4.243   6.338   8.364  0.1012 -2.8750  1.6380
   42MOL0     H 5490   4.176   6.460   8.477 -3.1967 -2.0245  2.0481
   42MOL0     H 5491   4.257   6.290   8.669 -2.2823  0.2366  1.6060
   42MOL0     H 5492   4.264   6.172   8.541 -2.2588 -1.0672 -0.1701
   42MOL0     H 5493   4.014   6.210   8.499  1.2664 -3.2086  0.9235
   42MOL0     H 5494   4.040   6.161   8.666 -0.6727 -1.3758 -1.8519
   42MOL0     H 5495   3.994   6.446   8.573 -1.0290  1.0171  1.2157
   42MOL0     H 5496   4.046   6.402   8.738  0.6874  1.8219 -0.5277
   42MOL0     H 5497   3.837   6.420   8.886 -0.6640  1.0626  0.8153
   42MOL0     H 5498   3.589   6.353   8.961  1.2446 -1.1249 -1.0097
   42MOL0     H 5499   3.474   6.295   8.842  0.4027  0.2509  0.0750
   42MOL0     H 5500   3.482   6.529   8.740  1.7000  0.0693 -0.9701
   42MOL0     H 5501   3.597   6.578   8.852 -0.8531  1.0949 -1.5992
   42MOL0     H 5502   3.338   6.441   8.955  0.1101 -0.2671  1.3658
   42MOL0     H 5503   3.451   6.544   9.039 -0.7696  3.8364 -0.3615
   42MOL0     H 5504   3.385   6.749   8.915  0.5124 -0.6004 -0.4334
   42MOL0     H 5505   3.266   6.688   9.023  1.9200 -1.7220  1.3225
   42MOL0     H 5506   3.115   6.501   9.030  0.1725 -0.6480  0.4812
   42MOL0     H 5507   2.915   6.414   9.017  0.4807 -2.8038 -2.2045
   42MOL0     H 5508   2.495   6.339   8.808  3.5581 -0.7499 -0.1418
   42MOL0     H 5509   2.283   6.260   8.908 -0.1617 -0.2831 -0.6691
   42MOL0     H 5510   2.136   6.050   8.891 -3.7503  1.5624 -0.4426
   42MOL0     H 5511   2.109   6.167   9.014  0.6895  0.0396 -1.8792
   42MOL0     H 5512   2.053   5.961   9.182 -0.4598  0.2067 -0.1686
   42MOL0     H 5513   2.071   5.866   9.033  0.3179  0.4520 -0.2229
   42MOL0     H 5514   1.892   5.990   8.930  1.2229  1.3511 -0.1158
   42MOL0     H 5515   1.858   6.064   9.090 -1.7930 -1.0209 -0.8903
   42MOL0     H 5516   1.865   5.761   9.039 -3.7488 -1.6892 -2.8078
   42MOL0     H 5517   1.829   5.845   9.188 -2.2290 -1.1009  0.0978
   42MOL0     H 5518   1.671   5.853   8.924  1.1281  0.2015 -0.5113
   42MOL0     H 5519   1.630   5.950   9.069 -1.8983 -0.2132 -3.3249
   42MOL0     H 5520   1.588   5.739   9.199  1.1033 -1.3402  0.8192
   42MOL0     H 5521   1.658   5.649   9.059 -2.0635  0.0613 -2.3605
   42MOL0     H 5522   1.404   5.813   9.080  1.7995  1.5389  1.8122
   42MOL0     H 5523   1.461   5.777   8.926 -1.4202  0.3700 -0.1464
   42MOL0     H 5524   1.475   5.537   9.006  2.9805  2.3233  3.2738
   42MOL0     H 5525   1.306   5.591   8.973 -0.5652  1.3600  2.0723
   42MOL0     H 5526   2.499   5.950   9.099 -2.6726 -0.5709 -1.5569
   42MOL0     H 5527   2.701   6.076   9.071 -1.8148 -0.4292  1.4781
   42MOL0     H 5528   2.879   6.516   8.592  2.6449  3.1017 -2.6251
   42MOL0     H 5529   3.065   6.639   8.615  0.4238 -0.2527  0.1430
   42MOL0     H 5530   4.804   5.933   8.416 -0.7596  2.6755  0.5960
   42MOL0     H 5531   4.999   5.812   8.348  2.2816  0.5433 -1.6972
   42MOL0     H 5532   5.553   5.764   8.604 -2.8632 -1.3540  1.0825
   42MOL0     H 5533   5.753   5.627   8.514 -1.8187  0.8257  2.7154
   42MOL0     H 5534   5.921   5.609   8.400 -0.2761 -1.2542  2.2130
   42MOL0     H 5535   5.977   5.557   8.248  0.4902  0.2760  0.8849
   42MOL0     H 5536   5.857   5.357   8.460 -0.2323  1.2949 -0.9496
   42MOL0     H 5537   5.920   5.307   8.313 -0.6472 -1.4333  0.6335
   42MOL0     H 5538   6.053   5.379   8.573 -2.6799 -2.1217  0.1739
   42MOL0     H 5539   6.154   5.415   8.428  0.6902 -1.1833  0.3744
   42MOL0     H 5540   6.202   5.213   8.545  0.6659  0.9048 -0.8997
   42MOL0     H 5541   6.049   5.149   8.515 -0.8517 -0.5698 -1.1472
   42MOL0     H 5542   6.207   5.156   8.111 -2.3611 -0.4773  0.0841
   42MOL0     H 5543   5.554   5.567   8.146  0.7800  2.1544 -1.4608
   42MOL0     H 5544   5.351   5.717   8.231 -1.0324 -0.6731  1.4864
   43MOL0     O 5545   4.505  10.925  11.066  0.0591 -0.0649  0.1285
   43MOL0     C 5546   4.573  10.849  11.131  0.3540  0.5775  0.6801
   43MOL0     O 5547   4.526  10.785  11.237  0.0077  0.2645  0.2935
   43MOL0     C 5548   4.418  10.841  11.312 -0.3358 -0.2757  0.2266
   43MOL0     C 5549   4.293  10.795  11.288 -0.2629 -0.0402  0.0349
   43MOL0     C 5550   4.190  10.841  11.368  0.2260  0.7467 -0.1309
   43MOL0     C 5551   4.211  10.939  11.467  1.2115  0.0281  0.0892
   43MOL0     O 5552   4.107  11.002  11.540 -0.3670  1.1175 -0.4204
   43MOL0     C 5553   3.984  11.034  11.469  0.3825  0.3806 -0.4123
   43MOL0     C 5554   3.879  11.053  11.582  0.3638 -0.3453 -0.4091
   43MOL0     C 5555   3.765  11.137  11.539  0.7943  0.3962 -0.0846
   43MOL0     C 5556   3.643  11.139  11.643  0.6443  0.1652  0.2618
   43MOL0     C 5557   3.519  11.197  11.577  0.7555  0.9630  0.2274
   43MOL0     C 5558   3.426  11.214  11.692 -0.9564 -0.9135  0.0477
   43MOL0     C 5559   3.286  11.229  11.646  0.0257 -0.9380  0.4309
   43MOL0     C 5560   3.262  11.379  11.592  0.6668  0.2159  0.5722
   43MOL0     N 5561   3.119  11.413  11.597  0.1762 -0.3594 -0.3061
   43MOL0     C 5562   3.026  11.369  11.508 -0.2049 -0.2938  0.0935
   43MOL0     C 5563   2.912  11.446  11.535 -0.4202  0.2254  0.2331
   43MOL0     C 5564   2.793  11.449  11.448  0.5637  0.1662  0.5527
   43MOL0     C 5565   2.664  11.487  11.529  0.0761 -0.2651  0.1360
   43MOL0     C 5566   2.634  11.383  11.637 -0.1646 -0.2053 -0.2046
   43MOL0     C 5567   2.552  11.411  11.760  0.0037  0.2644 -0.3768
   43MOL0     O 5568   2.419  11.436  11.736  0.9697 -0.0120  0.0847
   43MOL0     C 5569   2.325  11.363  11.806 -0.1748  0.5386  0.2660
   43MOL0     C 5570   2.333  11.226  11.835  0.2125  0.9312  0.0596
   43MOL0     C 5571   2.231  11.166  11.912 -0.2093  0.3007 -0.0908
   43MOL0     C 5572   2.121  11.243  11.960 -0.9552 -0.1434  0.0040
   43MOL0     C 5573   2.006  11.198  12.042 -0.1982  0.5759 -0.0694
   43MOL0     O 5574   1.911  11.285  12.065 -0.1820 -0.0910 -0.0059
   43MOL0     C 5575   1.795  11.254  12.136 -0.1609  0.6989 -0.9297
   43MOL0     C 5576   1.704  11.363  12.142  0.5278  1.4062 -0.1086
   43MOL0     C 5577   1.579  11.358  12.204 -0.7661 -0.4355 -0.1484
   43MOL0     C 5578   1.551  11.251  12.286  0.2995  0.5721  1.0110
   43MOL0     O 5579   1.432  11.219  12.346 -0.4074  0.3660  0.5567
   43MOL0     C 5580   1.317  11.301  12.316 -0.2898 -0.3106  0.2523
   43MOL0     C 5581   1.179  11.243  12.363 -0.4069 -0.1931  0.1991
   43MOL0     C 5582   1.154  11.303  12.500  0.0925 -0.0312 -0.3445
   43MOL0     C 5583   1.022  11.256  12.552  0.6341 -0.3797  1.3607
   43MOL0     C 5584   0.994  11.315  12.692  0.2792  0.4517 -0.1438
   43MOL0     C 5585   0.875  11.254  12.756 -0.2744  0.2044 -0.9474
   43MOL0     C 5586   0.737  11.278  12.686 -0.0573 -0.1629 -0.3957
   43MOL0     C 5587   0.686  11.140  12.647 -0.3796  0.1200 -0.0750
   43MOL0    Cl 5588   0.535  11.166  12.554 -0.1754 -0.4961 -0.0742
   43MOL0     C 5589   1.647  11.151  12.303 -0.2832  0.1641 -0.5527
   43MOL0     C 5590   1.760  11.149  12.228 -0.4807  0.2452  0.2903
   43MOL0     O 5591   2.002  11.082  12.073 -0.0177  0.0107 -0.8684
   43MOL0     C 5592   2.124  11.380  11.927  0.2704 -0.5731 -0.6017
   43MOL0     C 5593   2.222  11.431  11.849 -1.0266 -0.5539  0.0339
   43MOL0     N 5594   2.937  11.531  11.638 -0.4627 -0.7966  0.8943
   43MOL0     N 5595   3.067  11.516  11.676  0.3068  0.2483 -0.1107
   43MOL0     C 5596   4.337  10.972  11.502  0.6577 -0.5911  0.5377
   43MOL0     C 5597   4.441  10.924  11.424 -0.8705  0.8851  0.7423
   43MOL0     C 5598   4.710  10.818  11.091 -0.3395 -0.2138 -0.1640
   43MOL0     C 5599   4.793  10.723  11.158 -0.8856 -1.0531  0.4777
   43MOL0     C 5600   4.924  10.696  11.105  0.2136  0.0162 -0.2787
   43MOL0     C 5601   4.966  10.760  10.987  0.1115  0.4520 -0.7339
   43MOL0     O 5602   5.089  10.733  10.927 -0.2531  0.1325 -0.3118
   43MOL0     C 5603   5.166  10.613  10.959  1.0758  0.1826 -0.4323
   43MOL0     C 5604   5.260  10.623  11.075  0.7168  0.9714 -0.4048
   43MOL0     C 5605   5.393  10.681  11.027  0.5474 -0.4595  0.1274
   43MOL0     C 5606   5.504  10.581  11.034 -0.0969 -0.5477 -0.6967
   43MOL0     C 5607   5.493  10.498  10.915 -0.1066 -0.5353 -0.4135
   43MOL0     C 5608   5.464  10.421  10.826 -0.9226  0.3158 -0.5602
   43MOL0     C 5609   4.881  10.854  10.924 -0.0795  0.5095 -0.4984
   43MOL0     C 5610   4.758  10.882  10.975 -0.4461 -0.2255  0.0763
   43MOL0     H 5611   4.279  10.712  11.219  0.6055  0.0679 -0.2933
   43MOL0     H 5612   4.093  10.794  11.351 -0.1677  0.5055  2.3955
   43MOL0     H 5613   3.948  10.956  11.402  0.3636 -1.0364  1.1849
   43MOL0     H 5614   3.981  11.131  11.418 -1.6367  1.2721  1.2106
   43MOL0     H 5615   3.931  11.084  11.673 -0.1046 -1.2998  0.2053
   43MOL0     H 5616   3.850  10.953  11.617  1.1401 -0.9941 -1.5397
   43MOL0     H 5617   3.730  11.093  11.446 -1.1980  0.5323  0.5567
   43MOL0     H 5618   3.794  11.241  11.518 -4.1278  1.5698 -2.6688
   43MOL0     H 5619   3.614  11.039  11.676 -5.0125  2.0622  2.1094
   43MOL0     H 5620   3.659  11.200  11.733 -1.7122 -2.6941  2.8456
   43MOL0     H 5621   3.475  11.129  11.503  0.3065  1.8847 -0.3652
   43MOL0     H 5622   3.531  11.284  11.512  1.7369  0.4632 -0.2836
   43MOL0     H 5623   3.452  11.304  11.749  1.4065 -0.6046 -1.4067
   43MOL0     H 5624   3.437  11.125  11.755  1.7644  0.2911  1.4716
   43MOL0     H 5625   3.272  11.153  11.569  1.1599 -1.6045  0.8602
   43MOL0     H 5626   3.215  11.224  11.729 -0.9399 -0.4025 -0.3338
   43MOL0     H 5627   3.293  11.388  11.487  0.6257 -1.3238  0.3903
   43MOL0     H 5628   3.315  11.456  11.648 -0.0652  1.3664 -0.2691
   43MOL0     H 5629   3.037  11.290  11.434 -0.5632  2.0159 -2.5999
   43MOL0     H 5630   2.781  11.348  11.409 -2.3969  1.0226 -1.0723
   43MOL0     H 5631   2.806  11.519  11.365 -1.4227  0.2786  0.2958
   43MOL0     H 5632   2.581  11.498  11.459  0.3296 -2.5652 -0.6119
   43MOL0     H 5633   2.682  11.584  11.576  2.6238  0.3148 -1.7727
   43MOL0     H 5634   2.577  11.305  11.584 -0.2261 -2.2996  2.7259
   43MOL0     H 5635   2.728  11.342  11.674  0.8568  3.1329  1.2655
   43MOL0     H 5636   2.586  11.508  11.798  0.8893  0.4760 -1.6524
   43MOL0     H 5637   2.572  11.336  11.837 -1.2417  1.9055  1.6450
   43MOL0     H 5638   2.415  11.161  11.808 -0.6849 -0.3925  0.4360
   43MOL0     H 5639   2.239  11.066  11.953  1.9865  0.7201  0.6092
   43MOL0     H 5640   1.734  11.448  12.081 -1.1642  1.2491 -1.2351
   43MOL0     H 5641   1.517  11.447  12.202 -0.3753 -0.1535 -2.4622
   43MOL0     H 5642   1.302  11.329  12.212 -0.8421 -0.3315  0.3221
   43MOL0     H 5643   1.341  11.396  12.366  0.5236 -0.2406 -0.2514
   43MOL0     H 5644   1.190  11.134  12.372 -0.8015 -0.2266  0.2522
   43MOL0     H 5645   1.098  11.265  12.294 -0.3769  2.1832  0.8641
   43MOL0     H 5646   1.157  11.412  12.498 -3.1722  0.1344 -1.9990
   43MOL0     H 5647   1.238  11.272  12.563  1.0824 -0.7905 -1.9434
   43MOL0     H 5648   0.939  11.283  12.485  1.3490 -1.4615 -0.0112
   43MOL0     H 5649   1.015  11.147  12.546 -0.2813 -0.2855 -2.9810
   43MOL0     H 5650   0.988  11.423  12.680 -0.7185  0.6394  1.5931
   43MOL0     H 5651   1.076  11.293  12.761  0.6463 -0.7583 -0.9282
   43MOL0     H 5652   0.878  11.310  12.850  4.2268  2.2778 -2.0742
   43MOL0     H 5653   0.888  11.147  12.770  1.0074  0.1156 -2.5642
   43MOL0     H 5654   0.673  11.316  12.765  1.8515 -0.0195  1.1578
   43MOL0     H 5655   0.742  11.349  12.603  0.0501  2.3775  1.6703
   43MOL0     H 5656   0.668  11.070  12.729 -1.2547  2.3647  1.7862
   43MOL0     H 5657   0.747  11.091  12.572 -0.4221  1.2361 -0.8678
   43MOL0     H 5658   1.628  11.064  12.364  1.1517  0.0835 -0.1895
   43MOL0     H 5659   1.834  11.070  12.237 -1.5063 -0.8549 -0.6999
   43MOL0     H 5660   2.052  11.443  11.979  1.3470 -1.3713  1.9805
   43MOL0     H 5661   2.225  11.538  11.831 -0.1159 -0.5500  0.1661
   43MOL0     H 5662   4.348  11.042  11.585 -0.6085 -0.1865  0.3818
   43MOL0     H 5663   4.541  10.950  11.457 -0.1028 -1.0161  0.1032
   43MOL0     H 5664   4.765  10.685  11.255  1.5030 -0.2110  1.5770
   43MOL0     H 5665   4.985  10.624  11.158 -0.4210  0.2331  0.7780
   43MOL0     H 5666   5.217  10.586  10.866 -1.6363 -0.7912 -1.7155
   43MOL0     H 5667   5.096  10.530  10.975  0.3644  1.1822  2.1528
   43MOL0     H 5668   5.210  10.693  11.144 -0.6058 -0.4205  0.1200
   43MOL0     H 5669   5.268  10.530  11.132 -2.4922 -0.3409 -1.8335
   43MOL0     H 5670   5.417  10.764  11.093 -1.2177  1.6256 -1.6911
   43MOL0     H 5671   5.385  10.721  10.925  2.5989 -3.6425 -1.4762
   43MOL0     H 5672   5.604  10.626  11.033 -0.2447 -0.0503 -3.7448
   43MOL0     H 5673   5.504  10.524  11.127  1.2268 -0.4103 -0.5915
   43MOL0     H 5674   5.435  10.338  10.764 -0.6852 -0.5424  0.4424
   43MOL0     H 5675   4.918  10.897  10.831 -2.0564  0.7079 -1.2321
   43MOL0     H 5676   4.697  10.960  10.932 -1.2719 -0.3573  0.9741
   44MOL0     O 5677   9.113   1.020   1.737 -0.2599  0.1418 -0.5675
   44MOL0     C 5678   9.063   1.009   1.853 -0.4240 -0.6988  0.1396
   44MOL0     O 5679   9.123   1.008   1.972 -1.0404  0.7596 -0.0213
   44MOL0     C 5680   9.261   1.020   1.975  0.1243  0.6638  0.3774
   44MOL0     C 5681   9.332   0.932   2.052  0.8082  0.1412  1.0355
   44MOL0     C 5682   9.475   0.934   2.064 -0.4425  0.9113 -0.1692
   44MOL0     C 5683   9.542   1.043   2.003  0.3595  0.8060  1.0127
   44MOL0     O 5684   9.682   1.065   1.998  0.5641  0.0833 -0.6394
   44MOL0     C 5685   9.750   0.976   2.081  0.5107 -0.0094  0.3347
   44MOL0     C 5686   9.899   1.013   2.091  0.2540 -0.3848 -0.0511
   44MOL0     C 5687   9.967   0.930   2.194  0.2940 -0.2505  0.0798
   44MOL0     C 5688  10.099   0.977   2.244  0.3186  0.1863 -0.6915
   44MOL0     C 5689  10.091   1.107   2.326 -0.1960 -0.3174 -0.8810
   44MOL0     C 5690  10.238   1.151   2.350 -0.4747 -0.3364  0.1777
   44MOL0     C 5691  10.260   1.260   2.456 -0.0909 -0.0555 -0.2870
   44MOL0     C 5692  10.181   1.240   2.583 -0.0115  0.4701 -0.0830
   44MOL0     N 5693  10.250   1.315   2.693  0.2420  0.4198 -0.0128
   44MOL0     C 5694  10.279   1.450   2.695  0.0026  0.2709 -0.2478
   44MOL0     C 5695  10.341   1.467   2.814 -0.2460 -1.2031  0.1416
   44MOL0     C 5696  10.399   1.597   2.860 -0.1592 -0.0588  0.2263
   44MOL0     C 5697  10.372   1.712   2.770 -0.2384 -0.6731 -0.0385
   44MOL0     C 5698  10.392   1.838   2.853  0.3497 -0.2771  0.0353
   44MOL0     C 5699  10.330   1.961   2.790 -0.5663  0.0294 -0.6512
   44MOL0     O 5700  10.265   2.058   2.881 -1.1049  0.2591  0.1042
   44MOL0     C 5701  10.127   2.069   2.878  0.5982 -0.1743  0.1608
   44MOL0     C 5702  10.033   1.963   2.849  0.2168  0.7805  0.3472
   44MOL0     C 5703   9.899   1.980   2.866  1.0645 -0.6204  0.0503
   44MOL0     C 5704   9.849   2.103   2.914 -0.4201  0.4578 -0.0559
   44MOL0     C 5705   9.703   2.123   2.912  0.5506  0.5301 -0.0658
   44MOL0     O 5706   9.614   2.018   2.921 -0.5872  0.5088  0.1604
   44MOL0     C 5707   9.485   2.040   2.950  0.3683 -0.4706 -0.5947
   44MOL0     C 5708   9.409   1.927   2.910  0.1695  0.4941  0.1371
   44MOL0     C 5709   9.269   1.936   2.923 -0.5537  0.5874 -0.0570
   44MOL0     C 5710   9.213   2.044   2.978 -0.1857 -0.1917  0.5717
   44MOL0     O 5711   9.076   2.037   2.990 -0.1707  0.3961 -0.4786
   44MOL0     C 5712   8.996   2.149   3.013  0.2426 -0.4624 -0.0861
   44MOL0     C 5713   8.863   2.092   3.048  0.8518 -0.0958  0.5836
   44MOL0     C 5714   8.751   2.197   3.015 -0.1376 -0.2146  0.1782
   44MOL0     C 5715   8.613   2.155   3.057  0.4537  0.2893  0.4429
   44MOL0     C 5716   8.536   2.066   2.961 -0.5080 -0.2373 -0.1543
   44MOL0     C 5717   8.386   2.108   2.968 -0.4402 -0.2056  0.0418
   44MOL0     C 5718   8.279   2.006   2.907 -0.8964  1.1039 -0.4364
   44MOL0     C 5719   8.135   2.047   2.937  0.4394  0.6120 -0.5738
   44MOL0    Cl 5720   8.069   2.148   2.812 -0.0023 -0.3078 -0.1168
   44MOL0     C 5721   9.288   2.157   3.020  0.4165  0.2815 -1.1194
   44MOL0     C 5722   9.424   2.160   3.007  0.3009 -0.7255  0.7751
   44MOL0     O 5723   9.664   2.239   2.907 -0.2288  0.4832 -0.5800
   44MOL0     C 5724   9.935   2.212   2.942 -0.1760 -1.1604  0.7269
   44MOL0     C 5725  10.079   2.193   2.928  0.0847 -0.0658 -0.0825
   44MOL0     N 5726  10.339   1.346   2.885 -0.4117 -0.0353 -0.8122
   44MOL0     N 5727  10.298   1.258   2.806 -0.5161 -1.0236 -0.3026
   44MOL0     C 5728   9.472   1.132   1.925 -0.0945  0.2294  0.0434
   44MOL0     C 5729   9.335   1.119   1.903  0.3455  0.9962 -0.1519
   44MOL0     C 5730   8.922   0.987   1.847 -0.8499 -0.4313 -0.0278
   44MOL0     C 5731   8.852   0.916   1.956  0.6738 -0.5132 -0.8763
   44MOL0     C 5732   8.712   0.896   1.946 -0.9101 -0.4957 -0.7679
   44MOL0     C 5733   8.636   0.937   1.831 -1.1342  0.2242 -0.1724
   44MOL0     O 5734   8.504   0.940   1.834 -0.9446  0.3986 -0.8599
   44MOL0     C 5735   8.452   0.822   1.792 -0.0989 -0.4808  0.5323
   44MOL0     C 5736   8.332   0.849   1.707  0.1719 -0.1740 -0.8131
   44MOL0     C 5737   8.222   0.746   1.726  0.7075 -0.8479  0.2948
   44MOL0     C 5738   8.084   0.785   1.671  0.2239 -0.1438  0.1052
   44MOL0     C 5739   8.088   0.768   1.525 -0.2470 -1.1113 -0.0378
   44MOL0     C 5740   8.100   0.776   1.404  0.5415 -0.0744  0.6511
   44MOL0     C 5741   8.705   0.999   1.727  0.0297 -0.4250  0.3409
   44MOL0     C 5742   8.848   1.023   1.733  0.6286 -0.2631 -0.6767
   44MOL0     H 5743   9.278   0.859   2.112 -2.2319  0.8062 -0.7044
   44MOL0     H 5744   9.522   0.864   2.132  0.5169  1.3893 -0.3326
   44MOL0     H 5745   9.753   0.871   2.051 -0.2649  0.5012 -1.7305
   44MOL0     H 5746   9.702   0.982   2.179 -2.0780  0.1050 -0.8523
   44MOL0     H 5747   9.908   1.119   2.119 -0.4329 -0.2227 -0.4186
   44MOL0     H 5748   9.951   0.995   1.997 -1.3701  1.9091 -1.4801
   44MOL0     H 5749   9.972   0.830   2.150 -1.9583 -0.4575  0.1716
   44MOL0     H 5750   9.903   0.915   2.282  1.6542  0.7751  1.3050
   44MOL0     H 5751  10.134   0.891   2.303  0.4747 -1.8025 -3.4543
   44MOL0     H 5752  10.166   0.987   2.158  0.3495 -1.9404 -0.9811
   44MOL0     H 5753  10.038   1.091   2.421 -0.8428 -0.1596 -1.2152
   44MOL0     H 5754  10.032   1.186   2.278  2.8877  2.3453 -0.6614
   44MOL0     H 5755  10.282   1.186   2.256 -0.6203  0.0627  0.2597
   44MOL0     H 5756  10.285   1.060   2.390 -2.3171 -1.5010 -0.1662
   44MOL0     H 5757  10.365   1.269   2.482  1.0185  0.0130 -4.2202
   44MOL0     H 5758  10.232   1.353   2.405  0.1912 -0.6262 -1.5282
   44MOL0     H 5759  10.177   1.136   2.616 -0.7699  1.4891  3.3721
   44MOL0     H 5760  10.079   1.276   2.575  0.1814  0.6559 -3.3880
   44MOL0     H 5761  10.273   1.519   2.612 -1.1986  2.1398  1.3151
   44MOL0     H 5762  10.508   1.587   2.874  0.1272 -0.2361 -1.7706
   44MOL0     H 5763  10.352   1.612   2.957  0.1903  1.4276  0.1870
   44MOL0     H 5764  10.271   1.715   2.727 -0.5639  0.0135  0.7467
   44MOL0     H 5765  10.439   1.710   2.684 -1.2696 -2.0560 -0.8568
   44MOL0     H 5766  10.349   1.825   2.952  0.2043 -3.6263 -0.3610
   44MOL0     H 5767  10.501   1.849   2.860  0.4369  0.6583 -1.9932
   44MOL0     H 5768  10.258   1.939   2.711  0.9700 -2.7900 -1.3851
   44MOL0     H 5769  10.407   2.022   2.742 -0.2879 -1.3008 -1.9664
   44MOL0     H 5770  10.064   1.868   2.808  0.4954  0.2746  1.6812
   44MOL0     H 5771   9.828   1.906   2.830 -1.0408  2.8087 -3.6982
   44MOL0     H 5772   9.467   1.846   2.867  0.2792 -0.3137  1.7196
   44MOL0     H 5773   9.207   1.851   2.898  1.9990 -1.7502  1.0993
   44MOL0     H 5774   8.980   2.211   2.925 -1.1837  2.9355  2.3422
   44MOL0     H 5775   9.021   2.221   3.092  0.8693 -0.1897 -0.5270
   44MOL0     H 5776   8.848   2.073   3.155  0.1806 -0.4392  0.4373
   44MOL0     H 5777   8.851   1.996   2.998 -0.8250  0.3668  0.0444
   44MOL0     H 5778   8.745   2.229   2.910 -2.1289  0.2419  0.4071
   44MOL0     H 5779   8.764   2.285   3.078  0.0506  0.9051 -1.3725
   44MOL0     H 5780   8.615   2.108   3.156  0.5308  0.4480  0.5165
   44MOL0     H 5781   8.559   2.249   3.068 -2.3978 -0.8104 -2.5100
   44MOL0     H 5782   8.558   1.963   2.990 -1.0769 -0.2751  0.1582
   44MOL0     H 5783   8.566   2.091   2.859 -1.4299  2.2263  0.0884
   44MOL0     H 5784   8.370   2.205   2.920 -0.7372  0.2521  1.0416
   44MOL0     H 5785   8.364   2.115   3.075  0.1777 -0.5654  0.1980
   44MOL0     H 5786   8.298   2.003   2.799  2.0708 -1.4849  0.0090
   44MOL0     H 5787   8.299   1.905   2.943 -3.0363  0.5905 -0.5284
   44MOL0     H 5788   8.146   2.107   3.029  1.8047 -2.8252  1.6864
   44MOL0     H 5789   8.083   1.953   2.957  2.2469 -0.2672  0.2257
   44MOL0     H 5790   9.238   2.249   3.047  2.2538  0.6480  1.3481
   44MOL0     H 5791   9.472   2.253   3.034  2.0409 -1.1926 -0.5401
   44MOL0     H 5792   9.892   2.304   2.980  0.3041 -2.5232  5.2872
   44MOL0     H 5793  10.140   2.277   2.960  0.4703 -1.0139  1.8155
   44MOL0     H 5794   9.527   1.209   1.874 -0.3899  1.5581  1.6460
   44MOL0     H 5795   9.280   1.195   1.849 -1.1271  0.1464  0.1095
   44MOL0     H 5796   8.895   0.885   2.051  0.3915 -2.2938 -1.2885
   44MOL0     H 5797   8.651   0.858   2.028  1.1255  0.6933  1.4056
   44MOL0     H 5798   8.415   0.765   1.878 -4.5915  1.0881 -0.1304
   44MOL0     H 5799   8.528   0.766   1.736 -1.0189 -0.1153 -1.1491
   44MOL0     H 5800   8.288   0.944   1.739  1.5612  0.6380 -1.2191
   44MOL0     H 5801   8.350   0.860   1.599 -2.7283 -0.7226 -1.4459
   44MOL0     H 5802   8.213   0.732   1.834  1.0988 -4.8018 -0.0532
   44MOL0     H 5803   8.267   0.654   1.689  1.0868 -1.0788  1.3126
   44MOL0     H 5804   8.009   0.721   1.720  1.5663 -0.1521  2.3120
   44MOL0     H 5805   8.046   0.885   1.695  0.5397  0.2717 -1.0554
   44MOL0     H 5806   8.103   0.794   1.298 -1.1962  0.9843  0.7440
   44MOL0     H 5807   8.651   1.032   1.638  1.2814  3.2388  0.7620
   44MOL0     H 5808   8.897   1.079   1.654  2.5494  0.1262  0.7256
   45MOL0     O 5809   5.143   9.656   7.124 -0.4420  0.8379  0.4304
   45MOL0     C 5810   5.198   9.542   7.120  0.5531 -0.5344 -0.4723
   45MOL0     O 5811   5.148   9.422   7.155  0.0605 -0.0215 -0.6132
   45MOL0     C 5812   5.011   9.421   7.163 -0.2608  0.5793  1.4106
   45MOL0     C 5813   4.932   9.417   7.046  0.2117  0.0382  0.7965
   45MOL0     C 5814   4.796   9.445   7.055  0.2675  0.3112  0.2706
   45MOL0     C 5815   4.731   9.468   7.169  0.4432 -0.4162 -0.4184
   45MOL0     O 5816   4.597   9.494   7.155  0.1779 -0.1869  0.8629
   45MOL0     C 5817   4.536   9.519   7.278  1.3054 -0.1198  0.5030
   45MOL0     C 5818   4.383   9.496   7.250  0.0184  0.3766 -0.5175
   45MOL0     C 5819   4.299   9.573   7.358  0.2394 -0.2200 -0.3605
   45MOL0     C 5820   4.144   9.529   7.358  0.4507 -0.3147 -0.0701
   45MOL0     C 5821   4.078   9.529   7.221 -0.5031  0.3021  0.5436
   45MOL0     C 5822   3.926   9.560   7.234 -0.7010 -0.2359  0.1640
   45MOL0     C 5823   3.867   9.565   7.097  0.8805 -0.0797  0.0661
   45MOL0     C 5824   3.715   9.590   7.096  0.1511  0.0554  0.2280
   45MOL0     N 5825   3.682   9.723   7.137 -0.5516  0.2005 -0.1607
   45MOL0     C 5826   3.727   9.846   7.077  0.4636  0.3177  0.0021
   45MOL0     C 5827   3.657   9.937   7.153  1.0924  0.3734 -0.4988
   45MOL0     C 5828   3.659  10.079   7.148 -0.0863  0.2413 -0.0033
   45MOL0     C 5829   3.632  10.132   7.002  0.8243  0.8467 -0.0544
   45MOL0     C 5830   3.606  10.291   7.020 -0.2518  0.1145  0.6227
   45MOL0     C 5831   3.721  10.377   7.067 -1.0651  0.4775 -0.6430
   45MOL0     O 5832   3.839  10.352   6.980  0.3122  0.0771  0.2263
   45MOL0     C 5833   3.951  10.309   7.042  0.3328  0.1846 -0.2834
   45MOL0     C 5834   4.018  10.395   7.134  0.4810 -0.0823  0.0225
   45MOL0     C 5835   4.139  10.361   7.194 -0.0536 -0.8036 -0.0832
   45MOL0     C 5836   4.182  10.231   7.179  0.3036  0.1970 -0.2574
   45MOL0     C 5837   4.299  10.184   7.251 -0.7450  0.1124  0.6967
   45MOL0     O 5838   4.380  10.094   7.185 -0.0913  0.3597  0.1170
   45MOL0     C 5839   4.485  10.021   7.246  0.9714 -0.4258  0.2028
   45MOL0     C 5840   4.585   9.960   7.163  0.5989 -0.7899 -0.3514
   45MOL0     C 5841   4.685   9.884   7.210 -0.1833  0.9408  0.3399
   45MOL0     C 5842   4.692   9.857   7.348  0.5359 -1.0064  0.5396
   45MOL0     O 5843   4.794   9.784   7.405  0.6163  0.5127 -0.0564
   45MOL0     C 5844   4.931   9.797   7.360  0.0700 -0.1397 -0.0133
   45MOL0     C 5845   4.987   9.934   7.404  0.3661  0.2778  0.9253
   45MOL0     C 5846   5.135   9.932   7.359 -0.3038  0.2929  0.1883
   45MOL0     C 5847   5.228   9.854   7.454  0.3624  0.5946  0.9758
   45MOL0     C 5848   5.373   9.890   7.434 -0.3390 -0.6649  1.0702
   45MOL0     C 5849   5.479   9.816   7.519 -1.0544 -0.4820  1.3757
   45MOL0     C 5850   5.615   9.845   7.465 -0.1488  0.6977  0.4805
   45MOL0     C 5851   5.720   9.867   7.574  0.4641  1.3572  0.5775
   45MOL0    Cl 5852   5.771   9.713   7.650  0.4973 -0.4572 -0.2173
   45MOL0     C 5853   4.583   9.897   7.428 -1.3924  0.3059  0.3918
   45MOL0     C 5854   4.490   9.986   7.386 -0.0685  0.2354  0.7224
   45MOL0     O 5855   4.312  10.230   7.366  0.0518  0.2447  0.2181
   45MOL0     C 5856   4.115  10.141   7.097 -0.0462 -0.3191 -0.1961
   45MOL0     C 5857   4.002  10.179   7.016  0.2371 -0.8271 -0.0326
   45MOL0     N 5858   3.574   9.868   7.242 -0.0518  0.5768 -0.1624
   45MOL0     N 5859   3.580   9.744   7.214  0.2621  0.7306 -0.1660
   45MOL0     C 5860   4.812   9.462   7.288  0.3118 -0.3165  0.2091
   45MOL0     C 5861   4.945   9.434   7.281  0.1868  0.1356 -0.7992
   45MOL0     C 5862   5.334   9.545   7.070  0.2724 -0.9040 -0.4137
   45MOL0     C 5863   5.387   9.434   7.002 -0.0728  0.2878 -0.1825
   45MOL0     C 5864   5.521   9.415   6.971  0.1420 -0.1591 -0.7595
   45MOL0     C 5865   5.608   9.529   6.982 -0.3108 -0.0385  0.0878
   45MOL0     O 5866   5.740   9.528   6.956  0.1558 -0.1505 -0.7114
   45MOL0     C 5867   5.787   9.431   6.859 -0.3662 -0.6152  0.0587
   45MOL0     C 5868   5.929   9.461   6.823 -0.2632 -0.9609 -0.0330
   45MOL0     C 5869   5.937   9.595   6.748 -0.2040 -0.5846  0.0002
   45MOL0     C 5870   6.068   9.635   6.676 -0.6868 -0.1743  0.6663
   45MOL0     C 5871   6.192   9.617   6.751 -0.1106  0.6306  0.0497
   45MOL0     C 5872   6.286   9.608   6.828 -0.4240  0.6988  0.4936
   45MOL0     C 5873   5.553   9.647   7.040  0.8254 -0.3256  0.4798
   45MOL0     C 5874   5.424   9.655   7.088  0.8920 -0.2770  0.5342
   45MOL0     H 5875   4.980   9.401   6.950 -1.1782  1.0460 -0.1070
   45MOL0     H 5876   4.730   9.445   6.970  0.0366  1.5399  0.4301
   45MOL0     H 5877   4.544   9.624   7.308 -1.9807  0.7768 -1.1967
   45MOL0     H 5878   4.570   9.459   7.362  1.0190 -0.5267  0.3343
   45MOL0     H 5879   4.361   9.389   7.256  4.9014 -0.7727  1.3311
   45MOL0     H 5880   4.353   9.525   7.149  1.2154 -4.0252 -2.3962
   45MOL0     H 5881   4.289   9.678   7.330 -0.9375 -0.3723 -0.5696
   45MOL0     H 5882   4.347   9.574   7.456  1.6300  0.6187 -1.0140
   45MOL0     H 5883   4.131   9.431   7.406  2.2180 -0.2816  0.5652
   45MOL0     H 5884   4.087   9.601   7.416  0.2494 -1.3035  1.0011
   45MOL0     H 5885   4.082   9.430   7.173 -0.9968  0.6067 -0.1453
   45MOL0     H 5886   4.131   9.604   7.163  1.3419 -0.7509  0.7844
   45MOL0     H 5887   3.902   9.652   7.289 -1.0681  0.8927 -1.7837
   45MOL0     H 5888   3.874   9.484   7.294 -0.9481 -2.9703 -3.2404
   45MOL0     H 5889   3.919   9.640   7.036 -2.4972 -1.0262 -4.5476
   45MOL0     H 5890   3.877   9.466   7.049  1.2545  0.3792 -0.8309
   45MOL0     H 5891   3.657   9.516   7.153 -0.9220  0.3083 -0.4979
   45MOL0     H 5892   3.672   9.582   6.996 -1.0869 -1.3771  0.8433
   45MOL0     H 5893   3.809   9.865   7.008 -0.4877  1.7199 -0.8077
   45MOL0     H 5894   3.760  10.098   7.184 -1.4242  4.3252  2.2802
   45MOL0     H 5895   3.587  10.129   7.214 -1.4754 -1.6033 -0.0485
   45MOL0     H 5896   3.544  10.079   6.963  2.3366 -1.3811 -0.6611
   45MOL0     H 5897   3.709  10.121   6.925 -0.5332  0.4187 -1.3962
   45MOL0     H 5898   3.593  10.326   6.918  0.2963  0.3830  0.6439
   45MOL0     H 5899   3.516  10.299   7.081 -1.8714  2.5840 -1.8621
   45MOL0     H 5900   3.752  10.359   7.170 -0.7381  1.6736 -0.5205
   45MOL0     H 5901   3.688  10.481   7.061  1.5805  1.3388 -2.3715
   45MOL0     H 5902   3.979  10.495   7.145 -2.9558 -1.4972  2.3798
   45MOL0     H 5903   4.193  10.424   7.264  1.0745 -2.6479  0.7893
   45MOL0     H 5904   4.590   9.973   7.055  1.5126 -1.4610 -0.3983
   45MOL0     H 5905   4.760   9.841   7.144 -1.7119  0.5160 -1.1878
   45MOL0     H 5906   4.939   9.791   7.251  0.4724 -2.3937  0.0813
   45MOL0     H 5907   4.978   9.710   7.408 -2.0311 -0.3090  1.8663
   45MOL0     H 5908   4.977   9.942   7.512 -2.2455  0.6535  0.7120
   45MOL0     H 5909   4.927  10.011   7.356  2.0750 -0.4312 -2.7942
   45MOL0     H 5910   5.154  10.040   7.355 -1.2352  0.5693  2.0072
   45MOL0     H 5911   5.138   9.887   7.259 -1.9088  2.6130 -0.9950
   45MOL0     H 5912   5.194   9.880   7.554  0.6595 -0.0500  1.2506
   45MOL0     H 5913   5.213   9.745   7.452 -2.0550  0.8873  0.0958
   45MOL0     H 5914   5.395   9.997   7.435  2.0031 -0.9653 -2.1371
   45MOL0     H 5915   5.400   9.867   7.330  1.7148  1.8591  0.9439
   45MOL0     H 5916   5.452   9.712   7.501 -0.9020 -0.0001 -2.4795
   45MOL0     H 5917   5.472   9.856   7.621 -0.5574 -1.8639  1.9743
   45MOL0     H 5918   5.651   9.765   7.400 -3.0519  1.8708 -2.8618
   45MOL0     H 5919   5.608   9.935   7.403  4.0151  0.4826 -0.5634
   45MOL0     H 5920   5.676   9.941   7.641 -1.0484  0.2554  0.8519
   45MOL0     H 5921   5.816   9.906   7.540  1.2060 -1.0167 -0.2418
   45MOL0     H 5922   4.597   9.862   7.529 -1.7555 -0.9573  0.0214
   45MOL0     H 5923   4.410  10.023   7.449 -0.3663 -2.5654  2.1341
   45MOL0     H 5924   4.133  10.036   7.077  0.7005 -0.9178  2.9545
   45MOL0     H 5925   3.950  10.109   6.951  1.8394 -0.8771 -1.3227
   45MOL0     H 5926   4.770   9.476   7.386 -2.4291  0.5924 -0.9977
   45MOL0     H 5927   5.007   9.440   7.370 -1.1037 -0.6236  0.1836
   45MOL0     H 5928   5.333   9.340   6.994  2.2018 -1.1933  0.6481
   45MOL0     H 5929   5.570   9.326   6.934 -1.0697 -1.2175  0.1057
   45MOL0     H 5930   5.718   9.429   6.774  0.8077 -0.0755 -0.9491
   45MOL0     H 5931   5.787   9.330   6.902 -1.2678 -0.3557  0.6908
   45MOL0     H 5932   5.990   9.467   6.914 -0.1395  2.2826 -0.2222
   45MOL0     H 5933   5.970   9.387   6.753 -0.5213 -0.5007 -0.6833
   45MOL0     H 5934   5.904   9.680   6.808  1.7442 -1.5381  2.6347
   45MOL0     H 5935   5.854   9.589   6.676 -0.8329 -2.1829  0.8164
   45MOL0     H 5936   6.074   9.562   6.595  1.1350  0.0401  0.5747
   45MOL0     H 5937   6.062   9.732   6.627 -0.8955 -0.9899 -0.9801
   45MOL0     H 5938   6.364   9.611   6.901 -3.6654  1.1105  4.2301
   45MOL0     H 5939   5.614   9.734   7.063  2.1031 -0.1531 -2.9487
   45MOL0     H 5940   5.393   9.750   7.129 -2.4936 -1.2141  0.3984
   46MOL0     O 5941   4.778   8.820   9.238 -0.4789 -0.3058 -0.0923
   46MOL0     C 5942   4.791   8.779   9.123  0.2160  0.0952  0.3551
   46MOL0     O 5943   4.703   8.692   9.066 -0.0642  0.0777  0.0247
   46MOL0     C 5944   4.585   8.669   9.135  0.0901  0.9402  0.8796
   46MOL0     C 5945   4.477   8.676   9.050  0.6447 -0.0275  0.5933
   46MOL0     C 5946   4.349   8.647   9.102  0.3002 -0.0984 -0.8795
   46MOL0     C 5947   4.341   8.598   9.234  0.1806 -0.0878 -0.0492
   46MOL0     O 5948   4.225   8.560   9.296  0.6853  0.4242 -0.5819
   46MOL0     C 5949   4.104   8.582   9.213  0.6450  0.5511  0.8724
   46MOL0     C 5950   3.976   8.583   9.293  0.0327 -0.6508 -0.2279
   46MOL0     C 5951   3.910   8.444   9.309  0.8256  0.1498  0.4167
   46MOL0     C 5952   3.793   8.455   9.408  0.7367  0.2527  0.7119
   46MOL0     C 5953   3.717   8.319   9.412 -0.5885  0.3599  0.2486
   46MOL0     C 5954   3.580   8.332   9.483  0.2738 -0.0989 -0.3596
   46MOL0     C 5955   3.506   8.201   9.454  0.7588  0.5166  0.2830
   46MOL0     C 5956   3.373   8.210   9.527  0.0134 -0.0295 -0.2828
   46MOL0     N 5957   3.279   8.103   9.485 -0.5044  0.0114 -0.4410
   46MOL0     C 5958   3.201   8.101   9.367  0.1838  0.1240 -1.1757
   46MOL0     C 5959   3.137   7.982   9.378  0.3246  0.1202 -0.3549
   46MOL0     C 5960   3.047   7.915   9.274  0.4100 -0.4226 -0.3812
   46MOL0     C 5961   2.908   7.890   9.340  0.6712  0.4919  0.0068
   46MOL0     C 5962   2.838   7.773   9.263 -0.1213  0.2074  0.2748
   46MOL0     C 5963   2.681   7.785   9.257 -0.3612  0.6399 -0.2759
   46MOL0     O 5964   2.634   7.654   9.234 -0.0259 -0.3671  0.2526
   46MOL0     C 5965   2.500   7.653   9.205 -0.0309  0.2864 -0.1558
   46MOL0     C 5966   2.458   7.647   9.068  0.2117 -0.4098 -0.7994
   46MOL0     C 5967   2.326   7.617   9.029  0.2331 -0.4313  0.3179
   46MOL0     C 5968   2.224   7.624   9.125  0.3546  0.1521 -0.0689
   46MOL0     C 5969   2.086   7.597   9.087 -0.0883 -0.0018  0.1784
   46MOL0     O 5970   2.059   7.608   8.953 -0.4504  0.6741 -0.8713
   46MOL0     C 5971   1.938   7.557   8.904 -0.3255  0.5578  0.8441
   46MOL0     C 5972   1.817   7.610   8.933 -0.1227 -0.1697 -0.3994
   46MOL0     C 5973   1.699   7.559   8.880 -0.3660  0.5641  0.0911
   46MOL0     C 5974   1.702   7.447   8.798  0.1172 -0.2519 -0.7281
   46MOL0     O 5975   1.590   7.385   8.745  0.0208 -0.5943 -0.2525
   46MOL0     C 5976   1.469   7.400   8.821  0.4289  0.0002 -0.5739
   46MOL0     C 5977   1.386   7.274   8.804 -0.3365  0.0784 -0.4207
   46MOL0     C 5978   1.257   7.292   8.736 -0.4667 -0.4730 -0.0058
   46MOL0     C 5979   1.153   7.384   8.805  0.2236 -0.6673 -0.0470
   46MOL0     C 5980   1.050   7.436   8.708 -0.9489  0.2632 -0.5973
   46MOL0     C 5981   0.955   7.530   8.786  0.1297 -0.2326 -1.1319
   46MOL0     C 5982   0.887   7.628   8.685  0.3593  0.7389  0.8367
   46MOL0     C 5983   0.788   7.727   8.748 -0.1654 -0.1412 -0.0588
   46MOL0    Cl 5984   0.862   7.803   8.891  0.0418 -0.1465 -0.5044
   46MOL0     C 5985   1.825   7.381   8.778  0.2601  0.4849 -0.9885
   46MOL0     C 5986   1.942   7.433   8.830 -1.1154 -0.3579 -0.8943
   46MOL0     O 5987   2.014   7.552   9.172 -0.2148 -0.4575  0.2995
   46MOL0     C 5988   2.258   7.644   9.253 -0.9044 -0.4769 -0.4095
   46MOL0     C 5989   2.392   7.666   9.299  0.0170  0.2489  0.9108
   46MOL0     N 5990   3.167   7.920   9.499  0.4358  0.7416  0.1145
   46MOL0     N 5991   3.260   7.993   9.555 -0.1164  0.6691 -0.1314
   46MOL0     C 5992   4.447   8.586   9.317 -0.0898 -0.1771 -0.2778
   46MOL0     C 5993   4.573   8.623   9.266 -0.4037 -0.2862 -0.5849
   46MOL0     C 5994   4.919   8.815   9.046  0.2966  0.1189 -0.5372
   46MOL0     C 5995   4.959   8.753   8.929  0.6930  0.5305 -0.2396
   46MOL0     C 5996   5.075   8.774   8.859  0.3023 -0.1529 -0.3085
   46MOL0     C 5997   5.164   8.860   8.911  0.5070  0.3745  0.0064
   46MOL0     O 5998   5.281   8.873   8.836  0.1959  0.1006  0.1612
   46MOL0     C 5999   5.382   8.956   8.889 -0.7627  1.1319 -0.2171
   46MOL0     C 6000   5.491   8.975   8.783 -0.0570 -0.2791  0.8803
   46MOL0     C 6001   5.574   8.848   8.760 -0.6015  0.0943 -0.6476
   46MOL0     C 6002   5.685   8.876   8.657  0.4264  0.2132  0.2668
   46MOL0     C 6003   5.770   8.757   8.676  0.0702 -0.3166  0.3041
   46MOL0     C 6004   5.846   8.665   8.696  0.3229 -0.2686  0.0456
   46MOL0     C 6005   5.134   8.934   9.022  0.7740  0.5936 -0.1815
   46MOL0     C 6006   5.011   8.903   9.089  0.5781 -0.2082 -0.4132
   46MOL0     H 6007   4.495   8.709   8.948 -0.6094  2.0715  1.0087
   46MOL0     H 6008   4.261   8.659   9.040 -0.8451 -1.3919  0.4159
   46MOL0     H 6009   4.110   8.505   9.136  1.5657  1.8041 -0.3477
   46MOL0     H 6010   4.103   8.680   9.165  0.7702  0.0850 -0.1014
   46MOL0     H 6011   3.902   8.647   9.243 -2.1175 -0.5699  2.7975
   46MOL0     H 6012   3.974   8.623   9.394  2.0441 -3.3113  0.9643
   46MOL0     H 6013   3.983   8.369   9.341 -0.0914 -1.0463 -0.1974
   46MOL0     H 6014   3.870   8.412   9.212 -0.9487  0.8298  0.8760
   46MOL0     H 6015   3.834   8.494   9.502 -0.6007 -1.1475  1.9550
   46MOL0     H 6016   3.721   8.529   9.371  0.9337  0.9497  1.6794
   46MOL0     H 6017   3.773   8.236   9.457  1.0801  0.4884 -1.5145
   46MOL0     H 6018   3.701   8.283   9.310  1.3934 -0.3649  0.1612
   46MOL0     H 6019   3.520   8.414   9.443  0.6026  1.6333  2.4623
   46MOL0     H 6020   3.598   8.337   9.590  2.8250 -1.8704 -0.6059
   46MOL0     H 6021   3.494   8.193   9.346 -1.6910 -1.0191  0.6079
   46MOL0     H 6022   3.562   8.112   9.485  0.3635 -0.5592 -1.9229
   46MOL0     H 6023   3.329   8.311   9.522 -0.8387 -0.4197 -1.0941
   46MOL0     H 6024   3.390   8.188   9.632  0.8468  2.9364  0.2878
   46MOL0     H 6025   3.194   8.165   9.280  0.1570 -1.2621 -2.2283
   46MOL0     H 6026   3.093   7.821   9.241  1.4407 -0.9340  2.2525
   46MOL0     H 6027   3.037   7.976   9.184  1.7126  2.0073  1.0464
   46MOL0     H 6028   2.850   7.983   9.330  2.6423  1.6224 -1.7315
   46MOL0     H 6029   2.910   7.840   9.437 -1.6928 -3.8021 -1.8978
   46MOL0     H 6030   2.869   7.774   9.158  0.0892 -2.3513  0.2706
   46MOL0     H 6031   2.863   7.677   9.308 -0.4759 -0.3754 -0.7447
   46MOL0     H 6032   2.655   7.849   9.173 -1.3084  0.2615 -0.2846
   46MOL0     H 6033   2.650   7.828   9.353  0.6285  2.1624 -0.5909
   46MOL0     H 6034   2.539   7.625   8.998  1.7218  2.5066 -0.1225
   46MOL0     H 6035   2.297   7.600   8.926 -0.6897 -1.1185  0.6736
   46MOL0     H 6036   1.799   7.698   8.995 -2.6118 -0.6181 -0.3549
   46MOL0     H 6037   1.604   7.611   8.891  1.2735  3.4488  1.6190
   46MOL0     H 6038   1.420   7.489   8.780 -0.1436 -0.5063 -1.0104
   46MOL0     H 6039   1.486   7.421   8.927 -1.2224  0.4704 -0.3670
   46MOL0     H 6040   1.363   7.242   8.906  0.7710 -0.3744 -0.2964
   46MOL0     H 6041   1.442   7.202   8.743 -0.4419 -0.4424  0.0870
   46MOL0     H 6042   1.215   7.194   8.712 -0.9432 -0.4970  0.8785
   46MOL0     H 6043   1.282   7.340   8.641 -1.1410 -0.3983 -0.1548
   46MOL0     H 6044   1.111   7.335   8.893 -0.1251  1.8543  1.2838
   46MOL0     H 6045   1.205   7.469   8.851  2.0312 -1.4004 -0.6361
   46MOL0     H 6046   0.999   7.349   8.665 -1.7716  0.4632 -0.0372
   46MOL0     H 6047   1.100   7.485   8.624 -1.5282  0.2180 -0.9704
   46MOL0     H 6048   1.018   7.582   8.858  0.0341  0.9222 -1.8591
   46MOL0     H 6049   0.888   7.476   8.854 -0.5312  0.7228 -1.0041
   46MOL0     H 6050   0.970   7.691   8.652 -1.1369  1.8940 -0.9121
   46MOL0     H 6051   0.842   7.573   8.601  2.3046  2.0184 -1.1650
   46MOL0     H 6052   0.692   7.686   8.780  0.8265  0.3823  4.1981
   46MOL0     H 6053   0.761   7.799   8.670 -0.0372 -2.0396 -1.9837
   46MOL0     H 6054   1.819   7.286   8.725 -2.1117  0.0522 -0.0748
   46MOL0     H 6055   2.038   7.386   8.812 -1.2686 -0.4185 -1.5591
   46MOL0     H 6056   2.178   7.668   9.324 -1.0029 -0.5958 -0.4796
   46MOL0     H 6057   2.406   7.698   9.402 -0.7940  1.3702  0.6919
   46MOL0     H 6058   4.440   8.551   9.419 -0.7571  1.8799  0.4418
   46MOL0     H 6059   4.663   8.610   9.325  1.0200  4.2474 -1.3793
   46MOL0     H 6060   4.891   8.688   8.876  0.1510  1.2221 -0.4014
   46MOL0     H 6061   5.099   8.721   8.767  1.1455 -0.7477  0.2351
   46MOL0     H 6062   5.424   8.908   8.978 -0.7122 -1.0172 -1.3188
   46MOL0     H 6063   5.342   9.054   8.916 -1.2344  1.5240 -2.1854
   46MOL0     H 6064   5.446   8.999   8.687  0.3158 -2.4425  0.1178
   46MOL0     H 6065   5.551   9.064   8.804  1.6553 -1.1430 -0.1309
   46MOL0     H 6066   5.505   8.765   8.741  0.8241 -1.6275  1.3095
   46MOL0     H 6067   5.614   8.813   8.855 -0.5262  2.1657  0.1383
   46MOL0     H 6068   5.652   8.880   8.553 -3.2586 -1.4136  1.2022
   46MOL0     H 6069   5.744   8.966   8.678  1.2545  0.1430 -1.5961
   46MOL0     H 6070   5.914   8.585   8.719  0.8954  1.1232  4.1093
   46MOL0     H 6071   5.207   9.003   9.064  4.7385 -1.1662 -3.4695
   46MOL0     H 6072   4.992   8.971   9.172  0.6985  0.1780 -0.6978
   47MOL0     O 6073   8.907  10.062   5.913  0.6479  0.0319 -0.4384
   47MOL0     C 6074   8.883  10.090   5.799  0.7446  0.3922 -0.1912
   47MOL0     O 6075   8.761  10.078   5.743 -0.2506  0.3745  0.5977
   47MOL0     C 6076   8.656  10.046   5.827  0.0887 -0.6402 -0.0537
   47MOL0     C 6077   8.635  10.112   5.953  0.0939  0.5312  0.1717
   47MOL0     C 6078   8.516  10.084   6.035 -0.2742 -0.1542  1.0741
   47MOL0     C 6079   8.421   9.991   5.988  0.3990 -0.0817 -0.0578
   47MOL0     O 6080   8.308   9.980   6.071 -0.4189 -0.1126  0.5290
   47MOL0     C 6081   8.209   9.890   6.024  0.5673 -0.2087 -0.1978
   47MOL0     C 6082   8.079   9.919   6.107  0.5054 -0.3895 -0.1675
   47MOL0     C 6083   7.989   9.796   6.086  0.1901  0.6448 -0.2607
   47MOL0     C 6084   7.924   9.802   5.952 -0.0098 -0.1084 -0.9128
   47MOL0     C 6085   7.775   9.770   5.956 -0.1602  1.2229 -0.6824
   47MOL0     C 6086   7.728   9.633   6.018 -0.7627  0.2581  1.3562
   47MOL0     C 6087   7.581   9.626   6.036  0.2086  0.7101  0.0851
   47MOL0     C 6088   7.510   9.739   6.114 -0.1496  0.2404 -0.0338
   47MOL0     N 6089   7.513   9.708   6.253 -0.0062  0.5039 -0.0355
   47MOL0     C 6090   7.622   9.720   6.340  0.0873 -0.0367 -0.7965
   47MOL0     C 6091   7.579   9.653   6.450  0.3016 -0.1103  0.8061
   47MOL0     C 6092   7.649   9.641   6.574 -0.3868  0.1687  0.1072
   47MOL0     C 6093   7.795   9.658   6.566 -0.7260  0.4210 -0.4483
   47MOL0     C 6094   7.868   9.630   6.703  0.1836  0.1400 -0.1497
   47MOL0     C 6095   8.009   9.672   6.689  0.0228 -0.1144 -0.0058
   47MOL0     O 6096   8.079   9.635   6.815 -0.5699  0.2463  1.0360
   47MOL0     C 6097   8.199   9.688   6.839 -0.3226 -0.0231 -0.2740
   47MOL0     C 6098   8.249   9.675   6.968 -0.4600 -0.2749  0.0212
   47MOL0     C 6099   8.380   9.704   6.995  0.4759 -0.1688  0.9741
   47MOL0     C 6100   8.467   9.766   6.908  0.7107 -0.1955  0.5730
   47MOL0     C 6101   8.601   9.805   6.947 -0.6516 -0.5308 -0.5690
   47MOL0     O 6102   8.643   9.759   7.070 -0.0179 -0.8018 -0.1856
   47MOL0     C 6103   8.758   9.792   7.134 -0.2362  0.5373  0.5619
   47MOL0     C 6104   8.880   9.774   7.065 -0.1083  0.8658  0.2508
   47MOL0     C 6105   9.003   9.801   7.135  0.3618  0.5983  0.4327
   47MOL0     C 6106   9.002   9.845   7.270 -0.3890  0.1233  0.5405
   47MOL0     O 6107   9.121   9.866   7.344 -0.3365  0.3413 -0.4165
   47MOL0     C 6108   9.245   9.878   7.286 -0.3266 -0.7842  0.0557
   47MOL0     C 6109   9.359   9.904   7.384 -0.6784 -0.2084  0.7063
   47MOL0     C 6110   9.488   9.924   7.302  0.3270  0.0206  0.4523
   47MOL0     C 6111   9.609   9.988   7.364  0.1155 -0.0435  0.4130
   47MOL0     C 6112   9.714   9.980   7.260  0.5485  1.0208  0.0967
   47MOL0     C 6113   9.842  10.048   7.288  0.2312  0.2276  0.5309
   47MOL0     C 6114   9.957  10.012   7.180 -0.1371  0.2463 -0.2269
   47MOL0     C 6115  10.100  10.072   7.197 -0.6214 -0.0816  0.5773
   47MOL0    Cl 6116  10.097  10.254   7.210  0.2092 -0.2350 -0.0305
   47MOL0     C 6117   8.880   9.877   7.326  0.2790 -0.0329 -0.1356
   47MOL0     C 6118   8.754   9.838   7.270 -0.7672 -0.0577 -0.4172
   47MOL0     O 6119   8.674   9.864   6.874 -0.2041  0.1678  0.0253
   47MOL0     C 6120   8.412   9.795   6.782  0.1569 -0.1648  0.7748
   47MOL0     C 6121   8.283   9.760   6.745  0.4790  0.6656  0.1883
   47MOL0     N 6122   7.441   9.623   6.443  0.0804 -0.1339 -0.0760
   47MOL0     N 6123   7.410   9.650   6.318  0.8634 -0.1608 -0.7492
   47MOL0     C 6124   8.458   9.913   5.877  0.2808 -0.0851  0.2558
   47MOL0     C 6125   8.559   9.949   5.788  0.5440 -0.3423 -0.1958
   47MOL0     C 6126   8.992  10.100   5.706  0.2301 -0.7376  0.2593
   47MOL0     C 6127   9.122  10.041   5.740  0.2137  0.4014  0.0979
   47MOL0     C 6128   9.225  10.058   5.649  0.1619  0.5817 -0.3570
   47MOL0     C 6129   9.217  10.139   5.538  0.0131  0.5022  0.4094
   47MOL0     O 6130   9.331  10.145   5.451  0.0163 -0.1401  0.2422
   47MOL0     C 6131   9.317  10.200   5.321 -0.2433 -0.1597 -0.4972
   47MOL0     C 6132   9.419  10.157   5.216 -0.0392  0.3836 -0.1123
   47MOL0     C 6133   9.559  10.231   5.224  0.1836  0.2453  0.0241
   47MOL0     C 6134   9.610  10.238   5.372 -0.2906  0.3462  0.5494
   47MOL0     C 6135   9.747  10.275   5.368 -1.0130  0.5582 -0.1554
   47MOL0     C 6136   9.862  10.317   5.368 -0.0738  0.9596 -0.2160
   47MOL0     C 6137   9.094  10.203   5.510 -0.1260  0.3001 -0.5876
   47MOL0     C 6138   8.978  10.180   5.590 -0.8654 -0.4938 -0.2613
   47MOL0     H 6139   8.703  10.188   5.989  2.0762 -1.6714  1.2985
   47MOL0     H 6140   8.504  10.135   6.130 -1.6897 -0.9538  1.3567
   47MOL0     H 6141   8.248   9.790   6.043  2.8624  0.6158 -0.2483
   47MOL0     H 6142   8.182   9.895   5.918 -0.6405 -0.9534  0.0597
   47MOL0     H 6143   8.020  10.006   6.077  1.7954  0.9773  1.1351
   47MOL0     H 6144   8.104   9.933   6.212 -3.5809  0.3984  0.8668
   47MOL0     H 6145   7.914   9.800   6.166  1.1017  1.9425  0.5668
   47MOL0     H 6146   8.043   9.702   6.093  1.4775  1.4266  0.5422
   47MOL0     H 6147   7.927   9.905   5.915  1.4070 -0.2278 -1.1872
   47MOL0     H 6148   7.982   9.743   5.882  1.9219  1.1792 -0.4791
   47MOL0     H 6149   7.743   9.783   5.852  1.7797  0.1872 -1.4567
   47MOL0     H 6150   7.747   9.855   6.019  1.6875  2.7747 -1.8540
   47MOL0     H 6151   7.780   9.634   6.114 -0.3066  0.1934  1.1130
   47MOL0     H 6152   7.759   9.542   5.966  2.3731  0.9575  1.7908
   47MOL0     H 6153   7.536   9.622   5.936  1.1351  0.4615 -0.3315
   47MOL0     H 6154   7.560   9.530   6.083  1.4562  0.1412 -0.4905
   47MOL0     H 6155   7.406   9.730   6.083  0.6837 -0.7415 -2.7881
   47MOL0     H 6156   7.555   9.836   6.091  1.5723  0.2949  2.9820
   47MOL0     H 6157   7.717   9.766   6.315 -0.6634  2.2463  0.2045
   47MOL0     H 6158   7.626   9.548   6.629 -0.0803  0.7323  1.2243
   47MOL0     H 6159   7.616   9.723   6.638 -0.4857 -0.3725  0.7649
   47MOL0     H 6160   7.818   9.761   6.538 -0.0246 -0.0573 -1.6872
   47MOL0     H 6161   7.850   9.596   6.496  0.4216 -0.2886  1.0115
   47MOL0     H 6162   7.821   9.691   6.780  0.4439 -0.7956  0.7668
   47MOL0     H 6163   7.855   9.525   6.727  1.3056 -0.4948 -2.0592
   47MOL0     H 6164   8.019   9.778   6.664 -5.7817  0.4647 -1.2451
   47MOL0     H 6165   8.062   9.614   6.612  1.5721 -1.3320  1.8647
   47MOL0     H 6166   8.201   9.612   7.042 -0.5360 -1.2012 -0.7824
   47MOL0     H 6167   8.413   9.680   7.095  2.4839  1.6714  0.8487
   47MOL0     H 6168   8.881   9.716   6.973 -1.5806 -1.1669  1.4272
   47MOL0     H 6169   9.095   9.764   7.092  0.3114 -3.2102  3.0983
   47MOL0     H 6170   9.236   9.955   7.208 -0.5339 -0.2093  0.6427
   47MOL0     H 6171   9.271   9.784   7.236  2.9806  0.3544 -0.6491
   47MOL0     H 6172   9.371   9.815   7.446  0.3556 -0.9540 -0.5072
   47MOL0     H 6173   9.352   9.994   7.446 -0.8908 -0.4026  0.9681
   47MOL0     H 6174   9.460   9.997   7.226 -2.1049 -0.5785  0.6843
   47MOL0     H 6175   9.495   9.827   7.251 -2.0158 -1.4189  2.5982
   47MOL0     H 6176   9.591  10.091   7.392 -0.6155 -0.3525  1.0951
   47MOL0     H 6177   9.635   9.936   7.457  0.3413  0.4826  0.6430
   47MOL0     H 6178   9.675  10.015   7.164  0.3300  3.3172  0.9634
   47MOL0     H 6179   9.730   9.872   7.249  0.7185  0.9934  0.5756
   47MOL0     H 6180   9.861  10.022   7.392 -0.5465 -3.0354 -0.0352
   47MOL0     H 6181   9.822  10.156   7.285 -1.0518  0.0543  1.6678
   47MOL0     H 6182   9.966   9.903   7.173 -0.9503  0.2166 -1.0757
   47MOL0     H 6183   9.919  10.032   7.079  1.2976  1.1134 -0.6198
   47MOL0     H 6184  10.151  10.042   7.104 -1.0965  0.0004  0.2867
   47MOL0     H 6185  10.159  10.027   7.277 -2.1496 -3.2543  0.0764
   47MOL0     H 6186   8.883   9.914   7.428 -5.9767 -0.8368  0.6979
   47MOL0     H 6187   8.660   9.845   7.324 -0.4844 -1.1260  0.2562
   47MOL0     H 6188   8.461   9.846   6.700  0.4437 -3.2866 -1.1496
   47MOL0     H 6189   8.248   9.770   6.643  0.3849  2.0322  0.3345
   47MOL0     H 6190   8.400   9.831   5.837 -0.6117  1.9401 -3.0862
   47MOL0     H 6191   8.564   9.905   5.689 -2.0880  2.1115 -1.5695
   47MOL0     H 6192   9.130  10.000   5.840  0.2473  2.4774  1.0028
   47MOL0     H 6193   9.311   9.994   5.667  1.2518  1.1342 -3.0594
   47MOL0     H 6194   9.321  10.308   5.333  0.9658 -0.3086  0.7484
   47MOL0     H 6195   9.217  10.174   5.284 -1.0504  2.4336 -0.3316
   47MOL0     H 6196   9.432  10.051   5.239  0.3253  0.2643 -0.8518
   47MOL0     H 6197   9.372  10.169   5.118  0.4450  0.7036 -0.3093
   47MOL0     H 6198   9.545  10.332   5.183 -0.0595 -0.2500 -1.1683
   47MOL0     H 6199   9.636  10.175   5.171  0.1541 -0.2674  0.5143
   47MOL0     H 6200   9.559  10.322   5.419  0.1292  1.4130 -0.8375
   47MOL0     H 6201   9.599  10.138   5.416  1.2291 -0.3938 -0.6540
   47MOL0     H 6202   9.952  10.371   5.350  0.3645 -0.6279 -3.4751
   47MOL0     H 6203   9.076  10.265   5.423 -2.1108  4.4948  2.4735
   47MOL0     H 6204   8.884  10.224   5.558 -0.0395  0.0725 -2.0310
   48MOL0     O 6205   6.797   6.857   4.699 -0.4583  0.6970  0.4819
   48MOL0     C 6206   6.767   6.789   4.595  0.4576  0.3714 -0.2261
   48MOL0     O 6207   6.664   6.694   4.597 -0.0363  0.2074  0.3654
   48MOL0     C 6208   6.545   6.725   4.662 -0.3559 -0.3879  0.5844
   48MOL0     C 6209   6.485   6.851   4.663  0.3081 -0.3854  0.0972
   48MOL0     C 6210   6.368   6.873   4.727  0.9502  0.4116 -0.5882
   48MOL0     C 6211   6.303   6.771   4.795  0.4712 -1.1119  0.1373
   48MOL0     O 6212   6.189   6.804   4.872  0.2148  0.0147  0.5306
   48MOL0     C 6213   6.113   6.686   4.918  1.1448 -0.5289 -0.8712
   48MOL0     C 6214   6.030   6.742   5.039  0.3209  0.9604 -0.8302
   48MOL0     C 6215   5.936   6.850   4.991 -0.3026 -0.5355  0.4604
   48MOL0     C 6216   5.821   6.873   5.091  0.0067  0.2752 -0.8961
   48MOL0     C 6217   5.738   6.996   5.064  0.0398 -0.2902 -0.3878
   48MOL0     C 6218   5.699   7.021   4.915 -0.0034  0.1938  1.1374
   48MOL0     C 6219   5.585   7.126   4.912  0.0892  0.6957  0.1070
   48MOL0     C 6220   5.536   7.139   4.770 -0.1833 -0.1815 -0.0933
   48MOL0     N 6221   5.395   7.177   4.776 -0.1616 -0.1438 -0.3768
   48MOL0     C 6222   5.293   7.084   4.748  0.7854  0.4071 -0.2278
   48MOL0     C 6223   5.177   7.159   4.750  0.2317 -0.5612  0.1894
   48MOL0     C 6224   5.043   7.089   4.734  0.1906 -0.5038  1.1461
   48MOL0     C 6225   4.936   7.177   4.687 -0.0795  0.3832  0.6274
   48MOL0     C 6226   4.804   7.103   4.657  0.2128  0.1063 -0.4860
   48MOL0     C 6227   4.713   7.115   4.785  0.2964  0.3712  0.4390
   48MOL0     O 6228   4.637   7.241   4.778 -0.3159  0.0583  0.3016
   48MOL0     C 6229   4.522   7.254   4.704 -0.5483  0.4217 -0.6466
   48MOL0     C 6230   4.470   7.382   4.690 -0.1324  1.2941  0.2544
   48MOL0     C 6231   4.352   7.405   4.618  0.8536 -0.6480 -0.1002
   48MOL0     C 6232   4.294   7.298   4.546  0.0484 -0.2112  0.4030
   48MOL0     C 6233   4.163   7.316   4.473  0.7620  0.3112  0.9900
   48MOL0     O 6234   4.101   7.442   4.463  0.3307  0.3835 -1.1395
   48MOL0     C 6235   3.981   7.459   4.402 -0.0699  0.3007  0.2693
   48MOL0     C 6236   3.861   7.395   4.439  0.2619  0.2378  0.0609
   48MOL0     C 6237   3.735   7.437   4.386 -0.1685  0.1570  0.5134
   48MOL0     C 6238   3.727   7.541   4.295  0.0886  0.6525 -0.1284
   48MOL0     O 6239   3.614   7.581   4.239  0.5269  0.0285 -0.7619
   48MOL0     C 6240   3.549   7.483   4.160 -0.2706 -0.4227 -0.0494
   48MOL0     C 6241   3.452   7.551   4.064  0.1888 -0.6611 -0.1079
   48MOL0     C 6242   3.512   7.591   3.924 -0.2888  0.5982 -0.0755
   48MOL0     C 6243   3.620   7.703   3.940 -0.2152  0.9945 -0.4154
   48MOL0     C 6244   3.646   7.790   3.816  0.1701 -0.1087 -0.0491
   48MOL0     C 6245   3.763   7.882   3.857  0.4510  0.1412 -0.0916
   48MOL0     C 6246   3.716   7.989   3.962  0.0387 -0.1742  0.0114
   48MOL0     C 6247   3.789   8.115   3.948  0.7730 -0.9731  0.3110
   48MOL0    Cl 6248   3.952   8.097   4.005  0.3374  0.0701  0.1429
   48MOL0     C 6249   3.846   7.591   4.244  0.0055 -0.7752 -0.3014
   48MOL0     C 6250   3.972   7.562   4.306 -0.2638 -0.5411  0.3456
   48MOL0     O 6251   4.123   7.221   4.404  0.2011 -0.4043  0.0476
   48MOL0     C 6252   4.357   7.172   4.553  1.0281  0.3635  0.2504
   48MOL0     C 6253   4.474   7.156   4.618 -0.6356  0.9985  0.3172
   48MOL0     N 6254   5.215   7.289   4.778  0.2895 -0.4472 -0.1204
   48MOL0     N 6255   5.341   7.303   4.803 -0.9831  0.4792 -0.1674
   48MOL0     C 6256   6.363   6.646   4.802 -0.0414 -0.3909 -1.0239
   48MOL0     C 6257   6.479   6.627   4.729 -0.3311  0.8179  0.5580
   48MOL0     C 6258   6.847   6.777   4.477 -0.1459  0.7342  0.0116
   48MOL0     C 6259   6.973   6.848   4.474  0.0613  0.0531  0.4284
   48MOL0     C 6260   7.037   6.855   4.353 -0.0280  0.7965  0.0240
   48MOL0     C 6261   6.995   6.787   4.242  0.8685  0.1943 -0.0049
   48MOL0     O 6262   7.058   6.811   4.127  0.0894  0.9356  0.6191
   48MOL0     C 6263   7.113   6.696   4.063  0.1757  0.2341  0.1995
   48MOL0     C 6264   7.263   6.718   4.038 -0.1503 -0.1256 -0.5167
   48MOL0     C 6265   7.283   6.852   3.951  0.2287  0.4103  0.8441
   48MOL0     C 6266   7.431   6.889   3.949 -0.0582 -0.3650 -0.0085
   48MOL0     C 6267   7.503   6.921   4.071 -1.0155  0.3504 -0.1610
   48MOL0     C 6268   7.545   6.973   4.175 -0.2239  0.3227 -0.1357
   48MOL0     C 6269   6.865   6.733   4.236  0.1507 -0.0680  0.2251
   48MOL0     C 6270   6.792   6.728   4.352  0.1753 -0.1900 -0.4437
   48MOL0     H 6271   6.530   6.927   4.601 -0.8810 -1.8452 -2.7248
   48MOL0     H 6272   6.327   6.973   4.727  1.7478  0.8029  1.9392
   48MOL0     H 6273   6.181   6.614   4.966  3.8191  1.8508 -0.8053
   48MOL0     H 6274   6.043   6.643   4.845 -1.5178  3.7524 -1.1567
   48MOL0     H 6275   6.097   6.785   5.114  0.5225  0.4361 -0.7084
   48MOL0     H 6276   5.983   6.661   5.095  1.4191  0.8320 -0.0657
   48MOL0     H 6277   5.894   6.837   4.891  0.5615  0.6788 -0.0861
   48MOL0     H 6278   5.993   6.943   4.984 -1.9009  0.3565 -3.2333
   48MOL0     H 6279   5.763   6.780   5.090 -0.0059  0.2641  0.2743
   48MOL0     H 6280   5.867   6.892   5.188  0.6332  1.6134 -1.4372
   48MOL0     H 6281   5.788   7.091   5.088 -2.4164  1.7156 -2.4945
   48MOL0     H 6282   5.649   6.987   5.128  0.6455 -3.3609  0.1556
   48MOL0     H 6283   5.671   6.925   4.871 -2.6803  1.5685 -0.4265
   48MOL0     H 6284   5.785   7.057   4.858  1.3471 -1.1542  2.2690
   48MOL0     H 6285   5.505   7.090   4.978  1.3644 -0.1482  1.2385
   48MOL0     H 6286   5.616   7.216   4.965 -1.2738  0.0985  2.0448
   48MOL0     H 6287   5.544   7.044   4.717 -0.2114  0.0123 -0.4469
   48MOL0     H 6288   5.599   7.213   4.721  1.3315 -0.0418  1.9344
   48MOL0     H 6289   5.296   6.979   4.719  0.7103  1.5142 -5.2587
   48MOL0     H 6290   5.020   7.033   4.825  2.4616 -1.1542  1.3928
   48MOL0     H 6291   5.046   7.002   4.667 -0.5881 -2.8776  3.9706
   48MOL0     H 6292   4.955   7.225   4.591 -0.5599 -1.1229 -0.2533
   48MOL0     H 6293   4.914   7.263   4.751  2.3453 -0.2205  2.3734
   48MOL0     H 6294   4.755   7.145   4.568  1.4344 -0.4945 -1.4731
   48MOL0     H 6295   4.825   6.996   4.650  2.0805  0.4823 -0.9966
   48MOL0     H 6296   4.770   7.107   4.878  0.5087  0.6865  0.3362
   48MOL0     H 6297   4.640   7.034   4.795  1.6511 -0.7246  1.8466
   48MOL0     H 6298   4.507   7.458   4.758  2.2572 -1.8858  2.8198
   48MOL0     H 6299   4.302   7.501   4.614 -0.3261 -1.2869 -1.3446
   48MOL0     H 6300   3.851   7.317   4.514  2.4176  1.6733  1.9836
   48MOL0     H 6301   3.642   7.387   4.411 -0.4522  0.2274 -0.3492
   48MOL0     H 6302   3.478   7.444   4.234 -1.1428 -0.0908 -0.6902
   48MOL0     H 6303   3.618   7.410   4.116  2.1869  0.2934  2.3670
   48MOL0     H 6304   3.406   7.636   4.116  0.6123 -0.6621  0.2736
   48MOL0     H 6305   3.370   7.488   4.029  1.1112 -1.2568 -1.3162
   48MOL0     H 6306   3.434   7.635   3.861  3.1178  1.5430 -4.0933
   48MOL0     H 6307   3.549   7.504   3.870  2.1324  0.4229  1.7028
   48MOL0     H 6308   3.592   7.767   4.024  0.6398  2.5623 -1.2839
   48MOL0     H 6309   3.709   7.647   3.972 -2.6485 -2.8245  0.3524
   48MOL0     H 6310   3.565   7.852   3.777  1.1347  2.2632  1.5005
   48MOL0     H 6311   3.674   7.733   3.726  2.6330 -1.1123  1.2464
   48MOL0     H 6312   3.794   7.927   3.763 -0.8720  1.0700 -0.1146
   48MOL0     H 6313   3.848   7.823   3.892  2.7307  4.0278  1.4932
   48MOL0     H 6314   3.611   8.005   3.934 -1.1523 -1.4542  3.2397
   48MOL0     H 6315   3.720   7.942   4.061  0.6039 -0.9669 -0.3692
   48MOL0     H 6316   3.728   8.181   4.011  0.7875 -0.1816 -0.4902
   48MOL0     H 6317   3.788   8.159   3.847 -0.8472  0.4331  0.8796
   48MOL0     H 6318   3.840   7.664   4.164  1.5290  0.5145  0.6924
   48MOL0     H 6319   4.066   7.612   4.285  1.0085 -0.7833  4.4798
   48MOL0     H 6320   4.321   7.085   4.500  2.4137 -0.3975  0.5184
   48MOL0     H 6321   4.530   7.063   4.604  1.2437  2.3796 -2.1858
   48MOL0     H 6322   6.331   6.566   4.869 -2.7450  0.6824 -0.9065
   48MOL0     H 6323   6.529   6.531   4.724  1.6261  1.8524 -1.4855
   48MOL0     H 6324   7.006   6.890   4.568 -1.1610 -0.7072  1.2284
   48MOL0     H 6325   7.136   6.898   4.350 -0.5133  2.3673  2.9192
   48MOL0     H 6326   7.060   6.677   3.970 -2.7414  1.8789  1.4043
   48MOL0     H 6327   7.101   6.607   4.126  1.9459  0.4610  0.9132
   48MOL0     H 6328   7.304   6.723   4.139  0.9477 -1.9840 -0.8384
   48MOL0     H 6329   7.310   6.640   3.978 -0.0349  0.2717 -0.9563
   48MOL0     H 6330   7.222   6.929   4.000 -0.6699 -0.6606  1.4518
   48MOL0     H 6331   7.248   6.835   3.848  2.1492 -1.7474  0.4779
   48MOL0     H 6332   7.493   6.808   3.909  1.1896  0.6986 -0.3041
   48MOL0     H 6333   7.450   6.972   3.880  1.9555 -0.4785  0.3599
   48MOL0     H 6334   7.567   7.029   4.263  0.3821  0.1114 -0.1436
   48MOL0     H 6335   6.825   6.699   4.141 -0.9565  3.0892 -0.5803
   48MOL0     H 6336   6.698   6.675   4.350  0.7350 -1.1850 -0.7494
   49MOL0     O 6337   7.430   8.089   3.683  0.2977 -0.3913  0.0822
   49MOL0     C 6338   7.391   8.209   3.672 -0.0219  1.1741  0.0601
   49MOL0     O 6339   7.258   8.254   3.681 -0.3759 -0.7901 -0.5768
   49MOL0     C 6340   7.154   8.170   3.702 -0.5275  0.1017  0.9790
   49MOL0     C 6341   7.031   8.196   3.634 -0.7758  0.6261 -0.1802
   49MOL0     C 6342   6.918   8.118   3.658 -0.7455 -0.0808 -0.0673
   49MOL0     C 6343   6.926   7.999   3.735 -1.0344  0.4349 -0.7274
   49MOL0     O 6344   6.823   7.912   3.747  0.0481  0.0116 -0.8630
   49MOL0     C 6345   6.692   7.952   3.709 -0.4166 -0.2454 -0.0117
   49MOL0     C 6346   6.602   7.853   3.754  0.9661  0.6266 -0.1549
   49MOL0     C 6347   6.470   7.852   3.687  0.6817 -0.1931  0.0777
   49MOL0     C 6348   6.413   7.992   3.652  0.2181 -0.2147  0.4561
   49MOL0     C 6349   6.265   7.978   3.636  1.8485  0.1584  0.2750
   49MOL0     C 6350   6.222   7.884   3.516 -0.1763  0.4052  0.1001
   49MOL0     C 6351   6.072   7.874   3.510 -0.4573 -0.3654  0.0686
   49MOL0     C 6352   6.030   7.811   3.375 -0.3187  0.2907  0.1233
   49MOL0     N 6353   5.886   7.787   3.372  0.7973 -0.0420 -0.2745
   49MOL0     C 6354   5.799   7.887   3.367  0.3170  0.0739  0.5368
   49MOL0     C 6355   5.680   7.827   3.397  0.2359  0.6725  0.0379
   49MOL0     C 6356   5.553   7.912   3.404  0.2735  0.5998 -0.3339
   49MOL0     C 6357   5.429   7.841   3.475 -0.0056  0.7016  0.2133
   49MOL0     C 6358   5.315   7.943   3.496 -0.0274 -1.1837 -0.3320
   49MOL0     C 6359   5.186   7.882   3.451  0.0633  0.2549 -0.2946
   49MOL0     O 6360   5.074   7.979   3.445  0.4447 -0.1358 -0.5695
   49MOL0     C 6361   4.954   7.923   3.461  0.4414  0.3218 -0.2808
   49MOL0     C 6362   4.908   7.796   3.436  0.2221  0.6544 -0.5375
   49MOL0     C 6363   4.775   7.760   3.438  0.2147  0.0654 -0.5199
   49MOL0     C 6364   4.677   7.855   3.465 -0.2373 -0.4958  0.7217
   49MOL0     C 6365   4.529   7.829   3.474  0.6093  0.3231  0.8471
   49MOL0     O 6366   4.440   7.935   3.473  0.5870  0.3720 -0.0998
   49MOL0     C 6367   4.311   7.904   3.484  0.4585  0.5037 -0.1285
   49MOL0     C 6368   4.252   7.900   3.612 -0.5884  0.3438  0.0090
   49MOL0     C 6369   4.115   7.876   3.617  0.2714 -0.4836  0.3909
   49MOL0     C 6370   4.034   7.891   3.503  0.0807 -0.4082  0.4716
   49MOL0     O 6371   3.900   7.891   3.523  0.3896 -0.0097 -0.1207
   49MOL0     C 6372   3.820   7.912   3.406 -0.1029 -0.2656 -0.9146
   49MOL0     C 6373   3.672   7.885   3.443 -1.1805  0.2951 -0.6852
   49MOL0     C 6374   3.580   7.957   3.341  0.5387  0.3364 -1.0581
   49MOL0     C 6375   3.444   7.894   3.341 -0.3760 -0.0409  0.6666
   49MOL0     C 6376   3.357   7.968   3.239  0.6588 -0.1565  0.0144
   49MOL0     C 6377   3.220   7.914   3.255 -1.0902  0.4149  0.5671
   49MOL0     C 6378   3.121   8.007   3.194  0.6553 -0.7676  0.1464
   49MOL0     C 6379   3.111   8.150   3.275 -0.5370  0.6051 -0.1887
   49MOL0    Cl 6380   3.092   8.120   3.447  0.2789 -0.3458 -0.1814
   49MOL0     C 6381   4.099   7.900   3.378  0.3218 -0.1794 -0.2358
   49MOL0     C 6382   4.228   7.904   3.374 -0.6818 -0.4782  0.0537
   49MOL0     O 6383   4.496   7.713   3.472  0.3014 -0.6032  0.6246
   49MOL0     C 6384   4.722   7.986   3.494 -0.2688 -0.0147 -0.2743
   49MOL0     C 6385   4.856   8.017   3.501  1.4264 -0.1265  0.6534
   49MOL0     N 6386   5.692   7.683   3.416 -0.7988 -0.2183  0.1284
   49MOL0     N 6387   5.820   7.662   3.401 -0.0650  0.7338 -0.2385
   49MOL0     C 6388   7.044   7.976   3.800 -0.0706 -0.0587  0.2221
   49MOL0     C 6389   7.153   8.061   3.789  0.0428 -0.4879  0.1668
   49MOL0     C 6390   7.502   8.303   3.653  0.2410  0.4603  0.5871
   49MOL0     C 6391   7.637   8.256   3.661  0.4687  0.6777  0.7364
   49MOL0     C 6392   7.742   8.358   3.669 -0.0977 -0.6810 -0.3854
   49MOL0     C 6393   7.711   8.495   3.650  0.0666 -0.4293 -0.5521
   49MOL0     O 6394   7.805   8.590   3.635  0.1726 -1.1314  0.3342
   49MOL0     C 6395   7.942   8.561   3.671  0.8461 -1.4088  1.5139
   49MOL0     C 6396   8.008   8.697   3.680  0.1684 -0.5725 -0.7411
   49MOL0     C 6397   8.159   8.684   3.701 -0.4188  0.2877 -0.3271
   49MOL0     C 6398   8.230   8.814   3.716  0.1465  0.1339  0.1962
   49MOL0     C 6399   8.368   8.788   3.740  0.5118 -0.6595  0.3141
   49MOL0     C 6400   8.490   8.781   3.762  0.4801  0.2735  0.2880
   49MOL0     C 6401   7.572   8.530   3.645  0.3364 -0.2507  0.7391
   49MOL0     C 6402   7.472   8.439   3.640 -0.4024  0.1994  0.0388
   49MOL0     H 6403   7.029   8.278   3.564 -3.5119  0.9189  0.1164
   49MOL0     H 6404   6.833   8.154   3.602  0.2892 -0.0025 -1.6598
   49MOL0     H 6405   6.681   7.967   3.602 -0.9701  0.0241  0.0816
   49MOL0     H 6406   6.667   8.049   3.752  0.0908  2.3958 -4.9500
   49MOL0     H 6407   6.592   7.856   3.863  1.0439 -3.7903  0.1501
   49MOL0     H 6408   6.649   7.756   3.732 -0.7600 -0.3466  0.2047
   49MOL0     H 6409   6.399   7.798   3.751 -1.4020 -0.4004 -2.2261
   49MOL0     H 6410   6.475   7.803   3.589  2.0324  1.1146 -0.5462
   49MOL0     H 6411   6.433   8.073   3.723  0.4767 -1.3028  1.6493
   49MOL0     H 6412   6.465   8.019   3.559 -0.1048 -1.7686 -0.2110
   49MOL0     H 6413   6.220   8.076   3.622 -0.5865 -0.6408  1.6964
   49MOL0     H 6414   6.208   7.932   3.718 -1.3426  0.5247 -1.5707
   49MOL0     H 6415   6.269   7.785   3.529 -1.5621 -0.2687  0.1184
   49MOL0     H 6416   6.267   7.938   3.432 -2.1970  1.7140 -0.2067
   49MOL0     H 6417   6.037   7.816   3.596 -1.2265 -0.1961 -0.1195
   49MOL0     H 6418   6.032   7.976   3.512  0.1517 -0.1341  0.7469
   49MOL0     H 6419   6.080   7.714   3.362  0.3716  0.5397  0.8337
   49MOL0     H 6420   6.049   7.875   3.289 -1.8555 -0.0120 -0.4685
   49MOL0     H 6421   5.793   7.995   3.363 -4.7127  0.0611  1.1956
   49MOL0     H 6422   5.524   7.939   3.302  2.0226 -0.8706 -1.2700
   49MOL0     H 6423   5.584   8.004   3.453  2.9429 -0.9016  1.0308
   49MOL0     H 6424   5.465   7.793   3.566 -1.3037 -3.1130 -1.0797
   49MOL0     H 6425   5.397   7.758   3.411  1.1489  1.2268 -1.0820
   49MOL0     H 6426   5.301   7.967   3.602 -0.7450 -3.6225  0.1804
   49MOL0     H 6427   5.335   8.036   3.442  3.8389 -1.7427 -0.1845
   49MOL0     H 6428   5.158   7.796   3.513 -0.3480  0.6098  0.0108
   49MOL0     H 6429   5.199   7.841   3.350 -3.2193 -1.0024 -0.3183
   49MOL0     H 6430   4.980   7.719   3.412 -1.2866 -0.6398 -1.0761
   49MOL0     H 6431   4.745   7.657   3.422 -1.2747  0.5344 -0.8968
   49MOL0     H 6432   4.311   7.895   3.702 -0.9458  1.3208  0.3101
   49MOL0     H 6433   4.058   7.866   3.709 -2.5536 -0.1310 -1.1879
   49MOL0     H 6434   3.842   7.853   3.316  1.1242 -2.0761  0.4988
   49MOL0     H 6435   3.820   8.017   3.377 -3.5900  0.2037  0.3739
   49MOL0     H 6436   3.652   7.923   3.544 -1.7460 -0.4030 -0.5303
   49MOL0     H 6437   3.654   7.777   3.448 -0.3343  0.1968  0.5571
   49MOL0     H 6438   3.626   7.953   3.242 -1.0594  0.4854 -1.8259
   49MOL0     H 6439   3.566   8.061   3.374 -1.4947  0.2341 -1.4811
   49MOL0     H 6440   3.456   7.794   3.299 -0.8493 -0.6007  1.8459
   49MOL0     H 6441   3.413   7.887   3.445 -1.5214 -1.7453  0.2529
   49MOL0     H 6442   3.398   7.954   3.139  0.4162  1.9500 -0.4418
   49MOL0     H 6443   3.358   8.076   3.261  1.8946  0.4835 -2.7470
   49MOL0     H 6444   3.193   7.899   3.360  2.3702  1.2806  1.6957
   49MOL0     H 6445   3.230   7.822   3.197  0.4544  1.5678 -1.1603
   49MOL0     H 6446   3.140   8.028   3.088 -2.1664  0.1570 -0.2783
   49MOL0     H 6447   3.022   7.960   3.195  1.1886 -1.9213 -0.0520
   49MOL0     H 6448   3.028   8.209   3.235 -2.2139 -0.6312  1.3035
   49MOL0     H 6449   3.201   8.212   3.270  0.9327 -0.9006  3.6186
   49MOL0     H 6450   4.047   7.893   3.284 -0.0747  0.5722 -0.0818
   49MOL0     H 6451   4.278   7.903   3.278  1.7567 -1.6355  1.2483
   49MOL0     H 6452   4.653   8.062   3.530 -1.0428 -1.1714  0.7672
   49MOL0     H 6453   4.888   8.114   3.538 -0.6120  0.2327  1.6487
   49MOL0     H 6454   7.064   7.883   3.852  0.4367 -0.5688 -0.8490
   49MOL0     H 6455   7.245   8.029   3.837  0.4661  0.7547  0.2350
   49MOL0     H 6456   7.658   8.149   3.665 -0.7656  0.0943 -3.1411
   49MOL0     H 6457   7.842   8.322   3.693 -0.3458 -0.9061  0.3110
   49MOL0     H 6458   7.983   8.503   3.588 -1.1746  0.9842 -1.3886
   49MOL0     H 6459   7.946   8.509   3.767 -1.0061 -0.3191  2.2311
   49MOL0     H 6460   7.993   8.760   3.592  0.6255  0.0178 -0.4067
   49MOL0     H 6461   7.969   8.745   3.770  2.4582  0.3403 -0.1529
   49MOL0     H 6462   8.197   8.631   3.613 -0.9483  0.5542 -0.7243
   49MOL0     H 6463   8.177   8.619   3.787  3.1112  1.1674 -0.2391
   49MOL0     H 6464   8.216   8.877   3.627  0.5710  1.1650  0.8350
   49MOL0     H 6465   8.186   8.870   3.799  0.8302  0.5176  0.3137
   49MOL0     H 6466   8.596   8.784   3.779  0.6555 -2.8000  0.3179
   49MOL0     H 6467   7.559   8.637   3.639 -1.8189 -0.3035  2.9294
   49MOL0     H 6468   7.375   8.480   3.612  0.1527  1.9282  0.5341
   50MOL0     O 6469   6.965   8.190   1.312 -0.6426  0.1185 -0.7426
   50MOL0     C 6470   7.058   8.182   1.237  0.9901 -0.2712 -0.1078
   50MOL0     O 6471   7.096   8.068   1.177  0.4759 -0.5000 -0.0576
   50MOL0     C 6472   6.990   7.986   1.148 -0.4783  0.5640 -0.0337
   50MOL0     C 6473   6.976   7.868   1.232 -0.1617  0.6905  0.1998
   50MOL0     C 6474   6.869   7.774   1.218 -0.2322  0.2829 -0.4009
   50MOL0     C 6475   6.787   7.787   1.098  0.2810  0.1071 -0.0086
   50MOL0     O 6476   6.681   7.705   1.063  0.0194  0.1857 -0.2433
   50MOL0     C 6477   6.685   7.569   1.106  0.3808  0.7213 -0.0215
   50MOL0     C 6478   6.595   7.543   1.235  0.0172 -0.4682 -0.3722
   50MOL0     C 6479   6.456   7.608   1.226 -0.4929 -0.4870 -0.1115
   50MOL0     C 6480   6.376   7.598   1.347  0.1410  0.0771 -0.4384
   50MOL0     C 6481   6.236   7.650   1.329  0.1603  0.1810 -0.4013
   50MOL0     C 6482   6.164   7.679   1.464 -0.3220  0.1802 -0.4011
   50MOL0     C 6483   6.013   7.705   1.450  0.5780 -0.1398  0.0518
   50MOL0     C 6484   5.935   7.712   1.589 -0.2358 -0.1727 -0.4220
   50MOL0     N 6485   5.942   7.590   1.674  0.1203 -0.2070 -0.3119
   50MOL0     C 6486   5.968   7.463   1.620  0.1820 -1.4335  0.3481
   50MOL0     C 6487   5.951   7.376   1.721 -0.0914 -0.0273 -0.1086
   50MOL0     C 6488   5.955   7.229   1.711 -0.7088 -0.7588 -0.1936
   50MOL0     C 6489   5.828   7.156   1.672 -0.1185 -0.1456 -0.2306
   50MOL0     C 6490   5.737   7.149   1.786  0.4961  0.1351 -0.9586
   50MOL0     C 6491   5.594   7.132   1.741 -0.6405  0.0111  0.0190
   50MOL0     O 6492   5.527   7.115   1.867  0.0581  0.4760  0.6942
   50MOL0     C 6493   5.389   7.131   1.876  0.3293  1.8223  0.2017
   50MOL0     C 6494   5.299   7.119   1.768  0.0311 -0.3100 -1.0251
   50MOL0     C 6495   5.156   7.133   1.779 -0.3114  1.4164  0.1081
   50MOL0     C 6496   5.110   7.172   1.909 -1.1202 -0.9568 -0.1172
   50MOL0     C 6497   4.966   7.199   1.932 -0.0945  0.0747 -0.1706
   50MOL0     O 6498   4.920   7.169   2.058  0.4253  0.5672 -0.5072
   50MOL0     C 6499   4.801   7.215   2.109 -0.1627 -0.2951 -0.1801
   50MOL0     C 6500   4.791   7.187   2.245  0.6896 -0.6806  0.5069
   50MOL0     C 6501   4.671   7.214   2.312  0.2418  0.2623 -0.4494
   50MOL0     C 6502   4.556   7.270   2.245 -0.7854  0.1307 -0.0371
   50MOL0     O 6503   4.436   7.301   2.306  0.1500 -0.4291 -0.0184
   50MOL0     C 6504   4.373   7.195   2.377 -0.6512  0.7996 -0.2634
   50MOL0     C 6505   4.243   7.247   2.436 -0.1885  0.2530  0.0053
   50MOL0     C 6506   4.132   7.139   2.447  0.2653 -0.1236  0.1027
   50MOL0     C 6507   3.995   7.204   2.484  0.2118  0.8321 -0.1611
   50MOL0     C 6508   3.886   7.099   2.498 -0.4104 -0.1097  0.3857
   50MOL0     C 6509   3.754   7.157   2.532 -0.4519  0.2939 -0.1716
   50MOL0     C 6510   3.657   7.057   2.606 -0.5602 -0.1851 -0.5726
   50MOL0     C 6511   3.508   7.093   2.615 -0.2756  0.4191  0.2427
   50MOL0    Cl 6512   3.487   7.239   2.718 -0.0311 -0.0920 -0.0024
   50MOL0     C 6513   4.566   7.299   2.110 -0.6008 -0.1384  0.0992
   50MOL0     C 6514   4.690   7.274   2.041  0.1072 -0.4741 -0.6569
   50MOL0     O 6515   4.903   7.247   1.839  0.6350 -0.1039  0.0745
   50MOL0     C 6516   5.202   7.194   2.016  0.3548  0.1109 -0.0869
   50MOL0     C 6517   5.332   7.164   2.004 -0.5638 -0.3548  0.3837
   50MOL0     N 6518   5.914   7.449   1.840 -0.1194 -0.2234 -0.2307
   50MOL0     N 6519   5.911   7.574   1.802 -0.4720  0.4723  0.1679
   50MOL0     C 6520   6.805   7.903   1.017  0.5119 -0.2027  0.0006
   50MOL0     C 6521   6.900   8.000   1.041 -0.7308 -0.1599 -0.6181
   50MOL0     C 6522   7.146   8.301   1.219  0.0901  1.2754  0.3013
   50MOL0     C 6523   7.098   8.429   1.265 -0.4573 -1.0358  0.7593
   50MOL0     C 6524   7.185   8.545   1.252 -0.1655  0.6947 -0.1589
   50MOL0     C 6525   7.309   8.523   1.186 -0.1561  0.3844 -0.3484
   50MOL0     O 6526   7.391   8.633   1.179  0.5877  0.1255 -0.3044
   50MOL0     C 6527   7.518   8.632   1.114  0.4209  0.3357 -0.1458
   50MOL0     C 6528   7.586   8.762   1.144  0.1521 -0.7879 -0.5510
   50MOL0     C 6529   7.617   8.789   1.289 -1.4032 -0.1827 -0.4675
   50MOL0     C 6530   7.745   8.871   1.294  0.3232  0.1803  0.5785
   50MOL0     C 6531   7.806   8.876   1.426 -0.7114  0.3806 -0.2943
   50MOL0     C 6532   7.872   8.868   1.527  0.3693 -0.4915 -0.4604
   50MOL0     C 6533   7.347   8.398   1.136  0.4034 -0.8233  0.6283
   50MOL0     C 6534   7.260   8.296   1.144  0.8426  0.2150 -0.4159
   50MOL0     H 6535   7.054   7.874   1.307  0.9058 -0.8769 -0.7327
   50MOL0     H 6536   6.858   7.697   1.293 -1.1472 -0.0461 -0.8580
   50MOL0     H 6537   6.784   7.525   1.114  0.2622  0.7736  2.4561
   50MOL0     H 6538   6.629   7.521   1.025  1.0430  0.2082 -0.1787
   50MOL0     H 6539   6.645   7.590   1.320 -1.8414 -1.6821  1.4828
   50MOL0     H 6540   6.583   7.437   1.256 -2.6355 -0.2985 -0.7404
   50MOL0     H 6541   6.397   7.552   1.153 -1.3346  2.0362 -1.4782
   50MOL0     H 6542   6.469   7.711   1.193  2.7037 -0.1503  1.7699
   50MOL0     H 6543   6.370   7.491   1.368  0.2903  0.0253 -0.6620
   50MOL0     H 6544   6.425   7.635   1.438  1.3953 -2.4819  0.0333
   50MOL0     H 6545   6.186   7.569   1.274  1.3366  0.3000 -1.6866
   50MOL0     H 6546   6.239   7.732   1.256 -1.9544  0.2075 -0.5346
   50MOL0     H 6547   6.212   7.766   1.510 -1.7782  0.0087  1.5864
   50MOL0     H 6548   6.186   7.595   1.530  0.8160  0.9066  0.1771
   50MOL0     H 6549   6.003   7.805   1.405  2.0680 -0.6870 -1.5904
   50MOL0     H 6550   5.957   7.632   1.391  0.1760 -0.2115  0.5197
   50MOL0     H 6551   5.831   7.716   1.556  0.2626  0.0946 -2.0799
   50MOL0     H 6552   5.966   7.793   1.656 -0.3385  1.3363 -2.0969
   50MOL0     H 6553   5.999   7.450   1.517  1.4208  2.3956  0.0776
   50MOL0     H 6554   5.993   7.185   1.804 -0.8976 -0.2319  0.1389
   50MOL0     H 6555   6.040   7.208   1.645  0.2214 -0.2350  0.7996
   50MOL0     H 6556   5.861   7.057   1.640  1.3675  0.4605 -0.6478
   50MOL0     H 6557   5.789   7.209   1.584  0.8103 -2.3911 -2.1027
   50MOL0     H 6558   5.770   7.074   1.858 -1.7682  0.0386  0.0681
   50MOL0     H 6559   5.734   7.242   1.844 -4.0794 -0.0276 -0.5680
   50MOL0     H 6560   5.574   7.042   1.682  0.3871  1.3593 -2.5478
   50MOL0     H 6561   5.562   7.219   1.683 -2.4838 -1.3995 -1.1700
   50MOL0     H 6562   5.339   7.093   1.671  1.6463  0.9947 -0.7721
   50MOL0     H 6563   5.099   7.119   1.688  1.0650  0.8081 -0.6910
   50MOL0     H 6564   4.884   7.158   2.292  0.8294 -0.0436  0.6346
   50MOL0     H 6565   4.663   7.193   2.418  0.2960  0.0905 -0.4803
   50MOL0     H 6566   4.444   7.150   2.447  0.3108  0.7872 -1.2317
   50MOL0     H 6567   4.346   7.111   2.313 -1.1381  0.6138  0.1735
   50MOL0     H 6568   4.214   7.332   2.372  1.7814 -0.8897 -2.6126
   50MOL0     H 6569   4.262   7.279   2.538 -1.4695 -0.4493  0.4932
   50MOL0     H 6570   4.169   7.056   2.508  0.0921 -0.1838  0.1258
   50MOL0     H 6571   4.119   7.077   2.358  3.2232 -2.0439  0.8619
   50MOL0     H 6572   4.000   7.247   2.584  2.1116 -1.4365  0.8143
   50MOL0     H 6573   3.968   7.280   2.410  0.6459 -0.0145 -1.2175
   50MOL0     H 6574   3.913   7.026   2.575  2.4118 -0.8937 -1.2121
   50MOL0     H 6575   3.882   7.050   2.400 -0.6171  0.4087  0.1313
   50MOL0     H 6576   3.708   7.190   2.438  1.0080 -0.3600 -1.1651
   50MOL0     H 6577   3.759   7.247   2.595  0.4462 -0.2285  0.5263
   50MOL0     H 6578   3.657   6.964   2.548 -1.9747  1.2199 -2.9926
   50MOL0     H 6579   3.688   7.037   2.709 -0.6461  0.0134 -0.5093
   50MOL0     H 6580   3.453   7.008   2.656  0.0053 -0.9696 -2.0691
   50MOL0     H 6581   3.463   7.109   2.516 -1.5619 -2.5434  0.2348
   50MOL0     H 6582   4.483   7.353   2.067 -0.8445  0.4354  1.2569
   50MOL0     H 6583   4.691   7.293   1.934  0.8573  1.4607 -0.3330
   50MOL0     H 6584   5.166   7.220   2.115  3.3026  0.9114  0.8535
   50MOL0     H 6585   5.404   7.174   2.085 -1.7352 -2.0807  1.6872
   50MOL0     H 6586   6.743   7.910   0.928  0.0595  0.0293  0.3285
   50MOL0     H 6587   6.912   8.085   0.976  3.1716 -0.3938 -0.4739
   50MOL0     H 6588   7.012   8.444   1.328 -0.6191 -1.2151  0.5824
   50MOL0     H 6589   7.164   8.641   1.298  0.2064 -0.4823  2.6945
   50MOL0     H 6590   7.501   8.625   1.007 -0.9458  5.3401 -0.5494
   50MOL0     H 6591   7.593   8.559   1.143  1.0867  1.4563  1.1233
   50MOL0     H 6592   7.685   8.753   1.098  0.3303  3.6983 -1.4911
   50MOL0     H 6593   7.529   8.839   1.090 -2.1654 -1.6416  0.5635
   50MOL0     H 6594   7.634   8.693   1.337  3.4795 -0.3742 -2.0409
   50MOL0     H 6595   7.539   8.854   1.328 -1.9260 -0.8188 -0.4369
   50MOL0     H 6596   7.821   8.834   1.224 -0.7171 -1.2954  0.1624
   50MOL0     H 6597   7.713   8.972   1.267 -1.2308 -0.1911  0.9098
   50MOL0     H 6598   7.932   8.857   1.616  2.5676  1.4993 -1.5606
   50MOL0     H 6599   7.437   8.391   1.076 -1.1547  0.9924 -2.1477
   50MOL0     H 6600   7.300   8.211   1.091 -0.0298  0.7085 -1.9089
   51MOL0     O 6601   9.460   9.212   2.882 -0.0746  0.9175 -1.4160
   51MOL0     C 6602   9.473   9.226   2.762  0.3644 -0.2308 -1.0402
   51MOL0     O 6603   9.373   9.226   2.671  0.1325  0.4277  0.2893
   51MOL0     C 6604   9.244   9.246   2.705  0.9248  0.2134 -0.6917
   51MOL0     C 6605   9.154   9.211   2.598 -0.0307 -0.0931 -0.2164
   51MOL0     C 6606   9.014   9.236   2.601  0.0849  0.0818 -0.5660
   51MOL0     C 6607   8.959   9.287   2.722  0.0108 -0.2341  0.1917
   51MOL0     O 6608   8.823   9.313   2.741 -0.0762  0.3492  0.2485
   51MOL0     C 6609   8.734   9.229   2.659  0.4796  0.6256 -0.0771
   51MOL0     C 6610   8.590   9.240   2.701 -0.0275 -0.4232  0.7384
   51MOL0     C 6611   8.508   9.121   2.652 -0.1907  0.2460  0.1734
   51MOL0     C 6612   8.476   9.105   2.502 -0.3185 -0.6051 -0.3590
   51MOL0     C 6613   8.394   9.225   2.456  0.6436 -0.9213  0.3461
   51MOL0     C 6614   8.310   9.183   2.334 -0.4622 -0.0708  0.4969
   51MOL0     C 6615   8.203   9.292   2.317  0.1072  0.1357  0.6438
   51MOL0     C 6616   8.118   9.323   2.442 -0.4611  0.6275 -0.5416
   51MOL0     N 6617   7.998   9.406   2.420  0.4218  0.7589 -0.3358
   51MOL0     C 6618   7.893   9.368   2.338 -0.1208 -0.4689  0.3401
   51MOL0     C 6619   7.804   9.472   2.347 -0.3259 -0.6504 -0.2577
   51MOL0     C 6620   7.679   9.483   2.262  0.6275  0.6736 -0.1479
   51MOL0     C 6621   7.560   9.444   2.339  0.2551  0.2648  0.2378
   51MOL0     C 6622   7.432   9.486   2.275  0.1201  0.0658  0.3030
   51MOL0     C 6623   7.378   9.620   2.320 -0.0660 -1.0456  0.0596
   51MOL0     O 6624   7.262   9.661   2.243  0.6409  0.0204  0.3153
   51MOL0     C 6625   7.135   9.609   2.273 -0.8731 -0.2913  0.5199
   51MOL0     C 6626   7.031   9.651   2.188  0.6055 -0.0627  0.1209
   51MOL0     C 6627   6.900   9.606   2.206  0.2913 -0.1752  0.6855
   51MOL0     C 6628   6.871   9.517   2.310 -0.1405  0.3445  0.2341
   51MOL0     C 6629   6.735   9.452   2.324 -0.1661  0.2393  0.1570
   51MOL0     O 6630   6.730   9.359   2.422  0.7048  0.3373  0.4651
   51MOL0     C 6631   6.603   9.332   2.470 -0.4083 -1.0869  0.7683
   51MOL0     C 6632   6.564   9.203   2.473 -0.1646 -0.4516  0.5242
   51MOL0     C 6633   6.442   9.162   2.523  0.0840 -0.3949 -0.3342
   51MOL0     C 6634   6.348   9.259   2.547 -0.2923  0.0896  0.1024
   51MOL0     O 6635   6.215   9.224   2.575 -0.2749  0.2087 -0.5328
   51MOL0     C 6636   6.177   9.087   2.572 -0.1492 -0.2607  0.4206
   51MOL0     C 6637   6.034   9.087   2.613 -0.1653  0.0034 -0.4695
   51MOL0     C 6638   6.019   9.099   2.769 -0.7712 -0.0339 -0.1749
   51MOL0     C 6639   5.869   9.096   2.797 -0.2410 -0.3308  1.1429
   51MOL0     C 6640   5.832   9.118   2.943 -1.0013 -0.1932  0.2592
   51MOL0     C 6641   5.680   9.095   2.955 -0.8805  0.1166  0.3575
   51MOL0     C 6642   5.626   9.120   3.098 -0.2433 -0.7018  0.3023
   51MOL0     C 6643   5.475   9.097   3.108  0.1116 -0.2751 -0.2910
   51MOL0    Cl 6644   5.421   9.124   3.273 -0.0125  0.0434  0.1483
   51MOL0     C 6645   6.384   9.391   2.543  0.1899 -0.0533  0.3539
   51MOL0     C 6646   6.510   9.427   2.509 -0.2594  0.1652  0.1449
   51MOL0     O 6647   6.645   9.481   2.250 -0.4086  0.0795 -0.0622
   51MOL0     C 6648   6.975   9.475   2.387  0.2413 -0.2388 -0.7482
   51MOL0     C 6649   7.103   9.523   2.374 -0.2119  0.4332 -0.4430
   51MOL0     N 6650   7.856   9.560   2.437  0.2177 -0.1235 -0.7864
   51MOL0     N 6651   7.968   9.518   2.486  0.1996 -0.3706 -0.5040
   51MOL0     C 6652   9.043   9.318   2.830  0.2281  0.4511  0.7026
   51MOL0     C 6653   9.183   9.292   2.827 -0.6702  0.3707  0.2869
   51MOL0     C 6654   9.610   9.238   2.705 -0.2378  0.4014 -0.6765
   51MOL0     C 6655   9.723   9.275   2.785  0.3331 -0.1265  0.1075
   51MOL0     C 6656   9.848   9.282   2.727  0.3428 -0.1240  0.0036
   51MOL0     C 6657   9.866   9.225   2.605  0.2979 -1.0061  0.2235
   51MOL0     O 6658   9.981   9.217   2.543 -0.0032 -0.2219 -0.1556
   51MOL0     C 6659  10.102   9.219   2.638  0.1421 -0.5662 -0.8376
   51MOL0     C 6660  10.214   9.144   2.577  0.0332 -0.1029  1.3500
   51MOL0     C 6661  10.342   9.165   2.657  0.2033  0.3073  0.2627
   51MOL0     C 6662  10.454   9.096   2.579  0.2768 -0.1441  0.4900
   51MOL0     C 6663  10.580   9.094   2.658 -0.7225  0.1970 -0.8960
   51MOL0     C 6664  10.693   9.092   2.713  0.2692  0.2860  0.6500
   51MOL0     C 6665   9.753   9.190   2.532  0.2849 -0.3272 -0.6478
   51MOL0     C 6666   9.631   9.181   2.583  0.0422 -0.5587  0.3860
   51MOL0     H 6667   9.200   9.174   2.507  4.1319 -2.8931  2.6192
   51MOL0     H 6668   8.959   9.229   2.508  0.5632  0.2704 -0.8668
   51MOL0     H 6669   8.757   9.125   2.684  1.4540  1.0209  0.7244
   51MOL0     H 6670   8.742   9.243   2.551  0.5455 -2.7632 -0.6064
   51MOL0     H 6671   8.546   9.329   2.653 -0.8134 -0.3820  1.5096
   51MOL0     H 6672   8.589   9.247   2.810  2.5041 -0.3363  0.8116
   51MOL0     H 6673   8.411   9.126   2.701 -0.2398 -1.9724  0.3886
   51MOL0     H 6674   8.552   9.028   2.689  0.8795  0.7912  0.3080
   51MOL0     H 6675   8.571   9.101   2.447  1.2582 -2.2681  2.2194
   51MOL0     H 6676   8.431   9.006   2.496  1.6096 -1.8793  3.1829
   51MOL0     H 6677   8.454   9.313   2.430  0.7257  0.6088  4.7817
   51MOL0     H 6678   8.333   9.264   2.538 -2.1393 -1.7296 -1.2031
   51MOL0     H 6679   8.260   9.087   2.346 -0.7845  0.0652  0.2487
   51MOL0     H 6680   8.383   9.164   2.255 -0.2670 -3.0248  1.2568
   51MOL0     H 6681   8.247   9.384   2.279 -1.0561 -0.0931 -1.4040
   51MOL0     H 6682   8.141   9.259   2.234  3.6897 -0.4568 -2.0489
   51MOL0     H 6683   8.178   9.382   2.512 -1.3618 -0.6244  1.3579
   51MOL0     H 6684   8.101   9.228   2.494 -0.6431  0.5243 -0.7895
   51MOL0     H 6685   7.878   9.292   2.263  1.1634  0.7892 -1.2771
   51MOL0     H 6686   7.685   9.413   2.178 -1.2521  0.0123  0.2261
   51MOL0     H 6687   7.676   9.587   2.228 -2.0713  0.9566  0.7803
   51MOL0     H 6688   7.572   9.482   2.440  2.4142  2.5027 -0.7529
   51MOL0     H 6689   7.552   9.335   2.347 -0.0345 -0.0231 -2.6145
   51MOL0     H 6690   7.438   9.503   2.167 -3.4386  2.4198  0.3457
   51MOL0     H 6691   7.352   9.414   2.294  0.7112 -0.5026  0.6792
   51MOL0     H 6692   7.454   9.699   2.315 -1.5753  0.5006  0.7860
   51MOL0     H 6693   7.352   9.605   2.425  0.6183 -1.7469  0.1448
   51MOL0     H 6694   7.060   9.721   2.111  0.7368  2.1057  2.0355
   51MOL0     H 6695   6.818   9.631   2.139  1.0532 -2.4761 -1.2238
   51MOL0     H 6696   6.642   9.138   2.434  1.5000  1.5666  0.3259
   51MOL0     H 6697   6.425   9.056   2.539  0.3537 -0.1014  2.4498
   51MOL0     H 6698   6.234   9.016   2.633 -1.1419 -0.3194  1.3070
   51MOL0     H 6699   6.181   9.058   2.467 -0.4358  0.0341  0.3286
   51MOL0     H 6700   6.002   8.989   2.576 -0.6967  0.2421 -0.6429
   51MOL0     H 6701   5.970   9.164   2.569  0.5081  0.6183 -0.4097
   51MOL0     H 6702   6.087   9.168   2.820  1.6098 -1.3049 -1.4630
   51MOL0     H 6703   6.052   9.010   2.823 -0.1620 -0.2518 -0.8900
   51MOL0     H 6704   5.817   9.155   2.720  0.0968 -1.0779  0.3239
   51MOL0     H 6705   5.824   9.002   2.765 -0.6226 -0.1331  1.0870
   51MOL0     H 6706   5.862   9.219   2.970  2.5927 -1.1371  0.3159
   51MOL0     H 6707   5.888   9.059   3.017 -0.4861 -0.6185 -0.4606
   51MOL0     H 6708   5.653   8.996   2.916 -1.1368  1.6485 -3.9522
   51MOL0     H 6709   5.630   9.167   2.889  1.2848  0.1719 -1.3353
   51MOL0     H 6710   5.687   9.071   3.175  1.4253 -0.9146 -1.0943
   51MOL0     H 6711   5.642   9.228   3.112 -1.4384 -0.4405 -0.2606
   51MOL0     H 6712   5.450   8.992   3.091 -2.8244  0.1852  0.7067
   51MOL0     H 6713   5.427   9.155   3.028 -0.2579  1.4417  1.1181
   51MOL0     H 6714   6.326   9.472   2.587  0.1105 -0.5844  1.2590
   51MOL0     H 6715   6.536   9.532   2.504 -0.6096  0.2466 -0.0708
   51MOL0     H 6716   6.950   9.413   2.473  1.0330 -0.5948 -0.7723
   51MOL0     H 6717   7.183   9.494   2.443 -0.7061  2.3324  1.0134
   51MOL0     H 6718   8.985   9.341   2.919 -1.8417  1.4325 -0.8276
   51MOL0     H 6719   9.247   9.323   2.910  1.3227  2.7291 -1.9320
   51MOL0     H 6720   9.711   9.308   2.888  2.0770 -0.6838  0.5240
   51MOL0     H 6721   9.927   9.330   2.785  2.2305 -3.1056  0.0933
   51MOL0     H 6722  10.083   9.171   2.735  2.1328 -0.8297 -0.5332
   51MOL0     H 6723  10.130   9.324   2.652 -3.5958  0.5595 -0.6720
   51MOL0     H 6724  10.186   9.039   2.565  0.8051 -0.2234  0.4872
   51MOL0     H 6725  10.233   9.181   2.475  1.9519 -0.8302  1.4020
   51MOL0     H 6726  10.329   9.124   2.758 -0.3813  0.0784  0.0952
   51MOL0     H 6727  10.360   9.272   2.668 -0.7012  0.3204  2.1576
   51MOL0     H 6728  10.424   8.991   2.576 -1.5585  0.3295  0.7169
   51MOL0     H 6729  10.465   9.128   2.475 -2.0666 -2.0144 -0.4323
   51MOL0     H 6730  10.786   9.089   2.766  0.2456 -2.2951  0.6615
   51MOL0     H 6731   9.779   9.160   2.431  0.1519  0.5194 -0.9395
   51MOL0     H 6732   9.540   9.141   2.539  1.0440 -0.9516 -1.4490
   52MOL0     O 6733   0.936   2.410   7.824 -0.0095 -0.5827 -0.7991
   52MOL0     C 6734   1.041   2.450   7.881 -0.1201  0.6644 -0.2896
   52MOL0     O 6735   1.053   2.496   8.009 -0.2932  0.0527 -0.4363
   52MOL0     C 6736   0.945   2.501   8.097 -1.1441 -0.0435 -0.6511
   52MOL0     C 6737   0.948   2.598   8.202 -0.1712  1.1324  0.3897
   52MOL0     C 6738   0.841   2.610   8.296  0.0693  0.5662 -0.0630
   52MOL0     C 6739   0.724   2.516   8.286  0.1724 -0.4378 -0.2322
   52MOL0     O 6740   0.607   2.514   8.364 -0.4907  0.9574  0.7591
   52MOL0     C 6741   0.587   2.595   8.487 -0.5634  0.0740 -0.4574
   52MOL0     C 6742   0.449   2.575   8.558 -0.3874  0.0942 -0.1984
   52MOL0     C 6743   0.448   2.435   8.623  0.0039  0.0621 -0.2139
   52MOL0     C 6744   0.299   2.397   8.665  0.1424 -0.5092  0.4558
   52MOL0     C 6745   0.304   2.251   8.713  0.1651 -0.1668 -0.0841
   52MOL0     C 6746   0.175   2.178   8.683  0.5722 -0.2938  0.1047
   52MOL0     C 6747   0.159   2.046   8.754 -0.6708  0.4051 -0.5174
   52MOL0     C 6748   0.249   1.947   8.682 -0.2740  0.2908  0.1024
   52MOL0     N 6749   0.226   1.804   8.736  0.2951 -0.1364  0.7520
   52MOL0     C 6750   0.259   1.759   8.854  0.6651 -0.0604  0.0000
   52MOL0     C 6751   0.194   1.643   8.863 -0.9022 -0.4529  0.1901
   52MOL0     C 6752   0.179   1.555   8.985  0.2360  0.1488  0.0964
   52MOL0     C 6753   0.058   1.589   9.067  0.2227  0.0507 -0.5161
   52MOL0     C 6754  -0.068   1.553   8.988 -0.2891 -0.0481  1.1763
   52MOL0     C 6755  -0.192   1.577   9.078  0.5398  0.6798 -0.1720
   52MOL0     O 6756  -0.214   1.474   9.174 -0.2512  0.2084 -0.4112
   52MOL0     C 6757  -0.337   1.469   9.237  0.0524 -0.2140 -0.7016
   52MOL0     C 6758  -0.393   1.343   9.256 -1.1831 -0.0431 -0.2256
   52MOL0     C 6759  -0.518   1.319   9.313  0.2486  0.6994  0.1592
   52MOL0     C 6760  -0.584   1.426   9.372 -0.6086 -0.2201  1.2118
   52MOL0     C 6761  -0.712   1.406   9.444 -0.5259  0.2654 -0.3649
   52MOL0     O 6762  -0.785   1.512   9.463 -0.2977 -0.3027  0.2743
   52MOL0     C 6763  -0.891   1.499   9.550 -0.4816 -0.0640  0.6291
   52MOL0     C 6764  -0.887   1.555   9.677 -0.7304 -0.7518 -0.0061
   52MOL0     C 6765  -1.005   1.539   9.759 -0.0241  0.8032 -0.2694
   52MOL0     C 6766  -1.113   1.461   9.723 -0.2706 -0.4219  0.2171
   52MOL0     O 6767  -1.211   1.440   9.809 -0.2436  0.0811 -0.1152
   52MOL0     C 6768  -1.260   1.306   9.822  1.2652  0.9222 -0.4621
   52MOL0     C 6769  -1.410   1.313   9.807 -0.3748 -0.0089  0.4242
   52MOL0     C 6770  -1.454   1.366   9.671  0.1108 -0.2256 -0.6676
   52MOL0     C 6771  -1.609   1.397   9.669 -0.1603 -0.4234 -0.3158
   52MOL0     C 6772  -1.641   1.525   9.740  0.6331 -0.6272 -0.5899
   52MOL0     C 6773  -1.781   1.583   9.720  0.1535  0.0205  0.1017
   52MOL0     C 6774  -1.822   1.612   9.578 -0.1643  0.6203  0.5891
   52MOL0     C 6775  -1.919   1.728   9.550  0.4064 -0.7733  0.4897
   52MOL0    Cl 6776  -1.850   1.890   9.621  0.0516 -0.2202 -0.0857
   52MOL0     C 6777  -1.106   1.413   9.594  0.3243 -0.0765 -0.9303
   52MOL0     C 6778  -1.007   1.436   9.509  1.2478 -0.0756 -0.2240
   52MOL0     O 6779  -0.720   1.294   9.494  0.4823 -0.0135 -0.1915
   52MOL0     C 6780  -0.523   1.556   9.365  0.1275  0.0661  0.1103
   52MOL0     C 6781  -0.409   1.575   9.291 -0.4229  0.0699  0.5215
   52MOL0     N 6782   0.141   1.614   8.735 -0.2052 -0.4647 -0.7483
   52MOL0     N 6783   0.159   1.714   8.659  0.2842 -0.7375 -0.7564
   52MOL0     C 6784   0.723   2.427   8.176  0.2067 -0.0633  0.0439
   52MOL0     C 6785   0.836   2.416   8.086 -0.2668 -0.3749  0.8580
   52MOL0     C 6786   1.165   2.458   7.796  0.2996 -0.1391 -0.4164
   52MOL0     C 6787   1.173   2.414   7.667 -0.0121 -0.3877 -0.0379
   52MOL0     C 6788   1.291   2.424   7.599 -0.5251 -0.5445 -0.1039
   52MOL0     C 6789   1.408   2.474   7.666  0.3152  0.0904 -0.2812
   52MOL0     O 6790   1.514   2.488   7.586 -0.7407 -0.1155  0.2631
   52MOL0     C 6791   1.643   2.488   7.646  0.4459  0.6023  0.7686
   52MOL0     C 6792   1.742   2.471   7.531 -0.6596  0.2394  0.7039
   52MOL0     C 6793   1.874   2.469   7.602 -0.5966  0.1224 -0.0126
   52MOL0     C 6794   1.982   2.459   7.498 -0.4641 -0.1677 -0.2171
   52MOL0     C 6795   2.116   2.462   7.562 -0.3708 -0.8082 -0.1068
   52MOL0     C 6796   2.218   2.454   7.614 -0.4106  0.4404  0.9828
   52MOL0     C 6797   1.400   2.502   7.799 -0.0197 -0.1337  0.2288
   52MOL0     C 6798   1.281   2.505   7.863 -0.4876  0.2625  1.0139
   52MOL0     H 6799   1.033   2.665   8.204 -0.7511  1.8774  1.0506
   52MOL0     H 6800   0.857   2.686   8.372  1.7604 -0.4401  0.6548
   52MOL0     H 6801   0.592   2.699   8.454  1.0228 -0.3291 -1.5978
   52MOL0     H 6802   0.675   2.583   8.552  0.5032  4.0763 -0.9103
   52MOL0     H 6803   0.371   2.585   8.482  2.4336  1.4412 -3.1551
   52MOL0     H 6804   0.437   2.662   8.624 -0.3145 -0.0787  0.0438
   52MOL0     H 6805   0.511   2.444   8.712 -0.2965  1.5267 -0.1406
   52MOL0     H 6806   0.496   2.358   8.562  0.4886  0.3542 -0.2060
   52MOL0     H 6807   0.257   2.460   8.744  1.6080 -0.8431  1.5453
   52MOL0     H 6808   0.247   2.405   8.569  1.3533 -0.6435 -0.2449
   52MOL0     H 6809   0.335   2.224   8.814  2.5698 -0.0923 -0.7369
   52MOL0     H 6810   0.371   2.199   8.644  1.1284  2.1692 -1.0176
   52MOL0     H 6811   0.164   2.168   8.575 -1.1084 -1.3387  0.3331
   52MOL0     H 6812   0.098   2.243   8.724 -0.1840 -0.7834 -0.5217
   52MOL0     H 6813   0.187   2.050   8.860  0.3604  2.5547 -0.8220
   52MOL0     H 6814   0.056   2.010   8.754  0.1187 -2.1735  1.5690
   52MOL0     H 6815   0.355   1.970   8.692  0.3735 -2.2763 -0.0521
   52MOL0     H 6816   0.228   1.944   8.575  1.1709  1.9783 -0.2736
   52MOL0     H 6817   0.316   1.807   8.933  0.2458  2.6503 -1.2074
   52MOL0     H 6818   0.275   1.571   9.035  1.0015 -1.8373 -0.6576
   52MOL0     H 6819   0.166   1.453   8.946 -1.1941  0.2532  0.2340
   52MOL0     H 6820   0.064   1.694   9.100 -0.8833 -0.3107  0.9579
   52MOL0     H 6821   0.055   1.531   9.160 -2.3560  2.0921  0.8361
   52MOL0     H 6822  -0.089   1.625   8.909  0.1393  1.3209  2.2771
   52MOL0     H 6823  -0.066   1.447   8.960  1.4398 -0.8761  3.9639
   52MOL0     H 6824  -0.279   1.565   9.013 -0.5545  1.1733  1.1485
   52MOL0     H 6825  -0.193   1.674   9.129 -1.0854  0.6028  0.0064
   52MOL0     H 6826  -0.330   1.258   9.230 -3.4997 -1.6653 -0.8434
   52MOL0     H 6827  -0.553   1.217   9.328  3.2390 -0.4472 -0.1116
   52MOL0     H 6828  -0.804   1.622   9.699 -1.2365 -0.1120 -0.0184
   52MOL0     H 6829  -0.998   1.573   9.862 -0.4830  2.2188 -0.6924
   52MOL0     H 6830  -1.254   1.265   9.923 -3.2630 -1.6160 -0.9573
   52MOL0     H 6831  -1.212   1.232   9.757 -4.1152 -1.7588 -1.9717
   52MOL0     H 6832  -1.461   1.365   9.889 -2.4305  2.0146 -1.9760
   52MOL0     H 6833  -1.434   1.206   9.807 -1.8636  0.2560  2.9257
   52MOL0     H 6834  -1.416   1.307   9.588 -0.2345  2.4775 -2.9147
   52MOL0     H 6835  -1.399   1.460   9.658 -1.9158  1.0631 -0.4069
   52MOL0     H 6836  -1.643   1.394   9.565  1.0393  1.7777 -0.8246
   52MOL0     H 6837  -1.662   1.313   9.715  0.2993 -1.3724 -1.4438
   52MOL0     H 6838  -1.567   1.598   9.705  1.6224 -0.0023  2.4969
   52MOL0     H 6839  -1.622   1.516   9.847  1.4310  3.9158 -0.1555
   52MOL0     H 6840  -1.798   1.666   9.790 -1.5978 -2.6712  3.1067
   52MOL0     H 6841  -1.852   1.507   9.752 -0.3760 -0.4318 -2.0138
   52MOL0     H 6842  -1.730   1.607   9.519  1.4845 -5.6784  2.9431
   52MOL0     H 6843  -1.875   1.523   9.544  2.6102 -0.9759  0.1269
   52MOL0     H 6844  -2.014   1.708   9.600 -1.1357  0.5420 -1.7195
   52MOL0     H 6845  -1.938   1.732   9.442  1.5518 -2.3105  0.1858
   52MOL0     H 6846  -1.183   1.344   9.564 -1.0053 -0.9504  3.6534
   52MOL0     H 6847  -1.027   1.396   9.410  0.0509  2.1074 -0.9468
   52MOL0     H 6848  -0.573   1.634   9.422 -2.3921 -3.0616  2.5218
   52MOL0     H 6849  -0.365   1.675   9.285 -2.7500  1.1788  0.9814
   52MOL0     H 6850   0.636   2.363   8.161  1.8758 -2.4623  0.0911
   52MOL0     H 6851   0.837   2.331   8.018  0.2554  0.6521 -0.4664
   52MOL0     H 6852   1.093   2.358   7.619  1.2136 -2.6395  0.3798
   52MOL0     H 6853   1.300   2.385   7.498 -0.4303 -1.2164  0.1579
   52MOL0     H 6854   1.655   2.406   7.717  1.4449 -2.2965 -2.4440
   52MOL0     H 6855   1.652   2.585   7.696 -0.8558  1.2630 -0.1982
   52MOL0     H 6856   1.724   2.377   7.479  0.1559  0.0955  0.6668
   52MOL0     H 6857   1.735   2.550   7.455 -2.1055  1.3733  1.9605
   52MOL0     H 6858   1.890   2.384   7.670  0.4717 -0.7353 -1.2766
   52MOL0     H 6859   1.878   2.562   7.659  2.3315 -0.8585  1.5909
   52MOL0     H 6860   1.972   2.368   7.439  2.5439 -1.0611  0.4813
   52MOL0     H 6861   1.968   2.550   7.438  0.5258  0.9467  1.1612
   52MOL0     H 6862   2.314   2.452   7.661 -0.2032 -0.6825  0.5461
   52MOL0     H 6863   1.486   2.529   7.860 -0.0658 -1.2181  0.7992
   52MOL0     H 6864   1.278   2.555   7.960  0.0762 -0.9206  1.6746
   53MOL0     O 6865   1.215   9.318   5.505  0.0065 -0.0938  0.0775
   53MOL0     C 6866   1.309   9.341   5.581  0.4193 -0.5004  0.7676
   53MOL0     O 6867   1.318   9.317   5.712  0.5784  0.0446  0.2843
   53MOL0     C 6868   1.215   9.242   5.767 -0.7497 -0.3703 -0.7578
   53MOL0     C 6869   1.164   9.291   5.892  0.4460  0.0617 -0.9864
   53MOL0     C 6870   1.066   9.219   5.965  0.0064  0.0484  0.2560
   53MOL0     C 6871   1.020   9.097   5.905 -0.1615 -0.2133  0.0332
   53MOL0     O 6872   0.934   9.025   5.984  0.3240  0.1216 -0.0936
   53MOL0     C 6873   0.809   8.969   5.928  0.1370  0.4876  0.1242
   53MOL0     C 6874   0.697   9.046   5.988 -0.1976  0.7971 -0.2639
   53MOL0     C 6875   0.571   8.955   5.983 -0.9971 -0.2688 -0.7192
   53MOL0     C 6876   0.444   9.033   6.003  0.1997  0.1995 -0.6366
   53MOL0     C 6877   0.324   8.940   6.035 -0.0244 -0.4532 -0.0541
   53MOL0     C 6878   0.313   8.822   5.943  0.5775  0.6426 -0.1998
   53MOL0     C 6879   0.163   8.776   5.916 -1.0978 -0.0194 -0.3002
   53MOL0     C 6880   0.086   8.722   6.037 -0.7937 -0.1120 -0.7648
   53MOL0     N 6881  -0.052   8.683   5.992  0.5408 -0.3926 -0.8142
   53MOL0     C 6882  -0.088   8.556   5.942 -0.5065  0.4639 -0.2136
   53MOL0     C 6883  -0.226   8.554   5.926  0.5709 -0.6299  0.2345
   53MOL0     C 6884  -0.309   8.447   5.876  0.8934 -0.5363  0.2348
   53MOL0     C 6885  -0.331   8.458   5.723 -0.1796  0.3594  0.2571
   53MOL0     C 6886  -0.429   8.569   5.668  0.3108 -0.0149 -0.1762
   53MOL0     C 6887  -0.572   8.519   5.685  0.0770 -0.4286  0.4834
   53MOL0     O 6888  -0.629   8.441   5.572 -0.2339 -0.7574 -0.1747
   53MOL0     C 6889  -0.759   8.394   5.586 -0.4561 -0.0964  0.1106
   53MOL0     C 6890  -0.787   8.263   5.577 -0.2074 -0.8217 -0.9503
   53MOL0     C 6891  -0.921   8.225   5.575 -0.6268  0.6742  0.9133
   53MOL0     C 6892  -1.028   8.317   5.597 -0.5928 -0.2295 -0.3963
   53MOL0     C 6893  -1.171   8.289   5.612  0.1008 -0.0972  0.2726
   53MOL0     O 6894  -1.212   8.165   5.574 -0.1561  0.1879 -0.1475
   53MOL0     C 6895  -1.346   8.145   5.549  0.1054 -0.4045 -0.8606
   53MOL0     C 6896  -1.384   8.061   5.449 -0.7106  0.2063  0.3868
   53MOL0     C 6897  -1.514   8.021   5.418  0.0866 -0.2957  0.9915
   53MOL0     C 6898  -1.614   8.055   5.501  0.4360  0.0100  0.1872
   53MOL0     O 6899  -1.747   8.012   5.493 -0.0237 -0.7466  0.9560
   53MOL0     C 6900  -1.797   7.942   5.373 -0.4032 -0.1477 -0.4498
   53MOL0     C 6901  -1.936   7.892   5.406  0.5893 -0.1736 -0.3753
   53MOL0     C 6902  -2.009   7.835   5.294 -0.2586  0.0931 -0.8290
   53MOL0     C 6903  -2.145   7.777   5.344 -0.0922  0.1300  0.2641
   53MOL0     C 6904  -2.136   7.642   5.427 -0.1295  0.5402 -0.5656
   53MOL0     C 6905  -2.270   7.591   5.472 -0.4415 -0.0986  0.3233
   53MOL0     C 6906  -2.355   7.545   5.357  0.7959  0.2695 -0.0874
   53MOL0     C 6907  -2.472   7.451   5.386  0.0922 -0.8822  0.0419
   53MOL0    Cl 6908  -2.412   7.289   5.449  0.1547  0.1814  0.1443
   53MOL0     C 6909  -1.581   8.137   5.616  0.0456 -0.1986  0.1200
   53MOL0     C 6910  -1.450   8.183   5.642 -0.3563 -0.9697  0.6445
   53MOL0     O 6911  -1.246   8.376   5.656  0.0608 -0.5818  0.7547
   53MOL0     C 6912  -0.986   8.452   5.620  0.1318  0.0807  0.0337
   53MOL0     C 6913  -0.853   8.492   5.605 -0.0548  0.5548  0.7315
   53MOL0     N 6914  -0.273   8.677   5.975  0.4316  0.2892 -0.0303
   53MOL0     N 6915  -0.173   8.752   6.012  0.0546 -0.3827 -0.2569
   53MOL0     C 6916   1.048   9.056   5.782  0.1387 -0.0264 -0.3628
   53MOL0     C 6917   1.147   9.127   5.718 -0.8342 -0.6449  0.2727
   53MOL0     C 6918   1.428   9.414   5.515  0.2008  0.5796  0.0992
   53MOL0     C 6919   1.427   9.463   5.380 -0.7976 -0.1335 -0.1738
   53MOL0     C 6920   1.529   9.541   5.338  0.3637 -0.2211 -0.9351
   53MOL0     C 6921   1.654   9.547   5.404 -0.0932 -0.4141  0.2937
   53MOL0     O 6922   1.762   9.622   5.363  0.2640 -0.1099  0.4701
   53MOL0     C 6923   1.757   9.684   5.234 -0.3441  0.1506  1.1091
   53MOL0     C 6924   1.782   9.586   5.114  0.4638 -0.0089 -0.0079
   53MOL0     C 6925   1.924   9.526   5.129  0.1699 -0.3460  0.4834
   53MOL0     C 6926   2.013   9.524   5.003 -0.1321 -0.2993 -0.4459
   53MOL0     C 6927   1.942   9.465   4.887  0.2667  0.1890  0.3103
   53MOL0     C 6928   1.894   9.435   4.778  0.1287  0.6135  0.0425
   53MOL0     C 6929   1.663   9.485   5.525 -0.1231 -0.7612 -0.2203
   53MOL0     C 6930   1.554   9.426   5.581  0.2005  0.3607  0.8081
   53MOL0     H 6931   1.212   9.381   5.931 -0.8851  0.0465  0.8252
   53MOL0     H 6932   1.034   9.250   6.064  1.0437 -1.1073  0.9783
   53MOL0     H 6933   0.801   8.867   5.967 -0.1971 -0.0502 -1.2906
   53MOL0     H 6934   0.809   8.986   5.820  4.6235  3.9568  0.3620
   53MOL0     H 6935   0.688   9.146   5.944  0.0395  0.6453 -0.6666
   53MOL0     H 6936   0.717   9.068   6.093  0.0645 -0.6291 -0.0004
   53MOL0     H 6937   0.583   8.866   6.046  0.9686 -0.9589 -1.9820
   53MOL0     H 6938   0.575   8.915   5.881  0.8896 -2.2150  0.0437
   53MOL0     H 6939   0.454   9.105   6.085 -2.4397  2.3441 -2.0628
   53MOL0     H 6940   0.405   9.084   5.915 -1.7030  0.3298  0.2327
   53MOL0     H 6941   0.230   8.997   6.037 -1.0102 -2.0360  0.0606
   53MOL0     H 6942   0.345   8.898   6.133 -0.8929 -2.4497 -0.6747
   53MOL0     H 6943   0.369   8.737   5.984 -0.6802  0.3646  1.0476
   53MOL0     H 6944   0.366   8.852   5.853  1.3419 -2.3166 -0.8224
   53MOL0     H 6945   0.109   8.864   5.879  0.2216  0.3155 -1.4930
   53MOL0     H 6946   0.164   8.694   5.845  0.5706  2.1231 -2.9483
   53MOL0     H 6947   0.082   8.790   6.123  0.2745 -2.3870  1.1940
   53MOL0     H 6948   0.134   8.629   6.069  2.2702  1.2249 -1.1062
   53MOL0     H 6949  -0.013   8.479   5.923  0.6120  1.8097 -1.4635
   53MOL0     H 6950  -0.409   8.450   5.920  0.6518 -0.3891 -0.3052
   53MOL0     H 6951  -0.257   8.356   5.908 -1.0556 -1.4142  1.0219
   53MOL0     H 6952  -0.361   8.358   5.689  2.0178 -0.7879  1.4559
   53MOL0     H 6953  -0.230   8.483   5.687 -0.3906  1.3398  0.3188
   53MOL0     H 6954  -0.426   8.657   5.734 -3.0346 -2.3085  3.4703
   53MOL0     H 6955  -0.408   8.590   5.563  3.8950 -2.0719 -0.0404
   53MOL0     H 6956  -0.632   8.607   5.709  0.8983  0.5350 -0.9385
   53MOL0     H 6957  -0.581   8.455   5.774  0.6055 -0.5860  0.4275
   53MOL0     H 6958  -0.707   8.192   5.561  2.9648  2.2768 -0.0151
   53MOL0     H 6959  -0.943   8.119   5.570 -1.2815  0.8558 -0.9074
   53MOL0     H 6960  -1.310   8.025   5.379 -1.5231  1.0351 -0.9507
   53MOL0     H 6961  -1.509   7.961   5.328  0.1625 -0.2694  0.9788
   53MOL0     H 6962  -1.736   7.853   5.356  2.0308  0.7244  2.7196
   53MOL0     H 6963  -1.790   8.010   5.288 -0.1736  0.5882  0.1439
   53MOL0     H 6964  -1.990   7.979   5.444  1.7197  0.5482 -0.3789
   53MOL0     H 6965  -1.929   7.818   5.486 -1.4272 -1.4611 -1.2966
   53MOL0     H 6966  -1.939   7.759   5.259 -0.9225 -0.5461 -0.7853
   53MOL0     H 6967  -2.020   7.901   5.208  2.4889  1.1438 -0.4815
   53MOL0     H 6968  -2.197   7.851   5.406 -0.2903  0.7862 -0.6596
   53MOL0     H 6969  -2.196   7.755   5.249  0.6419  0.1353 -0.1417
   53MOL0     H 6970  -2.083   7.650   5.523 -1.6123 -1.1533  0.4555
   53MOL0     H 6971  -2.081   7.575   5.360  0.4744  1.2996 -0.8508
   53MOL0     H 6972  -2.318   7.671   5.529  2.7903  0.3220  2.7380
   53MOL0     H 6973  -2.249   7.504   5.536 -0.1048  0.8213  1.5006
   53MOL0     H 6974  -2.399   7.633   5.308  2.3213 -0.8765 -3.8227
   53MOL0     H 6975  -2.294   7.499   5.279 -1.0534  0.7927 -1.9433
   53MOL0     H 6976  -2.518   7.441   5.287  0.5628  0.0362 -0.2900
   53MOL0     H 6977  -2.546   7.490   5.456  0.0722 -2.7803  1.1433
   53MOL0     H 6978  -1.669   8.157   5.677 -0.4947 -1.2756 -0.2780
   53MOL0     H 6979  -1.430   8.219   5.742 -2.5319  3.3280 -0.2488
   53MOL0     H 6980  -1.061   8.526   5.646 -1.5874 -0.7048 -2.3347
   53MOL0     H 6981  -0.829   8.598   5.605 -1.4283  0.8920  0.1520
   53MOL0     H 6982   1.005   8.963   5.745 -0.0375 -3.4219  6.6423
   53MOL0     H 6983   1.182   9.089   5.623  2.3486 -1.8325  1.7549
   53MOL0     H 6984   1.335   9.461   5.323 -1.5628  3.6328  0.6692
   53MOL0     H 6985   1.526   9.585   5.238  3.1228  1.7705 -0.2760
   53MOL0     H 6986   1.825   9.769   5.219 -1.2754  0.5011 -1.6174
   53MOL0     H 6987   1.663   9.734   5.212  0.0287  0.1673 -0.6375
   53MOL0     H 6988   1.707   9.506   5.117  0.3944  0.0727  0.6488
   53MOL0     H 6989   1.762   9.640   5.021 -2.2543 -1.3941 -0.3210
   53MOL0     H 6990   1.926   9.422   5.162  0.4230  0.0492  1.7748
   53MOL0     H 6991   1.974   9.575   5.214 -2.2887  2.0683  0.6802
   53MOL0     H 6992   2.031   9.627   4.971  3.3457 -0.6310  0.0478
   53MOL0     H 6993   2.110   9.478   5.023 -0.0532  0.1683  0.2841
   53MOL0     H 6994   1.841   9.410   4.689 -0.7232 -2.6242  1.3170
   53MOL0     H 6995   1.755   9.495   5.581 -2.0162  1.0399  2.8382
   53MOL0     H 6996   1.561   9.388   5.683 -1.5258 -1.2775  0.3596
   54MOL0     O 6997   2.452   8.039   7.647  0.0861 -0.6394  0.6767
   54MOL0     C 6998   2.347   7.973   7.648  0.3595 -0.4475 -0.6216
   54MOL0     O 6999   2.242   7.986   7.553  0.4644 -0.2550  0.5128
   54MOL0     C 7000   2.253   8.082   7.454 -0.1856  0.8150  0.3937
   54MOL0     C 7001   2.212   8.050   7.318 -0.1346  0.4212 -1.2771
   54MOL0     C 7002   2.215   8.152   7.222  0.2224  0.2099  0.3108
   54MOL0     C 7003   2.259   8.285   7.252  0.5717  0.0339  0.9461
   54MOL0     O 7004   2.271   8.386   7.168 -0.7683 -1.2074  0.5233
   54MOL0     C 7005   2.250   8.380   7.029 -0.3776  1.1680 -0.5108
   54MOL0     C 7006   2.096   8.393   7.007 -0.1406 -0.3425  0.7182
   54MOL0     C 7007   2.060   8.401   6.857  0.3490  0.4392  0.1952
   54MOL0     C 7008   1.910   8.383   6.835  0.4530 -0.0613  0.4303
   54MOL0     C 7009   1.875   8.381   6.690 -0.7309  0.3192  0.2934
   54MOL0     C 7010   1.731   8.315   6.679 -0.4828  0.0250  0.6834
   54MOL0     C 7011   1.615   8.405   6.739 -0.8976  0.1724  0.7451
   54MOL0     C 7012   1.479   8.344   6.720 -0.0736  0.0863 -0.0608
   54MOL0     N 7013   1.445   8.232   6.815 -0.1467  0.4615  0.0396
   54MOL0     C 7014   1.315   8.212   6.850  0.5450  0.1902 -0.4343
   54MOL0     C 7015   1.325   8.122   6.950 -0.2099  0.3644  0.0640
   54MOL0     C 7016   1.224   8.049   7.030  0.3083 -0.5343  0.0479
   54MOL0     C 7017   1.158   7.929   6.953  0.4887 -0.5144 -0.1562
   54MOL0     C 7018   1.263   7.813   6.922  1.1517 -0.6081  0.2210
   54MOL0     C 7019   1.214   7.723   6.816 -0.7187  0.7244 -0.1777
   54MOL0     O 7020   1.095   7.669   6.869 -0.3619  0.1119 -0.0698
   54MOL0     C 7021   0.998   7.675   6.777 -0.3245  0.9045 -0.1614
   54MOL0     C 7022   0.880   7.736   6.830  0.0309 -0.5797  0.0458
   54MOL0     C 7023   0.761   7.740   6.757 -0.1418  0.5006  0.6890
   54MOL0     C 7024   0.754   7.677   6.630  0.2359 -0.1996  0.1629
   54MOL0     C 7025   0.629   7.689   6.557  0.1257  0.6253 -0.2100
   54MOL0     O 7026   0.514   7.749   6.614  0.5825 -0.2069  0.0726
   54MOL0     C 7027   0.400   7.782   6.542 -0.2459  0.8171 -0.3189
   54MOL0     C 7028   0.349   7.912   6.552 -0.3485 -0.2514 -0.1613
   54MOL0     C 7029   0.221   7.943   6.495 -0.5803 -1.0585  0.1350
   54MOL0     C 7030   0.145   7.843   6.426  0.2428  0.3053 -1.4987
   54MOL0     O 7031   0.034   7.882   6.363 -0.1464  0.9240  0.0862
   54MOL0     C 7032   0.004   7.823   6.232 -0.9909 -0.0935 -0.1126
   54MOL0     C 7033  -0.126   7.883   6.178 -0.3415  0.5900 -0.4165
   54MOL0     C 7034  -0.182   7.820   6.049 -0.8906  0.8838 -0.2937
   54MOL0     C 7035  -0.316   7.888   5.997  0.2280  0.7583 -0.2187
   54MOL0     C 7036  -0.367   7.839   5.862  0.0074 -0.2617  0.0936
   54MOL0     C 7037  -0.520   7.863   5.848  0.0141 -0.3933  0.0904
   54MOL0     C 7038  -0.577   8.001   5.831 -0.3997 -0.2241 -0.8464
   54MOL0     C 7039  -0.727   8.000   5.841 -0.1441 -0.5226  0.0884
   54MOL0    Cl 7040  -0.820   7.939   5.703 -0.1968 -0.3349 -0.0173
   54MOL0     C 7041   0.203   7.710   6.417  0.0541  0.3863 -0.1603
   54MOL0     C 7042   0.325   7.680   6.481  0.2560 -0.1429  0.2203
   54MOL0     O 7043   0.633   7.655   6.443  0.2629 -1.1025 -0.2402
   54MOL0     C 7044   0.868   7.612   6.577 -0.1551 -0.4169  0.0202
   54MOL0     C 7045   0.982   7.604   6.653 -0.9437 -1.0110 -0.1638
   54MOL0     N 7046   1.462   8.094   6.976 -0.0959  0.1821 -1.0729
   54MOL0     N 7047   1.529   8.169   6.902 -0.5395  0.5504 -1.2454
   54MOL0     C 7048   2.298   8.312   7.383  0.0598 -0.4379 -0.5126
   54MOL0     C 7049   2.283   8.213   7.481 -0.4092  0.2092 -0.3599
   54MOL0     C 7050   2.330   7.884   7.764  0.5579  0.9605  0.2712
   54MOL0     C 7051   2.443   7.853   7.837 -0.3648  0.7210 -0.1238
   54MOL0     C 7052   2.432   7.769   7.949 -0.3983 -0.1480  0.8308
   54MOL0     C 7053   2.314   7.699   7.974  0.8349  0.1892 -0.6557
   54MOL0     O 7054   2.289   7.614   8.078  0.3256 -0.1453  0.8420
   54MOL0     C 7055   2.394   7.580   8.167  0.5782 -0.3377  0.4816
   54MOL0     C 7056   2.422   7.679   8.272  0.6197 -0.1444  0.5764
   54MOL0     C 7057   2.529   7.629   8.366  0.6815  0.6921 -0.2215
   54MOL0     C 7058   2.679   7.629   8.330 -0.1446 -0.0895  0.0283
   54MOL0     C 7059   2.754   7.573   8.440  0.0873 -0.5268 -0.0318
   54MOL0     C 7060   2.822   7.517   8.529  1.7324 -0.6146  0.3470
   54MOL0     C 7061   2.198   7.726   7.905  0.2760 -0.0397  0.3428
   54MOL0     C 7062   2.209   7.815   7.795  0.8842 -0.4524  0.5446
   54MOL0     H 7063   2.176   7.953   7.285  3.5142 -0.7386 -2.3499
   54MOL0     H 7064   2.172   8.138   7.124  0.6056  1.7915 -0.1160
   54MOL0     H 7065   2.290   8.283   6.998  2.8528  1.7809  1.2943
   54MOL0     H 7066   2.306   8.462   6.983  1.0896  2.6252  3.4296
   54MOL0     H 7067   2.050   8.476   7.062 -1.2833 -2.4363  3.0736
   54MOL0     H 7068   2.042   8.311   7.055  0.7303 -0.5141  1.4225
   54MOL0     H 7069   2.116   8.325   6.802  2.3956  2.0539 -0.0712
   54MOL0     H 7070   2.103   8.490   6.809  0.1769  0.0489 -0.7102
   54MOL0     H 7071   1.891   8.288   6.886  0.1771 -0.6886 -0.8045
   54MOL0     H 7072   1.860   8.467   6.884  0.2924  1.2714 -1.8459
   54MOL0     H 7073   1.944   8.313   6.637 -1.0493 -1.0740  1.6105
   54MOL0     H 7074   1.878   8.487   6.664  1.5261  0.5964  1.4198
   54MOL0     H 7075   1.727   8.213   6.717  0.2754 -0.1428  0.3310
   54MOL0     H 7076   1.723   8.301   6.571  3.2200 -3.1071  0.5843
   54MOL0     H 7077   1.622   8.424   6.847 -0.6886 -0.5233  0.8614
   54MOL0     H 7078   1.616   8.501   6.687 -2.2032 -0.8724 -1.3848
   54MOL0     H 7079   1.468   8.300   6.621 -1.9156  1.2125 -0.4204
   54MOL0     H 7080   1.400   8.418   6.735 -0.9690 -0.9467  0.4572
   54MOL0     H 7081   1.231   8.251   6.792  1.4147  0.3317 -1.6321
   54MOL0     H 7082   1.143   8.114   7.062 -1.4058 -1.8246 -1.4306
   54MOL0     H 7083   1.280   8.011   7.116  1.4939  2.2204  0.5737
   54MOL0     H 7084   1.114   7.969   6.861 -3.2844 -1.3312  1.1335
   54MOL0     H 7085   1.073   7.892   7.009  2.3702 -0.8523  2.6660
   54MOL0     H 7086   1.353   7.861   6.883  1.0878 -0.1678  0.6009
   54MOL0     H 7087   1.290   7.760   7.014 -2.3812 -2.4978  0.3495
   54MOL0     H 7088   1.279   7.636   6.802  0.7615  2.1180 -2.6837
   54MOL0     H 7089   1.216   7.777   6.721 -0.2727  0.0367 -0.5671
   54MOL0     H 7090   0.887   7.768   6.934  3.6812  1.3138 -0.6077
   54MOL0     H 7091   0.674   7.782   6.807 -0.9302 -2.3223  1.9322
   54MOL0     H 7092   0.407   7.990   6.600 -0.2001  0.9175 -2.1211
   54MOL0     H 7093   0.182   8.045   6.500  2.2250  0.0516  2.3478
   54MOL0     H 7094  -0.007   7.715   6.237  1.6895 -0.5279 -1.7776
   54MOL0     H 7095   0.087   7.835   6.162  0.9190 -2.2319  1.6353
   54MOL0     H 7096  -0.113   7.991   6.164 -1.7767  0.8294 -0.0320
   54MOL0     H 7097  -0.208   7.872   6.250 -1.5509 -1.0398 -1.9701
   54MOL0     H 7098  -0.187   7.711   6.058  1.6426  0.5245 -1.9214
   54MOL0     H 7099  -0.106   7.826   5.970  1.4180 -2.1937  1.4590
   54MOL0     H 7100  -0.390   7.863   6.074  0.8462 -0.0242  0.1379
   54MOL0     H 7101  -0.297   7.996   6.000 -1.0402  0.9994  2.3461
   54MOL0     H 7102  -0.346   7.733   5.847 -2.2277 -0.6279 -0.8968
   54MOL0     H 7103  -0.319   7.900   5.786 -0.8482 -0.3556 -0.5368
   54MOL0     H 7104  -0.572   7.827   5.937 -1.1370 -3.1428 -1.5794
   54MOL0     H 7105  -0.551   7.804   5.762 -0.5344 -0.1539  0.1166
   54MOL0     H 7106  -0.530   8.065   5.907  2.9976 -1.3989 -1.8148
   54MOL0     H 7107  -0.552   8.036   5.731  0.2220 -0.5839 -0.8193
   54MOL0     H 7108  -0.761   8.104   5.848 -0.0609 -0.5960  2.1102
   54MOL0     H 7109  -0.760   7.960   5.937  0.9195 -3.4057 -0.6312
   54MOL0     H 7110   0.148   7.629   6.370  1.6467 -0.2438 -1.0245
   54MOL0     H 7111   0.376   7.584   6.483 -1.2836 -1.0392 -1.2422
   54MOL0     H 7112   0.870   7.555   6.485 -0.7571 -0.4276  0.0071
   54MOL0     H 7113   1.060   7.537   6.616  0.2260 -0.9263  1.9619
   54MOL0     H 7114   2.331   8.411   7.413 -2.3980  0.4247 -0.3708
   54MOL0     H 7115   2.293   8.245   7.584 -0.3564  3.6691 -1.3165
   54MOL0     H 7116   2.538   7.888   7.798 -0.8917  0.5379 -1.6660
   54MOL0     H 7117   2.530   7.749   7.989 -0.1431  2.6020  1.7745
   54MOL0     H 7118   2.489   7.558   8.118  1.4265 -1.5522  2.5801
   54MOL0     H 7119   2.359   7.491   8.220  1.2595  0.0203  1.5450
   54MOL0     H 7120   2.440   7.777   8.228 -2.5371 -1.0007 -3.2146
   54MOL0     H 7121   2.334   7.701   8.333  1.4827  3.0521  0.8235
   54MOL0     H 7122   2.496   7.528   8.393  1.4939 -0.3465 -2.8314
   54MOL0     H 7123   2.524   7.696   8.452 -2.0275 -1.4392  1.4470
   54MOL0     H 7124   2.695   7.574   8.237  0.5206 -1.9645  1.2090
   54MOL0     H 7125   2.715   7.731   8.312  0.7841 -0.4015  0.0949
   54MOL0     H 7126   2.882   7.476   8.607  0.3271  0.0095  1.8316
   54MOL0     H 7127   2.103   7.682   7.932  0.0470  0.1520 -0.1460
   54MOL0     H 7128   2.117   7.842   7.744 -1.2167 -5.4712  1.1009
   55MOL0     O 7129   5.567   2.341   3.284 -0.5403  0.1841 -0.1118
   55MOL0     C 7130   5.600   2.339   3.166 -0.0380 -0.2986 -0.5533
   55MOL0     O 7131   5.526   2.397   3.058  0.2980 -0.3169  0.3997
   55MOL0     C 7132   5.399   2.456   3.083  0.2451 -0.9371 -0.2801
   55MOL0     C 7133   5.303   2.414   2.992  0.3524  0.1064 -0.4149
   55MOL0     C 7134   5.180   2.474   2.993 -0.1399 -0.7575 -1.2305
   55MOL0     C 7135   5.149   2.578   3.082  0.3140  0.1519  0.3765
   55MOL0     O 7136   5.020   2.633   3.068 -0.0349 -0.0163 -0.3800
   55MOL0     C 7137   4.980   2.742   3.149  0.3529  0.2934  0.8689
   55MOL0     C 7138   4.864   2.809   3.072 -0.6069 -1.0297  0.1663
   55MOL0     C 7139   4.904   2.871   2.942 -0.2654  0.1561  0.0564
   55MOL0     C 7140   4.795   2.932   2.866  0.7186 -0.5132 -0.1506
   55MOL0     C 7141   4.858   3.003   2.737  0.4485 -0.1464 -0.0701
   55MOL0     C 7142   4.751   3.071   2.640 -0.7940 -0.2590  0.6797
   55MOL0     C 7143   4.643   2.977   2.601  1.1273  0.3887  0.3227
   55MOL0     C 7144   4.547   3.033   2.492  0.0150  0.3649 -0.6006
   55MOL0     N 7145   4.425   2.946   2.472  0.4381  0.2645 -0.4986
   55MOL0     C 7146   4.402   2.853   2.378  0.0565  0.4432  0.1522
   55MOL0     C 7147   4.280   2.802   2.402  0.8472  0.3506 -0.8563
   55MOL0     C 7148   4.214   2.694   2.323 -1.1537  0.3973  0.0741
   55MOL0     C 7149   4.242   2.547   2.378 -0.1072  0.4555  0.1382
   55MOL0     C 7150   4.196   2.535   2.523  1.0496  0.1033  0.4647
   55MOL0     C 7151   4.042   2.540   2.525  0.4434  0.5633  0.5585
   55MOL0     O 7152   3.991   2.483   2.658 -0.3462 -0.1177  0.6320
   55MOL0     C 7153   3.865   2.522   2.694  0.1584  0.2755 -0.9309
   55MOL0     C 7154   3.767   2.577   2.616 -0.6503  0.6415  0.7629
   55MOL0     C 7155   3.643   2.607   2.666 -0.4694 -0.4961 -0.0812
   55MOL0     C 7156   3.603   2.583   2.796  0.2990 -0.4923  0.4921
   55MOL0     C 7157   3.468   2.614   2.849  0.8728 -0.1191 -0.6359
   55MOL0     O 7158   3.436   2.558   2.970  0.2285  0.4896  0.1756
   55MOL0     C 7159   3.313   2.581   3.025  0.1169 -0.2815 -0.7192
   55MOL0     C 7160   3.204   2.499   2.999 -1.2373  0.3584  0.2611
   55MOL0     C 7161   3.091   2.524   3.065 -0.0279 -0.0625 -0.7627
   55MOL0     C 7162   3.081   2.631   3.155  0.8904  0.3651  0.0619
   55MOL0     O 7163   2.959   2.639   3.218  0.0390 -0.1973  0.4764
   55MOL0     C 7164   2.945   2.572   3.353  0.1548 -0.3404 -0.7765
   55MOL0     C 7165   2.892   2.676   3.455  0.1279  0.2657  0.2154
   55MOL0     C 7166   2.752   2.718   3.415 -0.3286  0.0427 -0.2032
   55MOL0     C 7167   2.689   2.812   3.519 -0.0813  0.4798  1.1636
   55MOL0     C 7168   2.543   2.837   3.484  0.6133 -0.1255 -0.0448
   55MOL0     C 7169   2.522   2.926   3.358 -0.1292  0.0122  0.1774
   55MOL0     C 7170   2.366   2.963   3.344 -0.6057  0.3131 -0.2889
   55MOL0     C 7171   2.332   3.030   3.211  0.1360  0.3454  0.1929
   55MOL0    Cl 7172   2.392   3.202   3.226  0.3299 -0.3814 -0.0286
   55MOL0     C 7173   3.190   2.710   3.179 -0.2801  0.8790  0.0883
   55MOL0     C 7174   3.303   2.691   3.111 -0.5402  1.1835 -0.7432
   55MOL0     O 7175   3.395   2.681   2.786  0.2928 -1.1184  0.0164
   55MOL0     C 7176   3.703   2.521   2.874  0.5177 -0.2806 -1.1999
   55MOL0     C 7177   3.827   2.490   2.827 -0.2915 -0.2147  0.5377
   55MOL0     N 7178   4.222   2.860   2.516  0.1561 -0.4975  0.1366
   55MOL0     N 7179   4.313   2.934   2.560  0.2477 -0.1204  0.3880
   55MOL0     C 7180   5.249   2.623   3.174 -0.1024 -0.2728  0.3483
   55MOL0     C 7181   5.374   2.558   3.177  1.2352  0.3192 -0.2222
   55MOL0     C 7182   5.726   2.265   3.125 -0.0002 -0.5036  0.3875
   55MOL0     C 7183   5.751   2.230   2.994  0.2654  0.2845  0.5716
   55MOL0     C 7184   5.874   2.164   2.958 -0.0777 -0.3437  0.0294
   55MOL0     C 7185   5.967   2.127   3.055  0.0948 -0.7589  0.0310
   55MOL0     O 7186   6.088   2.077   3.010 -0.2268  0.3119 -0.2008
   55MOL0     C 7187   6.154   1.990   3.107  0.4012  0.5178 -0.4121
   55MOL0     C 7188   6.258   1.910   3.030  0.3926 -0.7419 -0.5841
   55MOL0     C 7189   6.310   1.804   3.120  0.2576 -0.5498  0.1186
   55MOL0     C 7190   6.422   1.722   3.044  0.8067  0.0407 -0.4247
   55MOL0     C 7191   6.561   1.779   3.042  0.9824 -0.3277 -0.2167
   55MOL0     C 7192   6.670   1.816   3.050  0.9879  0.5849  0.4921
   55MOL0     C 7193   5.936   2.159   3.187 -0.4402  0.4452  0.0543
   55MOL0     C 7194   5.818   2.223   3.224  0.5124  1.4599 -0.5778
   55MOL0     H 7195   5.331   2.334   2.924 -0.7277  1.8079 -3.0086
   55MOL0     H 7196   5.104   2.435   2.926 -1.7686  0.6362 -0.2721
   55MOL0     H 7197   5.055   2.820   3.168 -0.1591  0.4692  2.2398
   55MOL0     H 7198   4.927   2.706   3.238 -1.2707 -0.7064 -0.4376
   55MOL0     H 7199   4.830   2.888   3.140  1.9656  0.6570 -0.3826
   55MOL0     H 7200   4.783   2.736   3.058 -1.3149  0.1792 -3.0377
   55MOL0     H 7201   4.956   2.800   2.877 -0.9714  0.1053 -0.4682
   55MOL0     H 7202   4.981   2.947   2.956 -2.1544  2.4744 -1.2613
   55MOL0     H 7203   4.726   2.856   2.826 -3.3035  3.3662 -1.3688
   55MOL0     H 7204   4.727   2.990   2.928 -0.6304  0.9112 -2.7707
   55MOL0     H 7205   4.918   2.931   2.679 -0.0232  0.9691 -2.0385
   55MOL0     H 7206   4.927   3.081   2.770  0.4213 -1.4846  3.5975
   55MOL0     H 7207   4.802   3.095   2.546 -1.3798 -0.3069  0.3402
   55MOL0     H 7208   4.722   3.163   2.691  0.5918 -0.0943  1.1996
   55MOL0     H 7209   4.688   2.883   2.568 -0.0485 -0.8692  2.0780
   55MOL0     H 7210   4.586   2.969   2.695  0.0225 -2.7387 -0.4841
   55MOL0     H 7211   4.611   3.044   2.403  1.2924 -0.8251  0.1343
   55MOL0     H 7212   4.513   3.132   2.524 -0.1650  0.2768 -0.5199
   55MOL0     H 7213   4.460   2.832   2.288 -1.1002 -0.3361 -0.4245
   55MOL0     H 7214   4.257   2.702   2.222 -0.7913  1.3439  0.2961
   55MOL0     H 7215   4.105   2.696   2.311 -0.9738  1.9501 -1.9530
   55MOL0     H 7216   4.345   2.513   2.382 -0.9034 -2.0060  1.6614
   55MOL0     H 7217   4.196   2.482   2.303 -0.4499  1.6950 -0.7753
   55MOL0     H 7218   4.220   2.436   2.561  0.7330 -0.4493 -0.7322
   55MOL0     H 7219   4.242   2.607   2.592  0.8624 -0.2286  0.9417
   55MOL0     H 7220   3.998   2.484   2.442 -2.6953  1.6631  1.3444
   55MOL0     H 7221   4.017   2.646   2.512 -1.9320  0.0088  0.1256
   55MOL0     H 7222   3.785   2.613   2.515  1.4366  0.1681  0.9159
   55MOL0     H 7223   3.574   2.649   2.594  1.3151  1.2750 -0.8649
   55MOL0     H 7224   3.203   2.419   2.926 -2.4295 -1.3505  2.0393
   55MOL0     H 7225   3.007   2.459   3.041  0.7431 -0.7680 -1.6146
   55MOL0     H 7226   3.043   2.538   3.388  0.4408  1.4969  0.3322
   55MOL0     H 7227   2.871   2.492   3.358  0.7444 -0.8342  0.3719
   55MOL0     H 7228   2.955   2.765   3.463 -1.5294  1.4072  1.1260
   55MOL0     H 7229   2.889   2.625   3.551  1.1856  2.2422  1.3485
   55MOL0     H 7230   2.685   2.633   3.394  0.0640  0.3328 -3.0202
   55MOL0     H 7231   2.751   2.769   3.318 -1.1053 -2.3993 -1.5688
   55MOL0     H 7232   2.692   2.754   3.611  1.6321 -0.3964  0.5906
   55MOL0     H 7233   2.731   2.913   3.520  1.0315  0.0418  0.5630
   55MOL0     H 7234   2.488   2.888   3.564 -0.0854 -2.6906  1.2209
   55MOL0     H 7235   2.487   2.744   3.473  0.4622  0.1411 -1.8094
   55MOL0     H 7236   2.562   2.878   3.269  0.5223  2.8785 -1.2078
   55MOL0     H 7237   2.575   3.022   3.365 -1.1062  0.7411 -1.8738
   55MOL0     H 7238   2.308   2.870   3.345  2.1314 -1.5214  1.9736
   55MOL0     H 7239   2.340   3.029   3.427 -0.1234  1.3702 -0.9561
   55MOL0     H 7240   2.224   3.026   3.193 -0.2526  0.9692  2.1334
   55MOL0     H 7241   2.387   2.984   3.129 -0.9443 -0.2460 -0.2178
   55MOL0     H 7242   3.181   2.793   3.248  1.7223  3.0201 -2.0327
   55MOL0     H 7243   3.388   2.757   3.128  1.0336 -1.1235  0.9388
   55MOL0     H 7244   3.686   2.491   2.977  0.6988  0.7935 -0.8441
   55MOL0     H 7245   3.893   2.431   2.890 -1.7551 -1.3533  1.0548
   55MOL0     H 7246   5.216   2.691   3.252 -1.2444 -2.4360  1.8497
   55MOL0     H 7247   5.452   2.597   3.242  1.2438  3.2105 -1.7882
   55MOL0     H 7248   5.680   2.245   2.913  0.7128 -0.5213  0.0166
   55MOL0     H 7249   5.905   2.151   2.855 -1.2319  0.8094 -0.4981
   55MOL0     H 7250   6.078   1.926   3.151 -0.3369  1.4917 -0.2211
   55MOL0     H 7251   6.213   2.053   3.175  1.5617 -1.1721  0.2068
   55MOL0     H 7252   6.222   1.864   2.938  0.5576 -1.3471 -0.3487
   55MOL0     H 7253   6.333   1.983   2.999 -0.6866  1.1706  1.0602
   55MOL0     H 7254   6.225   1.743   3.151 -1.3515  1.7360  0.4345
   55MOL0     H 7255   6.366   1.844   3.205  2.5819 -1.8993 -0.7100
   55MOL0     H 7256   6.437   1.628   3.097 -1.0632  0.2254  0.5209
   55MOL0     H 7257   6.381   1.684   2.950 -1.1643  3.2230 -1.0101
   55MOL0     H 7258   6.773   1.847   3.045  1.1949 -0.0889  0.3918
   55MOL0     H 7259   6.012   2.136   3.262  1.1014  0.8508 -1.3427
   55MOL0     H 7260   5.808   2.238   3.331 -1.5550  0.0514 -0.4985
   56MOL0     O 7261   7.187   7.226   8.056 -0.2367  0.3701 -0.4503
   56MOL0     C 7262   7.188   7.143   7.964  0.7587  0.2698 -0.2974
   56MOL0     O 7263   7.076   7.072   7.927 -0.1181  0.0488  0.5011
   56MOL0     C 7264   6.951   7.084   7.984 -0.7684 -0.3627 -0.3679
   56MOL0     C 7265   6.843   7.118   7.903 -0.7503 -0.6734 -0.3044
   56MOL0     C 7266   6.721   7.138   7.958  0.5268  0.7293  0.9719
   56MOL0     C 7267   6.701   7.129   8.096 -0.2784  0.3658  0.7052
   56MOL0     O 7268   6.577   7.171   8.131 -0.5607  0.6379  0.1305
   56MOL0     C 7269   6.523   7.103   8.250 -0.1453 -0.3009 -0.3131
   56MOL0     C 7270   6.379   7.115   8.259 -0.7523  0.6816  0.0098
   56MOL0     C 7271   6.328   7.260   8.264 -0.0851 -0.9762  0.5394
   56MOL0     C 7272   6.177   7.269   8.234 -0.2214  0.0889  0.4168
   56MOL0     C 7273   6.100   7.357   8.339  0.0337  0.0861 -0.0635
   56MOL0     C 7274   5.951   7.371   8.305 -0.2169  0.6622 -0.4501
   56MOL0     C 7275   5.879   7.439   8.421 -0.4035 -0.1466  0.1444
   56MOL0     C 7276   5.729   7.457   8.400  0.1342  0.0877 -0.2107
   56MOL0     N 7277   5.677   7.573   8.476 -0.6049 -0.0763  0.2447
   56MOL0     C 7278   5.659   7.590   8.606 -0.5936 -0.5851 -0.0900
   56MOL0     C 7279   5.597   7.705   8.617 -0.1175 -0.4560 -1.4823
   56MOL0     C 7280   5.578   7.777   8.753  0.4868  0.2251 -0.5504
   56MOL0     C 7281   5.467   7.713   8.842  0.4227 -0.1401 -0.0183
   56MOL0     C 7282   5.353   7.650   8.761  0.3329 -0.2068  1.0467
   56MOL0     C 7283   5.237   7.587   8.841 -0.4829  0.5232 -0.8036
   56MOL0     O 7284   5.106   7.609   8.787 -0.6620  0.0759 -0.2554
   56MOL0     C 7285   5.007   7.545   8.854 -0.3956  0.0004  0.2585
   56MOL0     C 7286   4.883   7.584   8.830  0.6138 -0.1513  0.1565
   56MOL0     C 7287   4.768   7.539   8.903 -0.2012 -0.6131 -0.6029
   56MOL0     C 7288   4.787   7.442   9.004 -0.3084  0.0005  0.5154
   56MOL0     C 7289   4.670   7.392   9.085  0.6074 -1.3147 -0.3169
   56MOL0     O 7290   4.542   7.424   9.058  0.7849 -0.4731  0.5549
   56MOL0     C 7291   4.437   7.390   9.140  0.2425  0.3448 -0.5127
   56MOL0     C 7292   4.317   7.363   9.077 -0.4383  0.1888 -0.0970
   56MOL0     C 7293   4.202   7.336   9.160 -0.5685 -0.1065  0.6348
   56MOL0     C 7294   4.213   7.329   9.300 -0.3312  0.0259  0.1913
   56MOL0     O 7295   4.099   7.310   9.368  0.0438  0.1444  0.4445
   56MOL0     C 7296   4.110   7.255   9.503  0.1737  0.2502 -0.9537
   56MOL0     C 7297   3.969   7.232   9.564 -0.1602  0.3307 -0.4413
   56MOL0     C 7298   3.965   7.126   9.675 -0.1287  0.3113  0.0200
   56MOL0     C 7299   3.864   7.126   9.788  0.2500  0.3048 -0.1435
   56MOL0     C 7300   3.716   7.161   9.731 -0.3733  0.0364  0.0300
   56MOL0     C 7301   3.601   7.142   9.828  0.3658  0.0817 -0.1744
   56MOL0     C 7302   3.576   7.258   9.927 -0.0199  0.0213  0.2251
   56MOL0     C 7303   3.426   7.267   9.960 -0.2158 -0.4879  0.1008
   56MOL0    Cl 7304   3.380   7.362  10.108 -0.3133 -0.2582 -0.2008
   56MOL0     C 7305   4.332   7.363   9.366  0.2310 -0.8078  0.4509
   56MOL0     C 7306   4.443   7.404   9.282 -0.0396 -0.4275 -0.5826
   56MOL0     O 7307   4.700   7.312   9.171 -0.0287 -0.3305  0.1199
   56MOL0     C 7308   4.919   7.392   9.024  0.9958 -1.0100 -0.6528
   56MOL0     C 7309   5.028   7.446   8.955  0.3317  0.3566  0.3461
   56MOL0     N 7310   5.586   7.763   8.494 -0.0024  0.0386 -0.1200
   56MOL0     N 7311   5.627   7.680   8.405  0.0838 -0.3631 -0.6436
   56MOL0     C 7312   6.808   7.093   8.175  0.4196 -0.3730 -0.7289
   56MOL0     C 7313   6.937   7.078   8.127 -0.0581  0.7441  1.0004
   56MOL0     C 7314   7.308   7.112   7.891 -0.3321  0.5226  0.0365
   56MOL0     C 7315   7.437   7.142   7.945 -0.0839  0.1814 -0.3172
   56MOL0     C 7316   7.554   7.109   7.874  0.1321 -0.4119  0.1136
   56MOL0     C 7317   7.547   7.051   7.749 -0.7688  0.9467  1.0988
   56MOL0     O 7318   7.670   7.031   7.698 -0.7214 -0.0731  0.0254
   56MOL0     C 7319   7.666   6.945   7.576 -1.0759 -0.2206  0.3909
   56MOL0     C 7320   7.812   6.896   7.560 -0.2285  1.3872 -0.8088
   56MOL0     C 7321   7.859   6.792   7.672  0.6057 -0.3745 -0.2712
   56MOL0     C 7322   7.990   6.726   7.631  0.0771  0.2656 -0.8089
   56MOL0     C 7323   8.106   6.792   7.698  0.1643 -0.2893  0.1155
   56MOL0     C 7324   8.200   6.855   7.747  0.1396  0.6152  0.2981
   56MOL0     C 7325   7.416   7.019   7.697  0.1178 -0.6192  0.2206
   56MOL0     C 7326   7.302   7.057   7.761  0.0214 -0.4449 -0.3170
   56MOL0     H 7327   6.855   7.137   7.797 -1.0745  3.9178  0.3040
   56MOL0     H 7328   6.638   7.171   7.897  0.0352 -1.9818  0.0291
   56MOL0     H 7329   6.575   7.147   8.336  1.6048  2.4749 -2.6283
   56MOL0     H 7330   6.555   6.999   8.234  2.3311  0.7927 -3.4353
   56MOL0     H 7331   6.333   7.055   8.338 -2.7552 -2.6932 -3.3953
   56MOL0     H 7332   6.341   7.069   8.167  1.0807  0.7807 -0.8256
   56MOL0     H 7333   6.395   7.317   8.199  1.3427 -0.2698  2.5520
   56MOL0     H 7334   6.346   7.299   8.364 -1.2984  0.3914  0.2576
   56MOL0     H 7335   6.171   7.322   8.139  0.7424  1.1677  0.9381
   56MOL0     H 7336   6.131   7.170   8.224 -0.6073  0.2479  0.5941
   56MOL0     H 7337   6.147   7.454   8.351 -1.7613  0.8895  0.8977
   56MOL0     H 7338   6.115   7.299   8.430  2.5095 -2.0799 -1.7050
   56MOL0     H 7339   5.906   7.272   8.291 -0.8088  0.8578  0.0730
   56MOL0     H 7340   5.925   7.440   8.225 -3.5955  1.4102  1.1292
   56MOL0     H 7341   5.886   7.379   8.513 -1.7269  0.2435  0.5257
   56MOL0     H 7342   5.920   7.540   8.434 -2.6223  0.5473  2.6909
   56MOL0     H 7343   5.683   7.366   8.438 -1.2299  0.7875 -0.1057
   56MOL0     H 7344   5.716   7.461   8.291  0.0335 -1.3953 -0.2667
   56MOL0     H 7345   5.694   7.534   8.693  0.5848  0.9196  0.4594
   56MOL0     H 7346   5.546   7.876   8.719 -0.0998 -0.6272 -2.6413
   56MOL0     H 7347   5.675   7.783   8.803 -1.4590 -2.6213  4.3589
   56MOL0     H 7348   5.430   7.778   8.922 -0.8992 -1.3085  0.3661
   56MOL0     H 7349   5.528   7.639   8.895 -0.5027 -0.0014  1.3028
   56MOL0     H 7350   5.307   7.722   8.692  0.7213 -1.2820 -0.3756
   56MOL0     H 7351   5.382   7.574   8.689 -2.2319 -0.2823 -0.0425
   56MOL0     H 7352   5.238   7.632   8.940 -0.4943  0.3846 -0.7398
   56MOL0     H 7353   5.257   7.481   8.862 -1.9019  0.5243  0.6628
   56MOL0     H 7354   4.866   7.656   8.751  1.8153  0.1425  0.1580
   56MOL0     H 7355   4.668   7.570   8.876 -0.3767 -0.7607 -0.1284
   56MOL0     H 7356   4.311   7.360   8.968 -3.3670  1.0480 -0.0383
   56MOL0     H 7357   4.112   7.313   9.104  0.0737 -0.5351 -0.2535
   56MOL0     H 7358   4.158   7.327   9.571 -0.6162 -0.3910  0.3064
   56MOL0     H 7359   4.166   7.162   9.507  3.5562  2.1306  3.2656
   56MOL0     H 7360   3.910   7.184   9.486 -1.9577  1.4899  0.1402
   56MOL0     H 7361   3.924   7.328   9.592 -1.3901  0.3833 -2.4270
   56MOL0     H 7362   4.063   7.118   9.722 -0.6314  2.6561  1.6688
   56MOL0     H 7363   3.928   7.043   9.615  2.0323 -2.7854  2.6370
   56MOL0     H 7364   3.874   7.032   9.843  1.5770  2.5108  3.8051
   56MOL0     H 7365   3.896   7.193   9.868  1.1337 -0.8278  0.4755
   56MOL0     H 7366   3.705   7.095   9.644 -1.2110  0.4005 -0.1495
   56MOL0     H 7367   3.721   7.261   9.688  0.6975 -0.5153 -1.2284
   56MOL0     H 7368   3.608   7.046   9.880 -1.3255 -0.7516 -1.3787
   56MOL0     H 7369   3.508   7.135   9.771  0.7384  3.6492 -1.4275
   56MOL0     H 7370   3.640   7.232  10.011 -1.6212 -0.9435  1.1992
   56MOL0     H 7371   3.615   7.351   9.883 -0.0370 -0.3827 -0.6833
   56MOL0     H 7372   3.389   7.164   9.973 -0.5691 -0.6131 -1.7068
   56MOL0     H 7373   3.369   7.305   9.875 -3.8637  2.0426  3.3159
   56MOL0     H 7374   4.344   7.370   9.473  0.2823  0.6278  0.3649
   56MOL0     H 7375   4.538   7.438   9.323 -1.1759  1.4253  0.6443
   56MOL0     H 7376   4.934   7.316   9.100 -0.7343  0.1077  0.9040
   56MOL0     H 7377   5.128   7.421   8.991  0.7620 -0.2437 -1.1554
   56MOL0     H 7378   6.790   7.100   8.282 -1.4346  0.2111 -1.0466
   56MOL0     H 7379   7.021   7.047   8.189  0.1556 -0.3305  0.2161
   56MOL0     H 7380   7.443   7.181   8.046 -0.1399  0.7459 -0.5312
   56MOL0     H 7381   7.652   7.130   7.915 -0.0163 -1.0497  0.8222
   56MOL0     H 7382   7.641   7.005   7.488  0.6441  1.0403  0.6888
   56MOL0     H 7383   7.599   6.861   7.595 -3.5258  1.7824  1.1864
   56MOL0     H 7384   7.817   6.847   7.462  5.2382 -0.2567 -0.0577
   56MOL0     H 7385   7.886   6.976   7.558  3.3090 -1.5865 -1.1678
   56MOL0     H 7386   7.784   6.712   7.681  1.1823 -1.1870 -2.1230
   56MOL0     H 7387   7.872   6.856   7.759 -1.2554  2.7275 -2.0469
   56MOL0     H 7388   7.982   6.626   7.675  3.1276  0.4660  0.4603
   56MOL0     H 7389   8.014   6.724   7.524  0.3837  1.1600 -0.7667
   56MOL0     H 7390   8.275   6.896   7.811  1.1783 -3.2795  1.8349
   56MOL0     H 7391   7.404   6.985   7.595 -2.3399 -0.0211  0.2459
   56MOL0     H 7392   7.211   7.039   7.706 -0.5990  0.2154  0.4655
   57MOL0     O 7393   7.824   8.400   8.810  0.3065  0.5093  0.2633
   57MOL0     C 7394   7.823   8.480   8.722  0.8568  0.1744  0.2357
   57MOL0     O 7395   7.728   8.574   8.697  0.0428 -0.0571  0.4818
   57MOL0     C 7396   7.634   8.590   8.792 -0.1737  0.0458 -0.0497
   57MOL0     C 7397   7.512   8.522   8.767  0.0232 -1.0877 -0.2490
   57MOL0     C 7398   7.400   8.538   8.851  0.9823  0.2088 -0.7523
   57MOL0     C 7399   7.416   8.617   8.965  0.3305  0.2931  0.0978
   57MOL0     O 7400   7.321   8.608   9.067  0.1844 -0.2046  0.0505
   57MOL0     C 7401   7.184   8.633   9.043  0.4536 -0.0859  0.4861
   57MOL0     C 7402   7.143   8.748   9.125  0.3539 -0.3364  0.4588
   57MOL0     C 7403   6.993   8.781   9.096  0.4894 -0.4847 -0.1004
   57MOL0     C 7404   6.930   8.876   9.199  0.1287 -0.6779 -0.1706
   57MOL0     C 7405   6.795   8.938   9.160 -0.0232 -0.3909 -0.8678
   57MOL0     C 7406   6.756   9.064   9.241  0.5017 -0.5406  0.5844
   57MOL0     C 7407   6.633   9.144   9.192  0.0924  1.4728  0.7179
   57MOL0     C 7408   6.597   9.268   9.275 -0.3924 -0.5270  0.5723
   57MOL0     N 7409   6.482   9.329   9.204 -0.3101  0.3781  0.5585
   57MOL0     C 7410   6.476   9.445   9.123  0.3662 -0.4314  0.3791
   57MOL0     C 7411   6.350   9.479   9.138  0.0932  0.3014 -0.1029
   57MOL0     C 7412   6.297   9.613   9.091  0.5689  0.2522 -0.0064
   57MOL0     C 7413   6.220   9.599   8.958 -0.6153  0.5384 -0.2946
   57MOL0     C 7414   6.211   9.727   8.877 -0.1853  0.8533  1.3573
   57MOL0     C 7415   6.073   9.783   8.844  1.2700 -0.5880 -1.3386
   57MOL0     O 7416   5.997   9.816   8.967 -0.0162  0.4130  0.5548
   57MOL0     C 7417   5.867   9.844   8.949  0.1551 -0.1807  0.8843
   57MOL0     C 7418   5.781   9.812   9.056 -0.0230  1.2667 -0.3535
   57MOL0     C 7419   5.642   9.809   9.036 -0.5507  0.4763 -1.1940
   57MOL0     C 7420   5.588   9.854   8.922  0.5660 -0.0530 -0.1455
   57MOL0     C 7421   5.443   9.868   8.911  1.1696 -0.2866  0.3215
   57MOL0     O 7422   5.366   9.889   9.022  0.4073 -0.0889  0.6316
   57MOL0     C 7423   5.232   9.889   9.031 -0.4920  0.4525 -0.0833
   57MOL0     C 7424   5.140   9.916   8.925  0.3834  0.5404  0.2033
   57MOL0     C 7425   5.001   9.898   8.935 -0.0991 -0.2542  0.0700
   57MOL0     C 7426   4.948   9.849   9.059 -0.2400  0.2330 -0.3470
   57MOL0     O 7427   4.814   9.827   9.079 -0.4158  0.1330 -0.0889
   57MOL0     C 7428   4.762   9.948   9.134  0.3603  0.4103 -0.7207
   57MOL0     C 7429   4.611   9.953   9.123 -0.6263  0.0664 -0.0737
   57MOL0     C 7430   4.539   9.857   9.216 -1.3965  0.5558  0.4552
   57MOL0     C 7431   4.386   9.860   9.208 -0.6772  0.1067  0.2836
   57MOL0     C 7432   4.324   9.758   9.296  0.2034  0.0810  0.2177
   57MOL0     C 7433   4.195   9.803   9.370  0.1795 -0.4281  0.2500
   57MOL0     C 7434   4.160   9.701   9.485 -0.9933 -0.5856  0.3820
   57MOL0     C 7435   4.059   9.764   9.587 -0.6015  0.0686 -0.1319
   57MOL0    Cl 7436   3.897   9.754   9.498  0.2695 -0.1276  0.2606
   57MOL0     C 7437   5.037   9.835   9.165 -0.9297 -1.2779 -1.0494
   57MOL0     C 7438   5.173   9.855   9.153 -0.1090  0.2461  0.0101
   57MOL0     O 7439   5.393   9.839   8.803  0.3079 -0.6422  0.5323
   57MOL0     C 7440   5.671   9.883   8.811  0.2322 -0.6698 -0.7086
   57MOL0     C 7441   5.815   9.880   8.822 -0.2474 -0.4733 -0.3976
   57MOL0     N 7442   6.277   9.385   9.206 -1.1265  0.6885  0.1384
   57MOL0     N 7443   6.361   9.297   9.255  0.0061 -0.4215 -0.0952
   57MOL0     C 7444   7.535   8.685   8.983  0.3646  0.5540 -0.0369
   57MOL0     C 7445   7.645   8.671   8.900  0.3426  0.0317 -0.4259
   57MOL0     C 7446   7.953   8.487   8.642  0.2023  0.0972  0.5382
   57MOL0     C 7447   8.071   8.428   8.683  0.1933 -0.1182 -1.0180
   57MOL0     C 7448   8.196   8.445   8.617  0.2111  0.0168 -0.0191
   57MOL0     C 7449   8.201   8.535   8.504  0.2170  0.8146  0.0456
   57MOL0     O 7450   8.328   8.566   8.460  0.4916  0.2291 -0.7341
   57MOL0     C 7451   8.349   8.629   8.328 -0.4852  0.2753 -0.5997
   57MOL0     C 7452   8.495   8.629   8.302 -0.3254  0.0579  0.1727
   57MOL0     C 7453   8.570   8.489   8.336  0.6726 -0.2033 -0.1154
   57MOL0     C 7454   8.716   8.499   8.307 -0.1388  0.1776  0.6200
   57MOL0     C 7455   8.785   8.593   8.390  0.2933  0.2782  0.2446
   57MOL0     C 7456   8.858   8.679   8.436  0.0896 -0.1115  0.5753
   57MOL0     C 7457   8.082   8.593   8.458 -1.0781  0.1305 -0.2555
   57MOL0     C 7458   7.962   8.569   8.526  1.0346 -0.0359  0.6128
   57MOL0     H 7459   7.506   8.464   8.675  1.0549 -0.2497 -0.8699
   57MOL0     H 7460   7.307   8.483   8.840 -0.7579  2.1100  2.8528
   57MOL0     H 7461   7.126   8.545   9.069 -0.0057  0.0154 -0.1640
   57MOL0     H 7462   7.150   8.650   8.940 -1.8785 -1.5029  0.9476
   57MOL0     H 7463   7.209   8.833   9.104 -0.2760 -0.1614 -0.9200
   57MOL0     H 7464   7.161   8.724   9.230  2.6283  1.1830  0.5004
   57MOL0     H 7465   6.936   8.688   9.088  0.0536 -0.1629 -0.8595
   57MOL0     H 7466   6.982   8.837   9.003  0.1683 -0.8678 -0.2955
   57MOL0     H 7467   6.913   8.822   9.293 -3.8579  1.9619  0.8418
   57MOL0     H 7468   7.004   8.955   9.213  1.3165 -1.7260 -0.2685
   57MOL0     H 7469   6.708   8.872   9.172 -0.9988  1.3229  3.0891
   57MOL0     H 7470   6.804   8.976   9.058  1.5099 -0.8193 -0.9109
   57MOL0     H 7471   6.833   9.140   9.233  0.1924 -0.2561  0.2721
   57MOL0     H 7472   6.733   9.022   9.340  2.2085 -1.6082  0.5652
   57MOL0     H 7473   6.646   9.168   9.086  0.0163 -2.8052 -0.4691
   57MOL0     H 7474   6.545   9.079   9.203  1.6384 -1.6557 -3.0010
   57MOL0     H 7475   6.680   9.339   9.273 -1.5315  0.8708 -1.5731
   57MOL0     H 7476   6.579   9.236   9.378  0.7156  0.2470  1.0287
   57MOL0     H 7477   6.559   9.494   9.073  2.5061 -3.8682  0.1916
   57MOL0     H 7478   6.385   9.674   9.069  1.0451  0.3774  2.0350
   57MOL0     H 7479   6.236   9.672   9.160  1.7975 -0.8530  2.1436
   57MOL0     H 7480   6.120   9.556   8.971  0.1858 -1.8873 -1.4416
   57MOL0     H 7481   6.270   9.530   8.890 -4.3299  0.5719 -3.4291
   57MOL0     H 7482   6.243   9.816   8.933  0.8963  2.0134 -0.9673
   57MOL0     H 7483   6.272   9.725   8.786 -1.2362 -0.9197  0.6536
   57MOL0     H 7484   6.030   9.698   8.790 -0.3571  0.0968 -1.1699
   57MOL0     H 7485   6.081   9.868   8.776  0.6009 -1.5450 -2.6656
   57MOL0     H 7486   5.818   9.780   9.152 -1.9782 -0.4473 -0.1166
   57MOL0     H 7487   5.574   9.782   9.117 -0.6363  0.6303 -1.2155
   57MOL0     H 7488   5.177   9.946   8.827  0.0134  0.3589  0.0055
   57MOL0     H 7489   4.942   9.925   8.848  3.9618  0.7785 -2.6455
   57MOL0     H 7490   4.812  10.037   9.094 -0.0489  1.4241  0.9587
   57MOL0     H 7491   4.786   9.949   9.240  1.1402  2.7052 -0.8638
   57MOL0     H 7492   4.575   9.929   9.023 -0.6214 -2.0926  0.3873
   57MOL0     H 7493   4.584  10.057   9.145 -1.2517 -0.1807  0.3563
   57MOL0     H 7494   4.568   9.877   9.320  1.9496 -0.5462 -0.1547
   57MOL0     H 7495   4.572   9.756   9.192  1.8110  1.5019  0.4635
   57MOL0     H 7496   4.358   9.959   9.243 -0.6290 -0.6688  2.6756
   57MOL0     H 7497   4.356   9.849   9.103 -0.8463  0.3618  0.3052
   57MOL0     H 7498   4.402   9.736   9.369  1.3839 -2.2435 -1.6035
   57MOL0     H 7499   4.318   9.658   9.252  0.9438 -1.4228  3.2610
   57MOL0     H 7500   4.111   9.812   9.301  1.1190 -2.8595 -1.3557
   57MOL0     H 7501   4.193   9.907   9.404  0.1754  0.0608 -1.2151
   57MOL0     H 7502   4.132   9.603   9.445 -0.1096 -0.8295  0.3192
   57MOL0     H 7503   4.258   9.696   9.534 -0.5381 -1.8286 -0.5976
   57MOL0     H 7504   4.089   9.866   9.612 -3.4556  0.1293  3.8969
   57MOL0     H 7505   4.062   9.702   9.677  1.6428  0.4113  0.0813
   57MOL0     H 7506   5.003   9.797   9.261 -1.4052 -0.6828 -0.9783
   57MOL0     H 7507   5.250   9.830   9.225  2.0748  2.3202 -1.4769
   57MOL0     H 7508   5.625   9.920   8.721 -0.6757  0.9202  0.3615
   57MOL0     H 7509   5.873   9.916   8.739 -0.1314  2.0505  0.6966
   57MOL0     H 7510   7.550   8.754   9.066  0.5253  1.5503 -0.8718
   57MOL0     H 7511   7.737   8.725   8.919  0.9100 -0.7783 -0.8407
   57MOL0     H 7512   8.070   8.356   8.764 -0.2909  0.5844 -0.3830
   57MOL0     H 7513   8.287   8.391   8.639  2.1118  1.8697 -2.7256
   57MOL0     H 7514   8.309   8.730   8.319 -0.8247  0.0131 -2.6609
   57MOL0     H 7515   8.307   8.568   8.247 -0.1191  1.7731 -1.9759
   57MOL0     H 7516   8.506   8.640   8.194  0.0945  1.1301  0.3133
   57MOL0     H 7517   8.546   8.718   8.341  0.8606  0.9892 -3.1797
   57MOL0     H 7518   8.534   8.411   8.269 -0.5904 -0.0299  0.3235
   57MOL0     H 7519   8.550   8.469   8.442 -2.1368 -0.3385 -0.5776
   57MOL0     H 7520   8.771   8.404   8.313  2.8269  1.7233 -0.4182
   57MOL0     H 7521   8.723   8.528   8.202 -3.6662 -2.0619 -0.4184
   57MOL0     H 7522   8.921   8.755   8.478 -0.6941  2.0659 -1.9031
   57MOL0     H 7523   8.076   8.661   8.373 -0.2172  0.6356  0.0813
   57MOL0     H 7524   7.881   8.627   8.484  1.6391  0.7055  0.4461
   58MOL0     O 7525   7.711   1.105   4.806 -0.4798 -0.6908  0.1574
   58MOL0     C 7526   7.731   1.002   4.741  0.3286 -0.5029 -0.3223
   58MOL0     O 7527   7.835   0.978   4.656 -0.4721 -0.0804  0.1379
   58MOL0     C 7528   7.947   1.063   4.660 -0.1392  0.8285  0.5150
   58MOL0     C 7529   8.074   1.019   4.690  0.4121  0.0029  0.2623
   58MOL0     C 7530   8.179   1.114   4.702  0.1497  0.8835  0.2173
   58MOL0     C 7531   8.165   1.251   4.680  0.4073  0.1297 -0.2214
   58MOL0     O 7532   8.272   1.332   4.679  0.4226 -0.2258  0.6064
   58MOL0     C 7533   8.250   1.476   4.670  0.0882 -0.1017 -0.4431
   58MOL0     C 7534   8.377   1.554   4.698  0.7704  0.4814  0.4537
   58MOL0     C 7535   8.344   1.694   4.760 -1.4222 -0.5783 -0.7795
   58MOL0     C 7536   8.469   1.780   4.776 -0.3829 -0.4064 -0.0705
   58MOL0     C 7537   8.444   1.924   4.827  0.4232 -0.0996 -0.6912
   58MOL0     C 7538   8.340   1.934   4.942  0.4432  0.3621 -0.3684
   58MOL0     C 7539   8.338   2.063   5.031 -0.0249 -0.1403  0.0027
   58MOL0     C 7540   8.232   2.054   5.145 -0.3716  0.7585 -0.5558
   58MOL0     N 7541   8.115   2.138   5.113 -0.2535  0.3584 -0.4858
   58MOL0     C 7542   7.994   2.100   5.159  0.6092 -0.2188 -0.6625
   58MOL0     C 7543   7.910   2.202   5.131  0.0544 -0.1315 -0.6960
   58MOL0     C 7544   7.761   2.218   5.173 -0.0596  0.5172  0.7025
   58MOL0     C 7545   7.668   2.243   5.044 -0.0829 -0.2466 -0.5333
   58MOL0     C 7546   7.532   2.291   5.089 -0.0245  0.4766  0.1701
   58MOL0     C 7547   7.439   2.296   4.967  0.6342  0.3831  0.8467
   58MOL0     O 7548   7.319   2.374   4.990 -0.0660  0.4548  0.2449
   58MOL0     C 7549   7.213   2.366   4.905 -0.4171 -0.2025  0.3853
   58MOL0     C 7550   7.106   2.450   4.939  0.3037  0.6281 -0.4243
   58MOL0     C 7551   6.979   2.444   4.871 -0.4170  0.1112 -0.1619
   58MOL0     C 7552   6.968   2.357   4.759  0.0386 -0.2040  0.2053
   58MOL0     C 7553   6.846   2.349   4.674 -0.4431 -0.0299 -0.4707
   58MOL0     O 7554   6.845   2.293   4.548 -0.1082  0.1336  0.3346
   58MOL0     C 7555   6.717   2.285   4.489 -0.0869  0.8840 -0.1286
   58MOL0     C 7556   6.708   2.292   4.353 -0.0835 -0.0469 -0.5923
   58MOL0     C 7557   6.592   2.266   4.284 -0.2372 -0.3674 -0.2297
   58MOL0     C 7558   6.481   2.220   4.347 -0.0523 -0.3463 -0.5392
   58MOL0     O 7559   6.373   2.186   4.261  0.1165  0.2298 -0.0786
   58MOL0     C 7560   6.243   2.164   4.319  0.0531 -0.4690  0.6019
   58MOL0     C 7561   6.149   2.124   4.205 -0.3217  0.4173  0.2226
   58MOL0     C 7562   6.002   2.101   4.233  0.0440 -0.0462 -0.2040
   58MOL0     C 7563   5.918   2.073   4.102  0.2955  0.2824  0.7246
   58MOL0     C 7564   5.798   1.989   4.113 -0.1125 -0.2929  0.0523
   58MOL0     C 7565   5.725   2.021   4.233  0.6658  0.0711 -0.0502
   58MOL0     C 7566   5.671   2.169   4.241 -0.9867  0.4971  0.0066
   58MOL0     C 7567   5.595   2.174   4.377  0.8875 -0.0129  0.5138
   58MOL0    Cl 7568   5.711   2.149   4.508  0.2270 -0.1193 -0.0130
   58MOL0     C 7569   6.482   2.207   4.490 -0.2238 -0.1344  0.4127
   58MOL0     C 7570   6.602   2.237   4.566  0.2432  0.6259  0.3195
   58MOL0     O 7571   6.750   2.398   4.732  0.0370 -0.2187 -0.2287
   58MOL0     C 7572   7.081   2.275   4.719  0.6493 -0.3193  0.6297
   58MOL0     C 7573   7.203   2.295   4.785 -1.1402 -0.4350 -0.0572
   58MOL0     N 7574   7.983   2.303   5.071  0.7375 -0.3141 -1.0027
   58MOL0     N 7575   8.106   2.264   5.073  0.2326 -0.5439  0.5186
   58MOL0     C 7576   8.033   1.293   4.652  0.1844  0.1233 -0.2968
   58MOL0     C 7577   7.928   1.201   4.636  0.0766  0.0183  0.4544
   58MOL0     C 7578   7.620   0.904   4.751 -0.2193  0.5541  0.4189
   58MOL0     C 7579   7.608   0.824   4.638  0.2618  1.0096 -0.5385
   58MOL0     C 7580   7.502   0.739   4.637 -0.2905  0.9685 -0.6486
   58MOL0     C 7581   7.416   0.719   4.746  0.0061 -0.6771 -0.6845
   58MOL0     O 7582   7.323   0.619   4.749 -0.0800  0.0141  0.2761
   58MOL0     C 7583   7.209   0.650   4.660  0.4477  0.4163 -0.7983
   58MOL0     C 7584   7.134   0.531   4.629  0.3807 -0.2206  0.3374
   58MOL0     C 7585   7.064   0.461   4.744  0.2692 -0.1716  0.9818
   58MOL0     C 7586   7.008   0.324   4.713 -0.5019 -0.5236 -0.0667
   58MOL0     C 7587   7.113   0.223   4.688 -0.6275 -0.4772  0.3035
   58MOL0     C 7588   7.202   0.142   4.672 -0.0350  0.0391  0.3377
   58MOL0     C 7589   7.430   0.791   4.862 -0.4937  0.0545 -0.2954
   58MOL0     C 7590   7.531   0.892   4.864 -0.2086 -0.4223  0.0342
   58MOL0     H 7591   8.094   0.915   4.714 -0.9924 -0.3912 -0.1635
   58MOL0     H 7592   8.280   1.081   4.725 -0.3585 -1.4697 -0.5744
   58MOL0     H 7593   8.161   1.501   4.729 -0.6492  1.0494 -1.9443
   58MOL0     H 7594   8.230   1.503   4.565 -0.6307  3.2593  0.4382
   58MOL0     H 7595   8.417   1.570   4.598 -1.8703  0.0529 -0.7854
   58MOL0     H 7596   8.440   1.496   4.766  1.3350  0.1553 -0.3435
   58MOL0     H 7597   8.299   1.668   4.857 -2.1656  0.8600 -0.7072
   58MOL0     H 7598   8.268   1.748   4.702 -2.4207  0.2522  1.1843
   58MOL0     H 7599   8.540   1.734   4.845  2.3099  0.2606 -2.2406
   58MOL0     H 7600   8.520   1.784   4.680 -1.6491  1.6947 -0.7322
   58MOL0     H 7601   8.406   1.990   4.749 -2.1850 -0.4415  0.1944
   58MOL0     H 7602   8.544   1.961   4.853  0.0064  1.3441 -1.0650
   58MOL0     H 7603   8.351   1.841   4.998 -1.2166 -0.0764 -0.7248
   58MOL0     H 7604   8.240   1.931   4.897 -0.3015  1.3685  1.1394
   58MOL0     H 7605   8.437   2.062   5.077  0.0055 -0.1988 -0.0639
   58MOL0     H 7606   8.326   2.154   4.971 -0.3441 -1.4976 -2.0898
   58MOL0     H 7607   8.274   2.090   5.239 -2.6858 -2.0277  1.7619
   58MOL0     H 7608   8.192   1.953   5.158 -0.6510  0.9191 -0.1469
   58MOL0     H 7609   7.967   2.006   5.206  1.7010  0.2340  0.9799
   58MOL0     H 7610   7.749   2.309   5.232  1.3553  0.1839  1.5625
   58MOL0     H 7611   7.719   2.140   5.237 -2.8286  2.3882  1.3135
   58MOL0     H 7612   7.663   2.152   4.983 -0.3323  1.3809 -3.0887
   58MOL0     H 7613   7.725   2.309   4.978  1.2685 -0.4031  0.4267
   58MOL0     H 7614   7.503   2.226   5.172  0.2497  2.7248  2.1573
   58MOL0     H 7615   7.526   2.393   5.129 -1.2655  1.2748 -1.9106
   58MOL0     H 7616   7.408   2.193   4.944 -1.1061  0.0214  4.2005
   58MOL0     H 7617   7.497   2.341   4.885  0.4814  2.6485  1.9305
   58MOL0     H 7618   7.124   2.514   5.026  0.3181  0.4591 -0.3021
   58MOL0     H 7619   6.889   2.495   4.904 -1.5806 -1.3880 -0.8949
   58MOL0     H 7620   6.800   2.307   4.297  1.6518 -0.3482  1.9925
   58MOL0     H 7621   6.582   2.284   4.178 -0.7792 -3.5759 -0.8092
   58MOL0     H 7622   6.199   2.256   4.359 -0.9600 -1.7314  2.5528
   58MOL0     H 7623   6.246   2.093   4.402  2.8438 -2.4724 -1.0475
   58MOL0     H 7624   6.189   2.049   4.137 -1.6202  1.3280 -1.6251
   58MOL0     H 7625   6.142   2.216   4.147  0.1706  1.0179  1.0846
   58MOL0     H 7626   5.968   2.190   4.286 -0.0731  0.3703 -0.9566
   58MOL0     H 7627   5.994   2.023   4.309  2.3702  1.3382  1.5911
   58MOL0     H 7628   5.886   2.169   4.061  0.7055  0.5769  1.0839
   58MOL0     H 7629   5.968   2.014   4.025  0.8355 -0.1597  1.3966
   58MOL0     H 7630   5.819   1.884   4.134  0.6318  0.0338  1.0596
   58MOL0     H 7631   5.736   2.006   4.025 -0.7473  1.4102  0.7694
   58MOL0     H 7632   5.784   1.993   4.320 -1.4373 -0.7017  1.2176
   58MOL0     H 7633   5.645   1.946   4.232  0.5704  0.1325  1.2327
   58MOL0     H 7634   5.757   2.235   4.229  0.1813 -1.4094 -3.6509
   58MOL0     H 7635   5.602   2.197   4.161 -1.3785  3.7125  1.3261
   58MOL0     H 7636   5.509   2.108   4.389  2.1933 -1.7545  0.5944
   58MOL0     H 7637   5.556   2.276   4.389  0.3615 -0.1863  0.2943
   58MOL0     H 7638   6.397   2.168   4.544 -0.1177 -1.4313 -0.2982
   58MOL0     H 7639   6.596   2.213   4.672 -3.1815  2.6767  0.7269
   58MOL0     H 7640   7.070   2.209   4.634 -0.0210  1.5703 -0.8293
   58MOL0     H 7641   7.289   2.243   4.745 -0.9533  0.0191 -0.2444
   58MOL0     H 7642   8.021   1.401   4.646 -1.2202 -0.0047 -0.0934
   58MOL0     H 7643   7.830   1.237   4.608  1.8938  3.2329 -2.6769
   58MOL0     H 7644   7.661   0.835   4.544 -1.7136  2.5190 -1.5651
   58MOL0     H 7645   7.471   0.681   4.551 -1.4532  0.5413  0.0342
   58MOL0     H 7646   7.244   0.707   4.573  1.4013  2.6065  0.9429
   58MOL0     H 7647   7.141   0.720   4.710 -1.0125  0.6312 -2.9316
   58MOL0     H 7648   7.056   0.563   4.559 -1.7078 -2.6589  1.3766
   58MOL0     H 7649   7.201   0.462   4.578  1.4574  1.4178 -0.5424
   58MOL0     H 7650   6.973   0.516   4.772  0.8404  1.3690 -0.0486
   58MOL0     H 7651   7.119   0.442   4.836  0.5563 -0.0402  0.8384
   58MOL0     H 7652   6.938   0.285   4.788  2.5141 -1.0658  2.7144
   58MOL0     H 7653   6.953   0.332   4.619 -0.7629  1.0245  0.1940
   58MOL0     H 7654   7.271   0.064   4.646  0.1469  0.0736  0.7085
   58MOL0     H 7655   7.361   0.780   4.946 -2.9688  3.2863 -1.6610
   58MOL0     H 7656   7.548   0.974   4.933  0.2981 -0.1601 -0.3960
   59MOL0     O 7657  10.110   0.590   0.408 -0.0868 -0.0436  0.0408
   59MOL0     C 7658  10.133   0.477   0.442  0.6554  0.3213  0.1557
   59MOL0     O 7659  10.033   0.400   0.508 -0.3598 -0.1499  0.3652
   59MOL0     C 7660   9.913   0.443   0.548  0.5727 -0.3450  0.0208
   59MOL0     C 7661   9.812   0.343   0.562 -0.3713 -0.4316  0.4691
   59MOL0     C 7662   9.691   0.384   0.621  0.4246  0.9261  0.5223
   59MOL0     C 7663   9.660   0.514   0.661  0.3447 -0.0551  0.0887
   59MOL0     O 7664   9.541   0.558   0.713 -0.3316 -0.2211  0.2447
   59MOL0     C 7665   9.473   0.459   0.792  0.8856  0.7445  0.6633
   59MOL0     C 7666   9.382   0.532   0.897 -0.1196  0.2916 -0.1856
   59MOL0     C 7667   9.463   0.630   0.992  0.3531  0.4574  0.1795
   59MOL0     C 7668   9.554   0.569   1.100 -0.1296 -0.9139 -0.2117
   59MOL0     C 7669   9.640   0.690   1.155  0.2861 -0.1794 -0.9156
   59MOL0     C 7670   9.750   0.631   1.248  0.2682 -0.3745  0.5390
   59MOL0     C 7671   9.703   0.582   1.383  1.1294  0.4309  0.2238
   59MOL0     C 7672   9.821   0.567   1.476 -0.0589  0.3141  0.1438
   59MOL0     N 7673   9.923   0.466   1.438  0.9672 -0.0495 -0.0016
   59MOL0     C 7674  10.053   0.465   1.482  0.2784 -0.4636 -0.3506
   59MOL0     C 7675  10.120   0.374   1.407 -0.2199  0.5732 -0.1801
   59MOL0     C 7676  10.259   0.323   1.439 -1.0023  0.0433 -0.3051
   59MOL0     C 7677  10.313   0.207   1.353  1.0904  0.5074 -0.0866
   59MOL0     C 7678  10.386   0.267   1.231  0.1420 -0.1894  0.5781
   59MOL0     C 7679  10.445   0.147   1.160  1.0089 -0.0228  0.7717
   59MOL0     O 7680  10.540   0.189   1.061  0.2524 -0.0711 -0.1367
   59MOL0     C 7681  10.668   0.218   1.103 -0.0608  0.3156  0.5837
   59MOL0     C 7682  10.759   0.283   1.016 -0.5002 -0.3836  0.0042
   59MOL0     C 7683  10.893   0.311   1.065  0.0479 -0.7776  0.2673
   59MOL0     C 7684  10.931   0.279   1.197  0.3667 -0.6732  1.0513
   59MOL0     C 7685  11.061   0.317   1.237  0.1772  0.0046  0.2857
   59MOL0     O 7686  11.084   0.303   1.363  0.5981 -0.3003  0.3880
   59MOL0     C 7687  11.215   0.314   1.410 -0.2947  0.8084 -0.6036
   59MOL0     C 7688  11.298   0.220   1.360 -0.1198  0.4406  0.1216
   59MOL0     C 7689  11.432   0.219   1.388 -0.1306 -0.2998  0.2586
   59MOL0     C 7690  11.492   0.319   1.461  0.7468 -0.0102  0.3778
   59MOL0     O 7691  11.628   0.308   1.485 -0.4493 -0.1347  1.1845
   59MOL0     C 7692  11.694   0.420   1.539 -0.6357 -0.3007  0.1749
   59MOL0     C 7693  11.840   0.395   1.526  0.6278  0.4857  0.4087
   59MOL0     C 7694  11.908   0.516   1.547  0.1310  0.5195 -0.5894
   59MOL0     C 7695  12.060   0.500   1.554  0.4225 -0.2189 -0.2667
   59MOL0     C 7696  12.120   0.632   1.499  0.2054  0.1344 -0.1363
   59MOL0     C 7697  12.091   0.747   1.591  0.0820  0.1278 -0.1932
   59MOL0     C 7698  12.159   0.879   1.540 -0.5859  0.0436  0.1614
   59MOL0     C 7699  12.126   1.007   1.608  0.1357  0.0080 -0.2666
   59MOL0    Cl 7700  12.151   1.006   1.782  0.2819 -0.1332 -0.2167
   59MOL0     C 7701  11.404   0.410   1.531  0.3784  0.3225 -0.5509
   59MOL0     C 7702  11.264   0.413   1.491  0.4774 -0.3537 -0.4484
   59MOL0     O 7703  11.143   0.348   1.149  0.0031 -1.0947 -0.1203
   59MOL0     C 7704  10.834   0.226   1.278  0.7558  0.6503 -0.6729
   59MOL0     C 7705  10.706   0.200   1.232 -0.6431  0.6144 -0.1476
   59MOL0     N 7706  10.031   0.314   1.323 -0.5639  0.1149 -0.0154
   59MOL0     N 7707   9.917   0.372   1.338 -0.4080 -0.2805 -0.5816
   59MOL0     C 7708   9.759   0.608   0.646 -0.0305 -0.8296  0.2990
   59MOL0     C 7709   9.887   0.579   0.593 -0.4636 -0.3484  0.3128
   59MOL0     C 7710  10.265   0.406   0.406  0.0220 -0.6174  0.4690
   59MOL0     C 7711  10.371   0.465   0.340  0.7809 -0.6750  0.1136
   59MOL0     C 7712  10.485   0.394   0.306  0.1618 -0.1941  0.3494
   59MOL0     C 7713  10.503   0.261   0.349  0.3594  1.0236  0.9465
   59MOL0     O 7714  10.625   0.193   0.349  0.4420 -0.0585 -0.4260
   59MOL0     C 7715  10.734   0.262   0.286  0.6219 -0.8457 -0.5320
   59MOL0     C 7716  10.853   0.191   0.330 -0.0131  0.1532 -0.2818
   59MOL0     C 7717  10.909   0.247   0.465  0.2701  0.1660  0.0908
   59MOL0     C 7718  11.001   0.147   0.537  0.1071  0.1361 -0.5125
   59MOL0     C 7719  11.093   0.214   0.634  1.3022  0.5210  0.0779
   59MOL0     C 7720  11.165   0.262   0.712  0.3053 -0.0181 -0.3437
   59MOL0     C 7721  10.389   0.198   0.403  0.1683  0.0171  0.0971
   59MOL0     C 7722  10.272   0.269   0.432 -0.2403 -0.5620 -0.3488
   59MOL0     H 7723   9.827   0.237   0.541  2.3439 -0.4456  1.9766
   59MOL0     H 7724   9.623   0.299   0.616  0.1921  1.1492 -0.3741
   59MOL0     H 7725   9.538   0.391   0.848  0.8731 -0.0902 -0.3093
   59MOL0     H 7726   9.405   0.402   0.728 -0.0815  2.0541  0.4821
   59MOL0     H 7727   9.330   0.460   0.959 -1.4901  1.4254  0.0328
   59MOL0     H 7728   9.323   0.600   0.836 -0.8715 -0.0578  0.1423
   59MOL0     H 7729   9.401   0.702   1.045  1.3371  2.3735 -1.1454
   59MOL0     H 7730   9.523   0.693   0.925  0.6362 -0.9665 -0.9607
   59MOL0     H 7731   9.496   0.521   1.179  0.6873 -1.0913  0.2934
   59MOL0     H 7732   9.622   0.499   1.051  2.0140  1.6411 -1.1072
   59MOL0     H 7733   9.572   0.758   1.207  0.7844  0.3512 -0.9387
   59MOL0     H 7734   9.674   0.752   1.072 -0.5468  0.4195 -0.8211
   59MOL0     H 7735   9.818   0.713   1.272 -1.0274  1.2869 -1.1468
   59MOL0     H 7736   9.810   0.564   1.185  0.9115  2.3012 -1.9096
   59MOL0     H 7737   9.623   0.643   1.427  1.3844 -0.9330  2.7711
   59MOL0     H 7738   9.672   0.479   1.365  0.0535  1.0215 -1.5194
   59MOL0     H 7739   9.786   0.530   1.573 -2.6428  0.0091 -0.8216
   59MOL0     H 7740   9.865   0.666   1.493  0.7734 -0.0906  0.3586
   59MOL0     H 7741  10.085   0.522   1.569 -1.5634 -1.3402  0.9629
   59MOL0     H 7742  10.251   0.299   1.545  0.0135 -0.3290 -0.3054
   59MOL0     H 7743  10.328   0.406   1.423 -1.4921  0.4453 -0.3557
   59MOL0     H 7744  10.228   0.141   1.335  0.6880  1.1319 -0.5217
   59MOL0     H 7745  10.390   0.157   1.412 -0.6033 -0.5664  1.3073
   59MOL0     H 7746  10.332   0.326   1.157 -0.1596  0.5272  1.3502
   59MOL0     H 7747  10.465   0.329   1.275  0.2700  0.4830 -0.5618
   59MOL0     H 7748  10.362   0.092   1.116 -0.7429  2.6894  0.5074
   59MOL0     H 7749  10.493   0.069   1.221  1.5323  1.0551  1.7751
   59MOL0     H 7750  10.725   0.318   0.919  0.0118 -0.1277 -0.0865
   59MOL0     H 7751  10.956   0.358   0.990 -1.1800 -0.3904 -0.5470
   59MOL0     H 7752  11.264   0.139   1.296  0.7211 -1.7938  2.3107
   59MOL0     H 7753  11.495   0.148   1.334  1.0491  0.6229  0.3812
   59MOL0     H 7754  11.672   0.438   1.645 -0.2142  2.4564 -0.1329
   59MOL0     H 7755  11.665   0.505   1.476  0.9237 -0.3094 -0.5859
   59MOL0     H 7756  11.857   0.346   1.430 -1.0596  0.3116  0.1691
   59MOL0     H 7757  11.875   0.320   1.598  1.7671 -1.9174 -2.4268
   59MOL0     H 7758  11.860   0.557   1.636 -0.6448  0.5209 -1.0015
   59MOL0     H 7759  11.880   0.580   1.463 -1.9449 -1.2339 -1.3195
   59MOL0     H 7760  12.093   0.477   1.655 -1.1285 -3.7211 -0.4247
   59MOL0     H 7761  12.094   0.419   1.488 -3.2518 -2.1613 -0.0188
   59MOL0     H 7762  12.077   0.656   1.401  2.2881 -0.5921 -1.3056
   59MOL0     H 7763  12.228   0.616   1.488  0.2344  0.6381 -0.6851
   59MOL0     H 7764  12.127   0.723   1.691 -1.3416 -0.8190  0.1198
   59MOL0     H 7765  11.981   0.753   1.596 -0.0541 -2.2915  3.2774
   59MOL0     H 7766  12.263   0.866   1.572 -0.6250 -0.1470  0.2149
   59MOL0     H 7767  12.159   0.892   1.431 -0.3467 -0.3383  0.1131
   59MOL0     H 7768  12.024   1.041   1.589  0.2160  1.4913  1.6888
   59MOL0     H 7769  12.181   1.092   1.568 -0.6868  1.0907  0.8147
   59MOL0     H 7770  11.449   0.491   1.588  0.7308  1.4029 -2.2673
   59MOL0     H 7771  11.203   0.498   1.521  2.0490  1.5188 -2.2674
   59MOL0     H 7772  10.855   0.208   1.383 -0.7173 -0.2193 -0.5021
   59MOL0     H 7773  10.641   0.166   1.312 -1.3411  3.2027  0.4735
   59MOL0     H 7774   9.730   0.707   0.681 -0.2270 -0.1384 -1.6804
   59MOL0     H 7775   9.976   0.640   0.598 -1.2858  0.9337 -0.3866
   59MOL0     H 7776  10.355   0.571   0.324  0.1459 -1.0719 -2.2633
   59MOL0     H 7777  10.558   0.454   0.251  0.5258 -1.0730 -0.1401
   59MOL0     H 7778  10.744   0.364   0.324 -0.1280 -0.9786  0.0464
   59MOL0     H 7779  10.710   0.267   0.179 -3.7528 -0.6083  0.2495
   59MOL0     H 7780  10.839   0.083   0.347 -0.0475  0.2056  0.0213
   59MOL0     H 7781  10.937   0.200   0.260  0.3307 -1.3988 -0.1203
   59MOL0     H 7782  10.820   0.265   0.525  0.6475  2.1162  0.1601
   59MOL0     H 7783  10.967   0.339   0.450 -0.9831  0.8109 -1.0271
   59MOL0     H 7784  10.947   0.072   0.596  2.1459 -2.0551 -1.2927
   59MOL0     H 7785  11.057   0.092   0.460  2.0131 -1.4914  1.9144
   59MOL0     H 7786  11.245   0.309   0.764 -1.7797  1.6058  1.6108
   59MOL0     H 7787  10.406   0.093   0.425 -0.0016 -0.9151 -3.6226
   59MOL0     H 7788  10.186   0.230   0.485  0.4150 -1.3032  0.2066
   60MOL0     O 7789   2.060   9.148   5.763 -0.0211 -0.2571 -0.4145
   60MOL0     C 7790   2.001   9.187   5.666  0.0737  0.0615  0.2109
   60MOL0     O 7791   1.866   9.200   5.654  0.2212 -0.4234 -0.1248
   60MOL0     C 7792   1.789   9.202   5.766 -0.0459  0.5990 -0.5107
   60MOL0     C 7793   1.658   9.156   5.749  0.0158  0.0348 -0.4244
   60MOL0     C 7794   1.565   9.146   5.853  0.2946 -0.1525  0.0712
   60MOL0     C 7795   1.605   9.176   5.984 -0.3910 -0.1258  0.2072
   60MOL0     O 7796   1.517   9.149   6.093 -0.0846 -0.5080 -0.1974
   60MOL0     C 7797   1.511   9.241   6.202 -0.0729 -0.1149 -0.3090
   60MOL0     C 7798   1.417   9.178   6.308 -0.7273 -0.5223  0.1509
   60MOL0     C 7799   1.277   9.156   6.252  0.3424 -0.1748  0.2453
   60MOL0     C 7800   1.178   9.139   6.366  0.0984 -0.3507  0.4748
   60MOL0     C 7801   1.032   9.113   6.316 -0.2842 -0.1507  0.7860
   60MOL0     C 7802   0.935   9.105   6.428  0.5651 -0.4953  0.7085
   60MOL0     C 7803   0.915   9.224   6.519  0.4368 -0.1815 -1.0140
   60MOL0     C 7804   0.801   9.206   6.613 -0.0777  0.8669  0.2352
   60MOL0     N 7805   0.810   9.318   6.715 -0.1399  0.0158  0.0262
   60MOL0     C 7806   0.844   9.449   6.680 -0.0274 -0.5218  0.3498
   60MOL0     C 7807   0.809   9.524   6.790  0.5577  0.4806  0.4433
   60MOL0     C 7808   0.793   9.676   6.796 -0.5082  0.0099 -0.0284
   60MOL0     C 7809   0.921   9.742   6.860 -0.4011 -0.3103 -0.5426
   60MOL0     C 7810   1.047   9.723   6.764  1.0680 -0.2070  0.1774
   60MOL0     C 7811   1.153   9.836   6.762  0.9722  0.3155  0.2977
   60MOL0     O 7812   1.216   9.825   6.635 -0.0018 -0.3742  0.3174
   60MOL0     C 7813   1.337   9.882   6.623  0.0693  0.0125  0.5589
   60MOL0     C 7814   1.423   9.789   6.577  0.2397  0.2230  0.3369
   60MOL0     C 7815   1.560   9.805   6.574  0.5662 -0.0668 -0.1068
   60MOL0     C 7816   1.618   9.916   6.644  0.6025  0.3660 -0.2201
   60MOL0     C 7817   1.763   9.935   6.645 -0.6283 -0.1599  0.0829
   60MOL0     O 7818   1.838   9.836   6.578  0.3351 -0.9442  0.0725
   60MOL0     C 7819   1.972   9.846   6.567 -0.5079 -0.4626  0.0756
   60MOL0     C 7820   2.055   9.965   6.558  0.4849 -0.7606 -0.6217
   60MOL0     C 7821   2.193   9.949   6.535  0.5350  0.1214 -0.2951
   60MOL0     C 7822   2.257   9.823   6.528 -0.0726 -0.1797  0.1333
   60MOL0     O 7823   2.392   9.818   6.533 -0.2939  0.6207  0.1137
   60MOL0     C 7824   2.447   9.849   6.413  0.2459  0.0899 -0.0630
   60MOL0     C 7825   2.434   9.733   6.311  0.4807  0.6577  0.3628
   60MOL0     C 7826   2.514   9.605   6.350 -0.1559 -0.5402 -0.5995
   60MOL0     C 7827   2.518   9.512   6.229 -0.1377 -0.1056  0.3957
   60MOL0     C 7828   2.565   9.367   6.247  0.2055 -0.0230  1.3019
   60MOL0     C 7829   2.701   9.356   6.313  1.0168  0.5133  0.2672
   60MOL0     C 7830   2.700   9.327   6.462 -0.2596  0.3935  0.3492
   60MOL0     C 7831   2.818   9.380   6.533  0.6781 -0.7941 -0.0164
   60MOL0    Cl 7832   2.817   9.313   6.702  0.0699 -0.3455 -0.2011
   60MOL0     C 7833   2.176   9.704   6.553 -0.2129 -0.9284 -0.4334
   60MOL0     C 7834   2.033   9.719   6.574 -0.6653  0.1975 -0.1710
   60MOL0     O 7835   1.813  10.034   6.701 -0.5696 -0.8985  0.0913
   60MOL0     C 7836   1.530  10.012   6.709 -0.5734 -0.0885  0.6499
   60MOL0     C 7837   1.391   9.994   6.690  0.2527  0.2419  0.1406
   60MOL0     N 7838   0.760   9.446   6.889  0.4558 -0.2721  0.7035
   60MOL0     N 7839   0.755   9.322   6.845  0.7818 -0.6112  0.3129
   60MOL0     C 7840   1.732   9.234   6.003 -1.1157  0.6030  0.1183
   60MOL0     C 7841   1.826   9.248   5.894  0.0582 -0.3668 -0.7693
   60MOL0     C 7842   2.076   9.229   5.547  0.5216 -0.3950  0.3708
   60MOL0     C 7843   2.021   9.224   5.418 -0.8940  0.5229  0.3061
   60MOL0     C 7844   2.085   9.266   5.307  0.0609  0.2157  0.9239
   60MOL0     C 7845   2.219   9.315   5.313  0.0506  0.2207  0.7713
   60MOL0     O 7846   2.282   9.352   5.198  0.4159 -0.1343 -0.2982
   60MOL0     C 7847   2.425   9.359   5.192 -0.6445 -1.2375  0.4788
   60MOL0     C 7848   2.491   9.353   5.058  0.4323 -0.0358 -0.0319
   60MOL0     C 7849   2.385   9.330   4.941 -0.6384  0.9402 -0.3975
   60MOL0     C 7850   2.468   9.323   4.809  0.2771  0.0154  0.1429
   60MOL0     C 7851   2.565   9.212   4.814 -0.5697  0.3485 -0.3306
   60MOL0     C 7852   2.637   9.118   4.839 -0.7031 -0.0471  0.1028
   60MOL0     C 7853   2.282   9.309   5.447  0.5856 -0.3127 -0.7134
   60MOL0     C 7854   2.208   9.268   5.561 -1.0090  0.1561  0.0440
   60MOL0     H 7855   1.625   9.126   5.649 -0.4228  0.4728 -0.4160
   60MOL0     H 7856   1.459   9.124   5.851  0.5166 -1.4532  0.9340
   60MOL0     H 7857   1.471   9.335   6.162  1.4521  1.3758  1.5021
   60MOL0     H 7858   1.602   9.267   6.256 -1.1697 -1.0423  2.1238
   60MOL0     H 7859   1.421   9.245   6.395  1.9752  0.3074 -0.5121
   60MOL0     H 7860   1.457   9.079   6.332  1.2265 -0.6724 -3.1104
   60MOL0     H 7861   1.276   9.067   6.188 -0.3198 -1.1305  1.5246
   60MOL0     H 7862   1.239   9.243   6.198  0.6429 -0.4469 -0.4149
   60MOL0     H 7863   1.211   9.056   6.429  0.6654  0.5950  1.4624
   60MOL0     H 7864   1.189   9.234   6.420  2.1257  0.4431 -1.2077
   60MOL0     H 7865   1.030   9.024   6.253 -0.7150  0.9541 -0.8180
   60MOL0     H 7866   0.998   9.202   6.262 -3.5700 -1.3498  0.6287
   60MOL0     H 7867   0.951   9.013   6.486  1.6068 -1.2581 -0.7179
   60MOL0     H 7868   0.832   9.107   6.391  1.5194 -1.5210 -2.3479
   60MOL0     H 7869   1.009   9.221   6.574  0.7264 -2.4061 -1.5210
   60MOL0     H 7870   0.906   9.316   6.461  2.6404 -0.2781 -1.5825
   60MOL0     H 7871   0.804   9.104   6.653  0.2529  0.4440 -0.8112
   60MOL0     H 7872   0.707   9.202   6.557 -0.2579  1.5200  0.4902
   60MOL0     H 7873   0.877   9.490   6.585 -2.8517  1.5307  0.1284
   60MOL0     H 7874   0.710   9.706   6.861  1.0846  5.1721 -0.0166
   60MOL0     H 7875   0.776   9.722   6.699 -2.3889  0.8581  0.6587
   60MOL0     H 7876   0.944   9.708   6.961  0.6303  0.1538 -0.5974
   60MOL0     H 7877   0.905   9.850   6.863  0.2917 -0.1760 -1.1340
   60MOL0     H 7878   1.092   9.629   6.798  0.0038 -0.8342 -0.0834
   60MOL0     H 7879   1.017   9.694   6.662 -2.3959 -0.1254  1.0566
   60MOL0     H 7880   1.214   9.824   6.852 -1.3948  0.4163  1.9808
   60MOL0     H 7881   1.105   9.935   6.760 -0.4338 -0.3367  0.7782
   60MOL0     H 7882   1.368   9.706   6.531  1.6054 -1.0839  0.9785
   60MOL0     H 7883   1.621   9.726   6.532 -0.0428 -0.8027  0.3594
   60MOL0     H 7884   2.010  10.064   6.556  0.1416 -0.7172  2.7156
   60MOL0     H 7885   2.246  10.042   6.518 -1.3186  1.9738  3.1028
   60MOL0     H 7886   2.552   9.852   6.444 -0.1334 -2.7843  1.9980
   60MOL0     H 7887   2.426   9.950   6.378  1.8809  1.2885  2.1248
   60MOL0     H 7888   2.477   9.772   6.218  0.7392  0.5362  0.4298
   60MOL0     H 7889   2.331   9.702   6.294  0.3735 -0.2773  2.3686
   60MOL0     H 7890   2.463   9.550   6.429 -0.7837  2.2934  1.1061
   60MOL0     H 7891   2.610   9.635   6.393 -0.5848 -0.4529  0.3149
   60MOL0     H 7892   2.421   9.493   6.182  0.4606 -1.6610 -0.2655
   60MOL0     H 7893   2.573   9.568   6.151 -1.0688  0.1229 -0.1103
   60MOL0     H 7894   2.566   9.305   6.157 -0.2766  0.4071  0.9896
   60MOL0     H 7895   2.490   9.332   6.318  0.7859 -1.7943  1.0870
   60MOL0     H 7896   2.764   9.444   6.296  0.7007  0.8829  0.9645
   60MOL0     H 7897   2.752   9.273   6.263  1.1944 -0.1215  1.4718
   60MOL0     H 7898   2.605   9.366   6.499 -0.3814  1.5810 -1.1129
   60MOL0     H 7899   2.699   9.218   6.474 -1.7381 -0.0425 -2.6635
   60MOL0     H 7900   2.808   9.489   6.533 -0.7262 -0.8944 -0.8625
   60MOL0     H 7901   2.900   9.353   6.465 -1.5643  2.0284 -4.3548
   60MOL0     H 7902   2.211   9.604   6.574 -0.4481 -1.3600 -2.0288
   60MOL0     H 7903   1.973   9.630   6.588  0.3584 -0.1684  2.4670
   60MOL0     H 7904   1.565  10.094   6.770 -2.6773  0.6257  0.9777
   60MOL0     H 7905   1.331  10.076   6.729 -1.9106 -1.9144  1.6716
   60MOL0     H 7906   1.765   9.267   6.101  2.8499  0.3237 -0.9227
   60MOL0     H 7907   1.926   9.284   5.912 -1.0047  2.3490  0.1180
   60MOL0     H 7908   1.917   9.194   5.407 -0.7363 -0.1411  0.5888
   60MOL0     H 7909   2.033   9.272   5.212 -0.6886  2.0678  1.4051
   60MOL0     H 7910   2.456   9.264   5.237  1.6235 -1.7202 -1.8324
   60MOL0     H 7911   2.472   9.440   5.248  0.0572 -0.6057 -0.9647
   60MOL0     H 7912   2.531   9.454   5.040  0.2668  0.0983  0.3362
   60MOL0     H 7913   2.573   9.282   5.062 -0.1240 -0.6780  0.1522
   60MOL0     H 7914   2.317   9.415   4.947 -0.0056  1.4307  0.0138
   60MOL0     H 7915   2.327   9.239   4.956 -1.0160  1.3081  0.4279
   60MOL0     H 7916   2.398   9.316   4.725 -0.4439 -1.0362  0.8001
   60MOL0     H 7917   2.506   9.425   4.794 -0.5399  0.1087 -1.5805
   60MOL0     H 7918   2.710   9.042   4.861 -1.0298 -0.0440  1.2463
   60MOL0     H 7919   2.382   9.342   5.472  0.1679  1.3230 -1.0860
   60MOL0     H 7920   2.255   9.268   5.659 -0.3870 -1.2973 -0.2224
   61MOL0     O 7921   0.685   8.796   7.557 -0.3092 -0.4141 -0.0973
   61MOL0     C 7922   0.740   8.745   7.465 -0.2132  0.1384 -0.2186
   61MOL0     O 7923   0.711   8.621   7.412  0.2258  0.8498 -0.2006
   61MOL0     C 7924   0.625   8.532   7.471 -0.6875 -0.5726 -0.6753
   61MOL0     C 7925   0.521   8.557   7.566 -0.0551 -0.1680  0.2536
   61MOL0     C 7926   0.445   8.446   7.609 -0.1772 -0.5478 -0.4448
   61MOL0     C 7927   0.452   8.323   7.552 -0.4103 -0.1479  0.7342
   61MOL0     O 7928   0.372   8.218   7.594  0.4946 -0.3548 -0.0006
   61MOL0     C 7929   0.247   8.247   7.660  0.4689  0.3675  0.3150
   61MOL0     C 7930   0.146   8.152   7.601  0.5964 -0.9246 -0.5082
   61MOL0     C 7931   0.004   8.219   7.596 -0.1453 -0.6084 -0.1555
   61MOL0     C 7932  -0.087   8.113   7.527 -0.0774  0.9088  0.6908
   61MOL0     C 7933  -0.232   8.155   7.551  0.0191  0.5226  0.0760
   61MOL0     C 7934  -0.345   8.054   7.494  0.0255 -0.4833 -0.0771
   61MOL0     C 7935  -0.314   7.910   7.521  0.0068 -0.1701  0.5237
   61MOL0     C 7936  -0.435   7.813   7.540 -0.3301  0.0164 -1.1133
   61MOL0     N 7937  -0.502   7.784   7.412  0.0244 -0.4920 -0.4320
   61MOL0     C 7938  -0.484   7.672   7.336  0.1236  0.5631  0.0372
   61MOL0     C 7939  -0.595   7.657   7.263  0.0145  0.4600  0.6344
   61MOL0     C 7940  -0.627   7.540   7.173 -0.7215 -0.2721  0.8374
   61MOL0     C 7941  -0.775   7.527   7.182 -0.0223  0.5811 -0.2385
   61MOL0     C 7942  -0.813   7.406   7.110  0.8970  0.7028  0.5281
   61MOL0     C 7943  -0.967   7.404   7.086  0.0869 -0.3612  0.1924
   61MOL0     O 7944  -1.002   7.282   7.023  1.1245  0.1266 -0.1680
   61MOL0     C 7945  -1.130   7.264   6.980  0.3315  0.4692  0.7312
   61MOL0     C 7946  -1.232   7.363   6.977  0.0565  0.8740 -0.2677
   61MOL0     C 7947  -1.359   7.335   6.912 -0.4864  0.0676 -0.3225
   61MOL0     C 7948  -1.387   7.205   6.873 -0.3044  0.5691  0.8130
   61MOL0     C 7949  -1.528   7.165   6.829 -0.1462  0.2627 -0.4333
   61MOL0     O 7950  -1.633   7.250   6.838  0.1370 -0.3241 -0.0219
   61MOL0     C 7951  -1.758   7.212   6.808  0.2311  1.2132  0.4088
   61MOL0     C 7952  -1.789   7.165   6.680  0.4623  0.1212 -0.0427
   61MOL0     C 7953  -1.924   7.142   6.647  0.7207 -0.1999  0.1848
   61MOL0     C 7954  -2.028   7.151   6.741 -0.1029 -0.3452 -0.2665
   61MOL0     O 7955  -2.151   7.126   6.697 -0.3944 -0.3575 -0.8975
   61MOL0     C 7956  -2.244   7.064   6.794 -0.5834 -0.0198  0.0947
   61MOL0     C 7957  -2.344   6.965   6.737  0.1124 -0.1382 -0.2769
   61MOL0     C 7958  -2.413   7.034   6.624  0.9556  0.0529  0.4549
   61MOL0     C 7959  -2.500   6.945   6.544 -0.1959  0.4764 -0.1599
   61MOL0     C 7960  -2.604   7.016   6.455  1.1036  0.5000 -0.4761
   61MOL0     C 7961  -2.724   7.074   6.548 -0.7492  1.0209 -0.1318
   61MOL0     C 7962  -2.831   7.130   6.462  0.2663 -0.7327  0.3819
   61MOL0     C 7963  -2.810   7.271   6.404  0.2225 -0.4033  0.9537
   61MOL0    Cl 7964  -2.810   7.387   6.545 -0.1108 -0.4615 -0.5512
   61MOL0     C 7965  -1.994   7.199   6.873  0.5576  0.6053 -0.3738
   61MOL0     C 7966  -1.861   7.236   6.901 -0.0403  0.4266 -0.7624
   61MOL0     O 7967  -1.541   7.048   6.789 -0.3212  0.0269 -0.3745
   61MOL0     C 7968  -1.289   7.110   6.888 -0.0486  0.7582 -0.5549
   61MOL0     C 7969  -1.163   7.140   6.940  0.1519  0.6732  0.7079
   61MOL0     N 7970  -0.665   7.771   7.292  0.4011 -0.4768  0.6894
   61MOL0     N 7971  -0.609   7.853   7.371  0.1358 -1.0677 -0.0752
   61MOL0     C 7972   0.561   8.299   7.475  0.0219  0.3299  0.9300
   61MOL0     C 7973   0.643   8.398   7.436 -0.3883  0.8077  0.5359
   61MOL0     C 7974   0.858   8.820   7.403  0.5411  0.9497 -0.2774
   61MOL0     C 7975   0.922   8.759   7.300 -0.0298  0.1157 -0.5063
   61MOL0     C 7976   1.034   8.819   7.238 -0.2646  0.3281 -0.4411
   61MOL0     C 7977   1.095   8.935   7.282  0.7763 -0.3912 -0.0459
   61MOL0     O 7978   1.189   9.016   7.224  0.1888  0.0482  0.0589
   61MOL0     C 7979   1.267   8.957   7.121 -0.3821 -0.3216 -0.5222
   61MOL0     C 7980   1.370   9.072   7.092  0.8608  0.3296  0.8335
   61MOL0     C 7981   1.458   9.103   7.204  0.4496 -0.8611  0.3027
   61MOL0     C 7982   1.548   9.225   7.168  0.3038  0.8431 -0.2115
   61MOL0     C 7983   1.628   9.285   7.274  0.1968  1.0413 -0.8141
   61MOL0     C 7984   1.693   9.331   7.367 -0.3067 -0.3733 -0.9510
   61MOL0     C 7985   1.033   8.987   7.397  0.1012  0.4291  0.2692
   61MOL0     C 7986   0.910   8.937   7.455  0.3776 -0.2623  0.3100
   61MOL0     H 7987   0.516   8.651   7.620  0.8579 -0.9141  1.6952
   61MOL0     H 7988   0.366   8.465   7.680  0.6273  1.0011  0.0792
   61MOL0     H 7989   0.203   8.346   7.641 -0.8989 -0.1726  0.5546
   61MOL0     H 7990   0.242   8.229   7.767 -0.7148 -0.7674  0.1000
   61MOL0     H 7991   0.155   8.059   7.657  1.2711  1.2377  3.2921
   61MOL0     H 7992   0.170   8.129   7.496 -2.4302  0.4899 -1.6364
   61MOL0     H 7993  -0.000   8.313   7.540  0.9558 -0.3886  0.1041
   61MOL0     H 7994  -0.040   8.229   7.696 -0.1415 -3.4764  0.2254
   61MOL0     H 7995  -0.062   8.108   7.421  0.3024  1.2214  0.7615
   61MOL0     H 7996  -0.076   8.015   7.574 -3.0932  0.6068  0.9770
   61MOL0     H 7997  -0.251   8.247   7.495 -0.1065  0.9893  0.8571
   61MOL0     H 7998  -0.255   8.158   7.658  0.4805 -2.3408  0.3327
   61MOL0     H 7999  -0.349   8.073   7.386 -1.1447  2.8374  0.4338
   61MOL0     H 8000  -0.448   8.071   7.526  0.2769 -1.3700  1.2688
   61MOL0     H 8001  -0.258   7.874   7.434 -0.8097 -0.1307 -0.0224
   61MOL0     H 8002  -0.250   7.900   7.609  0.0240 -0.4099  0.4830
   61MOL0     H 8003  -0.499   7.866   7.612  2.6256  2.1673  0.1746
   61MOL0     H 8004  -0.405   7.718   7.585  1.2097  0.1754 -1.7187
   61MOL0     H 8005  -0.403   7.600   7.334  0.5049  0.9886 -1.8089
   61MOL0     H 8006  -0.573   7.452   7.209 -1.7914 -0.9146  0.9159
   61MOL0     H 8007  -0.587   7.563   7.073  3.0585  0.8223  2.4234
   61MOL0     H 8008  -0.818   7.616   7.135  3.0425  1.2543 -2.0234
   61MOL0     H 8009  -0.804   7.517   7.287  1.7685 -0.8645  0.1714
   61MOL0     H 8010  -0.771   7.405   7.009  0.1558  1.0510  0.2118
   61MOL0     H 8011  -0.789   7.315   7.165  1.8615  0.3717 -0.4111
   61MOL0     H 8012  -0.990   7.483   7.014  0.7116 -0.0188  0.3612
   61MOL0     H 8013  -1.007   7.410   7.188  1.6862  4.7957  0.8155
   61MOL0     H 8014  -1.217   7.464   7.014 -0.9566  1.6491 -1.8902
   61MOL0     H 8015  -1.434   7.413   6.903 -1.4204 -0.4782  2.0939
   61MOL0     H 8016  -1.703   7.157   6.613 -0.5303  0.3856 -1.3922
   61MOL0     H 8017  -1.936   7.114   6.543  1.7872 -2.5765  0.6373
   61MOL0     H 8018  -2.301   7.150   6.831  0.1171  0.1491  0.7948
   61MOL0     H 8019  -2.183   7.017   6.871  1.2502 -1.5093 -2.1110
   61MOL0     H 8020  -2.418   6.947   6.816  1.2803 -0.9917  0.6588
   61MOL0     H 8021  -2.300   6.874   6.695 -1.9878 -0.2462 -2.4738
   61MOL0     H 8022  -2.340   7.086   6.561  0.2843 -0.8638 -1.1326
   61MOL0     H 8023  -2.472   7.118   6.662 -0.1504 -1.7629  3.0097
   61MOL0     H 8024  -2.437   6.883   6.480 -1.0792 -2.2605  1.4448
   61MOL0     H 8025  -2.555   6.872   6.605 -1.2171  1.5145  0.2063
   61MOL0     H 8026  -2.651   6.946   6.385  2.1349 -0.8337  0.1278
   61MOL0     H 8027  -2.565   7.089   6.384  1.1785  0.6518 -0.2781
   61MOL0     H 8028  -2.691   7.146   6.622 -0.9113  0.5121  0.4460
   61MOL0     H 8029  -2.763   6.990   6.607  0.7694 -1.4570 -2.3776
   61MOL0     H 8030  -2.840   7.059   6.380  0.1798 -0.0957 -0.1706
   61MOL0     H 8031  -2.921   7.134   6.525 -0.8300 -0.6256 -1.1225
   61MOL0     H 8032  -2.888   7.292   6.330  1.8954 -1.6550 -1.2636
   61MOL0     H 8033  -2.719   7.293   6.347 -0.1127 -0.6443  0.3137
   61MOL0     H 8034  -2.080   7.212   6.938  0.5082 -0.9055 -0.0953
   61MOL0     H 8035  -1.829   7.292   6.988 -1.4952 -0.4582  0.4020
   61MOL0     H 8036  -1.302   7.008   6.855 -0.8950  0.8910 -0.6561
   61MOL0     H 8037  -1.089   7.062   6.948  0.2838  0.3097 -2.7774
   61MOL0     H 8038   0.584   8.200   7.436  0.6768  1.7756 -2.7245
   61MOL0     H 8039   0.725   8.374   7.368 -1.6330  1.7272 -1.3795
   61MOL0     H 8040   0.901   8.657   7.269 -0.3611 -0.6331  1.9631
   61MOL0     H 8041   1.068   8.777   7.144 -0.5594 -2.3486  0.5574
   61MOL0     H 8042   1.204   8.932   7.036 -1.6575  0.3404  0.2015
   61MOL0     H 8043   1.323   8.867   7.149 -0.6259 -0.0451  0.9690
   61MOL0     H 8044   1.438   9.036   7.014 -0.5410 -1.0174  0.1837
   61MOL0     H 8045   1.317   9.162   7.059  0.3099 -0.8137 -1.6340
   61MOL0     H 8046   1.527   9.019   7.217  2.2328 -0.0818 -2.9297
   61MOL0     H 8047   1.403   9.127   7.295  0.6341 -1.5195  0.5892
   61MOL0     H 8048   1.611   9.192   7.084  1.5765 -1.5650  1.5643
   61MOL0     H 8049   1.486   9.308   7.133 -3.5548 -1.6313  0.1097
   61MOL0     H 8050   1.756   9.376   7.441 -0.7243 -3.4042  1.4401
   61MOL0     H 8051   1.072   9.083   7.429  1.7789 -0.7123  1.9079
   61MOL0     H 8052   0.855   8.994   7.528  0.3985 -0.1124  0.2094
   62MOL0     O 8053   2.827   3.303   3.945 -0.3212  0.2423  0.6545
   62MOL0     C 8054   2.894   3.296   4.049  0.0569 -0.9806 -0.0746
   62MOL0     O 8055   2.844   3.312   4.172 -0.0821 -0.6796  0.2790
   62MOL0     C 8056   2.710   3.358   4.194 -0.9455  0.4458 -0.8369
   62MOL0     C 8057   2.680   3.443   4.297 -0.2083 -0.4740 -0.2907
   62MOL0     C 8058   2.547   3.489   4.322 -0.1611 -0.3342 -0.2432
   62MOL0     C 8059   2.438   3.465   4.239  0.7871  0.2947 -0.8847
   62MOL0     O 8060   2.317   3.513   4.269 -0.1848 -0.9938  0.2883
   62MOL0     C 8061   2.202   3.435   4.257 -0.2768 -0.9407  0.5233
   62MOL0     C 8062   2.083   3.519   4.265  0.1343  0.2253  0.0026
   62MOL0     C 8063   1.963   3.429   4.299 -0.0752  0.5151  0.6454
   62MOL0     C 8064   1.958   3.401   4.443 -0.5768 -0.5345 -0.6909
   62MOL0     C 8065   1.815   3.346   4.480 -0.3831 -0.3644 -0.4113
   62MOL0     C 8066   1.823   3.313   4.628  0.1719  0.2606  0.3660
   62MOL0     C 8067   1.696   3.263   4.691  1.1315 -0.2576  0.0747
   62MOL0     C 8068   1.703   3.260   4.842  0.3091  0.0544  0.0712
   62MOL0     N 8069   1.587   3.195   4.901  0.7524  0.7393 -0.0648
   62MOL0     C 8070   1.458   3.213   4.848  0.1831  0.0521  0.5540
   62MOL0     C 8071   1.379   3.147   4.937  0.9269  0.1483 -0.0867
   62MOL0     C 8072   1.230   3.166   4.940 -0.0077 -0.7491  0.3388
   62MOL0     C 8073   1.161   3.099   5.054  0.3944  0.8723 -0.3333
   62MOL0     C 8074   1.179   3.187   5.176  1.0423 -0.4292 -0.2964
   62MOL0     C 8075   1.060   3.172   5.274  0.7116  0.5876  0.3109
   62MOL0     O 8076   1.035   3.038   5.311  0.4075  0.7418  0.3089
   62MOL0     C 8077   0.904   2.999   5.308  0.5143 -0.6376 -0.1844
   62MOL0     C 8078   0.806   3.045   5.394  0.9497  0.5141  0.4229
   62MOL0     C 8079   0.671   3.011   5.363 -0.1938 -1.1508 -0.0217
   62MOL0     C 8080   0.632   2.931   5.254  0.0207  0.5143 -0.0756
   62MOL0     C 8081   0.488   2.902   5.226  1.1374  0.2234  0.0094
   62MOL0     O 8082   0.451   2.792   5.168  0.0864  0.0865  0.7165
   62MOL0     C 8083   0.315   2.768   5.146  0.2131  0.1088 -0.5200
   62MOL0     C 8084   0.235   2.691   5.231 -0.6440 -0.0196 -0.3704
   62MOL0     C 8085   0.099   2.670   5.193  0.0116  0.1615 -0.4717
   62MOL0     C 8086   0.038   2.722   5.082  0.6748  0.6896 -0.6560
   62MOL0     O 8087  -0.099   2.685   5.067 -0.7980 -0.3425  0.0193
   62MOL0     C 8088  -0.172   2.765   4.978 -0.2930  0.1769  0.7775
   62MOL0     C 8089  -0.314   2.731   5.003 -0.0244  0.2714  0.1782
   62MOL0     C 8090  -0.405   2.847   4.967 -0.4417 -0.4447  0.1769
   62MOL0     C 8091  -0.544   2.833   5.009  0.9322 -0.4246 -0.0354
   62MOL0     C 8092  -0.628   2.726   4.939 -0.2831 -0.0359  0.5062
   62MOL0     C 8093  -0.775   2.732   4.986  0.1613 -0.4267 -0.5381
   62MOL0     C 8094  -0.847   2.855   4.919  0.2180  0.3024  0.0486
   62MOL0     C 8095  -0.999   2.844   4.947  0.5969 -0.2192 -0.7005
   62MOL0    Cl 8096  -1.096   2.973   4.860 -0.0660  0.4094  0.6202
   62MOL0     C 8097   0.119   2.806   4.999  0.9641 -0.7034 -0.5083
   62MOL0     C 8098   0.256   2.832   5.030 -0.0131 -0.1712 -0.0251
   62MOL0     O 8099   0.407   2.986   5.274 -0.0854  0.0305  0.2305
   62MOL0     C 8100   0.727   2.882   5.169 -0.4070  0.0083 -0.4252
   62MOL0     C 8101   0.864   2.920   5.197  0.3259  0.1278  0.5952
   62MOL0     N 8102   1.455   3.088   5.042  0.0756 -0.6328 -0.0634
   62MOL0     N 8103   1.581   3.121   5.017 -0.5138 -0.3121  0.6140
   62MOL0     C 8104   2.466   3.378   4.133 -0.5492  0.4066 -0.5940
   62MOL0     C 8105   2.598   3.329   4.107  0.4017 -0.0716 -0.3059
   62MOL0     C 8106   3.036   3.261   4.040  0.1752 -0.5731 -0.4492
   62MOL0     C 8107   3.112   3.294   3.923 -0.4137 -0.3330 -0.5824
   62MOL0     C 8108   3.249   3.252   3.900  0.1669  0.5441  0.5679
   62MOL0     C 8109   3.305   3.170   3.999 -0.1478 -0.4112  0.0970
   62MOL0     O 8110   3.430   3.115   3.974  0.1897  0.0016  0.2966
   62MOL0     C 8111   3.532   3.115   4.076  0.0880 -0.3873 -0.8276
   62MOL0     C 8112   3.651   3.165   3.996 -0.0136  0.8591 -0.7056
   62MOL0     C 8113   3.686   3.056   3.888 -0.2769 -0.3442  0.0556
   62MOL0     C 8114   3.829   3.085   3.837 -0.2205 -0.4201 -0.1166
   62MOL0     C 8115   3.839   3.214   3.759 -0.6324 -1.0609 -0.1734
   62MOL0     C 8116   3.864   3.310   3.693 -0.2347  0.7927  0.0831
   62MOL0     C 8117   3.233   3.143   4.126  0.5316  0.2590 -0.5035
   62MOL0     C 8118   3.104   3.187   4.143 -0.3346 -0.4891  0.9067
   62MOL0     H 8119   2.770   3.456   4.357  1.1815 -1.5271 -2.0725
   62MOL0     H 8120   2.525   3.534   4.418 -0.7871 -0.8336 -0.1493
   62MOL0     H 8121   2.194   3.361   4.337 -2.3733 -1.7540 -0.3696
   62MOL0     H 8122   2.207   3.380   4.163  0.9994 -2.7859  1.5995
   62MOL0     H 8123   2.069   3.573   4.171  0.3930 -0.0102 -0.1759
   62MOL0     H 8124   2.096   3.597   4.340  2.4392 -0.7695  0.7375
   62MOL0     H 8125   1.963   3.336   4.240 -1.2252 -0.1632  1.6736
   62MOL0     H 8126   1.875   3.479   4.257  0.8966  1.2855 -0.5662
   62MOL0     H 8127   2.035   3.330   4.475 -0.6888  0.3193  1.7043
   62MOL0     H 8128   1.965   3.488   4.509 -1.6427 -0.8390 -0.1672
   62MOL0     H 8129   1.797   3.252   4.428 -2.4112  0.4954 -1.3861
   62MOL0     H 8130   1.732   3.415   4.460 -0.5137 -0.1594  0.7606
   62MOL0     H 8131   1.861   3.398   4.686  1.9712  1.6232 -2.5948
   62MOL0     H 8132   1.891   3.229   4.647 -0.7387 -1.3651 -2.8177
   62MOL0     H 8133   1.617   3.320   4.640  3.6923  2.2989 -1.3436
   62MOL0     H 8134   1.677   3.160   4.658  0.3310  0.4485 -1.8405
   62MOL0     H 8135   1.715   3.361   4.883  1.4919  0.0848 -0.3033
   62MOL0     H 8136   1.792   3.210   4.882 -0.8735 -0.7256  1.8511
   62MOL0     H 8137   1.413   3.279   4.775 -1.6272  0.3645  1.8729
   62MOL0     H 8138   1.192   3.116   4.850 -1.0357  1.2068 -0.3915
   62MOL0     H 8139   1.202   3.272   4.938  1.0050 -0.4250  1.9943
   62MOL0     H 8140   1.195   2.996   5.066 -2.1743  0.0568  0.7435
   62MOL0     H 8141   1.053   3.102   5.033  0.5476  1.8499 -1.0526
   62MOL0     H 8142   1.269   3.167   5.236 -0.2383  0.5910  2.0830
   62MOL0     H 8143   1.181   3.294   5.152  1.3602  0.2620  2.5605
   62MOL0     H 8144   0.967   3.213   5.234  0.9833  0.5757 -0.3359
   62MOL0     H 8145   1.084   3.230   5.364  0.1070  0.4384  0.5746
   62MOL0     H 8146   0.831   3.107   5.479 -0.2328  1.2772  0.2428
   62MOL0     H 8147   0.593   3.054   5.425  0.3523 -0.1291 -0.0200
   62MOL0     H 8148   0.291   2.658   5.318  1.9269  0.0579 -1.9177
   62MOL0     H 8149   0.050   2.601   5.261  0.7517 -0.4878 -0.5835
   62MOL0     H 8150  -0.156   2.757   4.870 -2.0411  0.4911  0.4718
   62MOL0     H 8151  -0.167   2.870   5.008 -2.8187  0.5953 -0.0226
   62MOL0     H 8152  -0.320   2.712   5.111 -1.7670  1.1211  0.2571
   62MOL0     H 8153  -0.343   2.639   4.952 -0.4448  0.9846 -0.8950
   62MOL0     H 8154  -0.400   2.870   4.860 -1.0798  0.8827  0.4007
   62MOL0     H 8155  -0.367   2.935   5.020  3.8331 -0.6708 -2.0355
   62MOL0     H 8156  -0.559   2.811   5.115  1.0443 -1.4774 -0.2258
   62MOL0     H 8157  -0.584   2.931   4.981  2.0331  0.4513  1.3514
   62MOL0     H 8158  -0.583   2.629   4.962  1.9636  0.7661 -0.1880
   62MOL0     H 8159  -0.627   2.744   4.831 -2.7836  2.2470  0.7622
   62MOL0     H 8160  -0.777   2.736   5.096 -1.4015 -0.6113 -0.5431
   62MOL0     H 8161  -0.811   2.631   4.964 -2.6576  0.4447 -0.3252
   62MOL0     H 8162  -0.808   2.950   4.957  0.1950  0.7819 -1.1052
   62MOL0     H 8163  -0.831   2.851   4.811  1.4112 -2.2205  0.2519
   62MOL0     H 8164  -1.012   2.855   5.055  1.1967  0.9256 -0.7287
   62MOL0     H 8165  -1.045   2.748   4.922  3.0072 -1.2381 -1.5839
   62MOL0     H 8166   0.082   2.860   4.912 -2.3413 -0.2228  1.0271
   62MOL0     H 8167   0.321   2.902   4.977 -0.2016 -0.0191 -0.0563
   62MOL0     H 8168   0.686   2.841   5.077 -1.8206  1.7295 -0.6035
   62MOL0     H 8169   0.941   2.887   5.128  0.8495  2.5318 -0.0605
   62MOL0     H 8170   2.397   3.356   4.052 -0.9596  0.3415 -0.2249
   62MOL0     H 8171   2.602   3.265   4.019  1.5598 -0.8311  0.2844
   62MOL0     H 8172   3.074   3.347   3.836  2.7377 -1.6136 -2.9365
   62MOL0     H 8173   3.306   3.278   3.811  0.6360 -0.4983  0.5585
   62MOL0     H 8174   3.548   3.016   4.120 -0.1823 -0.6542 -1.3132
   62MOL0     H 8175   3.521   3.187   4.158  0.1150  0.4158 -1.5118
   62MOL0     H 8176   3.634   3.265   3.954 -0.1811  1.1486  0.0470
   62MOL0     H 8177   3.734   3.173   4.067 -2.2328 -2.4355  2.5876
   62MOL0     H 8178   3.621   3.062   3.800  1.2967  2.2789 -1.0340
   62MOL0     H 8179   3.683   2.960   3.940  0.6378 -0.2374  0.3349
   62MOL0     H 8180   3.901   3.096   3.919 -1.1671 -2.4000  1.0549
   62MOL0     H 8181   3.870   2.996   3.788  0.6308  1.4107 -3.0334
   62MOL0     H 8182   3.897   3.402   3.648  1.8274  0.3637  0.6213
   62MOL0     H 8183   3.273   3.070   4.196  0.4430  1.2182  0.5815
   62MOL0     H 8184   3.048   3.162   4.233  0.1610  0.1704  1.4006
   63MOL0     O 8185   9.668   2.443   6.948  0.0749 -0.3513 -0.1206
   63MOL0     C 8186   9.668   2.467   7.072  0.1840 -0.3969 -0.2561
   63MOL0     O 8187   9.563   2.469   7.158  0.0660  0.3744  1.0395
   63MOL0     C 8188   9.441   2.486   7.099 -0.1665  0.1298  0.6626
   63MOL0     C 8189   9.413   2.581   7.002  0.0508 -0.7624  0.1787
   63MOL0     C 8190   9.280   2.603   6.955 -0.0973 -0.3506  0.0271
   63MOL0     C 8191   9.183   2.516   7.007 -1.0542 -0.9209 -0.6369
   63MOL0     O 8192   9.059   2.556   6.962  0.0186 -0.0806 -0.9230
   63MOL0     C 8193   8.955   2.466   6.977 -0.2822  0.4003  0.3762
   63MOL0     C 8194   8.844   2.490   6.873  0.4426  0.3186  0.8563
   63MOL0     C 8195   8.721   2.393   6.874  0.2010 -0.4278 -0.5546
   63MOL0     C 8196   8.625   2.407   6.991  0.1331  0.2651  0.1344
   63MOL0     C 8197   8.548   2.280   7.025  0.5259  0.7131 -0.6790
   63MOL0     C 8198   8.423   2.314   7.113  0.1643  0.3787 -0.0823
   63MOL0     C 8199   8.305   2.211   7.106 -0.4141  0.3660  0.0663
   63MOL0     C 8200   8.329   2.096   7.207  0.0263 -0.3586  0.2481
   63MOL0     N 8201   8.451   2.021   7.181 -0.6819 -0.2678 -0.2156
   63MOL0     C 8202   8.467   1.947   7.065  0.2046 -0.6163 -0.7248
   63MOL0     C 8203   8.590   1.887   7.092  0.9226 -0.2500 -0.2963
   63MOL0     C 8204   8.662   1.779   7.010  1.4737 -0.2434 -0.0260
   63MOL0     C 8205   8.753   1.841   6.908 -0.4418 -0.1247 -0.1444
   63MOL0     C 8206   8.779   1.751   6.790  1.1623 -0.6007  0.6855
   63MOL0     C 8207   8.853   1.620   6.831 -0.2523  0.1154  0.3787
   63MOL0     O 8208   8.848   1.528   6.719  0.0331 -0.1508  0.1964
   63MOL0     C 8209   8.917   1.411   6.713 -0.3660  0.0024 -0.7245
   63MOL0     C 8210   8.899   1.315   6.613  0.5291  0.0529  0.4156
   63MOL0     C 8211   8.975   1.195   6.615  0.4269  0.4648 -0.3801
   63MOL0     C 8212   9.068   1.164   6.717 -0.5975 -0.2616 -0.6121
   63MOL0     C 8213   9.144   1.038   6.717  0.6300 -0.1336  0.3615
   63MOL0     O 8214   9.101   0.948   6.628 -0.1569 -0.0847 -0.8096
   63MOL0     C 8215   9.152   0.821   6.643  0.2421  0.5038  1.0070
   63MOL0     C 8216   9.240   0.765   6.545  0.0265  0.6561 -0.4009
   63MOL0     C 8217   9.287   0.636   6.563  0.0056 -0.1359 -0.0580
   63MOL0     C 8218   9.238   0.565   6.677 -0.2062  0.2877  0.0658
   63MOL0     O 8219   9.295   0.440   6.693  0.0553  0.6335  0.1647
   63MOL0     C 8220   9.325   0.393   6.828  0.4415 -0.5115  0.1125
   63MOL0     C 8221   9.374   0.247   6.824  0.0364  0.2588 -0.5063
   63MOL0     C 8222   9.259   0.140   6.811  0.2303  0.2855  0.2555
   63MOL0     C 8223   9.311   0.004   6.780  0.0173 -0.2019  0.7947
   63MOL0     C 8224   9.398  -0.066   6.893  0.1355  0.5814  0.8406
   63MOL0     C 8225   9.459  -0.198   6.845 -0.0519  0.1770 -0.1289
   63MOL0     C 8226   9.552  -0.258   6.949 -0.5913 -0.1178  0.6957
   63MOL0     C 8227   9.615  -0.387   6.896  0.3103  0.9691 -0.0965
   63MOL0    Cl 8228   9.485  -0.509   6.903 -0.0585 -0.1802 -0.4734
   63MOL0     C 8229   9.152   0.624   6.772 -0.0436  0.5620 -0.1297
   63MOL0     C 8230   9.098   0.743   6.741  0.9749  0.5312 -0.1495
   63MOL0     O 8231   9.230   1.024   6.805  0.0155  0.2153  0.1951
   63MOL0     C 8232   9.086   1.261   6.817  0.6119 -0.1596 -0.4485
   63MOL0     C 8233   9.006   1.381   6.817  0.4648 -0.4142 -0.0184
   63MOL0     N 8234   8.636   1.923   7.217 -0.1083 -0.8659  0.3263
   63MOL0     N 8235   8.548   2.002   7.272 -0.0708 -0.1338 -0.2751
   63MOL0     C 8236   9.216   2.418   7.103  0.1913  0.3808 -0.3667
   63MOL0     C 8237   9.349   2.406   7.156 -0.4166  0.9316  0.5398
   63MOL0     C 8238   9.800   2.498   7.124  0.6600 -0.6370 -0.2724
   63MOL0     C 8239   9.908   2.523   7.039 -0.2655  0.2415 -0.3768
   63MOL0     C 8240  10.035   2.541   7.088 -0.4389  0.5432  0.3853
   63MOL0     C 8241  10.059   2.530   7.228 -0.0846 -0.1613 -0.0987
   63MOL0     O 8242  10.183   2.556   7.283  0.4558  0.0270 -0.7853
   63MOL0     C 8243  10.304   2.574   7.207 -0.3586  0.8552 -0.0713
   63MOL0     C 8244  10.425   2.627   7.285  0.9603  0.4774  0.3806
   63MOL0     C 8245  10.556   2.630   7.200  0.1222 -0.3613  0.4367
   63MOL0     C 8246  10.660   2.701   7.290 -0.1165 -0.3332  0.8365
   63MOL0     C 8247  10.797   2.697   7.238  0.3094  0.1509 -0.7199
   63MOL0     C 8248  10.916   2.707   7.199 -0.2440 -0.7516  0.8188
   63MOL0     C 8249   9.951   2.513   7.315 -0.0900 -0.0651 -0.4419
   63MOL0     C 8250   9.820   2.492   7.263  0.7809  0.1622 -0.6444
   63MOL0     H 8251   9.486   2.657   6.976 -0.4525 -0.2844  0.1485
   63MOL0     H 8252   9.276   2.675   6.874  1.0546  0.3871  0.5912
   63MOL0     H 8253   8.909   2.469   7.076  2.3835  0.9805  1.7025
   63MOL0     H 8254   9.002   2.369   6.962 -0.0521  0.0688  2.7788
   63MOL0     H 8255   8.886   2.483   6.772 -1.9068 -0.8820 -0.0963
   63MOL0     H 8256   8.796   2.589   6.874 -0.9580 -0.2943 -0.6562
   63MOL0     H 8257   8.755   2.290   6.880  1.3355 -0.0151  0.7288
   63MOL0     H 8258   8.669   2.403   6.778  0.5174  0.6899 -0.6272
   63MOL0     H 8259   8.686   2.441   7.075 -2.5496  0.7840  2.0149
   63MOL0     H 8260   8.561   2.491   6.962  2.1610  1.1061 -2.3384
   63MOL0     H 8261   8.623   2.210   7.065  0.5390  0.9120 -0.3521
   63MOL0     H 8262   8.509   2.235   6.933  0.5927 -2.4284  0.6830
   63MOL0     H 8263   8.376   2.403   7.070  0.3013  1.1458  1.2937
   63MOL0     H 8264   8.442   2.335   7.218 -1.1488  1.6639 -0.0682
   63MOL0     H 8265   8.216   2.267   7.137 -0.9855  0.4587 -1.6381
   63MOL0     H 8266   8.282   2.172   7.006  1.3011 -2.7727  0.7567
   63MOL0     H 8267   8.248   2.026   7.186 -0.6737  1.3029 -3.2520
   63MOL0     H 8268   8.326   2.142   7.307 -3.4955 -1.2283  0.6907
   63MOL0     H 8269   8.397   1.935   6.982  0.0867 -3.5324 -0.3160
   63MOL0     H 8270   8.583   1.727   6.955  0.6253  0.9626  0.0025
   63MOL0     H 8271   8.701   1.706   7.082 -0.6047 -1.0848  0.3068
   63MOL0     H 8272   8.847   1.872   6.955 -0.0334 -0.9678 -0.3892
   63MOL0     H 8273   8.704   1.927   6.861 -0.3406  0.1955  0.3322
   63MOL0     H 8274   8.684   1.719   6.748  0.6268  1.1122  0.5188
   63MOL0     H 8275   8.828   1.800   6.705 -3.2228  1.7164 -0.8077
   63MOL0     H 8276   8.800   1.574   6.915  0.5799 -0.8817  0.3829
   63MOL0     H 8277   8.953   1.650   6.862 -1.1610  1.5418  2.0817
   63MOL0     H 8278   8.837   1.354   6.534 -1.2987  0.3954  1.9469
   63MOL0     H 8279   8.962   1.127   6.532 -2.8615  0.8623 -0.3284
   63MOL0     H 8280   9.262   0.829   6.460 -1.0341  0.8703 -0.5324
   63MOL0     H 8281   9.366   0.590   6.505  1.8144  2.6273  0.0251
   63MOL0     H 8282   9.230   0.398   6.881  0.1437  1.9280 -0.5093
   63MOL0     H 8283   9.400   0.459   6.872 -0.2685  2.7170 -3.0311
   63MOL0     H 8284   9.437   0.227   6.911 -1.3996 -0.7155  0.3609
   63MOL0     H 8285   9.440   0.237   6.737 -1.2599  1.4445 -1.6712
   63MOL0     H 8286   9.196   0.178   6.730  2.5018 -0.9650 -2.2522
   63MOL0     H 8287   9.206   0.134   6.907  1.7331 -0.7662  1.0573
   63MOL0     H 8288   9.231  -0.063   6.746  1.0503 -1.6448  1.1232
   63MOL0     H 8289   9.380   0.022   6.697  2.4522  2.9701  3.2646
   63MOL0     H 8290   9.324  -0.090   6.969 -0.2070 -0.4055  0.2090
   63MOL0     H 8291   9.477  -0.001   6.933 -1.3586  3.0123  0.0798
   63MOL0     H 8292   9.517  -0.178   6.755  2.2422 -0.1060  1.1985
   63MOL0     H 8293   9.383  -0.274   6.822 -0.5100  0.7164 -0.4207
   63MOL0     H 8294   9.630  -0.182   6.963 -0.7548  0.5855 -1.7973
   63MOL0     H 8295   9.497  -0.274   7.042  1.8747  1.2044  2.4937
   63MOL0     H 8296   9.695  -0.413   6.966  0.9200  1.3394 -0.6528
   63MOL0     H 8297   9.662  -0.382   6.798  0.7543  0.1842  0.0634
   63MOL0     H 8298   9.106   0.572   6.856  0.5517  0.7813  0.3376
   63MOL0     H 8299   9.017   0.785   6.798  2.4112 -1.5988  3.8606
   63MOL0     H 8300   9.145   1.248   6.907 -1.1694  0.1380  0.8143
   63MOL0     H 8301   9.014   1.454   6.897 -0.7729 -0.3784  0.0873
   63MOL0     H 8302   9.141   2.363   7.158 -0.4272  0.8459 -0.7321
   63MOL0     H 8303   9.374   2.340   7.238  0.0944  2.5779  1.7730
   63MOL0     H 8304   9.879   2.537   6.935 -0.8834  2.6720  0.0624
   63MOL0     H 8305  10.112   2.557   7.012 -0.9388 -1.8524 -0.7382
   63MOL0     H 8306  10.283   2.649   7.130 -2.3036  0.1673 -0.2669
   63MOL0     H 8307  10.341   2.479   7.169  2.1820  1.9276 -0.4283
   63MOL0     H 8308  10.402   2.730   7.315  1.2144  0.5339  0.3794
   63MOL0     H 8309  10.443   2.562   7.371 -1.0173 -0.4634  0.1289
   63MOL0     H 8310  10.532   2.687   7.109 -0.4242 -0.2402  0.6516
   63MOL0     H 8311  10.590   2.528   7.183  3.0489 -0.0983  3.7499
   63MOL0     H 8312  10.630   2.806   7.292 -0.6463 -0.2811 -2.8829
   63MOL0     H 8313  10.663   2.648   7.386 -0.2116 -2.9792 -0.5199
   63MOL0     H 8314  11.014   2.698   7.156 -1.3646 -0.0665 -2.1641
   63MOL0     H 8315   9.980   2.522   7.419  0.2672 -2.1155 -0.3354
   63MOL0     H 8316   9.739   2.462   7.329 -1.2475  1.2059 -2.5490
   64MOL0     O 8317   5.878   4.005   6.561 -0.0643 -0.2247  0.2753
   64MOL0     C 8318   5.903   4.032   6.442  0.1952  0.4067  0.8635
   64MOL0     O 8319   5.816   4.089   6.356 -0.4893  0.0741  0.7487
   64MOL0     C 8320   5.696   4.144   6.377  0.3269 -0.8510 -0.3369
   64MOL0     C 8321   5.624   4.125   6.495  0.1361 -0.0448  0.2012
   64MOL0     C 8322   5.504   4.186   6.514  0.5245 -0.7327  0.5130
   64MOL0     C 8323   5.446   4.268   6.412  0.4697  0.4545  0.0217
   64MOL0     O 8324   5.316   4.298   6.434 -0.0606 -0.4861 -0.4145
   64MOL0     C 8325   5.280   4.440   6.413  1.2232  0.1551  0.2701
   64MOL0     C 8326   5.173   4.484   6.510  0.0123  0.0507  0.1749
   64MOL0     C 8327   5.038   4.414   6.495  0.0917  0.7142 -0.7415
   64MOL0     C 8328   4.955   4.456   6.374 -0.2808  0.1800 -0.9745
   64MOL0     C 8329   4.807   4.415   6.391  0.2215  0.3596 -0.3644
   64MOL0     C 8330   4.729   4.419   6.257 -0.0466  0.5135  0.0968
   64MOL0     C 8331   4.587   4.367   6.274 -0.3444  0.4568 -0.7484
   64MOL0     C 8332   4.507   4.374   6.142  0.2152  0.6866 -0.4521
   64MOL0     N 8333   4.382   4.297   6.149 -0.2022 -1.2464  0.5837
   64MOL0     C 8334   4.355   4.190   6.069 -1.4434 -0.3084 -0.6381
   64MOL0     C 8335   4.223   4.166   6.080  0.3102 -0.3519  1.2322
   64MOL0     C 8336   4.143   4.056   6.014 -0.5615  0.0076  0.0613
   64MOL0     C 8337   4.048   4.113   5.908 -0.3279 -0.6627  0.4398
   64MOL0     C 8338   4.122   4.212   5.817  0.2289  0.1056  0.3166
   64MOL0     C 8339   4.022   4.263   5.715 -0.5256 -0.1925  0.0015
   64MOL0     O 8340   3.947   4.379   5.764 -0.1966  0.2571 -0.1079
   64MOL0     C 8341   3.834   4.410   5.689  0.3418  0.0793 -0.4188
   64MOL0     C 8342   3.803   4.397   5.555 -0.7906 -0.6040  0.0039
   64MOL0     C 8343   3.678   4.438   5.509  0.5163 -0.3268  0.5810
   64MOL0     C 8344   3.583   4.506   5.581 -0.4847 -0.0541 -0.0872
   64MOL0     C 8345   3.460   4.559   5.538  0.5790 -0.6784  0.0835
   64MOL0     O 8346   3.407   4.524   5.418  0.5022  0.4904 -0.0354
   64MOL0     C 8347   3.301   4.594   5.378  0.4210 -0.0822 -0.1562
   64MOL0     C 8348   3.162   4.563   5.390  0.4737 -0.3430 -0.3237
   64MOL0     C 8349   3.071   4.661   5.344 -0.0130  0.4796 -0.4799
   64MOL0     C 8350   3.108   4.780   5.295 -0.8184 -0.8432  0.5011
   64MOL0     O 8351   3.011   4.858   5.241  0.0362 -0.3724 -1.0154
   64MOL0     C 8352   3.042   4.945   5.127 -0.0525  0.0574 -0.4976
   64MOL0     C 8353   2.917   4.948   5.033 -0.1731 -0.9262  0.0893
   64MOL0     C 8354   2.866   4.812   5.007  0.4400 -0.1455  0.2299
   64MOL0     C 8355   2.758   4.802   4.891  0.2675 -0.4762  0.0027
   64MOL0     C 8356   2.735   4.645   4.867  0.3139  0.2418 -0.2491
   64MOL0     C 8357   2.662   4.621   4.741  0.0292 -0.7245 -0.1795
   64MOL0     C 8358   2.692   4.480   4.671 -0.3349 -0.2994 -0.2632
   64MOL0     C 8359   2.590   4.444   4.564 -0.2028 -0.0800  0.9468
   64MOL0    Cl 8360   2.436   4.398   4.644  0.0072 -0.1235  0.0132
   64MOL0     C 8361   3.247   4.815   5.283  0.5369  0.0946 -0.3723
   64MOL0     C 8362   3.339   4.714   5.317 -0.0795  0.1300 -0.6580
   64MOL0     O 8363   3.416   4.649   5.608 -0.9023  0.4200  0.7814
   64MOL0     C 8364   3.612   4.499   5.721 -0.3831 -0.1650 -0.1706
   64MOL0     C 8365   3.736   4.456   5.774  0.2590 -0.2328  0.3966
   64MOL0     N 8366   4.168   4.262   6.160 -0.1641 -0.1750  0.0221
   64MOL0     N 8367   4.263   4.342   6.197 -0.5437  0.7417 -0.2067
   64MOL0     C 8368   5.516   4.288   6.286  0.0860 -0.8552 -0.2888
   64MOL0     C 8369   5.631   4.214   6.275 -0.6501  0.4198 -0.1351
   64MOL0     C 8370   6.034   3.993   6.393 -0.5514 -0.1642 -0.3932
   64MOL0     C 8371   6.136   3.947   6.489 -0.5964 -0.2499  0.9401
   64MOL0     C 8372   6.259   3.906   6.444 -0.6320  1.1779  0.5025
   64MOL0     C 8373   6.296   3.917   6.312  0.0596 -0.2809  0.4261
   64MOL0     O 8374   6.425   3.878   6.265  0.6040 -0.1854 -0.2980
   64MOL0     C 8375   6.539   3.893   6.345  0.2965  0.8069  0.1255
   64MOL0     C 8376   6.649   3.937   6.247  0.1641 -0.8238  0.1610
   64MOL0     C 8377   6.781   3.881   6.302 -0.1235 -0.1168 -0.3287
   64MOL0     C 8378   6.896   3.955   6.225  0.0678  0.9459 -0.2967
   64MOL0     C 8379   7.024   3.885   6.258  0.8373  0.0339  0.3247
   64MOL0     C 8380   7.135   3.841   6.283  0.2342  0.9535 -0.2331
   64MOL0     C 8381   6.196   3.967   6.223  0.3671 -0.0650 -0.1701
   64MOL0     C 8382   6.074   4.008   6.259  0.1508  0.0530  0.1663
   64MOL0     H 8383   5.663   4.059   6.572 -0.6474  0.8359  1.3802
   64MOL0     H 8384   5.441   4.158   6.598 -0.3437 -1.5507 -0.3862
   64MOL0     H 8385   5.237   4.467   6.316 -1.7826 -0.8029  1.2519
   64MOL0     H 8386   5.367   4.505   6.425  0.8390  0.9334 -0.9657
   64MOL0     H 8387   5.152   4.590   6.495 -3.3751 -0.6168 -0.5520
   64MOL0     H 8388   5.204   4.467   6.614 -0.2599  3.3966  0.9191
   64MOL0     H 8389   4.983   4.448   6.583 -1.1962 -1.4748 -0.6285
   64MOL0     H 8390   5.052   4.305   6.495  1.7992  0.8533 -3.2893
   64MOL0     H 8391   4.959   4.565   6.371  1.1804  0.1831 -0.0810
   64MOL0     H 8392   5.008   4.424   6.284  0.9188 -1.6837  0.3169
   64MOL0     H 8393   4.754   4.464   6.473 -1.6776  1.6349 -2.2197
   64MOL0     H 8394   4.821   4.309   6.414 -1.1805 -0.1434 -1.6551
   64MOL0     H 8395   4.786   4.357   6.187 -1.3637 -2.1631  1.2819
   64MOL0     H 8396   4.730   4.523   6.221  1.1394  0.9216  1.2153
   64MOL0     H 8397   4.596   4.266   6.314 -1.8090  0.6141  0.0731
   64MOL0     H 8398   4.546   4.430   6.354  0.3465 -1.7858  1.4740
   64MOL0     H 8399   4.566   4.348   6.053 -0.4858 -0.7063 -0.5301
   64MOL0     H 8400   4.469   4.476   6.128  0.9471  0.7095 -2.7555
   64MOL0     H 8401   4.425   4.134   6.009  2.7077 -1.4262  4.5753
   64MOL0     H 8402   4.092   4.013   6.101  1.7371  0.5895  1.7823
   64MOL0     H 8403   4.214   3.982   5.978 -0.0322 -0.0764  1.2285
   64MOL0     H 8404   3.969   4.166   5.963  1.9909  3.7164  0.0612
   64MOL0     H 8405   4.011   4.038   5.838 -0.3028 -1.3557  1.1519
   64MOL0     H 8406   4.145   4.297   5.882  1.2968 -0.8416  1.2371
   64MOL0     H 8407   4.209   4.164   5.770 -2.7231 -0.7269 -5.2066
   64MOL0     H 8408   3.956   4.190   5.668 -2.4424  0.6622  1.2122
   64MOL0     H 8409   4.085   4.309   5.638 -0.0823  0.9435  0.9991
   64MOL0     H 8410   3.876   4.345   5.495 -1.7052 -0.7357 -1.0391
   64MOL0     H 8411   3.639   4.404   5.413 -1.5071  4.3565 -0.5175
   64MOL0     H 8412   3.122   4.472   5.433 -3.3047  2.1766  2.1468
   64MOL0     H 8413   2.973   4.617   5.360  1.3226 -1.5843  3.1427
   64MOL0     H 8414   3.132   4.913   5.074  0.2945  0.8840 -0.4244
   64MOL0     H 8415   3.069   5.042   5.168  1.9834 -1.0062  0.8353
   64MOL0     H 8416   2.947   4.993   4.938 -0.5598 -2.1558 -0.6459
   64MOL0     H 8417   2.841   5.011   5.079 -2.9279 -2.6947 -1.7560
   64MOL0     H 8418   2.809   4.783   5.096 -0.1603  1.5694  0.4445
   64MOL0     H 8419   2.949   4.748   4.975 -0.1673 -1.2096  0.7345
   64MOL0     H 8420   2.662   4.846   4.920  0.0597  0.4334 -1.9503
   64MOL0     H 8421   2.794   4.863   4.808  1.5557  0.6661  1.3255
   64MOL0     H 8422   2.678   4.603   4.950  0.9381  1.6603  0.9407
   64MOL0     H 8423   2.831   4.593   4.856  1.0425  1.8382 -1.8826
   64MOL0     H 8424   2.677   4.709   4.679  1.8331  0.9176  2.3555
   64MOL0     H 8425   2.557   4.624   4.772  0.1516 -2.7194  0.6411
   64MOL0     H 8426   2.791   4.487   4.624 -0.5288 -2.4120 -1.0581
   64MOL0     H 8427   2.710   4.414   4.756  0.1800  1.3506  0.9533
   64MOL0     H 8428   2.628   4.369   4.493  0.0991  0.4696  0.5193
   64MOL0     H 8429   2.579   4.537   4.507  2.7626  2.5369  4.2199
   64MOL0     H 8430   3.274   4.917   5.257 -0.7260  1.4229  2.9677
   64MOL0     H 8431   3.446   4.731   5.323 -0.0761  0.2198 -0.9595
   64MOL0     H 8432   3.530   4.524   5.787 -0.2066 -1.6906  0.6832
   64MOL0     H 8433   3.757   4.461   5.880 -0.5697 -2.2630  0.6959
   64MOL0     H 8434   5.475   4.351   6.208 -1.3308 -0.4039  0.7886
   64MOL0     H 8435   5.689   4.230   6.184  1.4536 -0.8685  0.9169
   64MOL0     H 8436   6.118   3.940   6.596  0.9725  2.4040  1.4607
   64MOL0     H 8437   6.334   3.873   6.516 -1.5842 -0.4889  0.7900
   64MOL0     H 8438   6.562   3.794   6.384  2.2776  1.3401  0.4074
   64MOL0     H 8439   6.520   3.955   6.432  1.5354  1.0875  0.2216
   64MOL0     H 8440   6.629   3.897   6.147 -0.5764 -2.2005  0.8424
   64MOL0     H 8441   6.654   4.047   6.245  0.1298 -0.8208 -1.9331
   64MOL0     H 8442   6.780   3.773   6.284 -1.7308 -0.1356 -0.2832
   64MOL0     H 8443   6.771   3.904   6.409 -1.4168 -0.1091 -0.4339
   64MOL0     H 8444   6.893   3.946   6.116  1.5884  2.1738 -0.4677
   64MOL0     H 8445   6.896   4.060   6.253  0.9363  0.3864  2.0811
   64MOL0     H 8446   7.220   3.785   6.317 -0.3514 -0.5453 -1.1306
   64MOL0     H 8447   6.240   3.969   6.124  2.4605 -1.3254  0.6524
   64MOL0     H 8448   6.010   4.046   6.181 -0.8399 -0.3407  0.7728
   65MOL0     O 8449   2.902   1.730   4.408 -1.1025  0.0751  0.0379
   65MOL0     C 8450   2.914   1.854   4.420 -0.2677  0.8597 -0.4743
   65MOL0     O 8451   2.823   1.952   4.399  0.2551 -0.3292 -0.8043
   65MOL0     C 8452   2.690   1.930   4.409  0.8857  0.0385  0.5127
   65MOL0     C 8453   2.615   2.053   4.384  0.3276  0.5528 -0.8362
   65MOL0     C 8454   2.478   2.043   4.406  0.9478 -1.3031  0.2047
   65MOL0     C 8455   2.411   1.921   4.427  0.0933 -0.4582  0.1903
   65MOL0     O 8456   2.273   1.908   4.421 -0.5017  0.5265 -0.5342
   65MOL0     C 8457   2.184   2.016   4.392 -0.7708 -0.0976  0.3685
   65MOL0     C 8458   2.035   2.003   4.392 -0.4213  0.3652 -0.5161
   65MOL0     C 8459   1.980   1.985   4.533 -0.1283 -0.0779  0.1019
   65MOL0     C 8460   1.825   1.970   4.522 -0.2813 -0.7510  0.1185
   65MOL0     C 8461   1.760   1.979   4.662 -0.2608  0.1634  0.1990
   65MOL0     C 8462   1.610   1.995   4.647 -0.0410  0.2124  0.4950
   65MOL0     C 8463   1.534   1.983   4.782 -0.3608 -0.5820  0.2428
   65MOL0     C 8464   1.541   2.110   4.872  0.2014 -0.3539  0.3382
   65MOL0     N 8465   1.456   2.215   4.817 -0.1710  0.3173  0.6654
   65MOL0     C 8466   1.320   2.213   4.835 -0.4526 -0.7842  0.0172
   65MOL0     C 8467   1.275   2.334   4.793  0.4064 -1.0595  0.1173
   65MOL0     C 8468   1.132   2.385   4.789  0.4859 -0.4639  0.0733
   65MOL0     C 8469   1.098   2.421   4.935 -0.3193  0.9652 -0.4402
   65MOL0     C 8470   0.945   2.458   4.933  0.0998  0.5610  0.6595
   65MOL0     C 8471   0.862   2.430   5.055  0.2952 -0.0523  0.8067
   65MOL0     O 8472   0.741   2.355   5.030  0.3411  0.5427  0.4768
   65MOL0     C 8473   0.646   2.405   4.949 -0.1693 -0.1975 -0.0412
   65MOL0     C 8474   0.627   2.542   4.932 -0.7740  0.4663 -1.1787
   65MOL0     C 8475   0.519   2.580   4.857 -0.1848 -0.0866  0.3102
   65MOL0     C 8476   0.421   2.496   4.805  0.4509 -0.1262 -0.2277
   65MOL0     C 8477   0.301   2.558   4.745 -0.3656 -0.5590  0.2043
   65MOL0     O 8478   0.203   2.466   4.715  0.4123 -0.1021 -0.6253
   65MOL0     C 8479   0.073   2.503   4.684 -0.2229 -0.6471 -0.2932
   65MOL0     C 8480   0.044   2.629   4.628 -0.2009  0.0971  0.5406
   65MOL0     C 8481  -0.088   2.657   4.580  0.0820 -0.0710 -0.2923
   65MOL0     C 8482  -0.194   2.565   4.611 -1.0211 -0.6646  0.5897
   65MOL0     O 8483  -0.320   2.598   4.561  0.0128  0.1559  0.6902
   65MOL0     C 8484  -0.436   2.524   4.585  0.4338 -0.1296  0.2671
   65MOL0     C 8485  -0.555   2.609   4.528  0.3312  0.2869 -0.8680
   65MOL0     C 8486  -0.689   2.525   4.515  0.5516 -0.8560  0.2581
   65MOL0     C 8487  -0.808   2.616   4.484  1.3447  0.0086 -0.2132
   65MOL0     C 8488  -0.939   2.549   4.436 -0.1501 -0.4516 -0.7241
   65MOL0     C 8489  -0.915   2.443   4.331  0.3721  0.2576  0.7267
   65MOL0     C 8490  -1.045   2.376   4.280  0.0932 -0.1886  0.6360
   65MOL0     C 8491  -1.013   2.246   4.217 -0.1567  0.4572  0.7153
   65MOL0    Cl 8492  -1.172   2.158   4.196  0.2360 -0.6845  0.1015
   65MOL0     C 8493  -0.165   2.448   4.672  0.2740  0.2237 -0.3272
   65MOL0     C 8494  -0.031   2.416   4.716 -0.3013  0.0919  0.3861
   65MOL0     O 8495   0.287   2.680   4.755  0.4333  0.3923  0.9250
   65MOL0     C 8496   0.437   2.360   4.823 -0.5431 -0.6632  0.0293
   65MOL0     C 8497   0.547   2.314   4.898 -0.4944 -0.0129  0.0259
   65MOL0     N 8498   1.385   2.387   4.720 -0.6618  0.2073 -0.6366
   65MOL0     N 8499   1.490   2.314   4.737  0.4549  0.6736  0.8909
   65MOL0     C 8500   2.486   1.799   4.438 -0.4630 -0.6559  0.2553
   65MOL0     C 8501   2.620   1.809   4.441 -0.2927  0.5994 -0.5169
   65MOL0     C 8502   3.049   1.894   4.461 -0.4301 -0.9727  0.2491
   65MOL0     C 8503   3.079   2.019   4.525  0.1817  0.1880 -0.0238
   65MOL0     C 8504   3.211   2.056   4.553 -0.2224 -0.3688 -0.1179
   65MOL0     C 8505   3.317   1.962   4.520  0.3218  1.0305 -0.0834
   65MOL0     O 8506   3.452   1.974   4.538 -0.5466 -0.6675  0.5289
   65MOL0     C 8507   3.503   2.069   4.639 -0.6344  0.5415  0.0269
   65MOL0     C 8508   3.534   2.004   4.775 -0.5089  1.1220  0.1127
   65MOL0     C 8509   3.405   1.919   4.833 -0.5870 -0.4968 -0.0774
   65MOL0     C 8510   3.426   1.838   4.962 -0.6034  1.0586 -0.1523
   65MOL0     C 8511   3.297   1.832   5.035 -0.5690 -0.4165 -0.2307
   65MOL0     C 8512   3.193   1.838   5.097 -0.1517 -0.7646  0.9296
   65MOL0     C 8513   3.290   1.862   4.427 -0.2169  0.1867  0.6658
   65MOL0     C 8514   3.159   1.831   4.395  0.2644 -0.2169 -0.4712
   65MOL0     H 8515   2.664   2.148   4.367  0.8458  1.5975  4.6161
   65MOL0     H 8516   2.426   2.136   4.387  0.1363 -1.8806 -0.4783
   65MOL0     H 8517   2.210   2.040   4.289 -1.2815 -2.1422 -0.2797
   65MOL0     H 8518   2.203   2.095   4.465 -0.2592  0.5573 -0.4588
   65MOL0     H 8519   2.034   1.909   4.335  1.3732 -1.5407  2.3680
   65MOL0     H 8520   1.994   2.094   4.348  0.6644  0.7598 -0.7355
   65MOL0     H 8521   1.998   2.077   4.589 -3.3658  1.9439 -1.8467
   65MOL0     H 8522   2.015   1.892   4.580  0.0781 -0.6342 -1.1162
   65MOL0     H 8523   1.781   2.039   4.450 -0.2842 -0.1971  0.6507
   65MOL0     H 8524   1.798   1.869   4.487 -3.2601 -0.2931  0.7996
   65MOL0     H 8525   1.798   2.060   4.724  0.5420  0.1771 -0.2991
   65MOL0     H 8526   1.779   1.880   4.704  0.5515 -0.5597 -1.7305
   65MOL0     H 8527   1.563   1.913   4.592 -0.4118 -0.1509  1.3436
   65MOL0     H 8528   1.589   2.087   4.590  3.5511 -1.0776 -3.4851
   65MOL0     H 8529   1.427   1.964   4.767 -0.7528  0.4333  1.5223
   65MOL0     H 8530   1.578   1.899   4.837  2.3833  0.0566 -0.8094
   65MOL0     H 8531   1.639   2.158   4.871 -0.5712  1.2898  0.4640
   65MOL0     H 8532   1.508   2.086   4.974  1.4966 -3.9206  0.0360
   65MOL0     H 8533   1.275   2.131   4.890  2.3417 -3.0309 -0.8219
   65MOL0     H 8534   1.065   2.309   4.748 -1.5485  1.4653 -0.3387
   65MOL0     H 8535   1.119   2.477   4.731 -0.8708 -1.0741 -0.6467
   65MOL0     H 8536   1.153   2.510   4.968 -1.5606  0.2452  4.3435
   65MOL0     H 8537   1.125   2.341   5.005  1.9443  2.3188  0.3442
   65MOL0     H 8538   0.927   2.564   4.917  1.0248  1.3794  4.2001
   65MOL0     H 8539   0.889   2.401   4.858 -2.8317  2.6303  1.1078
   65MOL0     H 8540   0.830   2.522   5.104 -0.8459  0.1015 -0.1916
   65MOL0     H 8541   0.925   2.378   5.128  1.3509  1.5755  1.1036
   65MOL0     H 8542   0.688   2.626   4.965  1.0385  0.1073 -3.3663
   65MOL0     H 8543   0.504   2.687   4.846 -0.7907 -0.2908 -1.0191
   65MOL0     H 8544   0.118   2.707   4.609  0.0217  0.1310  1.5165
   65MOL0     H 8545  -0.106   2.748   4.523  0.5384  1.7897  2.3714
   65MOL0     H 8546  -0.445   2.516   4.694  0.3561  1.7489  0.4436
   65MOL0     H 8547  -0.431   2.427   4.535  1.5602  0.8551 -1.6096
   65MOL0     H 8548  -0.547   2.660   4.432 -4.6249 -0.8766 -2.1452
   65MOL0     H 8549  -0.576   2.688   4.601 -3.5456 -1.9312  0.7060
   65MOL0     H 8550  -0.702   2.467   4.607 -1.2039  0.4145  0.8823
   65MOL0     H 8551  -0.679   2.451   4.436 -2.3237 -0.6992 -0.3627
   65MOL0     H 8552  -0.820   2.692   4.561 -0.5465 -0.0145 -0.4309
   65MOL0     H 8553  -0.779   2.670   4.393  0.3640  0.5447 -0.2217
   65MOL0     H 8554  -1.003   2.624   4.390  0.7929 -0.4027 -2.0409
   65MOL0     H 8555  -0.988   2.502   4.522 -1.4403  1.9607 -0.0643
   65MOL0     H 8556  -0.856   2.369   4.385 -0.8564 -1.2633  0.0563
   65MOL0     H 8557  -0.853   2.478   4.248 -1.3074 -0.3708 -0.8797
   65MOL0     H 8558  -1.121   2.361   4.357 -1.8188  1.0179 -0.9245
   65MOL0     H 8559  -1.097   2.429   4.200  2.0366 -0.4540 -0.8612
   65MOL0     H 8560  -0.938   2.196   4.279  1.2131 -0.0474 -1.2415
   65MOL0     H 8561  -0.973   2.265   4.117 -0.4299 -1.1873  0.2545
   65MOL0     H 8562  -0.235   2.371   4.703  0.0384  0.0063 -1.3585
   65MOL0     H 8563  -0.002   2.329   4.773 -1.2477  1.3266  2.8852
   65MOL0     H 8564   0.368   2.281   4.798  1.1821 -2.1846 -0.1785
   65MOL0     H 8565   0.539   2.206   4.911 -1.8026 -0.2486 -2.2152
   65MOL0     H 8566   2.430   1.708   4.460 -0.1444 -0.9531 -0.1441
   65MOL0     H 8567   2.669   1.713   4.450 -2.4580 -0.7943 -2.4276
   65MOL0     H 8568   2.994   2.076   4.560 -0.0711  0.6167 -1.2816
   65MOL0     H 8569   3.234   2.151   4.600  1.5508  1.8881 -4.9189
   65MOL0     H 8570   3.438   2.155   4.657  0.3089  1.1507  0.6666
   65MOL0     H 8571   3.588   2.121   4.594 -2.2663  4.0224  0.6460
   65MOL0     H 8572   3.617   1.934   4.757 -1.5852  0.3690 -2.3174
   65MOL0     H 8573   3.574   2.081   4.842  0.2380 -0.1855  1.2499
   65MOL0     H 8574   3.373   1.851   4.753  2.4024 -2.2103  0.0362
   65MOL0     H 8575   3.322   1.986   4.856 -0.0125 -0.1395  1.0053
   65MOL0     H 8576   3.449   1.733   4.940 -0.5098  1.2571 -1.0512
   65MOL0     H 8577   3.505   1.875   5.027  0.5061 -3.0976  1.1255
   65MOL0     H 8578   3.107   1.843   5.161 -0.6098 -0.8455  0.3340
   65MOL0     H 8579   3.372   1.814   4.376  0.4678  3.2411 -1.4358
   65MOL0     H 8580   3.150   1.756   4.318 -0.2099 -0.7795  0.1279
   66MOL0     O 8581   0.673   9.374   3.929 -0.2304 -0.4018  0.4270
   66MOL0     C 8582   0.738   9.318   4.017  0.3373  0.1637  0.3345
   66MOL0     O 8583   0.691   9.197   4.080  0.7920 -0.6979 -0.9062
   66MOL0     C 8584   0.569   9.163   4.038  0.5429  0.8739 -0.8574
   66MOL0     C 8585   0.541   9.039   3.972  0.1516 -0.2086  0.1524
   66MOL0     C 8586   0.413   9.010   3.936 -0.4796  0.4364  0.5631
   66MOL0     C 8587   0.310   9.100   3.960  0.5289  0.8917 -0.1993
   66MOL0     O 8588   0.186   9.064   3.921  0.1414  0.3112 -0.4720
   66MOL0     C 8589   0.077   9.156   3.894 -0.5583 -0.2259 -1.2630
   66MOL0     C 8590  -0.023   9.080   3.799  0.1111  0.4923  0.0035
   66MOL0     C 8591  -0.148   9.161   3.766 -0.5704  0.1429  1.2276
   66MOL0     C 8592  -0.248   9.076   3.680 -0.5554  0.5392 -0.1217
   66MOL0     C 8593  -0.381   9.147   3.666  0.3543  0.0306 -0.7102
   66MOL0     C 8594  -0.476   9.095   3.558  0.7099 -0.3337  0.2588
   66MOL0     C 8595  -0.540   8.962   3.607  0.8781  0.2556 -0.4238
   66MOL0     C 8596  -0.629   8.971   3.730 -0.1955 -0.7524 -0.9953
   66MOL0     N 8597  -0.750   9.051   3.714 -0.9914 -0.4402  0.5079
   66MOL0     C 8598  -0.803   9.112   3.824 -0.0384  0.3717 -0.5601
   66MOL0     C 8599  -0.918   9.167   3.775 -0.3906 -0.0952 -0.1626
   66MOL0     C 8600  -1.019   9.261   3.839  0.0791 -0.0654  0.1747
   66MOL0     C 8601  -1.158   9.210   3.810 -0.9391 -0.0872 -0.5490
   66MOL0     C 8602  -1.266   9.278   3.899 -0.9947 -0.0762  0.8922
   66MOL0     C 8603  -1.395   9.214   3.871 -0.1442  0.0705  0.2700
   66MOL0     O 8604  -1.487   9.267   3.966  0.6615  0.7299 -0.9949
   66MOL0     C 8605  -1.616   9.242   3.935  0.5758  0.7810  0.3654
   66MOL0     C 8606  -1.702   9.302   4.023  0.8436 -0.4278  0.4172
   66MOL0     C 8607  -1.840   9.282   4.019 -0.2794 -0.4333  0.1852
   66MOL0     C 8608  -1.896   9.203   3.922  0.1710  0.3724  0.0054
   66MOL0     C 8609  -2.046   9.179   3.915  0.2303  0.2411 -1.1086
   66MOL0     O 8610  -2.126   9.278   3.973 -0.0265  0.7771 -0.5730
   66MOL0     C 8611  -2.259   9.247   3.966  0.2118  0.7542  0.1139
   66MOL0     C 8612  -2.322   9.189   4.078 -0.4664 -0.0096  0.1088
   66MOL0     C 8613  -2.464   9.150   4.065 -0.4518  0.0013  0.0002
   66MOL0     C 8614  -2.535   9.187   3.945  0.5492 -1.1774 -0.5651
   66MOL0     O 8615  -2.666   9.160   3.909 -0.1808 -0.0796 -0.6604
   66MOL0     C 8616  -2.748   9.062   3.983 -0.3544  0.6265  0.0826
   66MOL0     C 8617  -2.818   9.131   4.105  0.2220  0.3672  0.0048
   66MOL0     C 8618  -2.879   9.022   4.196  0.1284 -0.2176  0.4175
   66MOL0     C 8619  -2.993   8.939   4.123 -0.5461 -0.3810  0.1713
   66MOL0     C 8620  -3.063   8.851   4.220 -0.1641  0.5352  0.4994
   66MOL0     C 8621  -3.182   8.792   4.149 -0.0504 -0.6264 -0.1907
   66MOL0     C 8622  -3.282   8.704   4.227  1.2627 -0.1967 -0.3575
   66MOL0     C 8623  -3.425   8.697   4.158 -0.4165 -0.1781  0.3589
   66MOL0    Cl 8624  -3.402   8.629   3.989  0.6403  0.0245  0.0917
   66MOL0     C 8625  -2.467   9.272   3.849 -0.3642 -0.2452  0.4386
   66MOL0     C 8626  -2.326   9.288   3.851  0.5715  0.7859  0.4713
   66MOL0     O 8627  -2.091   9.077   3.862  0.0300  1.1529 -0.6758
   66MOL0     C 8628  -1.805   9.136   3.835 -0.0206 -1.0269  0.1423
   66MOL0     C 8629  -1.665   9.157   3.842  0.0635 -0.2736 -0.4827
   66MOL0     N 8630  -0.928   9.144   3.637 -0.4576 -0.1302  0.3820
   66MOL0     N 8631  -0.828   9.076   3.602  0.1722  0.2979 -0.1386
   66MOL0     C 8632   0.336   9.215   4.027  0.0858 -0.1848 -1.0014
   66MOL0     C 8633   0.458   9.244   4.079 -0.2549 -0.7626  0.0819
   66MOL0     C 8634   0.856   9.369   4.078 -0.3878  0.4114  0.0339
   66MOL0     C 8635   0.915   9.484   4.029 -0.3640 -1.0756  0.9336
   66MOL0     C 8636   1.024   9.541   4.104 -0.3537  0.0304  0.6074
   66MOL0     C 8637   1.071   9.488   4.221 -0.4716  0.5412  0.1640
   66MOL0     O 8638   1.181   9.551   4.272 -0.1897 -0.3885  0.1764
   66MOL0     C 8639   1.227   9.507   4.398 -0.1980  0.4649  0.6323
   66MOL0     C 8640   1.338   9.594   4.458  0.1109 -0.2377  0.4463
   66MOL0     C 8641   1.473   9.523   4.467  0.1997  0.0198  0.5007
   66MOL0     C 8642   1.540   9.513   4.325  0.1539  0.0729 -0.1396
   66MOL0     C 8643   1.650   9.417   4.331  0.0876 -0.2226  0.3908
   66MOL0     C 8644   1.743   9.339   4.321 -0.8153 -0.0996 -0.5697
   66MOL0     C 8645   1.026   9.367   4.259  0.6253 -0.1236 -0.7928
   66MOL0     C 8646   0.913   9.311   4.192 -0.0795  0.4110 -0.5506
   66MOL0     H 8647   0.624   8.977   3.943 -1.8071 -1.8780 -2.2142
   66MOL0     H 8648   0.395   8.921   3.878 -2.7166  0.8702  0.4944
   66MOL0     H 8649   0.115   9.253   3.860  0.3412 -0.5607 -1.2411
   66MOL0     H 8650   0.032   9.161   3.993 -1.3421 -1.7045 -1.5193
   66MOL0     H 8651  -0.048   8.979   3.831  2.4964 -0.3886 -0.7051
   66MOL0     H 8652   0.020   9.062   3.700 -1.2634 -0.2904 -0.4672
   66MOL0     H 8653  -0.118   9.256   3.722 -0.4865  1.0260  3.0774
   66MOL0     H 8654  -0.200   9.175   3.862 -0.9271 -0.7743  1.1817
   66MOL0     H 8655  -0.217   9.062   3.576  2.5922  2.5698  0.4267
   66MOL0     H 8656  -0.265   8.978   3.726 -0.2670  1.4701  2.0747
   66MOL0     H 8657  -0.358   9.253   3.656 -1.8489  0.3816 -3.7430
   66MOL0     H 8658  -0.430   9.140   3.764  0.1886 -0.6852 -0.8363
   66MOL0     H 8659  -0.428   9.070   3.463  0.5525  2.0255 -0.4959
   66MOL0     H 8660  -0.559   9.164   3.539 -1.6406 -2.6695  1.3107
   66MOL0     H 8661  -0.607   8.934   3.525 -0.9707 -1.4623  1.5156
   66MOL0     H 8662  -0.465   8.883   3.610 -1.3082 -1.9504  0.3786
   66MOL0     H 8663  -0.577   9.015   3.816 -1.0052  0.7135 -1.2085
   66MOL0     H 8664  -0.652   8.869   3.760  0.0489 -0.5635 -0.1302
   66MOL0     H 8665  -0.774   9.104   3.928 -2.0112  0.6623  0.0632
   66MOL0     H 8666  -1.011   9.364   3.804 -3.6086 -0.1915 -1.5376
   66MOL0     H 8667  -1.011   9.270   3.948 -1.3429  1.4573  0.1965
   66MOL0     H 8668  -1.167   9.102   3.826 -0.4602 -0.1439 -0.6317
   66MOL0     H 8669  -1.176   9.214   3.703  0.5282 -0.8177 -0.8549
   66MOL0     H 8670  -1.241   9.262   4.004  0.2951  1.2920  0.8417
   66MOL0     H 8671  -1.272   9.387   3.888 -5.1266 -0.3041 -0.8853
   66MOL0     H 8672  -1.377   9.107   3.875  0.1499 -0.2648 -4.2894
   66MOL0     H 8673  -1.423   9.229   3.766  0.5513 -0.5192 -0.0000
   66MOL0     H 8674  -1.663   9.357   4.108 -1.8604  1.6290  0.4572
   66MOL0     H 8675  -1.906   9.331   4.089 -1.0521 -0.0490 -0.7785
   66MOL0     H 8676  -2.250   9.152   4.151 -2.3172  0.4677  2.2736
   66MOL0     H 8677  -2.511   9.088   4.140  2.9262 -0.4794  1.9384
   66MOL0     H 8678  -2.681   8.981   4.013  1.1160  2.3458  1.6695
   66MOL0     H 8679  -2.830   9.017   3.927 -1.7680  0.9341  1.7991
   66MOL0     H 8680  -2.902   9.192   4.069 -0.2972 -1.1823 -1.6005
   66MOL0     H 8681  -2.745   9.189   4.161  0.7302  1.9171 -2.1195
   66MOL0     H 8682  -2.934   9.074   4.275 -1.2829  0.9118 -1.2565
   66MOL0     H 8683  -2.806   8.954   4.241 -0.2120 -0.6239  0.3571
   66MOL0     H 8684  -3.061   9.018   4.091  0.1570  1.7423  3.4051
   66MOL0     H 8685  -2.951   8.888   4.035  2.2766  0.7398  0.7553
   66MOL0     H 8686  -3.098   8.903   4.310  2.6990  1.7371  1.0172
   66MOL0     H 8687  -2.994   8.771   4.247  0.9833  0.4227 -2.4414
   66MOL0     H 8688  -3.148   8.732   4.064  1.3754  0.0819 -0.1479
   66MOL0     H 8689  -3.242   8.878   4.119  0.2309 -0.0908  0.7406
   66MOL0     H 8690  -3.247   8.603   4.250 -0.0675 -0.6416 -0.1934
   66MOL0     H 8691  -3.303   8.747   4.325  0.9491 -1.4736  0.1497
   66MOL0     H 8692  -3.468   8.796   4.146  0.6035 -0.0118 -2.8312
   66MOL0     H 8693  -3.494   8.636   4.216  2.2282 -1.1583  2.7450
   66MOL0     H 8694  -2.523   9.299   3.760  2.1374 -1.4067 -1.6288
   66MOL0     H 8695  -2.286   9.342   3.766 -0.6012  2.1464  0.7581
   66MOL0     H 8696  -1.851   9.068   3.764 -1.9251  0.7183 -0.3912
   66MOL0     H 8697  -1.594   9.100   3.783  1.9497  2.0533 -0.5912
   66MOL0     H 8698   0.254   9.285   4.043 -1.2601 -1.9058 -0.0078
   66MOL0     H 8699   0.478   9.333   4.138  1.3550 -2.0827  1.6255
   66MOL0     H 8700   0.877   9.530   3.939  0.5770 -3.3213 -0.7063
   66MOL0     H 8701   1.063   9.637   4.071  0.5070 -0.2665  0.7366
   66MOL0     H 8702   1.258   9.402   4.388 -2.2613 -0.0215 -1.7760
   66MOL0     H 8703   1.138   9.511   4.461  0.7462  2.5930  1.9462
   66MOL0     H 8704   1.344   9.685   4.397 -1.1968 -1.1401 -1.1231
   66MOL0     H 8705   1.305   9.615   4.560 -3.9157 -4.0939  0.2519
   66MOL0     H 8706   1.458   9.421   4.506 -1.1158 -1.8533 -4.2217
   66MOL0     H 8707   1.528   9.589   4.534 -2.7313  3.3050 -0.0302
   66MOL0     H 8708   1.472   9.458   4.259  0.4747 -1.8267  1.0215
   66MOL0     H 8709   1.555   9.614   4.286 -0.0427 -0.0723 -0.5972
   66MOL0     H 8710   1.822   9.270   4.299  1.4819  2.1863  0.0448
   66MOL0     H 8711   1.070   9.329   4.350  1.5567  2.5036 -0.0384
   66MOL0     H 8712   0.868   9.222   4.233 -0.1433  1.0632  0.8418
   67MOL0     O 8713   8.546   9.538   5.691 -0.8927 -0.2409  0.5293
   67MOL0     C 8714   8.559   9.560   5.810  0.0134 -0.5938 -1.0972
   67MOL0     O 8715   8.454   9.554   5.891 -1.1284 -0.6963  0.0134
   67MOL0     C 8716   8.348   9.481   5.863  0.1836  0.6268 -0.7622
   67MOL0     C 8717   8.227   9.537   5.866  0.4023 -0.1231  0.5536
   67MOL0     C 8718   8.118   9.468   5.835  0.3805 -0.0192  1.3237
   67MOL0     C 8719   8.138   9.334   5.786  0.0748 -0.0050 -0.7369
   67MOL0     O 8720   8.036   9.261   5.731 -0.5202  0.2863 -0.0094
   67MOL0     C 8721   7.998   9.150   5.819  0.3597 -0.1292 -0.1502
   67MOL0     C 8722   7.844   9.118   5.785 -0.4741 -0.0537  0.4610
   67MOL0     C 8723   7.740   9.203   5.847  0.2759 -0.3202 -0.8602
   67MOL0     C 8724   7.715   9.147   5.987  0.4836  0.5374 -0.0471
   67MOL0     C 8725   7.629   9.223   6.085 -0.4402  0.2807 -0.2068
   67MOL0     C 8726   7.620   9.150   6.220  0.7944 -0.4512  0.0615
   67MOL0     C 8727   7.490   9.205   6.297  0.7179  0.8364 -0.1722
   67MOL0     C 8728   7.488   9.127   6.428  0.3519 -0.5172  0.1375
   67MOL0     N 8729   7.460   8.982   6.416  0.4546 -0.6134  0.2796
   67MOL0     C 8730   7.348   8.919   6.357  0.2266 -0.6156 -0.4634
   67MOL0     C 8731   7.380   8.786   6.364 -0.0181 -0.9193  0.6641
   67MOL0     C 8732   7.302   8.670   6.310  0.0950  0.4931  0.2671
   67MOL0     C 8733   7.159   8.660   6.352  0.0682  0.5935  0.0704
   67MOL0     C 8734   7.140   8.640   6.506  0.1158  0.0811 -0.1141
   67MOL0     C 8735   7.007   8.579   6.549 -0.3433 -0.2573 -0.6764
   67MOL0     O 8736   6.908   8.670   6.512  0.7678 -0.7210  0.1496
   67MOL0     C 8737   6.786   8.640   6.576 -0.5650  0.4361  0.1621
   67MOL0     C 8738   6.683   8.728   6.540  0.2150  0.4200 -0.0858
   67MOL0     C 8739   6.551   8.705   6.581  0.6475 -0.4389  0.1749
   67MOL0     C 8740   6.517   8.603   6.670 -0.1594 -0.5995 -0.4120
   67MOL0     C 8741   6.381   8.586   6.707  0.4781  0.9256  0.3855
   67MOL0     O 8742   6.294   8.693   6.676  0.4144  0.5106 -0.4342
   67MOL0     C 8743   6.163   8.656   6.672  0.2350 -0.4434 -0.4325
   67MOL0     C 8744   6.109   8.581   6.569 -0.0550 -0.5675  0.6020
   67MOL0     C 8745   5.973   8.573   6.559 -0.6406 -0.1966 -0.6639
   67MOL0     C 8746   5.885   8.641   6.645  0.1714 -0.4847 -0.0784
   67MOL0     O 8747   5.752   8.632   6.633  0.1635 -0.6427  0.2547
   67MOL0     C 8748   5.699   8.505   6.672 -0.0781 -0.6577 -0.0366
   67MOL0     C 8749   5.585   8.457   6.577  0.3400  0.0799 -0.8804
   67MOL0     C 8750   5.511   8.320   6.612 -1.0049 -0.8448  0.1534
   67MOL0     C 8751   5.384   8.354   6.686  0.5215 -0.2881  0.0170
   67MOL0     C 8752   5.325   8.243   6.776  0.5971  1.6111  0.3592
   67MOL0     C 8753   5.257   8.134   6.694  0.0421  0.4313 -0.9579
   67MOL0     C 8754   5.370   8.031   6.645 -0.4783  0.2761 -0.1231
   67MOL0     C 8755   5.308   7.944   6.537  0.3442 -0.3369 -0.0658
   67MOL0    Cl 8756   5.290   7.771   6.592 -0.3602 -0.1347  0.2759
   67MOL0     C 8757   5.941   8.724   6.743 -0.2008 -0.1274 -0.2919
   67MOL0     C 8758   6.082   8.728   6.758 -0.2152  0.5160 -0.2617
   67MOL0     O 8759   6.340   8.478   6.755  0.7953 -0.4660  0.1036
   67MOL0     C 8760   6.625   8.509   6.708 -0.4663  0.0500 -0.6380
   67MOL0     C 8761   6.758   8.528   6.656 -0.4423  0.7251 -0.3107
   67MOL0     N 8762   7.502   8.772   6.432 -0.2465  0.1478 -1.0183
   67MOL0     N 8763   7.545   8.888   6.461 -0.7728 -0.2771 -0.0939
   67MOL0     C 8764   8.264   9.272   5.802  0.3446  0.8574  0.3118
   67MOL0     C 8765   8.362   9.349   5.844 -1.0523 -0.7618  0.4769
   67MOL0     C 8766   8.700   9.581   5.865  0.7045  0.9747  0.8261
   67MOL0     C 8767   8.725   9.642   5.983 -0.7490 -0.4201 -0.1213
   67MOL0     C 8768   8.853   9.667   6.033 -0.2015  0.7855 -0.4698
   67MOL0     C 8769   8.960   9.615   5.958 -0.6152 -0.3654  0.2552
   67MOL0     O 8770   9.093   9.635   5.989  0.3053  0.3488  0.0633
   67MOL0     C 8771   9.151   9.580   6.110 -0.6300  0.7561  0.0477
   67MOL0     C 8772   9.204   9.686   6.218 -0.5249 -0.1070 -0.6534
   67MOL0     C 8773   9.268   9.811   6.153  0.5982 -0.4585 -0.1016
   67MOL0     C 8774   9.394   9.847   6.219 -0.4285 -0.0201  0.2817
   67MOL0     C 8775   9.510   9.755   6.179  0.1802 -0.1513  0.3260
   67MOL0     C 8776   9.602   9.693   6.140 -0.5444  0.5308  0.1839
   67MOL0     C 8777   8.935   9.549   5.832  0.5061  0.1399 -0.2909
   67MOL0     C 8778   8.811   9.538   5.781 -0.1207  0.7977  0.5369
   67MOL0     H 8779   8.222   9.637   5.908 -1.8136 -1.0948  2.9480
   67MOL0     H 8780   8.019   9.512   5.824  1.3266  1.5927 -1.9020
   67MOL0     H 8781   8.020   9.184   5.921 -0.9415  1.9130 -0.4822
   67MOL0     H 8782   8.057   9.061   5.799 -0.8368 -1.0765  0.4209
   67MOL0     H 8783   7.825   9.012   5.804 -1.6015  0.6290  3.7609
   67MOL0     H 8784   7.840   9.123   5.676  1.4751 -1.2151  0.2846
   67MOL0     H 8785   7.648   9.206   5.788 -2.1217 -0.2224  2.5936
   67MOL0     H 8786   7.768   9.308   5.856  0.4967 -0.5635  2.9206
   67MOL0     H 8787   7.662   9.051   5.983  3.1838 -1.0958  0.9903
   67MOL0     H 8788   7.808   9.121   6.037 -0.9434 -3.2592  1.0271
   67MOL0     H 8789   7.528   9.237   6.047 -0.2630  0.1287 -0.7371
   67MOL0     H 8790   7.673   9.321   6.105  0.5031 -0.6279  2.8346
   67MOL0     H 8791   7.701   9.177   6.288  0.0767 -0.2857  0.8645
   67MOL0     H 8792   7.624   9.041   6.209 -0.9129 -0.6028  0.6847
   67MOL0     H 8793   7.506   9.311   6.317  1.6906  0.7436 -0.4248
   67MOL0     H 8794   7.394   9.186   6.247 -0.0320 -2.0011  2.0254
   67MOL0     H 8795   7.410   9.171   6.491  1.8589 -1.3280  2.7413
   67MOL0     H 8796   7.581   9.147   6.482 -0.8330  0.0459  2.0480
   67MOL0     H 8797   7.267   8.973   6.310 -0.5240 -0.4918  0.9314
   67MOL0     H 8798   7.362   8.580   6.328 -0.5955 -0.6243 -2.4437
   67MOL0     H 8799   7.301   8.660   6.201 -1.7496 -3.1651  0.4666
   67MOL0     H 8800   7.116   8.571   6.307 -0.3445  0.8172  0.0190
   67MOL0     H 8801   7.096   8.739   6.311 -0.2709  0.4552  0.3208
   67MOL0     H 8802   7.223   8.580   6.544 -0.4655 -1.2776 -0.9349
   67MOL0     H 8803   7.148   8.736   6.559  0.2896 -0.5558  1.0527
   67MOL0     H 8804   7.023   8.557   6.655  1.4246 -1.0954 -1.0714
   67MOL0     H 8805   6.996   8.486   6.491  1.3485  0.3255 -2.0408
   67MOL0     H 8806   6.699   8.810   6.471 -0.2063  1.4089  0.9479
   67MOL0     H 8807   6.486   8.785   6.547  1.3784 -1.0495 -2.9606
   67MOL0     H 8808   6.175   8.528   6.501  0.5833 -0.7178  1.3271
   67MOL0     H 8809   5.930   8.505   6.486 -0.3856  0.7265 -1.6921
   67MOL0     H 8810   5.654   8.518   6.771 -1.2758  1.3617 -0.7750
   67MOL0     H 8811   5.781   8.435   6.689  0.2677 -0.2944 -0.1866
   67MOL0     H 8812   5.624   8.438   6.476  2.8191 -0.4471  0.1243
   67MOL0     H 8813   5.516   8.542   6.568  0.5443  0.6422  2.1267
   67MOL0     H 8814   5.579   8.262   6.674 -1.1334  1.6872  2.9189
   67MOL0     H 8815   5.488   8.273   6.516  0.9137  2.6792 -2.2865
   67MOL0     H 8816   5.406   8.437   6.754 -2.1811  0.3791  0.1827
   67MOL0     H 8817   5.308   8.396   6.619 -2.4103  0.7037  3.6294
   67MOL0     H 8818   5.255   8.296   6.841  0.2030 -0.6474  1.8817
   67MOL0     H 8819   5.403   8.201   6.840 -0.5057  1.5481  1.7059
   67MOL0     H 8820   5.212   8.180   6.606 -2.5929 -0.2021 -0.0351
   67MOL0     H 8821   5.176   8.091   6.753  1.1767  1.3954  1.4265
   67MOL0     H 8822   5.454   8.083   6.597  0.1434 -0.0137  0.6170
   67MOL0     H 8823   5.412   7.978   6.731  2.3863 -1.4545 -2.3677
   67MOL0     H 8824   5.378   7.942   6.453  2.6690 -1.4710  1.7766
   67MOL0     H 8825   5.216   7.990   6.500  0.4231 -0.2880 -0.2028
   67MOL0     H 8826   5.883   8.794   6.803  0.8044 -0.0540  0.6252
   67MOL0     H 8827   6.123   8.782   6.842  2.1515 -1.7416  0.1647
   67MOL0     H 8828   6.601   8.427   6.776 -1.1874 -0.3494 -1.3646
   67MOL0     H 8829   6.836   8.454   6.674 -0.1453  1.0973 -0.0667
   67MOL0     H 8830   8.280   9.170   5.769  1.1517  1.6526 -1.9775
   67MOL0     H 8831   8.460   9.305   5.857  0.0331  1.5770  0.7660
   67MOL0     H 8832   8.648   9.683   6.047  0.4403 -0.9069  1.7038
   67MOL0     H 8833   8.871   9.725   6.123  3.6364 -0.1832 -0.4334
   67MOL0     H 8834   9.238   9.523   6.076 -1.1072 -0.3388  0.6318
   67MOL0     H 8835   9.086   9.505   6.156  0.6819 -0.5626 -0.1853
   67MOL0     H 8836   9.137   9.731   6.291  0.7123  1.0026 -0.1661
   67MOL0     H 8837   9.278   9.630   6.276  0.6551  0.2333 -1.7691
   67MOL0     H 8838   9.199   9.896   6.157  0.4249 -0.6096  0.1210
   67MOL0     H 8839   9.281   9.780   6.049  0.1774 -0.8054 -0.0516
   67MOL0     H 8840   9.409   9.953   6.198  1.6183 -0.4980 -0.9640
   67MOL0     H 8841   9.370   9.836   6.325 -2.4920  2.5651  0.1807
   67MOL0     H 8842   9.694   9.649   6.108 -0.3445  0.7600  0.4360
   67MOL0     H 8843   9.028   9.518   5.785  1.5223 -0.9990  2.2816
   67MOL0     H 8844   8.795   9.494   5.683 -2.1837  3.0890 -0.2690
   68MOL0     O 8845   8.694   1.413   1.100 -0.0429 -0.6216  0.0729
   68MOL0     C 8846   8.658   1.421   0.982 -0.2635 -0.0507 -0.6445
   68MOL0     O 8847   8.549   1.346   0.934 -0.4732 -0.3637 -0.9264
   68MOL0     C 8848   8.449   1.335   1.026  0.7919  0.7441 -0.8255
   68MOL0     C 8849   8.426   1.206   1.080 -0.0456 -0.5332  0.4304
   68MOL0     C 8850   8.320   1.183   1.160  0.2698  0.2371 -0.1819
   68MOL0     C 8851   8.234   1.280   1.203 -0.3601 -0.3850 -0.7686
   68MOL0     O 8852   8.127   1.252   1.283 -0.2628 -0.1768 -0.2262
   68MOL0     C 8853   8.148   1.145   1.386  0.0235 -0.9569  0.1962
   68MOL0     C 8854   8.043   1.177   1.489  0.3393 -0.1903 -0.7639
   68MOL0     C 8855   7.899   1.180   1.433 -0.4781 -0.3885 -0.0926
   68MOL0     C 8856   7.840   1.045   1.394  0.2397  0.0646 -0.0469
   68MOL0     C 8857   7.687   1.033   1.414  0.3943  0.5188 -0.3500
   68MOL0     C 8858   7.639   0.890   1.457  0.0261 -0.0518  0.5678
   68MOL0     C 8859   7.651   0.793   1.342 -0.0158 -0.0001 -0.2192
   68MOL0     C 8860   7.605   0.650   1.381  0.5307  0.3319 -0.2159
   68MOL0     N 8861   7.684   0.583   1.489  0.7734  0.3483  0.2583
   68MOL0     C 8862   7.806   0.537   1.470 -0.2213 -0.1827 -0.7294
   68MOL0     C 8863   7.843   0.477   1.594 -0.5231  0.1113 -0.1607
   68MOL0     C 8864   7.982   0.427   1.629 -0.5908  0.1678  0.1961
   68MOL0     C 8865   8.029   0.324   1.524  0.1157  1.9942 -0.1172
   68MOL0     C 8866   8.186   0.301   1.533  0.5410 -1.0218 -0.5811
   68MOL0     C 8867   8.216   0.188   1.444 -0.5539  0.4830  0.1267
   68MOL0     O 8868   8.240   0.228   1.311 -0.5614  0.3076  0.2191
   68MOL0     C 8869   8.376   0.250   1.290 -0.0402 -0.0730 -0.2222
   68MOL0     C 8870   8.411   0.376   1.255  0.1992 -0.4597  0.1214
   68MOL0     C 8871   8.539   0.418   1.228  0.3757 -0.0188  0.1218
   68MOL0     C 8872   8.646   0.326   1.238  0.4274  0.5221 -0.0651
   68MOL0     C 8873   8.781   0.353   1.204  0.3491 -0.4825 -0.0647
   68MOL0     O 8874   8.856   0.246   1.165 -0.2711 -0.4310 -0.0302
   68MOL0     C 8875   8.995   0.252   1.178 -0.6057 -0.7411 -0.1040
   68MOL0     C 8876   9.084   0.351   1.228  0.0784 -0.2113  0.1649
   68MOL0     C 8877   9.224   0.333   1.212  0.3799  1.2285 -0.9241
   68MOL0     C 8878   9.267   0.219   1.140 -0.5622 -0.0250  0.5302
   68MOL0     O 8879   9.404   0.207   1.133  0.8442  0.3030 -0.6807
   68MOL0     C 8880   9.450   0.073   1.171 -0.4683  0.1199 -0.2216
   68MOL0     C 8881   9.584   0.081   1.242 -0.6659 -0.1998 -0.1376
   68MOL0     C 8882   9.707   0.054   1.157  0.9678 -0.3649  0.1005
   68MOL0     C 8883   9.731   0.170   1.053  0.5300  0.3884  0.4200
   68MOL0     C 8884   9.879   0.192   1.017  0.4262  0.2298 -0.6419
   68MOL0     C 8885   9.935   0.085   0.921 -0.7001 -0.1567 -1.1960
   68MOL0     C 8886  10.082   0.116   0.900 -1.2507 -0.4102  0.3255
   68MOL0     C 8887  10.104   0.243   0.811 -0.1748  1.2325  0.2414
   68MOL0    Cl 8888  10.285   0.243   0.771 -0.2772 -0.0880 -0.3890
   68MOL0     C 8889   9.176   0.135   1.079  0.1359  0.3076  0.9494
   68MOL0     C 8890   9.042   0.144   1.098 -0.7037  0.1771 -0.4161
   68MOL0     O 8891   8.822   0.472   1.205 -0.6126 -0.0611  0.4014
   68MOL0     C 8892   8.613   0.190   1.269 -0.3255  0.4539 -1.0580
   68MOL0     C 8893   8.480   0.149   1.302 -0.7446 -0.1397  0.2137
   68MOL0     N 8894   7.731   0.471   1.667  0.2364 -0.0832  0.0215
   68MOL0     N 8895   7.634   0.534   1.606  0.1469 -0.0603 -0.5788
   68MOL0     C 8896   8.254   1.408   1.145 -0.7245  0.0851 -0.0903
   68MOL0     C 8897   8.357   1.440   1.066 -0.9103 -0.4294  0.2109
   68MOL0     C 8898   8.753   1.487   0.887 -0.6622  0.3098  0.8384
   68MOL0     C 8899   8.886   1.535   0.920  1.3070  0.3839  0.8067
   68MOL0     C 8900   8.972   1.585   0.817 -0.3298  0.3940  0.1525
   68MOL0     C 8901   8.923   1.608   0.690 -0.2728  0.4352  0.6744
   68MOL0     O 8902   9.002   1.665   0.587 -0.3158  0.3215 -0.8474
   68MOL0     C 8903   9.127   1.737   0.616  0.8512 -0.1015  0.0078
   68MOL0     C 8904   9.174   1.819   0.494 -0.5020 -0.4686  0.5065
   68MOL0     C 8905   9.332   1.827   0.481  0.3002 -0.0497  0.1544
   68MOL0     C 8906   9.389   1.687   0.430 -0.4546 -0.4215 -0.4137
   68MOL0     C 8907   9.539   1.684   0.403  0.0609 -0.0452  0.3629
   68MOL0     C 8908   9.651   1.656   0.368  0.0152 -0.8319  0.7899
   68MOL0     C 8909   8.791   1.564   0.660 -1.2138 -0.2945 -0.2475
   68MOL0     C 8910   8.709   1.512   0.753 -0.0744  0.2211 -0.4249
   68MOL0     H 8911   8.498   1.126   1.068 -0.7488 -1.6604  2.9378
   68MOL0     H 8912   8.305   1.079   1.191  1.0423 -0.3067 -1.5576
   68MOL0     H 8913   8.246   1.146   1.434 -0.6184  0.0746  1.5236
   68MOL0     H 8914   8.125   1.045   1.346 -2.2427 -2.5525  4.8036
   68MOL0     H 8915   8.075   1.272   1.532  0.9064 -0.8592  0.3495
   68MOL0     H 8916   8.052   1.110   1.575  0.7204  2.1964  1.1549
   68MOL0     H 8917   7.896   1.257   1.356  1.9453 -0.1515 -0.0038
   68MOL0     H 8918   7.832   1.229   1.505  0.5922 -0.2235  0.8094
   68MOL0     H 8919   7.858   1.023   1.288 -2.5080 -1.0847 -0.3865
   68MOL0     H 8920   7.893   0.967   1.450 -1.4632 -2.4636 -1.7112
   68MOL0     H 8921   7.643   1.047   1.315 -1.4890 -2.6155 -0.1151
   68MOL0     H 8922   7.642   1.102   1.486  0.0845 -0.9912  0.9639
   68MOL0     H 8923   7.535   0.897   1.489 -0.5108  0.3051 -1.1502
   68MOL0     H 8924   7.689   0.856   1.549 -1.6827  1.2624  2.0628
   68MOL0     H 8925   7.595   0.821   1.252  2.0853  0.1452 -1.5342
   68MOL0     H 8926   7.755   0.781   1.309 -0.1458  2.9121 -2.0132
   68MOL0     H 8927   7.600   0.584   1.293 -1.3919 -0.3876  0.3811
   68MOL0     H 8928   7.503   0.670   1.415 -0.3483 -1.3301 -1.7108
   68MOL0     H 8929   7.863   0.564   1.382  1.2567  0.3957  0.3656
   68MOL0     H 8930   7.995   0.386   1.729  2.4396  0.6876  0.1103
   68MOL0     H 8931   8.048   0.512   1.612 -1.8440  1.0734 -0.2457
   68MOL0     H 8932   8.015   0.360   1.421  1.6391 -0.2471 -1.2084
   68MOL0     H 8933   7.968   0.234   1.531  0.8517  1.4135 -0.8797
   68MOL0     H 8934   8.229   0.398   1.504 -1.9442  0.0674 -0.8476
   68MOL0     H 8935   8.211   0.273   1.636 -0.8207  0.6436  0.2436
   68MOL0     H 8936   8.127   0.126   1.439  0.3539 -0.9084  0.7460
   68MOL0     H 8937   8.296   0.129   1.489 -0.9201 -0.2599 -0.1807
   68MOL0     H 8938   8.323   0.438   1.246  0.0169 -0.9714 -2.4488
   68MOL0     H 8939   8.567   0.522   1.212 -1.1169  0.1361 -1.9241
   68MOL0     H 8940   9.046   0.439   1.279  0.5631  0.7826 -1.1565
   68MOL0     H 8941   9.300   0.392   1.262  2.4800 -1.5742 -0.5840
   68MOL0     H 8942   9.453   0.003   1.088 -0.2861 -0.1029 -0.0284
   68MOL0     H 8943   9.379   0.029   1.242 -1.0257  1.7723  0.3115
   68MOL0     H 8944   9.584  -0.001   1.316 -1.7675  0.3905  0.5407
   68MOL0     H 8945   9.592   0.182   1.284 -0.9877  0.0516 -0.6830
   68MOL0     H 8946   9.691  -0.046   1.115  0.2387 -0.4351  0.5263
   68MOL0     H 8947   9.789   0.046   1.229 -0.3840 -0.6918  1.6854
   68MOL0     H 8948   9.679   0.155   0.958  2.0182 -1.3513 -0.1982
   68MOL0     H 8949   9.701   0.265   1.096 -0.5617  0.6772 -0.9302
   68MOL0     H 8950   9.933   0.187   1.112 -0.3816  1.2371 -0.1121
   68MOL0     H 8951   9.877   0.293   0.976 -2.2044  0.0999 -1.0222
   68MOL0     H 8952   9.880   0.073   0.828  0.0437 -2.2291 -1.4394
   68MOL0     H 8953   9.938  -0.011   0.975 -1.8504  1.0495  1.1646
   68MOL0     H 8954  10.128   0.120   0.999  0.1786 -3.4033 -0.0960
   68MOL0     H 8955  10.134   0.031   0.855  0.5680  1.7429 -1.9164
   68MOL0     H 8956  10.077   0.331   0.870 -0.1502  2.1439 -1.0610
   68MOL0     H 8957  10.035   0.245   0.727 -1.5317 -1.1236  1.2083
   68MOL0     H 8958   9.220   0.065   1.010 -1.1654  1.8825 -1.6337
   68MOL0     H 8959   8.974   0.073   1.055 -0.8191  0.7268 -1.1571
   68MOL0     H 8960   8.694   0.118   1.259  0.9369  1.7415 -0.4338
   68MOL0     H 8961   8.457   0.046   1.326 -1.8602  0.2263  0.7700
   68MOL0     H 8962   8.190   1.493   1.167 -2.8103 -1.6821  1.1293
   68MOL0     H 8963   8.371   1.545   1.045 -2.7403  0.3079  2.3634
   68MOL0     H 8964   8.923   1.514   1.020 -2.0711 -0.6562  1.9935
   68MOL0     H 8965   9.068   1.617   0.854 -0.8913  2.1100  0.2071
   68MOL0     H 8966   9.201   1.665   0.653  3.0279  2.4454  0.9039
   68MOL0     H 8967   9.118   1.805   0.701  0.8764 -0.5014  0.3338
   68MOL0     H 8968   9.135   1.778   0.400  0.8321  1.4124 -0.9450
   68MOL0     H 8969   9.128   1.915   0.518 -3.9295 -2.3050  1.9632
   68MOL0     H 8970   9.380   1.849   0.577  0.2782 -1.1116  0.4155
   68MOL0     H 8971   9.344   1.909   0.409 -0.7523 -0.7381 -0.8445
   68MOL0     H 8972   9.361   1.601   0.492 -1.8550  0.8899  0.8630
   68MOL0     H 8973   9.337   1.669   0.336 -1.2943  0.2971 -0.1103
   68MOL0     H 8974   9.744   1.620   0.329 -1.9919 -4.0783 -1.5442
   68MOL0     H 8975   8.761   1.589   0.558 -1.1080 -0.9714 -0.4511
   68MOL0     H 8976   8.610   1.473   0.733  0.1861 -1.1683  0.8146
   69MOL0     O 8977   1.864  10.624   9.585 -0.4778 -0.3601 -0.1625
   69MOL0     C 8978   1.831  10.539   9.495 -0.3891 -0.4915  0.6724
   69MOL0     O 8979   1.763  10.431   9.515 -0.2466 -0.5548  0.2340
   69MOL0     C 8980   1.757  10.373   9.641 -1.2292 -0.6164 -0.2519
   69MOL0     C 8981   1.641  10.373   9.711  0.5101  0.0258 -0.5115
   69MOL0     C 8982   1.635  10.310   9.834 -0.7000 -0.0312  0.5661
   69MOL0     C 8983   1.743  10.242   9.895 -0.0085  0.0468  0.0120
   69MOL0     O 8984   1.724  10.179  10.012 -0.4322 -0.0767  0.3401
   69MOL0     C 8985   1.840  10.173  10.099 -0.5097 -0.2522 -1.1355
   69MOL0     C 8986   1.898  10.312  10.139  0.0342  0.6355  0.7252
   69MOL0     C 8987   2.021  10.305  10.228 -0.4875 -0.3143  1.1208
   69MOL0     C 8988   1.983  10.291  10.373  0.3461  0.4075 -0.1840
   69MOL0     C 8989   2.078  10.331  10.481  0.0412  0.0133  0.4748
   69MOL0     C 8990   2.077  10.482  10.504 -0.0619  0.0596 -0.4553
   69MOL0     C 8991   2.187  10.513  10.606  0.0840 -0.0524 -0.0150
   69MOL0     C 8992   2.178  10.445  10.743  0.1484  0.1123 -0.8088
   69MOL0     N 8993   2.055  10.478  10.824 -0.2168  0.5615  0.5855
   69MOL0     C 8994   1.969  10.388  10.875  1.2541  0.8804 -0.0726
   69MOL0     C 8995   1.877  10.467  10.942  0.7920 -0.1282 -0.7987
   69MOL0     C 8996   1.770  10.411  11.033  0.1532 -0.7039  0.3954
   69MOL0     C 8997   1.630  10.464  11.008 -0.5480 -0.0566  0.2936
   69MOL0     C 8998   1.528  10.372  11.087 -0.4354  0.1999 -1.5586
   69MOL0     C 8999   1.524  10.399  11.236  0.2551  0.0801  0.2243
   69MOL0     O 9000   1.403  10.362  11.298 -0.4385 -0.9861  0.2827
   69MOL0     C 9001   1.302  10.453  11.305  0.4020 -0.7209 -0.1668
   69MOL0     C 9002   1.209  10.427  11.401  0.0286 -0.6858 -0.0803
   69MOL0     C 9003   1.111  10.519  11.429 -0.1115  0.5768  0.0978
   69MOL0     C 9004   1.101  10.643  11.369 -0.3841  0.5267 -0.2507
   69MOL0     C 9005   0.984  10.731  11.395  0.0451 -0.0951 -0.6730
   69MOL0     O 9006   0.891  10.698  11.488 -0.2846  0.6533 -0.1681
   69MOL0     C 9007   0.791  10.785  11.518 -0.1050  0.0164 -0.1170
   69MOL0     C 9008   0.672  10.785  11.440  0.1169  0.7144 -0.6619
   69MOL0     C 9009   0.566  10.868  11.473  0.6482 -0.2765 -0.1010
   69MOL0     C 9010   0.572  10.936  11.595 -0.6845 -0.2519 -0.1839
   69MOL0     O 9011   0.470  11.013  11.646 -0.4082  0.0311  0.2523
   69MOL0     C 9012   0.348  10.931  11.647  0.2133  0.0800  0.6513
   69MOL0     C 9013   0.234  11.004  11.719 -1.1400  0.3302 -0.4722
   69MOL0     C 9014   0.104  10.917  11.702 -0.0270  0.1744  0.1125
   69MOL0     C 9015  -0.009  10.990  11.786 -0.9723  0.6736  0.3241
   69MOL0     C 9016  -0.160  10.939  11.774 -0.4583  0.0182  0.6721
   69MOL0     C 9017  -0.176  10.785  11.775  0.6359 -0.7368  0.0135
   69MOL0     C 9018  -0.326  10.747  11.784  0.4063 -0.0801 -0.4500
   69MOL0     C 9019  -0.374  10.716  11.926 -0.1256 -0.4274 -0.0467
   69MOL0    Cl 9020  -0.297  10.566  11.982  0.1683  0.1236 -0.2238
   69MOL0     C 9021   0.690  10.932  11.671 -0.4836 -0.9609  0.1665
   69MOL0     C 9022   0.803  10.860  11.632  0.1926 -0.4788  0.5514
   69MOL0     O 9023   0.972  10.824  11.314 -0.5847  0.3100 -0.0650
   69MOL0     C 9024   1.201  10.678  11.278 -0.4893 -0.6501  0.7114
   69MOL0     C 9025   1.300  10.585  11.244  0.7737 -0.1694 -0.0737
   69MOL0     N 9026   1.919  10.603  10.925  0.0524 -0.0916 -0.2367
   69MOL0     N 9027   2.021  10.606  10.849 -0.1707 -1.0862  0.4212
   69MOL0     C 9028   1.862  10.242   9.812 -0.0639  1.1488 -0.2605
   69MOL0     C 9029   1.870  10.309   9.695 -0.0293  0.7857  0.7600
   69MOL0     C 9030   1.879  10.567   9.358 -0.3198 -0.5816 -0.3194
   69MOL0     C 9031   1.961  10.673   9.325  0.2888 -0.4867 -0.4020
   69MOL0     C 9032   2.008  10.692   9.197 -0.0864 -0.3546  1.0198
   69MOL0     C 9033   1.993  10.590   9.100 -0.1113  0.2549  0.3107
   69MOL0     O 9034   2.059  10.576   8.981  0.2090  0.2597 -0.0359
   69MOL0     C 9035   2.136  10.690   8.934 -0.3350  0.5783  0.2885
   69MOL0     C 9036   2.170  10.655   8.791  0.7508 -0.2392  0.2372
   69MOL0     C 9037   2.242  10.789   8.730  0.4433 -0.1735  0.2987
   69MOL0     C 9038   2.264  10.789   8.581  0.0989 -0.3226  0.1962
   69MOL0     C 9039   2.331  10.906   8.530 -0.9909  0.2936 -0.2634
   69MOL0     C 9040   2.384  11.007   8.495 -0.3286  0.7057 -0.2403
   69MOL0     C 9041   1.924  10.476   9.133 -0.1801  0.8373  0.6964
   69MOL0     C 9042   1.867  10.466   9.261  0.3734  0.9299  0.1887
   69MOL0     H 9043   1.550  10.412   9.666 -0.1212 -1.3948 -0.5409
   69MOL0     H 9044   1.544  10.299   9.892 -0.0149 -1.1072  1.4643
   69MOL0     H 9045   1.925  10.116  10.061  0.9964 -0.0195  1.5681
   69MOL0     H 9046   1.808  10.122  10.190 -1.2459 -0.4759 -1.5229
   69MOL0     H 9047   1.818  10.366  10.191  0.6668 -0.7630  3.3360
   69MOL0     H 9048   1.918  10.368  10.047  2.1339 -0.0131  0.7332
   69MOL0     H 9049   2.065  10.404  10.215 -3.6663  0.9715 -0.9237
   69MOL0     H 9050   2.091  10.226  10.197  0.1844  0.0106  1.7640
   69MOL0     H 9051   1.888  10.343  10.394  1.3635  2.6096 -0.7377
   69MOL0     H 9052   1.966  10.186  10.396 -2.0354  1.0789  1.5163
   69MOL0     H 9053   2.183  10.307  10.460  0.1972 -1.6964  2.7518
   69MOL0     H 9054   2.052  10.284  10.577  0.1936  0.4254  0.7242
   69MOL0     H 9055   1.983  10.523  10.541  1.0743 -0.8466  3.9335
   69MOL0     H 9056   2.095  10.528  10.406 -0.7465  0.9585 -0.1704
   69MOL0     H 9057   2.274  10.471  10.556  1.9698  0.4562  2.6370
   69MOL0     H 9058   2.203  10.620  10.620 -0.7810  0.3778 -1.9026
   69MOL0     H 9059   2.265  10.457  10.808  1.2579 -1.9929 -1.7917
   69MOL0     H 9060   2.177  10.336  10.732  1.4773  0.1214 -1.1500
   69MOL0     H 9061   1.973  10.280  10.874 -1.7970  0.6910  0.3148
   69MOL0     H 9062   1.798  10.432  11.136 -0.0123 -0.8270  0.4649
   69MOL0     H 9063   1.778  10.302  11.029  3.6706 -0.5984  1.1175
   69MOL0     H 9064   1.603  10.451  10.903 -0.0123  0.4854  0.0840
   69MOL0     H 9065   1.619  10.569  11.035  0.2144 -0.6448  3.3083
   69MOL0     H 9066   1.429  10.389  11.043 -0.8849  3.8654  0.3980
   69MOL0     H 9067   1.556  10.267  11.076 -1.5250 -0.4791  1.2617
   69MOL0     H 9068   1.540  10.505  11.256  0.3700  0.0126  0.5011
   69MOL0     H 9069   1.602  10.338  11.283 -0.4214 -0.9212  0.0697
   69MOL0     H 9070   1.194  10.332  11.452  1.0633 -1.2391 -0.7821
   69MOL0     H 9071   1.032  10.493  11.498 -0.2377  0.5540 -0.0531
   69MOL0     H 9072   0.663  10.712  11.360  1.3606  0.8132 -0.9104
   69MOL0     H 9073   0.481  10.880  11.406  0.4985  1.2822  0.3181
   69MOL0     H 9074   0.366  10.831  11.688 -1.8068 -0.4919  0.2470
   69MOL0     H 9075   0.312  10.932  11.544  0.8922 -0.0623  0.4069
   69MOL0     H 9076   0.229  11.108  11.686  0.6514  0.6765  0.2654
   69MOL0     H 9077   0.249  11.012  11.827 -0.7297  1.5597 -0.6003
   69MOL0     H 9078   0.131  10.820  11.744 -4.2789 -1.0845  0.4712
   69MOL0     H 9079   0.070  10.887  11.603 -0.5497 -3.1097  1.1810
   69MOL0     H 9080   0.006  10.994  11.894 -0.2706 -4.0042  0.5937
   69MOL0     H 9081   0.000  11.091  11.745  2.0796 -0.0057 -0.9103
   69MOL0     H 9082  -0.194  10.982  11.679  1.6085  0.9944  0.3070
   69MOL0     H 9083  -0.224  10.974  11.855 -2.0944  0.1005 -0.6005
   69MOL0     H 9084  -0.121  10.743  11.860  1.1898  4.6574  2.8014
   69MOL0     H 9085  -0.128  10.743  11.686 -3.2131  0.1390 -2.7142
   69MOL0     H 9086  -0.389  10.822  11.735 -0.3695  0.3431  1.1307
   69MOL0     H 9087  -0.340  10.658  11.722  0.2961 -0.4650  0.1207
   69MOL0     H 9088  -0.484  10.720  11.926 -0.1426  3.4357 -1.7528
   69MOL0     H 9089  -0.344  10.799  11.989 -0.8870 -0.1965  0.0232
   69MOL0     H 9090   0.697  10.983  11.767  3.0321 -2.4106  0.8185
   69MOL0     H 9091   0.891  10.860  11.695 -0.6755 -1.0379  1.7899
   69MOL0     H 9092   1.214  10.774  11.229  0.7649 -1.3897 -0.5015
   69MOL0     H 9093   1.373  10.609  11.167 -1.5908  1.2359 -2.0150
   69MOL0     H 9094   1.950  10.183   9.837  0.3121  1.6549 -0.3874
   69MOL0     H 9095   1.958  10.303   9.632  0.3225  4.2268  0.7166
   69MOL0     H 9096   1.985  10.746   9.402 -0.0751 -1.0864  0.2964
   69MOL0     H 9097   2.068  10.777   9.169 -3.0292  1.0155 -1.8519
   69MOL0     H 9098   2.230  10.691   8.989 -0.4057  0.5426  0.4095
   69MOL0     H 9099   2.082  10.785   8.945 -0.2766  0.6236  0.1739
   69MOL0     H 9100   2.241  10.574   8.777 -0.4574 -0.8344 -3.6805
   69MOL0     H 9101   2.082  10.632   8.729  0.0428  0.1679  1.0736
   69MOL0     H 9102   2.337  10.801   8.782  0.0028 -1.5418  1.5123
   69MOL0     H 9103   2.170  10.868   8.751 -1.6068 -1.4475 -1.5158
   69MOL0     H 9104   2.331  10.707   8.555  1.2798  0.4184  0.7807
   69MOL0     H 9105   2.165  10.776   8.536  0.2301  0.8530 -0.4689
   69MOL0     H 9106   2.443  11.090   8.462 -0.7352  0.9284 -0.4181
   69MOL0     H 9107   1.918  10.402   9.054  0.4726 -0.2986  1.6635
   69MOL0     H 9108   1.815  10.374   9.286  0.4011  0.2005 -2.1502
   70MOL0     O 9109   1.662   6.367   4.607 -0.4565 -0.3095  0.4755
   70MOL0     C 9110   1.639   6.250   4.600  0.1011 -0.1720 -0.7246
   70MOL0     O 9111   1.530   6.194   4.532 -0.4497 -0.5533  0.2117
   70MOL0     C 9112   1.419   6.261   4.479 -0.4541  0.6344  0.5182
   70MOL0     C 9113   1.408   6.403   4.486 -0.2619 -0.9958  0.7924
   70MOL0     C 9114   1.298   6.470   4.428  0.0120  0.4794  0.7134
   70MOL0     C 9115   1.200   6.397   4.363  0.1608  0.1602  0.0854
   70MOL0     O 9116   1.092   6.469   4.310 -0.6059 -0.0585  0.4344
   70MOL0     C 9117   0.968   6.408   4.292  0.6511 -0.3066 -0.0750
   70MOL0     C 9118   0.861   6.513   4.244 -0.8814 -0.0839  0.1221
   70MOL0     C 9119   0.722   6.455   4.223 -0.5295 -0.3163 -1.0812
   70MOL0     C 9120   0.619   6.550   4.167  0.5943 -0.5081  0.2354
   70MOL0     C 9121   0.514   6.467   4.088  0.1328 -0.1059 -0.2976
   70MOL0     C 9122   0.453   6.359   4.178 -0.2771 -0.1749 -0.5092
   70MOL0     C 9123   0.305   6.333   4.132  0.6834  0.6545 -0.1479
   70MOL0     C 9124   0.213   6.452   4.162  0.5527  0.9931  0.1961
   70MOL0     N 9125   0.073   6.422   4.127 -0.3784  0.7843 -0.0915
   70MOL0     C 9126   0.036   6.396   3.996 -1.2911 -0.8408  0.2426
   70MOL0     C 9127  -0.094   6.419   4.001  0.3294  0.4275 -0.5081
   70MOL0     C 9128  -0.187   6.402   3.881 -0.7495 -0.0881 -0.9242
   70MOL0     C 9129  -0.310   6.323   3.926 -0.8070 -0.8487  0.0726
   70MOL0     C 9130  -0.417   6.340   3.824  0.2659 -0.2758 -0.0026
   70MOL0     C 9131  -0.536   6.254   3.865  0.0510 -0.1496  0.4287
   70MOL0     O 9132  -0.630   6.267   3.756 -0.8799 -0.1816 -0.3784
   70MOL0     C 9133  -0.751   6.210   3.771  0.3682  0.9001 -0.4048
   70MOL0     C 9134  -0.802   6.137   3.880 -0.5160  0.2262 -0.3532
   70MOL0     C 9135  -0.936   6.112   3.880  0.2504  0.4328 -0.0755
   70MOL0     C 9136  -1.021   6.154   3.783 -0.0819  1.0775  1.0163
   70MOL0     C 9137  -1.161   6.107   3.786  0.1735  0.5058  0.7255
   70MOL0     O 9138  -1.208   6.069   3.909  0.4776  0.4054  0.3275
   70MOL0     C 9139  -1.344   6.052   3.922  0.3677  0.4949 -0.2336
   70MOL0     C 9140  -1.432   6.154   3.960  0.3025  0.2319 -0.8662
   70MOL0     C 9141  -1.566   6.132   3.968  0.0240 -0.3666 -0.1370
   70MOL0     C 9142  -1.619   5.994   3.972 -0.4573  0.1306  0.3633
   70MOL0     O 9143  -1.750   5.971   3.997 -0.2646  0.2928 -0.0934
   70MOL0     C 9144  -1.839   6.081   3.994  0.4032 -0.5506  0.1051
   70MOL0     C 9145  -1.970   6.018   4.033  0.9925 -0.2347 -0.1822
   70MOL0     C 9146  -2.083   6.113   4.031  0.2752  0.0488 -0.8861
   70MOL0     C 9147  -2.216   6.062   4.083 -0.0771 -0.2377  0.7843
   70MOL0     C 9148  -2.331   6.167   4.082 -0.3334 -0.3145 -0.1709
   70MOL0     C 9149  -2.456   6.122   4.163  0.5890 -1.0636 -0.2747
   70MOL0     C 9150  -2.568   6.227   4.163 -0.0705 -0.8032 -0.2965
   70MOL0     C 9151  -2.681   6.173   4.259  0.1857 -0.7352 -0.0766
   70MOL0    Cl 9152  -2.840   6.270   4.267  0.4076  0.5862 -0.2179
   70MOL0     C 9153  -1.529   5.891   3.947 -0.0232  0.2100 -0.3658
   70MOL0     C 9154  -1.393   5.919   3.920  0.6435 -0.8069  0.1876
   70MOL0     O 9155  -1.229   6.107   3.681 -0.4009  0.8550 -0.4373
   70MOL0     C 9156  -0.973   6.217   3.667 -1.3504  0.3597 -0.0326
   70MOL0     C 9157  -0.833   6.241   3.660  1.2752  0.3397 -0.2419
   70MOL0     N 9158  -0.141   6.460   4.124  0.0568 -0.4779  0.0947
   70MOL0     N 9159  -0.030   6.461   4.201 -0.1296 -0.7246  0.2223
   70MOL0     C 9160   1.208   6.259   4.353  0.2236 -0.0068  0.3374
   70MOL0     C 9161   1.313   6.191   4.411 -0.4199 -0.2023 -0.5030
   70MOL0     C 9162   1.739   6.157   4.657  0.1386 -0.1627  0.4287
   70MOL0     C 9163   1.867   6.194   4.699 -0.0790 -0.1045  0.5920
   70MOL0     C 9164   1.965   6.111   4.737 -0.1458 -0.9032  0.4487
   70MOL0     C 9165   1.933   5.971   4.745 -0.4232 -1.2069  0.2471
   70MOL0     O 9166   2.020   5.870   4.790  0.1215 -0.3190  0.5119
   70MOL0     C 9167   2.137   5.906   4.860  0.1581  0.2140 -0.3371
   70MOL0     C 9168   2.221   5.784   4.896 -0.3456 -0.1432 -0.5546
   70MOL0     C 9169   2.351   5.816   4.970  0.3756 -0.5198 -1.2835
   70MOL0     C 9170   2.405   5.675   5.011  0.3382 -0.3318  0.3962
   70MOL0     C 9171   2.546   5.694   5.044 -0.6500  0.5188  0.2684
   70MOL0     C 9172   2.655   5.734   5.068 -0.2638  0.2363  0.5157
   70MOL0     C 9173   1.803   5.927   4.704 -0.6896  0.8026  0.0215
   70MOL0     C 9174   1.705   6.018   4.660 -0.2794 -0.5560  0.1164
   70MOL0     H 9175   1.480   6.467   4.536 -0.0994  0.1803 -0.8426
   70MOL0     H 9176   1.281   6.576   4.439 -1.1200  0.2413  1.4726
   70MOL0     H 9177   0.924   6.366   4.383 -1.0225 -0.8000 -1.0908
   70MOL0     H 9178   0.975   6.326   4.220  0.2074  1.0717 -1.7333
   70MOL0     H 9179   0.887   6.568   4.153  1.3490 -0.5773  0.3948
   70MOL0     H 9180   0.857   6.582   4.329  1.0886  1.0846 -0.6658
   70MOL0     H 9181   0.687   6.421   4.321  0.1609  0.3048 -0.6052
   70MOL0     H 9182   0.725   6.366   4.160  0.2920 -1.7780  0.9551
   70MOL0     H 9183   0.578   6.607   4.251 -0.2051  0.0304 -0.5007
   70MOL0     H 9184   0.662   6.625   4.101 -2.4156  1.4713  0.3433
   70MOL0     H 9185   0.567   6.420   4.004  0.3975 -1.1560  0.4328
   70MOL0     H 9186   0.449   6.549   4.056  0.8611  0.5611 -0.0979
   70MOL0     H 9187   0.455   6.399   4.280  2.8989  2.3696 -1.4108
   70MOL0     H 9188   0.518   6.272   4.191  1.8142  1.4647  0.6325
   70MOL0     H 9189   0.308   6.306   4.026  3.2264 -3.7983  0.8169
   70MOL0     H 9190   0.266   6.243   4.181  0.5006  0.3961 -0.7576
   70MOL0     H 9191   0.245   6.534   4.096 -2.0833  0.1745 -2.3249
   70MOL0     H 9192   0.212   6.489   4.265 -0.5241  0.0824  0.5327
   70MOL0     H 9193   0.106   6.369   3.918 -0.4971  1.1329  0.1949
   70MOL0     H 9194  -0.142   6.355   3.792 -1.8238 -0.8987 -1.0615
   70MOL0     H 9195  -0.211   6.496   3.830 -1.9314 -0.4915 -1.1376
   70MOL0     H 9196  -0.349   6.358   4.022  0.5920 -1.4143  0.8822
   70MOL0     H 9197  -0.282   6.219   3.947 -0.9138 -0.7668  0.6404
   70MOL0     H 9198  -0.449   6.445   3.825 -1.7773 -0.7465 -3.0833
   70MOL0     H 9199  -0.381   6.308   3.726  0.5426 -2.8411  0.8730
   70MOL0     H 9200  -0.573   6.277   3.966  1.7115  0.2116  0.9851
   70MOL0     H 9201  -0.506   6.149   3.873  2.8860  0.4518 -1.2682
   70MOL0     H 9202  -0.731   6.100   3.954 -0.3689 -0.7585 -0.9654
   70MOL0     H 9203  -0.978   6.071   3.971  0.1449 -0.6354 -0.5957
   70MOL0     H 9204  -1.407   6.259   3.954 -0.5890  0.3715 -2.5364
   70MOL0     H 9205  -1.628   6.221   3.965 -0.2738 -0.4751  1.6068
   70MOL0     H 9206  -1.852   6.123   3.894  1.3439 -1.8643 -0.5909
   70MOL0     H 9207  -1.822   6.166   4.061 -2.0523 -0.6876  0.9944
   70MOL0     H 9208  -1.959   5.980   4.135  0.3375 -2.1216 -0.7809
   70MOL0     H 9209  -1.982   5.930   3.969 -0.0827 -1.8084  2.0615
   70MOL0     H 9210  -2.086   6.146   3.927 -0.0036 -1.2538 -1.3071
   70MOL0     H 9211  -2.048   6.196   4.093  0.7707 -0.4151 -0.5312
   70MOL0     H 9212  -2.238   5.988   4.005  1.1151 -0.7331  0.9026
   70MOL0     H 9213  -2.202   6.019   4.182  0.3381 -1.8779  0.0521
   70MOL0     H 9214  -2.355   6.196   3.980  1.3937 -2.3728 -1.2431
   70MOL0     H 9215  -2.286   6.256   4.127  2.3586 -1.3466 -0.5889
   70MOL0     H 9216  -2.428   6.090   4.264 -2.2439 -1.8793  0.3265
   70MOL0     H 9217  -2.491   6.030   4.117 -4.4713 -1.5450  3.6593
   70MOL0     H 9218  -2.526   6.326   4.182  1.6521 -1.4775 -0.3452
   70MOL0     H 9219  -2.604   6.237   4.060 -1.5871 -1.5639  0.1323
   70MOL0     H 9220  -2.644   6.189   4.361  2.6074 -0.6916 -0.8920
   70MOL0     H 9221  -2.710   6.070   4.237 -2.2079 -0.4523  1.3613
   70MOL0     H 9222  -1.557   5.788   3.927  1.2094 -0.2242  0.0597
   70MOL0     H 9223  -1.324   5.838   3.897 -0.5817 -1.0063 -3.4493
   70MOL0     H 9224  -1.038   6.242   3.584  0.6879  0.7848 -1.5838
   70MOL0     H 9225  -0.797   6.286   3.568  1.4675 -0.3940 -0.5359
   70MOL0     H 9226   1.133   6.205   4.295  0.7057  0.2766 -0.5642
   70MOL0     H 9227   1.315   6.084   4.395 -0.0720 -0.6288  1.9128
   70MOL0     H 9228   1.894   6.299   4.708  2.5812 -0.5594 -1.2485
   70MOL0     H 9229   2.063   6.151   4.759 -0.8737  1.4461 -0.3661
   70MOL0     H 9230   2.102   5.958   4.950 -2.4104 -2.9972  0.7391
   70MOL0     H 9231   2.196   5.984   4.812 -2.4831  2.4903 -0.1768
   70MOL0     H 9232   2.164   5.720   4.963 -0.6750  1.1428  0.4390
   70MOL0     H 9233   2.237   5.725   4.805 -2.8904 -2.1946  0.2128
   70MOL0     H 9234   2.331   5.867   5.065  2.3568 -0.8539 -0.6296
   70MOL0     H 9235   2.428   5.880   4.925  0.7689  1.5758  2.0127
   70MOL0     H 9236   2.352   5.639   5.100  2.6287  0.2829  2.1124
   70MOL0     H 9237   2.391   5.600   4.933 -0.2074 -1.4818  1.5527
   70MOL0     H 9238   2.741   5.791   5.096 -2.4953  2.8163  2.6731
   70MOL0     H 9239   1.785   5.820   4.710 -0.0283  0.6852 -0.0050
   70MOL0     H 9240   1.608   5.989   4.621 -1.1296 -0.9746  2.3599
   71MOL0     O 9241   6.053   7.070   5.847  0.2350  0.1182 -0.2471
   71MOL0     C 9242   6.049   7.194   5.866 -0.0297  0.4606  0.3425
   71MOL0     O 9243   6.156   7.278   5.874 -0.6193 -0.2510  0.1312
   71MOL0     C 9244   6.283   7.231   5.830  0.1237  0.0390  0.2859
   71MOL0     C 9245   6.380   7.194   5.920  0.7677 -0.2015 -0.7604
   71MOL0     C 9246   6.506   7.155   5.876  0.7166 -0.5583 -0.1762
   71MOL0     C 9247   6.546   7.161   5.742  0.4968 -0.2728  0.2266
   71MOL0     O 9248   6.676   7.141   5.704 -0.1966 -0.1011 -0.3172
   71MOL0     C 9249   6.707   7.132   5.562  0.3008  0.4383 -0.3103
   71MOL0     C 9250   6.840   7.065   5.548 -0.1648  0.3276 -0.3778
   71MOL0     C 9251   6.860   7.040   5.400  0.3353  0.0614 -0.1913
   71MOL0     C 9252   7.006   7.025   5.358 -0.2676  0.5725 -0.7169
   71MOL0     C 9253   7.029   7.014   5.199  0.5656 -0.7886  0.3275
   71MOL0     C 9254   7.176   7.014   5.168 -0.8160  0.1154 -0.3751
   71MOL0     C 9255   7.254   6.907   5.254  0.6195  0.0288 -0.2570
   71MOL0     C 9256   7.400   6.903   5.215  0.2634 -0.0227  0.4835
   71MOL0     N 9257   7.415   6.785   5.131 -0.6230 -0.9064  0.9019
   71MOL0     C 9258   7.535   6.755   5.067  0.6687 -0.1399  0.0958
   71MOL0     C 9259   7.505   6.683   4.958 -1.5213 -0.0857 -0.0296
   71MOL0     C 9260   7.607   6.607   4.879  0.0622  0.5213  0.3569
   71MOL0     C 9261   7.569   6.461   4.875  1.0001  0.4755 -0.9717
   71MOL0     C 9262   7.560   6.400   5.015 -0.5285 -0.2520  0.2188
   71MOL0     C 9263   7.526   6.251   5.002  0.7888 -0.2974  0.0829
   71MOL0     O 9264   7.499   6.206   5.134 -0.2679  0.1783  0.3601
   71MOL0     C 9265   7.376   6.211   5.182  0.5977 -0.4538 -0.8560
   71MOL0     C 9266   7.267   6.270   5.123  0.1998 -0.3395  0.7080
   71MOL0     C 9267   7.147   6.269   5.187 -0.3231  0.0457 -1.1426
   71MOL0     C 9268   7.133   6.217   5.318 -0.2773 -0.1267 -0.4815
   71MOL0     C 9269   7.001   6.217   5.382  0.9041  0.0771 -0.0678
   71MOL0     O 9270   6.988   6.155   5.504 -0.2655  0.3541 -0.2559
   71MOL0     C 9271   6.872   6.153   5.576 -0.2001  0.1633 -0.5306
   71MOL0     C 9272   6.835   6.031   5.640 -0.1909 -0.3474 -0.5544
   71MOL0     C 9273   6.710   6.017   5.702  0.3639  0.3812  0.1841
   71MOL0     C 9274   6.617   6.131   5.708  0.2336  0.3756 -0.1956
   71MOL0     O 9275   6.501   6.128   5.782 -0.4234  0.2657  0.1899
   71MOL0     C 9276   6.406   6.240   5.770 -0.6859  0.6312  0.0151
   71MOL0     C 9277   6.432   6.351   5.880 -0.2923  0.7441 -0.0108
   71MOL0     C 9278   6.326   6.354   5.980  0.1213 -0.2629 -0.1511
   71MOL0     C 9279   6.199   6.424   5.920  0.6625  0.5600  0.9336
   71MOL0     C 9280   6.080   6.424   6.016  0.5074  0.1089  0.1569
   71MOL0     C 9281   5.956   6.508   5.971  0.1954 -0.2150  0.2370
   71MOL0     C 9282   5.828   6.501   6.060 -0.2673 -0.8034 -0.1797
   71MOL0     C 9283   5.843   6.576   6.194 -0.4434 -0.2274 -0.9250
   71MOL0    Cl 9284   5.722   6.512   6.309  0.2619  0.6134 -0.0622
   71MOL0     C 9285   6.655   6.250   5.653 -0.3095  0.3091  0.6148
   71MOL0     C 9286   6.775   6.258   5.581 -0.7545 -0.1572 -0.2765
   71MOL0     O 9287   6.903   6.268   5.326 -0.7322 -0.4497  0.8897
   71MOL0     C 9288   7.245   6.177   5.388 -0.0772 -0.3148 -0.2063
   71MOL0     C 9289   7.363   6.168   5.315  0.1477 -0.4200  0.6594
   71MOL0     N 9290   7.368   6.677   4.942 -0.4387  0.3771 -0.4719
   71MOL0     N 9291   7.322   6.738   5.043 -0.7932  0.0941  0.4795
   71MOL0     C 9292   6.439   7.191   5.650  0.0352 -0.2211  1.1103
   71MOL0     C 9293   6.311   7.238   5.694 -0.7455  0.3000 -0.5087
   71MOL0     C 9294   5.919   7.257   5.875  0.2262  0.0648 -0.0261
   71MOL0     C 9295   5.804   7.175   5.878 -0.6667 -0.1930  0.3498
   71MOL0     C 9296   5.689   7.241   5.919 -0.0807 -0.1218  0.6866
   71MOL0     C 9297   5.678   7.378   5.947  0.0672 -0.0151 -0.6725
   71MOL0     O 9298   5.559   7.450   5.987 -0.1693 -0.0813 -0.3629
   71MOL0     C 9299   5.439   7.373   6.012 -0.6822  0.4416  0.4631
   71MOL0     C 9300   5.333   7.466   6.065  0.3699  0.4863  0.0738
   71MOL0     C 9301   5.187   7.412   6.045 -0.1107  0.1711  0.2254
   71MOL0     C 9302   5.092   7.513   6.098  0.3962  0.6280 -0.3741
   71MOL0     C 9303   5.103   7.530   6.246  0.1807  0.6406 -0.0589
   71MOL0     C 9304   5.121   7.549   6.364  1.2433  0.8339  0.5103
   71MOL0     C 9305   5.796   7.454   5.949  0.0920  0.5673  0.9273
   71MOL0     C 9306   5.913   7.397   5.903  0.3756 -0.1271  0.3112
   71MOL0     H 9307   6.363   7.167   6.024 -0.8218 -3.0909 -1.6510
   71MOL0     H 9308   6.574   7.129   5.957 -0.4480 -0.7481  0.7633
   71MOL0     H 9309   6.705   7.231   5.517  0.0869  0.2802 -0.6582
   71MOL0     H 9310   6.635   7.061   5.520  0.3367 -0.6293  1.3217
   71MOL0     H 9311   6.838   6.972   5.605 -1.7344 -0.3673 -1.5001
   71MOL0     H 9312   6.908   7.134   5.600  0.9942 -1.7620  0.9891
   71MOL0     H 9313   6.800   7.109   5.340 -2.1862 -1.6777  0.1913
   71MOL0     H 9314   6.814   6.947   5.366 -1.9679  1.0567 -0.0121
   71MOL0     H 9315   7.075   7.104   5.388 -0.8610  1.4126 -1.5125
   71MOL0     H 9316   7.048   6.932   5.399  0.7859  0.9602 -0.8919
   71MOL0     H 9317   6.977   7.090   5.140  0.1992 -0.2663  1.2979
   71MOL0     H 9318   6.980   6.923   5.164  1.9436 -0.9411 -1.3171
   71MOL0     H 9319   7.233   7.104   5.191  3.9595 -2.3946 -1.1504
   71MOL0     H 9320   7.196   6.991   5.064  0.3017  0.6310 -0.2823
   71MOL0     H 9321   7.247   6.937   5.359  0.0516 -2.0192  0.3347
   71MOL0     H 9322   7.206   6.809   5.253  0.2503  0.2042  0.0431
   71MOL0     H 9323   7.460   6.880   5.304  0.2177 -2.3849 -0.0565
   71MOL0     H 9324   7.423   7.000   5.168 -1.2745 -0.5383 -1.4519
   71MOL0     H 9325   7.634   6.778   5.106  1.0124 -2.2681  0.6193
   71MOL0     H 9326   7.709   6.611   4.919  0.6108  0.4690 -0.9728
   71MOL0     H 9327   7.612   6.655   4.781 -2.3819  1.1733  0.4781
   71MOL0     H 9328   7.648   6.406   4.824  1.6173 -0.1103  0.5626
   71MOL0     H 9329   7.471   6.458   4.827 -0.8375  0.6659  2.4295
   71MOL0     H 9330   7.652   6.418   5.072  0.9852  0.4892 -2.3295
   71MOL0     H 9331   7.480   6.447   5.073 -1.6424  0.0784 -1.5300
   71MOL0     H 9332   7.603   6.189   4.954 -2.2426 -4.5628  0.1515
   71MOL0     H 9333   7.440   6.234   4.936 -0.3445 -0.3155  1.5142
   71MOL0     H 9334   7.266   6.326   5.029 -0.8956  3.0956  2.5891
   71MOL0     H 9335   7.060   6.308   5.135 -0.1476 -0.6981 -2.0177
   71MOL0     H 9336   6.893   5.941   5.620 -0.3307 -0.8277  1.0532
   71MOL0     H 9337   6.690   5.920   5.745 -0.2881  0.3612 -0.1565
   71MOL0     H 9338   6.302   6.205   5.774 -0.7094  0.7788  0.7610
   71MOL0     H 9339   6.409   6.288   5.671  0.7566 -0.6693 -0.6042
   71MOL0     H 9340   6.436   6.447   5.828  1.4563 -0.3852 -2.1354
   71MOL0     H 9341   6.529   6.320   5.919 -0.9764 -3.7011 -1.2279
   71MOL0     H 9342   6.359   6.404   6.071  1.3892 -1.2021 -0.0616
   71MOL0     H 9343   6.284   6.258   6.012 -1.9266  0.3913 -0.6919
   71MOL0     H 9344   6.223   6.528   5.898  1.3089  0.0482 -0.9758
   71MOL0     H 9345   6.159   6.377   5.830 -2.0922  0.4877  2.0696
   71MOL0     H 9346   6.107   6.445   6.120 -1.8099 -1.4173  1.1356
   71MOL0     H 9347   6.050   6.319   6.023 -1.4101  0.6955  1.5074
   71MOL0     H 9348   5.927   6.478   5.870  2.5977 -0.6539 -0.3910
   71MOL0     H 9349   5.985   6.613   5.962 -0.4471 -0.2199 -2.8719
   71MOL0     H 9350   5.750   6.547   5.998  0.5355  1.0756  0.1421
   71MOL0     H 9351   5.797   6.396   6.061 -0.6256 -0.7945 -2.6118
   71MOL0     H 9352   5.844   6.685   6.189 -0.8209  0.4568  5.4388
   71MOL0     H 9353   5.941   6.552   6.236 -1.7839 -1.5924  1.6820
   71MOL0     H 9354   6.605   6.346   5.655  0.3853  0.6822  2.8835
   71MOL0     H 9355   6.801   6.344   5.520  0.0177 -1.5292 -1.9704
   71MOL0     H 9356   7.247   6.161   5.495  2.6033 -0.1769 -0.1589
   71MOL0     H 9357   7.448   6.128   5.368  0.8983 -0.7226 -0.7208
   71MOL0     H 9358   6.453   7.203   5.543  0.3036  0.2179  1.1889
   71MOL0     H 9359   6.241   7.279   5.622 -0.3036 -0.4742 -1.3999
   71MOL0     H 9360   5.808   7.068   5.862  0.9296  0.1151 -1.7723
   71MOL0     H 9361   5.603   7.178   5.941 -0.8122  0.7418  0.4114
   71MOL0     H 9362   5.451   7.280   6.069  0.0042  1.1417  1.5106
   71MOL0     H 9363   5.395   7.345   5.916 -3.7160  0.2534  1.7883
   71MOL0     H 9364   5.363   7.488   6.168  1.4252  1.6802 -0.4564
   71MOL0     H 9365   5.356   7.562   6.017  1.9355 -0.0515 -0.3171
   71MOL0     H 9366   5.179   7.315   6.095 -1.9841 -1.1920 -2.4300
   71MOL0     H 9367   5.151   7.390   5.944  1.2078  0.4105 -0.3162
   71MOL0     H 9368   5.113   7.610   6.052  2.1240  1.1337  1.3596
   71MOL0     H 9369   4.992   7.484   6.064  0.3666  0.2250  0.0354
   71MOL0     H 9370   5.126   7.563   6.470  2.5882  0.1692  0.5433
   71MOL0     H 9371   5.797   7.560   5.973  0.1106  0.7618  0.0873
   71MOL0     H 9372   6.000   7.460   5.894  0.0777  0.1811 -0.4558
   72MOL0     O 9373   4.999   0.156  10.839  0.3287 -0.2098 -0.2694
   72MOL0     C 9374   5.001   0.051  10.896  0.2560 -0.7053 -0.6978
   72MOL0     O 9375   4.895  -0.018  10.922  0.0040 -0.1280 -0.2308
   72MOL0     C 9376   4.769   0.027  10.891 -0.3561 -0.1802 -0.4374
   72MOL0     C 9377   4.732   0.083  10.772 -0.1620 -0.4640  1.4844
   72MOL0     C 9378   4.604   0.133  10.744  0.2200  0.2480  0.9478
   72MOL0     C 9379   4.501   0.116  10.840 -0.1620 -0.1718 -0.0043
   72MOL0     O 9380   4.373   0.147  10.812 -0.2263  0.3613  0.2626
   72MOL0     C 9381   4.263   0.113  10.904  0.0851  0.5025 -0.2439
   72MOL0     C 9382   4.136   0.131  10.832 -0.4773  0.3150 -0.4523
   72MOL0     C 9383   4.020   0.102  10.935 -0.2632 -0.0545  0.4224
   72MOL0     C 9384   3.887   0.141  10.868 -0.3844 -1.1628 -1.1489
   72MOL0     C 9385   3.768   0.108  10.956  0.6221 -0.6868 -0.0791
   72MOL0     C 9386   3.640   0.140  10.875 -0.1627 -0.0814  0.8882
   72MOL0     C 9387   3.508   0.079  10.926 -0.9615 -0.9583  0.0681
   72MOL0     C 9388   3.444   0.199  11.015 -0.0662 -0.2634  0.0260
   72MOL0     N 9389   3.325   0.148  11.086 -0.5044  0.0276  0.4515
   72MOL0     C 9390   3.202   0.118  11.021 -0.2475 -0.6034 -0.3316
   72MOL0     C 9391   3.147   0.033  11.114  0.4283  0.4638  0.2955
   72MOL0     C 9392   3.023  -0.047  11.112 -0.0759  0.3070 -1.1084
   72MOL0     C 9393   2.891   0.021  11.076  0.5046  0.9641  0.4866
   72MOL0     C 9394   2.770  -0.069  11.030  0.2939  0.3598 -0.7637
   72MOL0     C 9395   2.722  -0.177  11.129 -1.0496  0.4084 -0.1154
   72MOL0     O 9396   2.675  -0.108  11.248 -0.1135 -0.2160  0.8783
   72MOL0     C 9397   2.589  -0.170  11.338 -0.8633 -0.2340  0.4912
   72MOL0     C 9398   2.498  -0.082  11.398  0.0371 -0.2702  0.2885
   72MOL0     C 9399   2.397  -0.141  11.478 -0.2039 -0.7903 -0.4731
   72MOL0     C 9400   2.398  -0.277  11.514  0.3352 -0.5977  0.3470
   72MOL0     C 9401   2.287  -0.336  11.591 -0.1841 -0.0245 -0.2891
   72MOL0     O 9402   2.216  -0.251  11.661 -0.2874  0.5160 -0.6094
   72MOL0     C 9403   2.091  -0.293  11.711 -0.2849 -0.9599  0.0770
   72MOL0     C 9404   1.990  -0.203  11.720 -0.5764  0.5647 -0.5185
   72MOL0     C 9405   1.875  -0.233  11.792 -0.0707  0.4161 -0.0527
   72MOL0     C 9406   1.863  -0.355  11.867 -0.0101 -0.6706  0.1400
   72MOL0     O 9407   1.767  -0.393  11.957  0.2083 -0.0533 -0.0137
   72MOL0     C 9408   1.643  -0.327  11.949 -0.6749  0.4074 -1.0830
   72MOL0     C 9409   1.536  -0.404  12.038 -0.8227  0.4266  0.6489
   72MOL0     C 9410   1.552  -0.376  12.185 -0.0741  0.2333  0.5659
   72MOL0     C 9411   1.447  -0.452  12.268 -0.1031 -0.1581 -0.1082
   72MOL0     C 9412   1.297  -0.405  12.285 -0.0527 -0.8096 -0.3566
   72MOL0     C 9413   1.212  -0.487  12.401 -0.1717 -0.5023  0.2401
   72MOL0     C 9414   1.069  -0.448  12.418  0.7709 -0.3343 -0.1313
   72MOL0     C 9415   0.998  -0.525  12.527 -0.8058  0.0631  0.3771
   72MOL0    Cl 9416   0.836  -0.459  12.551  0.1470  0.5190  0.1295
   72MOL0     C 9417   1.968  -0.444  11.859  0.7241 -0.3682  0.0162
   72MOL0     C 9418   2.081  -0.410  11.784  0.5242  0.1216 -0.6507
   72MOL0     O 9419   2.266  -0.456  11.574  0.4263  0.4165  0.1310
   72MOL0     C 9420   2.490  -0.362  11.454  0.0353  1.3106  0.2638
   72MOL0     C 9421   2.595  -0.310  11.367  0.0483  0.1031 -0.0617
   72MOL0     N 9422   3.237   0.023  11.225 -0.0027  0.2081 -0.4770
   72MOL0     N 9423   3.345   0.095  11.209 -0.3177 -0.1010 -0.2484
   72MOL0     C 9424   4.540   0.056  10.967 -0.1170 -0.8614 -0.3592
   72MOL0     C 9425   4.671   0.007  10.988 -0.0036  0.5775  0.6593
   72MOL0     C 9426   5.129  -0.004  10.942  0.4031 -0.7989 -0.4117
   72MOL0     C 9427   5.125  -0.128  11.006  0.6442 -0.2846 -0.0634
   72MOL0     C 9428   5.248  -0.178  11.051 -0.1215  0.6135  0.4185
   72MOL0     C 9429   5.369  -0.115  11.027 -0.3232 -0.6362 -0.4297
   72MOL0     O 9430   5.485  -0.185  11.065 -0.2778 -0.1126 -0.8660
   72MOL0     C 9431   5.619  -0.130  11.061  0.3410  0.1289  0.2502
   72MOL0     C 9432   5.684  -0.150  11.201 -0.4240  0.3022 -0.1442
   72MOL0     C 9433   5.836  -0.142  11.184 -0.1045  0.9606  0.6607
   72MOL0     C 9434   5.902  -0.192  11.311  0.0508  0.1206  0.0212
   72MOL0     C 9435   6.043  -0.166  11.309  0.1500 -0.5673 -0.0189
   72MOL0     C 9436   6.158  -0.130  11.323 -0.2078 -0.0494 -0.3645
   72MOL0     C 9437   5.375   0.009  10.965  0.5143  0.3489  0.9651
   72MOL0     C 9438   5.252   0.064  10.927  0.5437  0.3215 -0.1283
   72MOL0     H 9439   4.805   0.082  10.692 -2.5396 -0.5527 -0.8234
   72MOL0     H 9440   4.570   0.170  10.648  0.2215  1.0723  1.2641
   72MOL0     H 9441   4.264   0.173  10.995 -2.2056  1.0430 -0.5038
   72MOL0     H 9442   4.267   0.010  10.939 -0.3714  0.6933  0.3850
   72MOL0     H 9443   4.131   0.078  10.736  1.4075  0.3948 -0.6267
   72MOL0     H 9444   4.134   0.238  10.811 -3.5359  0.7166  1.2114
   72MOL0     H 9445   4.033   0.171  11.019 -2.6244  0.6195  0.3108
   72MOL0     H 9446   4.022   0.004  10.983  0.4754  1.1778  3.1282
   72MOL0     H 9447   3.892   0.250  10.856 -0.2498 -0.2896  4.3326
   72MOL0     H 9448   3.865   0.095  10.771 -1.5260 -0.2756 -1.3281
   72MOL0     H 9449   3.769   0.162  11.051 -2.4148 -0.2458 -0.1862
   72MOL0     H 9450   3.760   0.001  10.979 -1.5797 -1.0056 -1.9438
   72MOL0     H 9451   3.644   0.098  10.774 -2.3840 -3.1539  1.8952
   72MOL0     H 9452   3.635   0.249  10.870  2.4836  0.1291  1.5786
   72MOL0     H 9453   3.438   0.054  10.846 -1.8982  1.2989  0.0748
   72MOL0     H 9454   3.528  -0.013  10.982 -0.5169  0.2082  1.9253
   72MOL0     H 9455   3.426   0.268  10.932  0.9750 -0.0427 -0.0295
   72MOL0     H 9456   3.515   0.253  11.077 -1.5244  0.8912  0.7535
   72MOL0     H 9457   3.174   0.136  10.917 -0.3528 -2.3124 -0.6242
   72MOL0     H 9458   3.014  -0.090  11.212 -2.3831  0.5072 -1.1814
   72MOL0     H 9459   3.038  -0.131  11.043 -0.6847 -0.2731 -0.5475
   72MOL0     H 9460   2.898   0.095  10.996 -0.3652  1.3613  0.7594
   72MOL0     H 9461   2.862   0.077  11.165 -1.8391 -1.4507  1.3792
   72MOL0     H 9462   2.677  -0.013  11.016  0.8274  1.1302 -1.3082
   72MOL0     H 9463   2.797  -0.103  10.930  1.5533  3.2529 -1.5236
   72MOL0     H 9464   2.810  -0.238  11.147 -1.4571 -0.3399 -0.6108
   72MOL0     H 9465   2.654  -0.247  11.080 -1.2986 -0.2928  1.1949
   72MOL0     H 9466   2.509   0.021  11.365  2.3685 -0.6172 -0.1307
   72MOL0     H 9467   2.326  -0.066  11.510  3.1169  2.5518 -0.2068
   72MOL0     H 9468   2.015  -0.103  11.686  0.2521  0.2861 -0.7562
   72MOL0     H 9469   1.803  -0.153  11.801  3.2453  3.4745  2.4680
   72MOL0     H 9470   1.608  -0.310  11.847 -0.8469  0.1484 -1.0669
   72MOL0     H 9471   1.659  -0.229  11.996  2.3011  0.1379 -1.3452
   72MOL0     H 9472   1.552  -0.511  12.018  0.6592  0.6892  0.2752
   72MOL0     H 9473   1.433  -0.380  12.011 -1.3062 -1.6575  0.4402
   72MOL0     H 9474   1.545  -0.269  12.207  2.2266  0.5334  0.1003
   72MOL0     H 9475   1.652  -0.410  12.212  1.6322  3.7254 -0.7494
   72MOL0     H 9476   1.451  -0.556  12.235  0.3052 -0.5872  1.2212
   72MOL0     H 9477   1.494  -0.454  12.367 -1.2010 -1.0276  0.4230
   72MOL0     H 9478   1.240  -0.423  12.193  2.2936 -2.8069 -1.5323
   72MOL0     H 9479   1.292  -0.296  12.294  1.5117 -0.8066  0.9378
   72MOL0     H 9480   1.256  -0.467  12.499 -0.0292 -2.0264  0.5045
   72MOL0     H 9481   1.203  -0.592  12.373 -2.6017  0.0049 -1.1480
   72MOL0     H 9482   1.052  -0.341  12.432 -0.4129 -0.0380 -3.1830
   72MOL0     H 9483   1.021  -0.470  12.323 -3.2742 -0.2599  1.6741
   72MOL0     H 9484   1.054  -0.520  12.621  0.9484  0.6980 -0.6599
   72MOL0     H 9485   0.985  -0.633  12.517  0.7811 -0.1546  0.3811
   72MOL0     H 9486   1.951  -0.535  11.915 -1.3025 -0.5992 -0.8721
   72MOL0     H 9487   2.168  -0.475  11.780  1.1909  1.0798 -2.1276
   72MOL0     H 9488   2.477  -0.469  11.472 -1.7268  1.7640  2.0813
   72MOL0     H 9489   2.674  -0.367  11.319  0.5613  0.7812 -0.0555
   72MOL0     H 9490   4.469   0.039  11.047  0.3814 -0.5448  0.1578
   72MOL0     H 9491   4.698  -0.062  11.068  1.0488  1.6039  1.2362
   72MOL0     H 9492   5.033  -0.179  11.031 -1.7883  3.3107 -0.8726
   72MOL0     H 9493   5.250  -0.274  11.102 -1.5020 -0.0918 -0.7477
   72MOL0     H 9494   5.637  -0.028  11.028 -1.5178  0.4423  0.0931
   72MOL0     H 9495   5.669  -0.184  10.979 -0.4919 -0.0200 -0.1706
   72MOL0     H 9496   5.661  -0.066  11.267  1.0226  0.2556  0.4401
   72MOL0     H 9497   5.659  -0.244  11.250 -1.4021  0.7452  0.2487
   72MOL0     H 9498   5.859  -0.036  11.170 -2.8755  1.3566 -1.9091
   72MOL0     H 9499   5.869  -0.206  11.102  1.2489  2.7226 -0.2260
   72MOL0     H 9500   5.852  -0.146  11.397 -0.7763 -0.4101 -0.1610
   72MOL0     H 9501   5.886  -0.300  11.317 -2.3789  0.3882 -0.5722
   72MOL0     H 9502   6.260  -0.097  11.322 -0.7400  1.6720 -1.3974
   72MOL0     H 9503   5.462   0.060  10.924  0.7980 -1.2103 -0.4631
   72MOL0     H 9504   5.256   0.155  10.867  3.5979  0.3170 -0.0911
   73MOL0     O 9505   9.914   8.546   3.107  0.1089  0.5766 -0.7530
   73MOL0     C 9506   9.979   8.449   3.150 -0.3272 -0.1359 -0.5274
   73MOL0     O 9507   9.924   8.336   3.214  0.1659 -1.1739 -0.5915
   73MOL0     C 9508   9.780   8.344   3.232  0.2012  0.6414 -1.4292
   73MOL0     C 9509   9.712   8.445   3.307 -0.8019  0.4558 -0.2855
   73MOL0     C 9510   9.586   8.415   3.350  0.0388 -0.2249 -0.4352
   73MOL0     C 9511   9.517   8.299   3.318  0.0904  0.3876  0.0641
   73MOL0     O 9512   9.390   8.274   3.362 -0.1835  0.4947  0.4207
   73MOL0     C 9513   9.314   8.385   3.412  0.3996 -0.4802  0.0324
   73MOL0     C 9514   9.163   8.361   3.421  0.1027 -0.1905 -0.3034
   73MOL0     C 9515   9.102   8.314   3.289  0.2598  0.2524 -0.6181
   73MOL0     C 9516   8.953   8.288   3.322  0.1674 -0.0830 -0.3957
   73MOL0     C 9517   8.897   8.225   3.196 -0.3083  0.6162 -0.0204
   73MOL0     C 9518   8.744   8.203   3.215  0.7203 -0.3294 -0.8187
   73MOL0     C 9519   8.661   8.227   3.090 -0.4272  0.1755 -0.1294
   73MOL0     C 9520   8.518   8.162   3.108 -0.2437 -0.1116  0.0073
   73MOL0     N 9521   8.419   8.213   3.013  0.2456 -0.5051  0.5283
   73MOL0     C 9522   8.388   8.345   2.991  0.7408 -0.1663  0.1285
   73MOL0     C 9523   8.307   8.331   2.886 -0.2775 -0.5618  0.3577
   73MOL0     C 9524   8.248   8.446   2.798  0.1094  0.1679  0.1911
   73MOL0     C 9525   8.107   8.492   2.842 -0.4999  0.4984  0.9393
   73MOL0     C 9526   7.993   8.402   2.800 -0.2860  0.1418 -0.1227
   73MOL0     C 9527   7.860   8.454   2.846  0.0700  0.3091  0.2705
   73MOL0     O 9528   7.854   8.469   2.982  0.8273 -0.3284 -0.5581
   73MOL0     C 9529   7.733   8.482   3.040  0.2556  0.5192  0.3821
   73MOL0     C 9530   7.715   8.452   3.173  0.0607  0.3866 -0.2531
   73MOL0     C 9531   7.587   8.448   3.238 -0.2375 -0.4292  0.4532
   73MOL0     C 9532   7.472   8.488   3.171 -0.3976 -1.3346  0.1331
   73MOL0     C 9533   7.342   8.490   3.244  0.0127  0.0002  0.7769
   73MOL0     O 9534   7.231   8.508   3.166 -0.0705 -0.3079 -0.1923
   73MOL0     C 9535   7.120   8.456   3.202  1.0622  0.2338 -0.6336
   73MOL0     C 9536   7.005   8.537   3.202  1.0730  0.1562  0.0299
   73MOL0     C 9537   6.877   8.488   3.241  0.0394 -0.2327  0.5347
   73MOL0     C 9538   6.864   8.353   3.275  0.1791  0.0715  0.1089
   73MOL0     O 9539   6.743   8.293   3.304  0.2797  0.8941 -0.1695
   73MOL0     C 9540   6.623   8.352   3.258 -0.4530  0.8443  0.1363
   73MOL0     C 9541   6.510   8.257   3.318 -0.6589 -0.1144 -0.8138
   73MOL0     C 9542   6.370   8.298   3.262 -0.2726  0.5024  0.7905
   73MOL0     C 9543   6.241   8.266   3.348  0.5871  0.8116 -1.0842
   73MOL0     C 9544   6.126   8.360   3.299  0.5719 -0.4035  0.0401
   73MOL0     C 9545   5.992   8.347   3.373 -0.7202 -0.1502  0.0561
   73MOL0     C 9546   6.002   8.386   3.521 -0.4744  0.4846  0.2891
   73MOL0     C 9547   5.861   8.381   3.585 -0.2946 -0.1145 -1.0907
   73MOL0    Cl 9548   5.768   8.532   3.533 -0.1991  0.4157 -0.1671
   73MOL0     C 9549   6.973   8.264   3.273 -0.3281 -0.5953 -0.1518
   73MOL0     C 9550   7.101   8.316   3.234 -1.2107 -0.3222 -0.3268
   73MOL0     O 9551   7.338   8.440   3.357 -0.2907 -0.1355  0.1000
   73MOL0     C 9552   7.488   8.531   3.036 -0.4309  0.4080 -0.4006
   73MOL0     C 9553   7.612   8.523   2.975 -0.2093 -0.2725  0.8811
   73MOL0     N 9554   8.296   8.203   2.839 -0.1210 -0.3869  0.5124
   73MOL0     N 9555   8.360   8.128   2.922  0.4058  1.3025  0.7712
   73MOL0     C 9556   9.578   8.206   3.234  0.0199 -0.4068 -0.1492
   73MOL0     C 9557   9.709   8.226   3.195  0.0318  0.0270 -0.1205
   73MOL0     C 9558  10.122   8.450   3.124 -0.1249 -0.3019  0.6417
   73MOL0     C 9559  10.187   8.320   3.112  0.8042  0.8264  0.1645
   73MOL0     C 9560  10.324   8.307   3.103  0.1196 -0.2223  0.2412
   73MOL0     C 9561  10.405   8.414   3.077 -0.0517 -0.6517  0.0207
   73MOL0     O 9562  10.546   8.409   3.060 -0.3793  0.5259 -0.0324
   73MOL0     C 9563  10.615   8.279   3.030  0.0658 -0.1896  0.1427
   73MOL0     C 9564  10.766   8.306   3.056  0.8011  0.5344 -0.4980
   73MOL0     C 9565  10.842   8.181   3.004 -1.2181  0.4343  0.8984
   73MOL0     C 9566  10.993   8.209   3.028  0.3798 -0.4588  0.2878
   73MOL0     C 9567  11.085   8.109   2.972  0.3534  0.0110 -0.3042
   73MOL0     C 9568  11.157   8.009   2.944  0.8020 -0.1966  0.3130
   73MOL0     C 9569  10.345   8.541   3.081  0.3672 -0.0590  0.2848
   73MOL0     C 9570  10.206   8.555   3.106  0.0604 -0.0372  0.3770
   73MOL0     H 9571   9.769   8.534   3.334  1.7043 -1.0469 -0.2643
   73MOL0     H 9572   9.555   8.477   3.434  1.4128 -1.0494  0.7434
   73MOL0     H 9573   9.323   8.472   3.346  3.0081 -0.8643 -0.2563
   73MOL0     H 9574   9.357   8.420   3.506  0.7032 -1.1666  0.1609
   73MOL0     H 9575   9.106   8.441   3.468  0.1932 -1.3379  1.8850
   73MOL0     H 9576   9.156   8.281   3.495 -0.9203  1.0939  1.0338
   73MOL0     H 9577   9.150   8.221   3.257 -0.8993 -1.0143  1.1364
   73MOL0     H 9578   9.110   8.393   3.214  1.4196 -0.9427 -1.8086
   73MOL0     H 9579   8.940   8.207   3.394 -0.8692 -0.0134 -0.4776
   73MOL0     H 9580   8.902   8.378   3.358 -0.1821 -0.5852  0.3985
   73MOL0     H 9581   8.948   8.128   3.188  1.0299  1.3601 -1.0812
   73MOL0     H 9582   8.917   8.282   3.105 -0.5433  1.3613  0.3883
   73MOL0     H 9583   8.713   8.281   3.286 -1.1256 -1.8804  0.1851
   73MOL0     H 9584   8.716   8.106   3.257 -1.7396  0.3504 -0.7258
   73MOL0     H 9585   8.660   8.329   3.049 -2.3311  0.0449 -0.5236
   73MOL0     H 9586   8.698   8.159   3.012 -0.8016  0.8163 -0.8868
   73MOL0     H 9587   8.488   8.189   3.210  1.1140 -0.5078  0.5412
   73MOL0     H 9588   8.530   8.054   3.097 -2.1263 -0.4102  0.4954
   73MOL0     H 9589   8.419   8.438   3.037  0.0941 -1.0117  2.3924
   73MOL0     H 9590   8.250   8.425   2.691 -0.6192  2.1923 -0.2623
   73MOL0     H 9591   8.319   8.530   2.803 -0.8760  0.9686  1.4592
   73MOL0     H 9592   8.095   8.588   2.790  1.0811 -0.3185 -1.0473
   73MOL0     H 9593   8.116   8.508   2.950  0.7540 -0.3110  0.9811
   73MOL0     H 9594   7.991   8.385   2.692  4.2454  1.6073 -0.6564
   73MOL0     H 9595   8.011   8.305   2.848 -3.0257 -1.6482 -2.3456
   73MOL0     H 9596   7.776   8.391   2.812 -0.2229  0.4615  0.7028
   73MOL0     H 9597   7.836   8.548   2.796 -0.1547  0.0317 -0.1548
   73MOL0     H 9598   7.804   8.430   3.231  0.1651 -1.4010 -1.0139
   73MOL0     H 9599   7.586   8.413   3.341 -0.3798 -0.8632  0.3073
   73MOL0     H 9600   7.021   8.643   3.185 -2.9788  1.4370  2.8017
   73MOL0     H 9601   6.788   8.551   3.246  0.2942  0.1439  0.3388
   73MOL0     H 9602   6.619   8.343   3.149  0.0014 -0.6022  0.2138
   73MOL0     H 9603   6.618   8.454   3.296  3.3629  1.0681  0.4349
   73MOL0     H 9604   6.515   8.263   3.427 -0.6770 -1.9775 -0.6816
   73MOL0     H 9605   6.528   8.154   3.287  1.1928  0.1757 -0.8352
   73MOL0     H 9606   6.362   8.249   3.164  0.1493  0.7548  0.6257
   73MOL0     H 9607   6.369   8.406   3.245  1.6588  0.9987  3.3419
   73MOL0     H 9608   6.208   8.161   3.346  0.9280  0.5975  1.3350
   73MOL0     H 9609   6.257   8.290   3.454 -4.2712  0.6125 -0.0840
   73MOL0     H 9610   6.118   8.349   3.190 -0.2887 -1.3577  0.1971
   73MOL0     H 9611   6.165   8.460   3.320 -2.8691  1.0368  0.1923
   73MOL0     H 9612   5.957   8.244   3.360 -0.6310  0.0024 -1.5161
   73MOL0     H 9613   5.927   8.415   3.318 -1.8622 -0.7874  0.5711
   73MOL0     H 9614   6.062   8.303   3.559  0.2776  1.9268  2.4695
   73MOL0     H 9615   6.049   8.482   3.542 -1.9873  1.9793 -2.5435
   73MOL0     H 9616   5.866   8.378   3.694 -1.0747 -1.6072 -1.0745
   73MOL0     H 9617   5.801   8.296   3.555 -0.1124 -0.9234  0.7213
   73MOL0     H 9618   6.964   8.159   3.300  0.3789 -0.1632  1.8731
   73MOL0     H 9619   7.188   8.252   3.239 -0.9996 -0.3775 -2.9809
   73MOL0     H 9620   7.391   8.547   2.988 -1.2219  0.4032  1.1210
   73MOL0     H 9621   7.620   8.551   2.871 -1.6066  1.7565  1.2651
   73MOL0     H 9622   9.520   8.124   3.192 -0.2789 -0.3115  0.0799
   73MOL0     H 9623   9.760   8.158   3.127 -0.9452 -0.6838 -0.1577
   73MOL0     H 9624  10.125   8.232   3.124  0.3129  1.0959 -0.3365
   73MOL0     H 9625  10.359   8.205   3.089 -1.7170 -0.9180  0.4424
   73MOL0     H 9626  10.602   8.243   2.928  1.0984  1.5336 -0.6482
   73MOL0     H 9627  10.574   8.206   3.101  2.3791 -0.1808  1.6068
   73MOL0     H 9628  10.815   8.392   3.009  0.2489  0.7182 -0.7415
   73MOL0     H 9629  10.787   8.314   3.164  2.7648  3.3550 -0.9784
   73MOL0     H 9630  10.812   8.156   2.902  2.2422  0.2245 -0.1785
   73MOL0     H 9631  10.814   8.099   3.071 -0.4270 -0.0963  0.5959
   73MOL0     H 9632  11.022   8.297   2.971  1.2486 -1.8721 -1.5796
   73MOL0     H 9633  11.014   8.217   3.135 -1.5912  0.9638  0.6024
   73MOL0     H 9634  11.213   7.923   2.914 -0.4818 -0.6281 -0.9125
   73MOL0     H 9635  10.401   8.630   3.054  0.4978 -0.4396 -0.7724
   73MOL0     H 9636  10.170   8.658   3.104 -1.2985 -0.4761 -2.1490
   74MOL0     O 9637   8.659   6.928   1.482  0.0522  0.1890  0.6639
   74MOL0     C 9638   8.724   6.824   1.498 -0.0993 -0.3213 -0.3495
   74MOL0     O 9639   8.677   6.700   1.517  0.4544  0.1613  0.4650
   74MOL0     C 9640   8.537   6.697   1.528 -0.3614 -0.6641  0.2532
   74MOL0     C 9641   8.467   6.739   1.642 -0.2911  0.5088 -0.1127
   74MOL0     C 9642   8.328   6.757   1.637 -0.2095 -0.1429 -0.3776
   74MOL0     C 9643   8.250   6.708   1.525  0.1092  0.8322  0.4818
   74MOL0     O 9644   8.122   6.720   1.499 -0.0443 -0.5764 -0.3877
   74MOL0     C 9645   8.021   6.763   1.596 -0.4964 -0.0278  0.0158
   74MOL0     C 9646   7.893   6.699   1.542 -0.4835 -0.8711 -0.2739
   74MOL0     C 9647   7.788   6.678   1.649 -0.4046  0.1932 -0.3376
   74MOL0     C 9648   7.652   6.700   1.584 -0.3287 -0.3358  0.1903
   74MOL0     C 9649   7.541   6.698   1.687  0.4022  0.3425 -0.6263
   74MOL0     C 9650   7.397   6.685   1.631 -0.2095 -0.1484  0.6283
   74MOL0     C 9651   7.296   6.674   1.750  0.0018  0.1056  0.2039
   74MOL0     C 9652   7.255   6.532   1.782  0.3179  0.4524 -0.2350
   74MOL0     N 9653   7.369   6.467   1.847 -0.5177  0.2859 -0.2114
   74MOL0     C 9654   7.449   6.376   1.797 -0.2488 -0.0510  0.3309
   74MOL0     C 9655   7.548   6.357   1.878 -0.0109 -0.2433  0.0429
   74MOL0     C 9656   7.684   6.287   1.870 -0.1089 -0.4520 -0.1838
   74MOL0     C 9657   7.692   6.155   1.795  0.0838  0.2977  0.4435
   74MOL0     C 9658   7.626   6.032   1.867  0.3382  0.3418  0.1543
   74MOL0     C 9659   7.485   6.048   1.936 -0.4594  0.0369 -0.6186
   74MOL0     O 9660   7.388   6.060   1.833  0.3535  0.1485 -0.2172
   74MOL0     C 9661   7.257   6.084   1.871 -0.7670 -0.4106 -0.4916
   74MOL0     C 9662   7.166   6.008   1.799 -0.5479  0.7618 -0.6373
   74MOL0     C 9663   7.032   5.996   1.842  0.5859  0.3248 -0.4204
   74MOL0     C 9664   6.987   6.069   1.951 -0.7293  0.1461  0.8124
   74MOL0     C 9665   6.845   6.066   1.993  0.8229  0.3282  0.2742
   74MOL0     O 9666   6.819   6.104   2.119 -0.2788  0.4231  0.5654
   74MOL0     C 9667   6.691   6.116   2.176  0.5316 -0.2324  0.6261
   74MOL0     C 9668   6.567   6.099   2.113 -0.3611  0.4003 -0.6955
   74MOL0     C 9669   6.442   6.097   2.190 -0.3493 -1.9745 -0.3964
   74MOL0     C 9670   6.444   6.137   2.329  0.8138 -0.0982 -0.1330
   74MOL0     O 9671   6.336   6.144   2.417 -0.3094  0.1717 -0.0485
   74MOL0     C 9672   6.237   6.033   2.409 -0.2351 -0.1531  0.4053
   74MOL0     C 9673   6.150   6.042   2.525 -0.4881  0.3405  0.1110
   74MOL0     C 9674   6.053   6.155   2.517  0.4598 -0.2929 -0.4199
   74MOL0     C 9675   5.949   6.156   2.631  0.0587  0.4953  0.2902
   74MOL0     C 9676   5.854   6.279   2.644 -0.2500  0.6810 -0.1338
   74MOL0     C 9677   5.760   6.270   2.761  0.8456 -0.9841 -0.0443
   74MOL0     C 9678   5.693   6.406   2.792 -0.1007  0.6655 -0.6787
   74MOL0     C 9679   5.564   6.395   2.876 -0.1708 -0.1300  0.3100
   74MOL0    Cl 9680   5.594   6.317   3.036 -0.6485 -0.0703 -0.2203
   74MOL0     C 9681   6.571   6.170   2.384 -0.0551  0.1746 -0.4025
   74MOL0     C 9682   6.690   6.153   2.312 -0.6915 -0.8470 -0.0766
   74MOL0     O 9683   6.763   6.014   1.915 -0.0481 -0.2191 -0.0775
   74MOL0     C 9684   7.079   6.147   2.020 -0.1329  0.2765  0.1649
   74MOL0     C 9685   7.210   6.155   1.987 -0.2700 -0.5977 -0.3548
   74MOL0     N 9686   7.532   6.442   1.993  0.9104 -0.4459  0.2643
   74MOL0     N 9687   7.416   6.503   1.976  0.0238 -0.2279 -0.5072
   74MOL0     C 9688   8.320   6.635   1.427 -0.2395  0.1191 -0.3196
   74MOL0     C 9689   8.465   6.641   1.426 -0.0024  0.0206  0.7737
   74MOL0     C 9690   8.872   6.831   1.475 -0.1420  0.0233 -0.1536
   74MOL0     C 9691   8.930   6.944   1.410 -0.0524 -0.1585  0.3130
   74MOL0     C 9692   9.074   6.948   1.402  0.0323  0.3544  0.3128
   74MOL0     C 9693   9.147   6.851   1.470 -0.6976 -0.2162 -0.6357
   74MOL0     O 9694   9.289   6.859   1.479  0.0344 -0.1622  0.8006
   74MOL0     C 9695   9.365   6.970   1.433  0.7640  0.1940  0.1658
   74MOL0     C 9696   9.507   6.949   1.476 -0.2105 -0.5851 -0.6709
   74MOL0     C 9697   9.578   6.819   1.438 -0.3059  0.4172  1.3469
   74MOL0     C 9698   9.719   6.808   1.490  0.2228  0.4026  1.0983
   74MOL0     C 9699   9.790   6.694   1.433  0.0480  0.3187 -0.5364
   74MOL0     C 9700   9.857   6.596   1.414  0.6516 -0.2507  0.7414
   74MOL0     C 9701   9.088   6.750   1.544 -0.4429 -1.4554  0.0058
   74MOL0     C 9702   8.950   6.729   1.533 -0.1949  0.7816 -0.5084
   74MOL0     H 9703   8.526   6.781   1.723 -0.9853  0.1317  0.6061
   74MOL0     H 9704   8.278   6.819   1.711 -0.5213 -0.8281 -0.0103
   74MOL0     H 9705   8.017   6.872   1.595  3.0565  0.3313 -3.8882
   74MOL0     H 9706   8.056   6.735   1.696  0.3829 -0.9798 -0.5342
   74MOL0     H 9707   7.917   6.600   1.500 -2.8949 -2.3199  1.5157
   74MOL0     H 9708   7.861   6.748   1.450 -1.1986 -1.1163 -0.1624
   74MOL0     H 9709   7.798   6.755   1.725 -1.9329  0.8236 -0.7416
   74MOL0     H 9710   7.786   6.573   1.682 -0.3991 -0.1960 -1.5215
   74MOL0     H 9711   7.665   6.796   1.534  2.1306  0.0459  1.3757
   74MOL0     H 9712   7.636   6.622   1.509 -3.4604 -0.2837  0.6718
   74MOL0     H 9713   7.548   6.787   1.751 -0.7091 -0.3994  0.5635
   74MOL0     H 9714   7.549   6.610   1.751 -0.5604  0.2378 -0.6316
   74MOL0     H 9715   7.396   6.592   1.574  0.0923 -0.4368  1.0799
   74MOL0     H 9716   7.379   6.767   1.561  3.7895  0.0061 -0.4538
   74MOL0     H 9717   7.326   6.732   1.838  1.8328  0.4976 -0.6401
   74MOL0     H 9718   7.212   6.730   1.707 -0.3251 -0.9932 -0.6609
   74MOL0     H 9719   7.241   6.481   1.686 -3.1142 -2.2899  1.4860
   74MOL0     H 9720   7.159   6.512   1.831  0.1479 -0.5878 -0.9398
   74MOL0     H 9721   7.439   6.337   1.696  4.2900  0.9129 -0.7030
   74MOL0     H 9722   7.732   6.268   1.966 -0.5957  2.4600  0.7633
   74MOL0     H 9723   7.752   6.356   1.819  1.2229 -1.9653 -0.5094
   74MOL0     H 9724   7.796   6.127   1.775  0.1338 -1.9342  3.2229
   74MOL0     H 9725   7.637   6.162   1.701  2.1840 -2.0103 -1.0658
   74MOL0     H 9726   7.616   5.953   1.791 -1.1753  0.5284  0.1277
   74MOL0     H 9727   7.705   6.002   1.936 -0.4114 -1.3449  0.3165
   74MOL0     H 9728   7.480   6.134   2.003 -0.9948  1.1344 -2.0025
   74MOL0     H 9729   7.446   5.964   1.994  1.2162 -0.4034 -0.0920
   74MOL0     H 9730   7.207   5.970   1.707 -0.6357  1.9701 -1.1952
   74MOL0     H 9731   6.962   5.933   1.789  1.2266  0.3231 -1.2941
   74MOL0     H 9732   6.549   6.073   2.009 -1.2560  1.5014 -0.8346
   74MOL0     H 9733   6.354   6.074   2.131  0.5423 -0.9856 -2.1867
   74MOL0     H 9734   6.276   5.931   2.398 -1.4989 -0.4750 -1.4984
   74MOL0     H 9735   6.183   6.052   2.316  1.9908  3.9246 -0.2550
   74MOL0     H 9736   6.216   6.042   2.613  0.0782  2.0902 -0.2610
   74MOL0     H 9737   6.093   5.949   2.528 -0.0994  0.1201  1.3014
   74MOL0     H 9738   5.995   6.140   2.425  1.5361 -0.5181 -1.0824
   74MOL0     H 9739   6.093   6.256   2.506 -1.3314  0.3212 -1.7446
   74MOL0     H 9740   5.888   6.065   2.620  0.7611 -0.0894  1.0965
   74MOL0     H 9741   5.996   6.148   2.729 -0.4825  0.1250  0.5267
   74MOL0     H 9742   5.804   6.293   2.548  1.2322 -2.3508 -1.4988
   74MOL0     H 9743   5.918   6.363   2.673  0.7137 -0.6002  1.6476
   74MOL0     H 9744   5.811   6.237   2.852 -0.1197 -0.9603  0.5218
   74MOL0     H 9745   5.684   6.194   2.738 -1.5623  1.2610 -0.0766
   74MOL0     H 9746   5.755   6.471   2.854 -1.1453  0.6228  0.4414
   74MOL0     H 9747   5.687   6.455   2.694 -0.6504 -0.8834 -1.4551
   74MOL0     H 9748   5.492   6.345   2.810 -0.0183 -1.1410  0.8830
   74MOL0     H 9749   5.530   6.496   2.900  0.0067 -0.1801  0.7807
   74MOL0     H 9750   6.575   6.200   2.489  1.3159 -0.1734 -0.3252
   74MOL0     H 9751   6.789   6.172   2.353 -1.6449  1.2721  1.4708
   74MOL0     H 9752   7.050   6.193   2.114 -0.6376  0.9744 -0.3222
   74MOL0     H 9753   7.287   6.215   2.035  0.8353  0.0166 -2.7294
   74MOL0     H 9754   8.267   6.579   1.351  0.8302 -0.7163 -0.4876
   74MOL0     H 9755   8.525   6.604   1.343 -1.7365  2.3591 -1.7015
   74MOL0     H 9756   8.869   7.024   1.371  0.2436 -0.0535  0.0649
   74MOL0     H 9757   9.127   7.034   1.363  0.1124 -0.0786 -0.5569
   74MOL0     H 9758   9.324   7.053   1.492 -1.2648 -1.1080  0.6826
   74MOL0     H 9759   9.363   6.984   1.325  2.4733 -2.2502 -0.2491
   74MOL0     H 9760   9.575   7.028   1.443 -0.2600 -0.0385  0.5044
   74MOL0     H 9761   9.503   6.952   1.585 -1.1935  1.2262 -0.7095
   74MOL0     H 9762   9.570   6.805   1.330 -2.6571 -0.5660  1.5816
   74MOL0     H 9763   9.513   6.738   1.475 -1.6523  0.7100 -0.2466
   74MOL0     H 9764   9.770   6.897   1.451 -1.4035  0.3311 -1.3407
   74MOL0     H 9765   9.717   6.803   1.600 -2.0349 -0.4632  1.0552
   74MOL0     H 9766   9.927   6.517   1.392 -0.5106 -1.0633 -0.1371
   74MOL0     H 9767   9.155   6.679   1.591 -1.4061 -1.1361  1.9510
   74MOL0     H 9768   8.898   6.645   1.576  0.4007  0.3214 -0.6707
   75MOL0     O 9769   1.269   9.705   7.048 -0.0702  0.5371  0.1096
   75MOL0     C 9770   1.360   9.647   7.110 -0.7156 -1.2779 -0.3438
   75MOL0     O 9771   1.345   9.540   7.182 -0.1305  0.5410  1.0283
   75MOL0     C 9772   1.219   9.481   7.198 -0.9160 -0.5635 -0.4623
   75MOL0     C 9773   1.107   9.487   7.117 -0.2549  0.4986  0.1576
   75MOL0     C 9774   0.990   9.423   7.171 -0.4328  0.5182 -0.6044
   75MOL0     C 9775   0.986   9.365   7.301 -0.0327 -0.4869  0.2449
   75MOL0     O 9776   0.874   9.302   7.345  0.2737  0.3642  0.2313
   75MOL0     C 9777   0.750   9.296   7.272 -0.1562  0.5528  0.2843
   75MOL0     C 9778   0.647   9.197   7.349 -0.0299 -0.3532  0.2474
   75MOL0     C 9779   0.512   9.194   7.277  0.1191  0.0583 -0.4493
   75MOL0     C 9780   0.403   9.165   7.382  0.3952 -0.4103  0.3416
   75MOL0     C 9781   0.256   9.175   7.330 -0.4352  1.4163  1.0279
   75MOL0     C 9782   0.144   9.182   7.439 -1.0166 -0.2068 -0.0692
   75MOL0     C 9783   0.010   9.207   7.365 -0.5676  0.5028  0.4530
   75MOL0     C 9784  -0.095   9.206   7.464 -0.0487 -0.1817  0.3017
   75MOL0     N 9785  -0.228   9.225   7.397  0.3016  0.4851 -0.6962
   75MOL0     C 9786  -0.280   9.348   7.368 -0.1846  0.0982 -0.1064
   75MOL0     C 9787  -0.404   9.328   7.317  0.3076 -0.2240 -0.0499
   75MOL0     C 9788  -0.502   9.431   7.298  0.1519  0.2031  0.2193
   75MOL0     C 9789  -0.556   9.456   7.152  0.2468 -0.0701  0.2541
   75MOL0     C 9790  -0.688   9.523   7.173 -0.0088  0.2342  0.1049
   75MOL0     C 9791  -0.741   9.554   7.034  0.4384 -0.0767 -0.0511
   75MOL0     O 9792  -0.844   9.655   7.043 -0.3135  0.2345  0.4223
   75MOL0     C 9793  -0.979   9.609   7.030 -0.9500  0.0232  0.1980
   75MOL0     C 9794  -1.066   9.674   7.108 -0.7261  0.2805  0.5021
   75MOL0     C 9795  -1.205   9.640   7.105  0.2261 -0.6059 -1.1279
   75MOL0     C 9796  -1.260   9.558   7.006  0.6934  0.3450  0.1532
   75MOL0     C 9797  -1.404   9.532   6.979  0.0560  0.6106  0.6492
   75MOL0     O 9798  -1.482   9.554   7.087  0.5609  0.2642 -0.4433
   75MOL0     C 9799  -1.615   9.517   7.072  0.4291  0.3673 -0.0084
   75MOL0     C 9800  -1.649   9.386   7.114  0.3436  0.3626 -0.0961
   75MOL0     C 9801  -1.779   9.346   7.124  0.2570 -0.0133 -0.3100
   75MOL0     C 9802  -1.881   9.429   7.088  0.7707  0.1757 -0.6602
   75MOL0     O 9803  -2.013   9.381   7.098  0.4346 -0.9855  0.6215
   75MOL0     C 9804  -2.108   9.421   6.993  0.1195  0.0022 -0.1781
   75MOL0     C 9805  -2.216   9.316   6.957  0.4876 -0.5586 -0.0484
   75MOL0     C 9806  -2.326   9.380   6.869 -0.1261 -0.9396  0.0093
   75MOL0     C 9807  -2.459   9.300   6.865  0.9485 -0.0337  0.9162
   75MOL0     C 9808  -2.569   9.395   6.819 -0.5419 -0.1938  0.2502
   75MOL0     C 9809  -2.683   9.314   6.763 -0.4295  0.1459 -0.0821
   75MOL0     C 9810  -2.796   9.406   6.734  0.3144  0.0576 -0.3978
   75MOL0     C 9811  -2.902   9.368   6.641 -0.4049 -0.8171 -0.5584
   75MOL0    Cl 9812  -2.959   9.203   6.659  0.0815 -0.1666  0.1011
   75MOL0     C 9813  -1.852   9.563   7.041 -0.0119 -0.0172  0.5881
   75MOL0     C 9814  -1.719   9.603   7.036  0.5673 -0.0608  0.8194
   75MOL0     O 9815  -1.444   9.492   6.867  0.2771  0.3190  0.0578
   75MOL0     C 9816  -1.164   9.499   6.921  0.2194  0.1642  0.6640
   75MOL0     C 9817  -1.026   9.518   6.933  0.2070  0.2138 -0.2561
   75MOL0     N 9818  -0.425   9.190   7.314 -0.2891 -0.6509  0.4119
   75MOL0     N 9819  -0.325   9.134   7.355 -0.7867  0.4104  0.0874
   75MOL0     C 9820   1.097   9.371   7.376  0.4205  0.6165 -0.4377
   75MOL0     C 9821   1.209   9.431   7.325 -0.1891  0.1756 -0.2847
   75MOL0     C 9822   1.498   9.705   7.100 -0.1980 -0.1549 -0.3940
   75MOL0     C 9823   1.525   9.805   7.010  0.7042  0.7780 -0.5605
   75MOL0     C 9824   1.658   9.850   7.011 -0.0342 -0.6830  0.0107
   75MOL0     C 9825   1.755   9.787   7.087  0.8479  0.0838  0.7456
   75MOL0     O 9826   1.885   9.816   7.075 -0.3323  0.4484  0.1271
   75MOL0     C 9827   1.939   9.903   6.977  0.0724  0.1668  0.3107
   75MOL0     C 9828   2.094   9.905   6.985 -0.4560  0.0800  0.1869
   75MOL0     C 9829   2.150   9.764   6.943 -0.1174  0.0366 -0.1829
   75MOL0     C 9830   2.306   9.782   6.938  0.2878  0.0072  0.1188
   75MOL0     C 9831   2.371   9.650   6.911  0.3008 -0.0851 -0.1762
   75MOL0     C 9832   2.427   9.542   6.883  0.3801 -0.5255 -0.4521
   75MOL0     C 9833   1.724   9.683   7.172 -0.1581 -0.1528 -0.2603
   75MOL0     C 9834   1.592   9.650   7.185 -0.4365  0.2834  0.1157
   75MOL0     H 9835   1.106   9.539   7.022  1.6741  4.4487  2.0946
   75MOL0     H 9836   0.902   9.420   7.108 -1.3478  2.7198  0.4506
   75MOL0     H 9837   0.775   9.258   7.173 -1.2467 -0.9225  0.5338
   75MOL0     H 9838   0.713   9.399   7.271 -1.5546  0.0716  0.5685
   75MOL0     H 9839   0.633   9.236   7.451 -0.1061  2.8031 -0.8637
   75MOL0     H 9840   0.688   9.096   7.343  0.7381 -0.1170  1.2626
   75MOL0     H 9841   0.510   9.119   7.198  3.6080  1.2191 -1.8326
   75MOL0     H 9842   0.498   9.289   7.224  1.5702 -0.6396 -2.1875
   75MOL0     H 9843   0.439   9.075   7.434  1.9196  0.6360  1.1621
   75MOL0     H 9844   0.408   9.248   7.453  0.4734 -0.2722  0.1730
   75MOL0     H 9845   0.244   9.082   7.274 -1.5626  2.2992 -0.2404
   75MOL0     H 9846   0.240   9.257   7.260 -5.6169 -1.0908 -1.2619
   75MOL0     H 9847   0.160   9.264   7.510  2.1591 -1.9535  1.4651
   75MOL0     H 9848   0.138   9.086   7.491 -0.2162 -0.0225  0.3862
   75MOL0     H 9849   0.008   9.298   7.304 -0.0273  0.0801 -0.2111
   75MOL0     H 9850  -0.013   9.136   7.285  0.6579 -0.4546  0.9108
   75MOL0     H 9851  -0.064   9.286   7.531 -0.9199 -0.1760  0.7113
   75MOL0     H 9852  -0.092   9.114   7.524 -1.7692  0.9963  2.3190
   75MOL0     H 9853  -0.233   9.445   7.381 -0.4223  0.5528 -2.1873
   75MOL0     H 9854  -0.464   9.522   7.346 -0.7420  1.6681 -1.7108
   75MOL0     H 9855  -0.583   9.396   7.363 -2.6604  4.0538 -0.8704
   75MOL0     H 9856  -0.568   9.365   7.093 -1.8023  0.0925  0.3545
   75MOL0     H 9857  -0.488   9.526   7.103 -2.1942  1.1590 -1.5849
   75MOL0     H 9858  -0.755   9.458   7.229 -0.0864  0.2724  0.0579
   75MOL0     H 9859  -0.677   9.615   7.231 -0.2373 -0.0865  0.6586
   75MOL0     H 9860  -0.768   9.461   6.983  1.1044  2.0693 -4.8795
   75MOL0     H 9861  -0.662   9.602   6.976  1.2216  0.1345  1.1785
   75MOL0     H 9862  -1.026   9.747   7.178  1.3474  0.8063 -1.1093
   75MOL0     H 9863  -1.263   9.668   7.192  3.2913 -0.8886  1.1580
   75MOL0     H 9864  -1.566   9.321   7.140  1.1679  1.8383  1.1016
   75MOL0     H 9865  -1.797   9.244   7.156 -1.5800  1.0740  2.4537
   75MOL0     H 9866  -2.051   9.449   6.904  2.1337  1.0563  1.3554
   75MOL0     H 9867  -2.164   9.506   7.034 -1.0467 -1.1051  0.6162
   75MOL0     H 9868  -2.274   9.287   7.045 -1.4371  0.7483 -0.8169
   75MOL0     H 9869  -2.160   9.238   6.905  1.7346  0.7986 -0.8245
   75MOL0     H 9870  -2.282   9.378   6.769 -1.3296 -0.6080 -0.5454
   75MOL0     H 9871  -2.343   9.487   6.881  2.7246 -0.4924  0.6796
   75MOL0     H 9872  -2.452   9.230   6.781 -0.4510 -0.1724  0.8776
   75MOL0     H 9873  -2.486   9.249   6.958 -0.3459 -0.7445  0.1894
   75MOL0     H 9874  -2.527   9.458   6.740  1.0093  0.3813  1.4709
   75MOL0     H 9875  -2.602   9.461   6.900 -2.0752 -0.9958  0.3210
   75MOL0     H 9876  -2.721   9.249   6.843  0.7905 -2.2973 -1.3718
   75MOL0     H 9877  -2.656   9.250   6.678 -0.6893  0.0054 -0.0595
   75MOL0     H 9878  -2.837   9.409   6.836  2.4006 -2.7215  0.6589
   75MOL0     H 9879  -2.761   9.506   6.707  0.8034  0.6452  2.0912
   75MOL0     H 9880  -2.868   9.374   6.537  1.7533  0.3713  0.1524
   75MOL0     H 9881  -2.984   9.440   6.637 -0.9628 -1.3656  0.5265
   75MOL0     H 9882  -1.927   9.635   7.011 -1.9765 -0.5782  3.6796
   75MOL0     H 9883  -1.700   9.709   7.018 -0.3377 -0.1109 -0.6276
   75MOL0     H 9884  -1.200   9.439   6.838  0.2276  2.3873 -1.0123
   75MOL0     H 9885  -0.966   9.466   6.860 -2.0709 -2.1969 -0.5754
   75MOL0     H 9886   1.094   9.334   7.478 -3.7309  0.4784 -0.4722
   75MOL0     H 9887   1.295   9.438   7.390 -2.3488  1.0546  2.7124
   75MOL0     H 9888   1.445   9.845   6.949  0.3789  2.2510  0.7815
   75MOL0     H 9889   1.669   9.925   6.934  0.0045  2.3418  2.7217
   75MOL0     H 9890   1.896  10.004   6.983 -1.7224 -0.3628 -2.0873
   75MOL0     H 9891   1.903   9.862   6.882  1.2253 -0.8457  0.2898
   75MOL0     H 9892   2.136   9.984   6.922  1.5195 -0.3143  0.9421
   75MOL0     H 9893   2.127   9.929   7.087 -1.2897  0.4520  0.3799
   75MOL0     H 9894   2.113   9.733   6.845  1.5913 -1.0464 -0.5195
   75MOL0     H 9895   2.130   9.693   7.024 -0.9843 -1.3592 -1.5628
   75MOL0     H 9896   2.349   9.844   6.859  2.8622 -2.8873 -0.9790
   75MOL0     H 9897   2.346   9.816   7.035  4.0831 -0.0049 -1.2677
   75MOL0     H 9898   2.476   9.451   6.855 -0.1784 -0.8461 -0.3891
   75MOL0     H 9899   1.802   9.631   7.227 -1.2245  0.9222  2.4213
   75MOL0     H 9900   1.566   9.570   7.254  1.4210 -3.0959 -2.7669
   76MOL0     O 9901   7.636   7.427   5.852 -0.4937  1.1921 -0.4252
   76MOL0     C 9902   7.613   7.454   5.736 -0.3842  0.7516  0.6401
   76MOL0     O 9903   7.574   7.580   5.689 -0.2360  0.1828 -0.3298
   76MOL0     C 9904   7.515   7.664   5.780 -0.3977  0.5260 -0.1118
   76MOL0     C 9905   7.587   7.748   5.859  0.4572  0.4450  0.3541
   76MOL0     C 9906   7.527   7.828   5.956  0.2688  0.7859 -0.8579
   76MOL0     C 9907   7.386   7.814   5.975  0.1390  0.4270  0.8176
   76MOL0     O 9908   7.307   7.887   6.064  0.3318 -0.5747  0.6353
   76MOL0     C 9909   7.350   7.980   6.163  0.1178 -0.5677  0.0486
   76MOL0     C 9910   7.226   8.048   6.226 -0.1465 -1.0165  0.6239
   76MOL0     C 9911   7.154   8.135   6.121 -0.6077 -0.9160 -0.4555
   76MOL0     C 9912   7.090   8.265   6.173 -0.3263  0.3194  0.3796
   76MOL0     C 9913   7.026   8.342   6.066 -0.4790  0.7007 -0.8302
   76MOL0     C 9914   7.118   8.447   6.002 -0.3606  0.1399  0.1348
   76MOL0     C 9915   7.051   8.550   5.908 -0.3152 -0.1473  1.0736
   76MOL0     C 9916   7.142   8.672   5.859 -0.3365  0.0488  0.5536
   76MOL0     N 9917   7.233   8.625   5.754 -0.1296 -0.0826  0.0869
   76MOL0     C 9918   7.356   8.576   5.784  1.1138 -0.0663  0.0950
   76MOL0     C 9919   7.410   8.552   5.661 -0.8382 -0.0368 -0.3197
   76MOL0     C 9920   7.552   8.494   5.644 -0.5349  0.5337  0.0963
   76MOL0     C 9921   7.627   8.569   5.530 -0.5524 -0.0941 -0.9393
   76MOL0     C 9922   7.662   8.715   5.543  0.3048  0.1651 -0.4602
   76MOL0     C 9923   7.734   8.779   5.665  0.6782  0.4268 -0.8119
   76MOL0     O 9924   7.670   8.756   5.789  0.0431  0.1987  0.5330
   76MOL0     C 9925   7.577   8.839   5.825 -0.0360 -0.5243  0.1522
   76MOL0     C 9926   7.520   8.810   5.950  0.3960 -0.1462 -0.9765
   76MOL0     C 9927   7.422   8.891   6.005  0.3755  0.0160 -0.0537
   76MOL0     C 9928   7.361   9.003   5.928  0.1376  0.4507 -0.2981
   76MOL0     C 9929   7.253   9.088   5.990  1.2875  1.3401  0.3176
   76MOL0     O 9930   7.223   9.197   5.923 -0.1096  0.0175  0.1274
   76MOL0     C 9931   7.145   9.281   5.993  0.3900 -0.6364 -0.3768
   76MOL0     C 9932   7.200   9.366   6.083  0.5869  1.2915 -0.4161
   76MOL0     C 9933   7.115   9.453   6.164  0.5073 -0.0623 -0.1613
   76MOL0     C 9934   6.973   9.456   6.133 -0.8389 -0.3392 -0.7790
   76MOL0     O 9935   6.898   9.548   6.201 -0.4666  0.6459  0.2413
   76MOL0     C 9936   6.767   9.502   6.243 -0.4571  0.2856 -1.1526
   76MOL0     C 9937   6.672   9.621   6.257 -0.8189 -0.3383  1.0699
   76MOL0     C 9938   6.556   9.625   6.353 -0.5502 -0.4537  0.2438
   76MOL0     C 9939   6.445   9.544   6.291 -0.4187 -1.6976  0.3696
   76MOL0     C 9940   6.322   9.528   6.382 -0.7360  0.2115 -0.0738
   76MOL0     C 9941   6.200   9.470   6.321 -0.3282  0.0710  0.3835
   76MOL0     C 9942   6.206   9.326   6.265  0.8063 -0.1454  0.7669
   76MOL0     C 9943   6.084   9.308   6.182  0.7865 -0.4658 -0.3502
   76MOL0    Cl 9944   6.103   9.368   6.017 -0.0986  0.2993 -0.4264
   76MOL0     C 9945   6.929   9.372   6.034 -0.0852  0.1994 -0.0222
   76MOL0     C 9946   7.006   9.299   5.955 -0.2867  0.0332 -0.1294
   76MOL0     O 9947   7.212   9.060   6.105 -0.2070  0.2956 -0.4657
   76MOL0     C 9948   7.410   9.023   5.797  1.1134 -0.2353 -0.1954
   76MOL0     C 9949   7.513   8.939   5.750  0.0641 -0.3230 -0.5372
   76MOL0     N 9950   7.318   8.575   5.565 -0.2329  0.4947 -0.0879
   76MOL0     N 9951   7.206   8.614   5.621  0.9115  0.7151 -0.5508
   76MOL0     C 9952   7.316   7.724   5.890 -0.2993  0.3217  0.2208
   76MOL0     C 9953   7.380   7.649   5.797 -0.2563 -0.1534  0.3086
   76MOL0     C 9954   7.639   7.356   5.633  0.8969 -0.0754 -0.2642
   76MOL0     C 9955   7.660   7.219   5.660  0.2532 -0.6114 -0.5082
   76MOL0     C 9956   7.687   7.127   5.550 -0.2642  0.5949 -0.7048
   76MOL0     C 9957   7.699   7.174   5.421  0.7654  1.1049  0.0706
   76MOL0     O 9958   7.710   7.088   5.310 -0.2836 -0.1709 -0.5306
   76MOL0     C 9959   7.793   6.967   5.315  0.3674 -0.2078 -0.1047
   76MOL0     C 9960   7.933   7.016   5.275  0.2334 -0.4682 -0.5449
   76MOL0     C 9961   8.026   7.088   5.378 -0.2884 -0.1339  0.0231
   76MOL0     C 9962   8.171   7.071   5.342  0.0497  0.1426 -0.1248
   76MOL0     C 9963   8.263   7.118   5.450  0.3314  0.6999  0.5290
   76MOL0     C 9964   8.335   7.157   5.539 -0.8027 -1.1584 -0.3721
   76MOL0     C 9965   7.683   7.310   5.398 -0.2190 -0.8366  1.2523
   76MOL0     C 9966   7.645   7.404   5.499  1.2378  0.0124  0.2943
   76MOL0     H 9967   7.695   7.754   5.852  0.4724 -1.1279 -3.1276
   76MOL0     H 9968   7.588   7.898   6.012  0.4261 -0.6781  0.9090
   76MOL0     H 9969   7.432   8.044   6.127  1.1730 -0.8167  1.8446
   76MOL0     H 9970   7.388   7.909   6.237  2.0607  0.9094  0.5691
   76MOL0     H 9971   7.258   8.100   6.317  0.9225 -0.2747 -0.1495
   76MOL0     H 9972   7.159   7.974   6.269 -1.3717  0.4893  1.4201
   76MOL0     H 9973   7.078   8.086   6.060 -0.5919  1.0439 -2.1482
   76MOL0     H 9974   7.231   8.164   6.049  0.1254 -0.1081  0.6205
   76MOL0     H 9975   7.009   8.230   6.238  1.2227  0.4130  2.4819
   76MOL0     H 9976   7.155   8.319   6.243  0.0883 -0.9977  1.0583
   76MOL0     H 9977   6.937   8.392   6.105 -2.1200 -1.2302 -1.8892
   76MOL0     H 9978   6.987   8.273   5.991 -0.8191  1.8756 -1.7440
   76MOL0     H 9979   7.201   8.392   5.957 -1.1566 -1.7692  0.8854
   76MOL0     H 9980   7.160   8.498   6.090 -3.7858  3.1071  0.2795
   76MOL0     H 9981   7.002   8.498   5.825 -2.3542  0.5061  1.8078
   76MOL0     H 9982   6.970   8.599   5.963  0.0779  0.6183  0.9827
   76MOL0     H 9983   7.193   8.710   5.947 -1.1318 -2.1865  2.0849
   76MOL0     H 9984   7.071   8.749   5.828 -1.4994 -0.9224  0.6916
   76MOL0     H 9985   7.387   8.562   5.887  0.5526 -0.6481  0.1863
   76MOL0     H 9986   7.554   8.388   5.618 -0.6778  0.3919  0.6451
   76MOL0     H 9987   7.613   8.499   5.735  1.5837  1.5723 -1.3020
   76MOL0     H 9988   7.560   8.565   5.443 -0.4403  0.4083 -1.0494
   76MOL0     H 9989   7.716   8.513   5.498 -0.8240 -1.6493  0.8371
   76MOL0     H 9990   7.724   8.736   5.455 -1.4262  1.2726 -1.4754
   76MOL0     H 9991   7.568   8.772   5.539 -0.6874 -1.3574  0.3695
   76MOL0     H 9992   7.750   8.885   5.645  1.9821  0.9655  2.4998
   76MOL0     H 9993   7.827   8.721   5.669 -0.9116 -2.3417 -1.2010
   76MOL0     H 9994   7.555   8.720   5.999 -0.4944  0.7810  1.5141
   76MOL0     H 9995   7.372   8.861   6.097 -1.2622 -0.3726 -1.0377
   76MOL0     H 9996   7.306   9.351   6.099  0.2502 -0.1815  0.6317
   76MOL0     H 9997   7.165   9.515   6.238  0.7173  0.4008 -0.6907
   76MOL0     H 9998   6.775   9.454   6.341  0.9735  0.4372 -1.1869
   76MOL0     H 9999   6.718   9.432   6.175 -2.7072 -1.3964  1.9050
   76MOL0     H10000   6.635   9.641   6.156  0.2187 -2.7420  0.1586
   76MOL0     H10001   6.729   9.709   6.290 -0.5153 -0.4653  0.8879
   76MOL0     H10002   6.535   9.730   6.375  1.3275 -0.2926  1.5144
   76MOL0     H10003   6.596   9.585   6.446  2.3024  3.2468  0.8867
   76MOL0     H10004   6.411   9.585   6.195 -2.0926 -1.1686  1.1455
   76MOL0     H10005   6.471   9.442   6.259 -0.4778 -0.9995 -2.1232
   76MOL0     H10006   6.298   9.628   6.419  1.8907  1.5527 -1.6748
   76MOL0     H10007   6.340   9.463   6.468 -2.8454 -0.5146 -0.1279
   76MOL0     H10008   6.178   9.537   6.237  0.3398  1.5659  1.3474
   76MOL0     H10009   6.116   9.487   6.389 -1.8577 -1.9615 -0.9089
   76MOL0     H10010   6.288   9.293   6.201  0.5845  0.1075  0.3471
   76MOL0     H10011   6.198   9.264   6.355  0.3568  0.0255  0.8485
   76MOL0     H10012   5.999   9.348   6.237  1.8876 -1.6955  2.4348
   76MOL0     H10013   6.066   9.201   6.169 -1.1790 -0.0845 -1.0771
   76MOL0     H10014   6.825   9.376   6.003  0.4251 -1.3536 -2.1433
   76MOL0     H10015   6.958   9.247   5.873 -2.0564 -1.6681  1.8731
   76MOL0     H10016   7.362   9.101   5.738  1.8930 -0.4099 -1.0792
   76MOL0     H10017   7.539   8.945   5.645 -2.0109 -2.0015 -1.2149
   76MOL0     H10018   7.208   7.717   5.904 -0.5339  2.6482 -0.0251
   76MOL0     H10019   7.320   7.576   5.744 -0.3416  0.2163 -0.1087
   76MOL0     H10020   7.659   7.173   5.759  0.6361  1.0843  0.3244
   76MOL0     H10021   7.705   7.024   5.578  2.0726  1.0186 -0.4115
   76MOL0     H10022   7.750   6.893   5.247 -0.2051  2.0552 -2.3605
   76MOL0     H10023   7.799   6.921   5.414  1.9892  0.3828  0.1025
   76MOL0     H10024   7.988   6.932   5.233 -0.6348 -1.1414 -0.3589
   76MOL0     H10025   7.916   7.085   5.191  1.0165  3.1407  2.0064
   76MOL0     H10026   7.999   7.055   5.478  0.0317  2.3696  1.0245
   76MOL0     H10027   8.001   7.194   5.385  0.2153 -0.0097  0.0262
   76MOL0     H10028   8.200   6.966   5.330  1.3666  0.3841  0.6437
   76MOL0     H10029   8.183   7.129   5.250  1.1538  2.3805  1.3162
   76MOL0     H10030   8.411   7.192   5.606  2.6721  1.6329 -5.1625
   76MOL0     H10031   7.681   7.349   5.297 -0.1404  2.3406  2.3741
   76MOL0     H10032   7.643   7.506   5.462  0.9734  0.1099  0.5712
   77MOL0     O10033   1.088   5.859   6.276  0.7807 -0.2336 -0.2271
   77MOL0     C10034   1.166   5.762   6.294  0.3737 -0.3400  0.1887
   77MOL0     O10035   1.132   5.647   6.348  0.8100  0.2454 -0.0195
   77MOL0     C10036   1.006   5.645   6.400 -0.4109  0.3670  0.0777
   77MOL0     C10037   0.893   5.624   6.332 -0.5595  0.3752  0.7665
   77MOL0     C10038   0.769   5.611   6.396 -0.2540  0.6835  0.0686
   77MOL0     C10039   0.774   5.615   6.535  0.2225  0.2455 -0.6272
   77MOL0     O10040   0.666   5.607   6.613  0.6764 -0.8854 -0.7732
   77MOL0     C10041   0.569   5.713   6.595 -0.1425 -0.0736  0.3825
   77MOL0     C10042   0.440   5.660   6.661 -0.1020  0.2742 -0.1671
   77MOL0     C10043   0.375   5.529   6.602  0.5507 -1.1954  0.0477
   77MOL0     C10044   0.318   5.545   6.458  0.1362  0.0292  0.2097
   77MOL0     C10045   0.235   5.430   6.400  0.5715 -0.0105 -1.1278
   77MOL0     C10046   0.118   5.398   6.493 -0.1838  0.0303 -0.9547
   77MOL0     C10047   0.017   5.302   6.430 -0.1611  0.5239  1.3513
   77MOL0     C10048  -0.044   5.206   6.532 -0.1867 -0.6335 -0.0398
   77MOL0     N10049  -0.148   5.121   6.471  0.0093  0.3953  0.8311
   77MOL0     C10050  -0.116   5.005   6.396  0.3443  0.0026 -0.2595
   77MOL0     C10051  -0.239   4.948   6.363 -0.5332 -0.1449  0.5819
   77MOL0     C10052  -0.252   4.820   6.284 -0.0571  0.1953 -0.3488
   77MOL0     C10053  -0.396   4.771   6.281 -0.0712 -0.2084  0.1089
   77MOL0     C10054  -0.409   4.629   6.235 -0.2555 -0.6652 -0.1110
   77MOL0     C10055  -0.549   4.590   6.187  0.5899  0.1896  0.0039
   77MOL0     O10056  -0.640   4.617   6.298 -0.0316  0.4528 -0.0188
   77MOL0     C10057  -0.768   4.572   6.290  0.0944 -0.0733 -0.2567
   77MOL0     C10058  -0.839   4.595   6.403 -0.1074 -0.3243  0.2873
   77MOL0     C10059  -0.969   4.555   6.417  0.4835 -0.3369  0.7522
   77MOL0     C10060  -1.030   4.486   6.310  0.1907 -0.0731  0.0082
   77MOL0     C10061  -1.165   4.433   6.334 -0.5930 -0.2842 -0.0426
   77MOL0     O10062  -1.235   4.404   6.228 -0.0901  0.3350 -0.6048
   77MOL0     C10063  -1.372   4.380   6.255 -0.9398  1.0248  0.1866
   77MOL0     C10064  -1.465   4.485   6.255  0.0370  0.4702 -0.2045
   77MOL0     C10065  -1.600   4.455   6.282  1.0120 -0.2904  0.0736
   77MOL0     C10066  -1.651   4.327   6.280  0.5285  0.6695 -0.3497
   77MOL0     O10067  -1.782   4.295   6.315 -0.4507  0.0424 -0.0929
   77MOL0     C10068  -1.858   4.369   6.416  0.8425  0.2357 -0.2591
   77MOL0     C10069  -1.938   4.476   6.345  0.1434 -0.9481 -0.1050
   77MOL0     C10070  -2.024   4.415   6.230  0.4570 -0.8993  0.8913
   77MOL0     C10071  -2.150   4.501   6.210 -0.6215 -0.8159  1.0516
   77MOL0     C10072  -2.252   4.430   6.113 -0.0262  0.2287 -0.3362
   77MOL0     C10073  -2.245   4.481   5.975 -0.7536 -1.0662  0.6604
   77MOL0     C10074  -2.346   4.425   5.880 -0.3133 -0.5915  0.9893
   77MOL0     C10075  -2.317   4.300   5.801  0.4309  1.5524  0.4117
   77MOL0    Cl10076  -2.465   4.286   5.705 -0.3787 -0.3740 -0.0738
   77MOL0     C10077  -1.560   4.224   6.269 -0.1330  0.3877  0.1850
   77MOL0     C10078  -1.421   4.257   6.262 -0.1701  0.1419 -0.0241
   77MOL0     O10079  -1.201   4.421   6.450 -0.6461  0.3057 -0.6382
   77MOL0     C10080  -0.955   4.458   6.199 -0.1460  0.5119  0.0288
   77MOL0     C10081  -0.827   4.496   6.185 -0.3048  0.0329 -0.3467
   77MOL0     N10082  -0.334   5.053   6.396  0.2070  0.5213  0.0927
   77MOL0     N10083  -0.277   5.151   6.452  0.8508  0.1963  0.5821
   77MOL0     C10084   0.892   5.636   6.606 -0.5993  0.5382  0.2618
   77MOL0     C10085   1.007   5.646   6.535 -0.0615 -0.4621  0.4848
   77MOL0     C10086   1.292   5.769   6.221 -0.4022 -0.6333 -0.0131
   77MOL0     C10087   1.320   5.881   6.130  0.2091  0.2259  0.5405
   77MOL0     C10088   1.444   5.891   6.061 -0.5556  0.3005  0.0127
   77MOL0     C10089   1.533   5.787   6.062 -0.7282 -0.1796 -0.1604
   77MOL0     O10090   1.652   5.790   5.992 -0.2460  0.5392  0.0451
   77MOL0     C10091   1.748   5.890   6.004  0.2511  0.2196 -0.0279
   77MOL0     C10092   1.879   5.844   6.067  0.6312 -0.8929 -0.2726
   77MOL0     C10093   1.858   5.739   6.170 -0.3535  0.6279  0.1390
   77MOL0     C10094   1.988   5.697   6.239  0.1035 -0.0444 -0.3538
   77MOL0     C10095   2.073   5.621   6.151  0.2653  0.5132 -0.0518
   77MOL0     C10096   2.143   5.539   6.095 -0.8342  0.1249  0.1118
   77MOL0     C10097   1.502   5.679   6.138  0.1389 -0.4748 -0.1791
   77MOL0     C10098   1.390   5.669   6.223 -0.0956  0.0217  1.2313
   77MOL0     H10099   0.902   5.607   6.226  0.6995  1.1655  0.7276
   77MOL0     H10100   0.677   5.600   6.340  0.4012  1.8912 -1.3227
   77MOL0     H10101   0.547   5.730   6.490 -0.2793 -0.0566  0.4130
   77MOL0     H10102   0.606   5.804   6.643  0.6881  0.6194 -1.4940
   77MOL0     H10103   0.363   5.737   6.657 -3.1654 -2.5728  0.1131
   77MOL0     H10104   0.455   5.644   6.768 -1.7247 -2.4209 -0.2601
   77MOL0     H10105   0.297   5.497   6.671 -0.5331 -2.3389 -1.6209
   77MOL0     H10106   0.441   5.442   6.602  1.2011 -0.7158  0.6394
   77MOL0     H10107   0.254   5.634   6.460 -0.3288 -0.2888 -0.3733
   77MOL0     H10108   0.409   5.567   6.401  1.8685 -1.3080  2.2618
   77MOL0     H10109   0.302   5.345   6.388 -0.5197 -0.6102 -3.4274
   77MOL0     H10110   0.193   5.460   6.303  0.8389  1.2270 -0.8843
   77MOL0     H10111   0.068   5.492   6.521  1.4139  0.2839  1.2756
   77MOL0     H10112   0.161   5.348   6.580  0.6983 -1.8572 -2.4128
   77MOL0     H10113  -0.068   5.350   6.381 -0.6111 -0.8606  0.7277
   77MOL0     H10114   0.066   5.250   6.347 -2.7762 -2.4417  1.5041
   77MOL0     H10115  -0.088   5.266   6.612  2.0894 -0.6277  1.2831
   77MOL0     H10116   0.034   5.137   6.565 -0.6516 -1.1437  0.0046
   77MOL0     H10117  -0.021   4.961   6.370  0.9010 -0.4381  2.2194
   77MOL0     H10118  -0.189   4.741   6.327  1.5033  1.5461 -0.0421
   77MOL0     H10119  -0.212   4.844   6.185 -0.4663 -1.5574 -0.9879
   77MOL0     H10120  -0.455   4.837   6.216 -0.0277  0.5057  0.7905
   77MOL0     H10121  -0.421   4.782   6.386 -0.1103  1.4553 -0.0506
   77MOL0     H10122  -0.349   4.616   6.145  0.4341 -0.0331  0.2433
   77MOL0     H10123  -0.367   4.562   6.311 -1.7730  0.0019  1.3975
   77MOL0     H10124  -0.548   4.481   6.176 -0.7537  0.0602  0.9037
   77MOL0     H10125  -0.591   4.638   6.098 -1.5215 -0.0782  0.7944
   77MOL0     H10126  -0.797   4.663   6.477  2.3627  1.7432 -2.7406
   77MOL0     H10127  -1.030   4.572   6.505 -0.6400  1.5369 -0.3147
   77MOL0     H10128  -1.424   4.586   6.250  0.1253  0.4477  0.0420
   77MOL0     H10129  -1.663   4.541   6.300  2.7686  1.5023 -1.9103
   77MOL0     H10130  -1.788   4.408   6.490  0.1494 -0.3882  0.7480
   77MOL0     H10131  -1.933   4.314   6.473  2.1868 -0.5277  0.8186
   77MOL0     H10132  -1.876   4.560   6.313  0.4364 -0.8373  0.7354
   77MOL0     H10133  -2.010   4.517   6.416  0.6758  2.3164 -1.2681
   77MOL0     H10134  -2.058   4.311   6.237 -2.2174 -0.4895 -2.9442
   77MOL0     H10135  -1.962   4.419   6.140  2.6323 -1.9132  2.2671
   77MOL0     H10136  -2.188   4.511   6.312  1.6663  3.0689  1.7459
   77MOL0     H10137  -2.128   4.603   6.176  0.6425 -1.1870  0.6979
   77MOL0     H10138  -2.351   4.445   6.158 -0.0904  2.9469 -1.1965
   77MOL0     H10139  -2.224   4.325   6.108  1.1102  0.4731  0.4416
   77MOL0     H10140  -2.143   4.455   5.947 -1.0837  0.3497 -2.1965
   77MOL0     H10141  -2.251   4.590   5.988 -3.4570 -0.8858 -1.3387
   77MOL0     H10142  -2.437   4.420   5.942  0.1133  2.4270  2.0090
   77MOL0     H10143  -2.369   4.503   5.807 -0.4131 -0.5432  1.0711
   77MOL0     H10144  -2.318   4.209   5.863 -0.5220  2.6717  2.0969
   77MOL0     H10145  -2.232   4.293   5.732  1.4484  0.2868  1.7248
   77MOL0     H10146  -1.598   4.124   6.289  0.4622  0.3878  1.3506
   77MOL0     H10147  -1.351   4.175   6.268  1.1884  1.3480  1.6924
   77MOL0     H10148  -0.997   4.396   6.120 -1.6992  0.3434  0.9681
   77MOL0     H10149  -0.778   4.464   6.093  0.7438  0.7727 -0.0645
   77MOL0     H10150   0.894   5.648   6.714  0.6250 -2.8717  0.7304
   77MOL0     H10151   1.103   5.659   6.585  1.1867  1.4903 -2.1526
   77MOL0     H10152   1.249   5.961   6.112 -0.0192 -0.4676 -1.9114
   77MOL0     H10153   1.459   5.968   5.986 -0.9039 -0.8380 -1.2726
   77MOL0     H10154   1.714   5.972   6.068 -2.0847 -1.5822  1.1764
   77MOL0     H10155   1.776   5.929   5.905  1.3586 -0.5058 -0.0207
   77MOL0     H10156   1.933   5.802   5.982  0.5697 -0.3922 -0.5667
   77MOL0     H10157   1.932   5.931   6.108 -0.2903  0.2215 -1.3348
   77MOL0     H10158   1.820   5.644   6.130  0.2381 -0.0112  1.0489
   77MOL0     H10159   1.786   5.779   6.242 -1.7314 -1.1220 -0.1823
   77MOL0     H10160   2.038   5.790   6.267  0.1186  0.2723 -1.3749
   77MOL0     H10161   1.954   5.636   6.323  2.7518  1.0956  1.6926
   77MOL0     H10162   2.215   5.470   6.059  1.8769  2.1386  1.3160
   77MOL0     H10163   1.570   5.595   6.142 -1.1816 -1.6415 -1.1723
   77MOL0     H10164   1.374   5.583   6.287 -0.9814 -0.4145  0.4439
   78MOL0     O10165   3.731   8.040   9.258  0.0095 -0.2733  0.3059
   78MOL0     C10166   3.783   7.985   9.163 -0.5872 -0.6320  0.0324
   78MOL0     O10167   3.722   7.912   9.065 -0.2225 -0.4330  0.2335
   78MOL0     C10168   3.582   7.878   9.065 -0.1410 -0.3226  0.3615
   78MOL0     C10169   3.526   7.848   8.941  0.4372  0.5785  0.4208
   78MOL0     C10170   3.404   7.784   8.930  0.4831 -0.1143 -0.0098
   78MOL0     C10171   3.337   7.752   9.057 -0.4238 -0.2163  0.6608
   78MOL0     O10172   3.219   7.687   9.059 -0.1535 -0.1757 -0.1551
   78MOL0     C10173   3.229   7.548   9.103  0.5916 -0.2609 -0.3858
   78MOL0     C10174   3.113   7.494   9.200  0.1517  0.4023  0.0023
   78MOL0     C10175   2.980   7.468   9.137  0.5481  0.7800 -0.3282
   78MOL0     C10176   2.885   7.391   9.241 -0.5283  0.1286  0.9479
   78MOL0     C10177   2.753   7.355   9.163  0.5657  0.5109 -0.6906
   78MOL0     C10178   2.656   7.277   9.247  0.0451  0.0640 -0.1052
   78MOL0     C10179   2.531   7.233   9.167  0.4503 -0.3585  1.3251
   78MOL0     C10180   2.409   7.250   9.259 -0.6494 -0.2481  0.1561
   78MOL0     N10181   2.290   7.211   9.192  0.6273  0.4172 -0.1329
   78MOL0     C10182   2.161   7.238   9.235  0.6569 -0.2167 -0.0432
   78MOL0     C10183   2.089   7.171   9.144 -0.3136  0.0794 -0.4903
   78MOL0     C10184   1.938   7.183   9.147  1.5059  0.0021 -0.0435
   78MOL0     C10185   1.857   7.091   9.045 -0.4443  0.1463  0.4503
   78MOL0     C10186   1.702   7.095   9.053  0.2242 -0.6642 -0.1041
   78MOL0     C10187   1.645   6.975   8.974 -0.4221 -0.1188  0.1089
   78MOL0     O10188   1.507   7.006   8.956  0.3470  0.1624 -0.2437
   78MOL0     C10189   1.429   6.914   8.891  0.4423 -0.2110  0.9740
   78MOL0     C10190   1.286   6.930   8.899 -0.0301 -0.3547  0.2926
   78MOL0     C10191   1.192   6.845   8.831  0.1475  1.1435 -0.1800
   78MOL0     C10192   1.241   6.758   8.740  0.6194  0.7254  0.7471
   78MOL0     C10193   1.153   6.681   8.660  0.0052 -0.0649 -0.2607
   78MOL0     O10194   1.022   6.729   8.652  0.2774  0.1437 -0.3627
   78MOL0     C10195   0.929   6.675   8.567  0.9936 -0.3092 -0.0695
   78MOL0     C10196   0.916   6.544   8.530 -0.1923  0.8011  0.3381
   78MOL0     C10197   0.811   6.496   8.442  0.0398  0.3372 -0.1900
   78MOL0     C10198   0.713   6.581   8.396  0.0091 -0.3566  0.2453
   78MOL0     O10199   0.611   6.549   8.317  0.1966  0.5298 -0.1572
   78MOL0     C10200   0.577   6.411   8.291  0.2414  0.9942 -0.7866
   78MOL0     C10201   0.424   6.382   8.305 -1.2852 -0.2080  0.1970
   78MOL0     C10202   0.352   6.464   8.196  0.2466 -0.4511 -0.1295
   78MOL0     C10203   0.200   6.462   8.223 -0.5550 -0.2337  0.3302
   78MOL0     C10204   0.111   6.491   8.097 -0.1178 -0.1341 -0.3582
   78MOL0     C10205  -0.035   6.497   8.129 -0.4037  0.1810  0.5557
   78MOL0     C10206  -0.113   6.496   8.006  0.3052  0.0744  0.5970
   78MOL0     C10207  -0.267   6.475   8.033 -0.3580 -0.0158 -0.2814
   78MOL0    Cl10208  -0.340   6.494   7.876 -0.2028  0.0902 -0.0435
   78MOL0     C10209   0.724   6.719   8.436 -0.3856 -0.7847 -0.3604
   78MOL0     C10210   0.836   6.763   8.513  0.2821 -0.5138  0.5694
   78MOL0     O10211   1.197   6.577   8.605 -0.5523 -0.0680 -0.2484
   78MOL0     C10212   1.379   6.740   8.723 -0.7063  0.0473 -1.5495
   78MOL0     C10213   1.474   6.815   8.807 -0.1281  0.4121  0.6073
   78MOL0     N10214   2.165   7.110   9.046  0.2193  0.2379  0.5361
   78MOL0     N10215   2.285   7.132   9.080 -0.0649 -0.6529  0.2034
   78MOL0     C10216   3.387   7.785   9.178 -0.4124 -0.5311 -0.1347
   78MOL0     C10217   3.512   7.854   9.186  0.3492 -0.2789 -0.6532
   78MOL0     C10218   3.915   8.038   9.121 -0.1451 -1.2022 -0.0380
   78MOL0     C10219   4.000   8.118   9.202  0.3480 -0.5061 -0.7173
   78MOL0     C10220   4.113   8.183   9.156  0.2468 -0.0962  0.0707
   78MOL0     C10221   4.144   8.175   9.022  0.6251 -0.6529 -0.4637
   78MOL0     O10222   4.239   8.245   8.956 -0.3476  0.4055 -0.2735
   78MOL0     C10223   4.358   8.296   9.031 -0.0892 -0.0024  0.6878
   78MOL0     C10224   4.465   8.341   8.934 -0.7271 -0.7367 -0.1529
   78MOL0     C10225   4.600   8.332   9.003 -0.3414  0.1190 -0.6796
   78MOL0     C10226   4.717   8.362   8.904 -0.6885 -0.1348 -1.1221
   78MOL0     C10227   4.846   8.383   8.977  0.5440  0.1125  0.1047
   78MOL0     C10228   4.956   8.410   9.020 -0.2721  0.4481  1.0969
   78MOL0     C10229   4.057   8.104   8.940  0.2016  0.1705 -1.0022
   78MOL0     C10230   3.955   8.028   8.990 -0.1936  0.3125  0.1200
   78MOL0     H10231   3.590   7.867   8.855  0.6043  0.9809  0.6266
   78MOL0     H10232   3.361   7.753   8.836  1.9509 -0.3661 -0.6205
   78MOL0     H10233   3.323   7.545   9.159  1.1468 -1.4851 -1.3406
   78MOL0     H10234   3.233   7.489   9.012 -2.2620 -0.3678 -0.5386
   78MOL0     H10235   3.106   7.573   9.275 -0.2992  1.0736 -0.7357
   78MOL0     H10236   3.155   7.403   9.244 -0.5368 -0.0359 -0.2368
   78MOL0     H10237   2.995   7.409   9.047  0.1568  0.4921 -0.2045
   78MOL0     H10238   2.920   7.557   9.114  0.1579  0.8809  0.9988
   78MOL0     H10239   2.934   7.298   9.269  1.0684  0.2720 -1.1369
   78MOL0     H10240   2.860   7.453   9.328  2.3273  0.0794  1.9078
   78MOL0     H10241   2.783   7.302   9.072  1.3323 -1.4818  0.6550
   78MOL0     H10242   2.707   7.447   9.126 -1.4315  0.6246  1.7655
   78MOL0     H10243   2.638   7.338   9.335  1.1179  0.8627 -0.4108
   78MOL0     H10244   2.712   7.192   9.287  2.1222  1.6658  0.5801
   78MOL0     H10245   2.517   7.294   9.078 -1.0075  1.4556  2.7171
   78MOL0     H10246   2.536   7.127   9.140  0.6010  0.2587 -1.3690
   78MOL0     H10247   2.401   7.352   9.298 -1.8907  0.1153 -1.0015
   78MOL0     H10248   2.427   7.183   9.343  0.1483  0.4017  0.5227
   78MOL0     H10249   2.136   7.316   9.306  0.8672  1.7356 -2.0163
   78MOL0     H10250   1.909   7.288   9.146 -0.1783 -0.4458 -0.3102
   78MOL0     H10251   1.905   7.149   9.246 -0.6322  0.7422 -0.4585
   78MOL0     H10252   1.895   6.989   9.061 -0.2030  0.2099  0.2806
   78MOL0     H10253   1.887   7.121   8.944  1.8572 -0.0374  1.0224
   78MOL0     H10254   1.668   7.089   9.157  2.0572 -0.7477  0.5286
   78MOL0     H10255   1.662   7.188   9.011  1.2712 -0.7873 -1.4351
   78MOL0     H10256   1.666   6.885   9.033 -0.5248  0.2457  0.7062
   78MOL0     H10257   1.696   6.963   8.878 -0.3010 -1.9612  0.3602
   78MOL0     H10258   1.238   7.008   8.958 -0.8552 -1.6079  1.3215
   78MOL0     H10259   1.085   6.857   8.845  0.0398  1.0684 -0.9359
   78MOL0     H10260   0.996   6.484   8.574  0.6972  1.9100  0.2943
   78MOL0     H10261   0.823   6.390   8.420 -1.5419  0.1389 -0.1657
   78MOL0     H10262   0.630   6.339   8.353 -1.0233  0.7183  0.0100
   78MOL0     H10263   0.607   6.403   8.186 -0.8312  2.4112 -1.2338
   78MOL0     H10264   0.404   6.400   8.411  0.6775 -1.7195  0.8935
   78MOL0     H10265   0.414   6.274   8.287  4.5315 -0.9439 -0.7505
   78MOL0     H10266   0.373   6.414   8.102 -0.8967 -2.6810  0.7403
   78MOL0     H10267   0.382   6.569   8.190 -0.2524 -0.3992 -3.2335
   78MOL0     H10268   0.176   6.358   8.246 -0.8420 -0.1003  0.6377
   78MOL0     H10269   0.171   6.534   8.300  1.7111  1.9517 -0.7111
   78MOL0     H10270   0.125   6.409   8.026 -0.2256 -2.3903  2.0747
   78MOL0     H10271   0.151   6.577   8.043 -1.8047 -0.4738 -2.2780
   78MOL0     H10272  -0.048   6.583   8.194  0.6622  1.8992 -1.3786
   78MOL0     H10273  -0.067   6.412   8.190 -0.0984  0.5889  1.2947
   78MOL0     H10274  -0.109   6.598   7.968 -4.1844  0.7203  1.2969
   78MOL0     H10275  -0.074   6.422   7.936  0.0387 -2.2235  2.7371
   78MOL0     H10276  -0.292   6.549   8.110 -3.0771  0.0678 -1.1339
   78MOL0     H10277  -0.291   6.377   8.077 -1.1949  0.7790  1.1303
   78MOL0     H10278   0.657   6.793   8.391  1.1253 -0.8551 -2.9418
   78MOL0     H10279   0.836   6.869   8.533 -0.9380 -0.7561  2.0186
   78MOL0     H10280   1.411   6.667   8.650  0.8192  0.3865 -1.2544
   78MOL0     H10281   1.579   6.791   8.793 -0.1570  1.3038 -1.4297
   78MOL0     H10282   3.317   7.782   9.261  0.2088  1.7703  0.5273
   78MOL0     H10283   3.542   7.884   9.286  0.2243 -0.5536 -0.5333
   78MOL0     H10284   3.969   8.130   9.305 -1.1598 -0.1324 -1.1975
   78MOL0     H10285   4.177   8.237   9.224  1.4857 -1.3078 -0.0943
   78MOL0     H10286   4.407   8.211   9.080 -1.9441 -1.9554 -0.6714
   78MOL0     H10287   4.331   8.370   9.108  0.1110 -0.4995  1.2424
   78MOL0     H10288   4.475   8.269   8.852  0.9910 -0.2947 -0.3658
   78MOL0     H10289   4.456   8.445   8.901  0.4508 -0.7069 -0.4239
   78MOL0     H10290   4.619   8.242   9.061  0.3018  1.4652  1.3092
   78MOL0     H10291   4.605   8.419   9.069 -0.3399  0.5796 -1.2754
   78MOL0     H10292   4.735   8.274   8.842  1.9129 -1.2268  1.0209
   78MOL0     H10293   4.697   8.450   8.841 -0.1430  1.8973  1.3737
   78MOL0     H10294   5.061   8.424   9.034 -0.1249 -0.7333  1.3483
   78MOL0     H10295   4.085   8.103   8.835  2.3583  2.8014 -0.5444
   78MOL0     H10296   3.890   7.972   8.923 -0.0686 -1.0589  1.0948
   79MOL0     O10297   7.696   8.174   5.418  0.3143 -0.1702  0.4218
   79MOL0     C10298   7.778   8.124   5.350  0.0053 -0.2041  0.3785
   79MOL0     O10299   7.764   8.003   5.280  0.1203 -0.6959  0.3191
   79MOL0     C10300   7.653   7.930   5.302  0.7792  0.3582 -0.3997
   79MOL0     C10301   7.608   7.903   5.435 -0.1673 -0.0467 -0.0532
   79MOL0     C10302   7.486   7.825   5.459  0.0317  0.6490 -0.0160
   79MOL0     C10303   7.430   7.753   5.347  0.3858 -0.4258 -0.0971
   79MOL0     O10304   7.332   7.654   5.368 -0.5055  0.0773  1.5121
   79MOL0     C10305   7.220   7.697   5.430  0.8911 -0.1941 -0.1487
   79MOL0     C10306   7.147   7.800   5.331  0.0567 -0.4040  0.3893
   79MOL0     C10307   7.018   7.863   5.386  0.2838  0.1690 -0.3093
   79MOL0     C10308   6.959   7.960   5.278  0.5926  0.4222 -0.3856
   79MOL0     C10309   6.833   8.032   5.343 -0.3505  0.2375 -0.5317
   79MOL0     C10310   6.703   7.959   5.311 -0.3036 -0.1089 -0.1866
   79MOL0     C10311   6.585   8.037   5.382 -0.2320 -0.3729 -0.1597
   79MOL0     C10312   6.460   7.957   5.352  0.3318  0.1751 -1.4710
   79MOL0     N10313   6.337   8.029   5.399 -0.0835  0.3621 -0.0139
   79MOL0     C10314   6.249   7.979   5.495 -0.2574  0.1498  0.6451
   79MOL0     C10315   6.174   8.084   5.530 -0.3020  1.4570  0.1174
   79MOL0     C10316   6.091   8.071   5.649  0.2835  0.6544 -0.6670
   79MOL0     C10317   5.934   8.079   5.621 -0.4767  0.0549  0.4224
   79MOL0     C10318   5.856   8.032   5.739 -0.2534  0.2720  0.6522
   79MOL0     C10319   5.712   8.080   5.743  0.7349 -0.3468  0.4517
   79MOL0     O10320   5.650   7.983   5.833 -0.0568 -0.2926  0.3661
   79MOL0     C10321   5.512   7.993   5.841  0.5449 -0.7804  0.6799
   79MOL0     C10322   5.442   7.896   5.917 -0.3074  0.3846 -0.6114
   79MOL0     C10323   5.304   7.892   5.940  0.0770  0.7107  0.3382
   79MOL0     C10324   5.224   7.987   5.874 -0.7587  0.4410  0.6741
   79MOL0     C10325   5.082   7.974   5.881  0.2051 -0.3301  0.8629
   79MOL0     O10326   5.006   8.086   5.854 -0.0955 -0.2981 -0.2581
   79MOL0     C10327   4.873   8.087   5.837  0.0212  0.7232  0.4025
   79MOL0     C10328   4.794   8.197   5.889  0.0433 -0.7425  0.4039
   79MOL0     C10329   4.656   8.193   5.862 -0.7716  0.3285 -0.4667
   79MOL0     C10330   4.589   8.083   5.788 -0.0180  0.3241  0.0965
   79MOL0     O10331   4.454   8.086   5.757 -1.3056  0.3174  0.9256
   79MOL0     C10332   4.390   7.993   5.666  0.4810  1.0042  0.0510
   79MOL0     C10333   4.279   7.912   5.741 -1.1637 -0.0950  0.0135
   79MOL0     C10334   4.221   7.797   5.657  0.3557 -1.0309 -0.5115
   79MOL0     C10335   4.118   7.718   5.731  0.4734 -0.2730 -1.0535
   79MOL0     C10336   3.981   7.759   5.675  0.4955 -0.2488 -0.2311
   79MOL0     C10337   3.876   7.663   5.730 -0.3882  0.5908 -0.1248
   79MOL0     C10338   3.735   7.701   5.687 -0.8545 -0.0695  0.5310
   79MOL0     C10339   3.644   7.583   5.702  0.1607  0.2382 -0.3374
   79MOL0    Cl10340   3.486   7.632   5.642 -0.3977  0.4905 -0.4732
   79MOL0     C10341   4.668   7.975   5.761 -0.0698  0.1114 -0.1229
   79MOL0     C10342   4.803   7.984   5.774 -0.7231  0.9839  0.6582
   79MOL0     O10343   5.040   7.863   5.912 -0.5645 -0.7800  0.1817
   79MOL0     C10344   5.295   8.094   5.811 -0.3898  0.2350  0.7454
   79MOL0     C10345   5.434   8.102   5.789 -0.8098 -0.1606  0.2914
   79MOL0     N10346   6.202   8.189   5.448 -0.4555  0.1124 -0.2072
   79MOL0     N10347   6.297   8.153   5.364 -0.0943  0.0271 -0.0918
   79MOL0     C10348   7.481   7.781   5.219  0.0761 -0.1643 -0.4153
   79MOL0     C10349   7.586   7.868   5.194 -0.9262 -0.1370  0.0273
   79MOL0     C10350   7.902   8.196   5.303  0.7561 -0.4309 -0.3260
   79MOL0     C10351   7.982   8.155   5.189 -0.8369 -0.2866 -0.4655
   79MOL0     C10352   8.091   8.230   5.140  0.1672  0.0134  0.0982
   79MOL0     C10353   8.120   8.355   5.198  0.7551  0.4139  0.3462
   79MOL0     O10354   8.218   8.433   5.140  0.8227  0.2361  0.7396
   79MOL0     C10355   8.287   8.533   5.217 -0.0685 -0.0736 -0.0251
   79MOL0     C10356   8.398   8.569   5.124 -0.3502 -0.1231  0.0675
   79MOL0     C10357   8.513   8.464   5.126 -0.3157  0.3327 -0.5279
   79MOL0     C10358   8.636   8.531   5.054  0.0498 -0.4374  0.8842
   79MOL0     C10359   8.758   8.453   5.056 -0.1065  0.3546  0.4576
   79MOL0     C10360   8.867   8.401   5.049  0.3344  0.1282 -0.7479
   79MOL0     C10361   8.054   8.387   5.320  0.0242 -0.1739  0.1794
   79MOL0     C10362   7.947   8.313   5.370 -0.0197  0.1137 -0.0538
   79MOL0     H10363   7.649   7.939   5.529 -0.9627 -2.9064  1.5329
   79MOL0     H10364   7.446   7.814   5.559  0.2469 -2.3992 -0.1681
   79MOL0     H10365   7.241   7.746   5.525 -1.9672  0.4453  0.2539
   79MOL0     H10366   7.163   7.606   5.452  0.4538  0.3466  1.0272
   79MOL0     H10367   7.116   7.744   5.243 -2.9710 -0.2100  1.2324
   79MOL0     H10368   7.214   7.885   5.314 -1.5628  1.0079  0.7793
   79MOL0     H10369   7.034   7.913   5.482  0.5877 -4.0412  2.0897
   79MOL0     H10370   6.952   7.780   5.414  0.3020  0.6142  1.1720
   79MOL0     H10371   7.037   8.035   5.259 -0.4407  2.0860  1.6235
   79MOL0     H10372   6.936   7.896   5.193  0.6129  0.4435 -0.4070
   79MOL0     H10373   6.830   8.135   5.305  0.1829 -0.3707 -2.2943
   79MOL0     H10374   6.841   8.040   5.452 -0.9281 -0.8888 -0.3939
   79MOL0     H10375   6.712   7.864   5.364  1.3613 -0.7877 -1.5961
   79MOL0     H10376   6.690   7.947   5.203  1.5917  0.8526 -0.5598
   79MOL0     H10377   6.588   8.033   5.491 -1.1441 -0.4968 -0.1336
   79MOL0     H10378   6.578   8.137   5.338  1.4253 -1.7277 -3.9251
   79MOL0     H10379   6.464   7.861   5.403 -2.0568  0.6390 -0.2832
   79MOL0     H10380   6.442   7.944   5.245 -3.1280  3.5738 -1.5416
   79MOL0     H10381   6.255   7.877   5.533 -1.5097 -1.1061 -2.2355
   79MOL0     H10382   6.110   8.152   5.719 -0.2739  0.9101 -0.8068
   79MOL0     H10383   6.112   7.983   5.712  1.7010 -0.5094 -2.6281
   79MOL0     H10384   5.904   8.023   5.532  0.8596  0.1474 -0.1140
   79MOL0     H10385   5.904   8.182   5.604 -3.9074 -1.1381 -1.7123
   79MOL0     H10386   5.858   7.922   5.744  2.2974  0.2392  0.2721
   79MOL0     H10387   5.904   8.069   5.831  1.4488  1.2188 -0.5637
   79MOL0     H10388   5.668   8.077   5.642  0.1785  0.8681  0.6267
   79MOL0     H10389   5.711   8.184   5.777 -1.1633  0.3114 -1.3517
   79MOL0     H10390   5.503   7.823   5.968  1.0006  2.8625  1.6194
   79MOL0     H10391   5.258   7.812   5.997 -1.4375  1.6080  0.4177
   79MOL0     H10392   4.844   8.283   5.932 -0.4092  0.0775 -0.6425
   79MOL0     H10393   4.610   8.287   5.890 -0.3417  1.2197 -2.5283
   79MOL0     H10394   4.458   7.918   5.626 -2.3280 -2.2540  0.7970
   79MOL0     H10395   4.347   8.051   5.584 -1.3872  0.2958  0.4526
   79MOL0     H10396   4.204   7.988   5.766  1.4107  2.3753  0.8921
   79MOL0     H10397   4.324   7.862   5.827 -1.0900 -0.1910 -0.0814
   79MOL0     H10398   4.298   7.728   5.623  0.0954 -0.9304 -1.3268
   79MOL0     H10399   4.184   7.831   5.560  1.5145  0.4375 -0.4785
   79MOL0     H10400   4.133   7.613   5.705 -0.7920 -0.5275 -0.8413
   79MOL0     H10401   4.131   7.719   5.839  0.3469 -0.1820 -1.0380
   79MOL0     H10402   3.987   7.742   5.567  3.1193 -2.1849  0.1129
   79MOL0     H10403   3.957   7.859   5.713 -1.8339 -1.2989  1.2872
   79MOL0     H10404   3.889   7.653   5.838 -1.7912 -0.7521 -0.0459
   79MOL0     H10405   3.887   7.561   5.691 -1.1590 -0.6367  2.6734
   79MOL0     H10406   3.696   7.783   5.748  0.9724  1.9421 -0.8719
   79MOL0     H10407   3.733   7.733   5.583 -0.7712  0.2628  0.6315
   79MOL0     H10408   3.636   7.547   5.804 -0.3405 -0.1460 -0.5077
   79MOL0     H10409   3.683   7.503   5.639 -0.0058 -0.1032 -0.0037
   79MOL0     H10410   4.632   7.884   5.714  1.3473  0.6442 -2.3934
   79MOL0     H10411   4.857   7.896   5.742 -0.9624  1.3268 -0.7518
   79MOL0     H10412   5.236   8.180   5.781 -1.2512 -0.0107  1.6888
   79MOL0     H10413   5.472   8.184   5.730  1.7097 -0.8406  0.8221
   79MOL0     H10414   7.430   7.739   5.133  0.6301  1.2475 -1.4650
   79MOL0     H10415   7.633   7.890   5.099  2.8109 -0.8925  1.5316
   79MOL0     H10416   7.960   8.053   5.160  0.3509 -0.3033 -1.3494
   79MOL0     H10417   8.159   8.201   5.060 -1.5902 -0.8670 -1.1283
   79MOL0     H10418   8.321   8.484   5.308 -0.1299  1.2529  0.7294
   79MOL0     H10419   8.220   8.616   5.240  0.0414 -0.6653  2.8126
   79MOL0     H10420   8.357   8.588   5.025  0.6817  1.6236 -0.0625
   79MOL0     H10421   8.430   8.668   5.156  0.9659 -0.7292  0.6994
   79MOL0     H10422   8.474   8.376   5.074  0.7823  0.1516 -1.0866
   79MOL0     H10423   8.547   8.425   5.222 -0.5903 -5.5416 -2.3998
   79MOL0     H10424   8.614   8.537   4.947  1.7751 -2.9485  0.2837
   79MOL0     H10425   8.664   8.627   5.098  0.6218  0.9629 -2.2532
   79MOL0     H10426   8.962   8.352   5.039  1.3117  2.2116 -2.5962
   79MOL0     H10427   8.074   8.475   5.381 -2.7079 -0.6246  1.9297
   79MOL0     H10428   7.896   8.347   5.460  0.4085 -0.7777  0.5343
   80MOL0     O10429  10.531   1.035   0.580 -0.8436 -0.7989  0.4314
   80MOL0     C10430  10.609   0.992   0.498 -0.2338 -0.4599  0.2385
   80MOL0     O10431  10.571   0.957   0.373 -0.7445 -0.4235  0.0606
   80MOL0     C10432  10.447   0.984   0.325  0.5304  0.8607 -0.6905
   80MOL0     C10433  10.346   0.877   0.329 -0.8100 -0.5276 -0.9153
   80MOL0     C10434  10.212   0.911   0.292 -1.3498 -0.5755 -0.2741
   80MOL0     C10435  10.170   1.039   0.245  1.0473 -0.7462 -0.6083
   80MOL0     O10436  10.042   1.073   0.206  0.1030 -0.2926  0.0603
   80MOL0     C10437   9.932   1.015   0.280  0.3208 -0.3994  0.2276
   80MOL0     C10438   9.828   0.951   0.191  0.7169  1.1687  0.4932
   80MOL0     C10439   9.689   0.919   0.255 -0.3515 -0.1954 -0.0017
   80MOL0     C10440   9.582   1.027   0.247  0.2000 -0.5204 -0.1274
   80MOL0     C10441   9.443   0.997   0.302  0.3655  0.4665  0.6455
   80MOL0     C10442   9.373   0.913   0.191  0.6922 -0.0180 -0.2382
   80MOL0     C10443   9.223   0.895   0.242  0.5107  0.8392 -0.3660
   80MOL0     C10444   9.155   0.820   0.116  0.6533 -0.1590  0.5734
   80MOL0     N10445   9.011   0.837   0.123  0.0351 -0.2404  0.4578
   80MOL0     C10446   8.930   0.785   0.217  0.7049 -0.2074 -0.5099
   80MOL0     C10447   8.803   0.822   0.183 -0.1948 -0.4317  0.3927
   80MOL0     C10448   8.661   0.800   0.244 -0.2167 -0.6267  0.0151
   80MOL0     C10449   8.675   0.777   0.406 -0.1962  0.2458  0.6672
   80MOL0     C10450   8.678   0.904   0.495 -0.0074 -0.2818 -0.8155
   80MOL0     C10451   8.805   0.998   0.487 -0.1857  0.3201 -0.6529
   80MOL0     O10452   8.919   0.934   0.545  0.0724  0.6891 -0.0348
   80MOL0     C10453   9.042   0.999   0.563 -0.2554 -0.3553 -0.3447
   80MOL0     C10454   9.053   1.136   0.557 -0.2124 -0.9970  1.2832
   80MOL0     C10455   9.170   1.206   0.587  0.2485  0.5340  0.0795
   80MOL0     C10456   9.282   1.132   0.625 -0.8060 -0.0153  0.0221
   80MOL0     C10457   9.405   1.209   0.649 -0.0707  0.4967  0.4898
   80MOL0     O10458   9.519   1.139   0.632 -0.1012  0.2892  0.1831
   80MOL0     C10459   9.645   1.202   0.626 -0.1118 -0.2384 -0.7804
   80MOL0     C10460   9.750   1.124   0.653 -0.4443  0.2883 -0.1991
   80MOL0     C10461   9.879   1.170   0.634  0.7922 -0.4222 -0.0596
   80MOL0     C10462   9.902   1.299   0.584 -0.5741 -0.2746 -0.0013
   80MOL0     O10463  10.026   1.355   0.558  0.3023  0.4286 -0.4523
   80MOL0     C10464  10.145   1.314   0.630 -0.0786  0.1679 -0.1511
   80MOL0     C10465  10.267   1.398   0.588  0.3539  0.3958  0.3177
   80MOL0     C10466  10.390   1.358   0.676  0.6821  0.4540  0.0624
   80MOL0     C10467  10.528   1.402   0.614  0.0425  0.4908 -0.0328
   80MOL0     C10468  10.644   1.343   0.690  0.5488 -0.2975 -0.1573
   80MOL0     C10469  10.783   1.380   0.632  0.1320 -0.7819  0.7974
   80MOL0     C10470  10.899   1.359   0.734 -0.4010  0.1204 -0.0634
   80MOL0     C10471  11.029   1.431   0.698 -0.0333 -0.4793 -0.4642
   80MOL0    Cl10472  11.177   1.364   0.783 -0.0577 -0.3649  0.3041
   80MOL0     C10473   9.800   1.383   0.556  0.3702 -0.1167 -0.5684
   80MOL0     C10474   9.666   1.336   0.572 -0.4844  1.1036  0.6819
   80MOL0     O10475   9.399   1.325   0.693 -0.0572 -0.7568 -0.2238
   80MOL0     C10476   9.275   0.991   0.636  0.3501 -0.1548  0.4733
   80MOL0     C10477   9.158   0.925   0.598  0.2887 -0.7381 -0.4697
   80MOL0     N10478   8.809   0.884   0.056  0.9620  0.6317 -0.1166
   80MOL0     N10479   8.935   0.889   0.023 -0.1663 -0.7969 -0.7622
   80MOL0     C10480  10.272   1.137   0.235 -0.5544 -0.5612 -0.2205
   80MOL0     C10481  10.408   1.107   0.272 -0.0309  1.1065  0.1426
   80MOL0     C10482  10.753   0.994   0.536  0.0338 -0.0438  0.4224
   80MOL0     C10483  10.848   1.037   0.438  0.3942 -0.1010  0.4251
   80MOL0     C10484  10.982   1.033   0.477 -0.5300 -0.0532  0.4371
   80MOL0     C10485  11.036   0.988   0.592 -0.3154  0.4375  0.3159
   80MOL0     O10486  11.172   0.989   0.596  0.3916 -0.7977  0.3945
   80MOL0     C10487  11.228   0.974   0.725  0.2181  0.4506  0.1064
   80MOL0     C10488  11.372   0.943   0.710  0.1896 -0.2227 -0.3063
   80MOL0     C10489  11.450   0.925   0.848  0.5457  0.1505  0.5310
   80MOL0     C10490  11.599   0.896   0.817 -0.1572 -0.1092  0.4839
   80MOL0     C10491  11.673   1.018   0.790 -0.5595  0.1553  0.5386
   80MOL0     C10492  11.744   1.113   0.767 -0.3955  0.1881 -0.0496
   80MOL0     C10493  10.941   0.956   0.695 -0.4087 -0.1231 -0.2027
   80MOL0     C10494  10.798   0.959   0.670 -1.0693 -0.2625  0.0701
   80MOL0     H10495  10.371   0.776   0.361  0.3926 -0.2807 -1.0066
   80MOL0     H10496  10.137   0.832   0.296 -0.1213 -1.8633 -1.5438
   80MOL0     H10497   9.885   1.101   0.330  1.9711 -1.6589  4.3669
   80MOL0     H10498   9.964   0.953   0.364 -2.7797 -0.3914  1.5380
   80MOL0     H10499   9.871   0.854   0.163 -0.5432  0.4651  0.9123
   80MOL0     H10500   9.818   1.019   0.106 -1.3729  1.3184  0.8104
   80MOL0     H10501   9.699   0.883   0.357  1.2539  1.6033  0.5402
   80MOL0     H10502   9.647   0.837   0.196  0.6907 -0.5849 -0.2225
   80MOL0     H10503   9.599   1.109   0.318 -2.3548  1.9343 -2.0825
   80MOL0     H10504   9.568   1.068   0.146  2.3740 -0.0527 -0.2914
   80MOL0     H10505   9.398   1.094   0.324 -0.0708 -0.1418  2.5466
   80MOL0     H10506   9.454   0.938   0.393  2.0111  1.2772  1.0204
   80MOL0     H10507   9.411   0.811   0.187 -0.8725 -0.6250 -0.4295
   80MOL0     H10508   9.383   0.966   0.096 -0.7434 -1.5383 -1.2867
   80MOL0     H10509   9.212   0.831   0.329 -1.0736  1.6214  0.0372
   80MOL0     H10510   9.182   0.994   0.261  0.9667  0.2669  4.7988
   80MOL0     H10511   9.178   0.713   0.107 -1.6983 -0.6650 -0.2990
   80MOL0     H10512   9.192   0.868   0.025 -1.3157  3.1267  1.3552
   80MOL0     H10513   8.952   0.739   0.313  3.0898  0.7441 -0.5290
   80MOL0     H10514   8.626   0.709   0.196  2.0849 -0.7300 -1.6665
   80MOL0     H10515   8.588   0.879   0.222 -1.0881 -2.2616 -3.6696
   80MOL0     H10516   8.766   0.717   0.418  0.1916  0.1640 -2.1582
   80MOL0     H10517   8.587   0.717   0.431 -0.2656  0.1223  0.1348
   80MOL0     H10518   8.596   0.971   0.471 -0.7832  0.3258  3.0235
   80MOL0     H10519   8.659   0.870   0.597  2.1343 -1.8260 -0.8487
   80MOL0     H10520   8.780   1.097   0.528  2.1818 -0.0286  1.9711
   80MOL0     H10521   8.826   1.010   0.381 -1.2764  0.2580 -0.8865
   80MOL0     H10522   8.967   1.197   0.533  0.5942  0.0186  0.8724
   80MOL0     H10523   9.170   1.314   0.578 -1.8140  0.4715 -1.2350
   80MOL0     H10524   9.729   1.021   0.680  1.4031  0.5140  2.4227
   80MOL0     H10525   9.958   1.096   0.637 -0.7980 -2.2078 -0.2162
   80MOL0     H10526  10.171   1.209   0.608 -0.9128  0.2290 -1.5425
   80MOL0     H10527  10.133   1.318   0.738  2.5662 -3.1477  0.4396
   80MOL0     H10528  10.251   1.504   0.567 -0.6537 -0.3446 -3.4456
   80MOL0     H10529  10.287   1.352   0.491 -1.4704  0.2691 -0.0422
   80MOL0     H10530  10.387   1.251   0.698 -3.7471  0.8284  2.6567
   80MOL0     H10531  10.377   1.411   0.771  1.5348  0.8451 -0.0310
   80MOL0     H10532  10.523   1.378   0.507 -0.3763  0.2389  0.0432
   80MOL0     H10533  10.533   1.510   0.603 -0.9803  0.5077 -0.4711
   80MOL0     H10534  10.624   1.235   0.687  0.1363 -0.3388  2.1724
   80MOL0     H10535  10.634   1.384   0.790  0.7936 -0.4524 -0.0658
   80MOL0     H10536  10.788   1.485   0.603  0.4861 -0.8406  0.6397
   80MOL0     H10537  10.794   1.312   0.547 -1.0398 -2.2737  1.7999
   80MOL0     H10538  10.856   1.399   0.826 -0.0585  1.1153 -0.3257
   80MOL0     H10539  10.926   1.253   0.740  2.3518  0.7581 -0.0987
   80MOL0     H10540  11.013   1.536   0.724 -2.0228  0.0917 -3.3834
   80MOL0     H10541  11.049   1.420   0.591 -2.0950  1.7104 -1.1542
   80MOL0     H10542   9.820   1.483   0.519  4.1021 -0.0016  1.2613
   80MOL0     H10543   9.583   1.400   0.542  2.4006  3.8964 -2.0960
   80MOL0     H10544   9.355   0.928   0.674 -0.6985 -1.5262  0.4675
   80MOL0     H10545   9.142   0.818   0.602 -1.7965 -0.6541 -3.4050
   80MOL0     H10546  10.247   1.240   0.211  3.4101  0.4702 -0.6454
   80MOL0     H10547  10.486   1.182   0.266  0.0730  0.9408 -0.7877
   80MOL0     H10548  10.820   1.077   0.341 -3.0636 -1.1872  0.8318
   80MOL0     H10549  11.063   1.066   0.411  0.0473 -1.3463  0.4705
   80MOL0     H10550  11.177   0.899   0.787 -0.5453 -1.8257 -3.0122
   80MOL0     H10551  11.215   1.070   0.775  2.8072  1.6276 -1.3020
   80MOL0     H10552  11.383   0.852   0.651  1.3290 -0.2961 -0.0114
   80MOL0     H10553  11.410   1.026   0.648  0.7130 -2.5437 -3.3224
   80MOL0     H10554  11.407   0.843   0.906 -0.6864  0.2938 -0.1490
   80MOL0     H10555  11.430   1.015   0.907  2.5747  1.8158 -1.1452
   80MOL0     H10556  11.649   0.849   0.902  3.2373 -0.7109 -1.6582
   80MOL0     H10557  11.595   0.829   0.731 -0.5470 -1.1297  1.2864
   80MOL0     H10558  11.812   1.196   0.762 -0.2300 -0.0161 -2.7904
   80MOL0     H10559  10.979   0.946   0.797  0.2656 -3.9490 -0.6777
   80MOL0     H10560  10.726   0.927   0.744  1.3759 -1.9914  1.8414
   81MOL0     O10561   9.835   5.520   0.722 -0.4458 -0.4360 -0.5030
   81MOL0     C10562   9.915   5.535   0.811 -0.8349 -0.1421 -0.7952
   81MOL0     O10563   9.885   5.559   0.940 -0.3750 -0.0964 -0.2733
   81MOL0     C10564   9.751   5.542   0.971 -1.0474  0.3118 -0.9287
   81MOL0     C10565   9.681   5.417   0.954 -0.3101  0.4172 -0.3844
   81MOL0     C10566   9.553   5.397   0.999  0.0785 -0.5247  0.7400
   81MOL0     C10567   9.486   5.498   1.067 -0.3172 -0.3119 -0.2774
   81MOL0     O10568   9.377   5.475   1.144  0.0409  0.6434  0.5345
   81MOL0     C10569   9.275   5.579   1.142  0.2668  0.5838  0.3801
   81MOL0     C10570   9.226   5.617   0.998 -0.6719  0.6458 -0.3821
   81MOL0     C10571   9.108   5.710   0.996 -0.1689  0.0772 -0.2763
   81MOL0     C10572   9.072   5.768   0.865 -0.2916 -0.3724  0.0862
   81MOL0     C10573   8.951   5.858   0.886 -0.3647 -0.6869 -0.0150
   81MOL0     C10574   8.901   5.940   0.763 -0.6077  0.4845 -0.1348
   81MOL0     C10575   8.827   5.843   0.663 -0.0364 -0.4584  0.5071
   81MOL0     C10576   8.755   5.913   0.542 -0.4253  0.1521 -0.9603
   81MOL0     N10577   8.816   6.031   0.475 -0.0888  0.2862  0.9659
   81MOL0     C10578   8.843   6.153   0.526 -0.3440 -0.1494 -0.5075
   81MOL0     C10579   8.931   6.216   0.441  0.0835 -0.0168  0.4072
   81MOL0     C10580   8.997   6.350   0.454 -0.1848  0.4589  0.2835
   81MOL0     C10581   9.150   6.328   0.472  0.0804  0.3153  0.0088
   81MOL0     C10582   9.234   6.460   0.507  0.3028  0.4399 -0.5551
   81MOL0     C10583   9.390   6.437   0.520  0.1528  0.2519  0.0078
   81MOL0     O10584   9.439   6.362   0.406 -0.1521  0.5450 -0.1492
   81MOL0     C10585   9.570   6.386   0.370  0.2926  0.3484 -0.4823
   81MOL0     C10586   9.591   6.384   0.235 -0.7999  0.8943 -0.0509
   81MOL0     C10587   9.729   6.393   0.195  0.2451  0.4182  0.1933
   81MOL0     C10588   9.836   6.402   0.291  0.5386  0.0730  0.0905
   81MOL0     C10589   9.978   6.416   0.258 -0.4466 -0.0050 -0.3542
   81MOL0     O10590  10.012   6.424   0.123  0.2192 -1.3187  0.0307
   81MOL0     C10591  10.139   6.457   0.086  0.5278  0.7030 -0.5532
   81MOL0     C10592  10.144   6.563   0.002  0.0960 -0.3011 -0.9057
   81MOL0     C10593  10.265   6.604  -0.051  0.4748 -0.0756  0.6721
   81MOL0     C10594  10.389   6.548  -0.015 -0.6412 -0.4055 -0.0931
   81MOL0     O10595  10.498   6.601  -0.080  1.0055  0.4195  0.4867
   81MOL0     C10596  10.618   6.576  -0.006  0.6415 -0.4605  0.8817
   81MOL0     C10597  10.724   6.654  -0.081 -0.2274 -0.0899 -0.5753
   81MOL0     C10598  10.866   6.612  -0.035  0.1439  0.1814 -0.6238
   81MOL0     C10599  10.978   6.670  -0.128 -0.3013  1.0443 -0.0393
   81MOL0     C10600  11.104   6.625  -0.071 -0.2948 -0.0382 -0.0314
   81MOL0     C10601  11.224   6.666  -0.154  0.3904  0.1396  0.7841
   81MOL0     C10602  11.364   6.672  -0.081 -0.4919 -0.0397 -0.3674
   81MOL0     C10603  11.394   6.550  -0.004  0.1048 -0.2827 -0.2657
   81MOL0    Cl10604  11.570   6.545   0.040 -0.2771 -0.2333  0.4282
   81MOL0     C10605  10.387   6.441   0.074  0.6047  0.1934  0.3312
   81MOL0     C10606  10.258   6.391   0.118  0.2225 -0.1530 -1.0347
   81MOL0     O10607  10.063   6.425   0.351  0.2491  0.4342  1.0417
   81MOL0     C10608   9.806   6.399   0.429 -0.0181  0.9154  0.5933
   81MOL0     C10609   9.676   6.405   0.464 -0.3979  0.4509 -0.3810
   81MOL0     N10610   8.940   6.128   0.332  0.6452  0.5526 -0.0005
   81MOL0     N10611   8.869   6.023   0.346 -0.0645  0.0465  0.4197
   81MOL0     C10612   9.550   5.623   1.068 -0.9395 -0.2101 -0.9339
   81MOL0     C10613   9.680   5.646   1.031 -0.6974  0.4020 -0.0183
   81MOL0     C10614  10.066   5.526   0.777  0.0374  0.2601 -0.2340
   81MOL0     C10615  10.101   5.541   0.644  0.3052 -0.6385 -0.1733
   81MOL0     C10616  10.231   5.531   0.597  0.0640  0.3959 -0.2092
   81MOL0     C10617  10.331   5.500   0.687 -0.8737  0.0003  0.7611
   81MOL0     O10618  10.463   5.478   0.647 -1.2810  0.5529  0.2983
   81MOL0     C10619  10.518   5.556   0.540 -0.3449 -0.0340  0.4274
   81MOL0     C10620  10.504   5.710   0.572  0.2896 -0.2729  0.8006
   81MOL0     C10621  10.605   5.731   0.689 -0.1138 -0.1926  0.1637
   81MOL0     C10622  10.732   5.791   0.635 -0.2937 -0.3131 -0.2493
   81MOL0     C10623  10.723   5.935   0.608 -0.1671  0.2726  0.6753
   81MOL0     C10624  10.715   6.055   0.581  0.4852  0.1284  0.0079
   81MOL0     C10625  10.294   5.483   0.825  0.4652  0.8499  0.3930
   81MOL0     C10626  10.160   5.501   0.869  0.2379 -0.4309 -1.0218
   81MOL0     H10627   9.738   5.334   0.915  1.1075  0.5454  1.2864
   81MOL0     H10628   9.530   5.291   0.994  0.2722 -0.5052 -0.9989
   81MOL0     H10629   9.316   5.662   1.200  0.5136  1.4308 -0.9513
   81MOL0     H10630   9.192   5.530   1.192  0.1679  0.1034 -0.2433
   81MOL0     H10631   9.196   5.522   0.952  2.2383 -1.6971  2.1131
   81MOL0     H10632   9.317   5.640   0.942  0.7121 -2.0336  0.5799
   81MOL0     H10633   9.139   5.790   1.063 -0.0648  0.4181 -0.7288
   81MOL0     H10634   9.020   5.654   1.031 -1.8411  1.1164 -2.5768
   81MOL0     H10635   9.158   5.816   0.818 -1.4303  0.4176 -1.3061
   81MOL0     H10636   9.036   5.687   0.800 -0.2677 -0.2179 -0.1189
   81MOL0     H10637   8.971   5.939   0.957  1.0801  0.6180 -1.8090
   81MOL0     H10638   8.864   5.810   0.931 -0.3752  1.3708  2.4068
   81MOL0     H10639   8.992   5.977   0.713  0.2211 -0.5682  0.5413
   81MOL0     H10640   8.841   6.023   0.802  0.1778  0.4636  1.1868
   81MOL0     H10641   8.898   5.778   0.611  0.1198  1.8292 -2.4061
   81MOL0     H10642   8.756   5.786   0.724 -0.7436 -1.1479 -0.8908
   81MOL0     H10643   8.654   5.942   0.569  0.4723  0.8564  1.9791
   81MOL0     H10644   8.747   5.829   0.471 -1.0407 -0.5151 -0.1266
   81MOL0     H10645   8.807   6.198   0.618  0.0117 -0.5733 -0.1592
   81MOL0     H10646   8.948   6.404   0.535 -1.1205 -1.2351  0.8863
   81MOL0     H10647   8.988   6.398   0.356 -0.4700 -0.2860 -0.0586
   81MOL0     H10648   9.184   6.281   0.380 -1.1609 -0.6463  0.0104
   81MOL0     H10649   9.154   6.265   0.561 -1.1712  1.4404  0.9271
   81MOL0     H10650   9.216   6.551   0.449  0.9895  1.1920  0.3799
   81MOL0     H10651   9.198   6.499   0.603  1.9286  0.9940 -0.1447
   81MOL0     H10652   9.418   6.369   0.601 -1.9230  0.2519  0.8044
   81MOL0     H10653   9.436   6.533   0.545 -0.5778  0.5417  0.2647
   81MOL0     H10654   9.505   6.364   0.172  0.1977 -1.0096 -0.8955
   81MOL0     H10655   9.758   6.413   0.092 -0.1551  1.0413  0.1967
   81MOL0     H10656  10.055   6.624  -0.010  1.6998  2.3366 -0.0446
   81MOL0     H10657  10.268   6.682  -0.126 -1.0493 -1.3005 -0.7304
   81MOL0     H10658  10.642   6.469  -0.002  0.6771 -0.5819 -1.4056
   81MOL0     H10659  10.599   6.621   0.092 -2.6335  1.9617 -0.6556
   81MOL0     H10660  10.700   6.757  -0.051 -2.8440 -1.0087  0.8294
   81MOL0     H10661  10.729   6.627  -0.187  3.0453 -0.4833 -0.4262
   81MOL0     H10662  10.867   6.504  -0.018 -0.0173  0.8419  6.9753
   81MOL0     H10663  10.882   6.647   0.068 -0.3029 -3.3738  0.8111
   81MOL0     H10664  10.963   6.622  -0.225 -0.6944 -0.6343  0.8139
   81MOL0     H10665  10.974   6.779  -0.140  0.7596  0.8854 -2.2785
   81MOL0     H10666  11.110   6.519  -0.044  1.4064  0.8258  3.4925
   81MOL0     H10667  11.130   6.681   0.019  0.4677 -0.9923  0.3573
   81MOL0     H10668  11.203   6.764  -0.198 -2.2208 -0.4400  0.5255
   81MOL0     H10669  11.232   6.597  -0.238 -0.5195  0.8550  0.0817
   81MOL0     H10670  11.442   6.701  -0.153  1.0577  0.5210  1.4609
   81MOL0     H10671  11.364   6.756  -0.010  1.4234 -1.1189  0.9837
   81MOL0     H10672  11.365   6.464  -0.064  0.9731 -0.8229  0.0800
   81MOL0     H10673  11.323   6.548   0.079  0.4399  3.4239  0.2871
   81MOL0     H10674  10.474   6.379   0.094  0.6034 -0.3755 -1.3035
   81MOL0     H10675  10.258   6.296   0.169  0.4329 -0.4541 -1.5889
   81MOL0     H10676   9.880   6.389   0.507  0.9072 -0.6556 -0.4330
   81MOL0     H10677   9.652   6.420   0.569 -3.3623  3.1494 -1.2808
   81MOL0     H10678   9.502   5.713   1.103 -0.3118  0.3903 -1.5770
   81MOL0     H10679   9.740   5.735   1.045  1.0158 -0.8030  0.7338
   81MOL0     H10680  10.028   5.562   0.566 -0.5713 -1.4391  0.4153
   81MOL0     H10681  10.252   5.535   0.491 -1.9610 -0.5520 -0.6870
   81MOL0     H10682  10.456   5.530   0.453 -1.1818  0.1735  0.9441
   81MOL0     H10683  10.623   5.542   0.512  0.3070  0.5852  2.4245
   81MOL0     H10684  10.530   5.782   0.493 -0.0874 -0.9462  0.0562
   81MOL0     H10685  10.406   5.734   0.614  0.6657  0.2784  1.3853
   81MOL0     H10686  10.640   5.638   0.733  0.2386  0.8531  2.2206
   81MOL0     H10687  10.565   5.790   0.772 -0.1844  1.7579 -1.1882
   81MOL0     H10688  10.815   5.768   0.702 -1.1075 -2.8245  0.0058
   81MOL0     H10689  10.764   5.743   0.542  2.3673 -0.5843  0.7273
   81MOL0     H10690  10.723   6.161   0.565  0.4149  0.3132  1.0909
   81MOL0     H10691  10.373   5.456   0.895  1.3851 -0.2581 -1.0044
   81MOL0     H10692  10.124   5.499   0.972  2.1988  1.6552 -0.2021
   82MOL0     O10693   0.637   6.279   6.964  0.2357 -0.1005 -0.3089
   82MOL0     C10694   0.670   6.294   7.080  0.1396 -0.8597 -0.6887
   82MOL0     O10695   0.586   6.319   7.185  0.1324  0.8226  0.1171
   82MOL0     C10696   0.449   6.309   7.168  0.3633 -0.3240 -0.3438
   82MOL0     C10697   0.378   6.191   7.160 -0.7756 -0.6083 -0.7640
   82MOL0     C10698   0.244   6.192   7.135 -0.3133  0.0796  0.1528
   82MOL0     C10699   0.169   6.306   7.125 -0.2974 -0.6477  0.2711
   82MOL0     O10700   0.033   6.308   7.114  0.8374  0.5258 -0.1886
   82MOL0     C10701  -0.044   6.184   7.104  0.0813 -0.6728  0.0415
   82MOL0     C10702  -0.188   6.221   7.073  0.8920  0.6631 -0.3825
   82MOL0     C10703  -0.220   6.241   6.925  0.1528  1.0874 -0.1388
   82MOL0     C10704  -0.365   6.201   6.895  0.9203  0.0390 -0.3621
   82MOL0     C10705  -0.396   6.231   6.748 -0.0592  1.2764  0.4644
   82MOL0     C10706  -0.542   6.195   6.717  1.2700 -0.2050 -0.0995
   82MOL0     C10707  -0.553   6.157   6.573  0.0386  0.2352  0.3299
   82MOL0     C10708  -0.687   6.069   6.552 -0.7837 -0.0035  0.0632
   82MOL0     N10709  -0.814   6.143   6.588  0.4200 -0.2166  0.0615
   82MOL0     C10710  -0.838   6.277   6.571 -0.1313 -0.3205 -0.0334
   82MOL0     C10711  -0.953   6.311   6.636  0.1058 -0.1302  0.0386
   82MOL0     C10712  -1.032   6.435   6.649  0.0994  0.8771  0.8363
   82MOL0     C10713  -1.018   6.505   6.778  0.2607 -0.2904 -0.2915
   82MOL0     C10714  -0.885   6.576   6.791 -0.4864 -0.6237  0.1532
   82MOL0     C10715  -0.852   6.611   6.943 -0.3860 -0.0835  0.0166
   82MOL0     O10716  -0.710   6.630   6.948  0.5600  0.6198  0.2189
   82MOL0     C10717  -0.654   6.650   7.067  0.4759 -0.6258 -0.0240
   82MOL0     C10718  -0.722   6.671   7.196  0.3682 -1.0010 -1.1794
   82MOL0     C10719  -0.644   6.701   7.303 -0.1987 -0.6781 -0.2727
   82MOL0     C10720  -0.505   6.719   7.300 -0.3195 -0.1002  0.7407
   82MOL0     C10721  -0.431   6.760   7.416  0.3399  0.0489 -0.2542
   82MOL0     O10722  -0.297   6.774   7.408  0.3069 -0.2885 -0.1832
   82MOL0     C10723  -0.218   6.821   7.506 -0.0850 -0.2718 -0.8210
   82MOL0     C10724  -0.227   6.768   7.634 -0.5485 -0.4771  0.2618
   82MOL0     C10725  -0.146   6.808   7.740 -0.1976  0.1865 -0.4132
   82MOL0     C10726  -0.045   6.897   7.713 -0.0370  0.4779  0.0536
   82MOL0     O10727   0.028   6.930   7.822  0.0290  0.5316  0.6926
   82MOL0     C10728   0.168   6.933   7.783 -0.6530  0.0629  0.0468
   82MOL0     C10729   0.244   6.978   7.909 -0.9161 -0.0571 -0.6231
   82MOL0     C10730   0.224   6.888   8.033  0.5538 -0.1452  0.0909
   82MOL0     C10731   0.351   6.895   8.121  1.0137  0.4937  0.8673
   82MOL0     C10732   0.354   7.025   8.204  0.3203 -0.2240  0.8322
   82MOL0     C10733   0.454   7.014   8.314  0.5003  0.5361 -0.1714
   82MOL0     C10734   0.467   7.145   8.393  0.8195 -0.3492 -0.2477
   82MOL0     C10735   0.576   7.142   8.493 -0.1443 -0.7109 -0.3155
   82MOL0    Cl10736   0.636   7.312   8.510 -0.4592  0.2924  0.0964
   82MOL0     C10737  -0.029   6.949   7.587  0.2572  0.5119  0.0788
   82MOL0     C10738  -0.123   6.923   7.485  0.0114 -0.0468 -0.0893
   82MOL0     O10739  -0.498   6.790   7.514 -0.4619  0.3862 -0.4166
   82MOL0     C10740  -0.444   6.687   7.179 -0.3784 -0.5675  0.1582
   82MOL0     C10741  -0.516   6.658   7.071 -0.5122 -0.6007  0.3437
   82MOL0     N10742  -0.992   6.189   6.694 -0.5529  0.8313 -0.0218
   82MOL0     N10743  -0.912   6.094   6.662 -0.1940  0.0790 -0.6111
   82MOL0     C10744   0.230   6.428   7.123 -0.0425  0.5624 -0.5040
   82MOL0     C10745   0.366   6.426   7.155 -1.0859  0.3851 -0.0708
   82MOL0     C10746   0.819   6.297   7.109  0.6235 -0.5249  0.1011
   82MOL0     C10747   0.861   6.365   7.220  0.2442  0.3134 -0.0621
   82MOL0     C10748   0.993   6.376   7.249 -0.3759  0.8437  0.5710
   82MOL0     C10749   1.092   6.321   7.163 -0.2923  0.1874 -0.6171
   82MOL0     O10750   1.228   6.325   7.193  0.2720  0.2246  0.4501
   82MOL0     C10751   1.261   6.430   7.281 -0.6703 -0.1593 -0.3546
   82MOL0     C10752   1.408   6.475   7.252  0.2190 -0.1194  0.1920
   82MOL0     C10753   1.501   6.358   7.272 -0.2909  1.2880 -0.5037
   82MOL0     C10754   1.642   6.410   7.234  1.4153  0.2155 -0.5857
   82MOL0     C10755   1.739   6.335   7.301  0.0223  0.4037 -0.1243
   82MOL0     C10756   1.827   6.274   7.352 -0.3411  0.2274 -0.2973
   82MOL0     C10757   1.051   6.251   7.045 -0.2996 -0.3563  0.2045
   82MOL0     C10758   0.913   6.235   7.019  0.3009  0.3284 -1.3996
   82MOL0     H10759   0.428   6.097   7.179  0.3696 -0.2396 -1.8621
   82MOL0     H10760   0.198   6.094   7.148  3.0173 -1.4612  1.6962
   82MOL0     H10761  -0.038   6.134   7.201  0.2608 -2.0120 -0.6349
   82MOL0     H10762  -0.001   6.124   7.023 -0.7203 -0.2870 -0.6836
   82MOL0     H10763  -0.225   6.312   7.121  0.8124  2.0976 -2.9980
   82MOL0     H10764  -0.247   6.144   7.125  4.3905  0.1385  3.3200
   82MOL0     H10765  -0.149   6.174   6.875  1.9901  1.8702  1.2753
   82MOL0     H10766  -0.203   6.339   6.880  1.6245  0.1868 -1.6608
   82MOL0     H10767  -0.372   6.093   6.910  1.2372 -0.1805 -1.6721
   82MOL0     H10768  -0.436   6.249   6.963  0.1488 -1.2914 -0.2025
   82MOL0     H10769  -0.329   6.171   6.685 -1.7076 -1.2447  0.9831
   82MOL0     H10770  -0.369   6.332   6.717  0.6374  0.6673 -1.0379
   82MOL0     H10771  -0.597   6.287   6.739  0.5913 -0.6367  0.0167
   82MOL0     H10772  -0.583   6.114   6.778  0.7893 -0.6701 -1.0376
   82MOL0     H10773  -0.552   6.251   6.516  1.5855 -0.0885 -0.2210
   82MOL0     H10774  -0.465   6.102   6.539  0.4868  0.2891  1.3691
   82MOL0     H10775  -0.680   5.979   6.613  0.6127 -0.8752 -1.3077
   82MOL0     H10776  -0.698   6.039   6.447  0.8123 -1.1605  0.1976
   82MOL0     H10777  -0.772   6.339   6.511 -0.8941 -0.1617 -0.7190
   82MOL0     H10778  -1.139   6.419   6.629  0.4393 -2.1010  1.0490
   82MOL0     H10779  -0.996   6.497   6.566  0.3402  1.0609  1.0776
   82MOL0     H10780  -1.027   6.437   6.864  1.1649 -0.4588 -0.3177
   82MOL0     H10781  -1.096   6.580   6.792 -0.1045 -0.5043 -1.1605
   82MOL0     H10782  -0.802   6.516   6.754 -0.8841 -1.4988  0.6424
   82MOL0     H10783  -0.883   6.665   6.727 -1.8413 -2.1415 -2.1608
   82MOL0     H10784  -0.880   6.529   7.010  1.9510 -1.2166 -0.2988
   82MOL0     H10785  -0.913   6.699   6.968 -2.7503 -1.0171 -2.0484
   82MOL0     H10786  -0.828   6.651   7.206 -0.2462  1.4942 -2.0681
   82MOL0     H10787  -0.702   6.723   7.392  1.5257 -0.1370  0.7634
   82MOL0     H10788  -0.295   6.686   7.657  0.7048 -0.6880  3.7503
   82MOL0     H10789  -0.158   6.766   7.839 -0.3142 -1.5377 -1.1261
   82MOL0     H10790   0.200   6.998   7.702  2.4826  0.0163  1.1125
   82MOL0     H10791   0.205   6.834   7.756  3.0124  0.7332  2.0115
   82MOL0     H10792   0.230   7.084   7.934 -2.1618 -0.6865  1.6392
   82MOL0     H10793   0.346   6.952   7.880 -1.2398 -2.3102  0.0436
   82MOL0     H10794   0.211   6.784   8.001 -0.7322 -0.2255  0.8063
   82MOL0     H10795   0.135   6.914   8.090  0.5989 -0.7859  0.4550
   82MOL0     H10796   0.332   6.814   8.192 -1.4821  2.2437  2.3902
   82MOL0     H10797   0.439   6.875   8.060  0.4328  0.5536 -0.0121
   82MOL0     H10798   0.249   7.046   8.229  0.2082  1.0211 -0.5583
   82MOL0     H10799   0.386   7.106   8.138  0.9341 -1.4611 -0.4156
   82MOL0     H10800   0.551   6.981   8.276  1.5499 -0.6643  3.2003
   82MOL0     H10801   0.418   6.935   8.381  1.7672 -0.3805 -0.5392
   82MOL0     H10802   0.476   7.226   8.320  1.0999  0.3261  0.5201
   82MOL0     H10803   0.376   7.150   8.454  2.4269  1.1424  2.2247
   82MOL0     H10804   0.663   7.080   8.470  1.0490  1.1540 -1.1466
   82MOL0     H10805   0.531   7.107   8.586  0.6846  1.2305  0.8871
   82MOL0     H10806   0.032   7.036   7.565  3.6240 -1.9941 -1.2137
   82MOL0     H10807  -0.115   6.947   7.380  1.5081 -0.9316 -0.2090
   82MOL0     H10808  -0.336   6.684   7.188 -0.1001  3.6086 -0.1761
   82MOL0     H10809  -0.455   6.640   6.983  2.0391 -1.4153  2.1593
   82MOL0     H10810   0.174   6.521   7.128 -2.3277 -0.6482 -1.8900
   82MOL0     H10811   0.420   6.519   7.171 -0.8887  0.5250 -1.4350
   82MOL0     H10812   0.794   6.417   7.288  0.2955  0.5854 -0.2166
   82MOL0     H10813   1.019   6.444   7.330 -1.7440  3.1352 -0.7998
   82MOL0     H10814   1.242   6.391   7.381  1.2567 -2.5642 -0.8439
   82MOL0     H10815   1.198   6.519   7.274 -1.5638 -0.7669 -0.1909
   82MOL0     H10816   1.420   6.513   7.150  2.5084  2.1468  1.2019
   82MOL0     H10817   1.433   6.562   7.314  0.7164 -1.4147  1.8591
   82MOL0     H10818   1.471   6.275   7.207  0.6346 -0.2705  0.9909
   82MOL0     H10819   1.490   6.315   7.372 -0.2040  1.0219 -0.6072
   82MOL0     H10820   1.657   6.409   7.126  1.6877  0.3392 -0.5479
   82MOL0     H10821   1.666   6.513   7.259 -0.0102  0.8252 -1.5737
   82MOL0     H10822   1.911   6.215   7.385  1.1786  2.7512  0.6624
   82MOL0     H10823   1.127   6.207   6.982 -0.4210 -2.4884  1.4727
   82MOL0     H10824   0.870   6.169   6.945  0.6589 -0.1784 -1.1620
   83MOL0     O10825   4.122   0.224   2.626  0.9199  0.9070  0.1493
   83MOL0     C10826   4.162   0.146   2.538 -0.0009 -0.4321 -0.4205
   83MOL0     O10827   4.077   0.064   2.462 -0.7651  0.1664 -0.1519
   83MOL0     C10828   3.938   0.085   2.494  0.0135 -0.4402 -0.4115
   83MOL0     C10829   3.886   0.005   2.597  0.5204  0.2441  0.6017
   83MOL0     C10830   3.757   0.038   2.649  0.4394  0.8976 -0.4810
   83MOL0     C10831   3.677   0.137   2.591 -0.1232  0.4481  0.0673
   83MOL0     O10832   3.552   0.173   2.635 -0.0091 -0.5421 -1.0624
   83MOL0     C10833   3.436   0.124   2.571 -0.5647  0.7432 -0.5501
   83MOL0     C10834   3.332   0.222   2.526 -0.0847  0.1573  0.4935
   83MOL0     C10835   3.278   0.298   2.640 -0.3585  0.5272 -0.5156
   83MOL0     C10836   3.179   0.413   2.603 -0.7434  0.8026  1.0325
   83MOL0     C10837   3.080   0.429   2.700 -1.0559 -0.2347  0.7152
   83MOL0     C10838   3.150   0.501   2.817 -0.3309 -0.5033 -0.1142
   83MOL0     C10839   3.040   0.564   2.907 -0.0995 -0.4551  0.3920
   83MOL0     C10840   3.103   0.631   3.024  0.7507  0.4303  0.8063
   83MOL0     N10841   2.997   0.691   3.113  0.2164  0.1639  0.1543
   83MOL0     C10842   2.905   0.783   3.069 -0.3304  0.7871  0.1704
   83MOL0     C10843   2.826   0.811   3.180 -1.2287  0.1386 -0.4095
   83MOL0     C10844   2.707   0.906   3.182  1.5325  0.1235 -0.6544
   83MOL0     C10845   2.592   0.852   3.105 -0.5593  0.5568  0.0630
   83MOL0     C10846   2.492   0.962   3.081  0.4031 -0.3471  0.0883
   83MOL0     C10847   2.364   0.935   2.991  0.0216  0.8750  0.0335
   83MOL0     O10848   2.283   0.853   3.075  0.7829 -0.3599 -0.7071
   83MOL0     C10849   2.146   0.891   3.095 -0.1842 -0.6673  0.0045
   83MOL0     C10850   2.044   0.795   3.115 -0.8267  0.0669 -0.1270
   83MOL0     C10851   1.910   0.840   3.117  0.4372 -0.4000  0.0070
   83MOL0     C10852   1.869   0.975   3.109 -0.0871 -0.5648 -0.3487
   83MOL0     C10853   1.725   1.010   3.096 -0.3393  0.0132  0.5687
   83MOL0     O10854   1.700   1.141   3.077 -0.0546 -0.6588  0.0387
   83MOL0     C10855   1.578   1.174   3.039 -0.1759  0.2177 -0.9915
   83MOL0     C10856   1.517   1.120   2.921 -0.0164  0.2626 -0.3430
   83MOL0     C10857   1.386   1.159   2.885 -0.6407 -0.3430 -0.2077
   83MOL0     C10858   1.310   1.237   2.973  0.0707 -0.2816  0.1584
   83MOL0     O10859   1.174   1.259   2.974  0.9151 -0.3061 -0.6978
   83MOL0     C10860   1.089   1.173   2.903 -0.5460  0.1282  0.7441
   83MOL0     C10861   0.948   1.205   2.957  0.2670 -0.2505  0.5205
   83MOL0     C10862   0.883   1.334   2.896  0.0778  0.2557  0.3531
   83MOL0     C10863   0.736   1.366   2.946  0.6102  0.4427 -0.4624
   83MOL0     C10864   0.656   1.431   2.832  1.6320 -0.5864  0.6790
   83MOL0     C10865   0.702   1.576   2.829 -0.2032  0.6509  0.4711
   83MOL0     C10866   0.612   1.650   2.735 -0.6053  1.0814  1.1985
   83MOL0     C10867   0.649   1.801   2.736 -0.4396  0.6300  0.6310
   83MOL0    Cl10868   0.607   1.871   2.891 -0.1777 -0.2578 -0.0643
   83MOL0     C10869   1.374   1.293   3.083 -0.3136  0.6823  0.1292
   83MOL0     C10870   1.509   1.261   3.119  0.9346  0.4240 -0.1258
   83MOL0     O10871   1.642   0.923   3.108  0.0686  0.0757  0.0192
   83MOL0     C10872   1.973   1.072   3.110 -0.5894  0.2452  0.2860
   83MOL0     C10873   2.107   1.028   3.098 -0.7993  0.3655  0.5644
   83MOL0     N10874   2.883   0.744   3.291  0.4803  0.7047  0.4500
   83MOL0     N10875   2.991   0.688   3.252  0.3709 -0.2758 -0.7917
   83MOL0     C10876   3.726   0.204   2.472  0.0699 -0.4812 -0.1396
   83MOL0     C10877   3.861   0.192   2.436  0.2948  0.8965 -0.9574
   83MOL0     C10878   4.306   0.124   2.521 -0.5085 -0.0533  0.1353
   83MOL0     C10879   4.398   0.217   2.567 -1.1979  1.1410 -0.4857
   83MOL0     C10880   4.535   0.206   2.529 -0.1919 -0.0389 -0.4610
   83MOL0     C10881   4.580   0.098   2.454 -0.1912  0.2179 -0.2014
   83MOL0     O10882   4.713   0.089   2.414  0.4936 -0.2433  0.2219
   83MOL0     C10883   4.815   0.087   2.522  0.2338 -0.6396 -0.1852
   83MOL0     C10884   4.898  -0.043   2.521 -0.0920  0.3613 -0.5043
   83MOL0     C10885   4.973  -0.076   2.397 -0.3202 -0.2903  1.1465
   83MOL0     C10886   5.079   0.025   2.346 -0.7943 -0.4966 -1.2681
   83MOL0     C10887   5.187   0.049   2.444  0.1384  0.7503  0.4579
   83MOL0     C10888   5.276   0.084   2.522  1.1550  0.3335 -0.9845
   83MOL0     C10889   4.489   0.003   2.407 -0.3739  0.3467 -0.4401
   83MOL0     C10890   4.353   0.017   2.436  0.4588  0.7645 -0.9057
   83MOL0     H10891   3.943  -0.076   2.642  0.3966  0.4860  1.2025
   83MOL0     H10892   3.712  -0.026   2.724  1.6968 -0.2069 -0.6372
   83MOL0     H10893   3.387   0.055   2.640 -0.6490  0.8823 -0.4722
   83MOL0     H10894   3.471   0.064   2.486  3.6461  4.2722 -1.6908
   83MOL0     H10895   3.248   0.169   2.479  0.7948 -0.0625 -0.9025
   83MOL0     H10896   3.376   0.291   2.453  0.3196  0.5194  1.0652
   83MOL0     H10897   3.362   0.349   2.688 -0.0943 -0.4842  0.1168
   83MOL0     H10898   3.233   0.230   2.713  0.2490  0.8243  0.1446
   83MOL0     H10899   3.231   0.503   2.571 -2.2265  1.0705 -0.7935
   83MOL0     H10900   3.132   0.367   2.516 -1.7338 -3.8294  3.6526
   83MOL0     H10901   3.025   0.337   2.721 -3.2455  0.6384 -0.8587
   83MOL0     H10902   3.009   0.497   2.652  0.4776 -0.0261 -1.3953
   83MOL0     H10903   3.209   0.577   2.766  0.0105 -2.6109 -3.1064
   83MOL0     H10904   3.213   0.437   2.880  1.6084  2.2754  0.9616
   83MOL0     H10905   2.979   0.633   2.848  1.4182 -0.0383 -0.7547
   83MOL0     H10906   2.974   0.481   2.933  1.5391 -1.6315  0.9447
   83MOL0     H10907   3.166   0.711   2.984 -1.4047  2.3937  1.1721
   83MOL0     H10908   3.167   0.555   3.069  0.6070  0.6416  1.3670
   83MOL0     H10909   2.899   0.831   2.972 -2.1741 -1.6830 -1.0416
   83MOL0     H10910   2.728   1.003   3.136  0.0178  0.9590  0.3581
   83MOL0     H10911   2.683   0.921   3.288 -0.3918  0.0075 -1.0366
   83MOL0     H10912   2.551   0.775   3.171  2.7979  0.1841  1.9340
   83MOL0     H10913   2.631   0.805   3.014 -1.2173  1.5916 -0.7698
   83MOL0     H10914   2.452   0.990   3.179 -2.9009 -1.2748 -0.8549
   83MOL0     H10915   2.537   1.050   3.035 -1.6527  0.7286  0.0153
   83MOL0     H10916   2.412   0.879   2.910  1.8386 -0.8907  2.1965
   83MOL0     H10917   2.317   1.032   2.972 -1.7533  0.7794  3.3116
   83MOL0     H10918   2.078   0.693   3.131 -0.3192  0.5728  2.3815
   83MOL0     H10919   1.836   0.762   3.113 -1.0441  1.0072 -1.4493
   83MOL0     H10920   1.567   1.050   2.856  0.3004  0.8521 -0.7474
   83MOL0     H10921   1.356   1.129   2.785 -1.6503 -1.0908  0.3082
   83MOL0     H10922   1.115   1.069   2.928 -2.1261 -0.3696  0.4052
   83MOL0     H10923   1.099   1.181   2.795 -4.0737 -2.0824  0.0631
   83MOL0     H10924   0.964   1.203   3.065  1.2752 -2.3151  0.3805
   83MOL0     H10925   0.882   1.120   2.934  0.5795 -0.6085  0.9310
   83MOL0     H10926   0.882   1.317   2.788 -2.1485  0.5240  0.2806
   83MOL0     H10927   0.946   1.421   2.921  1.4568 -0.2640 -1.1497
   83MOL0     H10928   0.680   1.273   2.958  2.5967 -0.7194  0.3810
   83MOL0     H10929   0.729   1.415   3.043 -0.9145 -1.6008  0.5383
   83MOL0     H10930   0.547   1.432   2.846  1.3186  2.9147 -0.8935
   83MOL0     H10931   0.675   1.389   2.733 -1.5803 -0.3832 -0.1611
   83MOL0     H10932   0.807   1.587   2.800  1.0612  0.1675  4.2542
   83MOL0     H10933   0.702   1.611   2.933 -0.0542 -1.2592  1.1600
   83MOL0     H10934   0.621   1.603   2.637 -1.7208 -0.5409  1.8217
   83MOL0     H10935   0.506   1.635   2.758 -0.2460 -0.9803  1.6702
   83MOL0     H10936   0.595   1.854   2.657  1.6832  1.3119 -0.4280
   83MOL0     H10937   0.755   1.817   2.716 -0.4095  3.2385  2.2994
   83MOL0     H10938   1.305   1.351   3.143 -1.0961 -2.1781  2.1821
   83MOL0     H10939   1.545   1.307   3.211 -0.8371 -0.0917  0.8612
   83MOL0     H10940   1.951   1.178   3.100 -1.5706 -0.1632 -3.7678
   83MOL0     H10941   2.183   1.106   3.091 -1.4147  0.8665 -0.7335
   83MOL0     H10942   3.670   0.289   2.435  0.7220  0.1653  0.3258
   83MOL0     H10943   3.902   0.258   2.360 -0.6647  3.1854  0.4205
   83MOL0     H10944   4.351   0.292   2.630 -1.9024 -1.1591  1.8876
   83MOL0     H10945   4.605   0.281   2.563  1.2903 -1.5042 -0.1290
   83MOL0     H10946   4.765   0.106   2.618 -0.4330  4.3544 -1.2429
   83MOL0     H10947   4.886   0.169   2.512  0.0161 -0.3478  0.5975
   83MOL0     H10948   4.973  -0.051   2.601  0.1888 -1.8973 -0.9089
   83MOL0     H10949   4.827  -0.126   2.531 -0.1479  0.2544 -1.6466
   83MOL0     H10950   4.903  -0.089   2.314  0.8635  0.0667  0.0786
   83MOL0     H10951   5.023  -0.172   2.411  1.7456  0.4659 -0.6286
   83MOL0     H10952   5.127  -0.012   2.254 -0.0339  2.4677 -2.1640
   83MOL0     H10953   5.033   0.121   2.320  0.1557  1.1044  2.3844
   83MOL0     H10954   5.357   0.104   2.590 -1.4282 -0.6487  2.6809
   83MOL0     H10955   4.512  -0.077   2.337 -3.7183  0.1928 -1.5027
   83MOL0     H10956   4.283  -0.059   2.404  2.7376 -2.6242  1.4455
   84MOL0     O10957   5.703   2.065   2.715  0.3317 -0.5768 -0.3414
   84MOL0     C10958   5.689   1.945   2.712 -0.2539  0.3848 -0.0182
   84MOL0     O10959   5.575   1.877   2.738 -0.4764 -0.2436  0.0122
   84MOL0     C10960   5.461   1.953   2.770  1.4508  0.6165  0.4626
   84MOL0     C10961   5.409   1.929   2.897 -0.4716  0.4837  0.2498
   84MOL0     C10962   5.285   1.991   2.932 -0.6469 -0.3300  0.2347
   84MOL0     C10963   5.233   2.081   2.839  0.7497  0.4675 -0.2320
   84MOL0     O10964   5.110   2.149   2.855 -0.1292  0.0186 -0.1286
   84MOL0     C10965   5.008   2.093   2.941 -0.4705  0.0845 -0.3599
   84MOL0     C10966   4.882   2.176   2.938 -0.0297 -0.3760  0.6967
   84MOL0     C10967   4.764   2.104   3.014 -0.0721 -0.2574  0.7597
   84MOL0     C10968   4.632   2.177   3.011  0.6534  0.3141  0.0154
   84MOL0     C10969   4.531   2.127   3.117  0.4497  0.3079  0.1859
   84MOL0     C10970   4.400   2.210   3.085  0.1852 -0.5409 -0.9469
   84MOL0     C10971   4.298   2.142   2.986 -0.5171 -0.7149 -0.5167
   84MOL0     C10972   4.187   2.230   2.944  1.5000 -0.1538  0.5080
   84MOL0     N10973   4.076   2.246   3.040 -0.0005 -0.5263  0.5719
   84MOL0     C10974   4.056   2.357   3.124  0.5468  0.2292 -0.1696
   84MOL0     C10975   3.918   2.357   3.140 -0.1699 -0.1020  1.0337
   84MOL0     C10976   3.840   2.455   3.221 -0.3358  0.4876 -1.1270
   84MOL0     C10977   3.866   2.603   3.198 -0.3618  0.2730  0.3778
   84MOL0     C10978   3.744   2.691   3.238  1.1707 -0.2363 -0.1920
   84MOL0     C10979   3.781   2.842   3.237 -0.6838  0.4110 -0.7534
   84MOL0     O10980   3.675   2.910   3.307  0.1632  0.2008 -0.2061
   84MOL0     C10981   3.575   2.978   3.243  0.5168  0.1772  0.1162
   84MOL0     C10982   3.453   2.995   3.311 -0.0422  0.0547  0.1551
   84MOL0     C10983   3.339   3.063   3.249  0.0257  0.1946  0.0523
   84MOL0     C10984   3.343   3.111   3.117  0.2757 -0.0824  0.1318
   84MOL0     C10985   3.228   3.180   3.052  0.4855  0.1049 -0.2336
   84MOL0     O10986   3.108   3.162   3.123 -0.2055 -0.2750  0.2560
   84MOL0     C10987   2.995   3.223   3.075 -0.3873  0.3304  0.2078
   84MOL0     C10988   2.999   3.358   3.031  0.2088 -0.3409 -0.3624
   84MOL0     C10989   2.882   3.429   2.999  0.3035 -0.1625 -0.4179
   84MOL0     C10990   2.757   3.355   3.010 -0.4336 -0.6874  0.1643
   84MOL0     O10991   2.635   3.408   2.980 -0.0034  0.3932  0.8618
   84MOL0     C10992   2.621   3.536   2.920  0.3873  0.7424 -0.1507
   84MOL0     C10993   2.491   3.544   2.840 -0.0737  0.0272 -0.5914
   84MOL0     C10994   2.379   3.523   2.945  0.0633  0.0652 -0.1565
   84MOL0     C10995   2.239   3.541   2.885 -0.6328 -0.2205  0.5047
   84MOL0     C10996   2.132   3.534   2.980  0.3224 -0.2354 -0.4038
   84MOL0     C10997   1.997   3.540   2.905 -0.6871  0.0244 -0.4290
   84MOL0     C10998   1.874   3.536   2.990  0.0345  0.7135 -0.5253
   84MOL0     C10999   1.745   3.528   2.906  0.1172 -0.8008  0.1461
   84MOL0    Cl11000   1.604   3.583   3.001  0.2670 -0.4207 -0.4082
   84MOL0     C11001   2.751   3.224   3.056 -0.2190 -0.4631 -0.3388
   84MOL0     C11002   2.872   3.160   3.085  1.4796  0.5915  0.7350
   84MOL0     O11003   3.241   3.226   2.940 -0.2362  0.1366 -0.1754
   84MOL0     C11004   3.470   3.099   3.062  0.4531 -0.5913  0.2975
   84MOL0     C11005   3.575   3.028   3.113 -0.1629 -0.9542 -0.3929
   84MOL0     N11006   3.869   2.248   3.074 -0.5280  0.1318  0.1753
   84MOL0     N11007   3.967   2.178   3.021  0.7972  0.4228 -0.1302
   84MOL0     C11008   5.285   2.095   2.710  0.2566  0.8215  0.6396
   84MOL0     C11009   5.401   2.032   2.676 -0.2085 -0.1943 -0.0436
   84MOL0     C11010   5.812   1.864   2.673 -0.5681 -0.8303  0.2827
   84MOL0     C11011   5.811   1.727   2.663 -0.2313  1.1901 -0.8704
   84MOL0     C11012   5.927   1.662   2.632 -0.3959  0.6903  0.0228
   84MOL0     C11013   6.048   1.725   2.588  0.1929  0.1707  0.4658
   84MOL0     O11014   6.163   1.669   2.549 -0.3152  0.3462 -0.4665
   84MOL0     C11015   6.155   1.542   2.480  0.0400  1.0607 -0.5643
   84MOL0     C11016   6.278   1.532   2.398  0.4662  0.3975 -0.1369
   84MOL0     C11017   6.290   1.649   2.293 -0.2118 -0.4220 -0.4641
   84MOL0     C11018   6.380   1.612   2.174  0.7196  0.3768 -0.9511
   84MOL0     C11019   6.517   1.583   2.220 -0.0925 -0.0298 -0.8383
   84MOL0     C11020   6.630   1.566   2.267  0.4255 -0.5251 -0.6653
   84MOL0     C11021   6.049   1.865   2.589  0.1527 -0.7391 -0.1481
   84MOL0     C11022   5.933   1.934   2.630 -0.2169  0.2534 -0.1175
   84MOL0     H11023   5.457   1.855   2.960  0.4474  0.8044 -0.0631
   84MOL0     H11024   5.228   1.967   3.021 -1.1260  0.0836  0.0493
   84MOL0     H11025   5.045   2.091   3.044 -0.4766  2.7808 -0.2366
   84MOL0     H11026   4.983   1.992   2.906  1.0194 -0.3189 -0.2968
   84MOL0     H11027   4.863   2.195   2.832  2.2491  2.6133  0.6997
   84MOL0     H11028   4.911   2.271   2.983  5.2067 -1.8253  0.9530
   84MOL0     H11029   4.789   2.091   3.120  1.1486  1.2762  0.6952
   84MOL0     H11030   4.745   2.005   2.972  0.4746 -0.5171  1.1123
   84MOL0     H11031   4.659   2.283   3.018  0.3039  0.3847  0.3347
   84MOL0     H11032   4.586   2.151   2.915  2.8811 -3.1323 -0.3010
   84MOL0     H11033   4.557   2.162   3.217 -0.1429  0.5454  0.2645
   84MOL0     H11034   4.524   2.019   3.129  1.1476  0.2961  0.5290
   84MOL0     H11035   4.425   2.310   3.050 -3.2873  0.2757 -1.5337
   84MOL0     H11036   4.349   2.224   3.181 -0.5069 -1.3956 -1.1750
   84MOL0     H11037   4.360   2.120   2.899 -1.2333 -3.0490 -0.5283
   84MOL0     H11038   4.256   2.045   3.017 -2.6760 -0.0746 -1.2070
   84MOL0     H11039   4.147   2.190   2.850 -1.0181  0.1787  1.3566
   84MOL0     H11040   4.223   2.331   2.923 -3.0306  1.4734 -0.6996
   84MOL0     H11041   4.122   2.431   3.168  1.4796 -1.6336  1.7221
   84MOL0     H11042   3.864   2.433   3.326  0.4322  1.5572 -1.0582
   84MOL0     H11043   3.735   2.431   3.200 -0.2861  1.0603 -2.0760
   84MOL0     H11044   3.901   2.619   3.095  0.2182  0.8148  0.6504
   84MOL0     H11045   3.943   2.635   3.269  0.0245 -1.2193  0.6535
   84MOL0     H11046   3.665   2.685   3.163  1.1461  0.7417 -0.2554
   84MOL0     H11047   3.703   2.653   3.332  1.2122 -2.5983 -1.0518
   84MOL0     H11048   3.804   2.886   3.139 -1.3556  2.4034 -0.0783
   84MOL0     H11049   3.871   2.856   3.297 -0.7394 -0.3603 -0.4843
   84MOL0     H11050   3.443   2.958   3.413 -0.7284 -1.8766 -0.5743
   84MOL0     H11051   3.248   3.077   3.306  0.3037  0.9657  0.3179
   84MOL0     H11052   3.088   3.418   3.018 -1.7817  2.6441 -1.4267
   84MOL0     H11053   2.883   3.535   2.977 -2.7494 -0.2001 -1.1861
   84MOL0     H11054   2.697   3.570   2.850 -0.4998  0.3633 -1.3363
   84MOL0     H11055   2.607   3.604   3.005  0.2527 -1.6541  1.8444
   84MOL0     H11056   2.482   3.463   2.767 -1.8010 -0.2326 -0.1299
   84MOL0     H11057   2.483   3.636   2.782  2.5999 -1.2613 -3.2912
   84MOL0     H11058   2.389   3.591   3.030  0.1567 -0.2531  0.0879
   84MOL0     H11059   2.381   3.420   2.982 -1.2880  0.8057  2.2374
   84MOL0     H11060   2.239   3.641   2.841  1.2052 -0.3776  0.0531
   84MOL0     H11061   2.230   3.468   2.804  1.1223 -2.7670  2.4574
   84MOL0     H11062   2.139   3.618   3.050 -4.4646 -1.1185  1.4819
   84MOL0     H11063   2.125   3.445   3.043 -0.5978  0.6580  0.8006
   84MOL0     H11064   1.986   3.461   2.831  1.3105  0.3358 -1.1203
   84MOL0     H11065   1.995   3.628   2.839 -0.6577  0.3878  0.0466
   84MOL0     H11066   1.878   3.459   3.068  0.6862  1.8606  0.6214
   84MOL0     H11067   1.870   3.629   3.049  0.8116  1.4057 -1.5330
   84MOL0     H11068   1.730   3.436   2.849  1.6413 -0.4308 -0.9303
   84MOL0     H11069   1.752   3.593   2.818 -1.6618 -2.1837 -1.0949
   84MOL0     H11070   2.660   3.166   3.072 -3.4950  4.0813 -0.3699
   84MOL0     H11071   2.870   3.061   3.129  1.9013  1.9760  4.1229
   84MOL0     H11072   3.483   3.141   2.963 -0.8589 -1.6103 -0.3571
   84MOL0     H11073   3.667   3.017   3.056  2.6082 -0.1357  3.4931
   84MOL0     H11074   5.249   2.165   2.635  0.8124 -0.6413 -1.0513
   84MOL0     H11075   5.461   2.047   2.588  1.7523 -1.1630  1.0589
   84MOL0     H11076   5.718   1.676   2.684  0.6297 -1.5839 -3.1822
   84MOL0     H11077   5.931   1.553   2.631  0.0075  0.6973  0.6103
   84MOL0     H11078   6.061   1.538   2.424 -0.9874 -1.8364  1.1420
   84MOL0     H11079   6.153   1.459   2.551 -1.3490  2.2185  0.8449
   84MOL0     H11080   6.362   1.545   2.467 -0.0632  0.3791  0.5195
   84MOL0     H11081   6.276   1.435   2.348  2.8913  0.7640 -1.0880
   84MOL0     H11082   6.326   1.746   2.331  1.2353 -1.4589  0.9298
   84MOL0     H11083   6.189   1.664   2.255  0.0268 -0.0903 -0.9896
   84MOL0     H11084   6.335   1.527   2.122 -1.4644  0.1128  1.1840
   84MOL0     H11085   6.387   1.695   2.104  2.2968  2.5212  1.5955
   84MOL0     H11086   6.732   1.541   2.288 -0.2863 -1.2268  2.3676
   84MOL0     H11087   6.140   1.921   2.569 -1.5044  1.8353 -0.9977
   84MOL0     H11088   5.916   2.041   2.636 -2.4949 -0.0650 -0.0202
   85MOL0     O11089   7.113   9.087   5.085  0.6974  0.7593  0.8527
   85MOL0     C11090   7.091   9.047   4.973 -1.0845  0.1319  0.4371
   85MOL0     O11091   6.983   8.961   4.938 -0.5054 -0.1098  0.3369
   85MOL0     C11092   6.902   8.929   5.041 -0.2942  0.6618  0.4353
   85MOL0     C11093   6.832   9.028   5.112  0.9219  0.7061 -0.1072
   85MOL0     C11094   6.756   9.010   5.220 -0.2016  1.3777  0.1295
   85MOL0     C11095   6.735   8.876   5.260 -0.3158 -0.5082 -0.6154
   85MOL0     O11096   6.650   8.846   5.368 -0.5601  0.1802 -0.3665
   85MOL0     C11097   6.552   8.934   5.422 -0.6083 -0.8675 -0.6215
   85MOL0     C11098   6.451   8.876   5.521  0.2430 -0.1838 -0.6375
   85MOL0     C11099   6.370   8.763   5.459  0.5836 -0.6068 -0.2212
   85MOL0     C11100   6.245   8.729   5.536 -0.1981 -0.0448 -0.3970
   85MOL0     C11101   6.189   8.589   5.506 -0.1705  0.5278 -0.9930
   85MOL0     C11102   6.092   8.540   5.623  0.2240  0.0074  0.2335
   85MOL0     C11103   5.949   8.595   5.600  0.6427 -0.1927  0.1644
   85MOL0     C11104   5.885   8.528   5.477  0.2317  0.0836  0.6117
   85MOL0     N11105   5.745   8.487   5.502  0.2362  0.6931 -0.1648
   85MOL0     C11106   5.636   8.574   5.510  0.1059  0.3872  0.4938
   85MOL0     C11107   5.535   8.501   5.560 -0.5905 -0.6068 -0.1108
   85MOL0     C11108   5.418   8.551   5.630  0.5246 -0.3345 -0.1771
   85MOL0     C11109   5.291   8.528   5.548 -0.2890 -0.1340  0.0211
   85MOL0     C11110   5.171   8.571   5.630  0.1716  1.2526 -0.3994
   85MOL0     C11111   5.036   8.564   5.570  0.3177 -0.4226 -0.4616
   85MOL0     O11112   4.974   8.431   5.560 -0.0434 -0.1370  1.0878
   85MOL0     C11113   4.838   8.430   5.534  0.2598  0.6840  0.2018
   85MOL0     C11114   4.762   8.550   5.508 -0.3177 -0.1694 -0.2668
   85MOL0     C11115   4.617   8.544   5.477  0.6314  0.5887 -0.7807
   85MOL0     C11116   4.552   8.421   5.481 -0.0593  0.2196  0.0747
   85MOL0     C11117   4.405   8.406   5.453 -0.4920  0.0837  0.5062
   85MOL0     O11118   4.352   8.510   5.382 -0.1477 -0.0789  0.5342
   85MOL0     C11119   4.222   8.504   5.360  0.5389 -0.8206 -0.2331
   85MOL0     C11120   4.126   8.535   5.464 -0.1032 -0.4482 -0.0429
   85MOL0     C11121   3.998   8.512   5.428  0.3470  0.9516 -1.0386
   85MOL0     C11122   3.956   8.459   5.302  0.7992  0.1376 -1.0577
   85MOL0     O11123   3.816   8.456   5.303 -0.1394 -0.1294 -0.2964
   85MOL0     C11124   3.757   8.447   5.173  0.7582 -0.0453  0.5733
   85MOL0     C11125   3.611   8.407   5.196  0.2981 -0.0484 -0.6058
   85MOL0     C11126   3.519   8.505   5.278  0.0352 -0.4884 -0.3685
   85MOL0     C11127   3.379   8.434   5.289 -0.0395  0.2929 -0.1798
   85MOL0     C11128   3.282   8.523   5.375 -0.4473  0.0309  0.3977
   85MOL0     C11129   3.150   8.463   5.403 -0.0301  0.5879  0.3184
   85MOL0     C11130   3.041   8.561   5.450  0.6680 -0.2146  0.9553
   85MOL0     C11131   2.926   8.486   5.499 -0.4813 -0.9604  0.1172
   85MOL0    Cl11132   2.771   8.578   5.527 -0.0230 -0.3305  0.0926
   85MOL0     C11133   4.044   8.428   5.207 -0.3967  0.4433 -0.4917
   85MOL0     C11134   4.178   8.455   5.236 -0.1547 -0.4646  0.5669
   85MOL0     O11135   4.340   8.305   5.487 -0.0084 -0.4003  0.7780
   85MOL0     C11136   4.619   8.302   5.503 -0.4351  0.9651 -0.1236
   85MOL0     C11137   4.759   8.310   5.527 -0.1578 -0.1683  0.0478
   85MOL0     N11138   5.583   8.375   5.584 -0.7512 -0.4348  0.2572
   85MOL0     N11139   5.706   8.368   5.538  0.6841  0.3611  0.4078
   85MOL0     C11140   6.810   8.772   5.192  0.1909  0.6119  0.1277
   85MOL0     C11141   6.890   8.795   5.084  0.2416 -1.1864  0.5024
   85MOL0     C11142   7.182   9.078   4.860  0.0119 -0.6151  0.5542
   85MOL0     C11143   7.306   9.137   4.888 -0.4483 -0.4305 -0.4962
   85MOL0     C11144   7.393   9.165   4.788 -0.1371  1.4243  0.2859
   85MOL0     C11145   7.356   9.144   4.650 -0.2548 -0.6749 -0.2129
   85MOL0     O11146   7.432   9.174   4.543 -0.1770 -0.2867  0.1751
   85MOL0     C11147   7.570   9.202   4.566  0.5292 -0.6207  0.2152
   85MOL0     C11148   7.661   9.092   4.587  0.0798 -0.5770 -0.5768
   85MOL0     C11149   7.620   8.974   4.499  0.1029  0.1261 -0.2745
   85MOL0     C11150   7.616   9.008   4.345  0.3420  0.7211 -0.2351
   85MOL0     C11151   7.742   9.066   4.299  0.7965 -0.5939  0.4407
   85MOL0     C11152   7.837   9.124   4.254  0.3328 -0.2688  0.5241
   85MOL0     C11153   7.227   9.099   4.622  0.0752 -0.3524  0.0889
   85MOL0     C11154   7.136   9.065   4.724 -0.0962  0.1866  0.0193
   85MOL0     H11155   6.843   9.130   5.077 -0.1746  0.3469 -1.5655
   85MOL0     H11156   6.701   9.095   5.259 -2.6740  0.2834 -0.7354
   85MOL0     H11157   6.493   8.982   5.344 -0.9217  1.7964  1.1359
   85MOL0     H11158   6.596   9.018   5.477 -4.2150  0.1269  1.0623
   85MOL0     H11159   6.382   8.953   5.556  0.1700 -1.2910  1.9351
   85MOL0     H11160   6.508   8.837   5.606  0.9502  2.2640  0.0838
   85MOL0     H11161   6.430   8.675   5.434  0.3604 -0.7555 -0.2370
   85MOL0     H11162   6.342   8.805   5.362  1.0643 -0.6236 -0.3691
   85MOL0     H11163   6.276   8.742   5.640 -0.9425 -1.6601  0.0536
   85MOL0     H11164   6.171   8.807   5.518 -0.4692 -0.8024 -3.1035
   85MOL0     H11165   6.271   8.519   5.492 -1.8049 -1.3111 -1.8098
   85MOL0     H11166   6.126   8.584   5.416 -0.3074 -1.5975 -0.8275
   85MOL0     H11167   6.110   8.561   5.729 -2.7993 -0.9903  1.0646
   85MOL0     H11168   6.079   8.431   5.614 -1.2102  0.0993  0.8908
   85MOL0     H11169   5.880   8.578   5.683 -0.1182 -0.2462 -0.4729
   85MOL0     H11170   5.963   8.699   5.569  2.6527 -0.8297 -1.2821
   85MOL0     H11171   5.945   8.441   5.452  1.2528  1.2328 -1.1350
   85MOL0     H11172   5.886   8.600   5.395 -0.2715 -1.7782 -1.1021
   85MOL0     H11173   5.627   8.681   5.490 -2.5907  0.0840 -0.2883
   85MOL0     H11174   5.430   8.659   5.644  0.3048 -0.3511  0.1544
   85MOL0     H11175   5.411   8.510   5.731  0.7302  3.7135  1.6530
   85MOL0     H11176   5.278   8.422   5.524 -0.0678 -0.4256  1.1082
   85MOL0     H11177   5.279   8.575   5.450 -2.7334 -2.2351 -0.7979
   85MOL0     H11178   5.165   8.515   5.724 -1.2805  2.1073  0.0427
   85MOL0     H11179   5.187   8.678   5.643  2.2855  1.1729 -1.8091
   85MOL0     H11180   5.048   8.609   5.471  1.9443 -0.8648 -0.4949
   85MOL0     H11181   4.974   8.627   5.634  0.9602  0.6266 -0.8522
   85MOL0     H11182   4.802   8.651   5.507 -0.3672 -0.1489 -0.2343
   85MOL0     H11183   4.554   8.631   5.460  1.5540  1.3299 -0.5031
   85MOL0     H11184   4.157   8.568   5.563  0.7069 -1.2829 -0.0064
   85MOL0     H11185   3.915   8.527   5.497  1.0140 -0.9458  0.2855
   85MOL0     H11186   3.805   8.375   5.106  0.6611 -1.8281  2.3277
   85MOL0     H11187   3.772   8.544   5.125 -2.8257  0.4413  0.1690
   85MOL0     H11188   3.609   8.304   5.232  0.7550  0.6363  1.5150
   85MOL0     H11189   3.555   8.402   5.103  0.4223 -1.1186 -0.6336
   85MOL0     H11190   3.504   8.601   5.228 -1.7327  0.7830  2.3573
   85MOL0     H11191   3.559   8.513   5.379  0.2348 -1.4209 -0.3643
   85MOL0     H11192   3.332   8.404   5.195 -0.4526 -0.3989  0.2413
   85MOL0     H11193   3.403   8.338   5.337 -0.2616 -0.5538 -1.7180
   85MOL0     H11194   3.270   8.616   5.319  0.1930  1.9679  3.2689
   85MOL0     H11195   3.336   8.539   5.469 -0.7265  1.5050  0.3203
   85MOL0     H11196   3.171   8.383   5.475  0.1743  0.5646  0.2324
   85MOL0     H11197   3.116   8.424   5.306 -0.7965 -0.6394  1.0504
   85MOL0     H11198   3.061   8.626   5.535 -4.9309  2.2020  0.8072
   85MOL0     H11199   3.013   8.628   5.368  4.3715  0.4635  0.0165
   85MOL0     H11200   2.959   8.432   5.588 -1.9388 -1.9601  0.1005
   85MOL0     H11201   2.896   8.408   5.428 -0.7476 -0.1885 -0.6249
   85MOL0     H11202   4.008   8.375   5.119 -1.3665 -0.8094  0.6150
   85MOL0     H11203   4.255   8.427   5.165  2.0193  0.8348  2.2703
   85MOL0     H11204   4.562   8.210   5.513 -1.0705  1.4729  1.2503
   85MOL0     H11205   4.808   8.216   5.551  0.6568  0.2269 -0.0379
   85MOL0     H11206   6.790   8.670   5.222  3.1312 -0.6217 -1.6069
   85MOL0     H11207   6.939   8.715   5.030 -1.9833 -0.3909 -3.0129
   85MOL0     H11208   7.339   9.150   4.991  2.5058 -3.8130 -0.7888
   85MOL0     H11209   7.492   9.191   4.824  0.0003  1.6361 -0.2346
   85MOL0     H11210   7.579   9.273   4.650  1.1201  0.9784 -1.1355
   85MOL0     H11211   7.608   9.261   4.482  0.3422  0.6099  0.9610
   85MOL0     H11212   7.759   9.129   4.555 -1.0262  2.1770 -1.0578
   85MOL0     H11213   7.656   9.068   4.693  2.6323  1.8807  0.2164
   85MOL0     H11214   7.522   8.933   4.525 -0.3066 -1.1390 -3.3303
   85MOL0     H11215   7.695   8.896   4.512 -0.8197 -0.5073  1.7138
   85MOL0     H11216   7.598   8.911   4.297 -1.4534  1.6862 -1.6191
   85MOL0     H11217   7.522   9.062   4.337 -2.5479 -2.9082  4.0579
   85MOL0     H11218   7.915   9.164   4.193 -1.2984  1.7092 -0.4106
   85MOL0     H11219   7.197   9.093   4.518  0.9860 -2.3891 -0.0990
   85MOL0     H11220   7.042   9.025   4.687  1.1940  1.1320 -5.0801
   86MOL0     O11221   4.924  10.519   7.018  0.4122  0.3721  0.5911
   86MOL0     C11222   5.018  10.571   7.067 -0.0080 -0.1980  0.3602
   86MOL0     O11223   5.043  10.708   7.060  0.2432 -0.3713 -0.0475
   86MOL0     C11224   4.952  10.801   7.022 -0.1661  0.6894  0.6403
   86MOL0     C11225   4.814  10.790   7.071  0.4913 -0.5315  0.1851
   86MOL0     C11226   4.718  10.889   7.032 -0.1346  1.4085  0.4031
   86MOL0     C11227   4.748  10.978   6.929 -0.3106 -0.0501  0.3550
   86MOL0     O11228   4.666  11.068   6.861 -0.1638 -0.6605 -0.2493
   86MOL0     C11229   4.538  11.087   6.906 -0.0723 -0.8437 -0.5843
   86MOL0     C11230   4.468  11.201   6.821  0.3657  0.1219  0.1854
   86MOL0     C11231   4.315  11.187   6.826 -0.1277 -0.7910  0.0167
   86MOL0     C11232   4.250  11.280   6.722 -0.0713 -0.3225  1.0707
   86MOL0     C11233   4.091  11.289   6.732 -0.0660 -0.6027  0.8392
   86MOL0     C11234   4.008  11.284   6.604 -1.1860  0.1136  0.2240
   86MOL0     C11235   3.863  11.276   6.617  0.1845 -0.4180  0.3528
   86MOL0     C11236   3.794  11.264   6.476  0.0934 -1.1051  0.1066
   86MOL0     N11237   3.650  11.309   6.464  0.0492 -0.2379 -0.2142
   86MOL0     C11238   3.611  11.437   6.496 -0.6467  0.6093  0.4697
   86MOL0     C11239   3.475  11.421   6.509  0.5914 -0.1446  0.0486
   86MOL0     C11240   3.373  11.527   6.520 -0.0348 -0.0238 -0.2582
   86MOL0     C11241   3.358  11.601   6.391 -0.0307  0.0155  0.8295
   86MOL0     C11242   3.225  11.594   6.323 -0.8169  0.0455 -0.9804
   86MOL0     C11243   3.113  11.634   6.419  0.1675  0.0606  0.6362
   86MOL0     O11244   2.988  11.631   6.347 -0.8883 -0.1139  0.3877
   86MOL0     C11245   2.873  11.659   6.410 -0.2742  0.1264 -0.0217
   86MOL0     C11246   2.858  11.733   6.522  0.1749 -0.2921  1.0649
   86MOL0     C11247   2.731  11.750   6.584 -0.1274 -0.2114 -0.3315
   86MOL0     C11248   2.615  11.690   6.516 -0.1614  0.4659 -0.7967
   86MOL0     C11249   2.488  11.695   6.589 -0.2225  0.4633 -0.3058
   86MOL0     O11250   2.454  11.808   6.651 -0.5235  0.4368  0.8186
   86MOL0     C11251   2.345  11.804   6.734 -0.1685  0.2391  0.3023
   86MOL0     C11252   2.311  11.700   6.825 -0.4989 -0.1472  0.5042
   86MOL0     C11253   2.197  11.707   6.905 -0.3206  0.7690 -0.6105
   86MOL0     C11254   2.108  11.812   6.892  0.2962  0.8010  0.0966
   86MOL0     O11255   2.001  11.812   6.981  0.7279 -0.5735 -0.1253
   86MOL0     C11256   1.965  11.934   7.050 -0.4599 -0.3564  0.1080
   86MOL0     C11257   1.832  11.917   7.120  0.0427 -0.4044 -0.3686
   86MOL0     C11258   1.772  12.042   7.171  0.0805  1.1835  0.4857
   86MOL0     C11259   1.871  12.133   7.245 -0.1841  0.2103 -0.1379
   86MOL0     C11260   1.797  12.232   7.337 -0.0578  0.6547  0.5319
   86MOL0     C11261   1.897  12.336   7.394  0.3120 -0.3913 -0.5670
   86MOL0     C11262   1.824  12.450   7.472  0.0539  0.1679 -0.5977
   86MOL0     C11263   1.733  12.400   7.590 -0.5100  0.2129 -0.3101
   86MOL0    Cl11264   1.668  12.538   7.681  0.1847  0.3509  0.2288
   86MOL0     C11265   2.133  11.912   6.800  0.4305  0.1733  0.2178
   86MOL0     C11266   2.252  11.912   6.720  0.0940  1.1837  0.1019
   86MOL0     O11267   2.423  11.593   6.579  0.3191  0.0865 -0.7087
   86MOL0     C11268   2.632  11.617   6.393 -0.1891 -0.3223 -0.6900
   86MOL0     C11269   2.758  11.614   6.338  0.3631  0.5463  1.2069
   86MOL0     N11270   3.450  11.285   6.504 -0.0879 -0.0786  0.4914
   86MOL0     N11271   3.554  11.218   6.470 -0.1118  0.5194  0.1159
   86MOL0     C11272   4.877  10.990   6.888 -0.9181 -0.3448 -0.2714
   86MOL0     C11273   4.979  10.906   6.938 -0.2881  0.0615  0.1844
   86MOL0     C11274   5.117  10.493   7.133  0.2535 -0.8691 -0.7191
   86MOL0     C11275   5.122  10.348   7.130 -0.0830 -0.0098 -0.5146
   86MOL0     C11276   5.227  10.273   7.186 -0.6945  0.2012 -0.8006
   86MOL0     C11277   5.329  10.347   7.263 -0.0272  1.0056 -0.3126
   86MOL0     O11278   5.431  10.279   7.329  0.1912 -0.4185  0.6911
   86MOL0     C11279   5.498  10.336   7.443  0.2526  0.1628  0.0721
   86MOL0     C11280   5.604  10.240   7.500  0.1381  0.5023  0.0951
   86MOL0     C11281   5.692  10.317   7.594 -0.1690 -1.3088  0.5049
   86MOL0     C11282   5.818  10.247   7.626  0.3491  0.3167 -0.0174
   86MOL0     C11283   5.798  10.160   7.744  0.1961 -0.0578  0.1352
   86MOL0     C11284   5.789  10.091   7.849  0.3849  0.1983  0.8843
   86MOL0     C11285   5.312  10.488   7.269  0.1829 -0.6188 -0.0995
   86MOL0     C11286   5.211  10.562   7.209  0.3288  0.3646  0.5642
   86MOL0     H11287   4.779  10.726   7.152 -2.7659  1.6268  0.6515
   86MOL0     H11288   4.617  10.883   7.072 -1.1590  1.3376 -2.0148
   86MOL0     H11289   4.544  11.116   7.012  0.3325 -2.0337 -0.2624
   86MOL0     H11290   4.474  11.000   6.891  0.0050 -1.3441  1.5955
   86MOL0     H11291   4.505  11.182   6.720  0.7762  3.9577 -0.5363
   86MOL0     H11292   4.511  11.294   6.857  0.3713  0.3740 -0.4531
   86MOL0     H11293   4.278  11.206   6.927 -0.6745 -1.3877 -0.0707
   86MOL0     H11294   4.282  11.084   6.809  1.8306 -1.4964  0.1813
   86MOL0     H11295   4.297  11.378   6.736  1.0529 -0.9749  2.0168
   86MOL0     H11296   4.276  11.248   6.620 -3.0212  0.4722 -0.0549
   86MOL0     H11297   4.058  11.376   6.789  1.7723  2.5642 -2.5081
   86MOL0     H11298   4.062  11.199   6.788  0.4947 -1.0757  0.3815
   86MOL0     H11299   4.050  11.198   6.551  2.2975  0.9236  1.4587
   86MOL0     H11300   4.023  11.367   6.535 -2.7868 -2.5255 -3.6768
   86MOL0     H11301   3.826  11.187   6.669 -2.6305 -0.1590 -1.0144
   86MOL0     H11302   3.821  11.364   6.667 -0.5672 -0.8075  0.4220
   86MOL0     H11303   3.799  11.161   6.438 -2.1695 -0.4411 -2.1893
   86MOL0     H11304   3.854  11.331   6.413  1.1624  0.6994  2.8691
   86MOL0     H11305   3.670  11.528   6.498  0.0248  0.1966 -0.2144
   86MOL0     H11306   3.419  11.593   6.594 -0.5890  3.0212 -2.4741
   86MOL0     H11307   3.278  11.496   6.564  0.3977  0.2090  0.8743
   86MOL0     H11308   3.431  11.566   6.317 -0.5483  2.7221 -1.0961
   86MOL0     H11309   3.390  11.703   6.411 -0.0803 -0.0697  1.3474
   86MOL0     H11310   3.229  11.673   6.248  0.4442  0.0462 -0.9339
   86MOL0     H11311   3.201  11.495   6.282  0.2312 -0.8244  0.4008
   86MOL0     H11312   3.140  11.722   6.479 -1.4460  1.3734 -0.4786
   86MOL0     H11313   3.088  11.553   6.488  1.4872  0.8476  2.1168
   86MOL0     H11314   2.944  11.778   6.571  0.8118  0.5463 -0.7285
   86MOL0     H11315   2.711  11.809   6.672  1.8093 -1.0092  0.6959
   86MOL0     H11316   2.372  11.612   6.841  0.3337  0.0859 -1.1507
   86MOL0     H11317   2.166  11.623   6.966  0.9603 -0.1999 -1.2365
   86MOL0     H11318   1.949  12.011   6.974 -0.7515 -0.7200 -0.2055
   86MOL0     H11319   2.040  11.963   7.123 -0.8344  0.9544 -0.0016
   86MOL0     H11320   1.855  11.863   7.212 -1.9747  0.6796  0.8486
   86MOL0     H11321   1.758  11.867   7.056 -0.5879 -0.0341  0.0625
   86MOL0     H11322   1.697  12.017   7.247  0.7178 -1.0553  0.4223
   86MOL0     H11323   1.708  12.081   7.091 -0.8746 -2.3702 -0.6485
   86MOL0     H11324   1.940  12.074   7.306  0.6456  2.7524  1.5269
   86MOL0     H11325   1.931  12.176   7.165 -0.4539 -2.3432 -1.8546
   86MOL0     H11326   1.744  12.183   7.419  0.7894 -0.9856  0.1505
   86MOL0     H11327   1.724  12.275   7.267  0.3199 -1.2387 -1.1295
   86MOL0     H11328   1.955  12.385   7.316  0.3896  0.0549 -0.2311
   86MOL0     H11329   1.964  12.287   7.465 -0.2886 -1.1375 -0.4995
   86MOL0     H11330   1.894  12.518   7.522 -0.5445  0.5062 -0.2177
   86MOL0     H11331   1.770  12.510   7.398 -3.1299 -0.3103  1.2004
   86MOL0     H11332   1.797  12.340   7.656 -0.7585 -0.4620 -0.6757
   86MOL0     H11333   1.655  12.340   7.542 -0.1721 -0.1731 -0.3819
   86MOL0     H11334   2.057  11.987   6.779  0.2083 -0.5674 -1.8430
   86MOL0     H11335   2.275  11.995   6.654  2.3907 -0.2171 -0.9953
   86MOL0     H11336   2.543  11.576   6.347 -1.0316 -1.7982  2.0031
   86MOL0     H11337   2.771  11.566   6.241  2.4731 -0.1280  1.7486
   86MOL0     H11338   4.906  11.057   6.809  1.2348 -1.3409 -0.4019
   86MOL0     H11339   5.084  10.914   6.913 -0.5371  3.3391 -0.2010
   86MOL0     H11340   5.054  10.284   7.075  3.1457 -4.0288 -0.3838
   86MOL0     H11341   5.243  10.166   7.189  2.6348  0.6295  0.9255
   86MOL0     H11342   5.427  10.351   7.525 -0.6138 -2.5093 -0.1112
   86MOL0     H11343   5.544  10.429   7.406 -0.4653 -0.3358 -2.2592
   86MOL0     H11344   5.555  10.164   7.562  1.7840 -1.4081 -0.8223
   86MOL0     H11345   5.669  10.186   7.430 -0.6970 -2.0675  1.1944
   86MOL0     H11346   5.638  10.342   7.685  0.5907  1.3351  0.3154
   86MOL0     H11347   5.723  10.414   7.555 -2.5587 -0.4106  0.7079
   86MOL0     H11348   5.837  10.178   7.544 -1.2714  0.2259 -0.3369
   86MOL0     H11349   5.900  10.313   7.656 -0.3662  0.0708  2.8573
   86MOL0     H11350   5.775  10.039   7.941 -0.4560  0.1214  0.7200
   86MOL0     H11351   5.384  10.540   7.331 -0.7087 -0.3354  0.7092
   86MOL0     H11352   5.210  10.670   7.207  3.7271  0.5159 -1.5642
   87MOL0     O11353   7.376   5.624   0.070 -0.2047 -0.2342  0.2152
   87MOL0     C11354   7.364   5.532  -0.010 -1.0526 -0.2823 -0.3602
   87MOL0     O11355   7.249   5.475  -0.050  0.0953 -1.0169  0.6281
   87MOL0     C11356   7.133   5.533  -0.014  0.2370 -1.3829  0.4349
   87MOL0     C11357   7.097   5.659  -0.069  0.7106  0.4530 -0.0532
   87MOL0     C11358   6.968   5.705  -0.055 -0.3403  0.3756 -0.3345
   87MOL0     C11359   6.874   5.616   0.014 -0.4593  0.8937  0.5815
   87MOL0     O11360   6.743   5.653   0.042  0.3365 -0.2922 -0.9440
   87MOL0     C11361   6.689   5.776  -0.008  0.1444  0.6519 -0.3081
   87MOL0     C11362   6.536   5.789   0.013 -0.0765  0.3229 -0.5175
   87MOL0     C11363   6.460   5.922  -0.026  0.4988  0.3352  0.5290
   87MOL0     C11364   6.319   5.898   0.015 -0.1271 -0.1344  0.4737
   87MOL0     C11365   6.294   5.885   0.169 -0.1721 -0.3593 -0.1746
   87MOL0     C11366   6.162   5.933   0.231  0.0743 -0.2118 -0.3809
   87MOL0     C11367   6.114   6.073   0.206 -0.5854  0.3260 -0.5204
   87MOL0     C11368   5.999   6.101   0.303 -0.4368  0.6316 -0.0977
   87MOL0     N11369   5.963   6.239   0.287 -0.0320 -0.4000  0.2699
   87MOL0     C11370   5.855   6.286   0.214 -1.4346 -0.2455  1.5398
   87MOL0     C11371   5.856   6.421   0.234  0.1818  0.1627  0.8879
   87MOL0     C11372   5.746   6.511   0.181  0.4508  0.3233 -0.2387
   87MOL0     C11373   5.758   6.657   0.220 -0.7660 -0.4891 -0.6657
   87MOL0     C11374   5.717   6.677   0.373  0.2901 -0.2854  0.2809
   87MOL0     C11375   5.755   6.819   0.415  0.1638 -0.2396 -0.7910
   87MOL0     O11376   5.699   6.916   0.324 -0.4689 -0.5558 -0.1205
   87MOL0     C11377   5.591   6.993   0.369 -0.1948 -0.3729  0.3927
   87MOL0     C11378   5.553   7.005   0.505  0.0445  0.0800 -0.1842
   87MOL0     C11379   5.439   7.081   0.534  0.2224 -0.9269  0.7890
   87MOL0     C11380   5.359   7.129   0.426 -0.8856 -0.8317 -0.0828
   87MOL0     C11381   5.242   7.212   0.458  0.0297 -0.3889 -0.2441
   87MOL0     O11382   5.206   7.308   0.374 -0.8269 -0.0858 -0.1553
   87MOL0     C11383   5.099   7.394   0.403 -0.2152 -0.5575 -0.2953
   87MOL0     C11384   4.971   7.359   0.425  0.7331  0.1733  0.3926
   87MOL0     C11385   4.863   7.445   0.405  0.2176 -0.3941  1.5061
   87MOL0     C11386   4.892   7.582   0.390 -0.2711 -0.0306  0.5953
   87MOL0     O11387   4.804   7.684   0.370  0.0280 -0.2437  0.0721
   87MOL0     C11388   4.670   7.659   0.406 -0.0545 -0.7758 -0.0053
   87MOL0     C11389   4.589   7.788   0.378 -0.2358  0.5196  0.5693
   87MOL0     C11390   4.630   7.895   0.477 -0.4269  0.5906  1.1767
   87MOL0     C11391   4.560   8.028   0.434  0.3059  0.8995 -0.1111
   87MOL0     C11392   4.600   8.139   0.523 -0.6984  0.2054 -0.3851
   87MOL0     C11393   4.496   8.253   0.509  0.5123 -0.5579 -0.4602
   87MOL0     C11394   4.506   8.358   0.620  0.1658  0.0148 -0.4306
   87MOL0     C11395   4.649   8.412   0.646  0.0840  0.3535 -0.7002
   87MOL0    Cl11396   4.690   8.486   0.487  0.1988 -0.2467 -0.2896
   87MOL0     C11397   5.025   7.620   0.382  0.7905 -0.3017 -0.2627
   87MOL0     C11398   5.123   7.527   0.375 -0.3977 -0.8493 -0.1750
   87MOL0     O11399   5.179   7.179   0.557 -0.4148  0.3235 -0.4021
   87MOL0     C11400   5.391   7.114   0.296 -0.4529 -0.9607 -0.2963
   87MOL0     C11401   5.510   7.042   0.269  0.1655 -0.0023 -0.7438
   87MOL0     N11402   5.951   6.450   0.329  1.2317 -0.9059  0.2329
   87MOL0     N11403   6.022   6.347   0.347 -0.2358 -0.5596  0.2955
   87MOL0     C11404   6.912   5.494   0.070  0.5372 -0.4945 -0.0151
   87MOL0     C11405   7.038   5.459   0.066 -1.1128  0.7225  0.1227
   87MOL0     C11406   7.487   5.469  -0.069  0.1237 -0.0167 -0.0054
   87MOL0     C11407   7.489   5.386  -0.179 -0.3379  0.2748  0.6721
   87MOL0     C11408   7.606   5.323  -0.227 -0.7910  0.0661  1.3024
   87MOL0     C11409   7.722   5.352  -0.169 -0.8224 -0.1339  0.1256
   87MOL0     O11410   7.834   5.295  -0.228  0.4529  0.7383 -0.2661
   87MOL0     C11411   7.964   5.321  -0.172  0.0555 -0.6487 -0.1900
   87MOL0     C11412   8.069   5.273  -0.282  0.2139  0.0659  0.0903
   87MOL0     C11413   8.216   5.256  -0.236  0.7544  0.0141 -0.5452
   87MOL0     C11414   8.295   5.384  -0.197  0.3111 -0.7598  1.0283
   87MOL0     C11415   8.431   5.341  -0.177  0.6520 -0.7701 -0.9021
   87MOL0     C11416   8.549   5.329  -0.146  0.0613  0.6509 -0.9454
   87MOL0     C11417   7.730   5.439  -0.057  0.3951  0.4366  0.2901
   87MOL0     C11418   7.612   5.496  -0.009 -0.4292 -0.0923  0.3551
   87MOL0     H11419   7.166   5.715  -0.131  1.2484 -0.6020 -0.4505
   87MOL0     H11420   6.940   5.797  -0.106  0.7345  0.5921 -0.5697
   87MOL0     H11421   6.721   5.790  -0.112  0.7496  0.8784 -0.1006
   87MOL0     H11422   6.739   5.850   0.056 -1.9404  1.6802  0.1915
   87MOL0     H11423   6.523   5.780   0.121 -1.3112  3.3913 -0.3046
   87MOL0     H11424   6.491   5.700  -0.031  0.5768  0.1417 -0.8376
   87MOL0     H11425   6.481   5.944  -0.131  2.2710  0.3170  0.8356
   87MOL0     H11426   6.496   6.005   0.035 -1.0586  2.4123 -1.2644
   87MOL0     H11427   6.256   5.977  -0.027 -3.4055 -2.6463  0.2193
   87MOL0     H11428   6.278   5.808  -0.034 -1.8701  0.7743  0.1791
   87MOL0     H11429   6.375   5.939   0.219 -0.3790 -0.3537  0.1551
   87MOL0     H11430   6.295   5.779   0.195 -0.2891 -0.6986 -1.4717
   87MOL0     H11431   6.173   5.908   0.337  0.5422  0.0487 -0.3625
   87MOL0     H11432   6.084   5.868   0.189  0.4613 -1.2174  0.4268
   87MOL0     H11433   6.202   6.134   0.230  0.5357 -1.4786  0.1206
   87MOL0     H11434   6.082   6.092   0.103 -1.4783 -2.2896 -0.7872
   87MOL0     H11435   6.033   6.095   0.407  1.0453  1.8152 -0.4710
   87MOL0     H11436   5.912   6.036   0.294  0.2030 -0.5413  1.5718
   87MOL0     H11437   5.793   6.229   0.145  0.9483 -1.3576  0.1745
   87MOL0     H11438   5.651   6.468   0.216  1.5054 -0.6893  1.5291
   87MOL0     H11439   5.753   6.504   0.072  0.8500 -0.0801 -0.1883
   87MOL0     H11440   5.698   6.717   0.151 -1.9551 -2.0280 -1.0351
   87MOL0     H11441   5.862   6.688   0.213 -0.7936 -0.7431 -2.6586
   87MOL0     H11442   5.609   6.659   0.384  0.7801 -2.0472  4.0101
   87MOL0     H11443   5.775   6.608   0.435 -0.5364 -0.3004  1.0630
   87MOL0     H11444   5.863   6.837   0.408  0.7696 -1.6676  2.8180
   87MOL0     H11445   5.729   6.830   0.520  3.0628 -1.2362  0.1407
   87MOL0     H11446   5.616   6.971   0.587 -0.1609 -0.6963 -0.3419
   87MOL0     H11447   5.411   7.105   0.636  2.7047  2.0540  0.9557
   87MOL0     H11448   4.967   7.250   0.427  0.3264  0.1267 -1.3208
   87MOL0     H11449   4.761   7.407   0.408  0.9748 -2.5501  1.2674
   87MOL0     H11450   4.663   7.632   0.511 -0.1289 -0.0046  0.1952
   87MOL0     H11451   4.637   7.568   0.355 -1.2772 -1.9467  2.6797
   87MOL0     H11452   4.480   7.780   0.387 -0.0338 -1.6785  1.9040
   87MOL0     H11453   4.606   7.815   0.274 -3.3290  0.1052 -0.1441
   87MOL0     H11454   4.738   7.903   0.468 -0.2555 -0.3102  2.3136
   87MOL0     H11455   4.608   7.869   0.581 -1.2937 -1.3768  0.5560
   87MOL0     H11456   4.594   8.042   0.331  2.4783 -0.5256  0.3554
   87MOL0     H11457   4.450   8.027   0.434  0.2941  1.5368  0.0325
   87MOL0     H11458   4.699   8.176   0.498 -1.7864  3.6178 -0.0964
   87MOL0     H11459   4.612   8.106   0.626 -1.3759 -1.3526 -0.7653
   87MOL0     H11460   4.397   8.206   0.510  1.6248 -3.1110 -1.9843
   87MOL0     H11461   4.496   8.296   0.408  3.2087 -0.0142 -0.2926
   87MOL0     H11462   4.446   8.446   0.596 -1.2841 -0.2593  1.8208
   87MOL0     H11463   4.455   8.320   0.710 -0.0361  3.8444  1.2472
   87MOL0     H11464   4.719   8.337   0.683 -0.6100  1.1450  2.5413
   87MOL0     H11465   4.654   8.482   0.730 -0.2160 -0.3499 -0.0786
   87MOL0     H11466   5.032   7.726   0.362  0.6427 -0.0297  1.0729
   87MOL0     H11467   5.226   7.549   0.348 -0.5822  0.5880  0.2118
   87MOL0     H11468   5.337   7.155   0.211  0.0664  1.0959  0.3075
   87MOL0     H11469   5.547   7.014   0.171  0.4141 -1.4882 -0.2514
   87MOL0     H11470   6.848   5.437   0.137  0.1544  0.6354  0.6203
   87MOL0     H11471   7.084   5.363   0.086  1.0942  0.6339 -4.2407
   87MOL0     H11472   7.391   5.365  -0.220  0.9343  0.4905 -2.8759
   87MOL0     H11473   7.611   5.247  -0.305  1.1514 -0.1388  1.5742
   87MOL0     H11474   7.976   5.264  -0.079 -1.7400 -0.4548  0.2007
   87MOL0     H11475   7.972   5.428  -0.152  2.4588 -0.5121 -1.6027
   87MOL0     H11476   8.036   5.176  -0.321 -0.1324 -0.1903  0.9984
   87MOL0     H11477   8.068   5.336  -0.372  1.7310  0.5854  0.4046
   87MOL0     H11478   8.256   5.224  -0.333 -1.3151 -3.4876 -0.4192
   87MOL0     H11479   8.232   5.173  -0.166 -0.1693 -0.8343 -1.3038
   87MOL0     H11480   8.301   5.443  -0.289  3.6097 -2.7939 -0.2476
   87MOL0     H11481   8.255   5.445  -0.116 -0.2172  3.1823 -1.9029
   87MOL0     H11482   8.655   5.319  -0.132  0.3193  2.3047 -1.5318
   87MOL0     H11483   7.826   5.463  -0.013  0.8704 -0.7919 -0.0292
   87MOL0     H11484   7.604   5.559   0.079 -3.6518 -0.8436  0.7255
   88MOL0     O11485   0.932  10.620   9.304 -0.8303 -0.0849  0.3904
   88MOL0     C11486   1.027  10.542   9.296 -0.1142 -1.0061  0.6474
   88MOL0     O11487   1.025  10.413   9.255  0.5336 -0.0718  0.3621
   88MOL0     C11488   0.910  10.338   9.256 -1.0457 -0.1103  0.3999
   88MOL0     C11489   0.894  10.249   9.144  0.6293  0.1062  0.1728
   88MOL0     C11490   0.777  10.173   9.134  0.0865 -0.0239 -0.4492
   88MOL0     C11491   0.679  10.191   9.237  0.4680 -0.3504  0.1114
   88MOL0     O11492   0.573  10.112   9.244  0.2251 -0.9380 -0.5158
   88MOL0     C11493   0.445  10.173   9.261 -0.2648  0.0923 -0.5291
   88MOL0     C11494   0.334  10.074   9.251  0.9218 -0.3729  0.0717
   88MOL0     C11495   0.195  10.121   9.288  0.1934 -0.4065 -1.0385
   88MOL0     C11496   0.179  10.151   9.437  0.2721  0.0587 -0.7495
   88MOL0     C11497   0.075  10.266   9.463 -0.4494 -0.5910  0.0947
   88MOL0     C11498  -0.048  10.267   9.385  0.2069 -0.6077  0.3333
   88MOL0     C11499  -0.149  10.152   9.409  0.4886  0.1252 -0.3487
   88MOL0     C11500  -0.276  10.154   9.322  0.0659  0.1248  0.0149
   88MOL0     N11501  -0.364  10.036   9.322 -0.0569  0.5419  0.0925
   88MOL0     C11502  -0.416   9.969   9.218  0.2832 -0.0287  0.5191
   88MOL0     C11503  -0.487   9.869   9.279 -0.8881 -0.1396  1.0851
   88MOL0     C11504  -0.565   9.754   9.220  0.1847 -0.3236  0.0516
   88MOL0     C11505  -0.707   9.774   9.256  0.4438 -0.3762 -1.1059
   88MOL0     C11506  -0.789   9.672   9.174 -0.0323 -0.3675  0.5513
   88MOL0     C11507  -0.937   9.679   9.209 -0.6646  0.0800  0.2731
   88MOL0     O11508  -1.006   9.568   9.161  0.1983  0.0820 -0.7374
   88MOL0     C11509  -1.142   9.570   9.168  0.4841  0.2273  0.1555
   88MOL0     C11510  -1.216   9.686   9.191 -0.1415  0.3588 -0.1468
   88MOL0     C11511  -1.354   9.685   9.204 -0.4279  0.4723  0.2300
   88MOL0     C11512  -1.429   9.569   9.188 -0.1818 -0.0059 -0.3616
   88MOL0     C11513  -1.580   9.569   9.191  0.0957 -0.1517 -0.1285
   88MOL0     O11514  -1.646   9.456   9.228 -0.1870 -0.1280 -0.6377
   88MOL0     C11515  -1.779   9.456   9.205  0.1831 -0.0647  0.1177
   88MOL0     C11516  -1.864   9.521   9.299 -0.0030  0.7122  0.1587
   88MOL0     C11517  -2.002   9.544   9.265 -0.7024  0.0502  0.4955
   88MOL0     C11518  -2.056   9.479   9.156  0.2159 -0.0472  0.0496
   88MOL0     O11519  -2.188   9.486   9.114  0.2876 -0.0953  0.6338
   88MOL0     C11520  -2.231   9.621   9.067  0.0195 -0.1574  0.4611
   88MOL0     C11521  -2.383   9.635   9.049 -0.6718  0.2820 -1.0690
   88MOL0     C11522  -2.417   9.774   8.992  0.2988  0.7608 -0.3772
   88MOL0     C11523  -2.564   9.786   8.992  0.9534  0.1777 -0.5193
   88MOL0     C11524  -2.615   9.898   8.902  0.2643  0.0566 -0.4874
   88MOL0     C11525  -2.762   9.889   8.889  0.7672  0.5221  0.8667
   88MOL0     C11526  -2.815  10.004   8.806 -0.9381 -0.3752  0.4860
   88MOL0     C11527  -2.953   9.974   8.757  0.1756  0.0999  0.6939
   88MOL0    Cl11528  -2.997  10.089   8.613  0.0716 -0.1436 -0.0064
   88MOL0     C11529  -1.971   9.407   9.068  0.0766  0.3189  0.1619
   88MOL0     C11530  -1.832   9.404   9.087  0.0175 -0.0493 -1.0735
   88MOL0     O11531  -1.636   9.679   9.174 -0.0702 -0.1943  0.4324
   88MOL0     C11532  -1.355   9.449   9.162 -0.0947  0.4092  0.4829
   88MOL0     C11533  -1.209   9.460   9.135  0.3274 -0.1359  0.3972
   88MOL0     N11534  -0.468   9.867   9.407  0.7568 -0.2251  0.7609
   88MOL0     N11535  -0.385   9.956   9.433  0.4090 -0.1938 -0.6504
   88MOL0     C11536   0.698  10.275   9.348 -0.6591 -0.4725  0.1295
   88MOL0     C11537   0.818  10.349   9.358 -0.1390 -1.3181 -0.1478
   88MOL0     C11538   1.161  10.600   9.325 -0.1698 -0.1234 -0.6335
   88MOL0     C11539   1.175  10.742   9.352  0.0428 -0.0836 -0.2221
   88MOL0     C11540   1.303  10.792   9.364  0.1200  0.1087 -0.3656
   88MOL0     C11541   1.412  10.709   9.357  0.2630 -0.5406  0.2460
   88MOL0     O11542   1.542  10.752   9.377  0.0323 -0.2777 -0.3794
   88MOL0     C11543   1.598  10.834   9.279 -1.0614 -0.5978  1.2654
   88MOL0     C11544   1.609  10.764   9.140 -1.1815  0.2824 -1.2908
   88MOL0     C11545   1.685  10.851   9.045 -0.5006 -0.6893 -0.3423
   88MOL0     C11546   1.716  10.795   8.913  0.3135  0.0251  0.7789
   88MOL0     C11547   1.607  10.784   8.818 -0.3555 -0.9611  1.2467
   88MOL0     C11548   1.506  10.788   8.748 -0.6369 -0.3319 -0.3756
   88MOL0     C11549   1.400  10.574   9.338 -0.0604  0.1900 -0.5910
   88MOL0     C11550   1.271  10.516   9.332  0.2360 -0.3247 -0.0115
   88MOL0     H11551   0.974  10.245   9.070  0.8296 -1.2249  0.4368
   88MOL0     H11552   0.768  10.102   9.052 -0.1269  1.6703 -1.9458
   88MOL0     H11553   0.429  10.250   9.184 -2.6502  0.3054  0.1036
   88MOL0     H11554   0.441  10.231   9.353 -1.3633  1.9209 -1.6612
   88MOL0     H11555   0.357   9.993   9.320  1.5647 -0.8349 -0.6653
   88MOL0     H11556   0.325  10.029   9.152 -1.3124 -0.6501  0.3493
   88MOL0     H11557   0.127  10.037   9.269 -0.2232 -0.9716  2.2828
   88MOL0     H11558   0.174  10.212   9.231  1.2232  1.9537  2.0997
   88MOL0     H11559   0.150  10.057   9.485  1.4478 -0.1385 -0.3939
   88MOL0     H11560   0.272  10.179   9.486 -0.3335 -0.6516  0.8489
   88MOL0     H11561   0.126  10.359   9.433  1.7406 -0.8816  2.5949
   88MOL0     H11562   0.044  10.270   9.568 -2.8753  0.4925 -0.5931
   88MOL0     H11563  -0.028  10.278   9.278  0.5080  1.6875  0.5800
   88MOL0     H11564  -0.096  10.358   9.423  1.2021 -1.1301  3.0796
   88MOL0     H11565  -0.096  10.059   9.387 -0.9291 -0.6990 -0.3662
   88MOL0     H11566  -0.183  10.161   9.512 -0.4862 -0.4271 -0.6127
   88MOL0     H11567  -0.238  10.159   9.220 -1.3947 -1.3459 -0.6530
   88MOL0     H11568  -0.329  10.249   9.339  0.6117  0.7916 -1.8077
   88MOL0     H11569  -0.395   9.974   9.112  1.5556 -0.0485  0.7539
   88MOL0     H11570  -0.531   9.659   9.262 -0.5435 -0.7547 -0.3126
   88MOL0     H11571  -0.566   9.746   9.111 -0.8399 -1.7361  0.1456
   88MOL0     H11572  -0.739   9.877   9.238  2.0913  0.5665  0.9786
   88MOL0     H11573  -0.727   9.751   9.361  2.1562  1.5447 -0.2914
   88MOL0     H11574  -0.783   9.693   9.067 -0.2619 -0.2800  0.5565
   88MOL0     H11575  -0.741   9.577   9.198 -2.3318 -1.8920 -0.6106
   88MOL0     H11576  -0.976   9.767   9.158 -0.4746 -0.3294 -0.5832
   88MOL0     H11577  -0.956   9.688   9.317  1.6431 -0.3833  0.7764
   88MOL0     H11578  -1.166   9.781   9.206  1.4003 -0.0349 -2.3009
   88MOL0     H11579  -1.406   9.780   9.219  0.6242  1.7629 -3.2410
   88MOL0     H11580  -1.823   9.561   9.391  2.0210  1.0097 -0.8290
   88MOL0     H11581  -2.064   9.599   9.336  0.8883  0.3125  1.7260
   88MOL0     H11582  -2.189   9.632   8.966 -1.5959 -0.2272 -0.2514
   88MOL0     H11583  -2.190   9.698   9.133  1.7590  0.5823 -1.3966
   88MOL0     H11584  -2.422   9.635   9.151  1.6634 -1.4740 -0.0787
   88MOL0     H11585  -2.425   9.545   9.001 -2.0367 -0.4371  1.3155
   88MOL0     H11586  -2.374   9.786   8.892 -2.0742 -1.3265 -1.7743
   88MOL0     H11587  -2.378   9.850   9.060  1.1007  1.3744 -1.4782
   88MOL0     H11588  -2.615   9.697   8.955  0.1645  1.7794 -3.6709
   88MOL0     H11589  -2.600   9.809   9.093  0.1118 -1.0516 -0.5223
   88MOL0     H11590  -2.568   9.886   8.804  1.8388 -1.6913  0.4093
   88MOL0     H11591  -2.593   9.996   8.945  2.1683 -0.7679  0.5527
   88MOL0     H11592  -2.802   9.908   8.989  0.6579  1.1298  0.7167
   88MOL0     H11593  -2.789   9.797   8.838  2.7341 -0.7932  2.0648
   88MOL0     H11594  -2.823  10.093   8.869  1.1893  0.4418 -0.3164
   88MOL0     H11595  -2.745  10.030   8.725 -0.5086  2.0608  1.5557
   88MOL0     H11596  -3.029   9.995   8.832  0.0632  0.3021  0.5253
   88MOL0     H11597  -2.967   9.872   8.718 -3.5119  0.8252 -0.3180
   88MOL0     H11598  -2.005   9.342   8.988  0.5815  1.3731 -0.9497
   88MOL0     H11599  -1.759   9.361   9.019  1.6431  0.9862 -0.0357
   88MOL0     H11600  -1.402   9.351   9.164 -3.2413  1.8353  1.8484
   88MOL0     H11601  -1.155   9.373   9.099 -1.0798 -0.5113 -0.9253
   88MOL0     H11602   0.636  10.280   9.437  1.7534 -0.7087  1.9018
   88MOL0     H11603   0.841  10.417   9.440 -2.2499 -1.6660  0.8074
   88MOL0     H11604   1.097  10.817   9.344 -2.1766 -2.0182  1.7439
   88MOL0     H11605   1.312  10.897   9.392  0.6515 -0.2682  0.9630
   88MOL0     H11606   1.702  10.854   9.308 -1.5207 -0.3063  2.7982
   88MOL0     H11607   1.546  10.930   9.268  2.7903  1.7181  1.0140
   88MOL0     H11608   1.655  10.667   9.162 -2.3685 -0.0672 -0.2585
   88MOL0     H11609   1.506  10.748   9.107 -2.0916  1.0913  0.9040
   88MOL0     H11610   1.779  10.894   9.082 -0.1751  1.8592 -3.6535
   88MOL0     H11611   1.632  10.944   9.025  2.5384  2.5356  4.3812
   88MOL0     H11612   1.797  10.859   8.876 -1.0070  1.2857 -0.0052
   88MOL0     H11613   1.761  10.695   8.916 -1.0481 -0.6140  0.5844
   88MOL0     H11614   1.422  10.789   8.681 -1.2381 -1.8621  0.3064
   88MOL0     H11615   1.490  10.513   9.338 -0.0066  0.2702 -0.6977
   88MOL0     H11616   1.274  10.410   9.309  1.9945 -0.3641  0.2374
   89MOL0     O11617   7.813   2.174   1.590  0.0138  0.0713 -0.3149
   89MOL0     C11618   7.873   2.111   1.504 -0.0951  0.5676 -0.2402
   89MOL0     O11619   7.814   2.049   1.397  0.1729 -0.0339 -0.1689
   89MOL0     C11620   7.680   2.071   1.387 -0.6253 -0.4506  0.3164
   89MOL0     C11621   7.584   1.998   1.465  0.0267 -1.1801  0.2596
   89MOL0     C11622   7.451   2.022   1.451  0.3905 -0.0027  0.0679
   89MOL0     C11623   7.404   2.100   1.344 -0.1196 -0.8034 -0.3200
   89MOL0     O11624   7.266   2.123   1.309 -0.5309  0.7811 -0.1216
   89MOL0     C11625   7.188   2.007   1.333 -0.6431  0.0265  0.5967
   89MOL0     C11626   7.057   2.014   1.254 -0.5179  0.9047 -0.5846
   89MOL0     C11627   6.974   2.131   1.297 -1.0005 -0.0657  0.3249
   89MOL0     C11628   6.833   2.108   1.241  0.2493 -0.3923  0.5243
   89MOL0     C11629   6.756   2.235   1.287 -0.3644  0.2140 -0.8439
   89MOL0     C11630   6.616   2.254   1.221 -0.7355 -0.4250  0.6120
   89MOL0     C11631   6.529   2.156   1.294  0.5418  0.4666  0.6925
   89MOL0     C11632   6.437   2.239   1.390  0.2475 -0.5263 -0.9989
   89MOL0     N11633   6.317   2.294   1.316 -0.1448  0.5897 -0.1268
   89MOL0     C11634   6.204   2.228   1.291  0.5210  0.3694 -0.1556
   89MOL0     C11635   6.118   2.312   1.218 -0.9202 -0.1030 -0.4462
   89MOL0     C11636   5.977   2.303   1.170  0.6485 -0.0947  0.2502
   89MOL0     C11637   5.886   2.291   1.299 -0.0826  0.0805  0.5857
   89MOL0     C11638   5.913   2.416   1.386 -0.3433  0.2763 -0.4635
   89MOL0     C11639   5.790   2.446   1.474  0.3381  0.4571 -0.8012
   89MOL0     O11640   5.672   2.491   1.398 -0.0454 -0.2991  0.1013
   89MOL0     C11641   5.557   2.519   1.462  0.6331  0.6913  0.1187
   89MOL0     C11642   5.532   2.548   1.600 -0.5524  1.0611  1.0568
   89MOL0     C11643   5.400   2.575   1.640 -0.1831 -0.8700 -0.6857
   89MOL0     C11644   5.298   2.594   1.548 -0.3921 -0.0590 -0.1279
   89MOL0     C11645   5.167   2.635   1.596 -0.3699  0.6467 -0.2830
   89MOL0     O11646   5.068   2.580   1.517  0.0077 -0.2018 -0.4746
   89MOL0     C11647   4.939   2.626   1.546 -0.0632  0.5416 -0.8654
   89MOL0     C11648   4.897   2.757   1.558  0.2294  0.5150  0.2961
   89MOL0     C11649   4.766   2.783   1.579 -0.4977  0.6630 -0.7350
   89MOL0     C11650   4.670   2.686   1.580 -0.0820 -0.4344  0.0841
   89MOL0     O11651   4.537   2.724   1.592  0.2179  0.0517  0.1099
   89MOL0     C11652   4.447   2.625   1.651 -0.8325  0.5408 -0.2958
   89MOL0     C11653   4.323   2.690   1.704 -0.2444 -1.3601 -1.5083
   89MOL0     C11654   4.218   2.732   1.607 -0.3825  0.9271  0.1864
   89MOL0     C11655   4.088   2.797   1.661 -0.3314  0.5875  0.3901
   89MOL0     C11656   3.986   2.707   1.733  0.0276  0.0664 -1.1358
   89MOL0     C11657   3.919   2.769   1.860 -0.0224 -0.9031 -0.1729
   89MOL0     C11658   3.801   2.857   1.823  0.2297 -0.2607  0.0538
   89MOL0     C11659   3.710   2.848   1.937  0.0459  0.2356  0.1331
   89MOL0    Cl11660   3.563   2.945   1.911  0.3776  0.1007  0.0137
   89MOL0     C11661   4.711   2.549   1.549 -0.0105 -0.1405 -1.5153
   89MOL0     C11662   4.843   2.521   1.535 -0.1760  0.2128 -0.2160
   89MOL0     O11663   5.154   2.692   1.701 -0.5497  0.3706 -0.1465
   89MOL0     C11664   5.329   2.571   1.413  0.6346  0.2983 -0.0226
   89MOL0     C11665   5.453   2.535   1.366  0.2955 -0.1132 -0.6106
   89MOL0     N11666   6.199   2.426   1.206 -0.0961  0.4471  0.1657
   89MOL0     N11667   6.315   2.419   1.260  0.2117 -0.3988  0.0105
   89MOL0     C11668   7.490   2.175   1.271  0.5112  0.1687  0.4680
   89MOL0     C11669   7.629   2.167   1.292  0.9487  0.3182 -0.5879
   89MOL0     C11670   8.019   2.087   1.513  0.2619  0.6712 -0.3795
   89MOL0     C11671   8.091   2.055   1.390 -0.6975 -0.4000  0.2775
   89MOL0     C11672   8.231   2.054   1.392 -0.4377 -0.1647 -0.2448
   89MOL0     C11673   8.303   2.072   1.513 -0.8212 -0.0762  0.6854
   89MOL0     O11674   8.439   2.061   1.504 -0.3100 -0.4700 -0.3155
   89MOL0     C11675   8.532   2.116   1.589 -0.5023  0.1918  0.0419
   89MOL0     C11676   8.640   2.182   1.497  0.0762  0.3124 -0.0634
   89MOL0     C11677   8.717   2.285   1.577 -0.2705 -0.5608 -0.0309
   89MOL0     C11678   8.830   2.353   1.490  0.1517 -0.0137 -0.0065
   89MOL0     C11679   8.766   2.446   1.401  1.0113  0.7401  0.1218
   89MOL0     C11680   8.721   2.516   1.317 -0.6688 -0.4876  0.1878
   89MOL0     C11681   8.231   2.099   1.630  0.2038  0.9243  0.1681
   89MOL0     C11682   8.091   2.105   1.626 -0.0138  0.5352 -0.2865
   89MOL0     H11683   7.611   1.932   1.547 -0.2996  0.2298  1.5512
   89MOL0     H11684   7.381   1.973   1.519  2.6231 -0.7012  1.9955
   89MOL0     H11685   7.158   1.997   1.438 -3.0575  0.4858  0.0035
   89MOL0     H11686   7.241   1.917   1.298 -1.7949 -0.1695 -0.7153
   89MOL0     H11687   6.995   1.925   1.268  2.0694 -1.1883 -1.5944
   89MOL0     H11688   7.075   2.025   1.147 -0.3365 -1.3932 -0.8426
   89MOL0     H11689   7.016   2.222   1.252 -3.1371  0.3898 -0.9487
   89MOL0     H11690   6.982   2.146   1.405  2.7632 -3.3698  0.6978
   89MOL0     H11691   6.830   2.097   1.132 -0.5301  1.5554  0.3191
   89MOL0     H11692   6.779   2.019   1.276  0.9877 -0.9458  0.2883
   89MOL0     H11693   6.810   2.326   1.261 -0.0186 -0.3904 -2.3272
   89MOL0     H11694   6.748   2.244   1.396 -1.3426  1.4043 -0.9892
   89MOL0     H11695   6.640   2.221   1.120 -0.8521 -0.5689  0.6316
   89MOL0     H11696   6.578   2.357   1.232 -0.0508 -0.1948  0.8768
   89MOL0     H11697   6.475   2.100   1.218  2.0866  1.5649 -1.3084
   89MOL0     H11698   6.586   2.081   1.349 -0.1249 -0.2818  0.3728
   89MOL0     H11699   6.491   2.322   1.436 -2.6664  1.8927 -1.6336
   89MOL0     H11700   6.403   2.178   1.474 -0.7615  1.1236 -0.1514
   89MOL0     H11701   6.178   2.131   1.331  1.1010 -0.7406 -2.2851
   89MOL0     H11702   5.967   2.211   1.112 -1.2416 -0.7374  1.5004
   89MOL0     H11703   5.943   2.380   1.099 -0.7856  0.9965  2.0131
   89MOL0     H11704   5.905   2.199   1.356 -1.6651  1.3804  3.4078
   89MOL0     H11705   5.780   2.274   1.277 -0.2812 -0.5033  1.8476
   89MOL0     H11706   6.008   2.409   1.440 -0.2290  1.6961 -0.4393
   89MOL0     H11707   5.916   2.506   1.324  1.3406  1.3017  1.0111
   89MOL0     H11708   5.815   2.521   1.551 -0.8680 -1.1208  1.2137
   89MOL0     H11709   5.771   2.355   1.531 -0.4021  1.2250  0.2086
   89MOL0     H11710   5.601   2.522   1.680 -0.4560 -0.7161  0.4533
   89MOL0     H11711   5.375   2.592   1.744 -1.4024  1.9616 -1.3245
   89MOL0     H11712   4.967   2.839   1.549 -0.9534  1.7486  1.8587
   89MOL0     H11713   4.728   2.885   1.586  1.1131  1.1917  3.4723
   89MOL0     H11714   4.512   2.575   1.723  0.9310 -1.1954 -2.8903
   89MOL0     H11715   4.412   2.550   1.579  1.8280 -0.7225 -0.3969
   89MOL0     H11716   4.361   2.771   1.768  1.5067 -1.7626 -2.0066
   89MOL0     H11717   4.264   2.632   1.776 -1.8178  1.6160 -0.1933
   89MOL0     H11718   4.198   2.640   1.551 -0.4211  0.6797  0.6034
   89MOL0     H11719   4.263   2.798   1.533  0.3668 -2.1844 -2.3728
   89MOL0     H11720   4.120   2.884   1.720  1.8867 -0.5998  1.0530
   89MOL0     H11721   4.046   2.835   1.567  1.4552 -0.9795 -1.1375
   89MOL0     H11722   4.032   2.619   1.778  0.5311  1.3026  0.8993
   89MOL0     H11723   3.912   2.666   1.664  0.3922 -2.7313  0.0012
   89MOL0     H11724   3.993   2.835   1.905  1.1043  0.4346 -3.7208
   89MOL0     H11725   3.892   2.694   1.935 -2.5730  2.4925  2.6645
   89MOL0     H11726   3.834   2.960   1.807 -1.1895 -0.1017 -2.6216
   89MOL0     H11727   3.748   2.831   1.731 -0.4515 -0.1746  0.4149
   89MOL0     H11728   3.764   2.904   2.014  0.9626  3.1190 -2.4196
   89MOL0     H11729   3.698   2.743   1.966  1.9498 -0.5241 -1.5639
   89MOL0     H11730   4.632   2.475   1.545 -2.7735  2.2383  2.1483
   89MOL0     H11731   4.870   2.420   1.507  2.9461  0.4492  1.5335
   89MOL0     H11732   5.243   2.581   1.347 -1.3625  1.5571  2.5888
   89MOL0     H11733   5.470   2.507   1.263 -1.2930  1.1626 -1.2703
   89MOL0     H11734   7.448   2.248   1.203  1.0130  1.2854  1.3254
   89MOL0     H11735   7.687   2.217   1.216  1.0521 -2.4108 -2.4679
   89MOL0     H11736   8.045   2.034   1.294  2.0516 -0.9262 -1.0264
   89MOL0     H11737   8.285   2.015   1.307 -0.5143 -4.0962  1.2640
   89MOL0     H11738   8.583   2.035   1.642  1.2223  0.5505 -1.0278
   89MOL0     H11739   8.480   2.192   1.649 -0.4437 -0.0093  0.3492
   89MOL0     H11740   8.710   2.112   1.452  0.3468 -0.5153  1.5650
   89MOL0     H11741   8.580   2.232   1.421 -0.0789 -0.4753 -0.4676
   89MOL0     H11742   8.768   2.235   1.660 -0.5659  3.5926  2.9773
   89MOL0     H11743   8.653   2.362   1.620  1.1357  0.2632  0.6506
   89MOL0     H11744   8.893   2.414   1.556 -0.6186  2.1900 -1.2124
   89MOL0     H11745   8.883   2.279   1.429 -3.0668 -2.6648  0.1860
   89MOL0     H11746   8.669   2.580   1.249  0.3078  1.5007  1.2146
   89MOL0     H11747   8.274   2.108   1.729  1.1563 -2.3471  0.1957
   89MOL0     H11748   8.041   2.132   1.718  0.1595 -3.2202  1.1148
   90MOL0     O11749   2.687   9.498   8.721  0.1770 -0.4907 -1.3299
   90MOL0     C11750   2.765   9.418   8.762 -0.2385 -0.5527  0.2775
   90MOL0     O11751   2.734   9.289   8.811  0.9210 -0.8460 -0.2142
   90MOL0     C11752   2.600   9.287   8.846  0.8778 -0.4331  0.0221
   90MOL0     C11753   2.502   9.242   8.758  0.4442  0.0299  0.2199
   90MOL0     C11754   2.364   9.233   8.806 -0.8725  0.0916  0.4123
   90MOL0     C11755   2.324   9.262   8.936  0.2088  0.8751 -0.0351
   90MOL0     O11756   2.202   9.249   8.987  0.3516  0.1111 -0.3194
   90MOL0     C11757   2.097   9.262   8.888 -0.5862  0.2594 -0.2874
   90MOL0     C11758   1.973   9.288   8.966 -0.0668 -0.0470 -0.1231
   90MOL0     C11759   1.856   9.282   8.874  0.1992  0.0660  0.1198
   90MOL0     C11760   1.737   9.321   8.965 -0.4659 -0.2752 -0.2261
   90MOL0     C11761   1.600   9.295   8.908  0.2540 -0.0108  0.1528
   90MOL0     C11762   1.566   9.368   8.783  0.4421  0.6541 -0.2742
   90MOL0     C11763   1.419   9.349   8.756 -0.2814 -0.3877 -0.4414
   90MOL0     C11764   1.386   9.243   8.649  0.1447  0.3324 -0.5513
   90MOL0     N11765   1.411   9.107   8.686 -0.3645 -0.6179  0.3645
   90MOL0     C11766   1.501   9.015   8.622  0.5306  0.5344  0.2232
   90MOL0     C11767   1.459   8.894   8.653  0.5214 -0.4758 -0.4743
   90MOL0     C11768   1.516   8.763   8.609  0.3696  0.1767  1.1068
   90MOL0     C11769   1.659   8.752   8.668 -0.8943  0.1795  0.5136
   90MOL0     C11770   1.670   8.736   8.822  0.1982 -0.3408 -0.4196
   90MOL0     C11771   1.808   8.689   8.861 -0.6466  0.3856  0.0752
   90MOL0     O11772   1.906   8.790   8.834  0.0458  0.8600  0.4693
   90MOL0     C11773   2.045   8.762   8.853  0.4191 -0.3713  0.3125
   90MOL0     C11774   2.097   8.652   8.926 -0.1813  0.6612  0.7704
   90MOL0     C11775   2.239   8.635   8.960  1.0488 -0.6225  0.1172
   90MOL0     C11776   2.326   8.722   8.896 -0.6213  0.7464  0.5104
   90MOL0     C11777   2.473   8.709   8.910 -0.0025 -0.4005  0.1650
   90MOL0     O11778   2.553   8.805   8.852 -0.8122  1.5246 -0.3186
   90MOL0     C11779   2.686   8.794   8.859 -0.3029  0.3849  0.7619
   90MOL0     C11780   2.753   8.776   8.735 -0.8346  0.0077  0.4107
   90MOL0     C11781   2.892   8.748   8.741 -0.4504 -0.5613 -0.2480
   90MOL0     C11782   2.956   8.732   8.869 -0.6772  0.6261  0.2465
   90MOL0     O11783   3.082   8.688   8.890 -0.4268  0.2783  0.3448
   90MOL0     C11784   3.182   8.755   8.812 -0.6025 -0.4042 -0.5691
   90MOL0     C11785   3.318   8.686   8.804 -0.3223 -0.0336  0.2815
   90MOL0     C11786   3.430   8.775   8.749  0.1787  0.1679  0.0470
   90MOL0     C11787   3.554   8.687   8.725 -0.5655  0.0043 -0.7089
   90MOL0     C11788   3.670   8.780   8.690 -0.4175 -0.6606 -0.0643
   90MOL0     C11789   3.805   8.712   8.684 -0.2800  0.4820  0.3788
   90MOL0     C11790   3.923   8.805   8.661  0.2267 -0.2902 -0.1290
   90MOL0     C11791   3.905   8.874   8.525 -0.1941 -1.2573 -0.4759
   90MOL0    Cl11792   4.058   8.954   8.478 -0.2381  0.0757 -0.4081
   90MOL0     C11793   2.886   8.762   8.981  0.0622 -0.1941 -0.4574
   90MOL0     C11794   2.752   8.801   8.979 -0.5068  0.4273  0.2789
   90MOL0     O11795   2.513   8.606   8.966 -0.7026  0.1156  0.1122
   90MOL0     C11796   2.271   8.835   8.833 -1.0898  0.0113  0.0121
   90MOL0     C11797   2.140   8.858   8.810 -0.0757  0.4185 -0.3065
   90MOL0     N11798   1.357   8.906   8.744  0.6243  0.3673  0.3092
   90MOL0     N11799   1.330   9.034   8.761 -0.7533 -0.6212 -0.3601
   90MOL0     C11800   2.433   9.304   9.021 -0.4225  0.6882 -0.2693
   90MOL0     C11801   2.567   9.315   8.979 -0.2616  0.0690 -0.2111
   90MOL0     C11802   2.908   9.436   8.740 -0.5140  0.3653 -0.1370
   90MOL0     C11803   2.939   9.519   8.633 -0.0643 -0.2531  0.2844
   90MOL0     C11804   3.077   9.551   8.621  0.4430  1.1709  0.1680
   90MOL0     C11805   3.181   9.491   8.707 -0.7426  0.6543 -0.3631
   90MOL0     O11806   3.318   9.515   8.698 -0.1823  0.3531 -0.5903
   90MOL0     C11807   3.364   9.550   8.571  0.3838  0.7937  0.7806
   90MOL0     C11808   3.516   9.565   8.588  0.3990  0.4505 -0.4027
   90MOL0     C11809   3.591   9.620   8.469 -0.3389  0.9195  0.0604
   90MOL0     C11810   3.738   9.615   8.487 -0.6398 -0.0622  1.0154
   90MOL0     C11811   3.807   9.522   8.399  0.9932  0.2075  0.0900
   90MOL0     C11812   3.854   9.437   8.321 -0.3597  0.1292 -0.5671
   90MOL0     C11813   3.140   9.399   8.797 -0.3739  0.4682  0.0695
   90MOL0     C11814   3.005   9.366   8.814 -0.1008 -0.5664  0.1435
   90MOL0     H11815   2.532   9.217   8.657 -1.9689 -1.2349 -0.2552
   90MOL0     H11816   2.286   9.202   8.737 -0.0662  1.0078 -0.9638
   90MOL0     H11817   2.082   9.176   8.821 -2.0872  1.2303 -1.2523
   90MOL0     H11818   2.106   9.346   8.819  0.2057 -0.4192 -1.0392
   90MOL0     H11819   1.981   9.389   9.008 -1.3535 -0.4859  1.2936
   90MOL0     H11820   1.961   9.220   9.051 -2.1125  1.4246  0.8485
   90MOL0     H11821   1.834   9.187   8.825 -0.3709  0.2213  0.0721
   90MOL0     H11822   1.853   9.357   8.795  1.6785  0.8628  0.7587
   90MOL0     H11823   1.736   9.288   9.069 -1.4065  0.8465  0.1450
   90MOL0     H11824   1.738   9.429   8.978  1.3698 -0.2175 -0.6525
   90MOL0     H11825   1.526   9.324   8.982  0.1913  0.3000 -0.0276
   90MOL0     H11826   1.588   9.188   8.888 -1.9076 -0.4072  2.9853
   90MOL0     H11827   1.618   9.318   8.701  1.9226  1.0992  0.3665
   90MOL0     H11828   1.601   9.471   8.782  1.7558  0.2448  0.5073
   90MOL0     H11829   1.360   9.317   8.842  0.3951 -1.3223 -0.3193
   90MOL0     H11830   1.392   9.448   8.718 -0.4470  0.4380  1.6848
   90MOL0     H11831   1.424   9.270   8.550 -0.4645  0.4281 -0.7624
   90MOL0     H11832   1.277   9.246   8.637  0.1029 -3.4253 -2.6627
   90MOL0     H11833   1.571   9.031   8.541 -0.6479  0.0057 -0.9443
   90MOL0     H11834   1.524   8.763   8.500 -1.6687 -2.1361  0.8786
   90MOL0     H11835   1.455   8.680   8.643  1.9129 -0.0717  3.5231
   90MOL0     H11836   1.714   8.844   8.647 -0.1512 -0.1172  1.1005
   90MOL0     H11837   1.716   8.675   8.616  1.6985  1.5557  1.1494
   90MOL0     H11838   1.645   8.829   8.874 -0.2625 -0.8057  0.2127
   90MOL0     H11839   1.594   8.660   8.845  0.9235 -1.3305 -1.2267
   90MOL0     H11840   1.823   8.591   8.814 -2.8962  0.7702 -1.5959
   90MOL0     H11841   1.805   8.663   8.967 -0.3078 -0.2356 -0.0615
   90MOL0     H11842   2.032   8.582   8.977  1.3733  0.0105  1.9324
   90MOL0     H11843   2.249   8.560   9.038 -2.9447  0.6623  2.1332
   90MOL0     H11844   2.704   8.780   8.638  2.6139  0.8965 -1.4989
   90MOL0     H11845   2.928   8.733   8.640 -0.5075  0.0588 -0.3592
   90MOL0     H11846   3.199   8.852   8.859  0.2622 -0.8790  0.1422
   90MOL0     H11847   3.150   8.762   8.708 -0.1515 -3.2208 -0.9903
   90MOL0     H11848   3.301   8.601   8.738 -2.2634 -0.3250  1.0960
   90MOL0     H11849   3.351   8.656   8.904  2.0023 -1.1193 -0.7149
   90MOL0     H11850   3.447   8.857   8.820  1.5028 -0.0268 -0.0349
   90MOL0     H11851   3.399   8.814   8.652 -0.9476 -0.8306 -0.0240
   90MOL0     H11852   3.591   8.635   8.814  0.3911 -0.6553 -1.4671
   90MOL0     H11853   3.546   8.617   8.641  1.1383 -1.0778 -0.0308
   90MOL0     H11854   3.670   8.857   8.767  2.3050  0.6912 -1.3100
   90MOL0     H11855   3.655   8.823   8.591  1.0820 -1.7538 -0.7947
   90MOL0     H11856   3.805   8.638   8.603  0.6145 -1.2675  1.9033
   90MOL0     H11857   3.826   8.646   8.769 -0.9166 -1.8504 -1.1917
   90MOL0     H11858   3.923   8.876   8.744  2.1918 -1.7501  1.2144
   90MOL0     H11859   4.016   8.748   8.666  1.2287  1.3209  0.2137
   90MOL0     H11860   3.831   8.954   8.535 -1.0495 -2.2876  2.2937
   90MOL0     H11861   3.870   8.799   8.454  2.2736 -2.2676 -0.7116
   90MOL0     H11862   2.934   8.755   9.078  1.1329  0.1925 -0.9386
   90MOL0     H11863   2.688   8.822   9.063 -0.8613 -1.0819  0.4219
   90MOL0     H11864   2.335   8.919   8.809 -2.5326  1.5232  1.1749
   90MOL0     H11865   2.104   8.955   8.777  0.6521  1.2390  1.1807
   90MOL0     H11866   2.398   9.322   9.122  1.1332  0.7853  0.2667
   90MOL0     H11867   2.636   9.343   9.058  1.7286  1.1747 -2.2358
   90MOL0     H11868   2.871   9.560   8.559 -2.0673 -3.3283  0.2108
   90MOL0     H11869   3.105   9.615   8.538  0.0857  1.6619  0.4224
   90MOL0     H11870   3.318   9.646   8.547 -0.1388 -0.0757 -2.1147
   90MOL0     H11871   3.340   9.486   8.485 -2.3348  0.7625  1.5063
   90MOL0     H11872   3.522   9.634   8.672 -2.1117  1.1793 -0.7407
   90MOL0     H11873   3.552   9.465   8.615  0.4906  0.5728 -0.0706
   90MOL0     H11874   3.560   9.723   8.447  1.4605  0.7524 -4.3280
   90MOL0     H11875   3.572   9.566   8.377  0.1925 -0.1615  0.5677
   90MOL0     H11876   3.783   9.712   8.461 -0.0759 -1.1315 -2.6076
   90MOL0     H11877   3.769   9.587   8.588 -2.3374  0.5758  1.7384
   90MOL0     H11878   3.885   9.379   8.237  1.3180  0.2863 -0.0949
   90MOL0     H11879   3.213   9.359   8.867  1.4990  4.3565  0.6186
   90MOL0     H11880   2.980   9.295   8.892  1.9146 -0.5155  0.9251
   91MOL0     O11881   6.255   6.015   4.284 -0.0473 -0.5081 -0.2441
   91MOL0     C11882   6.247   5.969   4.168 -0.2838  0.2589 -0.3792
   91MOL0     O11883   6.170   5.868   4.131  0.0242 -0.3334  0.4363
   91MOL0     C11884   6.071   5.828   4.213 -0.2527  0.5909  0.7105
   91MOL0     C11885   6.065   5.693   4.240  0.1778 -0.6405  0.3537
   91MOL0     C11886   5.955   5.639   4.302 -0.2483  0.5555 -0.7514
   91MOL0     C11887   5.842   5.706   4.327  0.8508 -0.2430 -0.0870
   91MOL0     O11888   5.720   5.656   4.372  0.1788 -0.0776  0.3424
   91MOL0     C11889   5.718   5.526   4.444 -0.1313 -0.3645  0.4641
   91MOL0     C11890   5.569   5.483   4.466  0.4370  0.5548  0.3562
   91MOL0     C11891   5.578   5.344   4.533  1.0217  0.1595 -0.2047
   91MOL0     C11892   5.431   5.305   4.558  0.4278  0.2570  0.4837
   91MOL0     C11893   5.434   5.161   4.611 -0.0859  0.3253 -0.3095
   91MOL0     C11894   5.298   5.120   4.638  0.2535 -0.2049  0.6728
   91MOL0     C11895   5.279   4.986   4.695 -0.0993 -0.0122 -0.5008
   91MOL0     C11896   5.140   4.980   4.774 -0.1613 -0.2171  0.0474
   91MOL0     N11897   5.026   4.969   4.686  0.2522 -0.0649 -0.2377
   91MOL0     C11898   5.018   4.889   4.575  0.3929  0.3553 -0.2811
   91MOL0     C11899   4.902   4.911   4.517  0.2903  0.1440 -0.1345
   91MOL0     C11900   4.850   4.825   4.410  0.2973  0.0654  0.6732
   91MOL0     C11901   4.719   4.756   4.453 -0.9923  0.0277 -0.8808
   91MOL0     C11902   4.743   4.657   4.564 -0.4998  0.3083 -0.6569
   91MOL0     C11903   4.612   4.582   4.615  0.4399  0.2607  0.0021
   91MOL0     O11904   4.505   4.674   4.627 -0.6781  0.4573 -0.3498
   91MOL0     C11905   4.379   4.634   4.617  0.0232  0.1436  0.5180
   91MOL0     C11906   4.332   4.501   4.631 -0.3214 -0.6974 -0.7007
   91MOL0     C11907   4.194   4.458   4.632  0.5219 -0.2679 -0.6939
   91MOL0     C11908   4.097   4.560   4.620  0.1299  0.1538  0.2391
   91MOL0     C11909   3.952   4.527   4.604 -0.0089 -0.4463 -0.8087
   91MOL0     O11910   3.873   4.607   4.527  0.6047  0.2582 -0.5098
   91MOL0     C11911   3.740   4.573   4.533 -0.0465  0.2156 -0.0054
   91MOL0     C11912   3.650   4.585   4.642  0.0958  0.7129  0.1565
   91MOL0     C11913   3.516   4.536   4.638 -0.1448  0.7768 -0.3064
   91MOL0     C11914   3.464   4.478   4.528  0.6430 -0.2837 -0.4192
   91MOL0     O11915   3.334   4.424   4.507  0.4766 -0.5453 -0.3010
   91MOL0     C11916   3.242   4.443   4.613 -0.6212  0.1330  0.5672
   91MOL0     C11917   3.100   4.424   4.544 -0.0935 -0.3775  0.2141
   91MOL0     C11918   3.084   4.287   4.483 -0.3052  0.4891  0.0642
   91MOL0     C11919   2.939   4.241   4.450 -0.7036 -0.8381 -0.0169
   91MOL0     C11920   2.934   4.105   4.377  1.1960  0.3017 -0.2178
   91MOL0     C11921   2.790   4.085   4.336 -0.0829  0.3944 -0.5183
   91MOL0     C11922   2.781   3.969   4.238 -0.5935 -0.8112  0.1338
   91MOL0     C11923   2.831   3.832   4.286 -0.4306 -0.1440 -0.3992
   91MOL0    Cl11924   2.735   3.783   4.444  0.1318 -0.3536  0.3278
   91MOL0     C11925   3.546   4.472   4.417  0.4209  0.4099 -0.1859
   91MOL0     C11926   3.681   4.520   4.413 -0.1711 -0.1205  0.1295
   91MOL0     O11927   3.908   4.441   4.677  0.2181  0.8949 -0.0460
   91MOL0     C11928   4.138   4.693   4.599 -0.2668 -0.2944  0.4621
   91MOL0     C11929   4.271   4.721   4.598 -0.4192 -0.6031 -0.5227
   91MOL0     N11930   4.841   5.016   4.586  0.2169 -0.3923  0.2284
   91MOL0     N11931   4.912   5.045   4.689  0.1903 -0.4697 -0.0690
   91MOL0     C11932   5.845   5.843   4.304 -0.0141  0.5396 -0.3862
   91MOL0     C11933   5.964   5.904   4.249  1.1849  0.6589  0.0003
   91MOL0     C11934   6.324   6.039   4.052  0.0718  0.8925  0.2915
   91MOL0     C11935   6.326   5.984   3.922 -0.2486  0.3007 -0.0902
   91MOL0     C11936   6.416   6.031   3.827 -0.2450  0.1216 -0.0833
   91MOL0     C11937   6.499   6.141   3.846 -0.8528 -0.5459 -0.5508
   91MOL0     O11938   6.591   6.196   3.760 -0.2309 -0.4103 -0.3968
   91MOL0     C11939   6.616   6.156   3.622  0.3290  0.8022  0.0015
   91MOL0     C11940   6.724   6.251   3.567  0.4586 -0.6073 -0.1993
   91MOL0     C11941   6.675   6.398   3.561 -0.3626 -0.2882  0.1996
   91MOL0     C11942   6.692   6.463   3.421 -0.8985  0.9300 -0.5828
   91MOL0     C11943   6.624   6.589   3.419  0.5540 -0.0145 -0.8572
   91MOL0     C11944   6.554   6.687   3.403  0.4893  0.6933  0.1378
   91MOL0     C11945   6.486   6.201   3.970 -0.0168 -0.2994  0.0517
   91MOL0     C11946   6.407   6.152   4.075  0.1836  0.3485 -0.2540
   91MOL0     H11947   6.154   5.633   4.223  0.7968  0.6986 -1.4911
   91MOL0     H11948   5.962   5.533   4.325  0.2068  0.4157 -1.4972
   91MOL0     H11949   5.758   5.531   4.545 -0.2746  0.0288  0.5028
   91MOL0     H11950   5.776   5.454   4.386  0.3409 -0.2107  0.7409
   91MOL0     H11951   5.511   5.486   4.373  0.1862 -1.4847  0.4157
   91MOL0     H11952   5.521   5.555   4.533  0.4334  1.2711 -0.3912
   91MOL0     H11953   5.633   5.345   4.627  1.4101  1.7762 -0.4182
   91MOL0     H11954   5.629   5.277   4.464  0.1160  0.3244 -1.0546
   91MOL0     H11955   5.372   5.368   4.626  0.2659  1.5145 -0.7585
   91MOL0     H11956   5.384   5.304   4.459 -0.4896  2.3546  0.8336
   91MOL0     H11957   5.500   5.141   4.696 -1.4712 -3.9563 -0.0194
   91MOL0     H11958   5.469   5.090   4.536 -1.7370 -1.1218  0.2342
   91MOL0     H11959   5.244   5.131   4.544  1.1922 -1.6435 -0.0697
   91MOL0     H11960   5.261   5.194   4.709 -2.0199  1.5836 -2.1368
   91MOL0     H11961   5.270   4.908   4.618 -4.5352  0.8303 -1.1181
   91MOL0     H11962   5.362   4.962   4.762  0.5485  0.0399 -1.2716
   91MOL0     H11963   5.119   5.068   4.835 -1.2006 -1.0803  0.9878
   91MOL0     H11964   5.136   4.893   4.841 -0.0213  1.3777  2.2225
   91MOL0     H11965   5.083   4.807   4.547  0.9797  1.2248 -1.5707
   91MOL0     H11966   4.929   4.755   4.379  1.2576  0.3912  2.2476
   91MOL0     H11967   4.828   4.884   4.321 -2.2420  1.8777  2.3914
   91MOL0     H11968   4.661   4.704   4.376 -0.1135 -3.9182  0.9211
   91MOL0     H11969   4.646   4.833   4.482 -2.4995 -1.7472  0.2150
   91MOL0     H11970   4.812   4.584   4.519  3.0407  3.0327 -0.0907
   91MOL0     H11971   4.788   4.705   4.651 -2.4911  0.7345  0.1851
   91MOL0     H11972   4.620   4.522   4.706 -1.6151 -2.3419 -1.3964
   91MOL0     H11973   4.583   4.506   4.543 -1.7958  0.6543  0.4177
   91MOL0     H11974   4.400   4.418   4.645 -1.3607 -1.4579 -0.0244
   91MOL0     H11975   4.173   4.353   4.652 -0.5589 -0.1246 -1.0156
   91MOL0     H11976   3.670   4.623   4.741 -3.3399 -1.1191  1.7657
   91MOL0     H11977   3.455   4.564   4.724 -3.1342 -0.3878 -1.8861
   91MOL0     H11978   3.250   4.547   4.646 -0.7792  0.3845 -0.1727
   91MOL0     H11979   3.268   4.382   4.700 -0.4607  0.9795  1.1290
   91MOL0     H11980   3.091   4.512   4.480  0.7497 -1.0864 -0.9113
   91MOL0     H11981   3.013   4.437   4.610 -1.1655  0.3237 -1.2980
   91MOL0     H11982   3.124   4.204   4.542 -1.0585 -1.5811 -2.1772
   91MOL0     H11983   3.134   4.280   4.386  1.2877 -2.3950  0.9579
   91MOL0     H11984   2.885   4.242   4.544 -0.0868  2.9623  0.4334
   91MOL0     H11985   2.895   4.317   4.385 -2.2698 -1.1163  0.6937
   91MOL0     H11986   2.972   4.027   4.444  2.6103  0.9971 -0.1663
   91MOL0     H11987   2.991   4.117   4.285 -1.5756  0.6463 -1.9875
   91MOL0     H11988   2.751   4.172   4.281 -0.8125 -0.5957 -1.5983
   91MOL0     H11989   2.729   4.061   4.423  0.1691 -0.1331 -0.4877
   91MOL0     H11990   2.676   3.961   4.208 -0.3361 -0.3339 -0.9110
   91MOL0     H11991   2.841   3.996   4.151  2.4771  0.2588  2.3797
   91MOL0     H11992   2.937   3.845   4.309 -0.1409 -3.0598  0.3092
   91MOL0     H11993   2.820   3.757   4.208  1.8152 -0.2465 -0.6795
   91MOL0     H11994   3.500   4.434   4.326 -3.7567 -1.0516  2.2496
   91MOL0     H11995   3.748   4.518   4.327  0.2495 -1.9112  0.4533
   91MOL0     H11996   4.054   4.758   4.578 -0.1592 -0.7269 -1.5084
   91MOL0     H11997   4.303   4.825   4.602 -1.1791 -0.3771 -0.2176
   91MOL0     H11998   5.772   5.913   4.342  0.5702  0.1607  1.5404
   91MOL0     H11999   5.973   6.011   4.234  3.1986  0.1755 -2.9971
   91MOL0     H12000   6.274   5.892   3.896  1.0237 -1.0703  1.8932
   91MOL0     H12001   6.419   5.972   3.735 -2.5183 -1.0590  0.5264
   91MOL0     H12002   6.529   6.156   3.555 -0.1711 -0.3784  0.6222
   91MOL0     H12003   6.657   6.054   3.614 -0.6576  0.3773  0.2371
   91MOL0     H12004   6.812   6.248   3.631  2.7208  1.3993 -2.9727
   91MOL0     H12005   6.754   6.216   3.468 -3.0718  1.6114 -2.2572
   91MOL0     H12006   6.726   6.459   3.637 -0.6019  0.1657 -0.0042
   91MOL0     H12007   6.569   6.400   3.586 -0.0236 -1.5650  1.9665
   91MOL0     H12008   6.797   6.467   3.392  0.4454 -2.3517  2.9791
   91MOL0     H12009   6.646   6.391   3.351  2.5215 -1.0486 -1.0217
   91MOL0     H12010   6.496   6.777   3.391 -0.8037  0.2096  2.3367
   91MOL0     H12011   6.547   6.290   3.986 -0.9812  0.0068  2.4497
   91MOL0     H12012   6.426   6.189   4.176  0.3615 -0.4276  0.0089
   92MOL0     O12013   0.289   6.395   5.778  0.2704 -0.8111  0.6444
   92MOL0     C12014   0.317   6.274   5.797  0.3475  0.0881 -0.9074
   92MOL0     O12015   0.238   6.171   5.817  0.8407  0.3168  0.0189
   92MOL0     C12016   0.104   6.184   5.844 -0.2583  0.4573 -0.4092
   92MOL0     C12017   0.019   6.277   5.785  0.6690  0.9086 -0.0805
   92MOL0     C12018  -0.116   6.276   5.803 -0.2264  0.1275  0.5161
   92MOL0     C12019  -0.166   6.162   5.874 -0.3488  0.0318  0.0529
   92MOL0     O12020  -0.307   6.149   5.876 -0.1772  0.0983  0.0842
   92MOL0     C12021  -0.391   6.178   5.761 -0.3465 -0.0805 -0.6452
   92MOL0     C12022  -0.523   6.236   5.802 -1.0863  0.0252  0.2792
   92MOL0     C12023  -0.613   6.251   5.678  0.0796 -0.6566 -1.1988
   92MOL0     C12024  -0.747   6.318   5.718 -0.7809 -0.1722  0.1294
   92MOL0     C12025  -0.841   6.345   5.599  0.2960 -0.6039  0.3502
   92MOL0     C12026  -0.986   6.387   5.647  0.2101 -0.0027  0.8421
   92MOL0     C12027  -1.077   6.405   5.525 -0.5586 -0.6720  0.3612
   92MOL0     C12028  -1.202   6.457   5.572  0.7564 -0.0791 -0.6445
   92MOL0     N12029  -1.272   6.373   5.671  0.9067  0.3843 -0.3403
   92MOL0     C12030  -1.372   6.281   5.646  0.1341  0.1422  0.6970
   92MOL0     C12031  -1.411   6.233   5.766 -0.2605 -0.0123  0.0996
   92MOL0     C12032  -1.520   6.134   5.793  0.2980 -0.4898  0.1143
   92MOL0     C12033  -1.454   6.023   5.872  0.2180  0.4152 -0.2371
   92MOL0     C12034  -1.542   5.897   5.884 -0.2231 -0.4166 -0.0189
   92MOL0     C12035  -1.686   5.901   5.947 -0.4299 -0.2444 -0.7229
   92MOL0     O12036  -1.792   5.907   5.842  0.3045  0.0850 -0.2056
   92MOL0     C12037  -1.922   5.900   5.885  0.7272  0.3151  0.2525
   92MOL0     C12038  -2.020   5.894   5.782 -0.1581 -0.1991 -0.1039
   92MOL0     C12039  -2.157   5.909   5.805  0.8032  0.2521 -0.2666
   92MOL0     C12040  -2.201   5.923   5.934  0.0665 -0.6349 -0.6182
   92MOL0     C12041  -2.345   5.950   5.960 -0.5408 -0.2983 -0.1078
   92MOL0     O12042  -2.375   5.991   6.086 -0.1300 -0.1317  0.0314
   92MOL0     C12043  -2.511   6.008   6.124 -0.5192 -0.2180 -0.4520
   92MOL0     C12044  -2.634   5.982   6.058 -0.9389 -0.4720  0.1852
   92MOL0     C12045  -2.752   6.021   6.117 -0.4037 -0.1790  0.5373
   92MOL0     C12046  -2.755   6.077   6.247 -0.6988  0.0911  0.2793
   92MOL0     O12047  -2.865   6.105   6.321  0.0501  0.1770 -0.1558
   92MOL0     C12048  -2.984   6.159   6.267 -0.4729 -0.3669  0.0118
   92MOL0     C12049  -3.084   6.189   6.381  0.3725  0.3947  0.6731
   92MOL0     C12050  -3.230   6.179   6.338  0.0819  0.8786 -0.1300
   92MOL0     C12051  -3.340   6.228   6.437  0.7866 -0.0556 -0.3505
   92MOL0     C12052  -3.355   6.385   6.436  0.3372 -0.5518  0.3829
   92MOL0     C12053  -3.435   6.442   6.548 -0.0589 -0.5141 -0.3217
   92MOL0     C12054  -3.423   6.594   6.554 -0.6920 -0.3958 -0.9351
   92MOL0     C12055  -3.555   6.665   6.600 -0.1163 -0.1697 -0.2123
   92MOL0    Cl12056  -3.681   6.605   6.476 -0.3847  0.1378 -0.0720
   92MOL0     C12057  -2.636   6.095   6.315  0.9619  0.1064  0.3529
   92MOL0     C12058  -2.515   6.067   6.254  0.5044  0.1104 -0.0090
   92MOL0     O12059  -2.423   5.932   5.867 -0.3593  0.4396 -0.2554
   92MOL0     C12060  -2.107   5.926   6.039  0.4553  0.1804 -0.4101
   92MOL0     C12061  -1.972   5.921   6.013 -0.9956 -0.9349 -0.4382
   92MOL0     N12062  -1.338   6.300   5.866  0.1872 -0.1518 -0.5460
   92MOL0     N12063  -1.263   6.378   5.808 -0.5070 -0.0076  0.3039
   92MOL0     C12064  -0.080   6.065   5.924 -0.4152  1.0263  0.1124
   92MOL0     C12065   0.057   6.081   5.920  0.0441  0.1327  0.8726
   92MOL0     C12066   0.460   6.247   5.822  0.3149 -0.4279 -0.2999
   92MOL0     C12067   0.508   6.122   5.865 -0.4250 -0.7039 -0.1115
   92MOL0     C12068   0.642   6.105   5.895 -0.9518 -0.0029 -0.7807
   92MOL0     C12069   0.738   6.206   5.873  0.7175  0.8321  0.3397
   92MOL0     O12070   0.873   6.206   5.903  0.2618 -0.2793 -0.6871
   92MOL0     C12071   0.926   6.131   6.006 -0.7223 -0.2682  0.0209
   92MOL0     C12072   1.054   6.183   6.064 -0.3399  0.3472 -0.2931
   92MOL0     C12073   1.160   6.225   5.964 -0.2498  0.0604  0.1020
   92MOL0     C12074   1.291   6.267   6.036 -0.1342  0.1921  0.1202
   92MOL0     C12075   1.403   6.269   5.949  0.4644 -0.1257  0.2675
   92MOL0     C12076   1.503   6.281   5.876 -0.7009  0.6523  0.3872
   92MOL0     C12077   0.696   6.322   5.813  0.1200 -0.6589  0.2561
   92MOL0     C12078   0.557   6.346   5.789 -0.9707  0.0331 -0.2139
   92MOL0     H12079   0.059   6.351   5.717  1.3730 -0.3079 -1.0206
   92MOL0     H12080  -0.170   6.356   5.754 -0.9933 -0.2461  0.7200
   92MOL0     H12081  -0.403   6.080   5.713 -0.1743 -0.3045 -0.2293
   92MOL0     H12082  -0.341   6.233   5.681  0.3141 -0.1007 -0.2509
   92MOL0     H12083  -0.501   6.335   5.842 -0.0105  0.7040 -1.8232
   92MOL0     H12084  -0.568   6.164   5.871  1.2704 -0.6302  1.2538
   92MOL0     H12085  -0.638   6.153   5.638  0.4910  0.0808 -3.4150
   92MOL0     H12086  -0.551   6.306   5.606  0.2613 -0.2043 -0.7090
   92MOL0     H12087  -0.802   6.253   5.787  0.4608 -2.0253 -0.5398
   92MOL0     H12088  -0.725   6.410   5.773 -2.6098  0.2335  0.2499
   92MOL0     H12089  -0.854   6.251   5.545 -0.4190  0.2028 -0.9363
   92MOL0     H12090  -0.799   6.423   5.535  0.7136 -1.7285 -0.7784
   92MOL0     H12091  -0.982   6.477   5.709 -1.2236 -0.2078  1.2694
   92MOL0     H12092  -1.019   6.307   5.713 -3.3679  0.8014  0.2259
   92MOL0     H12093  -1.032   6.473   5.452  0.4840  0.6248  2.1524
   92MOL0     H12094  -1.082   6.306   5.477  3.4589 -0.4685 -0.8550
   92MOL0     H12095  -1.273   6.478   5.491  1.2490 -0.9520 -1.3176
   92MOL0     H12096  -1.174   6.555   5.613  1.4946 -1.1977  1.6680
   92MOL0     H12097  -1.420   6.252   5.553 -0.0816  1.4089  0.3959
   92MOL0     H12098  -1.570   6.091   5.706  0.4834 -2.7410  1.0644
   92MOL0     H12099  -1.597   6.186   5.851  2.6012  0.9069  2.1612
   92MOL0     H12100  -1.441   6.058   5.975 -0.1097  2.8479 -0.9713
   92MOL0     H12101  -1.354   5.991   5.840  0.4394 -0.1538  0.9762
   92MOL0     H12102  -1.549   5.868   5.778  1.4991  1.2216 -0.6287
   92MOL0     H12103  -1.483   5.832   5.949  0.6808  0.1377 -0.2649
   92MOL0     H12104  -1.687   5.978   6.024  1.9796 -2.5281  1.8082
   92MOL0     H12105  -1.700   5.808   6.003  0.3779  0.3540  0.5211
   92MOL0     H12106  -1.990   5.903   5.678 -0.5209  2.8876 -0.0297
   92MOL0     H12107  -2.227   5.913   5.722  0.6543 -1.4740 -0.2530
   92MOL0     H12108  -2.635   5.942   5.957  1.9793  3.5476 -1.7204
   92MOL0     H12109  -2.843   6.011   6.059 -0.1135 -2.7474  0.4020
   92MOL0     H12110  -3.021   6.083   6.197  2.2377 -1.2710 -0.5359
   92MOL0     H12111  -2.970   6.254   6.215 -0.2289  0.3007  1.2669
   92MOL0     H12112  -3.072   6.290   6.422  3.8332  1.5064 -2.5740
   92MOL0     H12113  -3.073   6.116   6.462  1.1187  1.0041  1.1441
   92MOL0     H12114  -3.256   6.076   6.312 -1.1142  0.9784  0.6067
   92MOL0     H12115  -3.230   6.227   6.240 -0.0484 -0.4596 -0.8057
   92MOL0     H12116  -3.436   6.180   6.417  0.7870  0.5725 -2.1160
   92MOL0     H12117  -3.300   6.201   6.535  0.4350  2.5499  0.6086
   92MOL0     H12118  -3.408   6.417   6.346 -1.0256 -0.4592  1.1910
   92MOL0     H12119  -3.256   6.431   6.447 -0.3464  0.2930  5.6420
   92MOL0     H12120  -3.402   6.402   6.645 -0.2728 -0.4988 -0.2429
   92MOL0     H12121  -3.541   6.422   6.534 -1.1795  4.2397  0.0304
   92MOL0     H12122  -3.342   6.620   6.623 -1.9205 -1.6042  1.0496
   92MOL0     H12123  -3.414   6.619   6.448 -1.3037  0.9304 -0.6978
   92MOL0     H12124  -3.545   6.774   6.592  0.0642 -0.2978 -2.5661
   92MOL0     H12125  -3.585   6.636   6.701 -0.8779 -2.5097 -1.0407
   92MOL0     H12126  -2.645   6.150   6.408  2.0477  1.5195 -0.3296
   92MOL0     H12127  -2.426   6.097   6.308 -0.8102  1.7979  1.3287
   92MOL0     H12128  -2.135   5.946   6.142  2.6957 -0.1880  0.3478
   92MOL0     H12129  -1.901   5.937   6.093 -1.2990 -0.1696 -0.3111
   92MOL0     H12130  -0.116   5.975   5.973 -0.4285  1.5779  1.1420
   92MOL0     H12131   0.116   5.997   5.954 -0.3411 -1.5236 -2.1894
   92MOL0     H12132   0.438   6.040   5.881  0.6823 -2.0726 -1.8151
   92MOL0     H12133   0.664   6.017   5.955 -3.6076  0.2605  0.7224
   92MOL0     H12134   0.937   6.023   5.998 -1.3519 -0.5429  2.1940
   92MOL0     H12135   0.857   6.143   6.091 -1.1365 -3.1564  0.1962
   92MOL0     H12136   1.038   6.265   6.134 -2.4305 -1.3291  1.3057
   92MOL0     H12137   1.104   6.113   6.132  1.8901  1.8861 -0.2302
   92MOL0     H12138   1.128   6.316   5.911 -1.1199  0.5426  1.4070
   92MOL0     H12139   1.175   6.141   5.895 -3.5405 -3.0569  2.7949
   92MOL0     H12140   1.279   6.373   6.063  0.4051 -0.3374  2.6993
   92MOL0     H12141   1.311   6.201   6.121 -0.1403 -1.3396 -1.0231
   92MOL0     H12142   1.597   6.284   5.825 -1.9324 -2.1169 -2.3954
   92MOL0     H12143   0.773   6.396   5.799 -1.2354  0.2127 -4.2007
   92MOL0     H12144   0.523   6.438   5.743 -2.0872 -1.5099 -2.7470
   93MOL0     O12145   9.966   6.927  10.961  0.1214  0.1473  0.8902
   93MOL0     C12146  10.012   7.009  11.034 -0.8935 -0.2843 -0.0092
   93MOL0     O12147   9.951   7.119  11.083  0.3830  0.2118 -0.4221
   93MOL0     C12148   9.815   7.124  11.087  0.3387 -0.1664 -0.2373
   93MOL0     C12149   9.728   7.036  11.151 -0.3201 -0.6056  0.3084
   93MOL0     C12150   9.593   7.064  11.159  0.4781  0.9116  0.2571
   93MOL0     C12151   9.531   7.183  11.104 -0.5559  0.5958  0.2456
   93MOL0     O12152   9.394   7.208  11.118  0.4642  0.3331 -0.2093
   93MOL0     C12153   9.306   7.102  11.150  0.4798 -0.5758  0.3760
   93MOL0     C12154   9.162   7.168  11.166 -0.1241 -0.3148 -0.2645
   93MOL0     C12155   9.043   7.084  11.120 -0.0234  0.3128 -0.2005
   93MOL0     C12156   8.926   7.175  11.091  0.0125  0.5551  0.0692
   93MOL0     C12157   8.798   7.094  11.069  0.0988  0.1069 -0.1242
   93MOL0     C12158   8.676   7.185  11.041  0.2353 -0.3990  0.0251
   93MOL0     C12159   8.625   7.252  11.168  0.7505 -0.6718 -0.0301
   93MOL0     C12160   8.534   7.376  11.132  0.8593 -0.0545  0.3013
   93MOL0     N12161   8.409   7.333  11.079  0.3492 -0.0123 -0.6532
   93MOL0     C12162   8.305   7.273  11.152 -0.1636  0.0209  0.8116
   93MOL0     C12163   8.205   7.256  11.063 -0.3429 -0.4119 -0.1197
   93MOL0     C12164   8.072   7.199  11.100 -0.4400 -0.7404  0.5615
   93MOL0     C12165   8.075   7.047  11.111  0.7110  0.2919  0.3608
   93MOL0     C12166   7.944   6.980  11.160  0.0822 -0.2338  0.6856
   93MOL0     C12167   7.938   6.827  11.146 -0.4764  0.6696  0.1961
   93MOL0     O12168   8.026   6.770  11.249  0.3152  0.7025  0.4594
   93MOL0     C12169   8.155   6.744  11.219 -0.1808  0.0142  0.1655
   93MOL0     C12170   8.210   6.758  11.092  0.1741 -0.1390 -0.8265
   93MOL0     C12171   8.351   6.724  11.071 -0.0371  0.3558  1.0832
   93MOL0     C12172   8.424   6.686  11.185 -0.0668  0.2152  0.2094
   93MOL0     C12173   8.564   6.650  11.164  0.3963 -0.4367 -0.7596
   93MOL0     O12174   8.641   6.650  11.278 -0.4415 -0.2138 -0.2299
   93MOL0     C12175   8.782   6.638  11.255  0.7925  0.1071 -0.6388
   93MOL0     C12176   8.860   6.539  11.328  0.0090 -0.1049 -0.3436
   93MOL0     C12177   8.998   6.531  11.298  0.6832 -0.7131 -0.2136
   93MOL0     C12178   9.066   6.612  11.204  0.6329  0.4433  0.3433
   93MOL0     O12179   9.192   6.586  11.179  0.3835  0.1621  0.0767
   93MOL0     C12180   9.270   6.703  11.147  0.4887  0.3657 -0.6317
   93MOL0     C12181   9.421   6.672  11.143  0.2561  0.3182 -1.1341
   93MOL0     C12182   9.472   6.573  11.031  0.2377  0.2008 -0.5139
   93MOL0     C12183   9.619   6.537  11.050  0.1302 -0.7483 -0.4910
   93MOL0     C12184   9.661   6.447  10.935  0.1936  0.0802 -0.3148
   93MOL0     C12185   9.808   6.412  10.924  0.8313  0.3592 -0.4140
   93MOL0     C12186   9.843   6.309  10.811  0.7174 -0.8046 -0.6212
   93MOL0     C12187   9.995   6.299  10.798  0.2668  0.2113  0.6310
   93MOL0    Cl12188  10.045   6.183  10.663 -0.0211 -0.0767  0.4599
   93MOL0     C12189   8.991   6.711  11.138  0.0395 -0.1425  0.1530
   93MOL0     C12190   8.854   6.726  11.169 -0.2773  0.9231  0.2037
   93MOL0     O12191   8.597   6.620  11.053  0.1671  0.2337 -0.0784
   93MOL0     C12192   8.367   6.681  11.314 -0.3459 -0.2948  0.1158
   93MOL0     C12193   8.232   6.704  11.327  0.5523  0.1418 -0.2802
   93MOL0     N12194   8.252   7.288  10.938 -0.3599 -0.2555  0.1529
   93MOL0     N12195   8.372   7.348  10.955 -0.3154  0.7799  1.0901
   93MOL0     C12196   9.621   7.269  11.036  0.4963  0.1173  0.0730
   93MOL0     C12197   9.757   7.241  11.033 -0.6226 -0.8430  0.5969
   93MOL0     C12198  10.152   7.000  11.091 -0.7118  0.5329  0.0880
   93MOL0     C12199  10.187   7.041  11.219 -1.5323  1.0242 -0.0708
   93MOL0     C12200  10.320   7.015  11.269  0.2648  0.4707  0.0941
   93MOL0     C12201  10.420   6.965  11.191 -0.4018  0.1349 -0.5427
   93MOL0     O12202  10.552   6.952  11.229 -0.0516 -0.3412 -0.3763
   93MOL0     C12203  10.604   7.034  11.339 -0.3344 -0.0705  0.3637
   93MOL0     C12204  10.727   6.973  11.388 -0.1717 -0.1356 -0.1396
   93MOL0     C12205  10.839   6.997  11.285  0.0013 -0.1018  0.5865
   93MOL0     C12206  10.963   6.929  11.336  0.2383  0.4217  0.7345
   93MOL0     C12207  11.024   6.983  11.458  0.3896  0.0782 -0.1491
   93MOL0     C12208  11.068   7.033  11.557 -0.4631 -0.2160  0.0937
   93MOL0     C12209  10.389   6.933  11.058  0.7677 -0.0276 -0.4192
   93MOL0     C12210  10.251   6.938  11.007  0.4374  0.2055 -0.4035
   93MOL0     H12211   9.759   6.943  11.197 -2.2429  0.3691  3.9572
   93MOL0     H12212   9.543   6.991  11.222  2.8731 -1.0373  0.0227
   93MOL0     H12213   9.329   7.048  11.243 -0.6212  0.7457  1.4524
   93MOL0     H12214   9.305   7.026  11.071  2.3711  0.7261 -0.9895
   93MOL0     H12215   9.165   7.253  11.097  2.7556 -1.3195 -1.5202
   93MOL0     H12216   9.151   7.199  11.270  3.8225 -2.7560  1.0806
   93MOL0     H12217   9.007   7.011  11.193 -1.3933  0.5647 -0.6064
   93MOL0     H12218   9.068   7.029  11.029 -2.2019 -0.6713 -0.2542
   93MOL0     H12219   8.915   7.253  11.166  0.8944  0.7468  0.0098
   93MOL0     H12220   8.946   7.219  10.993  0.1439  0.0517 -0.1342
   93MOL0     H12221   8.783   7.050  11.168 -0.9336  1.6963  0.4667
   93MOL0     H12222   8.820   7.023  10.989  4.0343  3.6246 -2.5767
   93MOL0     H12223   8.590   7.130  11.002 -1.5246  0.2487  2.6690
   93MOL0     H12224   8.702   7.260  10.967 -1.9176 -1.1490 -1.6153
   93MOL0     H12225   8.567   7.185  11.233  2.0003  0.4192  2.2888
   93MOL0     H12226   8.699   7.297  11.234 -2.3507  3.0013  1.3776
   93MOL0     H12227   8.592   7.442  11.067 -2.1403  1.0349 -1.4550
   93MOL0     H12228   8.514   7.439  11.220 -1.3348  0.4371 -0.4686
   93MOL0     H12229   8.306   7.259  11.260  1.8279 -1.4443  0.6566
   93MOL0     H12230   8.007   7.236  11.020  0.0497  1.7848  1.2238
   93MOL0     H12231   8.050   7.247  11.196 -0.2514 -0.9960  0.7327
   93MOL0     H12232   8.152   7.025  11.185  0.4474  1.0616  0.8685
   93MOL0     H12233   8.102   7.006  11.013 -0.6521 -1.2625  0.5903
   93MOL0     H12234   7.921   7.012  11.262 -2.7761  0.6777 -0.1481
   93MOL0     H12235   7.858   7.025  11.111 -0.0201  0.6023  1.6035
   93MOL0     H12236   7.960   6.806  11.041 -3.1670  0.5955 -0.4400
   93MOL0     H12237   7.835   6.792  11.159 -0.9077  1.3036 -1.3143
   93MOL0     H12238   8.154   6.782  11.002 -1.5120 -2.7708 -0.5883
   93MOL0     H12239   8.391   6.727  10.971  1.1427  1.7850  1.5705
   93MOL0     H12240   8.815   6.470  11.399 -2.4709  1.6364 -0.0840
   93MOL0     H12241   9.046   6.446  11.346  1.8218  0.1649  0.2631
   93MOL0     H12242   9.258   6.779  11.224 -0.3855 -0.0541 -0.3372
   93MOL0     H12243   9.234   6.747  11.053 -2.6307  0.0406  0.2694
   93MOL0     H12244   9.445   6.634  11.243 -0.6831  3.1504  0.2730
   93MOL0     H12245   9.464   6.772  11.148 -2.0650  1.4569 -2.2132
   93MOL0     H12246   9.454   6.612  10.931 -3.1981 -1.0502 -0.5069
   93MOL0     H12247   9.415   6.480  11.035  0.6346 -0.1363 -2.0615
   93MOL0     H12248   9.672   6.633  11.042 -3.2867  1.1843 -2.7865
   93MOL0     H12249   9.646   6.481  11.140  3.2075 -3.1108 -2.6645
   93MOL0     H12250   9.625   6.497  10.844 -2.1584 -1.3774 -0.2780
   93MOL0     H12251   9.605   6.353  10.943  1.4045 -0.7962 -1.4794
   93MOL0     H12252   9.825   6.356  11.017 -1.0033 -1.1401 -0.9040
   93MOL0     H12253   9.861   6.507  10.913 -0.2691  1.3932  2.1477
   93MOL0     H12254   9.802   6.210  10.836 -1.2917  0.4127  1.2551
   93MOL0     H12255   9.798   6.346  10.718 -3.4255  1.4944  1.9703
   93MOL0     H12256  10.043   6.263  10.890  1.5423 -0.5337 -0.2998
   93MOL0     H12257  10.047   6.394  10.783 -2.6248  1.9596  0.9712
   93MOL0     H12258   9.048   6.767  11.065 -0.8398 -1.6349 -1.7531
   93MOL0     H12259   8.800   6.801  11.113  0.6748  2.9647  1.9057
   93MOL0     H12260   8.424   6.638  11.395  0.4005 -0.0851 -0.2943
   93MOL0     H12261   8.192   6.694  11.428  0.1096  2.0725 -0.2258
   93MOL0     H12262   9.592   7.362  10.988 -0.7886 -0.5065 -0.4072
   93MOL0     H12263   9.820   7.318  10.990 -0.8015 -0.6219  0.7338
   93MOL0     H12264  10.125   7.086  11.296  2.0083  1.3367  2.8620
   93MOL0     H12265  10.338   7.041  11.373 -1.3017  1.9293  0.0458
   93MOL0     H12266  10.530   7.024  11.419  1.5058  0.6446  2.2700
   93MOL0     H12267  10.612   7.141  11.317  0.7298 -0.2317 -0.1091
   93MOL0     H12268  10.764   7.025  11.477  0.2010  0.4876 -0.6518
   93MOL0     H12269  10.718   6.868  11.417 -0.5989 -0.5109 -1.5595
   93MOL0     H12270  10.863   7.103  11.280 -0.9947  0.0606 -1.8759
   93MOL0     H12271  10.808   6.954  11.189 -2.9194  0.2268  1.2735
   93MOL0     H12272  10.929   6.828  11.362  0.1240  0.1886 -0.2682
   93MOL0     H12273  11.043   6.914  11.263 -1.0254 -0.6378 -0.4965
   93MOL0     H12274  11.127   7.077  11.635  0.4594 -1.4328  0.1055
   93MOL0     H12275  10.480   6.905  11.006  1.9908 -0.0251  1.6311
   93MOL0     H12276  10.223   6.902  10.909 -2.2758 -2.5666  1.2042
   94MOL0     O12277   4.045   3.022   9.231  0.8525 -0.2346  0.0978
   94MOL0     C12278   4.153   3.052   9.179  0.4302 -0.2058  0.4865
   94MOL0     O12279   4.166   3.116   9.061  0.2752  0.5386  0.1382
   94MOL0     C12280   4.061   3.156   8.985  0.1970  0.6382  1.1309
   94MOL0     C12281   3.923   3.110   8.988 -0.7960  0.6588 -0.3635
   94MOL0     C12282   3.826   3.158   8.902 -0.9610  0.4387 -0.5049
   94MOL0     C12283   3.862   3.243   8.797 -0.0034  0.1929  0.2001
   94MOL0     O12284   3.776   3.298   8.706 -0.2336  0.4885 -0.0584
   94MOL0     C12285   3.641   3.255   8.719  1.3542  0.2553 -0.6069
   94MOL0     C12286   3.555   3.345   8.634 -0.5650 -0.1939  0.0022
   94MOL0     C12287   3.402   3.327   8.642  0.2199 -0.7721 -0.6462
   94MOL0     C12288   3.335   3.396   8.521 -0.7574 -0.3163 -0.2726
   94MOL0     C12289   3.174   3.424   8.536  0.8752  0.5579  1.1887
   94MOL0     C12290   3.107   3.483   8.410 -0.2879 -0.5438 -0.1534
   94MOL0     C12291   3.142   3.395   8.289  1.2502 -0.0169  0.5109
   94MOL0     C12292   3.064   3.436   8.157  0.1311 -0.1267 -1.1712
   94MOL0     N12293   3.133   3.551   8.088  0.3079 -0.7580  0.0280
   94MOL0     C12294   3.072   3.673   8.065  0.3278 -0.1974  0.1264
   94MOL0     C12295   3.152   3.742   7.981 -0.4537 -0.1434  0.7432
   94MOL0     C12296   3.126   3.881   7.921  0.0916 -0.7193 -0.0966
   94MOL0     C12297   2.979   3.906   7.886  0.1249 -1.1193  0.8517
   94MOL0     C12298   2.911   3.994   7.985  0.3195  0.6505  0.4372
   94MOL0     C12299   2.774   4.039   7.924  0.0899  0.2203 -0.0620
   94MOL0     O12300   2.707   3.919   7.892  0.2266  0.2655 -0.3122
   94MOL0     C12301   2.579   3.934   7.848  0.0682  0.1441  0.1702
   94MOL0     C12302   2.515   4.056   7.824 -0.3986  0.3994  0.9836
   94MOL0     C12303   2.398   4.062   7.748 -0.5295 -0.4213 -0.2769
   94MOL0     C12304   2.320   3.952   7.724  0.1101 -0.1137 -0.2732
   94MOL0     C12305   2.184   3.975   7.673 -0.7960 -0.5716 -0.7488
   94MOL0     O12306   2.104   3.860   7.667 -0.2549 -0.2706  1.0275
   94MOL0     C12307   1.967   3.869   7.659  0.2863  0.6654  0.6618
   94MOL0     C12308   1.893   3.948   7.743  0.8056  0.5663  0.4183
   94MOL0     C12309   1.750   3.933   7.736  0.5513 -0.0180  0.2642
   94MOL0     C12310   1.690   3.858   7.636 -0.3573  0.6115 -0.4159
   94MOL0     O12311   1.556   3.843   7.616  1.2428 -0.0365 -0.0204
   94MOL0     C12312   1.475   3.953   7.671 -0.0808  0.4786  0.4139
   94MOL0     C12313   1.326   3.918   7.637 -0.0274  0.7289  0.1202
   94MOL0     C12314   1.275   3.788   7.714  0.1809 -0.0915 -0.7981
   94MOL0     C12315   1.127   3.781   7.672  0.3465 -0.1175  0.6437
   94MOL0     C12316   1.036   3.677   7.753 -0.5675  0.8250 -0.2835
   94MOL0     C12317   0.913   3.622   7.688  0.4754  0.2012 -0.1604
   94MOL0     C12318   0.821   3.747   7.653  0.6924 -0.2704  0.0059
   94MOL0     C12319   0.673   3.722   7.663 -0.5563  0.2248 -0.4970
   94MOL0    Cl12320   0.619   3.702   7.842 -0.1192 -0.4889  0.1605
   94MOL0     C12321   1.769   3.787   7.549  0.5508 -0.1917  0.0429
   94MOL0     C12322   1.910   3.796   7.560  0.8876  0.8042 -0.4137
   94MOL0     O12323   2.153   4.089   7.637  0.1242 -0.0864 -1.0149
   94MOL0     C12324   2.367   3.827   7.760 -0.2600  0.1787 -1.1162
   94MOL0     C12325   2.499   3.827   7.814  0.2533  0.6467  0.3721
   94MOL0     N12326   3.258   3.654   7.942  0.4732 -0.3336  0.2437
   94MOL0     N12327   3.245   3.545   8.009  0.0092  0.7901 -0.3253
   94MOL0     C12328   3.993   3.294   8.804 -0.7167 -0.2936 -0.1841
   94MOL0     C12329   4.095   3.246   8.886  0.0320 -0.0975  0.3451
   94MOL0     C12330   4.287   3.029   9.246  0.0520 -0.1380 -0.7881
   94MOL0     C12331   4.404   3.037   9.172  0.1486  0.2380 -0.1118
   94MOL0     C12332   4.534   3.004   9.228 -0.8144  0.5199 -0.2112
   94MOL0     C12333   4.534   2.964   9.366 -0.1359 -0.4923 -0.7716
   94MOL0     O12334   4.646   2.936   9.447 -0.2246 -0.3914  0.2515
   94MOL0     C12335   4.775   2.942   9.384 -0.9434  0.8073 -0.5038
   94MOL0     C12336   4.868   2.898   9.496 -0.1310  0.3787  0.1560
   94MOL0     C12337   4.843   2.749   9.550 -0.0989  0.7752 -0.1949
   94MOL0     C12338   4.930   2.691   9.661 -0.3567 -0.1698  0.1332
   94MOL0     C12339   5.067   2.743   9.667 -0.9841  0.2097 -0.3835
   94MOL0     C12340   5.180   2.781   9.670 -0.4943 -0.3142 -0.3202
   94MOL0     C12341   4.417   2.976   9.445 -0.8475  0.0819  0.4149
   94MOL0     C12342   4.293   3.007   9.389 -0.4379 -0.1915 -0.0597
   94MOL0     H12343   3.883   3.039   9.059 -0.2574 -0.2257 -0.9242
   94MOL0     H12344   3.728   3.112   8.913 -0.1237 -1.8433 -1.9007
   94MOL0     H12345   3.624   3.269   8.827  0.4304  0.4495 -0.7667
   94MOL0     H12346   3.622   3.151   8.692  0.3024  0.3571 -0.3326
   94MOL0     H12347   3.579   3.313   8.532 -1.3306  2.0665 -0.9421
   94MOL0     H12348   3.576   3.451   8.652 -0.0494  0.0314 -1.7445
   94MOL0     H12349   3.358   3.382   8.726 -0.2906 -0.2595 -1.2325
   94MOL0     H12350   3.372   3.222   8.638 -0.2362 -0.6170 -2.9342
   94MOL0     H12351   3.374   3.496   8.498  0.2185 -0.5884  0.1295
   94MOL0     H12352   3.366   3.328   8.441  0.5961  1.2050 -1.1062
   94MOL0     H12353   3.158   3.496   8.615 -1.6312  0.3504  0.9317
   94MOL0     H12354   3.128   3.331   8.572 -4.2761  1.2642 -2.4763
   94MOL0     H12355   3.140   3.586   8.395 -3.1742  1.1793  3.5753
   94MOL0     H12356   2.998   3.488   8.416 -0.4416 -1.1409 -2.0463
   94MOL0     H12357   3.248   3.385   8.263  1.7271 -1.0553  2.6467
   94MOL0     H12358   3.102   3.296   8.309 -1.1646  1.0376  1.2379
   94MOL0     H12359   2.958   3.458   8.177 -0.1004 -1.5569 -0.6719
   94MOL0     H12360   3.067   3.347   8.093 -3.1118 -0.6048 -0.8583
   94MOL0     H12361   2.980   3.708   8.111  1.4247  0.7619  1.6777
   94MOL0     H12362   3.193   3.886   7.834  1.7066 -0.9415  1.0718
   94MOL0     H12363   3.155   3.960   7.992  0.3179 -0.8066 -0.0899
   94MOL0     H12364   2.926   3.812   7.872 -1.4019 -0.4051  1.6025
   94MOL0     H12365   2.984   3.966   7.795 -1.4994 -1.0697  0.7752
   94MOL0     H12366   2.893   3.937   8.077 -1.4932  2.2944  1.1679
   94MOL0     H12367   2.972   4.082   8.007  3.2551 -1.2113  0.4031
   94MOL0     H12368   2.796   4.100   7.836 -0.8872 -0.2786 -0.6632
   94MOL0     H12369   2.722   4.103   7.996  0.2917  0.6270 -0.2762
   94MOL0     H12370   2.561   4.146   7.864 -0.4599  0.7351  0.3147
   94MOL0     H12371   2.363   4.164   7.733  2.3473  1.0871  2.0927
   94MOL0     H12372   1.941   4.007   7.821  0.0926  1.2945  0.3235
   94MOL0     H12373   1.696   3.986   7.814 -1.3399 -1.0800 -0.2534
   94MOL0     H12374   1.505   4.050   7.630  0.1300 -0.3395 -1.4505
   94MOL0     H12375   1.489   3.957   7.779  0.5169  1.6333  0.3035
   94MOL0     H12376   1.313   3.911   7.528  1.2483  1.2306 -0.0962
   94MOL0     H12377   1.267   4.002   7.674  0.7642  0.8339  1.1862
   94MOL0     H12378   1.278   3.808   7.821  1.2492  0.7908 -0.9727
   94MOL0     H12379   1.337   3.702   7.689  0.2374 -0.3187  0.1093
   94MOL0     H12380   1.081   3.878   7.694  1.8788  0.7563  0.1866
   94MOL0     H12381   1.121   3.754   7.566  0.8641  1.5600  0.1513
   94MOL0     H12382   1.005   3.707   7.853 -1.2262 -1.5780  0.3008
   94MOL0     H12383   1.100   3.588   7.763  0.0890  0.9862 -2.4746
   94MOL0     H12384   0.851   3.552   7.746 -0.6022  0.5249 -0.8895
   94MOL0     H12385   0.941   3.570   7.596  0.8606  0.7209 -0.3352
   94MOL0     H12386   0.852   3.828   7.719  0.6002  2.4395 -3.0256
   94MOL0     H12387   0.839   3.782   7.551 -1.0077 -0.7336 -0.4908
   94MOL0     H12388   0.656   3.630   7.606 -1.3061  0.3610 -0.4920
   94MOL0     H12389   0.621   3.805   7.616 -0.8151  0.2452 -0.1791
   94MOL0     H12390   1.721   3.726   7.472 -2.0391  0.8392  0.7480
   94MOL0     H12391   1.978   3.728   7.511  2.6630  0.8905  1.7806
   94MOL0     H12392   2.305   3.742   7.735  0.5080 -1.7748  2.8347
   94MOL0     H12393   2.539   3.728   7.835 -0.9564  0.3016  1.1911
   94MOL0     H12394   4.021   3.365   8.727 -0.8664  1.1738  1.0661
   94MOL0     H12395   4.198   3.281   8.879  0.1835 -0.5459  0.2925
   94MOL0     H12396   4.397   3.078   9.072 -0.8394  2.4703  0.8126
   94MOL0     H12397   4.624   3.007   9.168 -0.3939  1.4326  0.4286
   94MOL0     H12398   4.801   3.045   9.359  0.5195  0.5051 -0.2662
   94MOL0     H12399   4.774   2.869   9.302 -0.6947 -4.1126  3.3568
   94MOL0     H12400   4.969   2.902   9.455  1.6686 -0.6784  4.0068
   94MOL0     H12401   4.872   2.980   9.568  3.0948  0.6845 -0.2236
   94MOL0     H12402   4.845   2.675   9.469  2.1423 -0.3934  0.8293
   94MOL0     H12403   4.737   2.751   9.580  0.0924  0.1730  0.5574
   94MOL0     H12404   4.886   2.713   9.759  1.9809 -0.4083  1.3004
   94MOL0     H12405   4.939   2.583   9.672  2.7024  0.2014  2.2808
   94MOL0     H12406   5.281   2.815   9.671 -0.2850 -0.9209  0.4468
   94MOL0     H12407   4.427   2.972   9.553  1.5634 -2.6582  0.2185
   94MOL0     H12408   4.198   2.996   9.440 -2.1159  2.5179 -2.2992
   95MOL0     O12409   2.744   0.885   4.526 -0.0809 -0.0312 -0.1021
   95MOL0     C12410   2.795   0.914   4.415  0.0121 -0.4955 -0.2071
   95MOL0     O12411   2.726   0.981   4.315  0.4995 -0.0081 -0.0833
   95MOL0     C12412   2.587   0.994   4.315  0.0124 -0.6582 -0.3416
   95MOL0     C12413   2.516   1.043   4.426 -0.3601  0.1018  0.4274
   95MOL0     C12414   2.372   1.067   4.423  0.9664 -0.4402 -0.1654
   95MOL0     C12415   2.295   1.036   4.311  0.2184  0.1910  0.6129
   95MOL0     O12416   2.158   1.055   4.305  0.6091 -0.6109  0.1858
   95MOL0     C12417   2.078   0.959   4.236 -0.2726  0.5817  0.7544
   95MOL0     C12418   1.930   0.999   4.249 -0.1601  0.0466  0.4326
   95MOL0     C12419   1.846   0.868   4.220 -0.0051  0.2937  0.0455
   95MOL0     C12420   1.824   0.775   4.340  0.8227 -0.1574 -0.0723
   95MOL0     C12421   1.764   0.640   4.290 -0.1907  0.3383 -0.3172
   95MOL0     C12422   1.649   0.662   4.195  0.3969  0.3285  0.7565
   95MOL0     C12423   1.593   0.522   4.147  0.3890  0.3389 -0.4322
   95MOL0     C12424   1.524   0.440   4.252  0.5408  0.3222  1.0509
   95MOL0     N12425   1.399   0.510   4.313  0.1726 -0.1255 -0.0850
   95MOL0     C12426   1.403   0.589   4.427 -0.6719  0.4414  0.1519
   95MOL0     C12427   1.282   0.635   4.445  0.6045  0.3370 -0.2308
   95MOL0     C12428   1.254   0.732   4.564 -0.5745  0.4033  0.4703
   95MOL0     C12429   1.221   0.874   4.511  0.7496 -0.8449  0.0885
   95MOL0     C12430   1.207   0.977   4.629  0.8301  0.4927 -0.8738
   95MOL0     C12431   1.171   1.118   4.574 -0.1400 -0.6870 -0.7881
   95MOL0     O12432   1.180   1.225   4.671  0.5962 -0.3078  0.4326
   95MOL0     C12433   1.093   1.200   4.778 -1.0315  0.5979 -0.2002
   95MOL0     C12434   0.951   1.193   4.769 -0.2610 -0.5370  0.1176
   95MOL0     C12435   0.874   1.164   4.874 -0.2174  0.1563 -0.5331
   95MOL0     C12436   0.933   1.142   5.003  0.1163  0.5407  0.0596
   95MOL0     C12437   0.847   1.100   5.119 -0.1705 -0.0002  0.3602
   95MOL0     O12438   0.718   1.052   5.089 -0.0070  0.1520 -0.5405
   95MOL0     C12439   0.608   1.046   5.177  0.0864  0.1453  0.2669
   95MOL0     C12440   0.499   0.970   5.136 -0.2602  0.0006 -0.5153
   95MOL0     C12441   0.389   0.944   5.223 -0.5882  0.5594  0.2930
   95MOL0     C12442   0.382   1.003   5.351  0.4158 -1.1745  1.0896
   95MOL0     O12443   0.284   0.993   5.452 -0.5936  0.9569  0.5327
   95MOL0     C12444   0.159   0.941   5.418 -0.6897  0.2936 -0.5124
   95MOL0     C12445   0.073   0.956   5.552 -0.1309 -0.3435  0.2021
   95MOL0     C12446  -0.064   0.891   5.528  0.3206 -0.1610 -0.7332
   95MOL0     C12447  -0.168   0.919   5.632  0.3673 -0.6011 -0.0325
   95MOL0     C12448  -0.265   0.798   5.627 -0.7142  0.2449  0.2639
   95MOL0     C12449  -0.354   0.813   5.749 -0.0747  0.0385  0.2276
   95MOL0     C12450  -0.484   0.729   5.732  0.0028  0.5439  0.7025
   95MOL0     C12451  -0.556   0.714   5.861 -0.6493  0.1950  0.2078
   95MOL0    Cl12452  -0.609   0.878   5.912 -0.0370 -0.3301  0.4448
   95MOL0     C12453   0.487   1.089   5.387 -0.1128 -0.3128 -0.3698
   95MOL0     C12454   0.595   1.108   5.302 -0.0154  0.3105 -0.0898
   95MOL0     O12455   0.899   1.099   5.231  0.0814 -0.1960 -0.8405
   95MOL0     C12456   1.074   1.162   5.018 -0.0332 -0.1043 -0.5596
   95MOL0     C12457   1.154   1.189   4.905 -0.2995 -0.2429 -0.0048
   95MOL0     N12458   1.195   0.573   4.359  0.1539 -0.2344 -0.2448
   95MOL0     N12459   1.267   0.512   4.282 -0.0247  0.2756  0.5372
   95MOL0     C12460   2.369   0.988   4.203  0.0276 -0.2238  0.8247
   95MOL0     C12461   2.507   0.965   4.206  0.2969  0.3835  0.5658
   95MOL0     C12462   2.940   0.900   4.400  0.5534  0.5277 -0.3113
   95MOL0     C12463   3.005   0.961   4.293  0.3036 -0.2335 -0.4533
   95MOL0     C12464   3.146   0.954   4.281  0.2846 -0.3035 -0.0649
   95MOL0     C12465   3.225   0.907   4.389  0.3723  0.3307 -0.0359
   95MOL0     O12466   3.360   0.910   4.390 -0.3797  0.4027 -0.2236
   95MOL0     C12467   3.449   0.914   4.509 -0.7283  0.7069  0.2522
   95MOL0     C12468   3.593   0.888   4.463 -0.6998  0.6664 -0.2237
   95MOL0     C12469   3.686   0.884   4.590  0.3991  0.0796 -0.1430
   95MOL0     C12470   3.830   0.881   4.548 -0.5278  0.3110 -0.1117
   95MOL0     C12471   3.913   0.900   4.666 -0.7874 -1.1538 -0.8345
   95MOL0     C12472   3.985   0.896   4.763 -0.3284 -0.7582  0.0600
   95MOL0     C12473   3.153   0.850   4.499 -0.2950  0.1416 -0.2258
   95MOL0     C12474   3.017   0.833   4.498 -0.8699 -0.3519  0.8170
   95MOL0     H12475   2.577   1.069   4.512  1.9452  1.2420 -1.4094
   95MOL0     H12476   2.304   1.103   4.500 -0.3602 -2.0472 -0.5432
   95MOL0     H12477   2.105   0.855   4.259 -0.2295 -0.5147 -3.4748
   95MOL0     H12478   2.101   0.966   4.130 -0.6390 -3.1646  0.3146
   95MOL0     H12479   1.907   1.071   4.169 -0.1716 -1.0270 -0.5562
   95MOL0     H12480   1.907   1.050   4.343  1.4284  0.1330  0.8184
   95MOL0     H12481   1.893   0.809   4.141 -1.2047  0.8194 -1.0883
   95MOL0     H12482   1.757   0.906   4.170  0.4285 -1.0184 -1.8371
   95MOL0     H12483   1.920   0.749   4.385  1.4453 -0.7947 -1.6798
   95MOL0     H12484   1.755   0.825   4.408 -0.6081 -0.6262 -1.1379
   95MOL0     H12485   1.725   0.578   4.371 -1.8849 -1.8726 -2.6919
   95MOL0     H12486   1.833   0.581   4.229 -1.0468  0.5611 -1.5274
   95MOL0     H12487   1.672   0.712   4.101  1.9740 -0.0994  0.8951
   95MOL0     H12488   1.567   0.716   4.244 -0.5103 -0.9183  0.6523
   95MOL0     H12489   1.520   0.530   4.066  1.2669  1.4259 -1.1541
   95MOL0     H12490   1.678   0.466   4.108 -0.6056 -2.9097  1.6739
   95MOL0     H12491   1.582   0.422   4.343 -1.6058  1.4510  2.7477
   95MOL0     H12492   1.500   0.347   4.200 -0.9139  2.4933 -2.5421
   95MOL0     H12493   1.493   0.610   4.483 -1.9776 -1.4197  3.1908
   95MOL0     H12494   1.343   0.746   4.626 -0.4016  1.6670 -0.0415
   95MOL0     H12495   1.168   0.689   4.617 -1.4792  1.3162 -0.2089
   95MOL0     H12496   1.138   0.875   4.440 -0.0571 -0.5251  1.0114
   95MOL0     H12497   1.314   0.901   4.462 -0.5298  1.9349 -0.9792
   95MOL0     H12498   1.122   0.949   4.692 -0.3620 -0.7332 -2.9129
   95MOL0     H12499   1.302   0.977   4.682  0.3324 -1.9562  0.1994
   95MOL0     H12500   1.070   1.105   4.532 -1.7452 -0.4610  2.6126
   95MOL0     H12501   1.242   1.148   4.497 -0.2128 -1.0003 -0.9814
   95MOL0     H12502   0.907   1.190   4.671 -2.7495  0.4687  1.1239
   95MOL0     H12503   0.769   1.139   4.863 -0.1544 -0.3027 -0.1609
   95MOL0     H12504   0.496   0.923   5.038 -1.7606  0.9203 -0.9238
   95MOL0     H12505   0.317   0.874   5.183 -0.1083  1.9314 -3.3432
   95MOL0     H12506   0.167   0.834   5.397 -0.5548  0.1240  0.3424
   95MOL0     H12507   0.112   0.992   5.334 -0.2644  2.3049  0.4137
   95MOL0     H12508   0.055   1.061   5.575  0.2874 -0.1252 -0.4421
   95MOL0     H12509   0.122   0.916   5.641  0.3592  0.6144  0.3752
   95MOL0     H12510  -0.044   0.783   5.533  0.8620 -0.2179 -2.9475
   95MOL0     H12511  -0.109   0.914   5.431 -2.2963  0.1416  0.4761
   95MOL0     H12512  -0.122   0.936   5.729 -1.8053  0.1562  0.9405
   95MOL0     H12513  -0.222   1.012   5.611 -0.3321 -0.4400  2.1792
   95MOL0     H12514  -0.206   0.705   5.631 -1.2303 -0.0813  0.3752
   95MOL0     H12515  -0.325   0.799   5.536  1.8673  0.6200 -1.5292
   95MOL0     H12516  -0.380   0.919   5.743  0.1116  0.0397 -0.9053
   95MOL0     H12517  -0.305   0.791   5.844 -1.1051  0.5990  0.9119
   95MOL0     H12518  -0.552   0.762   5.652 -0.1392 -1.5667 -0.1245
   95MOL0     H12519  -0.451   0.628   5.703  1.1157  0.3355  2.5926
   95MOL0     H12520  -0.494   0.670   5.940 -2.1236  0.0061  1.2820
   95MOL0     H12521  -0.644   0.652   5.841 -0.4815  0.5682 -1.9530
   95MOL0     H12522   0.484   1.140   5.483  1.5252  0.1230 -0.5179
   95MOL0     H12523   0.675   1.170   5.341  0.1082 -0.9509  1.7847
   95MOL0     H12524   1.126   1.137   5.110  3.8009  1.2539 -2.1415
   95MOL0     H12525   1.262   1.185   4.919 -0.4815  1.1370  2.0442
   95MOL0     H12526   2.311   0.944   4.123 -0.0022 -1.9211  1.7382
   95MOL0     H12527   2.553   0.930   4.114 -0.4886  0.2746  0.2063
   95MOL0     H12528   2.943   0.991   4.209 -0.2549 -1.7078 -0.5944
   95MOL0     H12529   3.196   0.981   4.189  1.5517 -0.1299  0.6602
   95MOL0     H12530   3.415   0.853   4.593 -1.8051  0.5003 -0.3157
   95MOL0     H12531   3.466   1.017   4.543  3.9831  0.6176 -1.1483
   95MOL0     H12532   3.603   0.788   4.418  1.7634 -0.1732  1.9770
   95MOL0     H12533   3.622   0.954   4.381  2.0699 -1.5891 -1.2122
   95MOL0     H12534   3.677   0.804   4.665  0.1827  0.7278  0.5274
   95MOL0     H12535   3.667   0.974   4.648 -0.4709 -0.7711  0.9526
   95MOL0     H12536   3.841   0.792   4.485 -4.1513 -1.3959  1.3754
   95MOL0     H12537   3.856   0.966   4.485 -1.2185 -0.6467 -1.7589
   95MOL0     H12538   4.041   0.907   4.853  1.4701  1.5124 -1.2264
   95MOL0     H12539   3.197   0.810   4.590 -2.7443  0.2159  1.0772
   95MOL0     H12540   2.961   0.796   4.583 -2.5672 -1.5415 -0.7472
   96MOL0     O12541   6.848   3.198   7.252  0.0380  0.5081 -0.9754
   96MOL0     C12542   6.925   3.263   7.320  0.3620 -0.7024  0.1110
   96MOL0     O12543   6.891   3.367   7.396 -0.0915 -0.5519 -0.4656
   96MOL0     C12544   6.766   3.409   7.404 -0.2842 -0.1846 -0.6388
   96MOL0     C12545   6.744   3.528   7.344 -0.0829 -0.1024 -0.0252
   96MOL0     C12546   6.611   3.574   7.325  0.0298  0.1461 -0.2249
   96MOL0     C12547   6.501   3.503   7.375  0.9403  0.4257  0.0755
   96MOL0     O12548   6.362   3.538   7.368  0.0135  0.1328  0.7315
   96MOL0     C12549   6.334   3.683   7.360 -0.1083  0.3384 -0.3696
   96MOL0     C12550   6.177   3.685   7.377 -0.5617 -0.4452 -0.2106
   96MOL0     C12551   6.146   3.652   7.530 -0.7442 -0.4996  0.1484
   96MOL0     C12552   5.999   3.616   7.561 -0.6721 -1.4252 -0.0738
   96MOL0     C12553   5.951   3.631   7.707 -0.1389 -0.0645  0.4335
   96MOL0     C12554   5.801   3.600   7.734  1.0878  0.0508  0.3835
   96MOL0     C12555   5.778   3.530   7.874  0.1849  0.2016 -0.2493
   96MOL0     C12556   5.640   3.477   7.874  0.2117  0.3763 -0.1441
   96MOL0     N12557   5.525   3.546   7.812  0.3830 -0.4368 -0.1737
   96MOL0     C12558   5.438   3.497   7.718  0.1574  0.2223 -1.0359
   96MOL0     C12559   5.335   3.585   7.719  0.3454  0.1925  0.4716
   96MOL0     C12560   5.213   3.580   7.636  0.9798  0.2154 -0.0330
   96MOL0     C12561   5.084   3.574   7.709  0.2301  0.3404 -0.3216
   96MOL0     C12562   4.965   3.608   7.614 -0.1007  0.4653 -0.6173
   96MOL0     C12563   4.836   3.581   7.688 -0.0664  0.1662  0.6202
   96MOL0     O12564   4.717   3.605   7.609  0.0707  1.1351  0.3618
   96MOL0     C12565   4.662   3.500   7.531 -0.8156 -0.1937 -1.0500
   96MOL0     C12566   4.728   3.375   7.502 -0.8309 -0.0105 -0.2877
   96MOL0     C12567   4.683   3.287   7.413 -0.5596 -0.4314 -0.1749
   96MOL0     C12568   4.552   3.314   7.355 -0.7352 -0.1035  0.4226
   96MOL0     C12569   4.498   3.229   7.261 -0.5970  0.6294  0.1756
   96MOL0     O12570   4.543   3.091   7.257  0.6329 -0.4562  0.1219
   96MOL0     C12571   4.481   2.999   7.178  0.9170  1.0456 -0.7783
   96MOL0     C12572   4.353   3.007   7.124 -0.5695 -0.0941  1.0385
   96MOL0     C12573   4.304   2.894   7.056 -0.5813  0.1767 -0.6675
   96MOL0     C12574   4.374   2.771   7.043  0.2801 -0.9163 -0.7359
   96MOL0     O12575   4.310   2.662   6.997  0.0207 -0.0741  0.3531
   96MOL0     C12576   4.393   2.587   6.898 -0.1869 -0.7959 -0.1614
   96MOL0     C12577   4.307   2.506   6.804  0.5286 -0.5884  0.3730
   96MOL0     C12578   4.186   2.585   6.748 -0.7412  0.1333  0.1001
   96MOL0     C12579   4.093   2.484   6.684  0.2428  0.4154 -0.3043
   96MOL0     C12580   3.997   2.542   6.574  0.7016  0.3592  0.0447
   96MOL0     C12581   4.062   2.589   6.441 -0.5185  0.0166 -0.1513
   96MOL0     C12582   3.955   2.654   6.349  0.8486  0.0735 -0.7972
   96MOL0     C12583   4.008   2.737   6.230 -0.8560 -0.2017  0.2088
   96MOL0    Cl12584   3.863   2.836   6.184  0.3458 -0.2950 -0.4347
   96MOL0     C12585   4.501   2.769   7.098 -0.1024 -0.1080  0.1055
   96MOL0     C12586   4.555   2.879   7.166  1.2428  0.8900 -0.0667
   96MOL0     O12587   4.417   3.284   7.180 -0.2238  0.9642  0.2781
   96MOL0     C12588   4.475   3.423   7.395  0.5021 -0.0529 -0.3368
   96MOL0     C12589   4.532   3.519   7.475  0.0215 -0.7945  0.0499
   96MOL0     N12590   5.357   3.692   7.802 -0.1392  0.2849  0.5669
   96MOL0     N12591   5.470   3.659   7.864  0.3171 -0.2061 -0.5792
   96MOL0     C12592   6.533   3.384   7.443  0.4107 -0.1663 -0.5489
   96MOL0     C12593   6.665   3.337   7.460 -0.6716 -0.4236 -0.4811
   96MOL0     C12594   7.067   3.223   7.326 -0.6479  0.0994  0.0322
   96MOL0     C12595   7.116   3.095   7.282 -0.0340 -0.1065 -1.0104
   96MOL0     C12596   7.247   3.069   7.274  0.3795 -0.4748  0.9284
   96MOL0     C12597   7.344   3.170   7.284 -0.2170 -0.0635 -0.4587
   96MOL0     O12598   7.472   3.126   7.263 -0.0873  0.5247  0.5884
   96MOL0     C12599   7.585   3.217   7.273 -0.7387  0.0882  0.4055
   96MOL0     C12600   7.601   3.323   7.173  0.2276 -0.1684 -0.3725
   96MOL0     C12601   7.567   3.254   7.039  0.0807 -0.4026  0.3420
   96MOL0     C12602   7.668   3.261   6.928 -0.3524 -0.6255 -0.3953
   96MOL0     C12603   7.654   3.160   6.830  0.3214 -0.1720 -0.4081
   96MOL0     C12604   7.647   3.069   6.750  0.2466  0.2482 -0.0028
   96MOL0     C12605   7.303   3.299   7.323  0.4246  0.4278  0.3927
   96MOL0     C12606   7.163   3.323   7.348  0.0531 -0.6640 -0.2548
   96MOL0     H12607   6.825   3.577   7.292 -0.3657 -1.9679 -2.3631
   96MOL0     H12608   6.593   3.657   7.257  1.9764  1.1215  0.3661
   96MOL0     H12609   6.360   3.727   7.264  1.0177 -0.4873 -0.4645
   96MOL0     H12610   6.396   3.733   7.434 -1.4791 -0.3513  1.3378
   96MOL0     H12611   6.127   3.601   7.328  0.8752 -0.8647 -1.0198
   96MOL0     H12612   6.141   3.780   7.335 -1.1253 -0.7991 -0.5355
   96MOL0     H12613   6.177   3.732   7.597  1.2824 -0.1151 -1.1474
   96MOL0     H12614   6.207   3.570   7.570  1.2172  1.2621  0.8969
   96MOL0     H12615   5.938   3.675   7.492 -0.5718 -1.4570 -0.1896
   96MOL0     H12616   5.978   3.515   7.525 -1.2933 -1.2256 -0.2960
   96MOL0     H12617   5.974   3.730   7.747 -0.3972  0.2840 -0.2451
   96MOL0     H12618   6.003   3.556   7.766 -0.3572  0.7217  1.6555
   96MOL0     H12619   5.772   3.537   7.650  2.6603  2.6814 -2.3213
   96MOL0     H12620   5.737   3.688   7.741 -0.5435 -0.8976 -1.7591
   96MOL0     H12621   5.840   3.445   7.904  0.4705  0.4916 -0.0165
   96MOL0     H12622   5.784   3.608   7.950 -5.1769  0.1758  0.5568
   96MOL0     H12623   5.607   3.459   7.976 -1.8237  0.2587 -0.7727
   96MOL0     H12624   5.647   3.381   7.822  0.8346  0.4154 -0.1293
   96MOL0     H12625   5.441   3.404   7.662 -0.8793 -1.3488  1.3168
   96MOL0     H12626   5.222   3.496   7.567  0.5937 -1.8105  2.2544
   96MOL0     H12627   5.204   3.669   7.572  2.1457  0.7054  0.4403
   96MOL0     H12628   5.076   3.642   7.794 -0.4942  1.5272 -1.3169
   96MOL0     H12629   5.071   3.476   7.757 -1.9103  0.8302  0.1995
   96MOL0     H12630   4.962   3.714   7.586  0.6877  0.2114 -1.7335
   96MOL0     H12631   4.974   3.557   7.518  2.6373  0.8531 -0.6632
   96MOL0     H12632   4.838   3.632   7.785 -0.0651 -0.4065  0.9234
   96MOL0     H12633   4.843   3.476   7.717  1.1729  0.2775  0.8040
   96MOL0     H12634   4.825   3.352   7.546 -0.2262 -1.3947 -2.2206
   96MOL0     H12635   4.739   3.195   7.395 -0.0419 -0.4737  1.4498
   96MOL0     H12636   4.285   3.092   7.130 -1.3749 -0.6179 -0.2092
   96MOL0     H12637   4.208   2.894   7.004 -1.2891  0.2052  0.6039
   96MOL0     H12638   4.461   2.524   6.957 -0.4615 -1.8379 -0.9273
   96MOL0     H12639   4.453   2.655   6.836  1.3662  0.1292  2.2114
   96MOL0     H12640   4.270   2.420   6.859 -0.9737 -1.3448 -1.6768
   96MOL0     H12641   4.370   2.472   6.720  0.0782  0.9242 -0.6119
   96MOL0     H12642   4.223   2.660   6.678  1.2531 -0.5444  0.3675
   96MOL0     H12643   4.139   2.644   6.827  0.9292  0.6940  0.7108
   96MOL0     H12644   4.144   2.407   6.626 -0.4228 -1.0853  1.0184
   96MOL0     H12645   4.037   2.430   6.761  0.0319 -0.7193 -1.2176
   96MOL0     H12646   3.951   2.629   6.621 -1.9034 -0.9197 -0.0076
   96MOL0     H12647   3.923   2.463   6.556  1.3231  0.3613 -3.3823
   96MOL0     H12648   4.108   2.498   6.400 -0.2977  0.1620 -0.2316
   96MOL0     H12649   4.139   2.665   6.459 -1.6795  0.7454  2.0149
   96MOL0     H12650   3.890   2.575   6.310 -1.3870 -0.0786  2.7609
   96MOL0     H12651   3.895   2.721   6.412 -0.8683 -1.9904 -0.0867
   96MOL0     H12652   4.039   2.673   6.147 -1.4456 -0.2907  0.0506
   96MOL0     H12653   4.088   2.807   6.256  1.9686 -2.7368 -1.1353
   96MOL0     H12654   4.564   2.680   7.099 -0.5696 -0.4875  2.4160
   96MOL0     H12655   4.654   2.871   7.209  1.1605 -1.7932 -0.2307
   96MOL0     H12656   4.371   3.437   7.366 -0.3122 -3.1587  0.6796
   96MOL0     H12657   4.471   3.607   7.491 -1.6450 -1.5237 -1.7817
   96MOL0     H12658   6.455   3.316   7.477  2.0504 -1.4009  0.9238
   96MOL0     H12659   6.697   3.247   7.512  0.5229 -0.0896 -0.6035
   96MOL0     H12660   7.051   3.014   7.252 -1.2286 -0.3165  1.8569
   96MOL0     H12661   7.286   2.973   7.241  0.9417  0.1138 -0.1763
   96MOL0     H12662   7.671   3.151   7.259 -1.0723 -0.5265  1.1396
   96MOL0     H12663   7.584   3.254   7.376  5.2371  1.2590  0.3853
   96MOL0     H12664   7.537   3.409   7.194  0.5840 -0.1831  0.8504
   96MOL0     H12665   7.703   3.360   7.188 -0.5569  1.0517  2.6938
   96MOL0     H12666   7.474   3.294   6.997 -0.9600  0.6671  3.3526
   96MOL0     H12667   7.543   3.148   7.046 -0.7768 -0.3940 -1.7886
   96MOL0     H12668   7.665   3.355   6.872 -0.9261  0.0839  0.7857
   96MOL0     H12669   7.768   3.243   6.967  0.3322  0.0484 -1.7539
   96MOL0     H12670   7.646   2.983   6.686  1.2948 -2.0525  2.8469
   96MOL0     H12671   7.383   3.371   7.339 -0.9462  2.5490 -1.6054
   96MOL0     H12672   7.128   3.424   7.368 -2.9545 -1.9116  1.4537
   97MOL0     O12673   2.364   7.119   6.683 -0.1964 -0.3556  0.1054
   97MOL0     C12674   2.422   7.227   6.707  0.6543 -0.6254 -0.3926
   97MOL0     O12675   2.357   7.342   6.727 -0.2574  0.6793 -0.0869
   97MOL0     C12676   2.220   7.352   6.739  0.6293  0.2799 -0.3616
   97MOL0     C12677   2.144   7.357   6.855 -0.8412 -0.1711  0.3291
   97MOL0     C12678   2.011   7.400   6.858 -0.4603 -0.1685  0.4082
   97MOL0     C12679   1.942   7.409   6.737 -0.4774 -0.3566  0.3540
   97MOL0     O12680   1.805   7.418   6.734  0.4424 -0.1697  0.0330
   97MOL0     C12681   1.739   7.510   6.823 -0.1624 -0.8581 -1.0348
   97MOL0     C12682   1.638   7.596   6.740  0.2963 -0.4918 -0.7920
   97MOL0     C12683   1.692   7.666   6.615 -0.6691  0.3442 -0.7161
   97MOL0     C12684   1.582   7.746   6.548 -0.2402 -0.0126 -0.3997
   97MOL0     C12685   1.627   7.872   6.471 -0.0757 -0.4882  0.1046
   97MOL0     C12686   1.508   7.945   6.407 -0.0164 -0.4200 -0.0626
   97MOL0     C12687   1.408   8.005   6.510 -0.1220 -1.0678  0.8014
   97MOL0     C12688   1.308   8.093   6.431  0.4121 -0.0584  0.1308
   97MOL0     N12689   1.200   8.139   6.517  0.4102 -0.0092 -0.1432
   97MOL0     C12690   1.107   8.057   6.577 -0.0553  0.2703 -0.5512
   97MOL0     C12691   1.014   8.146   6.606  0.1958  0.5159  0.6187
   97MOL0     C12692   0.873   8.110   6.647  0.0114  0.0437  0.7461
   97MOL0     C12693   0.771   8.128   6.524 -0.8852  0.2933  0.6940
   97MOL0     C12694   0.709   8.267   6.526  1.0401  0.1294  0.1489
   97MOL0     C12695   0.620   8.303   6.403 -0.7152 -0.2749 -0.3924
   97MOL0     O12696   0.526   8.199   6.385 -0.4305 -0.6857 -0.3368
   97MOL0     C12697   0.440   8.207   6.271 -1.2798 -0.0840  0.4924
   97MOL0     C12698   0.360   8.092   6.247 -0.0386 -0.5124  0.0807
   97MOL0     C12699   0.278   8.079   6.141  0.8153 -0.7520 -0.7397
   97MOL0     C12700   0.257   8.185   6.054  0.9762 -0.5622 -0.3026
   97MOL0     C12701   0.160   8.181   5.946 -0.1520  0.7758  0.0811
   97MOL0     O12702   0.128   8.054   5.898  0.2305  0.5465 -0.5410
   97MOL0     C12703   0.034   8.038   5.796  0.0045 -0.4887  0.3503
   97MOL0     C12704  -0.085   8.108   5.779  1.3071 -0.3582  0.6581
   97MOL0     C12705  -0.157   8.084   5.660  0.4560  0.0998 -0.0957
   97MOL0     C12706  -0.125   7.978   5.570  0.3827 -0.2572 -0.5611
   97MOL0     O12707  -0.207   7.934   5.462 -0.2888 -0.2324 -0.5415
   97MOL0     C12708  -0.351   7.938   5.484  0.1503  0.2527 -0.1673
   97MOL0     C12709  -0.423   7.864   5.375 -0.1521 -0.6793 -0.9136
   97MOL0     C12710  -0.572   7.884   5.378 -0.0184 -0.1851 -0.0534
   97MOL0     C12711  -0.630   7.804   5.264  0.7605  0.7091 -0.1950
   97MOL0     C12712  -0.785   7.834   5.247  0.3249  0.0941  0.6097
   97MOL0     C12713  -0.854   7.810   5.380 -0.0341 -0.2204 -0.3650
   97MOL0     C12714  -1.011   7.819   5.369 -0.2909 -0.4704  0.0566
   97MOL0     C12715  -1.077   7.840   5.501 -0.7355 -0.3905 -0.7140
   97MOL0    Cl12716  -1.066   7.698   5.595 -0.8170 -0.0258  0.4920
   97MOL0     C12717  -0.010   7.910   5.590 -0.5622 -0.4768  0.5282
   97MOL0     C12718   0.068   7.943   5.704  0.4301  0.6136 -0.0354
   97MOL0     O12719   0.128   8.288   5.896 -0.0945  0.0366  0.7260
   97MOL0     C12720   0.331   8.304   6.082  0.1934  1.2133  0.0057
   97MOL0     C12721   0.428   8.316   6.187 -0.2308  0.5231 -0.7169
   97MOL0     N12722   1.055   8.268   6.592 -0.2470 -0.0145  0.1469
   97MOL0     N12723   1.170   8.273   6.535  0.4926  0.3181  0.1223
   97MOL0     C12724   2.015   7.375   6.618  0.2094  0.1607  0.4302
   97MOL0     C12725   2.155   7.363   6.616  0.1744 -0.1046 -0.2906
   97MOL0     C12726   2.565   7.235   6.722 -0.2192 -0.1882 -1.3787
   97MOL0     C12727   2.641   7.115   6.747  0.4361 -0.8354 -0.1143
   97MOL0     C12728   2.774   7.114   6.771 -0.9495 -0.0437  0.7989
   97MOL0     C12729   2.843   7.231   6.772  0.3683 -0.2353 -0.7193
   97MOL0     O12730   2.981   7.214   6.782 -0.5098 -0.6092  0.0908
   97MOL0     C12731   3.061   7.334   6.812 -0.7622  0.3537 -0.8602
   97MOL0     C12732   3.110   7.391   6.682 -0.3245 -0.8761  0.1649
   97MOL0     C12733   3.190   7.514   6.699 -0.4474 -0.2047  0.7393
   97MOL0     C12734   3.328   7.474   6.755  0.1552 -0.1521 -0.0845
   97MOL0     C12735   3.416   7.597   6.768 -0.0172 -0.0022  0.0453
   97MOL0     C12736   3.480   7.694   6.792 -0.4323  0.0901  0.1154
   97MOL0     C12737   2.772   7.354   6.749 -0.1874 -0.0126 -0.1980
   97MOL0     C12738   2.635   7.359   6.723 -0.1919 -0.0849 -0.0070
   97MOL0     H12739   2.204   7.353   6.945  0.9624 -0.1130 -0.8207
   97MOL0     H12740   1.962   7.417   6.953 -0.5020 -0.8775  0.5136
   97MOL0     H12741   1.803   7.569   6.890  1.0442  0.9656 -3.6211
   97MOL0     H12742   1.692   7.448   6.900  1.5711  0.3364  1.1249
   97MOL0     H12743   1.590   7.667   6.808  1.1432 -0.7093  0.0543
   97MOL0     H12744   1.559   7.540   6.691  1.7827  0.8813 -5.1909
   97MOL0     H12745   1.736   7.588   6.553  2.0895  0.0563  1.3999
   97MOL0     H12746   1.770   7.735   6.650 -0.0405 -1.7694  2.6299
   97MOL0     H12747   1.527   7.689   6.473  1.8533 -1.4243 -0.9387
   97MOL0     H12748   1.517   7.772   6.633  0.1484 -1.6228  0.4230
   97MOL0     H12749   1.702   7.844   6.397 -0.4617 -3.0343  0.5717
   97MOL0     H12750   1.678   7.942   6.538 -0.6193 -2.4846  2.7901
   97MOL0     H12751   1.454   7.884   6.333  0.2580  0.4823 -1.0298
   97MOL0     H12752   1.553   8.030   6.355  0.3310 -0.0494  0.8231
   97MOL0     H12753   1.351   7.916   6.538 -2.7485 -1.3387 -4.2802
   97MOL0     H12754   1.474   8.048   6.585  1.3348 -2.0306  0.1045
   97MOL0     H12755   1.276   8.033   6.346  2.4662 -0.7802 -0.1968
   97MOL0     H12756   1.359   8.182   6.394  2.3361 -1.3186 -0.4138
   97MOL0     H12757   1.093   7.950   6.590 -0.3788  0.1726 -1.6334
   97MOL0     H12758   0.843   8.171   6.733 -0.9026 -1.2955  1.4118
   97MOL0     H12759   0.872   8.005   6.679 -0.1623 -0.1765  0.0310
   97MOL0     H12760   0.698   8.046   6.528 -0.4219 -0.0919  1.5328
   97MOL0     H12761   0.819   8.121   6.426 -0.1421 -0.8360  1.1184
   97MOL0     H12762   0.640   8.275   6.611 -0.2988  0.7415 -0.9448
   97MOL0     H12763   0.780   8.347   6.548 -0.2549  0.8196  2.0703
   97MOL0     H12764   0.685   8.318   6.317  1.7408 -0.0816  1.3945
   97MOL0     H12765   0.577   8.398   6.434  0.0370 -0.1570  0.3215
   97MOL0     H12766   0.371   8.009   6.317 -0.5554  0.2530  1.0995
   97MOL0     H12767   0.227   7.984   6.128 -1.6523  0.3787 -0.0642
   97MOL0     H12768  -0.118   8.187   5.846 -0.2717  0.2856 -0.8093
   97MOL0     H12769  -0.243   8.148   5.648 -0.0349 -0.3387  0.9785
   97MOL0     H12770  -0.385   8.042   5.474  0.1466  0.2405 -0.2750
   97MOL0     H12771  -0.383   7.898   5.581  1.8131  3.7880  2.0615
   97MOL0     H12772  -0.392   7.759   5.363 -0.0350 -0.7082 -0.3890
   97MOL0     H12773  -0.386   7.912   5.284  0.2325  0.4859 -0.1505
   97MOL0     H12774  -0.589   7.988   5.350  0.9500 -0.0015 -0.0011
   97MOL0     H12775  -0.619   7.874   5.476 -2.2938  0.9423 -0.9730
   97MOL0     H12776  -0.572   7.826   5.173  0.8148 -0.1296 -0.3715
   97MOL0     H12777  -0.617   7.697   5.280 -0.3705  0.4121 -1.1271
   97MOL0     H12778  -0.815   7.764   5.169  4.8092  0.6318 -1.9715
   97MOL0     H12779  -0.797   7.935   5.205 -0.6207  0.9591  2.8281
   97MOL0     H12780  -0.819   7.894   5.441 -0.4234  0.6145 -1.2544
   97MOL0     H12781  -0.825   7.712   5.419 -0.5592 -0.3076 -0.1909
   97MOL0     H12782  -1.040   7.900   5.302 -1.7530 -0.8545  0.1911
   97MOL0     H12783  -1.053   7.729   5.322 -0.4978  0.4691 -1.6124
   97MOL0     H12784  -1.183   7.855   5.480 -0.1641  1.6146 -2.4783
   97MOL0     H12785  -1.046   7.932   5.552 -0.6114  0.0956 -1.6384
   97MOL0     H12786   0.020   7.840   5.512  1.9139  1.4662 -0.3755
   97MOL0     H12787   0.152   7.879   5.728 -1.1757 -1.0889  1.2903
   97MOL0     H12788   0.319   8.391   6.019 -0.3553 -0.6467 -2.6064
   97MOL0     H12789   0.480   8.409   6.208  0.2536  0.1893 -0.4093
   97MOL0     H12790   1.961   7.380   6.524  0.4886 -0.5336  0.2303
   97MOL0     H12791   2.205   7.364   6.520  1.7000  0.4999  0.4657
   97MOL0     H12792   2.591   7.019   6.757 -0.0686 -0.5969 -0.3083
   97MOL0     H12793   2.823   7.020   6.791 -1.1380 -0.5244 -0.9230
   97MOL0     H12794   3.150   7.303   6.867  1.1538  2.9607 -2.2408
   97MOL0     H12795   3.011   7.410   6.873  0.2083 -0.5562  1.1469
   97MOL0     H12796   3.170   7.316   6.630 -2.4911 -1.8078 -1.1314
   97MOL0     H12797   3.021   7.411   6.621 -0.7210  1.5489  1.4225
   97MOL0     H12798   3.151   7.587   6.771  2.0724  1.3704  0.6294
   97MOL0     H12799   3.202   7.557   6.599 -0.5039  0.5357  1.0417
   97MOL0     H12800   3.315   7.426   6.852  1.9120 -0.6965 -0.0843
   97MOL0     H12801   3.367   7.391   6.696 -1.7613 -1.2618  0.1321
   97MOL0     H12802   3.532   7.784   6.818 -2.0393  0.3065  3.0881
   97MOL0     H12803   2.827   7.446   6.759 -1.4405  0.5516  2.2332
   97MOL0     H12804   2.582   7.453   6.710  0.0609  0.0751  0.1220
   98MOL0     O12805   2.898   1.907   5.686 -0.6312 -0.3158  0.2694
   98MOL0     C12806   2.891   1.785   5.686  0.0728 -0.5207 -0.3058
   98MOL0     O12807   2.996   1.697   5.661  0.4598 -0.6322  0.2293
   98MOL0     C12808   3.110   1.758   5.610  0.1540 -0.1225  0.1699
   98MOL0     C12809   3.114   1.845   5.499  0.4322  0.0214 -0.5819
   98MOL0     C12810   3.236   1.907   5.460  1.0997 -0.6216 -0.5213
   98MOL0     C12811   3.355   1.885   5.533 -0.1279 -1.2566  0.5182
   98MOL0     O12812   3.485   1.937   5.510 -0.1954  0.6683  0.4079
   98MOL0     C12813   3.496   2.054   5.433  0.9789  0.6254  0.7210
   98MOL0     C12814   3.638   2.105   5.405  0.0748 -0.2912  0.3659
   98MOL0     C12815   3.695   2.076   5.266 -0.4704 -0.5643  0.7475
   98MOL0     C12816   3.841   2.125   5.255  0.2418  0.4917 -0.3096
   98MOL0     C12817   3.910   2.096   5.122  0.0539  0.4840  0.1484
   98MOL0     C12818   3.882   1.960   5.056 -0.7517  0.0371 -0.3427
   98MOL0     C12819   3.996   1.925   4.966  0.1800 -0.1682  0.5498
   98MOL0     C12820   4.000   1.773   4.937 -0.2228 -0.5170  0.8066
   98MOL0     N12821   3.870   1.727   4.878 -0.2213 -0.4541 -0.1399
   98MOL0     C12822   3.854   1.710   4.739 -0.1104  1.4425 -0.3176
   98MOL0     C12823   3.715   1.681   4.726 -1.2032  0.8892 -0.1289
   98MOL0     C12824   3.646   1.672   4.592  0.0202  0.6402  0.7327
   98MOL0     C12825   3.695   1.546   4.517 -0.0906 -0.2274  0.4902
   98MOL0     C12826   3.635   1.413   4.581 -0.9754 -0.3097  0.6403
   98MOL0     C12827   3.642   1.287   4.488 -0.2291  0.1512 -0.2095
   98MOL0     O12828   3.563   1.323   4.364 -0.0143  1.1747 -0.0377
   98MOL0     C12829   3.430   1.318   4.351  1.0484 -0.2862 -0.1801
   98MOL0     C12830   3.368   1.356   4.228 -0.7411 -0.6957 -0.1262
   98MOL0     C12831   3.236   1.370   4.208 -0.1090  0.6179 -0.2951
   98MOL0     C12832   3.146   1.351   4.321  0.1163  0.0294  0.2965
   98MOL0     C12833   3.001   1.380   4.304  0.0964  0.3496 -0.7751
   98MOL0     O12834   2.928   1.372   4.419  0.3826  0.1505  0.9202
   98MOL0     C12835   2.791   1.383   4.424 -0.3900 -0.3088 -0.0633
   98MOL0     C12836   2.700   1.390   4.317 -1.2826  0.3263 -0.3211
   98MOL0     C12837   2.557   1.405   4.334  0.0467 -0.2439 -0.5809
   98MOL0     C12838   2.507   1.427   4.462  0.6685  0.1434 -0.3961
   98MOL0     O12839   2.368   1.423   4.486  0.9587  0.4045 -0.2330
   98MOL0     C12840   2.276   1.430   4.379  0.0659  0.2043  0.1921
   98MOL0     C12841   2.154   1.484   4.444  0.1899  1.0730  1.0794
   98MOL0     C12842   2.038   1.519   4.350  0.2781  0.5491 -0.2331
   98MOL0     C12843   1.923   1.590   4.428  0.5654  0.3014  0.1334
   98MOL0     C12844   1.782   1.567   4.379  1.1795  0.8579  0.2903
   98MOL0     C12845   1.699   1.453   4.448  0.1972 -0.1684 -0.0028
   98MOL0     C12846   1.570   1.416   4.380 -0.2819 -0.1695 -0.0060
   98MOL0     C12847   1.483   1.313   4.459  0.2159  0.3962  0.6437
   98MOL0    Cl12848   1.555   1.136   4.453 -0.1299 -0.1421  0.3928
   98MOL0     C12849   2.601   1.428   4.567  0.7109 -0.9976 -0.0919
   98MOL0     C12850   2.739   1.413   4.543  0.6539  0.5236 -0.6998
   98MOL0     O12851   2.964   1.424   4.193 -0.6394  0.1332 -0.6330
   98MOL0     C12852   3.199   1.298   4.440 -0.4712 -0.4564 -0.1830
   98MOL0     C12853   3.341   1.283   4.455 -0.7154  0.3587 -0.0075
   98MOL0     N12854   3.669   1.671   4.858 -0.3715 -0.5218  0.0315
   98MOL0     N12855   3.761   1.697   4.944  0.3200 -0.3724 -0.2469
   98MOL0     C12856   3.344   1.792   5.634 -0.5341  0.3109 -0.1101
   98MOL0     C12857   3.232   1.725   5.679 -0.0311 -0.2439  0.8119
   98MOL0     C12858   2.764   1.726   5.741 -0.0120  0.7728  0.0692
   98MOL0     C12859   2.759   1.583   5.757 -0.2918 -0.0417 -0.3901
   98MOL0     C12860   2.660   1.522   5.829 -0.7701  0.1525 -0.8741
   98MOL0     C12861   2.550   1.593   5.868 -0.4312 -0.5292  0.3056
   98MOL0     O12862   2.460   1.520   5.938 -0.3194 -0.8520  0.8641
   98MOL0     C12863   2.368   1.588   6.029 -0.3461 -0.2130  0.4137
   98MOL0     C12864   2.292   1.473   6.089 -0.2116  0.6223 -0.9035
   98MOL0     C12865   2.183   1.518   6.179  0.5382  1.5656 -0.6348
   98MOL0     C12866   2.124   1.398   6.260 -0.6196  0.7645  0.9666
   98MOL0     C12867   2.044   1.322   6.167 -0.9067  0.6160 -0.1880
   98MOL0     C12868   1.957   1.281   6.093  0.0878  0.1699 -0.9066
   98MOL0     C12869   2.550   1.730   5.850 -0.0502 -1.2328  0.6913
   98MOL0     C12870   2.651   1.801   5.784  0.1199 -0.0633 -0.0662
   98MOL0     H12871   3.023   1.868   5.445 -1.6809 -1.6944  2.0117
   98MOL0     H12872   3.230   1.980   5.379  0.6649  1.2090  1.1057
   98MOL0     H12873   3.439   2.132   5.485  0.2548  1.6294 -1.4372
   98MOL0     H12874   3.439   2.053   5.339  2.6556 -0.9970 -0.3298
   98MOL0     H12875   3.707   2.061   5.478 -1.6910 -1.9213  1.1395
   98MOL0     H12876   3.631   2.214   5.418 -1.2074 -0.0110 -1.9839
   98MOL0     H12877   3.622   2.126   5.202 -1.6503 -2.3332  0.6478
   98MOL0     H12878   3.677   1.972   5.236 -1.5388 -0.3807  0.7180
   98MOL0     H12879   3.837   2.232   5.277  2.3143  0.6140 -0.3131
   98MOL0     H12880   3.892   2.071   5.335 -0.2407  0.5183  0.0178
   98MOL0     H12881   4.014   2.129   5.120 -0.5113  2.3191 -1.1341
   98MOL0     H12882   3.862   2.163   5.050  1.1016  0.8815 -0.1833
   98MOL0     H12883   3.789   1.968   5.000  0.6700  0.6614 -2.7635
   98MOL0     H12884   3.873   1.883   5.132  0.4260 -0.8589 -1.0720
   98MOL0     H12885   3.978   1.986   4.877  0.0883  2.3907  2.2102
   98MOL0     H12886   4.090   1.972   4.994  1.2976 -1.3341 -1.1182
   98MOL0     H12887   4.023   1.714   5.026  0.5648 -2.5974 -0.7025
   98MOL0     H12888   4.074   1.754   4.859 -0.4535 -0.7260  0.6371
   98MOL0     H12889   3.932   1.732   4.666  1.3770  0.2323  0.8595
   98MOL0     H12890   3.655   1.764   4.533 -1.6377 -0.4539 -1.3240
   98MOL0     H12891   3.538   1.664   4.608  0.2011 -0.7919  1.3635
   98MOL0     H12892   3.804   1.540   4.517  0.1194  2.1397 -0.9852
   98MOL0     H12893   3.657   1.548   4.414 -1.7262 -1.7178  1.0159
   98MOL0     H12894   3.687   1.395   4.676 -2.8658  0.6376  1.9081
   98MOL0     H12895   3.529   1.437   4.594 -0.6744  1.4270  0.1069
   98MOL0     H12896   3.601   1.197   4.536  0.3974  1.4785  3.0962
   98MOL0     H12897   3.749   1.270   4.481  0.0033 -0.6176  3.1744
   98MOL0     H12898   3.434   1.376   4.144 -0.8637 -0.4382 -0.1615
   98MOL0     H12899   3.198   1.406   4.113  1.0309  4.3728  0.5172
   98MOL0     H12900   2.729   1.373   4.214 -1.3306 -0.5981 -0.1918
   98MOL0     H12901   2.490   1.419   4.250 -1.7422  4.2483  1.2456
   98MOL0     H12902   2.258   1.333   4.331 -2.6581  0.7575 -0.0913
   98MOL0     H12903   2.307   1.497   4.299  0.1586 -0.3269 -0.2266
   98MOL0     H12904   2.171   1.573   4.504  0.4021  1.3470  0.6198
   98MOL0     H12905   2.118   1.408   4.514  0.2009 -1.4715 -1.4967
   98MOL0     H12906   2.001   1.429   4.300 -0.7747  0.3118  0.9120
   98MOL0     H12907   2.077   1.592   4.278 -0.3620  2.0268  0.8561
   98MOL0     H12908   1.925   1.565   4.534  1.8080  1.5942  0.4443
   98MOL0     H12909   1.946   1.697   4.424  0.8803  0.2062 -1.1312
   98MOL0     H12910   1.777   1.550   4.271  1.2160 -1.1838  0.5785
   98MOL0     H12911   1.716   1.654   4.386 -1.3783 -1.0196  0.8834
   98MOL0     H12912   1.679   1.477   4.553 -2.1661 -0.4863 -0.3373
   98MOL0     H12913   1.757   1.361   4.449 -1.1580 -1.1215  2.9071
   98MOL0     H12914   1.514   1.507   4.356 -1.7339 -1.6798 -2.7985
   98MOL0     H12915   1.593   1.378   4.280 -1.1474 -0.5261 -0.0792
   98MOL0     H12916   1.382   1.309   4.418 -1.0771 -0.0067  3.6105
   98MOL0     H12917   1.462   1.347   4.561 -3.8700  0.2175  0.0168
   98MOL0     H12918   2.564   1.441   4.668  1.1054  1.2176 -0.1779
   98MOL0     H12919   2.811   1.419   4.624 -0.3051 -0.1598  0.2288
   98MOL0     H12920   3.140   1.273   4.527  0.2427  1.3423  0.8650
   98MOL0     H12921   3.385   1.240   4.544  1.1793  1.9123 -0.1236
   98MOL0     H12922   3.439   1.753   5.670  0.0206  0.5949 -1.2365
   98MOL0     H12923   3.246   1.668   5.770 -0.0170  1.6651  2.0586
   98MOL0     H12924   2.848   1.532   5.720  0.2255  1.2207 -0.9500
   98MOL0     H12925   2.673   1.416   5.847 -0.0938 -0.1503 -2.8123
   98MOL0     H12926   2.307   1.674   6.001  0.3568  2.2235  5.2641
   98MOL0     H12927   2.436   1.630   6.104  1.7937  0.5026 -1.7718
   98MOL0     H12928   2.253   1.410   6.008  0.9675 -0.0622 -0.9527
   98MOL0     H12929   2.357   1.405   6.144 -1.0981  0.0760 -0.5185
   98MOL0     H12930   2.104   1.572   6.126  0.2233  1.2579 -0.4809
   98MOL0     H12931   2.217   1.588   6.256 -2.1084  2.0159  0.1979
   98MOL0     H12932   2.207   1.335   6.293 -1.5625 -1.7314 -1.1005
   98MOL0     H12933   2.055   1.423   6.340 -1.4313  1.4258  0.0870
   98MOL0     H12934   1.876   1.238   6.037 -0.8323  2.0354 -1.0881
   98MOL0     H12935   2.472   1.793   5.891  0.5177 -0.8480  1.1943
   98MOL0     H12936   2.657   1.910   5.783 -0.6457  0.0921  2.8026
   99MOL0     O12937   8.567   5.706   0.283 -0.1514  0.1413  0.4053
   99MOL0     C12938   8.551   5.608   0.346  0.8104  0.6488  0.5271
   99MOL0     O12939   8.432   5.563   0.398  0.4525 -0.0797  0.5655
   99MOL0     C12940   8.313   5.639   0.395 -0.5740  0.3295 -0.1666
   99MOL0     C12941   8.310   5.777   0.365 -0.1182 -0.4617  0.5625
   99MOL0     C12942   8.192   5.848   0.375 -0.8625  0.8010  0.7349
   99MOL0     C12943   8.071   5.788   0.400 -0.3377 -0.1165  0.1630
   99MOL0     O12944   7.962   5.866   0.406 -0.1000  0.8575  0.3273
   99MOL0     C12945   7.846   5.819   0.466  0.1971  0.6378 -0.0419
   99MOL0     C12946   7.759   5.941   0.478  0.2017 -0.4957 -0.1238
   99MOL0     C12947   7.648   5.912   0.579  0.6977  0.0778 -0.0428
   99MOL0     C12948   7.554   6.033   0.593 -0.2496  0.4039  0.2447
   99MOL0     C12949   7.411   5.983   0.637 -0.4156 -0.0008 -1.1134
   99MOL0     C12950   7.321   6.098   0.671  0.1303  0.1045 -0.4057
   99MOL0     C12951   7.177   6.040   0.696  0.5120  0.1563 -0.7695
   99MOL0     C12952   7.092   6.161   0.743 -0.0301  0.1191  0.1848
   99MOL0     N12953   6.956   6.135   0.790  0.4003  0.0018  1.4378
   99MOL0     C12954   6.904   6.075   0.904 -0.1865  0.1795  0.5052
   99MOL0     C12955   6.772   6.079   0.891  0.3220  0.2622 -0.1182
   99MOL0     C12956   6.661   6.027   0.974 -0.3411  0.2472 -0.4326
   99MOL0     C12957   6.686   5.894   1.053  0.0710  0.5052  0.2998
   99MOL0     C12958   6.565   5.824   1.105 -0.9435  0.5420 -0.3793
   99MOL0     C12959   6.475   5.920   1.185 -0.3424  0.1271 -0.6684
   99MOL0     O12960   6.387   5.837   1.265 -0.6497 -0.3356  0.1284
   99MOL0     C12961   6.264   5.875   1.289 -0.4156 -0.2850  0.2343
   99MOL0     C12962   6.214   6.000   1.248 -0.2624 -0.7202  0.3814
   99MOL0     C12963   6.094   6.035   1.298  0.6563 -0.0089  0.6167
   99MOL0     C12964   5.997   5.945   1.342 -0.2194  0.9003 -0.1310
   99MOL0     C12965   5.861   5.993   1.360 -0.4172 -1.1270  0.2255
   99MOL0     O12966   5.772   5.888   1.361 -0.5344 -0.0830 -0.0891
   99MOL0     C12967   5.640   5.917   1.387 -0.9440  0.2939 -0.1385
   99MOL0     C12968   5.572   5.829   1.471 -0.9276 -0.8555 -0.2084
   99MOL0     C12969   5.431   5.840   1.482  0.1802  1.1378 -0.6567
   99MOL0     C12970   5.357   5.932   1.413  0.3292  0.4002 -1.0120
   99MOL0     O12971   5.217   5.923   1.426  0.2034  0.3325  0.5667
   99MOL0     C12972   5.142   5.905   1.303  0.5101  0.3204 -0.5428
   99MOL0     C12973   5.006   5.838   1.316  0.2128 -0.2548 -0.4337
   99MOL0     C12974   4.913   5.940   1.390  0.5056 -0.2824  0.2663
   99MOL0     C12975   4.785   5.862   1.435 -0.3000  0.3145  0.2342
   99MOL0     C12976   4.686   5.959   1.506 -0.4469 -0.5069 -0.2356
   99MOL0     C12977   4.603   6.040   1.406 -0.2043 -0.5887 -1.6741
   99MOL0     C12978   4.510   6.142   1.465  0.7673  0.1746 -0.6169
   99MOL0     C12979   4.424   6.223   1.373  0.0116  0.0380  0.0142
   99MOL0    Cl12980   4.292   6.278   1.480 -0.0917 -0.2693  0.0020
   99MOL0     C12981   5.426   6.016   1.323  0.4637  0.1275  0.1706
   99MOL0     C12982   5.566   6.010   1.313 -0.0525  0.3248  0.5672
   99MOL0     O12983   5.833   6.114   1.359  0.1848  0.1495 -0.3027
   99MOL0     C12984   6.046   5.812   1.375  1.0912 -0.0320 -0.1701
   99MOL0     C12985   6.184   5.777   1.355  0.5211 -0.2465 -0.1055
   99MOL0     N12986   6.740   6.157   0.786  0.1362 -0.2191  0.1681
   99MOL0     N12987   6.848   6.198   0.724 -0.5122  0.2508 -0.2391
   99MOL0     C12988   8.070   5.651   0.421  0.1066 -0.5115  0.8328
   99MOL0     C12989   8.189   5.581   0.422  0.4449  0.0553 -0.3688
   99MOL0     C12990   8.668   5.550   0.403  0.3497 -0.4793 -0.1871
   99MOL0     C12991   8.794   5.597   0.353  0.8883 -0.0052  0.4482
   99MOL0     C12992   8.915   5.564   0.427  0.2846  0.1662  0.3618
   99MOL0     C12993   8.926   5.481   0.537  0.4286 -0.2440 -0.2949
   99MOL0     O12994   9.040   5.439   0.597  0.3565  0.2982 -0.0441
   99MOL0     C12995   9.171   5.486   0.566 -0.1777  0.4270 -0.7922
   99MOL0     C12996   9.289   5.411   0.640 -0.1289  0.1978  0.3631
   99MOL0     C12997   9.289   5.250   0.618 -0.6149 -0.6666  0.2838
   99MOL0     C12998   9.384   5.178   0.708 -0.3470  0.4650  0.5050
   99MOL0     C12999   9.528   5.219   0.677  0.8251  0.8373 -0.0145
   99MOL0     C13000   9.645   5.237   0.658  0.1091 -1.4323 -0.3360
   99MOL0     C13001   8.801   5.427   0.581 -0.2507 -0.4243 -1.3045
   99MOL0     C13002   8.675   5.463   0.527 -0.0187 -0.9301  0.6614
   99MOL0     H13003   8.391   5.832   0.317 -2.4232  2.6546 -0.0713
   99MOL0     H13004   8.201   5.954   0.352  2.4459  0.2564 -1.2352
   99MOL0     H13005   7.867   5.780   0.566  0.7157  1.5173  0.1974
   99MOL0     H13006   7.807   5.734   0.409 -0.9046 -1.1892  3.2167
   99MOL0     H13007   7.715   5.960   0.379  1.8646 -3.2556 -1.5290
   99MOL0     H13008   7.831   6.017   0.509  0.8237 -2.0358  2.5039
   99MOL0     H13009   7.683   5.886   0.680 -0.4780  0.3732  0.4577
   99MOL0     H13010   7.588   5.826   0.549 -1.9600  0.7979  2.6633
   99MOL0     H13011   7.589   6.098   0.673 -2.3645  2.8212 -0.6410
   99MOL0     H13012   7.544   6.094   0.503  1.7249 -1.2994 -1.2085
   99MOL0     H13013   7.432   5.928   0.729  0.8973  1.7485 -0.3049
   99MOL0     H13014   7.367   5.925   0.555  0.6807 -0.6835 -1.2481
   99MOL0     H13015   7.317   6.171   0.589 -0.7963 -0.9779 -1.3645
   99MOL0     H13016   7.351   6.146   0.764 -1.6256  0.4314  0.0358
   99MOL0     H13017   7.128   5.993   0.611 -3.8599 -1.5489  2.3172
   99MOL0     H13018   7.183   5.968   0.778  1.8332 -0.6449 -1.5295
   99MOL0     H13019   7.087   6.226   0.654  0.4422 -0.8139 -0.5437
   99MOL0     H13020   7.156   6.211   0.815  0.4759  0.4830 -0.5029
   99MOL0     H13021   6.963   6.016   0.974  0.1873  1.1296  1.0191
   99MOL0     H13022   6.582   6.008   0.901 -0.8988 -1.0218  0.4724
   99MOL0     H13023   6.627   6.102   1.046 -1.0727  0.5121 -1.0393
   99MOL0     H13024   6.767   5.902   1.126  1.5136 -1.5986 -0.9528
   99MOL0     H13025   6.731   5.818   0.988 -1.2666  1.7547 -2.2796
   99MOL0     H13026   6.513   5.788   1.016  0.0208 -0.4605 -0.5573
   99MOL0     H13027   6.596   5.753   1.182  0.6211  0.8649 -0.6859
   99MOL0     H13028   6.424   5.978   1.107  0.5760  2.6646  0.5251
   99MOL0     H13029   6.526   5.989   1.252  0.7587 -2.0784  0.8886
   99MOL0     H13030   6.269   6.075   1.191 -2.2132 -0.5905 -1.4644
   99MOL0     H13031   6.058   6.132   1.264  0.0193 -0.4742 -0.0818
   99MOL0     H13032   5.637   5.750   1.507  0.0216  0.9268  2.2937
   99MOL0     H13033   5.378   5.756   1.526  0.0410  1.5024 -0.1274
   99MOL0     H13034   5.204   5.839   1.242  0.8166 -0.7006  0.8263
   99MOL0     H13035   5.135   5.999   1.248 -0.1621  1.6872  1.7275
   99MOL0     H13036   5.014   5.749   1.379  0.0772  0.2911  0.3725
   99MOL0     H13037   4.972   5.817   1.214  0.1193  3.0158 -1.1779
   99MOL0     H13038   4.889   6.023   1.324  2.1268  0.8253  1.0156
   99MOL0     H13039   4.956   5.987   1.478  1.0149 -0.5927  0.1895
   99MOL0     H13040   4.743   5.815   1.345  2.0689  1.1798 -1.4183
   99MOL0     H13041   4.808   5.771   1.492  0.0390  0.6999  0.7179
   99MOL0     H13042   4.743   6.021   1.576 -2.7229  2.4470 -0.8402
   99MOL0     H13043   4.624   5.889   1.563 -1.5226  0.7430  0.1681
   99MOL0     H13044   4.542   5.973   1.345  2.3014 -3.1055 -1.6076
   99MOL0     H13045   4.671   6.098   1.344 -1.6157  2.1186 -0.8358
   99MOL0     H13046   4.446   6.079   1.527 -0.7103  0.8200 -1.4284
   99MOL0     H13047   4.562   6.219   1.523 -0.4088  1.0377 -0.6655
   99MOL0     H13048   4.394   6.147   1.300  1.9632  0.5123 -1.3767
   99MOL0     H13049   4.471   6.307   1.320 -1.6370  1.3542  0.5691
   99MOL0     H13050   5.383   6.080   1.246  4.7204  1.8500 -1.0633
   99MOL0     H13051   5.620   6.081   1.251  1.8956 -0.8273  0.8495
   99MOL0     H13052   5.982   5.744   1.430  1.0471  1.6151  1.9429
   99MOL0     H13053   6.223   5.680   1.383  2.4842  0.3151 -0.7124
   99MOL0     H13054   7.977   5.596   0.421 -1.4298  1.8693  3.0424
   99MOL0     H13055   8.172   5.476   0.447 -2.4317  0.9423  1.9000
   99MOL0     H13056   8.804   5.665   0.270  0.1734  1.5038  1.5509
   99MOL0     H13057   9.001   5.611   0.382 -0.7555  1.7038 -0.1139
   99MOL0     H13058   9.188   5.592   0.585 -0.5152  0.1796  1.0232
   99MOL0     H13059   9.193   5.486   0.459  3.5251  1.6780 -0.1564
   99MOL0     H13060   9.382   5.454   0.602 -0.0707 -1.0889 -1.0560
   99MOL0     H13061   9.279   5.424   0.748 -1.2959 -4.4104  1.0193
   99MOL0     H13062   9.311   5.220   0.516  0.5940  0.8460  0.0623
   99MOL0     H13063   9.193   5.205   0.644 -0.6871  0.8701  3.0809
   99MOL0     H13064   9.358   5.199   0.812  0.4582 -1.2249  1.0943
   99MOL0     H13065   9.362   5.071   0.697 -0.9091  0.5603  0.7176
   99MOL0     H13066   9.749   5.262   0.646 -0.3697  0.7995 -0.1931
   99MOL0     H13067   8.803   5.356   0.663  1.7677  0.9777 -0.0404
   99MOL0     H13068   8.585   5.425   0.575 -0.1984  1.1913  2.1613
  100MOL0     O13069   4.153   1.027   3.036 -0.1251 -0.3350 -0.6416
  100MOL0     C13070   4.125   1.137   2.987  0.3412 -0.3050 -0.0271
  100MOL0     O13071   4.196   1.203   2.889 -0.4647 -0.6964  0.0027
  100MOL0     C13072   4.298   1.125   2.840  0.3902 -0.6483 -0.2539
  100MOL0     C13073   4.284   1.005   2.776  0.3292 -1.0801  0.0710
  100MOL0     C13074   4.390   0.923   2.734 -0.2538  0.2250  0.6756
  100MOL0     C13075   4.521   0.975   2.740  0.2576  0.1205  0.6296
  100MOL0     O13076   4.624   0.911   2.688  0.2008  0.3652  0.1823
  100MOL0     C13077   4.757   0.969   2.695 -0.3464 -0.2014 -0.3920
  100MOL0     C13078   4.857   0.862   2.647 -0.4900  0.9758 -0.3469
  100MOL0     C13079   4.987   0.925   2.604 -0.8396  0.5386  0.0757
  100MOL0     C13080   5.080   0.809   2.552  0.0387  0.2894  0.0184
  100MOL0     C13081   5.211   0.874   2.512 -0.1440 -0.3327  0.2292
  100MOL0     C13082   5.200   0.950   2.375 -0.1144 -0.7253  0.3339
  100MOL0     C13083   5.235   0.880   2.245 -0.4124  0.3056 -0.5090
  100MOL0     C13084   5.134   0.784   2.196  0.8329 -0.3225  0.4929
  100MOL0     N13085   5.003   0.852   2.166 -0.2264 -0.4567  0.1223
  100MOL0     C13086   4.879   0.819   2.197 -0.3598 -0.1375 -0.5142
  100MOL0     C13087   4.800   0.882   2.107  0.1020  0.1748 -0.1118
  100MOL0     C13088   4.660   0.861   2.094 -0.5012 -0.5268  0.6370
  100MOL0     C13089   4.580   0.904   2.216  0.3279 -0.3245 -1.3842
  100MOL0     C13090   4.455   0.823   2.244  0.2241 -0.5982  0.1329
  100MOL0     C13091   4.391   0.877   2.374 -0.0569 -0.2477 -0.0863
  100MOL0     O13092   4.270   0.801   2.399 -0.3925 -0.1192  0.5023
  100MOL0     C13093   4.175   0.860   2.479  0.2849  0.1120 -0.2566
  100MOL0     C13094   4.137   0.996   2.472  0.0110 -1.3043 -0.4875
  100MOL0     C13095   4.033   1.050   2.545  0.3382 -0.4705  0.0312
  100MOL0     C13096   3.957   0.964   2.630 -0.1598  0.2825  0.0515
  100MOL0     C13097   3.837   1.002   2.705 -0.6136  1.1058  0.5404
  100MOL0     O13098   3.792   1.130   2.682  0.4103  0.3392  0.3855
  100MOL0     C13099   3.665   1.158   2.726  0.3370 -0.5994 -0.0883
  100MOL0     C13100   3.572   1.195   2.625  0.0778 -0.0260  0.5218
  100MOL0     C13101   3.444   1.235   2.660  0.4654 -0.9461 -0.0391
  100MOL0     C13102   3.409   1.256   2.796  0.1367 -0.1062  0.4778
  100MOL0     O13103   3.285   1.303   2.846  0.0185  0.4199  0.0869
  100MOL0     C13104   3.250   1.436   2.789  1.2140  0.8801 -0.3350
  100MOL0     C13105   3.109   1.474   2.837 -0.1119  0.5616  0.4828
  100MOL0     C13106   3.065   1.619   2.786  0.1920  0.4448  0.0086
  100MOL0     C13107   2.928   1.656   2.841 -0.4321 -0.7606 -0.0271
  100MOL0     C13108   2.893   1.807   2.825 -0.2281 -1.0363  0.7935
  100MOL0     C13109   2.754   1.842   2.879 -0.2994  0.0576 -0.1112
  100MOL0     C13110   2.728   1.988   2.859  1.1063  0.0430 -0.2391
  100MOL0     C13111   2.588   2.025   2.891  0.4863 -0.0034 -0.4177
  100MOL0    Cl13112   2.482   1.961   2.770  0.3138  0.4638  0.1982
  100MOL0     C13113   3.509   1.225   2.889 -0.1378  0.0590 -0.1737
  100MOL0     C13114   3.633   1.169   2.860 -0.0649  0.2882 -0.5845
  100MOL0     O13115   3.774   0.915   2.773  0.3087 -1.2544 -0.4528
  100MOL0     C13116   3.994   0.827   2.630 -0.5689 -0.0527  0.1657
  100MOL0     C13117   4.099   0.778   2.556 -0.2240 -1.1480 -0.6671
  100MOL0     N13118   4.878   0.948   2.012  0.1523 -0.0898  0.0591
  100MOL0     N13119   4.997   0.929   2.051 -0.1999  0.4580 -0.2912
  100MOL0     C13120   4.536   1.101   2.807  0.0425 -0.3139  0.7298
  100MOL0     C13121   4.430   1.176   2.853  0.4418 -0.3397  0.0834
  100MOL0     C13122   4.003   1.209   3.025  0.8529 -0.3567 -0.8964
  100MOL0     C13123   3.952   1.331   2.971 -0.3935  0.2235  0.7653
  100MOL0     C13124   3.831   1.387   3.013 -0.3545  1.1798 -0.0443
  100MOL0     C13125   3.759   1.332   3.125  0.3009  1.1189 -0.5938
  100MOL0     O13126   3.654   1.383   3.186  0.0707 -0.7215 -0.3948
  100MOL0     C13127   3.590   1.501   3.129  0.1174 -0.1004 -0.7630
  100MOL0     C13128   3.447   1.524   3.195  0.3330  0.6966 -0.4356
  100MOL0     C13129   3.384   1.663   3.159 -0.6473  1.3103  0.1137
  100MOL0     C13130   3.249   1.669   3.219 -0.4020  0.2369 -0.1072
  100MOL0     C13131   3.203   1.810   3.221  0.0195 -0.4462 -0.5601
  100MOL0     C13132   3.174   1.930   3.240  0.1979  0.4698 -0.4241
  100MOL0     C13133   3.815   1.214   3.181  0.3245 -0.6856 -0.0274
  100MOL0     C13134   3.932   1.159   3.133  0.2639 -0.0473  0.6614
  100MOL0     H13135   4.185   0.961   2.769 -0.2046 -0.7669  3.6401
  100MOL0     H13136   4.373   0.820   2.705  1.2557  0.9437 -3.3788
  100MOL0     H13137   4.790   0.996   2.796 -1.1917 -2.1889  0.4669
  100MOL0     H13138   4.762   1.063   2.639 -1.3103 -0.4479 -0.9179
  100MOL0     H13139   4.812   0.808   2.563 -0.5577  0.1743  0.1904
  100MOL0     H13140   4.869   0.787   2.726  0.0999  1.5151  0.0888
  100MOL0     H13141   5.041   0.961   2.692 -0.4272 -2.3623  1.1059
  100MOL0     H13142   4.969   1.006   2.532 -0.9342 -1.4371 -2.2763
  100MOL0     H13143   5.095   0.736   2.633 -0.0606  0.7944  0.5011
  100MOL0     H13144   5.052   0.760   2.459  0.7654  0.6106 -0.3779
  100MOL0     H13145   5.296   0.806   2.510 -0.4388 -0.9176 -4.4129
  100MOL0     H13146   5.240   0.946   2.589 -0.6643  0.2464 -0.1010
  100MOL0     H13147   5.275   1.030   2.374  0.3855 -1.1898  0.1136
  100MOL0     H13148   5.104   1.003   2.370 -0.5082 -1.4427  0.2299
  100MOL0     H13149   5.251   0.953   2.166 -0.3241  0.3794 -0.4238
  100MOL0     H13150   5.328   0.830   2.275 -1.6180 -1.3350  0.6733
  100MOL0     H13151   5.121   0.709   2.275 -3.2476  0.4588  0.7692
  100MOL0     H13152   5.173   0.734   2.107 -0.7462  1.3544 -1.2125
  100MOL0     H13153   4.864   0.747   2.277 -4.0088 -1.4131 -2.1197
  100MOL0     H13154   4.639   0.754   2.084 -0.1362 -0.4222 -1.9679
  100MOL0     H13155   4.619   0.906   2.003 -0.3081  4.6401  2.8078
  100MOL0     H13156   4.540   1.004   2.198 -0.1848 -0.1069  0.7105
  100MOL0     H13157   4.645   0.907   2.304 -2.1374 -3.1848  0.7715
  100MOL0     H13158   4.383   0.810   2.162 -1.5342 -1.1654  1.6792
  100MOL0     H13159   4.492   0.724   2.271  0.9965 -0.4502 -0.3738
  100MOL0     H13160   4.368   0.984   2.363 -4.7309 -0.8350  1.6324
  100MOL0     H13161   4.466   0.859   2.451  0.5147  1.4385 -0.2084
  100MOL0     H13162   4.183   1.064   2.401 -0.3574  1.8276  2.0379
  100MOL0     H13163   4.006   1.154   2.536  0.5754 -0.2230  1.7680
  100MOL0     H13164   3.610   1.199   2.523  0.4426  1.2787  0.6968
  100MOL0     H13165   3.363   1.250   2.589  0.6532  1.0804  0.1124
  100MOL0     H13166   3.230   1.427   2.682 -3.1979 -0.4145  0.3852
  100MOL0     H13167   3.328   1.510   2.812  2.8353 -0.8146 -0.1297
  100MOL0     H13168   3.112   1.473   2.947  0.5910  2.1854  0.5149
  100MOL0     H13169   3.039   1.400   2.799 -0.7781  0.9080  1.0181
  100MOL0     H13170   3.044   1.607   2.679 -0.1653  0.2125  0.1025
  100MOL0     H13171   3.133   1.696   2.822  0.6445  0.3326 -0.5831
  100MOL0     H13172   2.854   1.592   2.792 -1.0266  2.3038 -3.5044
  100MOL0     H13173   2.932   1.640   2.949 -2.2161  1.0423  0.3788
  100MOL0     H13174   2.905   1.833   2.719  2.3852 -3.1957  0.4394
  100MOL0     H13175   2.967   1.862   2.884 -1.0808  0.7129  0.2887
  100MOL0     H13176   2.758   1.820   2.987 -1.5928  0.7901  0.1008
  100MOL0     H13177   2.684   1.780   2.822 -2.5949  2.7485 -0.4708
  100MOL0     H13178   2.791   2.061   2.910 -1.1188  1.4645  0.6171
  100MOL0     H13179   2.739   2.021   2.755 -0.9844 -1.1934 -0.9185
  100MOL0     H13180   2.580   2.134   2.898 -0.2396 -0.1430  3.4329
  100MOL0     H13181   2.554   1.990   2.989  0.8774 -0.8300 -0.5724
  100MOL0     H13182   3.488   1.241   2.994  0.4417 -0.2010 -0.0164
  100MOL0     H13183   3.707   1.143   2.935 -0.1780  1.9627  0.1284
  100MOL0     H13184   3.935   0.756   2.689  1.7062 -2.7872 -0.6025
  100MOL0     H13185   4.134   0.676   2.559  2.1654 -0.4654 -2.2768
  100MOL0     H13186   4.632   1.147   2.823 -0.2249  0.4680  0.1283
  100MOL0     H13187   4.442   1.280   2.884  2.4603 -0.0790 -1.4491
  100MOL0     H13188   4.003   1.385   2.892  2.5586 -2.1993  0.8261
  100MOL0     H13189   3.805   1.488   2.981  1.4889  2.0193  0.8963
  100MOL0     H13190   3.577   1.486   3.021  0.7326 -2.3449 -0.5879
  100MOL0     H13191   3.645   1.595   3.139  2.0228 -1.1001 -1.2056
  100MOL0     H13192   3.381   1.440   3.173  0.0291  1.5946 -3.4070
  100MOL0     H13193   3.468   1.524   3.302 -1.4702  0.6617 -0.0533
  100MOL0     H13194   3.390   1.671   3.051 -1.4707 -0.7536 -0.1333
  100MOL0     H13195   3.446   1.740   3.206 -0.9841  0.7054  1.6440
  100MOL0     H13196   3.187   1.610   3.151 -1.4171  0.2006  0.8374
  100MOL0     H13197   3.256   1.623   3.318  2.7182 -3.1728 -1.6712
  100MOL0     H13198   3.139   2.027   3.269 -0.5987 -0.4755  2.0331
  100MOL0     H13199   3.766   1.173   3.268  1.1192 -0.5247  0.5053
  100MOL0     H13200   3.970   1.071   3.184  1.4824 -0.4829 -0.9163
  101MOL0     O13201   6.509   9.230  10.722 -0.1161  0.0464  0.1607
  101MOL0     C13202   6.573   9.278  10.818  0.2931  0.2329  1.0345
  101MOL0     O13203   6.518   9.352  10.929 -0.4980  0.0207  0.1515
  101MOL0     C13204   6.381   9.361  10.936 -1.0216  0.2615 -0.2008
  101MOL0     C13205   6.301   9.248  10.914 -0.1442  0.1062 -0.8359
  101MOL0     C13206   6.159   9.268  10.917  0.0210 -0.3009 -0.4938
  101MOL0     C13207   6.100   9.400  10.942  0.1056  0.5816 -0.0295
  101MOL0     O13208   5.965   9.397  10.962  0.1011 -0.8765 -0.6684
  101MOL0     C13209   5.896   9.490  10.877  0.1035  0.2897  0.5149
  101MOL0     C13210   5.818   9.596  10.953 -0.2330  0.9913 -0.1173
  101MOL0     C13211   5.765   9.702  10.857  0.5124 -0.2330  0.6568
  101MOL0     C13212   5.630   9.730  10.916 -0.5550  0.0471  0.3600
  101MOL0     C13213   5.556   9.818  10.831  0.7742  0.3957  0.2641
  101MOL0     C13214   5.405   9.852  10.884  0.0859 -0.6167  0.9119
  101MOL0     C13215   5.413   9.970  10.989 -0.0171 -0.2494 -0.4452
  101MOL0     C13216   5.278  10.016  11.042  0.2728  0.8995  0.0816
  101MOL0     N13217   5.197  10.094  10.942 -0.3925  0.2264  0.5287
  101MOL0     C13218   5.120  10.045  10.839  0.2323  0.6272  0.1583
  101MOL0     C13219   5.068  10.152  10.778 -0.2196 -0.4862  1.0809
  101MOL0     C13220   4.969  10.150  10.661 -0.3547  0.2640  0.1600
  101MOL0     C13221   4.833  10.097  10.726 -0.2019 -0.4693  0.0293
  101MOL0     C13222   4.705  10.134  10.645  0.5918 -0.1712  0.3314
  101MOL0     C13223   4.584  10.061  10.709  0.2989  0.1208  0.1159
  101MOL0     O13224   4.574  10.111  10.845 -0.6101  0.2090 -0.2578
  101MOL0     C13225   4.467  10.067  10.918 -0.0539 -0.0471 -0.2295
  101MOL0     C13226   4.351  10.012  10.863  0.3677 -0.0257  0.0064
  101MOL0     C13227   4.233   9.994  10.946  0.1024 -0.2497  0.8233
  101MOL0     C13228   4.227  10.050  11.080 -0.5188  0.7645  0.5159
  101MOL0     C13229   4.111  10.058  11.165  0.0476  0.0400 -0.6061
  101MOL0     O13230   4.019   9.962  11.153 -0.2568 -0.0496  0.7270
  101MOL0     C13231   3.926   9.983  11.251 -0.7158  0.3897  0.6101
  101MOL0     C13232   3.817  10.073  11.229 -0.2946 -0.2754  1.1748
  101MOL0     C13233   3.717  10.087  11.318  0.5641  0.1148 -0.2047
  101MOL0     C13234   3.718  10.008  11.435  1.0674  0.7414 -0.3779
  101MOL0     O13235   3.637  10.018  11.542 -0.1427 -0.4362 -0.1056
  101MOL0     C13236   3.497  10.047  11.523  0.3289 -0.6609 -0.1535
  101MOL0     C13237   3.418   9.921  11.467 -0.5901 -0.3007 -0.8712
  101MOL0     C13238   3.270   9.948  11.477 -1.0132  0.4203 -0.1128
  101MOL0     C13239   3.184   9.838  11.415 -0.5778 -0.0893 -0.7080
  101MOL0     C13240   3.032   9.878  11.420 -0.7693  0.0738 -0.0614
  101MOL0     C13241   2.943   9.770  11.360 -0.3223  0.2959  0.0830
  101MOL0     C13242   2.790   9.804  11.369  0.0917  0.2805  0.3311
  101MOL0     C13243   2.702   9.688  11.344 -0.1257 -0.5742  0.0150
  101MOL0    Cl13244   2.683   9.619  11.510  0.3194 -0.1151 -0.4257
  101MOL0     C13245   3.826   9.919  11.453  0.2733 -0.3619 -0.4655
  101MOL0     C13246   3.929   9.908  11.367  0.9985 -0.0275  0.0206
  101MOL0     O13247   4.127  10.130  11.265 -0.3700 -0.4170  0.5503
  101MOL0     C13248   4.351  10.092  11.133 -0.2984 -0.0109  0.7661
  101MOL0     C13249   4.465  10.104  11.058 -0.0982  0.9214  0.6529
  101MOL0     N13250   5.122  10.269  10.842 -0.4149  0.6822 -0.0649
  101MOL0     N13251   5.203  10.233  10.934 -0.4124  0.1451 -0.3178
  101MOL0     C13252   6.185   9.512  10.959  0.3547 -0.2892 -1.4845
  101MOL0     C13253   6.328   9.493  10.959  0.1040 -0.3142  0.6244
  101MOL0     C13254   6.721   9.261  10.813 -0.2203 -0.7092  0.0735
  101MOL0     C13255   6.781   9.154  10.746  0.1262 -0.3676  0.4501
  101MOL0     C13256   6.918   9.147  10.725  0.0155  0.9945 -0.3176
  101MOL0     C13257   7.000   9.249  10.775  0.0642 -0.4490 -1.1449
  101MOL0     O13258   7.128   9.235  10.743 -0.6609 -0.0703 -0.6135
  101MOL0     C13259   7.219   9.303  10.827 -0.3555 -0.2024  0.4596
  101MOL0     C13260   7.359   9.258  10.801  0.1844  0.1172  0.1729
  101MOL0     C13261   7.408   9.114  10.855  0.3394  0.0029 -0.0729
  101MOL0     C13262   7.550   9.100  10.798  0.0204  0.8642  0.3226
  101MOL0     C13263   7.598   8.956  10.819 -0.2273  0.2206  0.4768
  101MOL0     C13264   7.641   8.849  10.846  0.7553  0.1979 -1.0942
  101MOL0     C13265   6.942   9.353  10.840  0.0160 -0.2569 -0.6918
  101MOL0     C13266   6.807   9.363  10.869 -1.1853  0.9540 -0.7736
  101MOL0     H13267   6.346   9.152  10.890 -2.3226 -1.1410 -0.1776
  101MOL0     H13268   6.102   9.178  10.894 -0.3969 -0.2325  0.2600
  101MOL0     H13269   5.827   9.435  10.812  3.1182 -2.2990 -0.7777
  101MOL0     H13270   5.967   9.529  10.803  0.0765 -0.4653  0.0695
  101MOL0     H13271   5.889   9.636  11.026 -1.0570  1.9074  0.1948
  101MOL0     H13272   5.743   9.544  11.013 -0.3158  1.0206 -0.1944
  101MOL0     H13273   5.747   9.665  10.756  2.6999 -0.3201  0.2428
  101MOL0     H13274   5.822   9.795  10.842 -0.9054  0.5834  0.1386
  101MOL0     H13275   5.576   9.636  10.922  2.8441 -1.9914  2.6574
  101MOL0     H13276   5.642   9.786  11.010  0.0969  3.6209 -1.6547
  101MOL0     H13277   5.531   9.768  10.737 -0.1924  2.1581 -0.4739
  101MOL0     H13278   5.613   9.908  10.803  1.7528 -0.7487 -1.6312
  101MOL0     H13279   5.368   9.761  10.932 -1.8027  0.6903  2.0644
  101MOL0     H13280   5.342   9.876  10.797 -0.0305 -1.2298  0.8200
  101MOL0     H13281   5.464   9.923  11.073  2.1443  2.2292 -0.2053
  101MOL0     H13282   5.472  10.057  10.958 -0.7073  0.6491  0.7027
  101MOL0     H13283   5.304  10.082  11.126  0.5107 -0.2722  0.9587
  101MOL0     H13284   5.221   9.932  11.083  3.4566 -0.6198  1.7630
  101MOL0     H13285   5.125   9.940  10.813  2.4387  0.8368 -0.4659
  101MOL0     H13286   5.008  10.073  10.595 -2.1669 -0.9597  0.4716
  101MOL0     H13287   4.949  10.252  10.627 -0.7832 -0.6346 -2.4941
  101MOL0     H13288   4.825  10.141  10.826 -1.5365  2.0113 -1.0865
  101MOL0     H13289   4.844   9.988  10.735 -0.6219 -0.4078  1.7578
  101MOL0     H13290   4.699  10.243  10.656  0.9347 -0.0398 -0.6960
  101MOL0     H13291   4.705  10.113  10.538 -0.6066  1.9113 -0.1386
  101MOL0     H13292   4.595   9.952  10.713 -0.2357  0.0704  0.3178
  101MOL0     H13293   4.493  10.093  10.658  0.3634 -0.1255 -0.1541
  101MOL0     H13294   4.348   9.975  10.761  1.3019  1.7575 -0.7131
  101MOL0     H13295   4.136   9.959  10.913 -0.1954 -1.2772  2.6695
  101MOL0     H13296   3.818  10.129  11.136 -0.5685  0.6329  1.7080
  101MOL0     H13297   3.638  10.162  11.314 -0.4465 -0.8807  0.3871
  101MOL0     H13298   3.489  10.143  11.473 -0.8858  1.0648  3.0396
  101MOL0     H13299   3.459  10.068  11.623  0.9179  1.0507 -0.2647
  101MOL0     H13300   3.434   9.827  11.519 -0.3251 -0.1825 -0.7380
  101MOL0     H13301   3.449   9.913  11.362 -0.5224  1.2074 -0.9872
  101MOL0     H13302   3.249  10.036  11.415  1.9816 -0.5063 -2.7511
  101MOL0     H13303   3.235   9.953  11.580 -2.1068 -0.0220 -0.4512
  101MOL0     H13304   3.224   9.830  11.314 -0.1112 -1.4407 -0.4352
  101MOL0     H13305   3.181   9.743  11.469 -1.9751 -0.8812 -2.1098
  101MOL0     H13306   3.020   9.965  11.354 -2.6615 -0.7749 -0.9423
  101MOL0     H13307   3.005   9.902  11.523 -0.7097  0.3645 -0.1116
  101MOL0     H13308   2.963   9.677  11.414 -2.4664  0.1052  0.6703
  101MOL0     H13309   2.974   9.757  11.256  0.8876 -2.4949  0.7036
  101MOL0     H13310   2.772   9.855  11.464  0.1400  1.7185 -0.4098
  101MOL0     H13311   2.761   9.876  11.292  2.6110  0.5508 -0.4508
  101MOL0     H13312   2.750   9.613  11.282  0.6208  1.4564 -1.9654
  101MOL0     H13313   2.605   9.708  11.297 -0.9192 -1.8403  1.0055
  101MOL0     H13314   3.829   9.844  11.532  1.4418 -1.0196 -1.1072
  101MOL0     H13315   4.013   9.842  11.384 -0.0556 -1.3862  0.0891
  101MOL0     H13316   4.364  10.134  11.232  1.3775  1.1294  0.1202
  101MOL0     H13317   4.553  10.156  11.095  0.3191  1.0416 -0.4719
  101MOL0     H13318   6.149   9.614  10.972 -2.6643 -1.1813 -2.0177
  101MOL0     H13319   6.405   9.569  10.962  0.0578  0.2719 -4.5322
  101MOL0     H13320   6.718   9.072  10.713  1.2870 -0.3750 -1.9524
  101MOL0     H13321   6.961   9.067  10.666 -1.7223 -0.5233  0.3722
  101MOL0     H13322   7.190   9.289  10.932 -2.8241 -0.7878 -0.2409
  101MOL0     H13323   7.216   9.410  10.803  0.5915  0.0297  1.2827
  101MOL0     H13324   7.372   9.261  10.692  0.0123  3.6599  0.1140
  101MOL0     H13325   7.421   9.335  10.848 -0.3543  1.2301 -0.8661
  101MOL0     H13326   7.349   9.025  10.832 -1.3840  1.1049 -0.1205
  101MOL0     H13327   7.408   9.123  10.964 -1.7422  1.7475 -0.1344
  101MOL0     H13328   7.555   9.111  10.690  1.6662  2.9704  0.5443
  101MOL0     H13329   7.619   9.176  10.835 -0.5565  0.1931  3.0090
  101MOL0     H13330   7.681   8.751  10.863 -0.9441 -0.2421  0.7340
  101MOL0     H13331   7.002   9.442  10.855  1.6094 -1.4451  0.4187
  101MOL0     H13332   6.750   9.443  10.915 -1.1501  0.7491 -0.3756
  102MOL0     O13333   4.597   4.269   2.613  0.7241 -0.1076 -0.4215
  102MOL0     C13334   4.660   4.209   2.698  0.1571 -0.1911 -0.2861
  102MOL0     O13335   4.608   4.137   2.800  0.4612  0.7239 -0.2280
  102MOL0     C13336   4.473   4.122   2.822 -0.7500  0.0868 -0.2449
  102MOL0     C13337   4.425   4.008   2.871 -0.1466 -0.5178 -0.5821
  102MOL0     C13338   4.285   3.995   2.899  0.3786 -0.2894  0.8554
  102MOL0     C13339   4.192   4.098   2.884  0.1276 -0.4360  0.0233
  102MOL0     O13340   4.055   4.071   2.900 -0.2339  0.7709 -1.0697
  102MOL0     C13341   3.997   4.163   3.009 -0.6483  0.3219  0.4715
  102MOL0     C13342   3.842   4.173   2.981  0.2388  0.1100 -0.8359
  102MOL0     C13343   3.754   4.237   3.094  0.5835 -0.5334 -0.1740
  102MOL0     C13344   3.610   4.210   3.080  0.3077  0.3596  0.4443
  102MOL0     C13345   3.514   4.295   3.170 -1.2367 -0.8534 -0.3275
  102MOL0     C13346   3.559   4.446   3.194  0.3025 -0.6380  0.9069
  102MOL0     C13347   3.553   4.531   3.068  0.1944 -0.0236  0.5417
  102MOL0     C13348   3.583   4.679   3.102  0.0658 -0.1344 -0.4283
  102MOL0     N13349   3.721   4.704   3.134 -0.3205  0.5101  0.6521
  102MOL0     C13350   3.831   4.662   3.057  0.6141  0.4204  0.3781
  102MOL0     C13351   3.940   4.695   3.128 -0.2604 -0.4889  0.1037
  102MOL0     C13352   4.084   4.676   3.075  0.0158  0.6819 -0.0281
  102MOL0     C13353   4.107   4.592   2.950  0.3535 -0.1791 -0.6077
  102MOL0     C13354   4.250   4.600   2.910 -0.2542  0.3329  0.5574
  102MOL0     C13355   4.337   4.531   3.019 -0.0844  0.2813 -0.0903
  102MOL0     O13356   4.471   4.538   2.967  0.8609 -0.2740 -0.3432
  102MOL0     C13357   4.552   4.648   2.994 -0.1214  0.8626 -0.0314
  102MOL0     C13358   4.682   4.637   2.941  0.6561  0.2952  0.1159
  102MOL0     C13359   4.772   4.744   2.952 -0.4274 -1.4188 -0.3907
  102MOL0     C13360   4.746   4.859   3.040 -0.0337 -0.0071 -0.4872
  102MOL0     C13361   4.833   4.970   3.064 -0.9303  0.3671 -0.4764
  102MOL0     O13362   4.956   4.952   2.996  0.7582 -0.6014 -0.3487
  102MOL0     C13363   5.034   5.062   3.018  0.1127 -0.7975  0.3807
  102MOL0     C13364   5.002   5.183   2.961  0.5419  0.0221  0.6918
  102MOL0     C13365   5.091   5.288   2.986  0.6194  0.6382  0.5506
  102MOL0     C13366   5.203   5.273   3.068  0.0051 -0.6701 -0.0871
  102MOL0     O13367   5.271   5.384   3.118 -0.0552  0.6495  0.7796
  102MOL0     C13368   5.255   5.518   3.059  1.2443 -0.3599  0.4288
  102MOL0     C13369   5.381   5.603   3.075 -0.1295 -0.8798  0.1233
  102MOL0     C13370   5.336   5.740   3.134 -0.2856 -0.4449  0.1188
  102MOL0     C13371   5.456   5.829   3.167  0.6461 -0.6463  0.1098
  102MOL0     C13372   5.446   5.979   3.181 -1.1191  0.5156 -0.2466
  102MOL0     C13373   5.331   6.020   3.268  0.2507 -0.4781 -0.7411
  102MOL0     C13374   5.326   6.174   3.294 -0.9994 -0.0506 -0.0694
  102MOL0     C13375   5.232   6.256   3.214 -0.1796 -1.0524 -0.1612
  102MOL0    Cl13376   5.276   6.242   3.042 -0.4262 -0.2442 -0.4876
  102MOL0     C13377   5.234   5.146   3.119 -0.2748  0.1702  0.1303
  102MOL0     C13378   5.149   5.039   3.093 -0.6043  0.4082  0.3467
  102MOL0     O13379   4.796   5.064   3.135 -0.4039  0.5967 -0.4656
  102MOL0     C13380   4.612   4.866   3.100  0.6218 -0.9033  0.6538
  102MOL0     C13381   4.513   4.767   3.063 -0.4569 -0.0485 -0.0843
  102MOL0     N13382   3.904   4.768   3.239  0.3589  0.1767  0.1591
  102MOL0     N13383   3.775   4.768   3.239  0.5168 -0.0423 -0.1190
  102MOL0     C13384   4.249   4.220   2.836 -0.1597  0.8548 -0.2338
  102MOL0     C13385   4.383   4.228   2.810 -0.3828  0.4573  0.5106
  102MOL0     C13386   4.808   4.221   2.675  0.5294  0.4875 -1.2992
  102MOL0     C13387   4.884   4.141   2.762  0.3273 -0.7723 -1.1415
  102MOL0     C13388   5.025   4.143   2.754 -0.8099  0.3941  0.3158
  102MOL0     C13389   5.093   4.220   2.664  0.2025  0.3161 -0.2429
  102MOL0     O13390   5.234   4.211   2.676  0.7650 -0.1743  0.7056
  102MOL0     C13391   5.321   4.273   2.582 -0.1626 -0.2241  1.2561
  102MOL0     C13392   5.470   4.263   2.630 -0.7125 -0.1635  0.2738
  102MOL0     C13393   5.524   4.353   2.747 -0.4028  0.0859  0.0415
  102MOL0     C13394   5.459   4.316   2.882  0.5363  0.5871 -0.6157
  102MOL0     C13395   5.517   4.201   2.952  0.2789  0.1116  0.7657
  102MOL0     C13396   5.568   4.109   3.013 -0.1279 -0.5405 -0.3332
  102MOL0     C13397   5.016   4.303   2.583 -0.1294 -0.0585  0.4148
  102MOL0     C13398   4.873   4.305   2.586  0.3045  0.5963 -0.5550
  102MOL0     H13399   4.496   3.928   2.890 -1.5178 -1.2866  1.8418
  102MOL0     H13400   4.256   3.895   2.931  2.5422 -1.2466 -0.0109
  102MOL0     H13401   4.039   4.264   3.019 -0.4414  0.1145  1.9738
  102MOL0     H13402   4.014   4.113   3.105 -0.4510  1.0109  0.8014
  102MOL0     H13403   3.813   4.067   2.978 -1.2520  0.4933 -0.5655
  102MOL0     H13404   3.813   4.219   2.886 -0.4683 -0.5514 -0.9558
  102MOL0     H13405   3.779   4.343   3.098  0.9770 -0.6561  1.3575
  102MOL0     H13406   3.778   4.190   3.190 -0.6877  2.4982  1.7840
  102MOL0     H13407   3.577   4.247   2.982  0.6929 -1.3548 -0.3737
  102MOL0     H13408   3.595   4.102   3.082  2.3898 -0.0390 -1.4157
  102MOL0     H13409   3.506   4.262   3.274  0.0918  1.0338  0.4385
  102MOL0     H13410   3.414   4.304   3.127 -0.1763 -1.6243 -3.2147
  102MOL0     H13411   3.664   4.462   3.220  1.0793 -4.2372  0.6377
  102MOL0     H13412   3.490   4.497   3.261 -0.7398  1.8384 -1.8741
  102MOL0     H13413   3.614   4.488   2.988 -0.6144 -0.8841  0.3672
  102MOL0     H13414   3.448   4.530   3.035  0.8943 -1.9887 -1.9032
  102MOL0     H13415   3.516   4.700   3.185  1.2198  0.0664  0.4622
  102MOL0     H13416   3.556   4.737   3.013 -1.5873  1.5957  1.1227
  102MOL0     H13417   3.838   4.605   2.965  3.2592 -0.0462  0.7903
  102MOL0     H13418   4.138   4.645   3.165  1.7591 -0.5213 -1.4317
  102MOL0     H13419   4.129   4.775   3.059  1.0852 -0.0442 -1.7753
  102MOL0     H13420   4.039   4.618   2.868  0.5232  0.2008 -0.6341
  102MOL0     H13421   4.084   4.490   2.980  1.4259 -0.5288 -0.9511
  102MOL0     H13422   4.271   4.546   2.818  0.4810 -0.5462  1.2155
  102MOL0     H13423   4.283   4.702   2.889  3.4447 -0.7678  0.3515
  102MOL0     H13424   4.310   4.425   3.025  0.5672  0.0934 -0.3184
  102MOL0     H13425   4.328   4.583   3.114  1.9144  5.0764 -2.1923
  102MOL0     H13426   4.711   4.544   2.893 -3.2616 -1.9303  1.6297
  102MOL0     H13427   4.867   4.740   2.901 -0.1074  2.1113 -0.3225
  102MOL0     H13428   4.923   5.196   2.888  0.5451 -1.1839  0.4522
  102MOL0     H13429   5.066   5.382   2.939 -1.8631 -0.8637 -1.4366
  102MOL0     H13430   5.176   5.561   3.121  1.4853  0.7154  0.0103
  102MOL0     H13431   5.220   5.526   2.956 -1.6608  1.5463  1.4332
  102MOL0     H13432   5.438   5.598   2.982  1.3070 -0.9660  0.9830
  102MOL0     H13433   5.451   5.566   3.150  1.8347 -2.0458 -2.1486
  102MOL0     H13434   5.286   5.716   3.229  0.7110 -1.9085  0.3008
  102MOL0     H13435   5.261   5.801   3.083  1.2408  1.0741 -0.3555
  102MOL0     H13436   5.494   5.787   3.260 -0.6707  0.1582  1.0433
  102MOL0     H13437   5.537   5.818   3.094  0.0434 -0.4382 -0.6089
  102MOL0     H13438   5.433   6.028   3.084  0.8568 -3.0829 -2.5619
  102MOL0     H13439   5.536   6.023   3.226 -0.5350  0.2576 -1.1193
  102MOL0     H13440   5.329   5.967   3.363 -1.0836 -1.6641 -1.3965
  102MOL0     H13441   5.248   5.980   3.210  2.0452 -4.2370 -0.9852
  102MOL0     H13442   5.314   6.193   3.400 -0.1388 -0.2707  0.0771
  102MOL0     H13443   5.419   6.224   3.267 -2.3907  2.0888 -1.1859
  102MOL0     H13444   5.232   6.361   3.245  0.9997 -1.0208 -0.2525
  102MOL0     H13445   5.129   6.222   3.231 -0.2465 -0.6685  0.2166
  102MOL0     H13446   5.322   5.130   3.181  0.4860 -1.9253 -1.3704
  102MOL0     H13447   5.181   4.943   3.132 -3.2199  0.4350  2.9601
  102MOL0     H13448   4.578   4.954   3.155  0.9698  1.0337 -2.0622
  102MOL0     H13449   4.408   4.776   3.089 -0.4422 -2.5461  1.2366
  102MOL0     H13450   4.181   4.300   2.807 -0.8085  0.1571 -0.6744
  102MOL0     H13451   4.425   4.322   2.774 -1.1725 -0.6168 -3.8356
  102MOL0     H13452   4.837   4.072   2.832  1.5942 -1.8108 -1.2895
  102MOL0     H13453   5.086   4.073   2.810 -2.5601  0.2900  2.2029
  102MOL0     H13454   5.295   4.378   2.565  0.4301 -0.0711  1.3001
  102MOL0     H13455   5.311   4.222   2.486  2.5096  1.6787 -0.1676
  102MOL0     H13456   5.511   4.167   2.661  2.5810  1.1225  0.3640
  102MOL0     H13457   5.544   4.287   2.552  2.9516  1.7922  3.9386
  102MOL0     H13458   5.514   4.455   2.710 -1.9570  0.0166  0.2196
  102MOL0     H13459   5.630   4.326   2.754 -0.5326 -0.8354 -1.3062
  102MOL0     H13460   5.468   4.395   2.958  0.1621 -0.2939  0.3741
  102MOL0     H13461   5.354   4.295   2.859  0.2827  2.6010 -1.5196
  102MOL0     H13462   5.609   4.030   3.073  0.5128 -0.0111 -0.0621
  102MOL0     H13463   5.078   4.370   2.526  2.3539 -1.8272  0.8811
  102MOL0     H13464   4.808   4.352   2.512  1.9468  1.2717 -1.6303
  103MOL0     O13465  10.507   8.332  10.900 -0.4062 -0.6410 -0.0719
  103MOL0     C13466  10.486   8.412  10.801 -0.1668  0.2060 -1.2076
  103MOL0     O13467  10.404   8.378  10.694  0.5163  0.1293 -1.0746
  103MOL0     C13468  10.320   8.265  10.696 -0.0887 -0.2127 -0.4567
  103MOL0     C13469  10.214   8.250  10.783  1.1644 -0.1876  0.8205
  103MOL0     C13470  10.132   8.138  10.773 -0.5778  0.2915  0.0362
  103MOL0     C13471  10.154   8.042  10.673  0.5287 -0.1285  0.6890
  103MOL0     O13472  10.092   7.927  10.662  0.2022 -0.4872 -0.0133
  103MOL0     C13473   9.951   7.928  10.641  0.0723 -0.6319 -0.1333
  103MOL0     C13474   9.931   7.820  10.535 -0.1702 -0.1819  0.2938
  103MOL0     C13475   9.779   7.786  10.521 -0.0279  0.9065  0.1381
  103MOL0     C13476   9.768   7.657  10.440 -0.4188 -0.3148  0.3158
  103MOL0     C13477   9.623   7.627  10.386 -0.3061 -0.2215  0.2691
  103MOL0     C13478   9.640   7.494  10.302 -0.2164 -0.9810  0.3856
  103MOL0     C13479   9.509   7.443  10.240  0.0075 -0.1615 -0.3653
  103MOL0     C13480   9.404   7.548  10.205 -0.1237 -0.1756  0.2522
  103MOL0     N13481   9.295   7.474  10.127 -0.1463  0.2721 -0.3031
  103MOL0     C13482   9.242   7.485   9.998 -1.2751 -0.3807 -0.3498
  103MOL0     C13483   9.137   7.398   9.997  0.6621 -0.0497  0.0646
  103MOL0     C13484   9.040   7.383   9.885 -0.4134 -0.3065 -0.0066
  103MOL0     C13485   8.907   7.303   9.909 -0.9114 -0.5790 -0.0169
  103MOL0     C13486   8.818   7.331   9.789  0.5831  0.0883  0.7782
  103MOL0     C13487   8.670   7.278   9.797 -0.0666  0.0957 -0.3910
  103MOL0     O13488   8.613   7.309   9.671 -0.7693 -0.7036  0.4211
  103MOL0     C13489   8.481   7.284   9.645 -0.0025 -1.0976  0.4643
  103MOL0     C13490   8.430   7.319   9.521  0.0266  0.7627  0.1154
  103MOL0     C13491   8.293   7.300   9.483  0.2274  0.3362  0.0153
  103MOL0     C13492   8.203   7.253   9.573  0.4040 -1.0161  0.1080
  103MOL0     C13493   8.062   7.240   9.539  0.1024 -0.8327 -0.0467
  103MOL0     O13494   7.981   7.170   9.629  0.2445  0.2677 -0.0162
  103MOL0     C13495   7.847   7.174   9.638  0.4117  0.0484 -0.2858
  103MOL0     C13496   7.797   7.094   9.738  0.0161  0.4245 -0.8577
  103MOL0     C13497   7.665   7.107   9.773  0.0635 -0.0039 -0.6668
  103MOL0     C13498   7.578   7.187   9.708  0.4339  0.0538  0.5000
  103MOL0     O13499   7.450   7.179   9.753 -0.0116 -0.0688  0.5627
  103MOL0     C13500   7.329   7.215   9.677 -0.1971 -0.8904 -0.4300
  103MOL0     C13501   7.202   7.232   9.765 -0.6015 -1.0332  0.3446
  103MOL0     C13502   7.192   7.112   9.864  0.3849  0.8542 -0.5987
  103MOL0     C13503   7.059   7.105   9.942  0.4682 -0.1343 -0.7362
  103MOL0     C13504   7.065   7.210  10.052 -0.3943 -0.1292 -0.4109
  103MOL0     C13505   6.923   7.235  10.101  0.6199 -0.1152 -0.0485
  103MOL0     C13506   6.923   7.372  10.178  0.2155  0.4787 -0.1861
  103MOL0     C13507   6.786   7.396  10.248 -0.6678 -0.2864  0.2894
  103MOL0    Cl13508   6.646   7.435  10.142  0.6154  0.3317 -0.1868
  103MOL0     C13509   7.621   7.259   9.596  1.0694 -0.9034 -0.1356
  103MOL0     C13510   7.755   7.253   9.567 -0.1653 -0.2363 -0.5796
  103MOL0     O13511   8.029   7.282   9.425 -1.0333  0.9535 -0.9315
  103MOL0     C13512   8.258   7.212   9.699  0.2900 -0.5071 -0.4577
  103MOL0     C13513   8.387   7.231   9.732 -0.1282 -0.0825  0.5030
  103MOL0     N13514   9.135   7.326  10.116  0.7552 -0.4325  0.0195
  103MOL0     N13515   9.224   7.371  10.193  0.1606  0.3437  1.0418
  103MOL0     C13516  10.258   8.062  10.573  0.6109  0.1716 -0.5591
  103MOL0     C13517  10.324   8.180  10.585 -0.4469  0.5769 -0.0811
  103MOL0     C13518  10.569   8.529  10.791 -0.2057 -0.0901  0.6228
  103MOL0     C13519  10.549   8.621  10.685 -0.0202 -0.2070  0.1145
  103MOL0     C13520  10.634   8.732  10.669 -0.2821  0.7689 -0.1137
  103MOL0     C13521  10.740   8.755  10.753 -0.6098  0.2266 -0.2023
  103MOL0     O13522  10.806   8.873  10.726 -0.1590  0.0365  0.1280
  103MOL0     C13523  10.944   8.887  10.768 -0.6618  0.8411  0.3033
  103MOL0     C13524  10.978   9.038  10.770  0.5033  0.7446 -0.2710
  103MOL0     C13525  11.123   9.055  10.820  0.1622  0.1119  0.4171
  103MOL0     C13526  11.161   9.200  10.823 -0.7808  0.2970 -0.3220
  103MOL0     C13527  11.083   9.286  10.915  0.5288  0.3803 -0.1452
  103MOL0     C13528  11.015   9.361  10.976  0.6606  0.8064 -0.3154
  103MOL0     C13529  10.754   8.672  10.870  0.2879  0.2547  0.2843
  103MOL0     C13530  10.664   8.565  10.887 -0.0815 -0.6136 -0.4532
  103MOL0     H13531  10.195   8.326  10.858 -2.5312 -0.5157  0.4172
  103MOL0     H13532  10.051   8.136  10.845  1.8973 -0.5244  2.9985
  103MOL0     H13533   9.913   8.026  10.610  1.8063  0.2475  0.4211
  103MOL0     H13534   9.897   7.895  10.730  1.0973  0.8036  1.0798
  103MOL0     H13535   9.984   7.731  10.567  1.1521 -0.1392 -1.6361
  103MOL0     H13536   9.969   7.862  10.442 -0.3203  0.2213  0.4092
  103MOL0     H13537   9.732   7.866  10.462  1.0745  0.6877 -1.1007
  103MOL0     H13538   9.738   7.770  10.621  1.2374 -3.5259  0.1695
  103MOL0     H13539   9.836   7.666  10.355  0.9414 -3.1261  1.0104
  103MOL0     H13540   9.801   7.571  10.499  1.2564 -0.0956 -0.2671
  103MOL0     H13541   9.587   7.714  10.331  2.7840  2.8621  2.6178
  103MOL0     H13542   9.560   7.603  10.473 -2.2035  0.1688 -0.9414
  103MOL0     H13543   9.673   7.425  10.380 -0.8057  0.5425  2.0480
  103MOL0     H13544   9.718   7.496  10.225 -1.9718  0.9429 -1.4733
  103MOL0     H13545   9.537   7.390  10.149  3.2523  0.2054  0.2817
  103MOL0     H13546   9.471   7.368  10.310  2.4575 -0.5137  0.6841
  103MOL0     H13547   9.445   7.633  10.150  1.2611 -2.2730 -2.1950
  103MOL0     H13548   9.355   7.587  10.295  1.5256 -1.9849  2.0414
  103MOL0     H13549   9.272   7.555   9.921  0.6045  1.4774  1.9248
  103MOL0     H13550   9.093   7.356   9.793  1.9296 -0.5972  1.3438
  103MOL0     H13551   9.021   7.490   9.869  0.2750  0.0768  1.5524
  103MOL0     H13552   8.874   7.334  10.009 -5.3673 -0.6525 -1.2535
  103MOL0     H13553   8.934   7.198   9.914  1.6578 -0.2759 -3.7131
  103MOL0     H13554   8.825   7.435   9.758 -0.7488 -0.2516 -0.7871
  103MOL0     H13555   8.864   7.280   9.704 -1.6942  2.3504 -2.0157
  103MOL0     H13556   8.629   7.319   9.889 -0.2489  1.2853 -0.9859
  103MOL0     H13557   8.676   7.169   9.804  4.9949  0.1017 -0.8227
  103MOL0     H13558   8.513   7.344   9.456 -0.3135  0.5759 -0.3989
  103MOL0     H13559   8.265   7.338   9.385 -0.4862  2.6120  1.0371
  103MOL0     H13560   7.847   7.021   9.801 -3.1849 -0.7461  0.5318
  103MOL0     H13561   7.624   7.062   9.863  0.5513  2.4098  0.8640
  103MOL0     H13562   7.307   7.142   9.598  0.3852 -1.2471 -0.2650
  103MOL0     H13563   7.343   7.310   9.624  0.3901 -1.5875 -1.5589
  103MOL0     H13564   7.118   7.236   9.695  1.5638 -2.2228 -2.5144
  103MOL0     H13565   7.222   7.312   9.836 -0.4456 -2.6323  2.2032
  103MOL0     H13566   7.279   7.107   9.930 -0.8381 -1.0816  0.9650
  103MOL0     H13567   7.212   7.021   9.807 -0.1496 -1.3407  2.4398
  103MOL0     H13568   6.976   7.119   9.873  1.6206  3.6024 -1.6264
  103MOL0     H13569   7.046   7.014  10.002  0.1016  1.7727  2.2942
  103MOL0     H13570   7.113   7.307  10.035 -0.6905  0.7090  2.8749
  103MOL0     H13571   7.120   7.179  10.142  0.2036  2.2522  0.1090
  103MOL0     H13572   6.882   7.152  10.160 -0.0184 -2.0893 -3.0412
  103MOL0     H13573   6.864   7.233  10.009  1.6477 -1.5997 -0.7136
  103MOL0     H13574   6.998   7.359  10.257  1.3236 -1.6487 -1.5283
  103MOL0     H13575   6.945   7.463  10.121  0.5479  1.7530  1.8488
  103MOL0     H13576   6.794   7.476  10.322 -0.9982  0.0481 -0.0407
  103MOL0     H13577   6.758   7.305  10.302 -0.8706 -0.2390  0.2628
  103MOL0     H13578   7.557   7.318   9.530 -0.8683 -0.6322  1.8618
  103MOL0     H13579   7.789   7.300   9.474 -1.3406  2.7538  0.3763
  103MOL0     H13580   8.206   7.151   9.773  0.9885  0.1069  0.5652
  103MOL0     H13581   8.416   7.203   9.833 -0.3028 -1.3089  0.2334
  103MOL0     H13582  10.268   8.001  10.483  1.1665 -0.6888  0.0731
  103MOL0     H13583  10.406   8.201  10.517  0.1203  1.6739  0.9063
  103MOL0     H13584  10.466   8.609  10.615 -1.5813  0.3494  1.8002
  103MOL0     H13585  10.616   8.814  10.601 -0.6518  1.8165  1.2088
  103MOL0     H13586  11.015   8.835  10.703  0.7360  0.8510  1.7468
  103MOL0     H13587  10.957   8.840  10.866 -2.3124 -0.6027 -0.1133
  103MOL0     H13588  10.956   9.076  10.670 -1.1925  2.4811  0.7062
  103MOL0     H13589  10.908   9.076  10.845  1.1246 -1.7431  1.7091
  103MOL0     H13590  11.200   9.011  10.756  3.1286  4.2846  0.6683
  103MOL0     H13591  11.135   9.026  10.925  0.8527  1.5983  0.7745
  103MOL0     H13592  11.268   9.209  10.845 -0.8366  1.6972 -0.5741
  103MOL0     H13593  11.154   9.244  10.723 -1.2456 -1.2817 -1.0142
  103MOL0     H13594  10.964   9.422  11.049  3.1953  1.7481  0.7736
  103MOL0     H13595  10.827   8.690  10.949 -0.9732 -2.0406  2.1009
  103MOL0     H13596  10.684   8.514  10.981  1.7636 -0.0432 -0.5026
  104MOL0     O13597  10.008   6.228   2.474 -0.7423  0.9877 -0.3680
  104MOL0     C13598  10.117   6.181   2.519  0.6593 -0.4220 -0.5761
  104MOL0     O13599  10.123   6.072   2.597 -0.0961 -0.1801  0.6842
  104MOL0     C13600  10.008   6.018   2.643  0.9772 -0.2621 -0.0347
  104MOL0     C13601   9.903   5.966   2.559  0.0611  0.0022  0.1682
  104MOL0     C13602   9.794   5.909   2.620  0.3775 -0.3277  0.4396
  104MOL0     C13603   9.781   5.887   2.754 -0.4603  0.6282  0.3703
  104MOL0     O13604   9.675   5.809   2.802 -0.4199 -0.0128 -0.3270
  104MOL0     C13605   9.602   5.869   2.909  0.3318 -0.2122  0.1820
  104MOL0     C13606   9.511   5.768   2.986  0.7952 -0.2284  0.3177
  104MOL0     C13607   9.577   5.646   3.051  0.3675 -0.1433  0.6099
  104MOL0     C13608   9.621   5.679   3.191  0.0582 -0.0784 -0.1115
  104MOL0     C13609   9.677   5.569   3.275  0.0617 -0.3748 -0.2570
  104MOL0     C13610   9.707   5.610   3.424  0.1774  0.2378  0.6616
  104MOL0     C13611   9.577   5.628   3.512 -0.5877  0.4719 -0.0267
  104MOL0     C13612   9.493   5.498   3.538  0.9593 -0.4956 -0.1501
  104MOL0     N13613   9.484   5.477   3.682  0.3609  0.1876  0.5380
  104MOL0     C13614   9.407   5.554   3.767 -0.4620 -0.1094 -0.7310
  104MOL0     C13615   9.476   5.547   3.888 -0.0060  0.3559  0.4509
  104MOL0     C13616   9.435   5.611   4.014 -0.7211 -0.1363  0.1428
  104MOL0     C13617   9.365   5.503   4.096  1.0518  0.2233 -0.3573
  104MOL0     C13618   9.271   5.557   4.202  0.2393 -0.5459 -0.5930
  104MOL0     C13619   9.336   5.659   4.300 -0.0890  0.6944  0.0956
  104MOL0     O13620   9.280   5.659   4.430  0.0696 -0.0786  0.1453
  104MOL0     C13621   9.153   5.715   4.445  0.1674 -1.5128 -0.1857
  104MOL0     C13622   9.109   5.706   4.578 -0.0301 -0.1510  0.0063
  104MOL0     C13623   8.980   5.745   4.611  0.7561  0.1073 -0.5658
  104MOL0     C13624   8.885   5.784   4.520  0.3212 -0.0882  0.0334
  104MOL0     C13625   8.739   5.810   4.558  0.2778 -1.3266  0.6694
  104MOL0     O13626   8.650   5.825   4.460 -0.5373 -0.4142 -0.4114
  104MOL0     C13627   8.525   5.858   4.498  0.1198 -0.3825 -0.4819
  104MOL0     C13628   8.495   5.977   4.562  0.1488  0.1996 -0.0600
  104MOL0     C13629   8.371   6.020   4.601  0.1506  0.2728 -1.0209
  104MOL0     C13630   8.261   5.939   4.564  0.9457 -0.0194 -0.5570
  104MOL0     O13631   8.131   5.974   4.575  0.0900 -0.3211 -0.4301
  104MOL0     C13632   8.106   6.108   4.622  0.4873  0.3372  0.8248
  104MOL0     C13633   7.958   6.117   4.678 -0.5405 -0.0667  0.3941
  104MOL0     C13634   7.846   6.117   4.570 -0.1655 -0.2154 -1.2868
  104MOL0     C13635   7.716   6.134   4.649  0.3333 -0.3013  0.8639
  104MOL0     C13636   7.593   6.138   4.555 -0.1801  0.1477 -0.2472
  104MOL0     C13637   7.459   6.148   4.623 -0.3584 -0.3226 -0.4517
  104MOL0     C13638   7.410   6.022   4.685  0.2996 -0.1683 -0.9351
  104MOL0     C13639   7.274   6.039   4.749 -0.1501 -0.5871  0.4497
  104MOL0    Cl13640   7.207   5.872   4.795 -0.0978  0.3589 -0.2582
  104MOL0     C13641   8.288   5.820   4.492  0.4066  0.5509 -0.0001
  104MOL0     C13642   8.420   5.779   4.462  0.3833  0.3374  0.3283
  104MOL0     O13643   8.714   5.823   4.675 -0.1726  0.4582 -1.0175
  104MOL0     C13644   8.933   5.796   4.389  0.1818 -0.2811  0.0594
  104MOL0     C13645   9.063   5.765   4.350 -0.1598 -0.3652 -0.1415
  104MOL0     N13646   9.593   5.463   3.873  0.8284 -0.0548  0.8560
  104MOL0     N13647   9.591   5.422   3.748  0.2901  0.3969 -0.0202
  104MOL0     C13648   9.886   5.928   2.832  0.3973 -0.1663 -0.3719
  104MOL0     C13649   9.996   5.986   2.778 -0.4202 -0.1800 -0.5965
  104MOL0     C13650  10.246   6.243   2.481 -0.2996  0.6454  0.5400
  104MOL0     C13651  10.264   6.316   2.366 -0.9512 -0.0428  0.2585
  104MOL0     C13652  10.387   6.362   2.326 -0.1704 -0.0710  0.8014
  104MOL0     C13653  10.499   6.338   2.404  0.3165  0.1825  0.5306
  104MOL0     O13654  10.625   6.382   2.377  0.2198  0.6501  0.0334
  104MOL0     C13655  10.667   6.427   2.246 -0.3865  0.5342  0.3429
  104MOL0     C13656  10.706   6.308   2.151  0.3362 -0.3281 -0.4810
  104MOL0     C13657  10.722   6.347   2.006  0.1135  0.5680  0.4972
  104MOL0     C13658  10.734   6.223   1.917  0.7983  0.7924  0.3653
  104MOL0     C13659  10.750   6.257   1.767 -0.6281 -0.3594  0.7923
  104MOL0     C13660  10.766   6.294   1.652 -0.7361 -0.0273 -0.0450
  104MOL0     C13661  10.483   6.267   2.525 -0.3934 -0.6572 -0.4534
  104MOL0     C13662  10.361   6.224   2.562 -0.0950  0.4739 -0.1888
  104MOL0     H13663   9.906   5.972   2.451  0.4581  2.3645  0.2740
  104MOL0     H13664   9.717   5.878   2.551  1.4423 -0.1428 -0.8835
  104MOL0     H13665   9.538   5.948   2.870  1.4358  2.0780  2.7109
  104MOL0     H13666   9.673   5.915   2.978  0.4367  1.6299 -1.1048
  104MOL0     H13667   9.431   5.746   2.914  2.4991  0.9036 -2.0466
  104MOL0     H13668   9.454   5.826   3.060  0.2341 -3.1210  2.3331
  104MOL0     H13669   9.660   5.609   2.990 -1.5509 -0.2649 -2.0799
  104MOL0     H13670   9.504   5.564   3.050 -1.1993  1.1895  0.4189
  104MOL0     H13671   9.697   5.757   3.185 -1.5457  1.5393 -0.4417
  104MOL0     H13672   9.537   5.724   3.246  0.5758 -0.6713  1.1838
  104MOL0     H13673   9.777   5.548   3.235  1.0082 -2.4443  2.8459
  104MOL0     H13674   9.609   5.484   3.269  2.3556 -2.3450  0.1259
  104MOL0     H13675   9.752   5.710   3.422 -0.7251  0.7815  3.3275
  104MOL0     H13676   9.776   5.537   3.465  0.6455 -0.5808 -1.4728
  104MOL0     H13677   9.599   5.674   3.609 -0.2149 -2.2471  1.2551
  104MOL0     H13678   9.517   5.696   3.451  1.5146  0.0605 -2.7341
  104MOL0     H13679   9.531   5.408   3.489  0.2270  0.5620 -2.8114
  104MOL0     H13680   9.393   5.512   3.497  0.9776 -1.4082 -0.5267
  104MOL0     H13681   9.323   5.616   3.738 -0.3474  1.3620  1.7988
  104MOL0     H13682   9.360   5.689   3.998  1.2950  1.5867 -1.4409
  104MOL0     H13683   9.515   5.661   4.068  0.1183 -2.6539  1.4012
  104MOL0     H13684   9.436   5.438   4.146  0.1001  0.2464  1.1021
  104MOL0     H13685   9.295   5.444   4.036 -0.3202 -0.0506  1.4189
  104MOL0     H13686   9.179   5.597   4.159  1.1860  3.0331  0.4024
  104MOL0     H13687   9.250   5.474   4.269 -0.8458  0.0829 -0.1433
  104MOL0     H13688   9.339   5.758   4.253  1.5678 -0.0533 -1.4781
  104MOL0     H13689   9.443   5.639   4.309 -0.1626 -0.5311 -1.3967
  104MOL0     H13690   9.175   5.656   4.649 -0.3841 -3.5356 -1.8246
  104MOL0     H13691   8.967   5.761   4.718 -1.4965 -3.3936 -0.1432
  104MOL0     H13692   8.580   6.039   4.587 -0.4669  1.8421 -1.8059
  104MOL0     H13693   8.369   6.118   4.648  1.2847 -0.1571 -0.0204
  104MOL0     H13694   8.115   6.184   4.545 -1.8576 -0.6283 -0.4942
  104MOL0     H13695   8.178   6.132   4.701  1.3064 -1.6659  0.7475
  104MOL0     H13696   7.962   6.209   4.737  1.5550  0.3338 -0.2862
  104MOL0     H13697   7.933   6.037   4.748 -0.5259  1.7941  2.6491
  104MOL0     H13698   7.851   6.017   4.524 -1.4907 -0.6828 -0.4639
  104MOL0     H13699   7.862   6.188   4.489  1.2462  2.6421  1.3068
  104MOL0     H13700   7.701   6.048   4.716  0.0389  0.2542  1.5277
  104MOL0     H13701   7.723   6.228   4.705 -1.9789  2.3160 -2.7939
  104MOL0     H13702   7.600   6.051   4.489  0.0568  1.0616 -1.4484
  104MOL0     H13703   7.596   6.223   4.487 -0.1073  0.1154 -0.2842
  104MOL0     H13704   7.381   6.181   4.554 -1.0535 -1.1497 -0.0903
  104MOL0     H13705   7.472   6.230   4.694 -0.5305  0.0751 -0.8825
  104MOL0     H13706   7.414   5.943   4.609 -1.4392  0.0652 -1.3146
  104MOL0     H13707   7.474   5.980   4.763  2.1396  0.9115 -1.8047
  104MOL0     H13708   7.205   6.102   4.693 -1.3920 -2.5133 -0.2687
  104MOL0     H13709   7.288   6.093   4.843 -2.1050 -0.0975  0.5051
  104MOL0     H13710   8.203   5.761   4.460  1.3682  0.0285 -1.7233
  104MOL0     H13711   8.444   5.690   4.405 -1.7914  0.6156 -1.1241
  104MOL0     H13712   8.859   5.837   4.322 -0.5106  0.4935  1.2745
  104MOL0     H13713   9.089   5.767   4.245 -0.3067 -0.9335 -0.1930
  104MOL0     H13714   9.884   5.895   2.936  2.0241  0.7750 -0.0154
  104MOL0     H13715  10.080   6.010   2.842 -2.2126  3.8531  0.5999
  104MOL0     H13716  10.178   6.334   2.304 -1.5600 -0.3638  0.9965
  104MOL0     H13717  10.392   6.424   2.237 -3.8800 -2.3351 -1.2124
  104MOL0     H13718  10.754   6.489   2.272 -0.1492  0.3093  0.0948
  104MOL0     H13719  10.603   6.494   2.188  1.7182  1.8729 -0.5734
  104MOL0     H13720  10.800   6.262   2.182  0.8367  1.0094  0.0394
  104MOL0     H13721  10.625   6.236   2.166 -0.5130  0.3557 -1.6730
  104MOL0     H13722  10.815   6.404   2.000  0.9915 -0.9163 -1.3723
  104MOL0     H13723  10.643   6.414   1.970 -1.1393 -1.1288 -0.0882
  104MOL0     H13724  10.830   6.174   1.937  0.8519  2.1139  4.0720
  104MOL0     H13725  10.644   6.162   1.932  0.9039 -0.0460 -2.0493
  104MOL0     H13726  10.769   6.314   1.547 -2.3139 -1.6916 -0.4465
  104MOL0     H13727  10.562   6.236   2.593 -1.6773 -1.4144  0.7398
  104MOL0     H13728  10.357   6.156   2.647  0.2133  2.6100  1.6287
  105MOL0     O13729  10.789   3.240   6.239 -0.2351 -0.2363  0.1842
  105MOL0     C13730  10.676   3.287   6.263  0.1681 -0.0051 -0.1658
  105MOL0     O13731  10.564   3.220   6.301 -0.6990  0.5567 -0.2997
  105MOL0     C13732  10.559   3.086   6.318  0.0032 -0.2143  0.2387
  105MOL0     C13733  10.649   3.005   6.380 -0.5056  0.3247 -0.2707
  105MOL0     C13734  10.623   2.866   6.390 -0.3722  0.0007  0.1369
  105MOL0     C13735  10.510   2.811   6.329 -0.5989 -0.6711  0.4572
  105MOL0     O13736  10.497   2.679   6.335  0.0587  0.4853  0.0977
  105MOL0     C13737  10.439   2.612   6.227  0.4292  0.1748  0.1608
  105MOL0     C13738  10.450   2.458   6.270  0.5061  0.2705  0.5328
  105MOL0     C13739  10.394   2.373   6.142  0.4878  0.4966 -0.0815
  105MOL0     C13740  10.374   2.224   6.167  0.8232  0.1540  0.4709
  105MOL0     C13741  10.304   2.160   6.052  0.0266 -0.1333 -0.4039
  105MOL0     C13742  10.276   2.008   6.070  0.0058  0.0124  0.0595
  105MOL0     C13743  10.398   1.925   6.111  0.7531  0.0057  0.7514
  105MOL0     C13744  10.485   1.903   5.981  0.3700 -0.1193  0.7077
  105MOL0     N13745  10.424   1.807   5.884 -0.2591  0.2076 -0.4221
  105MOL0     C13746  10.354   1.689   5.918  0.0539  0.1078  0.8881
  105MOL0     C13747  10.294   1.645   5.801  0.0155 -0.4056  0.1284
  105MOL0     C13748  10.217   1.514   5.801  0.0963 -0.9511 -0.3754
  105MOL0     C13749  10.097   1.538   5.710  0.2127 -0.5872 -0.9340
  105MOL0     C13750   9.982   1.629   5.782 -0.0472 -0.3799  0.0212
  105MOL0     C13751   9.908   1.550   5.903  0.0897 -0.2290  0.6005
  105MOL0     O13752   9.862   1.431   5.842  0.3444  0.3117 -0.1768
  105MOL0     C13753   9.738   1.428   5.771 -0.0249  0.5838 -0.4345
  105MOL0     C13754   9.664   1.546   5.745 -0.1513  0.2668 -0.2326
  105MOL0     C13755   9.543   1.544   5.670  0.2220  0.3543 -0.6860
  105MOL0     C13756   9.493   1.425   5.622  0.6874  0.5903 -0.6017
  105MOL0     C13757   9.363   1.428   5.546 -0.3897  0.5150 -0.6382
  105MOL0     O13758   9.327   1.310   5.488 -0.0415 -0.1977 -0.4122
  105MOL0     C13759   9.220   1.302   5.397 -0.4415 -0.8756 -1.0918
  105MOL0     C13760   9.182   1.405   5.315  0.4400  0.5693 -0.1886
  105MOL0     C13761   9.071   1.385   5.242  0.3089  0.1508  0.1162
  105MOL0     C13762   8.992   1.265   5.238 -0.1563  0.1394  0.6047
  105MOL0     O13763   8.887   1.252   5.147  0.2765 -0.1538  0.5583
  105MOL0     C13764   8.874   1.120   5.083 -0.0438 -0.1771 -0.4721
  105MOL0     C13765   8.752   1.115   4.997  0.2901  0.4000  0.6469
  105MOL0     C13766   8.762   1.216   4.882 -0.5883 -0.0977  0.2788
  105MOL0     C13767   8.640   1.233   4.791 -0.2916  0.2506 -0.3359
  105MOL0     C13768   8.671   1.307   4.666 -0.9708  0.9467 -0.4535
  105MOL0     C13769   8.733   1.442   4.699 -0.2353 -0.1460  0.4903
  105MOL0     C13770   8.881   1.461   4.686  0.1294  0.4077 -0.9728
  105MOL0     C13771   8.933   1.588   4.760  0.2509 -0.6828  0.3946
  105MOL0    Cl13772   8.969   1.561   4.941 -0.2190  0.2705  0.2800
  105MOL0     C13773   9.040   1.164   5.323 -0.6321  0.1810  0.7895
  105MOL0     C13774   9.150   1.178   5.407  0.1490 -0.2258  0.2338
  105MOL0     O13775   9.300   1.527   5.543  0.6964 -0.1192 -0.5014
  105MOL0     C13776   9.560   1.312   5.646 -0.2105  0.6104  0.2084
  105MOL0     C13777   9.687   1.314   5.710 -1.0757 -0.6995 -0.3006
  105MOL0     N13778  10.330   1.734   5.702 -0.1760  0.0192  0.0338
  105MOL0     N13779  10.393   1.835   5.751 -0.0400  0.6797 -0.5144
  105MOL0     C13780  10.415   2.894   6.270  0.0392  0.5894  0.6517
  105MOL0     C13781  10.438   3.033   6.266 -0.5178  0.1079  0.4298
  105MOL0     C13782  10.658   3.434   6.249  0.2944 -0.5208  0.0162
  105MOL0     C13783  10.765   3.516   6.220  0.2631  0.1533  0.4059
  105MOL0     C13784  10.752   3.655   6.209 -0.1056 -0.4592 -0.5199
  105MOL0     C13785  10.631   3.721   6.244  0.1103  1.4404  0.4720
  105MOL0     O13786  10.605   3.853   6.237  0.4682  0.1523  0.7360
  105MOL0     C13787  10.713   3.940   6.265 -0.4080  0.1409 -0.0637
  105MOL0     C13788  10.743   3.935   6.415  0.7520  1.0609  0.3801
  105MOL0     C13789  10.845   4.040   6.460  0.6065 -0.4631  0.2623
  105MOL0     C13790  10.815   4.189   6.439 -0.6188 -0.1276 -0.5839
  105MOL0     C13791  10.839   4.256   6.317  0.7565 -0.0231 -0.4931
  105MOL0     C13792  10.871   4.312   6.216 -1.0089  0.1182 -0.4149
  105MOL0     C13793  10.521   3.639   6.272  0.3124 -0.1774  0.2636
  105MOL0     C13794  10.536   3.494   6.274 -0.1507 -0.5065  0.3376
  105MOL0     H13795  10.740   3.045   6.421 -1.2770 -0.2420  2.2173
  105MOL0     H13796  10.686   2.796   6.444  0.3407 -0.8844 -1.7597
  105MOL0     H13797  10.496   2.640   6.138  1.1467  2.2472  1.1988
  105MOL0     H13798  10.334   2.638   6.210  1.0017  1.4673 -1.7619
  105MOL0     H13799  10.395   2.432   6.361  2.2680  0.5179  1.7185
  105MOL0     H13800  10.557   2.437   6.274 -0.1268 -3.4213  2.0484
  105MOL0     H13801  10.463   2.384   6.058 -0.7093 -0.1415 -1.1789
  105MOL0     H13802  10.295   2.412   6.118 -0.1766 -0.2500  1.3258
  105MOL0     H13803  10.474   2.182   6.179  1.2427  0.6410 -1.0262
  105MOL0     H13804  10.321   2.220   6.262  0.7104  3.5769  0.6664
  105MOL0     H13805  10.356   2.171   5.956 -2.0357 -1.9978 -1.8388
  105MOL0     H13806  10.213   2.217   6.034  0.6534  1.3095  0.8132
  105MOL0     H13807  10.242   1.976   5.971  1.3273  0.0543 -0.4240
  105MOL0     H13808  10.196   1.982   6.140 -1.9019 -0.1630 -2.0725
  105MOL0     H13809  10.461   1.963   6.192 -0.3203  0.8263  1.2168
  105MOL0     H13810  10.355   1.828   6.139 -0.1591 -0.8157 -2.9881
  105MOL0     H13811  10.580   1.867   6.024  2.5194  1.1036 -2.6362
  105MOL0     H13812  10.501   1.993   5.921  3.6590  1.1678  3.1669
  105MOL0     H13813  10.345   1.630   6.009 -1.3766 -3.0560 -1.1143
  105MOL0     H13814  10.180   1.497   5.903 -0.8844  0.7096 -0.4199
  105MOL0     H13815  10.283   1.432   5.775  0.4850 -1.0266  0.7842
  105MOL0     H13816  10.061   1.436   5.691 -1.1396  0.0898 -2.1601
  105MOL0     H13817  10.122   1.584   5.615 -1.2797 -0.2759 -1.2073
  105MOL0     H13818  10.033   1.716   5.823 -1.6235  0.6797 -0.1678
  105MOL0     H13819   9.914   1.670   5.706  0.7677  1.9464  0.4897
  105MOL0     H13820   9.827   1.612   5.944 -1.0108 -1.4913  0.4094
  105MOL0     H13821   9.977   1.540   5.986  2.1119  0.1645 -0.9533
  105MOL0     H13822   9.698   1.640   5.786 -0.6793  0.4178 -0.1438
  105MOL0     H13823   9.504   1.645   5.656  1.0035  0.8497  0.4781
  105MOL0     H13824   9.246   1.492   5.299  4.2280 -2.0587 -0.8398
  105MOL0     H13825   9.026   1.460   5.179 -0.4024 -0.7280 -0.4544
  105MOL0     H13826   8.874   1.041   5.158 -1.3452  0.7426  0.5386
  105MOL0     H13827   8.957   1.099   5.015 -0.2911 -2.8201 -0.0427
  105MOL0     H13828   8.669   1.126   5.068  0.2032 -0.3762  0.6707
  105MOL0     H13829   8.741   1.015   4.955  1.0745  0.9473 -0.9457
  105MOL0     H13830   8.845   1.189   4.815  0.0672  1.0474  0.5952
  105MOL0     H13831   8.781   1.317   4.919  0.9473 -0.1040 -0.4251
  105MOL0     H13832   8.603   1.132   4.771 -2.1724  0.3793  2.0041
  105MOL0     H13833   8.560   1.291   4.838 -1.2781 -1.0776 -0.3035
  105MOL0     H13834   8.575   1.326   4.617 -0.4666  0.6602 -1.5871
  105MOL0     H13835   8.738   1.245   4.606 -2.8802 -0.3575 -1.3393
  105MOL0     H13836   8.698   1.484   4.794  2.6798  0.4380  1.4213
  105MOL0     H13837   8.695   1.509   4.621  1.4402  0.0248 -0.2205
  105MOL0     H13838   8.932   1.380   4.739 -1.1928  0.3989  0.3357
  105MOL0     H13839   8.926   1.444   4.588  1.0219 -1.1279 -0.3382
  105MOL0     H13840   8.867   1.675   4.760  0.5261 -0.4739  0.1062
  105MOL0     H13841   9.019   1.626   4.705 -1.2513  1.2699 -0.7361
  105MOL0     H13842   9.004   1.062   5.323  1.2005 -0.5219 -0.7391
  105MOL0     H13843   9.182   1.113   5.488 -0.6775  1.0654  1.6429
  105MOL0     H13844   9.509   1.219   5.622  1.4850 -0.1247 -0.6787
  105MOL0     H13845   9.735   1.218   5.723 -2.2916 -1.0967  1.7392
  105MOL0     H13846  10.324   2.850   6.229  0.9398 -3.3710  2.3681
  105MOL0     H13847  10.368   3.096   6.212  1.1213 -0.7308 -2.9396
  105MOL0     H13848  10.860   3.474   6.188 -0.6680 -1.8031  0.0349
  105MOL0     H13849  10.842   3.707   6.175 -1.8369  0.9210 -3.3292
  105MOL0     H13850  10.687   4.044   6.240  0.4626  1.0631  2.5926
  105MOL0     H13851  10.794   3.913   6.197  0.3751  0.0776  0.8882
  105MOL0     H13852  10.650   3.950   6.471  0.5594  1.5442 -0.0633
  105MOL0     H13853  10.790   3.841   6.446  3.3069  2.2414  0.3301
  105MOL0     H13854  10.944   4.022   6.417 -0.4015  0.3690 -2.5766
  105MOL0     H13855  10.857   4.018   6.567 -0.9034 -0.0476  0.5447
  105MOL0     H13856  10.715   4.216   6.474 -0.8963  0.2032 -1.5887
  105MOL0     H13857  10.886   4.226   6.514  0.9882 -3.1043 -0.4854
  105MOL0     H13858  10.907   4.360   6.127  3.1212  0.7431  1.3946
  105MOL0     H13859  10.431   3.690   6.307  0.4839  0.5024 -0.2866
  105MOL0     H13860  10.450   3.431   6.295  0.1309 -1.4449 -1.1483
  106MOL0     O13861   1.430   1.495   0.078 -0.1067  0.7131 -0.4532
  106MOL0     C13862   1.376   1.601   0.097  0.1467  0.6967 -0.1358
  106MOL0     O13863   1.242   1.617   0.118  0.8159  0.2796  0.6591
  106MOL0     C13864   1.156   1.512   0.144 -0.9956  0.3442 -0.9838
  106MOL0     C13865   1.096   1.507   0.273 -0.0071  0.9565 -0.0279
  106MOL0     C13866   1.000   1.403   0.292 -0.2205  0.1190  0.2143
  106MOL0     C13867   0.965   1.310   0.192  0.0397 -0.7088 -0.7068
  106MOL0     O13868   0.877   1.208   0.205 -0.3432  0.1170  0.1394
  106MOL0     C13869   0.766   1.224   0.298 -0.3471  0.0842 -0.5603
  106MOL0     C13870   0.651   1.132   0.245  0.0322  0.0998  0.2970
  106MOL0     C13871   0.548   1.115   0.356 -0.3918 -0.1194  0.3348
  106MOL0     C13872   0.463   0.992   0.345 -0.3679 -0.2342 -0.4064
  106MOL0     C13873   0.360   1.003   0.242 -0.1977 -0.0873 -0.0651
  106MOL0     C13874   0.245   1.101   0.264 -0.2716  0.5147  0.4771
  106MOL0     C13875   0.123   1.065   0.195  0.8988  0.5098  0.6001
  106MOL0     C13876   0.134   1.076   0.039  0.2910 -0.0750  0.0028
  106MOL0     N13877   0.144   1.205  -0.023  0.5391  0.2547  0.2395
  106MOL0     C13878   0.257   1.286  -0.015  0.5199  0.6028  1.2898
  106MOL0     C13879   0.228   1.390  -0.095  0.3647  0.2070  0.7155
  106MOL0     C13880   0.315   1.501  -0.123 -0.3487 -0.6723 -0.7372
  106MOL0     C13881   0.223   1.622  -0.125 -0.2750 -0.1429  0.2405
  106MOL0     C13882   0.314   1.750  -0.129  0.3845  0.0877  0.3767
  106MOL0     C13883   0.234   1.878  -0.129 -0.1853  1.2716  0.2752
  106MOL0     O13884   0.166   1.892  -0.005 -0.7462 -0.3807 -0.0176
  106MOL0     C13885   0.086   1.998   0.014 -0.3949  0.4549 -0.2397
  106MOL0     C13886  -0.023   1.970   0.097  0.5209  0.2152  0.0250
  106MOL0     C13887  -0.113   2.070   0.124 -0.5420 -0.7723 -0.0070
  106MOL0     C13888  -0.091   2.207   0.079 -0.1810  0.7126 -0.6408
  106MOL0     C13889  -0.197   2.304   0.120  0.7427 -0.8282 -0.8524
  106MOL0     O13890  -0.168   2.433   0.085  0.8675  0.3881  0.6515
  106MOL0     C13891  -0.276   2.512   0.096 -0.6678 -0.1928 -0.2671
  106MOL0     C13892  -0.319   2.565   0.218 -0.0416 -0.3708 -0.6253
  106MOL0     C13893  -0.422   2.660   0.226  0.4755 -0.0971  0.2712
  106MOL0     C13894  -0.483   2.705   0.110  0.5632 -0.1038 -0.0793
  106MOL0     O13895  -0.587   2.792   0.111  0.9320  0.0456  0.7019
  106MOL0     C13896  -0.718   2.740   0.093 -0.6647 -0.1987 -0.6021
  106MOL0     C13897  -0.787   2.818  -0.006  0.3755 -0.8386  0.5694
  106MOL0     C13898  -0.827   2.963   0.029  0.3690  1.0221  0.5729
  106MOL0     C13899  -0.846   3.056  -0.093  0.5152  0.8123 -0.0565
  106MOL0     C13900  -0.902   3.192  -0.051 -0.3504  0.0978 -0.5554
  106MOL0     C13901  -0.895   3.297  -0.168 -0.1547  0.6411 -0.9645
  106MOL0     C13902  -0.912   3.435  -0.091  0.0504 -0.7327  0.0054
  106MOL0     C13903  -0.900   3.548  -0.193 -0.6573 -0.2164  0.1403
  106MOL0    Cl13904  -0.979   3.696  -0.131 -0.1966 -0.2629 -0.1332
  106MOL0     C13905  -0.446   2.654  -0.012 -0.5310  0.6731  0.0439
  106MOL0     C13906  -0.346   2.550  -0.023  0.6270 -0.2814  0.7255
  106MOL0     O13907  -0.294   2.265   0.180 -0.5945  0.1835 -0.7351
  106MOL0     C13908   0.027   2.233   0.007  0.0375  0.0912 -0.3332
  106MOL0     C13909   0.113   2.127  -0.029  0.5699 -0.2501 -0.0048
  106MOL0     N13910   0.105   1.368  -0.152  0.3803 -0.3761  0.6144
  106MOL0     N13911   0.051   1.253  -0.111 -0.3411 -0.6816  0.5724
  106MOL0     C13912   1.025   1.318   0.064 -0.7685  0.1750 -0.9375
  106MOL0     C13913   1.126   1.414   0.043  0.6716 -0.5779  0.1803
  106MOL0     C13914   1.456   1.721   0.082  0.0138  0.4569  0.7090
  106MOL0     C13915   1.585   1.720   0.134 -0.1560 -0.7277  0.3459
  106MOL0     C13916   1.670   1.831   0.126 -0.3245  1.6954  0.9097
  106MOL0     C13917   1.613   1.950   0.075 -0.5166  0.3963 -0.9507
  106MOL0     O13918   1.690   2.064   0.054  0.2031 -0.0786 -0.3515
  106MOL0     C13919   1.833   2.052   0.038  0.2562  0.0349  0.3678
  106MOL0     C13920   1.890   2.085   0.181 -0.1606 -0.2109  0.1056
  106MOL0     C13921   2.045   2.074   0.186 -0.7748 -0.8492 -0.3417
  106MOL0     C13922   2.134   2.203   0.152 -0.3566  0.1944  0.8483
  106MOL0     C13923   2.155   2.232   0.005 -0.0220 -0.2135 -0.4447
  106MOL0     C13924   2.176   2.228  -0.115 -0.2848 -1.1425 -0.5090
  106MOL0     C13925   1.478   1.963   0.054  0.2823  0.8653 -0.8089
  106MOL0     C13926   1.400   1.846   0.048 -0.9901  0.2067 -0.4532
  106MOL0     H13927   1.142   1.564   0.353 -0.1263  1.6792 -0.4656
  106MOL0     H13928   0.954   1.404   0.390 -1.9758  1.1872 -0.5610
  106MOL0     H13929   0.727   1.327   0.297 -0.5318  0.0519 -3.3749
  106MOL0     H13930   0.805   1.194   0.395  0.9275 -0.2561 -1.1673
  106MOL0     H13931   0.691   1.034   0.215 -0.1449 -0.3431  1.4518
  106MOL0     H13932   0.599   1.183   0.164  1.3038  3.2414  1.2996
  106MOL0     H13933   0.492   1.207   0.374  0.9112  0.3570  2.3021
  106MOL0     H13934   0.604   1.092   0.447 -0.1264  1.6105  0.6313
  106MOL0     H13935   0.528   0.907   0.320  1.0964  0.3484  1.1809
  106MOL0     H13936   0.404   0.973   0.435 -0.2968 -0.1737 -0.3459
  106MOL0     H13937   0.311   0.906   0.230 -1.3400  0.5819 -1.0572
  106MOL0     H13938   0.405   1.028   0.145  0.3804 -0.0815  0.2028
  106MOL0     H13939   0.275   1.205   0.246  1.7611 -0.3272 -1.5356
  106MOL0     H13940   0.230   1.095   0.372  3.0337  0.9172  1.0639
  106MOL0     H13941   0.092   0.963   0.219 -5.0367  2.0856  1.2760
  106MOL0     H13942   0.036   1.121   0.228 -2.6734 -3.5337 -0.9878
  106MOL0     H13943   0.051   1.032  -0.018 -1.6832  3.6969 -0.3577
  106MOL0     H13944   0.221   1.019   0.005 -0.0438 -0.9341  0.5692
  106MOL0     H13945   0.353   1.277   0.034  0.0002  1.2314  2.4548
  106MOL0     H13946   0.380   1.490  -0.210  0.3618  1.8784 -0.6016
  106MOL0     H13947   0.381   1.513  -0.036 -1.8510  1.7463  0.1824
  106MOL0     H13948   0.159   1.638  -0.038 -2.0690  1.9562 -1.3424
  106MOL0     H13949   0.167   1.617  -0.219 -0.5869 -2.2342  0.4909
  106MOL0     H13950   0.386   1.743  -0.047  1.7226 -0.1997 -0.7914
  106MOL0     H13951   0.365   1.750  -0.225 -1.0911 -1.1987 -0.4531
  106MOL0     H13952   0.166   1.874  -0.214  0.1624 -0.6434  0.0435
  106MOL0     H13953   0.299   1.964  -0.148 -0.0383  0.9376 -0.7784
  106MOL0     H13954  -0.032   1.866   0.127  2.4869  0.6148  2.2670
  106MOL0     H13955  -0.199   2.048   0.186 -0.4454  2.2741  1.3604
  106MOL0     H13956  -0.280   2.540   0.316 -2.9064 -0.5884  0.5770
  106MOL0     H13957  -0.454   2.696   0.323  0.6642 -1.5371  0.8898
  106MOL0     H13958  -0.775   2.754   0.185 -0.0975 -0.5044 -0.1986
  106MOL0     H13959  -0.704   2.632   0.083  1.0935 -0.3527  2.4372
  106MOL0     H13960  -0.882   2.769  -0.033 -0.6506  1.2922  0.0904
  106MOL0     H13961  -0.720   2.823  -0.092 -0.6701  2.2871 -0.2018
  106MOL0     H13962  -0.754   2.992   0.105 -1.1734  3.0364  1.3636
  106MOL0     H13963  -0.920   2.966   0.087 -0.0870 -0.1554 -0.0721
  106MOL0     H13964  -0.749   3.081  -0.135  0.5402  3.5118  1.3954
  106MOL0     H13965  -0.914   3.002  -0.159 -0.2620  1.0621  0.5235
  106MOL0     H13966  -0.843   3.226   0.035  0.8710 -0.3973 -1.1712
  106MOL0     H13967  -1.002   3.173  -0.010 -0.2450  1.7416  0.5518
  106MOL0     H13968  -0.959   3.278  -0.255  1.0872 -2.0025 -1.3903
  106MOL0     H13969  -0.791   3.301  -0.202  0.4319  0.6680  0.7309
  106MOL0     H13970  -1.011   3.452  -0.049 -0.5561 -1.8958 -0.9009
  106MOL0     H13971  -0.844   3.444  -0.006  2.8174 -0.1994 -2.1153
  106MOL0     H13972  -0.954   3.525  -0.286 -0.6145  4.0930 -1.2130
  106MOL0     H13973  -0.797   3.574  -0.217 -1.0445  3.4638  1.7246
  106MOL0     H13974  -0.497   2.681  -0.104  0.2282  0.1140 -0.5572
  106MOL0     H13975  -0.311   2.517  -0.121  2.0736  4.7286 -0.7606
  106MOL0     H13976   0.047   2.333  -0.031 -1.0861 -0.6117 -3.0324
  106MOL0     H13977   0.198   2.153  -0.092  0.7760  2.3449  1.1935
  106MOL0     H13978   0.989   1.261  -0.021 -3.2326  1.2099 -0.6720
  106MOL0     H13979   1.177   1.427  -0.052 -0.6653 -1.5578 -0.7043
  106MOL0     H13980   1.623   1.631   0.183 -1.1145 -2.3862 -1.7268
  106MOL0     H13981   1.777   1.817   0.139 -0.2868 -1.0147 -1.3814
  106MOL0     H13982   1.873   2.113  -0.043 -3.7099  1.7166 -0.5775
  106MOL0     H13983   1.858   1.951   0.005 -2.9428 -0.8887  0.4974
  106MOL0     H13984   1.860   2.185   0.214  0.0303  0.4297 -1.5810
  106MOL0     H13985   1.845   2.007   0.243  0.4821  1.3778  2.7151
  106MOL0     H13986   2.066   1.992   0.117 -1.7348 -0.0212 -1.6904
  106MOL0     H13987   2.078   2.042   0.285  2.1286  2.5044 -0.0201
  106MOL0     H13988   2.104   2.296   0.203  1.7511  2.0556 -1.0742
  106MOL0     H13989   2.231   2.187   0.200 -0.0103 -1.9643 -0.4897
  106MOL0     H13990   2.210   2.228  -0.216  1.2078  1.4704 -0.1115
  106MOL0     H13991   1.438   2.063   0.046  0.7924  1.6103  3.4711
  106MOL0     H13992   1.298   1.856   0.012 -1.9859 -1.0863  1.8156
  107MOL0     O13993   6.234   5.506   3.775  0.0347 -0.8548 -0.3233
  107MOL0     C13994   6.223   5.611   3.711  0.3429 -0.0621  0.2771
  107MOL0     O13995   6.099   5.677   3.670 -0.3113  0.4906  0.2830
  107MOL0     C13996   5.986   5.623   3.724  0.5079 -0.1729  1.0615
  107MOL0     C13997   5.967   5.636   3.861 -0.7392 -0.3665 -0.4455
  107MOL0     C13998   5.851   5.596   3.921  0.0367 -0.0093  0.2963
  107MOL0     C13999   5.741   5.550   3.844 -0.1476  0.9458 -0.4156
  107MOL0     O14000   5.608   5.528   3.886 -0.0926 -0.0583  0.6011
  107MOL0     C14001   5.575   5.578   4.022 -0.2264  0.0726 -0.2474
  107MOL0     C14002   5.430   5.533   4.055  1.2564 -1.1066 -0.5024
  107MOL0     C14003   5.318   5.569   3.943 -0.6117 -0.0998 -0.3790
  107MOL0     C14004   5.185   5.516   3.978 -0.5285 -0.1361  0.2826
  107MOL0     C14005   5.081   5.553   3.873 -0.1849  0.5064 -0.4041
  107MOL0     C14006   5.042   5.700   3.879  0.5291 -0.2116 -0.5340
  107MOL0     C14007   4.917   5.726   3.796  0.3215 -0.0348 -0.2867
  107MOL0     C14008   4.889   5.882   3.797 -0.2904  0.9821  0.2034
  107MOL0     N14009   4.880   5.944   3.926 -0.2430 -0.0033 -0.8932
  107MOL0     C14010   4.779   5.919   4.015  0.0691  1.0136 -0.4896
  107MOL0     C14011   4.793   6.014   4.116  0.0099  1.2374 -0.2951
  107MOL0     C14012   4.715   6.019   4.247 -0.4051 -0.0310  0.0647
  107MOL0     C14013   4.566   6.021   4.221 -1.0256 -0.7451  0.1283
  107MOL0     C14014   4.524   6.140   4.125  0.7572  0.4804  0.0945
  107MOL0     C14015   4.376   6.173   4.088  0.9571 -0.0813 -0.0524
  107MOL0     O14016   4.332   6.063   4.009 -0.2984 -0.4974 -0.4351
  107MOL0     C14017   4.209   6.078   3.952  0.3214  0.4869 -0.1900
  107MOL0     C14018   4.190   5.980   3.847  0.7357 -0.0352 -0.7971
  107MOL0     C14019   4.072   5.973   3.774  0.4333  0.2009 -0.0383
  107MOL0     C14020   3.969   6.066   3.796  0.5001  0.4731  0.1031
  107MOL0     C14021   3.833   6.050   3.740  0.5802  0.4680 -0.7780
  107MOL0     O14022   3.795   5.931   3.682 -0.4104 -0.5197  0.6195
  107MOL0     C14023   3.665   5.913   3.655 -0.4464 -0.5120 -0.2902
  107MOL0     C14024   3.578   5.855   3.739  0.2404  0.0921 -0.3137
  107MOL0     C14025   3.442   5.843   3.705 -0.5855  1.0024 -0.0708
  107MOL0     C14026   3.398   5.893   3.578 -0.2797 -0.4444 -1.1085
  107MOL0     O14027   3.267   5.893   3.533 -0.3982 -0.4268  0.4381
  107MOL0     C14028   3.238   5.765   3.478 -0.5922  0.5234  0.0302
  107MOL0     C14029   3.134   5.787   3.370  0.0079 -0.3951  0.1761
  107MOL0     C14030   2.994   5.800   3.433  0.5118  0.9533 -0.1536
  107MOL0     C14031   2.896   5.864   3.336 -0.5527  0.1198  0.8087
  107MOL0     C14032   2.750   5.828   3.353 -0.1366  0.7107  0.6176
  107MOL0     C14033   2.651   5.887   3.251 -0.7168  0.9227 -1.0848
  107MOL0     C14034   2.515   5.817   3.281  0.1376 -0.2810 -0.1159
  107MOL0     C14035   2.467   5.765   3.144  0.3450  0.2213 -0.4507
  107MOL0    Cl14036   2.569   5.622   3.097 -0.5101  0.3198 -0.5066
  107MOL0     C14037   3.492   5.962   3.497 -1.0353 -0.7306  0.4135
  107MOL0     C14038   3.624   5.967   3.532 -0.1796  0.1411 -0.3268
  107MOL0     O14039   3.748   6.133   3.761  0.1016 -0.1380  0.1945
  107MOL0     C14040   3.988   6.170   3.904 -0.1857  0.1753  0.4039
  107MOL0     C14041   4.112   6.178   3.969  0.2762 -0.7926 -0.0433
  107MOL0     N14042   4.891   6.101   4.076  0.1972  0.7019  0.1054
  107MOL0     N14043   4.955   6.048   3.972  0.4789 -0.2948 -0.0325
  107MOL0     C14044   5.755   5.538   3.709  0.5460 -0.3179 -0.3664
  107MOL0     C14045   5.881   5.575   3.643  0.2405 -0.5094 -0.4408
  107MOL0     C14046   6.343   5.665   3.643  0.1478 -0.0523  0.2466
  107MOL0     C14047   6.464   5.622   3.694  0.9874 -0.6871  0.2633
  107MOL0     C14048   6.583   5.682   3.650  0.1013 -0.2918 -0.4068
  107MOL0     C14049   6.598   5.775   3.547  0.1741 -0.0020 -0.0394
  107MOL0     O14050   6.724   5.817   3.488 -0.1633  0.5215 -0.4382
  107MOL0     C14051   6.727   5.881   3.361  0.6660 -0.1630 -0.5734
  107MOL0     C14052   6.690   5.785   3.241  0.1798  0.3772 -0.3605
  107MOL0     C14053   6.724   5.850   3.102 -0.3418  0.3392 -0.6276
  107MOL0     C14054   6.669   5.767   2.981  0.2070 -0.2082  0.4445
  107MOL0     C14055   6.518   5.761   2.965 -0.8962  0.0707  0.6370
  107MOL0     C14056   6.403   5.740   2.937  0.2390 -0.5089 -0.5935
  107MOL0     C14057   6.473   5.830   3.506  0.0565 -0.0197 -0.4052
  107MOL0     C14058   6.343   5.773   3.547 -1.4413 -0.7611  0.8197
  107MOL0     H14059   6.050   5.680   3.914 -0.4192 -1.0807 -0.3367
  107MOL0     H14060   5.838   5.603   4.028 -1.3446 -0.2623  0.1735
  107MOL0     H14061   5.571   5.687   4.018 -1.9466  0.0182 -0.9926
  107MOL0     H14062   5.636   5.539   4.104  2.9656  2.0702 -1.4903
  107MOL0     H14063   5.393   5.585   4.144 -0.0322 -0.8702 -1.1546
  107MOL0     H14064   5.441   5.425   4.068  1.8588 -0.9663  0.2405
  107MOL0     H14065   5.346   5.521   3.848 -0.1696 -0.3465 -0.1299
  107MOL0     H14066   5.317   5.676   3.923  0.2638  0.0780  0.4639
  107MOL0     H14067   5.198   5.409   3.998 -1.1135 -0.3754 -0.5775
  107MOL0     H14068   5.176   5.568   4.074  1.7133 -1.9203  1.5835
  107MOL0     H14069   4.996   5.489   3.899 -1.8524  3.4966  2.3023
  107MOL0     H14070   5.122   5.529   3.775 -0.6397 -0.8618 -0.2811
  107MOL0     H14071   5.126   5.757   3.837  0.7588 -1.1422 -1.3815
  107MOL0     H14072   5.022   5.732   3.982  1.0629 -2.6565  0.3946
  107MOL0     H14073   4.918   5.675   3.699  1.0745 -1.0168  0.2153
  107MOL0     H14074   4.834   5.679   3.850 -0.1188  0.0644 -0.8651
  107MOL0     H14075   4.789   5.882   3.751  0.5448 -2.5930 -2.0538
  107MOL0     H14076   4.957   5.926   3.724 -0.5010 -0.9300 -1.2334
  107MOL0     H14077   4.694   5.852   4.004  0.4320  0.7219 -1.6306
  107MOL0     H14078   4.740   6.111   4.301 -2.1854 -0.7483  2.2632
  107MOL0     H14079   4.740   5.936   4.314  0.7183  1.2451  1.2971
  107MOL0     H14080   4.518   6.053   4.314 -1.4872  0.5101 -0.5225
  107MOL0     H14081   4.533   5.923   4.184  0.9603 -1.1318 -0.7542
  107MOL0     H14082   4.569   6.228   4.171 -1.1772  1.9193 -0.6016
  107MOL0     H14083   4.575   6.125   4.029 -0.7139  1.5969 -0.9017
  107MOL0     H14084   4.375   6.260   4.022  0.4706  0.3254  0.4791
  107MOL0     H14085   4.316   6.199   4.175  0.4165  0.8253 -0.6751
  107MOL0     H14086   4.275   5.914   3.828  0.9441 -0.6475  1.8887
  107MOL0     H14087   4.056   5.897   3.699  0.1677 -0.6146  0.8372
  107MOL0     H14088   3.614   5.834   3.839  2.1298 -0.2029 -1.0097
  107MOL0     H14089   3.364   5.801   3.767  0.4373 -1.1521 -0.1655
  107MOL0     H14090   3.207   5.687   3.549  0.4936  0.5027  0.4938
  107MOL0     H14091   3.322   5.717   3.427 -0.5414  1.2016 -0.5274
  107MOL0     H14092   3.128   5.690   3.319 -0.5553 -0.9028  1.1773
  107MOL0     H14093   3.165   5.864   3.299  2.5053 -0.6625  0.8733
  107MOL0     H14094   3.002   5.873   3.514  2.0744 -0.5014  1.0812
  107MOL0     H14095   2.939   5.711   3.462 -0.5061  0.9753 -1.8750
  107MOL0     H14096   2.906   5.972   3.346 -3.8037  0.5587  0.4195
  107MOL0     H14097   2.928   5.838   3.235 -1.3175 -0.6519  0.7553
  107MOL0     H14098   2.727   5.851   3.457  3.8670  0.8017  1.6815
  107MOL0     H14099   2.744   5.719   3.354  0.4812  0.6702  0.4172
  107MOL0     H14100   2.696   5.866   3.154 -1.4791 -0.0868 -1.2415
  107MOL0     H14101   2.645   5.995   3.269 -1.5182  0.6655  0.4146
  107MOL0     H14102   2.527   5.733   3.350  0.8713 -4.1952 -4.4688
  107MOL0     H14103   2.432   5.875   3.322 -1.3214 -1.8137 -0.7404
  107MOL0     H14104   2.482   5.850   3.077  4.3139  0.8537  0.9646
  107MOL0     H14105   2.359   5.745   3.154  0.5043 -0.8184 -0.7190
  107MOL0     H14106   3.455   6.000   3.402  0.0882  2.5699  1.1710
  107MOL0     H14107   3.697   6.023   3.474  0.0856  1.1438  0.9328
  107MOL0     H14108   3.916   6.249   3.923  1.9583  1.6983  2.9080
  107MOL0     H14109   4.125   6.258   4.041 -4.4326  0.7715 -0.5589
  107MOL0     H14110   5.667   5.507   3.653 -0.9878 -0.3089  1.9122
  107MOL0     H14111   5.896   5.570   3.536 -1.7301  2.7993 -0.9835
  107MOL0     H14112   6.459   5.543   3.768 -0.7491  0.4643  1.4640
  107MOL0     H14113   6.675   5.660   3.704  1.1419 -1.3922 -2.4799
  107MOL0     H14114   6.831   5.911   3.342  0.2623  1.8680  0.1368
  107MOL0     H14115   6.667   5.973   3.365 -0.6129 -1.0458  2.0657
  107MOL0     H14116   6.739   5.688   3.249 -1.7223 -0.6969 -0.9531
  107MOL0     H14117   6.581   5.773   3.236  0.3274 -1.3277 -0.1614
  107MOL0     H14118   6.833   5.846   3.086  0.0143  2.3627  0.8924
  107MOL0     H14119   6.696   5.955   3.098  1.2874  0.7771 -1.5747
  107MOL0     H14120   6.708   5.815   2.890  0.3351 -1.6338 -0.2732
  107MOL0     H14121   6.698   5.662   2.980 -1.0787 -0.6184 -1.9492
  107MOL0     H14122   6.300   5.715   2.925  1.0649 -2.7201 -4.8487
  107MOL0     H14123   6.475   5.896   3.421 -0.1326 -3.1149 -2.9935
  107MOL0     H14124   6.251   5.819   3.510 -0.9157 -0.6667 -0.4357
  108MOL0     O14125   4.886   0.364   5.718  0.4142  0.6637 -0.8266
  108MOL0     C14126   4.930   0.445   5.641 -0.1873  0.4921  0.6220
  108MOL0     O14127   4.862   0.521   5.546  0.3381 -0.2329 -1.0473
  108MOL0     C14128   4.730   0.505   5.530  0.6379 -0.3719 -0.0193
  108MOL0     C14129   4.639   0.481   5.637  0.5252 -0.6384 -0.3475
  108MOL0     C14130   4.494   0.469   5.610 -0.2254  0.5452 -1.0346
  108MOL0     C14131   4.449   0.475   5.478 -0.7901 -0.0560  0.0303
  108MOL0     O14132   4.315   0.494   5.451 -0.3365  0.4658 -0.3042
  108MOL0     C14133   4.220   0.464   5.553 -0.2617  0.0965  0.0291
  108MOL0     C14134   4.078   0.484   5.501  0.5538 -0.1159  1.1769
  108MOL0     C14135   3.993   0.364   5.435 -0.4024 -0.2072 -0.5967
  108MOL0     C14136   3.852   0.404   5.403  0.0872 -0.3432  0.0407
  108MOL0     C14137   3.776   0.299   5.310 -0.1400 -0.1795  0.3373
  108MOL0     C14138   3.629   0.342   5.294 -0.8840 -0.9245 -0.2399
  108MOL0     C14139   3.557   0.236   5.212  1.0305 -0.0905 -0.6004
  108MOL0     C14140   3.413   0.282   5.191 -1.4157  0.4037 -0.7507
  108MOL0     N14141   3.344   0.204   5.085  0.0008 -0.0453 -0.1355
  108MOL0     C14142   3.237   0.120   5.114 -0.4839  0.7516 -0.6120
  108MOL0     C14143   3.208   0.059   4.992  0.2536  1.0358 -0.3133
  108MOL0     C14144   3.126  -0.065   4.973 -0.4252 -0.2312 -0.1162
  108MOL0     C14145   2.974  -0.051   4.989  0.3575 -0.8691 -0.0498
  108MOL0     C14146   2.923   0.100   4.957 -0.3626  0.9000  0.1922
  108MOL0     C14147   2.767   0.089   4.966 -0.7083 -0.6818  0.3388
  108MOL0     O14148   2.714   0.217   4.911 -0.3569 -0.2319 -0.1118
  108MOL0     C14149   2.579   0.241   4.930  0.0576 -0.1060 -0.4463
  108MOL0     C14150   2.533   0.369   4.879  1.0840  0.0522  0.2676
  108MOL0     C14151   2.401   0.413   4.906  0.4895 -0.2416  0.5296
  108MOL0     C14152   2.309   0.326   4.963 -0.0980 -0.6097  1.0124
  108MOL0     C14153   2.166   0.362   4.979  0.0049  0.5382 -0.7015
  108MOL0     O14154   2.086   0.278   5.042 -0.0679  0.1371 -0.0999
  108MOL0     C14155   1.954   0.292   5.035  0.2604  0.1234 -0.4102
  108MOL0     C14156   1.875   0.208   4.948 -0.5020 -1.0919 -0.1926
  108MOL0     C14157   1.738   0.221   4.948  0.0781  1.0215 -0.0035
  108MOL0     C14158   1.677   0.309   5.035  0.0268 -0.3285  0.4400
  108MOL0     O14159   1.541   0.303   5.020 -0.4877  0.4261  0.8668
  108MOL0     C14160   1.478   0.428   5.029 -0.3473 -0.1122  0.4402
  108MOL0     C14161   1.324   0.416   5.016 -0.2916  0.0182  1.1548
  108MOL0     C14162   1.272   0.403   4.872  0.2688  0.5968  0.3849
  108MOL0     C14163   1.122   0.358   4.872 -0.2301  0.3270 -1.1440
  108MOL0     C14164   1.076   0.305   4.742  0.2511 -0.0077 -0.3615
  108MOL0     C14165   0.930   0.243   4.743  0.4321 -0.0311 -0.7750
  108MOL0     C14166   0.884   0.225   4.601  0.0971 -0.3313 -0.0026
  108MOL0     C14167   0.733   0.174   4.607 -0.8951  0.7268  0.3606
  108MOL0    Cl14168   0.625   0.297   4.646 -0.6059 -0.2216 -0.4962
  108MOL0     C14169   1.750   0.390   5.133 -0.1930  0.0406  1.6891
  108MOL0     C14170   1.890   0.388   5.122 -0.1275 -0.3600  0.0680
  108MOL0     O14171   2.127   0.464   4.925  0.7771 -0.1232 -0.4143
  108MOL0     C14172   2.353   0.199   5.003 -0.1245  0.2008 -0.3811
  108MOL0     C14173   2.481   0.152   4.989  0.3897  0.0553  0.0418
  108MOL0     N14174   3.276   0.129   4.895  0.3203 -0.0075 -0.1806
  108MOL0     N14175   3.353   0.212   4.952  0.6387  0.2317  0.7898
  108MOL0     C14176   4.548   0.489   5.378 -0.4234 -0.6535  0.1235
  108MOL0     C14177   4.683   0.508   5.399  0.1664  0.6673 -0.3534
  108MOL0     C14178   5.077   0.453   5.625  0.4092 -0.1147  0.0448
  108MOL0     C14179   5.166   0.354   5.667  0.6707  0.0656 -0.3202
  108MOL0     C14180   5.304   0.360   5.649 -1.3496 -0.1433  0.4709
  108MOL0     C14181   5.364   0.479   5.587  0.0209  1.2124  0.9990
  108MOL0     O14182   5.501   0.497   5.560 -0.0495 -0.6949  0.2377
  108MOL0     C14183   5.589   0.406   5.624  0.2761  0.2622  0.0321
  108MOL0     C14184   5.721   0.476   5.645 -0.0961  0.6206  0.9947
  108MOL0     C14185   5.820   0.462   5.522 -0.1731  0.0568 -0.2388
  108MOL0     C14186   5.950   0.517   5.563  0.1223 -0.2991  0.5849
  108MOL0     C14187   5.957   0.643   5.640  0.4370 -0.1101  0.5186
  108MOL0     C14188   5.956   0.753   5.694  0.4159  0.3651  0.0936
  108MOL0     C14189   5.272   0.571   5.555 -1.2704 -0.8197 -0.3133
  108MOL0     C14190   5.136   0.567   5.567 -0.0400 -0.2553  0.3010
  108MOL0     H14191   4.673   0.474   5.739 -2.3908  0.1600  0.7919
  108MOL0     H14192   4.433   0.434   5.693 -0.9106 -0.5681 -1.9678
  108MOL0     H14193   4.225   0.531   5.640 -0.1575  1.2690 -0.8470
  108MOL0     H14194   4.228   0.363   5.593  3.2531  0.6412  1.0732
  108MOL0     H14195   4.082   0.571   5.436  1.1781 -0.2600  1.0100
  108MOL0     H14196   4.020   0.507   5.591  0.1604 -1.1389  1.2015
  108MOL0     H14197   3.991   0.284   5.510 -0.4638 -0.0868 -0.4696
  108MOL0     H14198   4.044   0.323   5.347  2.8652 -0.2940  1.1992
  108MOL0     H14199   3.791   0.422   5.492 -1.9506 -1.5473 -1.0473
  108MOL0     H14200   3.870   0.492   5.342  1.7595 -1.0451 -0.5532
  108MOL0     H14201   3.782   0.196   5.346 -0.7801  0.5101  2.5924
  108MOL0     H14202   3.821   0.304   5.211  0.9269 -1.7254  0.7213
  108MOL0     H14203   3.623   0.438   5.243 -0.8374 -1.6964 -1.7587
  108MOL0     H14204   3.590   0.355   5.395 -0.3908  0.2314 -0.1938
  108MOL0     H14205   3.599   0.233   5.111 -2.6668 -1.4414 -2.2885
  108MOL0     H14206   3.560   0.138   5.259 -2.1386 -0.0292 -0.0291
  108MOL0     H14207   3.406   0.390   5.173 -1.1216  0.9711  2.0437
  108MOL0     H14208   3.362   0.270   5.287  1.0267  1.4378  0.7728
  108MOL0     H14209   3.196   0.092   5.211  3.3594 -0.7198  0.7660
  108MOL0     H14210   3.165  -0.145   5.037  0.3303  0.7283  0.6455
  108MOL0     H14211   3.154  -0.103   4.874  0.3681 -3.1834  1.1330
  108MOL0     H14212   2.938  -0.078   5.089  0.2528 -1.6658 -0.2949
  108MOL0     H14213   2.912  -0.121   4.933 -0.8419  1.1147 -1.2993
  108MOL0     H14214   2.954   0.172   5.033 -0.2626  2.2395 -1.0776
  108MOL0     H14215   2.960   0.121   4.856  2.8019 -0.9317  0.8026
  108MOL0     H14216   2.747   0.081   5.073  2.0224  0.4492  1.0077
  108MOL0     H14217   2.732   0.010   4.898  2.2002 -0.9676 -0.9409
  108MOL0     H14218   2.606   0.434   4.833 -2.3229  1.7656 -3.2809
  108MOL0     H14219   2.368   0.515   4.888 -0.4966 -0.6584 -0.0766
  108MOL0     H14220   1.928   0.143   4.878 -1.4674 -3.2327  0.9561
  108MOL0     H14221   1.671   0.166   4.882 -0.6465 -0.4939  1.8683
  108MOL0     H14222   1.504   0.496   4.947 -0.5588  2.3162  2.2632
  108MOL0     H14223   1.503   0.475   5.125 -0.0179 -1.8394  1.2266
  108MOL0     H14224   1.277   0.506   5.057  3.8810  3.0123  0.0191
  108MOL0     H14225   1.298   0.324   5.070 -0.1930  0.2256  1.5559
  108MOL0     H14226   1.333   0.322   4.830 -0.7610  0.5824 -1.1441
  108MOL0     H14227   1.284   0.493   4.811  0.5170  1.0263  1.0492
  108MOL0     H14228   1.114   0.275   4.944 -1.0857  0.1006 -1.4928
  108MOL0     H14229   1.056   0.432   4.916 -2.5788 -1.6244 -1.1620
  108MOL0     H14230   1.142   0.227   4.704 -0.6510 -2.2383  2.2847
  108MOL0     H14231   1.075   0.394   4.679  1.3712  1.5998  1.7375
  108MOL0     H14232   0.860   0.302   4.802 -0.2476 -2.6680  1.2491
  108MOL0     H14233   0.930   0.145   4.792  1.0782  0.2503 -0.2002
  108MOL0     H14234   0.881   0.317   4.542  2.6358 -0.7833 -0.9521
  108MOL0     H14235   0.953   0.154   4.554  0.7676 -0.6125  1.3637
  108MOL0     H14236   0.710   0.094   4.678 -1.5402 -2.8590 -3.4865
  108MOL0     H14237   0.700   0.135   4.511  0.3907 -2.2674  1.0261
  108MOL0     H14238   1.695   0.445   5.208 -0.8119 -1.1581  2.1459
  108MOL0     H14239   1.942   0.465   5.176 -0.6386  0.6145 -0.7842
  108MOL0     H14240   2.278   0.128   5.035 -0.4192  0.4138 -0.5802
  108MOL0     H14241   2.506   0.051   5.023 -1.6112 -0.5662 -0.1981
  108MOL0     H14242   4.514   0.511   5.278 -0.2179  0.8087  0.3589
  108MOL0     H14243   4.748   0.527   5.315  0.4758 -1.2483 -0.5847
  108MOL0     H14244   5.120   0.268   5.713  0.7621 -0.6302 -1.4898
  108MOL0     H14245   5.368   0.277   5.677  0.9207  1.8583  1.5656
  108MOL0     H14246   5.589   0.311   5.569 -1.7274 -0.4519  1.1536
  108MOL0     H14247   5.546   0.379   5.721  2.4221  0.4533  1.1056
  108MOL0     H14248   5.705   0.581   5.670 -0.5502  0.9401 -0.5146
  108MOL0     H14249   5.768   0.426   5.730 -1.9971 -0.7800  1.2846
  108MOL0     H14250   5.791   0.516   5.431 -0.2576 -1.1121 -0.9189
  108MOL0     H14251   5.829   0.365   5.472  2.1966  1.2557 -2.3675
  108MOL0     H14252   6.008   0.437   5.610 -0.3642 -0.3049  1.1920
  108MOL0     H14253   6.007   0.542   5.473  1.9711  1.1855  2.0465
  108MOL0     H14254   5.963   0.836   5.762  0.3913 -1.5039  2.5438
  108MOL0     H14255   5.313   0.665   5.518 -2.9757  0.3472  0.6611
  108MOL0     H14256   5.083   0.659   5.545  0.4725  0.9160  3.5272
  109MOL0     O14257  10.628   9.277   6.865 -0.1448 -0.0028  0.8342
  109MOL0     C14258  10.666   9.166   6.871 -0.5091  0.4246 -1.1075
  109MOL0     O14259  10.580   9.055   6.871 -0.7794  0.6046 -1.0681
  109MOL0     C14260  10.444   9.061   6.866  0.1056 -0.3060  0.3554
  109MOL0     C14261  10.376   9.002   6.762  0.5658  0.0416 -0.7918
  109MOL0     C14262  10.238   9.030   6.750 -0.2118  0.4394  1.0463
  109MOL0     C14263  10.181   9.122   6.832 -0.0497 -0.3420  0.1376
  109MOL0     O14264  10.052   9.174   6.816 -0.5246 -0.6359 -0.6943
  109MOL0     C14265   9.951   9.087   6.765 -0.6976 -0.6560 -0.1924
  109MOL0     C14266   9.813   9.144   6.792  0.6375  0.0787 -0.5363
  109MOL0     C14267   9.700   9.068   6.723  0.0111 -0.8275  0.8956
  109MOL0     C14268   9.563   9.094   6.775 -0.6795  0.4140 -0.2260
  109MOL0     C14269   9.454   9.011   6.695 -0.2631 -0.1394 -0.6769
  109MOL0     C14270   9.317   9.040   6.736 -0.6373 -0.0371 -0.3684
  109MOL0     C14271   9.290   9.008   6.887 -0.9112 -0.1483  0.0848
  109MOL0     C14272   9.315   8.868   6.924  0.2251  0.0188 -0.6328
  109MOL0     N14273   9.221   8.767   6.871 -0.6092 -0.4081 -0.2512
  109MOL0     C14274   9.237   8.694   6.753  0.2995  0.3108 -0.1318
  109MOL0     C14275   9.120   8.626   6.748  0.3589  0.8331  0.2316
  109MOL0     C14276   9.085   8.552   6.621  0.4156  0.6623 -0.7585
  109MOL0     C14277   8.974   8.454   6.652 -0.6851  0.1499 -0.1210
  109MOL0     C14278   8.899   8.390   6.536  0.3123 -0.1628  1.0616
  109MOL0     C14279   8.766   8.336   6.585 -0.9902 -1.1294 -0.8292
  109MOL0     O14280   8.679   8.276   6.492  0.4920  0.3224 -0.8816
  109MOL0     C14281   8.563   8.223   6.533  0.3235  0.4041 -0.7810
  109MOL0     C14282   8.518   8.224   6.667 -0.1925 -0.2057 -0.1859
  109MOL0     C14283   8.392   8.180   6.708 -0.6142  0.1579  0.0972
  109MOL0     C14284   8.296   8.136   6.615 -0.7070  0.0662  0.2211
  109MOL0     C14285   8.167   8.075   6.661 -0.7965  0.9827 -0.9986
  109MOL0     O14286   8.148   8.083   6.796  0.2876 -0.3188  0.4186
  109MOL0     C14287   8.020   8.052   6.838 -0.3865  0.3743 -0.4525
  109MOL0     C14288   7.949   8.145   6.904  0.2144  0.4727 -0.8913
  109MOL0     C14289   7.827   8.112   6.957  0.3053  0.2375 -0.4046
  109MOL0     C14290   7.767   7.989   6.939  0.4080  1.1372 -0.1121
  109MOL0     O14291   7.654   7.933   6.999 -0.5840 -0.0614  0.0151
  109MOL0     C14292   7.573   8.010   7.091  0.3390  0.1472 -0.9127
  109MOL0     C14293   7.433   7.946   7.101 -0.2780 -0.1975  0.8626
  109MOL0     C14294   7.345   8.050   7.181  0.6716  1.8182 -0.8757
  109MOL0     C14295   7.203   7.991   7.201  0.3483 -0.6952 -0.2632
  109MOL0     C14296   7.111   8.104   7.267  0.0200 -0.1551  0.1315
  109MOL0     C14297   6.974   8.071   7.307 -0.0443 -0.7325 -0.1140
  109MOL0     C14298   6.915   8.185   7.395  0.4968 -0.4501  1.1083
  109MOL0     C14299   6.783   8.134   7.446  0.4086 -0.2337 -0.8010
  109MOL0    Cl14300   6.719   8.267   7.551  0.0347  0.1828 -0.0101
  109MOL0     C14301   7.837   7.896   6.868  0.3136 -0.6992 -0.4411
  109MOL0     C14302   7.966   7.921   6.817  0.3568 -0.0842  0.4319
  109MOL0     O14303   8.080   8.054   6.573  0.4873 -0.4018 -0.6599
  109MOL0     C14304   8.334   8.144   6.482  0.0272  0.0082  1.0127
  109MOL0     C14305   8.460   8.192   6.439 -0.6754 -0.3154 -0.8063
  109MOL0     N14306   9.039   8.650   6.862 -0.6996 -0.0093 -0.0879
  109MOL0     N14307   9.106   8.732   6.937  0.2492 -0.4645 -0.2244
  109MOL0     C14308  10.246   9.168   6.942  0.3223 -0.3185  0.4061
  109MOL0     C14309  10.381   9.139   6.957  0.0455 -0.3695  0.4079
  109MOL0     C14310  10.809   9.135   6.897 -0.8645  0.1817 -0.1981
  109MOL0     C14311  10.865   9.007   6.871 -0.2023 -0.0387  0.4807
  109MOL0     C14312  11.001   8.980   6.894 -0.3709  0.7157  1.1380
  109MOL0     C14313  11.083   9.073   6.967  0.4019 -0.2730  0.3085
  109MOL0     O14314  11.210   9.039   7.016 -0.5470 -0.7689 -0.4806
  109MOL0     C14315  11.271   8.925   6.953 -0.3777  0.8401 -0.4407
  109MOL0     C14316  11.427   8.921   6.982 -0.3408 -0.1315 -0.2221
  109MOL0     C14317  11.507   9.026   6.920 -0.1374 -0.7035  0.1453
  109MOL0     C14318  11.547   9.023   6.773  0.3155  0.2139 -0.3523
  109MOL0     C14319  11.624   9.138   6.732 -0.4854  0.2478  0.3071
  109MOL0     C14320  11.686   9.243   6.704  0.3990 -0.7391 -0.3753
  109MOL0     C14321  11.025   9.200   7.007  0.1548 -0.4751 -0.6862
  109MOL0     C14322  10.896   9.222   6.972  0.1893  0.1734  0.0426
  109MOL0     H14323  10.421   8.939   6.686 -2.1640 -2.5307 -0.4349
  109MOL0     H14324  10.200   8.976   6.663 -3.7243  0.3078  2.4844
  109MOL0     H14325   9.973   8.992   6.814  1.6110 -1.2239 -2.1703
  109MOL0     H14326   9.966   9.070   6.658 -3.0772 -2.6201 -0.3066
  109MOL0     H14327   9.821   9.248   6.758 -2.9725 -0.0264 -2.1380
  109MOL0     H14328   9.794   9.151   6.900 -0.2135 -0.9615 -0.6083
  109MOL0     H14329   9.717   8.960   6.721 -2.6507 -1.3005  0.3488
  109MOL0     H14330   9.714   9.105   6.621  1.5067 -2.2268  0.5430
  109MOL0     H14331   9.568   9.057   6.878  3.1554 -1.0831 -0.7557
  109MOL0     H14332   9.537   9.199   6.762  0.5620  0.6085 -1.4439
  109MOL0     H14333   9.473   8.904   6.687  0.7730 -0.0720  0.4715
  109MOL0     H14334   9.462   9.049   6.593  1.0357 -0.4851 -0.7272
  109MOL0     H14335   9.246   8.982   6.676 -1.9991 -0.2988  1.4048
  109MOL0     H14336   9.293   9.145   6.716  0.7571  0.2112 -0.8753
  109MOL0     H14337   9.356   9.079   6.936  1.9901 -1.6125 -1.4562
  109MOL0     H14338   9.194   9.045   6.924  0.8623  0.5949  4.5907
  109MOL0     H14339   9.313   8.861   7.033 -0.7464  1.3988 -0.5399
  109MOL0     H14340   9.417   8.841   6.895  1.1906  0.1191  2.3147
  109MOL0     H14341   9.316   8.691   6.679 -1.5701  0.4565 -2.2762
  109MOL0     H14342   9.177   8.506   6.584  0.8753  0.7140  0.2862
  109MOL0     H14343   9.047   8.618   6.542 -0.2843  1.1005 -0.0715
  109MOL0     H14344   8.900   8.513   6.707 -0.6956  2.8887 -2.7899
  109MOL0     H14345   9.016   8.379   6.719  1.5575  0.5581 -0.9625
  109MOL0     H14346   8.886   8.463   6.456  2.3427  0.0641  0.8817
  109MOL0     H14347   8.956   8.303   6.499 -1.1830 -1.5998  2.0124
  109MOL0     H14348   8.705   8.407   6.642 -0.6092 -2.4128  1.3318
  109MOL0     H14349   8.791   8.260   6.660 -2.7430  1.5956  2.8729
  109MOL0     H14350   8.591   8.236   6.747  0.1740  0.0692 -0.5612
  109MOL0     H14351   8.364   8.178   6.813  0.2111 -0.1059  0.3225
  109MOL0     H14352   7.981   8.248   6.919 -1.2652  1.0111 -1.1775
  109MOL0     H14353   7.768   8.181   7.016 -0.1416 -0.4312 -0.0514
  109MOL0     H14354   7.557   8.108   7.046  0.7999  0.3753 -0.5824
  109MOL0     H14355   7.623   8.013   7.188 -2.5591  0.7833  0.6593
  109MOL0     H14356   7.428   7.851   7.155 -0.6756 -0.7522 -0.1190
  109MOL0     H14357   7.398   7.934   6.998  0.3572 -0.5604  0.6830
  109MOL0     H14358   7.332   8.147   7.132  0.1615 -0.1100 -4.9746
  109MOL0     H14359   7.388   8.062   7.281 -2.3196 -0.5472  0.8840
  109MOL0     H14360   7.154   7.962   7.107 -0.8128  0.4475 -0.0442
  109MOL0     H14361   7.195   7.903   7.265  3.6125 -1.1372 -0.3247
  109MOL0     H14362   7.108   8.193   7.203  1.7869 -0.1760 -0.0351
  109MOL0     H14363   7.177   8.135   7.349 -0.5858  0.3454  0.4294
  109MOL0     H14364   6.968   7.972   7.353 -0.2689 -0.3431  0.7203
  109MOL0     H14365   6.924   8.071   7.210 -1.3006 -0.4614  0.5141
  109MOL0     H14366   6.982   8.207   7.479  1.9050 -2.1697  0.5047
  109MOL0     H14367   6.907   8.280   7.342 -1.0539 -0.8172  0.6049
  109MOL0     H14368   6.790   8.043   7.507  2.6283 -0.2546 -1.0289
  109MOL0     H14369   6.708   8.116   7.369 -2.0791 -0.3530  1.5007
  109MOL0     H14370   7.787   7.801   6.849  2.3649 -1.4441 -2.7324
  109MOL0     H14371   8.020   7.841   6.769  0.5494  1.0994 -1.4435
  109MOL0     H14372   8.269   8.106   6.405  0.1156  1.5259  0.1383
  109MOL0     H14373   8.483   8.182   6.333 -2.8216  0.1082 -1.3500
  109MOL0     H14374  10.194   9.234   7.011  1.1490  0.2320  0.5162
  109MOL0     H14375  10.426   9.190   7.041 -1.6485 -2.0614  2.4652
  109MOL0     H14376  10.801   8.934   6.824 -1.2412  1.4835 -0.5455
  109MOL0     H14377  11.018   8.874   6.879 -1.7235  0.9327 -3.5817
  109MOL0     H14378  11.261   8.925   6.844  0.0696  0.8476 -0.4839
  109MOL0     H14379  11.224   8.836   6.996  1.9918 -1.9327 -3.1060
  109MOL0     H14380  11.449   8.919   7.089 -0.3643  2.0780 -0.1180
  109MOL0     H14381  11.463   8.828   6.937  0.8294  1.4161 -2.7231
  109MOL0     H14382  11.598   9.036   6.981 -1.2309  1.5703  1.5395
  109MOL0     H14383  11.452   9.120   6.932  0.1070 -0.8445  2.9749
  109MOL0     H14384  11.604   8.931   6.756  0.1205 -0.1333  0.7862
  109MOL0     H14385  11.466   9.020   6.700  0.9544 -0.2085 -1.0633
  109MOL0     H14386  11.747   9.331   6.693  0.1521  0.1131  3.5537
  109MOL0     H14387  11.073   9.274   7.070  1.0797 -1.0658 -0.6851
  109MOL0     H14388  10.851   9.317   6.997  1.3851  0.6631  0.4237
  110MOL0     O14389  10.350   6.896   7.447  0.6981  0.0486 -0.3989
  110MOL0     C14390  10.352   7.016   7.416  0.0066 -0.0752  0.1250
  110MOL0     O14391  10.266   7.073   7.330  1.0450  0.0706 -1.2901
  110MOL0     C14392  10.158   7.001   7.287 -0.1476 -0.7541  0.5107
  110MOL0     C14393  10.183   6.891   7.196 -0.0521  0.2481 -0.3295
  110MOL0     C14394  10.081   6.825   7.141 -0.1828  0.4842  0.5600
  110MOL0     C14395   9.950   6.871   7.156 -0.8165  0.5023  0.5235
  110MOL0     O14396   9.855   6.793   7.103 -1.0277 -0.1865 -0.0674
  110MOL0     C14397   9.726   6.840   7.079  1.6448  0.2293  0.6098
  110MOL0     C14398   9.639   6.745   6.996 -0.6800 -0.2845  0.8236
  110MOL0     C14399   9.489   6.777   7.006 -0.8162 -0.2210  0.5862
  110MOL0     C14400   9.406   6.662   6.952 -0.1784 -0.2894 -0.6035
  110MOL0     C14401   9.257   6.713   6.931 -0.3958 -0.2732 -0.2988
  110MOL0     C14402   9.193   6.705   7.069 -0.1969 -1.4624  0.0196
  110MOL0     C14403   9.058   6.772   7.073 -0.1970  0.5744 -0.7320
  110MOL0     C14404   8.961   6.705   6.974 -0.1457  0.5589  0.4754
  110MOL0     N14405   8.813   6.734   6.996 -0.1298  1.2902  0.2783
  110MOL0     C14406   8.711   6.656   6.961  0.2586 -0.1234 -0.1962
  110MOL0     C14407   8.598   6.719   7.001  0.0182 -0.6518 -0.1030
  110MOL0     C14408   8.465   6.677   6.964 -0.6570 -0.5969 -0.5258
  110MOL0     C14409   8.382   6.790   6.893 -0.7570 -1.0459 -0.1221
  110MOL0     C14410   8.229   6.757   6.875 -0.2058 -0.5333  0.7355
  110MOL0     C14411   8.145   6.823   6.993  0.7082  1.5365 -0.5827
  110MOL0     O14412   8.013   6.772   6.982 -0.4978  0.0294  0.1519
  110MOL0     C14413   7.911   6.835   7.058  0.1233 -0.4681  0.0537
  110MOL0     C14414   7.929   6.942   7.155  0.6427 -0.5666  0.4629
  110MOL0     C14415   7.821   7.008   7.219  0.5948 -1.0666 -1.2094
  110MOL0     C14416   7.689   6.963   7.190  0.2490 -0.6445  0.2729
  110MOL0     C14417   7.569   7.034   7.253  1.0808 -0.6639 -0.1466
  110MOL0     O14418   7.446   6.967   7.248 -0.4195 -0.3488 -0.2555
  110MOL0     C14419   7.332   7.018   7.299  0.1918  0.2689  0.8230
  110MOL0     C14420   7.249   6.932   7.372  0.5681 -0.1204  0.0506
  110MOL0     C14421   7.127   6.983   7.432 -0.5877 -0.9454  0.1995
  110MOL0     C14422   7.092   7.120   7.422 -0.6240  0.5065 -0.5926
  110MOL0     O14423   6.987   7.171   7.492  0.1654  0.0138 -0.2476
  110MOL0     C14424   6.896   7.259   7.425  0.7413 -1.0730 -1.0779
  110MOL0     C14425   6.782   7.302   7.512 -0.1837  0.0729 -0.4640
  110MOL0     C14426   6.676   7.370   7.427 -1.2567  0.2597 -0.3396
  110MOL0     C14427   6.551   7.405   7.520  0.0550 -0.2530 -0.1323
  110MOL0     C14428   6.432   7.440   7.429  0.3237 -0.8182 -0.2201
  110MOL0     C14429   6.308   7.465   7.505  0.4195 -0.0261  0.3202
  110MOL0     C14430   6.193   7.520   7.426  0.5884  0.2732 -0.0156
  110MOL0     C14431   6.060   7.509   7.493  0.8075  0.0824  0.0767
  110MOL0    Cl14432   6.036   7.621   7.626  0.4929 -0.0397 -0.1142
  110MOL0     C14433   7.169   7.201   7.340  0.1099 -0.7270 -0.0869
  110MOL0     C14434   7.285   7.151   7.278  0.0761 -0.3302  0.6487
  110MOL0     O14435   7.586   7.142   7.309 -0.4878 -1.0984  0.1598
  110MOL0     C14436   7.668   6.856   7.103  0.1453 -0.0926 -0.2677
  110MOL0     C14437   7.780   6.791   7.040  0.9761 -0.2581  0.7228
  110MOL0     N14438   8.632   6.841   7.063  0.1503  0.0829  0.2300
  110MOL0     N14439   8.763   6.840   7.068  0.4883 -0.2251 -0.4012
  110MOL0     C14440   9.925   6.989   7.231  0.1803 -0.1167  0.4551
  110MOL0     C14441  10.035   7.059   7.281 -0.2150  0.9512  0.1583
  110MOL0     C14442  10.450   7.110   7.480 -0.5693  0.5235 -0.4511
  110MOL0     C14443  10.544   7.057   7.573  0.2332 -1.4161 -1.8057
  110MOL0     C14444  10.647   7.139   7.627 -0.6391  0.4710  0.5807
  110MOL0     C14445  10.643   7.281   7.600  0.2194  0.0791 -0.2201
  110MOL0     O14446  10.726   7.361   7.672 -0.6292  0.0137 -1.1453
  110MOL0     C14447  10.828   7.299   7.759 -0.3968  0.7795  0.1926
  110MOL0     C14448  10.876   7.418   7.845  0.2325 -0.1926  0.0795
  110MOL0     C14449  11.010   7.429   7.898  0.1609 -0.1788  0.2736
  110MOL0     C14450  11.117   7.378   7.800  0.0530 -0.2117 -0.0893
  110MOL0     C14451  11.248   7.416   7.854 -0.7627  0.3052 -0.1793
  110MOL0     C14452  11.348   7.477   7.888 -0.1775  0.6027  0.4655
  110MOL0     C14453  10.535   7.334   7.531 -1.3009  0.0808 -0.9575
  110MOL0     C14454  10.440   7.251   7.463  0.1777  0.4352 -0.0871
  110MOL0     H14455  10.284   6.851   7.189 -0.6146 -1.2518 -0.2081
  110MOL0     H14456  10.094   6.736   7.079  0.1248  0.5317  0.5530
  110MOL0     H14457   9.720   6.938   7.030 -0.5192 -0.0538  0.2428
  110MOL0     H14458   9.673   6.850   7.174 -0.3905 -0.1316 -0.4382
  110MOL0     H14459   9.666   6.644   7.029  0.8650  0.3414  1.5872
  110MOL0     H14460   9.679   6.759   6.896  2.6405  0.1866  2.0974
  110MOL0     H14461   9.468   6.871   6.954  3.9386  2.2734  2.5844
  110MOL0     H14462   9.454   6.797   7.108  2.2722  0.6969  1.5839
  110MOL0     H14463   9.444   6.625   6.856  0.8657 -1.5743  0.2858
  110MOL0     H14464   9.401   6.580   7.023 -3.6476 -0.1799 -0.5263
  110MOL0     H14465   9.204   6.648   6.861 -1.0302  1.7586 -1.7914
  110MOL0     H14466   9.247   6.812   6.885 -0.0772 -0.3165 -0.4651
  110MOL0     H14467   9.246   6.775   7.134  1.2714 -0.9760 -1.6433
  110MOL0     H14468   9.199   6.605   7.113  1.9105 -1.7909 -0.9166
  110MOL0     H14469   9.005   6.768   7.168 -1.2843 -0.1619 -1.3420
  110MOL0     H14470   9.057   6.878   7.048  2.6993  0.8325 -0.0524
  110MOL0     H14471   8.980   6.598   6.992 -1.3041  0.1956 -0.3220
  110MOL0     H14472   8.969   6.734   6.869  0.3136  1.2147  0.6852
  110MOL0     H14473   8.711   6.564   6.904 -1.1723 -1.0038  1.1053
  110MOL0     H14474   8.412   6.664   7.059 -0.2853  1.8502  0.0842
  110MOL0     H14475   8.460   6.579   6.915 -3.0207  0.9457 -3.6338
  110MOL0     H14476   8.430   6.814   6.797  2.1468  1.8610  1.8260
  110MOL0     H14477   8.394   6.886   6.944 -3.1526 -0.7247 -0.0739
  110MOL0     H14478   8.199   6.798   6.778  1.0648 -1.6333 -0.1652
  110MOL0     H14479   8.215   6.649   6.870  0.4370 -0.6509  1.2808
  110MOL0     H14480   8.143   6.929   6.967 -0.8527  1.0749 -2.5401
  110MOL0     H14481   8.190   6.804   7.091 -2.6166  3.0991  1.4366
  110MOL0     H14482   8.032   6.970   7.173  1.4471 -1.6314 -2.0316
  110MOL0     H14483   7.848   7.089   7.286 -2.5077 -1.7069  1.0390
  110MOL0     H14484   7.272   6.826   7.378 -2.2947 -0.7445  1.7151
  110MOL0     H14485   7.053   6.927   7.488 -2.1012  0.5333 -0.2325
  110MOL0     H14486   6.853   7.226   7.330 -1.4103  1.6831 -1.1819
  110MOL0     H14487   6.952   7.350   7.405  1.6654 -0.8865  1.9587
  110MOL0     H14488   6.814   7.364   7.596 -0.3239 -0.3441 -0.1003
  110MOL0     H14489   6.741   7.210   7.553  3.6544 -2.3736 -1.5225
  110MOL0     H14490   6.639   7.297   7.355 -2.3973  0.1306  0.3431
  110MOL0     H14491   6.710   7.453   7.366  0.5056 -0.1630  0.0215
  110MOL0     H14492   6.525   7.321   7.586 -1.7486 -2.1787 -3.0256
  110MOL0     H14493   6.574   7.487   7.589  1.9153 -1.3604  0.6350
  110MOL0     H14494   6.415   7.366   7.351  2.8785 -0.3466 -1.3188
  110MOL0     H14495   6.447   7.535   7.377 -1.2219 -0.0214  0.7190
  110MOL0     H14496   6.337   7.538   7.581  1.5489 -0.7808  0.6478
  110MOL0     H14497   6.278   7.372   7.555  0.4296 -0.9434 -1.2907
  110MOL0     H14498   6.214   7.624   7.397 -0.8349  0.0434 -2.1372
  110MOL0     H14499   6.188   7.466   7.331  0.3498  0.7098 -0.2588
  110MOL0     H14500   6.043   7.410   7.537 -0.1380 -0.1550 -0.7659
  110MOL0     H14501   5.983   7.532   7.418  0.0361  3.2530  1.6398
  110MOL0     H14502   7.140   7.304   7.320 -0.7051 -0.7771  0.8054
  110MOL0     H14503   7.341   7.211   7.207 -0.1906 -1.3163 -0.4363
  110MOL0     H14504   7.570   6.820   7.074 -0.8557  0.0705  2.5509
  110MOL0     H14505   7.761   6.713   6.966 -0.7155 -0.7337  1.6073
  110MOL0     H14506   9.828   7.037   7.239 -0.9910 -2.0836 -1.0975
  110MOL0     H14507  10.023   7.158   7.324 -1.5180  0.5046  0.8866
  110MOL0     H14508  10.553   6.950   7.588  1.1278 -1.3350 -1.7109
  110MOL0     H14509  10.717   7.087   7.691 -0.7856 -0.1452  0.2432
  110MOL0     H14510  10.901   7.262   7.687 -0.2586 -1.4369  1.3638
  110MOL0     H14511  10.787   7.224   7.827 -0.6400  2.4576  1.9855
  110MOL0     H14512  10.870   7.502   7.776  0.6061  0.1379  0.4421
  110MOL0     H14513  10.805   7.429   7.928  0.1192 -2.5261  0.3501
  110MOL0     H14514  11.014   7.369   7.989 -1.2577  3.0795  2.6761
  110MOL0     H14515  11.029   7.536   7.909 -3.5027  1.0278 -2.9530
  110MOL0     H14516  11.108   7.270   7.782  2.0976 -0.6675  1.3106
  110MOL0     H14517  11.110   7.423   7.700  0.1385 -1.4639 -0.6814
  110MOL0     H14518  11.438   7.522   7.924  2.7179 -2.4989 -2.2126
  110MOL0     H14519  10.531   7.442   7.527 -0.0447  0.3303  1.7713
  110MOL0     H14520  10.365   7.295   7.399  1.3032  0.4324 -1.4443
  111MOL0     O14521   9.930   6.136   5.325 -0.0588  0.1381 -0.4824
  111MOL0     C14522   9.881   6.036   5.270 -0.3447 -0.2292 -0.5444
  111MOL0     O14523   9.757   5.992   5.277 -0.4965 -0.0758 -0.1796
  111MOL0     C14524   9.657   6.045   5.343  0.4152 -0.4391  0.1339
  111MOL0     C14525   9.581   5.960   5.424 -0.2442  0.1112  0.1820
  111MOL0     C14526   9.483   6.013   5.511  0.6872  1.0202  0.7133
  111MOL0     C14527   9.468   6.152   5.521  0.2226  0.5445  0.1846
  111MOL0     O14528   9.379   6.187   5.613  0.7927  0.2897 -0.5480
  111MOL0     C14529   9.401   6.313   5.683 -0.4996 -0.1560 -0.6982
  111MOL0     C14530   9.301   6.324   5.788 -0.0061  0.0607 -0.3365
  111MOL0     C14531   9.161   6.365   5.738  0.1757 -0.1163  0.1161
  111MOL0     C14532   9.062   6.333   5.846  0.8972  0.1524 -0.4600
  111MOL0     C14533   8.923   6.312   5.783  0.4276  0.0265 -0.8581
  111MOL0     C14534   8.808   6.327   5.886  0.3260 -0.2863  0.2230
  111MOL0     C14535   8.671   6.301   5.826  0.1042  0.3128  0.3610
  111MOL0     C14536   8.568   6.355   5.915  0.4462 -0.1720 -0.3373
  111MOL0     N14537   8.429   6.330   5.863 -0.1784 -0.0766  0.2468
  111MOL0     C14538   8.317   6.352   5.937  0.4617 -0.5954  0.0328
  111MOL0     C14539   8.212   6.324   5.853  0.5537  0.0728 -0.4294
  111MOL0     C14540   8.070   6.318   5.892  1.2079 -0.4269 -0.2810
  111MOL0     C14541   8.010   6.451   5.852 -0.4826 -0.7157 -0.0288
  111MOL0     C14542   7.857   6.433   5.876 -0.4207  0.2667 -1.4020
  111MOL0     C14543   7.812   6.416   6.029 -0.0705  0.6523 -0.0879
  111MOL0     O14544   7.664   6.438   6.035 -0.0849 -0.2022 -0.2569
  111MOL0     C14545   7.598   6.554   6.027  1.7297  0.5331  0.1421
  111MOL0     C14546   7.456   6.537   6.025 -0.7169  0.0601 -0.5630
  111MOL0     C14547   7.369   6.653   6.021 -0.6305 -0.0333  0.2429
  111MOL0     C14548   7.426   6.787   6.008 -0.5172 -0.1003 -0.4984
  111MOL0     C14549   7.341   6.911   5.994 -0.1425 -0.6725  0.3347
  111MOL0     O14550   7.205   6.890   6.017 -0.1030 -0.8090 -0.0652
  111MOL0     C14551   7.117   6.994   6.047  0.8298 -0.0670  0.8727
  111MOL0     C14552   6.985   6.973   6.010  0.1724 -0.6917 -0.3475
  111MOL0     C14553   6.883   7.074   6.014 -0.6329 -0.3672  0.4835
  111MOL0     C14554   6.909   7.200   6.059 -0.1801 -0.2354  0.1405
  111MOL0     O14555   6.804   7.289   6.055  0.4748 -0.1996 -0.1466
  111MOL0     C14556   6.826   7.416   6.130 -0.0902 -0.1760 -0.3157
  111MOL0     C14557   6.685   7.478   6.169  0.8305 -0.4949  0.2815
  111MOL0     C14558   6.599   7.509   6.039  0.5335  0.7113  0.4446
  111MOL0     C14559   6.462   7.574   6.076  1.0896  0.0098 -0.1559
  111MOL0     C14560   6.472   7.725   6.094  0.2920  0.5671 -0.2128
  111MOL0     C14561   6.338   7.780   6.141  0.8156 -0.7747 -0.7741
  111MOL0     C14562   6.242   7.786   6.029 -0.5112  0.3830 -0.1073
  111MOL0     C14563   6.111   7.856   6.068 -0.5606  0.7106 -0.0378
  111MOL0    Cl14564   5.968   7.795   5.976  0.5430 -0.2461 -0.6160
  111MOL0     C14565   7.044   7.217   6.112 -0.6713  0.2561  0.6048
  111MOL0     C14566   7.146   7.120   6.107 -0.6111 -0.3890 -0.0435
  111MOL0     O14567   7.393   7.020   5.977 -1.3014 -0.1149 -0.2377
  111MOL0     C14568   7.570   6.793   6.007 -0.3338 -0.3783 -0.3299
  111MOL0     C14569   7.654   6.681   6.025 -0.2912  0.2769 -0.2401
  111MOL0     N14570   8.263   6.294   5.729  0.4628  1.1786  0.1197
  111MOL0     N14571   8.391   6.287   5.733  0.0875  0.4223  0.8249
  111MOL0     C14572   9.544   6.236   5.438  0.1792  0.5770 -1.0828
  111MOL0     C14573   9.629   6.183   5.346  0.7151 -0.1594  0.1302
  111MOL0     C14574   9.967   5.949   5.186  0.3710  0.8493 -1.0802
  111MOL0     C14575  10.109   5.990   5.173 -0.0115  0.4790 -0.2541
  111MOL0     C14576  10.195   5.903   5.097  0.0716  0.0725  0.4999
  111MOL0     C14577  10.152   5.781   5.044 -0.0803  0.5397  0.8802
  111MOL0     O14578  10.256   5.709   4.987 -0.7629 -0.2549  0.1636
  111MOL0     C14579  10.220   5.621   4.885 -0.1125 -0.4641  0.2325
  111MOL0     C14580  10.348   5.556   4.817  0.3443  0.1336  0.3053
  111MOL0     C14581  10.445   5.469   4.902  0.7549 -0.3677  0.2387
  111MOL0     C14582  10.562   5.402   4.825  0.5545  0.6592 -0.2463
  111MOL0     C14583  10.675   5.494   4.850  0.2105  0.5389 -0.3923
  111MOL0     C14584  10.761   5.570   4.877 -0.4554 -0.3910  0.0206
  111MOL0     C14585  10.010   5.753   5.043 -0.3120  0.4591 -0.0360
  111MOL0     C14586   9.922   5.835   5.114 -0.3188  0.0939 -0.0032
  111MOL0     H14587   9.623   5.860   5.432  1.4027  0.6876 -0.7646
  111MOL0     H14588   9.431   5.942   5.575 -0.9773 -1.0601 -2.6494
  111MOL0     H14589   9.388   6.387   5.604  2.2641  2.6020  1.2263
  111MOL0     H14590   9.501   6.327   5.725 -0.5902  3.9999 -1.4852
  111MOL0     H14591   9.334   6.413   5.843  1.4026 -0.5350 -0.1765
  111MOL0     H14592   9.307   6.240   5.859 -0.3744  0.0364 -0.3290
  111MOL0     H14593   9.147   6.300   5.651  1.9338 -4.2103  2.5866
  111MOL0     H14594   9.153   6.469   5.707  3.0915 -0.7035 -3.3376
  111MOL0     H14595   9.083   6.235   5.892  0.0290 -1.7961 -3.8621
  111MOL0     H14596   9.066   6.420   5.912 -2.6062 -0.4274  0.7530
  111MOL0     H14597   8.926   6.209   5.748  1.1942 -0.7621  1.3682
  111MOL0     H14598   8.902   6.388   5.707  0.1290 -0.0354 -0.8357
  111MOL0     H14599   8.818   6.433   5.911 -0.5394  1.3043 -4.9621
  111MOL0     H14600   8.825   6.273   5.979  0.2359  0.3700  0.6288
  111MOL0     H14601   8.662   6.349   5.729 -0.6293  0.6462  0.5866
  111MOL0     H14602   8.665   6.192   5.817  0.8902  0.1723  1.3925
  111MOL0     H14603   8.591   6.460   5.933 -0.0526 -0.0653 -0.3088
  111MOL0     H14604   8.574   6.300   6.009  0.3864 -3.7340 -2.2220
  111MOL0     H14605   8.311   6.378   6.042 -2.2841  1.6357 -0.5675
  111MOL0     H14606   8.056   6.317   6.000 -1.8680  2.0839 -0.5001
  111MOL0     H14607   8.022   6.231   5.848 -1.3550  0.4569  0.6087
  111MOL0     H14608   8.024   6.464   5.745 -2.1834  0.1948 -0.1715
  111MOL0     H14609   8.047   6.543   5.899  0.4263  0.2748 -2.5186
  111MOL0     H14610   7.800   6.514   5.828 -0.6741  2.1730  1.8404
  111MOL0     H14611   7.826   6.341   5.825 -0.3898 -1.0733  0.8788
  111MOL0     H14612   7.864   6.484   6.097  2.5236  0.7384 -2.0073
  111MOL0     H14613   7.832   6.311   6.053  0.8447  0.6269 -0.9044
  111MOL0     H14614   7.413   6.438   6.038 -3.6009  1.3940  1.0237
  111MOL0     H14615   7.261   6.646   6.010 -0.4300  0.7503 -3.2194
  111MOL0     H14616   6.954   6.883   5.958 -0.9016 -0.3662 -0.2963
  111MOL0     H14617   6.781   7.067   5.976 -0.6948  0.1765  0.5390
  111MOL0     H14618   6.887   7.484   6.070 -2.0644 -0.1782 -2.4900
  111MOL0     H14619   6.867   7.391   6.228 -0.7958 -0.2670 -0.0415
  111MOL0     H14620   6.688   7.569   6.229 -0.3717 -1.2608  1.5691
  111MOL0     H14621   6.626   7.403   6.224  1.5294 -2.1541 -1.1445
  111MOL0     H14622   6.590   7.407   6.002  4.6414 -1.8198  5.1217
  111MOL0     H14623   6.640   7.578   5.965 -1.2729 -0.1132 -1.4133
  111MOL0     H14624   6.387   7.553   6.000 -0.6693  2.9843  0.5636
  111MOL0     H14625   6.424   7.532   6.170  1.8828  0.5087  0.4027
  111MOL0     H14626   6.493   7.771   5.997 -1.0333 -1.3230 -1.4649
  111MOL0     H14627   6.543   7.752   6.173  0.7452  1.0978 -0.7962
  111MOL0     H14628   6.354   7.879   6.185  1.9523  0.1021 -3.0201
  111MOL0     H14629   6.290   7.716   6.217 -0.0651  2.1303  1.2821
  111MOL0     H14630   6.283   7.824   5.935 -1.0328  0.0137 -0.4900
  111MOL0     H14631   6.201   7.686   6.012 -0.9064  0.7890 -1.7020
  111MOL0     H14632   6.113   7.965   6.066 -1.9989  0.7560 -2.0757
  111MOL0     H14633   6.095   7.824   6.171 -2.0460  0.2068 -0.3889
  111MOL0     H14634   7.071   7.311   6.158  0.6604  0.9094 -1.3672
  111MOL0     H14635   7.246   7.125   6.148 -0.7070 -2.9107  0.6743
  111MOL0     H14636   7.624   6.886   6.005 -0.4373 -0.2357  1.5712
  111MOL0     H14637   7.762   6.690   6.033  0.0011 -0.1942 -2.7304
  111MOL0     H14638   9.534   6.344   5.431  1.0874  0.5858 -3.0812
  111MOL0     H14639   9.694   6.249   5.290 -1.6427  1.4441 -0.8541
  111MOL0     H14640  10.143   6.079   5.225  0.7785 -0.0791  0.2071
  111MOL0     H14641  10.298   5.934   5.097  0.2234  0.0445 -3.0950
  111MOL0     H14642  10.160   5.673   4.809 -1.9519 -3.5842 -0.6263
  111MOL0     H14643  10.153   5.544   4.923  0.0315 -0.9387 -0.4556
  111MOL0     H14644  10.311   5.501   4.730  1.6184  0.8771 -0.7510
  111MOL0     H14645  10.402   5.636   4.767 -0.2248  0.4846  0.2540
  111MOL0     H14646  10.382   5.391   4.946  0.8725 -0.7609 -0.2802
  111MOL0     H14647  10.476   5.521   4.993 -1.5802  2.3105 -0.3354
  111MOL0     H14648  10.582   5.308   4.877 -1.6604  0.2458 -0.0478
  111MOL0     H14649  10.538   5.384   4.720 -0.7193 -0.9965  0.3073
  111MOL0     H14650  10.845   5.637   4.879 -2.4224  2.3666 -2.4437
  111MOL0     H14651   9.967   5.669   4.989 -3.7168  1.1009  1.4217
  111MOL0     H14652   9.818   5.805   5.119  0.3688 -2.2753  2.9575
  112MOL0     O14653   8.076   3.671  11.018  0.4373  0.3081  0.5989
  112MOL0     C14654   8.096   3.628  10.902  0.0225  0.7571 -0.4628
  112MOL0     O14655   7.999   3.632  10.801 -0.4326 -0.0307 -0.0720
  112MOL0     C14656   7.874   3.665  10.833  0.3955  0.1627 -0.6553
  112MOL0     C14657   7.813   3.610  10.948 -0.3975  0.6587  0.2376
  112MOL0     C14658   7.684   3.644  10.978  0.1098  0.4919 -0.1288
  112MOL0     C14659   7.603   3.720  10.893 -0.1329  0.2781 -0.2587
  112MOL0     O14660   7.472   3.736  10.905 -0.6900 -0.7382  0.2278
  112MOL0     C14661   7.411   3.757  11.033  0.3627 -0.2420 -0.2986
  112MOL0     C14662   7.257   3.766  11.021  0.5606 -0.1493  0.1773
  112MOL0     C14663   7.204   3.845  10.890  0.3008  0.5263  0.2414
  112MOL0     C14664   7.061   3.878  10.894 -0.3257 -0.4877 -0.4929
  112MOL0     C14665   7.025   3.996  10.807 -1.2842  0.2627  1.0958
  112MOL0     C14666   6.881   3.979  10.749 -0.2469 -0.2013  0.9094
  112MOL0     C14667   6.843   4.100  10.681  0.0720 -0.2453  1.2347
  112MOL0     C14668   6.703   4.089  10.628  0.6238 -0.2038  0.1995
  112MOL0     N14669   6.620   4.206  10.671  0.0587 -0.4732 -0.1802
  112MOL0     C14670   6.556   4.215  10.794 -1.1756  0.1071  0.7901
  112MOL0     C14671   6.511   4.345  10.793 -0.4492 -0.3180  0.0477
  112MOL0     C14672   6.460   4.412  10.905 -0.1308 -0.2977 -0.7314
  112MOL0     C14673   6.308   4.389  10.904  0.1253  0.4288  0.1035
  112MOL0     C14674   6.236   4.476  10.807  0.3908 -0.5914 -0.3053
  112MOL0     C14675   6.083   4.459  10.825 -0.5066  0.8371  0.2761
  112MOL0     O14676   6.038   4.512  10.952  0.0161 -0.7018  0.5450
  112MOL0     C14677   5.918   4.577  10.966  0.3265 -0.0273  0.8708
  112MOL0     C14678   5.901   4.665  11.072 -1.2737 -0.3571 -0.6276
  112MOL0     C14679   5.779   4.741  11.081  0.0938  0.2075 -0.2398
  112MOL0     C14680   5.674   4.710  10.992 -0.5390  0.1732 -0.5314
  112MOL0     C14681   5.551   4.792  11.015 -0.1958 -0.1610  0.1616
  112MOL0     O14682   5.516   4.821  11.142 -0.4642 -0.3607  0.1088
  112MOL0     C14683   5.421   4.917  11.162 -0.2805  0.2842  0.1416
  112MOL0     C14684   5.288   4.869  11.173 -0.5217 -0.0602  0.9987
  112MOL0     C14685   5.182   4.951  11.191 -0.2732  0.3952 -0.1284
  112MOL0     C14686   5.204   5.094  11.181  0.3900  0.6277 -0.3547
  112MOL0     O14687   5.083   5.164  11.188 -0.5905 -0.0327  0.0115
  112MOL0     C14688   5.077   5.282  11.111 -0.2998 -0.0925  0.4713
  112MOL0     C14689   4.929   5.324  11.101 -0.3819  0.0495 -0.5372
  112MOL0     C14690   4.862   5.219  11.018  0.0876 -0.1503 -1.9009
  112MOL0     C14691   4.709   5.241  11.024 -0.6105 -0.0797  0.1235
  112MOL0     C14692   4.643   5.127  10.947  0.1612  0.3693  0.2521
  112MOL0     C14693   4.491   5.160  10.928  0.3692 -0.3445 -0.1498
  112MOL0     C14694   4.414   5.029  10.883 -0.2042 -0.1067 -0.1603
  112MOL0     C14695   4.473   4.969  10.749 -0.6177 -0.6953 -0.4631
  112MOL0    Cl14696   4.450   5.088  10.621  0.0319 -0.2051  0.0273
  112MOL0     C14697   5.331   5.146  11.159 -0.5339  0.0631 -0.1651
  112MOL0     C14698   5.442   5.061  11.151 -0.9031  0.3404  0.1168
  112MOL0     O14699   5.486   4.826  10.917 -0.5017  0.5375 -0.4683
  112MOL0     C14700   5.695   4.615  10.890  0.0851 -0.4189 -0.3558
  112MOL0     C14701   5.816   4.555  10.867 -0.4981 -0.5656  1.1274
  112MOL0     N14702   6.556   4.411  10.673  0.5417 -0.2538 -0.2448
  112MOL0     N14703   6.616   4.324  10.601  0.3628 -0.0644  0.9153
  112MOL0     C14704   7.668   3.778  10.781  0.0600  0.4163  0.2256
  112MOL0     C14705   7.801   3.752  10.748 -0.2412 -0.2496 -0.1621
  112MOL0     C14706   8.228   3.572  10.875 -0.4447  0.6596 -0.6746
  112MOL0     C14707   8.263   3.552  10.736 -1.0506  0.6864 -0.3257
  112MOL0     C14708   8.395   3.505  10.711  0.2796 -0.3773 -0.6986
  112MOL0     C14709   8.490   3.487  10.813  0.3319  0.3490  0.0858
  112MOL0     O14710   8.620   3.438  10.810  0.2144 -0.4449  0.1666
  112MOL0     C14711   8.700   3.444  10.687  0.8353 -0.7046 -0.8990
  112MOL0     C14712   8.811   3.335  10.700 -0.0222 -0.3650 -0.8877
  112MOL0     C14713   8.939   3.374  10.775 -0.4388 -0.6835  0.0417
  112MOL0     C14714   9.025   3.255  10.813 -0.3300 -0.3831  0.5226
  112MOL0     C14715   9.145   3.288  10.898  0.2279 -0.2505 -0.3677
  112MOL0     C14716   9.252   3.291  10.953 -0.0636  0.5001  0.0601
  112MOL0     C14717   8.446   3.508  10.940  0.2841  0.6761 -0.3855
  112MOL0     C14718   8.324   3.557  10.977 -0.0617  0.3423 -0.0762
  112MOL0     H14719   7.873   3.547  11.013  2.1160  0.2723 -2.2529
  112MOL0     H14720   7.646   3.595  11.067  0.8911  1.6534  0.8860
  112MOL0     H14721   7.446   3.839  11.097  0.1525  0.0768 -0.5923
  112MOL0     H14722   7.430   3.660  11.080  0.7906 -1.6211 -3.1290
  112MOL0     H14723   7.216   3.822  11.106  2.6858  0.8342  0.6105
  112MOL0     H14724   7.215   3.666  11.025 -1.4336  0.5720 -1.0447
  112MOL0     H14725   7.221   3.786  10.799 -1.9530 -0.8880  0.6415
  112MOL0     H14726   7.261   3.935  10.869  0.7005  0.0329 -0.8771
  112MOL0     H14727   6.999   3.793  10.865 -1.2685  0.1675 -0.4348
  112MOL0     H14728   7.036   3.902  10.998  3.2253 -1.0456  0.6357
  112MOL0     H14729   7.099   4.005  10.727 -0.5924 -0.0156  1.7002
  112MOL0     H14730   7.039   4.088  10.865  3.3695  0.8565 -0.5427
  112MOL0     H14731   6.806   3.943  10.820  0.5648  1.5506  2.7372
  112MOL0     H14732   6.892   3.898  10.676  0.0610  1.5367 -1.0381
  112MOL0     H14733   6.848   4.185  10.750 -2.9097  0.6740  0.4878
  112MOL0     H14734   6.912   4.114  10.597 -0.4417 -1.2466  0.6229
  112MOL0     H14735   6.657   3.995  10.661  2.2836 -1.1743 -0.1620
  112MOL0     H14736   6.700   4.085  10.519  2.0088  0.6190  0.1125
  112MOL0     H14737   6.546   4.140  10.872  0.8402 -0.7804  0.2499
  112MOL0     H14738   6.478   4.520  10.903  0.5400 -0.3646  0.5147
  112MOL0     H14739   6.507   4.376  10.997 -3.0446 -3.5613 -0.2950
  112MOL0     H14740   6.278   4.420  11.005 -0.4559 -0.5189  0.2342
  112MOL0     H14741   6.295   4.283  10.884 -0.1889  0.4513  0.1695
  112MOL0     H14742   6.262   4.580  10.827 -3.4819  0.1911  1.5596
  112MOL0     H14743   6.247   4.449  10.702 -0.8584 -1.9764 -0.1111
  112MOL0     H14744   6.056   4.353  10.821 -1.0503  0.9850 -0.1678
  112MOL0     H14745   6.051   4.518  10.739  1.8126  3.0827  0.8181
  112MOL0     H14746   5.987   4.665  11.139 -1.5181  0.1563 -0.3076
  112MOL0     H14747   5.782   4.830  11.144  2.5626  2.7655 -3.5612
  112MOL0     H14748   5.262   4.764  11.181 -0.5509 -0.0102  1.6846
  112MOL0     H14749   5.078   4.920  11.185 -0.4430  1.2904 -3.6624
  112MOL0     H14750   5.111   5.264  11.009  1.2105  2.5389  0.4485
  112MOL0     H14751   5.143   5.356  11.157  2.1799 -2.1615  0.4613
  112MOL0     H14752   4.915   5.422  11.054 -4.0229 -0.6672 -1.2531
  112MOL0     H14753   4.880   5.326  11.199  2.2184  1.9967  0.8503
  112MOL0     H14754   4.880   5.123  11.067  0.3180  1.2762  0.9955
  112MOL0     H14755   4.897   5.222  10.914  0.4470  1.7103 -1.7541
  112MOL0     H14756   4.666   5.239  11.124 -3.7153 -1.9562 -1.0953
  112MOL0     H14757   4.675   5.334  10.978 -0.6059  0.3052  0.8846
  112MOL0     H14758   4.654   5.030  10.997  0.9518 -1.5323 -3.2505
  112MOL0     H14759   4.692   5.114  10.850  0.5455 -1.1563  0.6103
  112MOL0     H14760   4.469   5.238  10.855 -1.1544 -0.8154 -0.2148
  112MOL0     H14761   4.454   5.199  11.024 -3.1928  3.7849 -2.8053
  112MOL0     H14762   4.437   4.962  10.967  1.5083  0.2350 -0.3276
  112MOL0     H14763   4.307   5.043  10.864  0.3502  3.1599 -1.4976
  112MOL0     H14764   4.419   4.880  10.716 -2.4975  1.2956 -3.1794
  112MOL0     H14765   4.578   4.947  10.769 -0.5446 -0.0054 -0.0416
  112MOL0     H14766   5.348   5.254  11.152 -0.9515  0.1333 -0.1135
  112MOL0     H14767   5.543   5.101  11.144 -1.3453  2.0743  2.4300
  112MOL0     H14768   5.610   4.598  10.824  0.2946 -4.2822  0.1038
  112MOL0     H14769   5.819   4.489  10.780  1.0040  1.3575 -0.3666
  112MOL0     H14770   7.610   3.824  10.702 -1.1514 -1.5956 -0.1222
  112MOL0     H14771   7.831   3.794  10.652 -1.8718 -0.0352 -0.6022
  112MOL0     H14772   8.189   3.558  10.657 -1.4238 -1.8772 -0.2719
  112MOL0     H14773   8.426   3.500  10.607  0.0552  2.9991 -1.0562
  112MOL0     H14774   8.733   3.546  10.664 -4.1103  1.4251  0.0154
  112MOL0     H14775   8.637   3.407  10.605 -0.2643 -3.2103  0.9496
  112MOL0     H14776   8.772   3.246  10.749  0.1618 -0.9935 -1.8606
  112MOL0     H14777   8.836   3.305  10.598  3.1903  1.0946 -0.6727
  112MOL0     H14778   8.918   3.424  10.870  0.3345  1.0862 -0.6778
  112MOL0     H14779   8.988   3.447  10.710 -0.9046  0.1858  0.6464
  112MOL0     H14780   8.961   3.188  10.871 -0.7502  0.2796  0.8317
  112MOL0     H14781   9.056   3.198  10.725 -3.5980 -2.6726  0.7187
  112MOL0     H14782   9.355   3.295  10.984 -0.0246  0.5731 -0.0738
  112MOL0     H14783   8.513   3.489  11.023 -0.6169 -2.8705 -0.3178
  112MOL0     H14784   8.304   3.572  11.083  0.1201  0.5830 -0.0747
  113MOL0     O14785   7.612   9.293   6.853  0.4459  0.0546 -0.1488
  113MOL0     C14786   7.588   9.394   6.912  0.7085 -0.3057 -0.4074
  113MOL0     O14787   7.460   9.450   6.915 -0.5112  0.7017 -0.0913
  113MOL0     C14788   7.366   9.395   6.831 -0.1848  0.4593 -0.0055
  113MOL0     C14789   7.361   9.395   6.686  0.1163 -0.0036  0.3548
  113MOL0     C14790   7.262   9.319   6.623 -0.3420  0.6262  0.5329
  113MOL0     C14791   7.169   9.246   6.691  0.0263 -0.1467 -0.4128
  113MOL0     O14792   7.068   9.164   6.637 -0.0939  0.0789  0.2618
  113MOL0     C14793   7.030   9.168   6.496  0.1197  0.0798 -0.5089
  113MOL0     C14794   6.920   9.064   6.483 -0.2310 -0.3279  0.3210
  113MOL0     C14795   6.891   9.030   6.341  0.4528  0.1326  0.6735
  113MOL0     C14796   6.785   9.124   6.273 -0.1063  0.3997  0.5035
  113MOL0     C14797   6.641   9.089   6.313  0.4595  1.2193 -0.1805
  113MOL0     C14798   6.583   9.164   6.430 -0.5818  0.1248 -0.0739
  113MOL0     C14799   6.448   9.104   6.462  0.1764 -0.1892  0.2114
  113MOL0     C14800   6.378   9.165   6.579  0.2607  0.3838  0.1992
  113MOL0     N14801   6.241   9.116   6.595  0.4014  0.4016 -0.0329
  113MOL0     C14802   6.202   8.994   6.556  0.0589 -0.0699  0.6256
  113MOL0     C14803   6.069   9.007   6.526  1.0119 -0.0788 -0.4190
  113MOL0     C14804   5.966   8.918   6.462  0.3432 -0.4898 -1.1250
  113MOL0     C14805   5.904   8.979   6.330 -0.2305  0.2154 -0.0278
  113MOL0     C14806   5.835   8.876   6.239  0.3872 -0.6875  0.1687
  113MOL0     C14807   5.711   8.800   6.304 -0.3731  0.0953  0.7254
  113MOL0     O14808   5.599   8.881   6.330  0.5314 -0.7927 -0.1716
  113MOL0     C14809   5.507   8.814   6.405 -0.3515  0.1187 -0.4622
  113MOL0     C14810   5.519   8.812   6.544  0.0799 -0.2802 -0.1513
  113MOL0     C14811   5.410   8.769   6.616  0.1892  0.2509  0.2387
  113MOL0     C14812   5.296   8.713   6.555  0.1270 -0.3675 -0.0308
  113MOL0     C14813   5.187   8.654   6.642 -0.0505 -0.5216  0.4046
  113MOL0     O14814   5.085   8.596   6.575 -0.5842 -0.5253  0.2392
  113MOL0     C14815   4.985   8.547   6.650 -0.4175  1.0855  0.7155
  113MOL0     C14816   4.874   8.618   6.664  0.9335 -0.6865 -0.2303
  113MOL0     C14817   4.764   8.558   6.731 -0.0796  0.2958 -0.4272
  113MOL0     C14818   4.769   8.426   6.789  0.6396  0.2176  0.1875
  113MOL0     O14819   4.668   8.367   6.856  0.0615  0.1669  0.0440
  113MOL0     C14820   4.690   8.235   6.909 -0.0497  0.6876  0.0297
  113MOL0     C14821   4.572   8.184   6.999  0.4195  0.3002 -0.0751
  113MOL0     C14822   4.438   8.172   6.925  0.1091 -0.3391  0.9240
  113MOL0     C14823   4.338   8.128   7.026  0.7108  0.0097  0.0510
  113MOL0     C14824   4.216   8.071   6.964  0.3726  0.7950 -0.1858
  113MOL0     C14825   4.080   8.071   7.039  0.0518 -0.5017 -0.6695
  113MOL0     C14826   3.952   8.024   6.957  0.6845  0.3333 -1.0033
  113MOL0     C14827   3.949   7.868   6.940  0.3604  0.0356  0.7114
  113MOL0    Cl14828   3.864   7.809   6.800 -0.1923 -0.0344  0.5522
  113MOL0     C14829   4.890   8.352   6.758  0.3266 -0.7139  0.3764
  113MOL0     C14830   4.996   8.412   6.692 -0.3271 -0.8253  0.9976
  113MOL0     O14831   5.192   8.675   6.763  0.1685 -0.2727 -0.3543
  113MOL0     C14832   5.297   8.697   6.414 -0.4441 -0.6288  0.6788
  113MOL0     C14833   5.406   8.744   6.340  0.6458 -0.0902  0.9050
  113MOL0     N14834   6.025   9.135   6.565  0.0877 -0.2974 -0.1458
  113MOL0     N14835   6.130   9.200   6.606  0.5812  0.0735  0.0813
  113MOL0     C14836   7.175   9.248   6.827 -0.5337  0.2058  0.3047
  113MOL0     C14837   7.279   9.315   6.894 -0.1872  0.1815 -0.7075
  113MOL0     C14838   7.690   9.461   7.003 -0.0290  0.4635 -0.2032
  113MOL0     C14839   7.821   9.407   7.004 -0.6128 -0.5074  1.0428
  113MOL0     C14840   7.925   9.468   7.072 -0.2820  0.5175 -1.4344
  113MOL0     C14841   7.894   9.575   7.157  0.3027  0.0369 -0.1195
  113MOL0     O14842   8.010   9.615   7.220 -0.0201  0.4718 -0.4547
  113MOL0     C14843   7.992   9.724   7.315  0.2533  0.3368 -0.6352
  113MOL0     C14844   8.113   9.731   7.392  0.4898  0.6243  0.0813
  113MOL0     C14845   8.226   9.791   7.312  0.3344  0.5315 -0.3361
  113MOL0     C14846   8.323   9.879   7.393 -1.0904 -0.0576  0.5445
  113MOL0     C14847   8.409   9.793   7.467  0.0626 -0.3278 -0.3444
  113MOL0     C14848   8.465   9.718   7.535 -0.6400  0.3100  0.1038
  113MOL0     C14849   7.761   9.623   7.168  0.7897 -0.2662  0.2271
  113MOL0     C14850   7.656   9.567   7.093 -0.4044 -0.2316 -0.5366
  113MOL0     H14851   7.431   9.456   6.631  2.1502 -1.0764  1.6251
  113MOL0     H14852   7.243   9.319   6.516  1.4334 -0.6593  0.1829
  113MOL0     H14853   7.117   9.143   6.434 -0.1329  2.4387 -1.9448
  113MOL0     H14854   7.007   9.269   6.461  2.2875  1.6583  2.1574
  113MOL0     H14855   6.833   9.096   6.542  1.4782  2.2486  1.6818
  113MOL0     H14856   6.952   8.971   6.530  0.3399  0.5783  1.8367
  113MOL0     H14857   6.874   8.924   6.316 -0.5608  0.5070 -0.3219
  113MOL0     H14858   6.984   9.042   6.284 -0.1211 -2.3820 -0.9590
  113MOL0     H14859   6.803   9.231   6.289 -3.9751  1.4849 -1.1262
  113MOL0     H14860   6.809   9.097   6.170  1.3336 -0.2965  0.9895
  113MOL0     H14861   6.631   8.980   6.320 -0.9891  1.2981 -0.8559
  113MOL0     H14862   6.578   9.111   6.226 -1.0431  1.5863  0.9678
  113MOL0     H14863   6.566   9.272   6.421 -0.4281  0.0617 -1.3128
  113MOL0     H14864   6.644   9.146   6.519  3.0081  5.2955 -1.0128
  113MOL0     H14865   6.372   9.104   6.383 -1.7720  0.3132  1.9939
  113MOL0     H14866   6.465   8.998   6.478  0.2305 -0.2498 -0.2503
  113MOL0     H14867   6.373   9.274   6.582 -0.8520  0.3417 -0.0724
  113MOL0     H14868   6.433   9.134   6.669  0.0362 -0.6310  0.0044
  113MOL0     H14869   6.262   8.905   6.545  2.5011  1.2567  2.2688
  113MOL0     H14870   5.896   8.888   6.540  0.4541 -0.2969 -0.9509
  113MOL0     H14871   6.022   8.827   6.436  2.4444 -0.0187  1.3402
  113MOL0     H14872   5.977   9.039   6.275 -1.9569 -0.5371 -3.3881
  113MOL0     H14873   5.823   9.050   6.350 -0.9650 -0.2473 -1.2668
  113MOL0     H14874   5.802   8.922   6.145  1.4468 -2.3328 -1.0653
  113MOL0     H14875   5.911   8.803   6.209 -0.7660 -1.0306 -2.1220
  113MOL0     H14876   5.745   8.762   6.401 -0.3779  1.4958  1.3062
  113MOL0     H14877   5.692   8.717   6.235 -0.8577 -0.2752  1.3018
  113MOL0     H14878   5.608   8.859   6.585  0.0683  1.6432 -2.1517
  113MOL0     H14879   5.413   8.790   6.723 -1.2479  2.3965 -0.0680
  113MOL0     H14880   4.873   8.717   6.619 -1.7272 -0.1591  0.8214
  113MOL0     H14881   4.667   8.608   6.732 -0.5518 -0.5570  1.4652
  113MOL0     H14882   4.779   8.244   6.973 -0.6113 -1.3062  1.1730
  113MOL0     H14883   4.714   8.160   6.834 -0.6566 -1.9677  2.3234
  113MOL0     H14884   4.563   8.260   7.078  2.9684  0.0261  0.5647
  113MOL0     H14885   4.601   8.087   7.039 -1.4960 -0.2131  0.1817
  113MOL0     H14886   4.440   8.112   6.834 -2.0209  0.6250  0.1920
  113MOL0     H14887   4.407   8.268   6.882 -0.5256 -1.7571 -2.0540
  113MOL0     H14888   4.380   8.050   7.089  0.3510 -1.6597 -1.6987
  113MOL0     H14889   4.318   8.222   7.080 -1.3284 -0.4176  0.1113
  113MOL0     H14890   4.234   7.968   6.932 -2.7891 -0.0363  0.3916
  113MOL0     H14891   4.188   8.138   6.883 -0.6424  3.6419  2.3572
  113MOL0     H14892   4.061   8.175   7.067  0.9341 -0.3386 -0.6366
  113MOL0     H14893   4.079   8.003   7.125  0.4590  1.2314  0.7644
  113MOL0     H14894   3.864   8.052   7.014  0.7932 -0.5000 -0.4162
  113MOL0     H14895   3.951   8.083   6.864 -1.1696 -1.3945 -2.1754
  113MOL0     H14896   3.903   7.824   7.029 -0.8322  2.6886  1.4969
  113MOL0     H14897   4.046   7.817   6.935  0.6834  0.7462 -1.2594
  113MOL0     H14898   4.908   8.251   6.794  1.6429 -1.0998 -1.2107
  113MOL0     H14899   5.087   8.356   6.674 -1.2004 -1.9536 -0.0401
  113MOL0     H14900   5.222   8.639   6.360  1.8328 -3.3488  0.2193
  113MOL0     H14901   5.423   8.727   6.234  0.1967  2.3194  0.3904
  113MOL0     H14902   7.108   9.184   6.883  1.0304 -0.2870  1.6949
  113MOL0     H14903   7.281   9.312   7.003 -1.9212 -1.8649 -0.6623
  113MOL0     H14904   7.841   9.331   6.930 -2.7836 -0.1331 -0.0056
  113MOL0     H14905   8.030   9.460   7.047  0.4583  1.5138  1.0726
  113MOL0     H14906   7.900   9.698   7.368 -0.7387 -2.3252 -3.3649
  113MOL0     H14907   7.970   9.823   7.274 -0.3394  0.3880 -0.2060
  113MOL0     H14908   8.088   9.800   7.473 -3.0693 -0.2984 -0.0583
  113MOL0     H14909   8.152   9.639   7.438 -0.4345  0.2002  0.0253
  113MOL0     H14910   8.182   9.858   7.239  1.0934 -0.0231 -1.3305
  113MOL0     H14911   8.272   9.709   7.257 -1.6641 -0.6034 -0.3925
  113MOL0     H14912   8.391   9.938   7.330 -0.7592  0.4966  1.3938
  113MOL0     H14913   8.280   9.963   7.448  0.7403 -0.0469  2.0693
  113MOL0     H14914   8.512   9.648   7.601 -0.0684  0.9292  0.3616
  113MOL0     H14915   7.720   9.707   7.222  1.3383  0.3104 -0.2391
  113MOL0     H14916   7.560   9.617   7.092 -0.0351  0.8924  3.4219
  114MOL0     O14917   8.831  10.132   8.703 -0.3365  0.3152  0.0899
  114MOL0     C14918   8.842  10.031   8.634  0.0618 -0.4861  0.9710
  114MOL0     O14919   8.754  10.000   8.524 -0.6469  0.2785  0.2974
  114MOL0     C14920   8.675  10.101   8.479  0.2918 -0.2488  0.6711
  114MOL0     C14921   8.545  10.063   8.443  0.6676  0.1760 -0.5281
  114MOL0     C14922   8.455  10.156   8.399  0.5139 -0.8198 -0.8376
  114MOL0     C14923   8.502  10.289   8.375  0.0615  0.0394  0.2768
  114MOL0     O14924   8.427  10.391   8.327  0.4621 -0.0925 -0.1363
  114MOL0     C14925   8.322  10.360   8.238 -0.9456 -0.1370 -0.5145
  114MOL0     C14926   8.275  10.488   8.169 -0.0027  0.2231 -0.6408
  114MOL0     C14927   8.173  10.456   8.058  0.0619 -0.0107  0.0205
  114MOL0     C14928   8.235  10.420   7.926  0.1569 -0.2008  0.2693
  114MOL0     C14929   8.135  10.401   7.825 -0.8692 -0.1530 -0.1991
  114MOL0     C14930   8.189  10.345   7.690 -0.5986 -0.1332  0.0156
  114MOL0     C14931   8.250  10.448   7.589 -0.0784  0.5811  1.3495
  114MOL0     C14932   8.314  10.375   7.469  0.5081 -0.3073 -0.3701
  114MOL0     N14933   8.203  10.343   7.376  0.0593 -0.3705  0.1619
  114MOL0     C14934   8.130  10.425   7.288  0.2383  0.1461  1.0608
  114MOL0     C14935   8.024  10.348   7.246 -0.8342 -0.4755 -0.0223
  114MOL0     C14936   7.904  10.403   7.176 -0.1948  0.2623  0.5977
  114MOL0     C14937   7.779  10.392   7.256  0.7574  0.3295  0.4831
  114MOL0     C14938   7.665  10.474   7.194 -0.2721 -0.0687 -0.2710
  114MOL0     C14939   7.539  10.467   7.274 -0.8741  0.6801 -0.2995
  114MOL0     O14940   7.438  10.557   7.219  0.5417 -0.0158 -0.9892
  114MOL0     C14941   7.304  10.541   7.260  0.1087 -0.1012 -0.2276
  114MOL0     C14942   7.202  10.569   7.170  0.3048 -0.0825 -0.0209
  114MOL0     C14943   7.069  10.550   7.202 -0.4793 -0.8829  0.5415
  114MOL0     C14944   7.028  10.499   7.326  0.0016 -0.5685  0.4221
  114MOL0     C14945   6.883  10.478   7.356 -0.6530 -0.0191  0.0011
  114MOL0     O14946   6.796  10.525   7.270 -1.0242 -0.0913  0.4740
  114MOL0     C14947   6.662  10.499   7.281  0.4239 -0.5700  0.0793
  114MOL0     C14948   6.591  10.546   7.392  0.1965 -0.3440 -0.4449
  114MOL0     C14949   6.451  10.515   7.409 -0.7781 -0.8216 -0.5882
  114MOL0     C14950   6.377  10.436   7.311 -0.2580  0.8134 -0.3443
  114MOL0     O14951   6.241  10.404   7.318  0.4862  0.5147 -0.6376
  114MOL0     C14952   6.159  10.504   7.388 -0.4705 -1.0053 -0.1961
  114MOL0     C14953   6.019  10.485   7.373 -0.3378 -0.1716  0.0655
  114MOL0     C14954   5.976  10.471   7.232  0.8739  0.9451  0.9658
  114MOL0     C14955   5.826  10.444   7.208 -0.7822  0.4528  0.1328
  114MOL0     C14956   5.776  10.459   7.069  0.5414 -0.1928 -0.0985
  114MOL0     C14957   5.628  10.451   7.071 -0.0609 -0.0705 -0.1455
  114MOL0     C14958   5.562  10.467   6.933 -0.4410  0.0546 -0.4809
  114MOL0     C14959   5.416  10.471   6.939 -0.2518 -0.7780  0.5876
  114MOL0    Cl14960   5.351  10.452   6.775 -0.1423 -0.0312  0.0679
  114MOL0     C14961   6.455  10.401   7.197 -0.8818  0.1314 -0.0165
  114MOL0     C14962   6.591  10.434   7.186  0.5523 -0.4038  0.6885
  114MOL0     O14963   6.857  10.409   7.452  0.5225  0.0217 -0.0222
  114MOL0     C14964   7.134  10.462   7.410  0.5610  1.0342  0.0146
  114MOL0     C14965   7.264  10.483   7.384  0.2066 -0.4665  0.6699
  114MOL0     N14966   8.048  10.218   7.277  0.2760  0.0792  0.1188
  114MOL0     N14967   8.150  10.213   7.358 -0.1271 -0.1824  0.0841
  114MOL0     C14968   8.626  10.329   8.419  0.4532 -0.5137  0.2564
  114MOL0     C14969   8.716  10.232   8.459 -0.0526 -0.3825  0.5954
  114MOL0     C14970   8.941   9.929   8.662 -0.2291 -1.0064 -0.6111
  114MOL0     C14971   8.934   9.806   8.603 -0.1155 -0.8852 -0.0434
  114MOL0     C14972   9.031   9.711   8.633  0.7469 -0.3783  0.0075
  114MOL0     C14973   9.137   9.736   8.724 -0.8543  0.9795 -0.1279
  114MOL0     O14974   9.234   9.637   8.741  0.3171  0.2992 -0.6380
  114MOL0     C14975   9.348   9.652   8.817 -0.3661 -1.2427  0.0574
  114MOL0     C14976   9.452   9.728   8.735 -0.3974 -0.4880  0.2752
  114MOL0     C14977   9.577   9.754   8.811 -0.1208  0.2704 -0.5732
  114MOL0     C14978   9.711   9.768   8.728 -0.3462 -0.6195 -0.3774
  114MOL0     C14979   9.821   9.776   8.817 -1.0013  0.1071 -0.1187
  114MOL0     C14980   9.931   9.766   8.872  0.3725 -0.2344 -0.9901
  114MOL0     C14981   9.142   9.860   8.783 -0.2338  0.4424 -0.0452
  114MOL0     C14982   9.047   9.950   8.743  0.1241  0.3163 -0.0796
  114MOL0     H14983   8.518   9.960   8.464  0.4065  0.0911 -1.2335
  114MOL0     H14984   8.351  10.128   8.397  0.5422 -1.1065  0.5964
  114MOL0     H14985   8.241  10.314   8.297  0.2780 -1.1844  0.4233
  114MOL0     H14986   8.356  10.291   8.160 -0.8084  0.3283 -0.8681
  114MOL0     H14987   8.356  10.554   8.135  0.5853 -1.5847 -3.0326
  114MOL0     H14988   8.222  10.550   8.242 -1.2572  1.9669 -2.9041
  114MOL0     H14989   8.108  10.543   8.047  2.4743  1.7828 -1.1566
  114MOL0     H14990   8.114  10.373   8.099 -0.2667 -0.7832 -1.8944
  114MOL0     H14991   8.298  10.496   7.878  0.6823 -0.1483  1.0293
  114MOL0     H14992   8.300  10.335   7.947 -1.9359 -1.5158  1.7171
  114MOL0     H14993   8.085  10.497   7.809  1.0710  1.9488  4.4115
  114MOL0     H14994   8.068  10.322   7.860  1.0916 -2.9155 -2.2963
  114MOL0     H14995   8.100  10.294   7.652 -2.0278  0.7537  2.0325
  114MOL0     H14996   8.260  10.266   7.716  1.4376  1.3274 -0.8962
  114MOL0     H14997   8.173  10.516   7.551 -0.4547 -0.0302  1.0157
  114MOL0     H14998   8.323  10.506   7.646  2.0535 -0.4310 -0.2233
  114MOL0     H14999   8.355  10.277   7.492 -0.0021  0.2542  3.5534
  114MOL0     H15000   8.386  10.442   7.421 -0.4300  0.6880 -0.4456
  114MOL0     H15001   8.142  10.531   7.269  1.2970 -0.1648 -0.0959
  114MOL0     H15002   7.894  10.356   7.078  0.2538  1.7867 -0.2106
  114MOL0     H15003   7.916  10.510   7.155 -0.2691 -0.3118 -2.8749
  114MOL0     H15004   7.799  10.423   7.359  1.2185  2.8127 -0.2855
  114MOL0     H15005   7.759  10.284   7.253  1.0537  0.2944 -1.4069
  114MOL0     H15006   7.703  10.575   7.182 -1.5529  0.3681 -0.7797
  114MOL0     H15007   7.643  10.447   7.091 -2.5360  1.6054 -0.3013
  114MOL0     H15008   7.552  10.486   7.381 -0.3907  0.6489 -0.3495
  114MOL0     H15009   7.507  10.364   7.258  0.3337 -0.0768  1.7768
  114MOL0     H15010   7.243  10.590   7.072 -0.0708 -0.2787 -0.2200
  114MOL0     H15011   6.992  10.577   7.131 -0.1240  0.3161  0.5897
  114MOL0     H15012   6.644  10.607   7.465 -3.4130  0.1377  2.0102
  114MOL0     H15013   6.409  10.546   7.505  1.3596 -0.1621  0.1906
  114MOL0     H15014   6.175  10.606   7.352 -1.1359 -0.3973  1.1650
  114MOL0     H15015   6.187  10.503   7.494  0.7778  2.4351 -0.3533
  114MOL0     H15016   5.967  10.572   7.414  2.4847  1.2081  0.9551
  114MOL0     H15017   5.984  10.402   7.436 -1.2904  1.1019  1.2772
  114MOL0     H15018   6.038  10.395   7.184  1.0011  2.5788 -1.6419
  114MOL0     H15019   6.005  10.561   7.177  0.3985  1.8251  2.1059
  114MOL0     H15020   5.798  10.343   7.240  1.8000 -0.3225  0.1511
  114MOL0     H15021   5.769  10.510   7.274  2.1040  1.8075  1.4210
  114MOL0     H15022   5.813  10.378   7.006  0.0347 -2.0715  1.8830
  114MOL0     H15023   5.808  10.555   7.026  1.3633 -0.6795 -0.5965
  114MOL0     H15024   5.575  10.519   7.139 -0.2272 -0.4703  0.1284
  114MOL0     H15025   5.606  10.348   7.100  3.0478 -0.9416 -0.5274
  114MOL0     H15026   5.603  10.560   6.892  1.0021 -0.8458 -1.1618
  114MOL0     H15027   5.595  10.377   6.881 -0.6812  0.2785 -1.0300
  114MOL0     H15028   5.379  10.567   6.975 -2.9257 -0.0877 -3.3948
  114MOL0     H15029   5.381  10.391   7.006 -1.1885 -0.2525  0.7360
  114MOL0     H15030   6.404  10.330   7.132  0.7930 -1.9929  0.8678
  114MOL0     H15031   6.641  10.401   7.095 -1.3560 -1.0959 -0.1712
  114MOL0     H15032   7.110  10.435   7.512 -0.5355  0.8534 -0.2842
  114MOL0     H15033   7.338  10.463   7.460 -0.6649 -0.2138  1.5961
  114MOL0     H15034   8.645  10.436   8.415 -0.4337 -0.3450  0.1797
  114MOL0     H15035   8.813  10.265   8.495  0.8316 -2.1716 -0.0324
  114MOL0     H15036   8.846   9.789   8.542 -0.1572  2.1581 -1.0021
  114MOL0     H15037   9.028   9.611   8.590 -1.7657 -1.7594  2.9819
  114MOL0     H15038   9.395   9.553   8.823  2.9843  0.2072 -0.3140
  114MOL0     H15039   9.336   9.695   8.917 -0.0347  0.6762 -0.6877
  114MOL0     H15040   9.494   9.669   8.653  0.7706  0.5268  0.1229
  114MOL0     H15041   9.404   9.820   8.702  0.6859 -0.9989 -3.2112
  114MOL0     H15042   9.595   9.677   8.887  1.7752  0.3416 -0.8792
  114MOL0     H15043   9.563   9.851   8.859  0.3613  0.9248 -1.6925
  114MOL0     H15044   9.738   9.689   8.658 -0.5494 -0.4512 -0.6463
  114MOL0     H15045   9.709   9.860   8.669  3.2122 -0.6796 -0.7855
  114MOL0     H15046  10.029   9.758   8.913  0.9545 -1.0725 -2.4653
  114MOL0     H15047   9.218   9.882   8.857  2.4942 -0.4055 -2.4183
  114MOL0     H15048   9.058  10.047   8.790 -1.1132  0.0447  0.8393
  115MOL0     O15049   7.361   6.691   7.514  0.0703  0.8058 -0.3003
  115MOL0     C15050   7.408   6.588   7.564  0.2273 -0.8319  0.6858
  115MOL0     O15051   7.377   6.541   7.685 -0.1950 -0.6612  0.0804
  115MOL0     C15052   7.276   6.582   7.763 -0.0865  0.0301 -0.5484
  115MOL0     C15053   7.170   6.672   7.734 -0.8659  0.1113  0.9750
  115MOL0     C15054   7.069   6.699   7.822 -0.3066  0.2262  0.6294
  115MOL0     C15055   7.056   6.640   7.947  0.3772 -0.0509 -0.4159
  115MOL0     O15056   6.959   6.661   8.043  0.0244  0.5002 -0.0564
  115MOL0     C15057   6.826   6.711   8.005 -0.7613 -0.1198  1.4144
  115MOL0     C15058   6.723   6.662   8.108  0.3091  1.1263  1.7789
  115MOL0     C15059   6.580   6.719   8.101 -0.1448  0.1631 -0.2714
  115MOL0     C15060   6.504   6.664   7.983 -0.0489 -0.6358  0.3529
  115MOL0     C15061   6.389   6.753   7.938  0.7189  0.0015  0.5330
  115MOL0     C15062   6.282   6.754   8.048 -0.1710  0.1051  0.3142
  115MOL0     C15063   6.155   6.833   8.002 -0.1760 -0.0990 -0.8672
  115MOL0     C15064   6.065   6.745   7.907 -0.7574 -0.4577 -0.1372
  115MOL0     N15065   5.922   6.763   7.915  0.0421 -0.5271  0.8164
  115MOL0     C15066   5.838   6.847   7.835 -0.1499 -0.0699  0.5021
  115MOL0     C15067   5.713   6.838   7.892 -0.2161  0.0415 -0.0641
  115MOL0     C15068   5.583   6.905   7.850  0.5386 -0.0050  0.1457
  115MOL0     C15069   5.504   6.967   7.968  1.0203 -0.1984  1.0652
  115MOL0     C15070   5.392   7.054   7.908 -0.4918 -0.6304  0.4228
  115MOL0     C15071   5.269   7.077   8.008 -0.9752 -0.3640 -0.2230
  115MOL0     O15072   5.194   7.194   7.956 -0.1920 -0.1283  0.3382
  115MOL0     C15073   5.065   7.212   8.003  0.1097 -0.7552  0.4195
  115MOL0     C15074   5.007   7.145   8.112 -0.3820  0.7180 -0.1551
  115MOL0     C15075   4.871   7.164   8.142  0.0502  0.6943 -0.4224
  115MOL0     C15076   4.788   7.250   8.075 -1.0528  0.1686  0.2805
  115MOL0     C15077   4.642   7.260   8.107 -0.0670 -0.5737  0.0364
  115MOL0     O15078   4.599   7.170   8.195 -0.0843  0.5460 -0.0880
  115MOL0     C15079   4.458   7.163   8.213  0.4313  0.7034  0.1851
  115MOL0     C15080   4.384   7.079   8.126  0.5414 -0.7914  0.5530
  115MOL0     C15081   4.250   7.076   8.124  0.7735 -0.4136  0.2260
  115MOL0     C15082   4.182   7.152   8.227  0.0640 -0.3111  0.3852
  115MOL0     O15083   4.044   7.168   8.250  0.0095  0.5987  0.8671
  115MOL0     C15084   3.950   7.103   8.153 -0.0187  0.7005 -0.2774
  115MOL0     C15085   3.807   7.136   8.180 -0.1357 -0.8161 -0.1717
  115MOL0     C15086   3.755   7.076   8.311 -0.4611 -0.2494 -0.4039
  115MOL0     C15087   3.611   7.125   8.335  0.0872  0.1986 -0.5016
  115MOL0     C15088   3.508   7.036   8.259 -0.3733 -1.1283 -0.1732
  115MOL0     C15089   3.367   7.046   8.320  0.4770 -0.0414  0.3868
  115MOL0     C15090   3.270   6.948   8.258 -0.5828  0.0587 -0.2142
  115MOL0     C15091   3.132   6.957   8.338 -0.6062 -0.0168  0.5670
  115MOL0    Cl15092   3.159   6.857   8.486 -0.0293  0.0957 -0.1435
  115MOL0     C15093   4.256   7.232   8.311  1.0111 -0.6141  0.3566
  115MOL0     C15094   4.393   7.242   8.304 -0.0657  0.5904  0.9542
  115MOL0     O15095   4.578   7.344   8.043 -0.0921  0.3153 -0.7980
  115MOL0     C15096   4.849   7.327   7.968  0.0380 -0.2686  0.5949
  115MOL0     C15097   4.984   7.301   7.935 -1.1011  0.0929 -0.2494
  115MOL0     N15098   5.726   6.745   7.994 -0.1195  0.2777 -0.2473
  115MOL0     N15099   5.844   6.705   8.013 -1.1680  0.7558  0.3044
  115MOL0     C15100   7.165   6.557   7.979  0.7915 -0.2251 -1.3117
  115MOL0     C15101   7.278   6.532   7.893  0.7250 -0.1171 -0.1411
  115MOL0     C15102   7.539   6.549   7.508  0.1018 -0.0669 -0.0669
  115MOL0     C15103   7.620   6.449   7.563  0.5015  0.0944  0.3505
  115MOL0     C15104   7.747   6.421   7.516 -0.2289 -0.5953  0.0724
  115MOL0     C15105   7.809   6.500   7.421 -0.1674 -0.2094 -1.0394
  115MOL0     O15106   7.943   6.480   7.397  0.1910 -0.4022  0.5248
  115MOL0     C15107   8.008   6.563   7.306 -0.3915  0.3692  0.4115
  115MOL0     C15108   8.160   6.540   7.346  0.4300  0.4072 -0.1167
  115MOL0     C15109   8.226   6.404   7.281  0.4322  0.5367 -0.3532
  115MOL0     C15110   8.158   6.272   7.325  0.7299  1.2141 -0.6329
  115MOL0     C15111   8.229   6.152   7.282 -0.3559  0.4916 -0.0495
  115MOL0     C15112   8.303   6.053   7.254 -0.3398 -1.2877  0.5607
  115MOL0     C15113   7.723   6.598   7.365  0.2033  0.6904  0.9653
  115MOL0     C15114   7.591   6.620   7.401  0.8146 -0.7359  0.2901
  115MOL0     H15115   7.167   6.728   7.641 -2.9964 -0.1391  0.8414
  115MOL0     H15116   6.989   6.766   7.792 -1.1259 -0.2180  1.7344
  115MOL0     H15117   6.790   6.692   7.903  0.7913  2.1322  0.3727
  115MOL0     H15118   6.828   6.819   8.019 -0.7345 -0.0831  1.1301
  115MOL0     H15119   6.757   6.674   8.211  1.0200  2.9493  1.3560
  115MOL0     H15120   6.712   6.553   8.098  1.2878  1.2359 -1.6875
  115MOL0     H15121   6.585   6.828   8.101  1.9069  0.1424  1.9683
  115MOL0     H15122   6.537   6.689   8.197  2.4360 -1.2772  0.5312
  115MOL0     H15123   6.568   6.673   7.895 -0.4588 -0.5507  0.0582
  115MOL0     H15124   6.464   6.563   7.993 -1.7892 -0.0096  0.1592
  115MOL0     H15125   6.345   6.718   7.845 -0.8025  2.1244  0.3811
  115MOL0     H15126   6.430   6.851   7.912  0.8061 -0.5986 -1.7988
  115MOL0     H15127   6.323   6.789   8.143 -0.3869 -1.3319  0.9537
  115MOL0     H15128   6.245   6.653   8.068  0.0239  0.4139  2.5116
  115MOL0     H15129   6.102   6.854   8.095  3.1254 -1.2303  1.4302
  115MOL0     H15130   6.181   6.927   7.952  1.0560  0.0513  0.0200
  115MOL0     H15131   6.092   6.642   7.935 -1.3781 -0.0834  2.0414
  115MOL0     H15132   6.097   6.758   7.803  0.4904  0.7568  0.3580
  115MOL0     H15133   5.872   6.898   7.746 -0.4805 -0.3722  0.2044
  115MOL0     H15134   5.518   6.832   7.801  0.7490  0.2741 -0.5558
  115MOL0     H15135   5.612   6.984   7.780  0.7539 -0.5324 -0.3654
  115MOL0     H15136   5.559   7.029   8.039  2.4428  1.0595 -1.0301
  115MOL0     H15137   5.448   6.888   8.018 -0.4014 -0.3849 -0.7163
  115MOL0     H15138   5.432   7.154   7.885 -1.4825  0.0151  1.4224
  115MOL0     H15139   5.359   6.997   7.821  0.4838 -2.7939  1.3877
  115MOL0     H15140   5.314   7.102   8.104  0.9062 -2.6307 -0.4293
  115MOL0     H15141   5.212   6.983   8.015 -2.4381 -0.0089 -4.3233
  115MOL0     H15142   5.052   7.056   8.154 -1.7157  0.9639  1.9449
  115MOL0     H15143   4.823   7.103   8.219 -0.9582  1.5604 -0.3437
  115MOL0     H15144   4.446   7.019   8.060  0.7643  2.0345 -1.9958
  115MOL0     H15145   4.189   7.012   8.062 -1.0574 -0.0029  1.5082
  115MOL0     H15146   3.963   6.994   8.149 -2.9183  0.2105  1.2186
  115MOL0     H15147   3.971   7.144   8.054 -0.4931  0.6339 -0.4061
  115MOL0     H15148   3.742   7.096   8.101  1.0430  2.2743 -2.9571
  115MOL0     H15149   3.801   7.246   8.180 -0.7417 -0.8160  1.3872
  115MOL0     H15150   3.826   7.111   8.387 -0.2232 -2.0692  0.2534
  115MOL0     H15151   3.760   6.967   8.320 -0.4253 -0.1414  1.1259
  115MOL0     H15152   3.594   7.130   8.443  5.3148  1.2454  0.5707
  115MOL0     H15153   3.607   7.227   8.295  2.5216  0.3852 -0.4050
  115MOL0     H15154   3.534   6.930   8.268 -1.1422 -1.2802  0.3877
  115MOL0     H15155   3.507   7.063   8.153  0.9540  0.4895  0.1962
  115MOL0     H15156   3.346   7.153   8.329  1.4660  0.1387  0.7840
  115MOL0     H15157   3.379   7.012   8.424 -2.2375 -3.2032 -0.1797
  115MOL0     H15158   3.256   6.973   8.153  1.9679  1.7688 -0.2335
  115MOL0     H15159   3.302   6.844   8.270  2.4285  0.7710 -1.2211
  115MOL0     H15160   3.051   6.921   8.274  0.4048  0.9843 -1.3559
  115MOL0     H15161   3.127   7.063   8.367  3.8929  1.0164 -1.4492
  115MOL0     H15162   4.202   7.293   8.383  1.1184 -0.9196  0.7012
  115MOL0     H15163   4.444   7.307   8.374  0.4147 -0.0055  1.1654
  115MOL0     H15164   4.789   7.397   7.911  0.3990 -1.3687 -1.2084
  115MOL0     H15165   5.031   7.359   7.856 -1.9616  0.4666 -0.4939
  115MOL0     H15166   7.180   6.520   8.080  0.8519  0.5675 -1.0231
  115MOL0     H15167   7.351   6.461   7.932  2.2129 -0.1720 -2.7994
  115MOL0     H15168   7.586   6.392   7.649  1.7895 -2.0404 -0.4844
  115MOL0     H15169   7.806   6.347   7.570 -0.4579 -1.6206 -1.0479
  115MOL0     H15170   7.969   6.665   7.315 -0.2175  0.3754  1.1842
  115MOL0     H15171   7.992   6.530   7.203  0.9042  2.8655 -0.6974
  115MOL0     H15172   8.217   6.624   7.304 -0.1861  0.6587 -0.4690
  115MOL0     H15173   8.164   6.532   7.455 -0.9707 -1.6399 -0.1728
  115MOL0     H15174   8.332   6.409   7.310  0.3346 -2.2361  0.7852
  115MOL0     H15175   8.228   6.406   7.171  1.0592  1.3489 -0.3403
  115MOL0     H15176   8.155   6.267   7.434  0.6435 -0.9905 -0.7016
  115MOL0     H15177   8.053   6.273   7.295  0.7955  0.3459 -0.9148
  115MOL0     H15178   8.369   5.970   7.244 -0.2942 -1.1065 -0.6951
  115MOL0     H15179   7.760   6.658   7.282  0.8585 -0.8887  0.0732
  115MOL0     H15180   7.540   6.703   7.354 -1.2110 -2.6716 -1.1754
  116MOL0     O15181   1.198   4.310   9.878  0.3280 -0.2039  0.5991
  116MOL0     C15182   1.220   4.378   9.778 -0.4441 -0.2051 -0.2365
  116MOL0     O15183   1.135   4.460   9.711  0.5125  0.3097  0.5299
  116MOL0     C15184   1.007   4.427   9.717  0.3168 -0.4527  0.5911
  116MOL0     C15185   0.917   4.486   9.808 -0.1505  0.1924  1.1502
  116MOL0     C15186   0.779   4.466   9.800  0.1784 -0.5638  0.8425
  116MOL0     C15187   0.723   4.375   9.712 -0.5786 -0.2568 -0.5052
  116MOL0     O15188   0.589   4.343   9.708 -0.5034  0.3880 -0.8378
  116MOL0     C15189   0.493   4.364   9.812 -0.0410  0.3174  0.3878
  116MOL0     C15190   0.361   4.323   9.759  0.2453 -0.0869  1.0073
  116MOL0     C15191   0.253   4.389   9.843  0.6229 -0.1099 -0.0523
  116MOL0     C15192   0.128   4.325   9.809 -0.4718  0.1698 -0.4033
  116MOL0     C15193   0.022   4.420   9.853  0.5366  0.1332  0.2315
  116MOL0     C15194  -0.120   4.364   9.849 -0.1048 -0.4979 -0.0105
  116MOL0     C15195  -0.216   4.451   9.928  0.0223 -0.2653  0.1484
  116MOL0     C15196  -0.236   4.590   9.859 -0.2852  0.6842 -0.0335
  116MOL0     N15197  -0.362   4.653   9.897 -0.6839  0.0310 -0.3548
  116MOL0     C15198  -0.367   4.765   9.981  0.4644  0.3652  0.8289
  116MOL0     C15199  -0.498   4.781  10.019  0.5977 -0.3917  0.2888
  116MOL0     C15200  -0.563   4.887  10.100  0.0588  0.2842  0.0365
  116MOL0     C15201  -0.586   5.010  10.024 -0.3587 -0.2152  0.1940
  116MOL0     C15202  -0.706   4.982   9.934 -0.4806  0.1454 -0.2765
  116MOL0     C15203  -0.838   5.040   9.982  0.8194  0.3369 -1.1248
  116MOL0     O15204  -0.909   5.032   9.862  1.2401  0.2805  0.1690
  116MOL0     C15205  -1.039   5.079   9.859 -0.5908 -0.5874  0.8139
  116MOL0     C15206  -1.104   5.132   9.977  0.2183 -0.5762  0.6069
  116MOL0     C15207  -1.236   5.164   9.955  0.2422  0.0366 -0.0259
  116MOL0     C15208  -1.306   5.149   9.840 -0.6701  1.1000  0.7928
  116MOL0     C15209  -1.452   5.164   9.835  0.3230 -0.1531  0.6376
  116MOL0     O15210  -1.528   5.153   9.948  0.4469 -0.0731 -0.1035
  116MOL0     C15211  -1.662   5.185   9.933 -0.6536  0.5740 -0.0982
  116MOL0     C15212  -1.755   5.086   9.887 -0.0847  0.3085 -0.5518
  116MOL0     C15213  -1.889   5.114   9.869 -0.0099 -1.0969 -0.1936
  116MOL0     C15214  -1.935   5.245   9.892  0.0266  0.7380  0.2937
  116MOL0     O15215  -2.060   5.308   9.883 -0.5910  0.3040  0.5600
  116MOL0     C15216  -2.165   5.219   9.878 -0.0477 -0.1274 -0.1191
  116MOL0     C15217  -2.296   5.276   9.921 -0.6162 -0.6181  0.8394
  116MOL0     C15218  -2.316   5.406   9.829 -0.7103  0.7202 -0.6775
  116MOL0     C15219  -2.458   5.463   9.851  0.9312 -0.6202 -0.3220
  116MOL0     C15220  -2.464   5.581   9.767  0.1783 -0.9751  0.2570
  116MOL0     C15221  -2.585   5.670   9.779 -0.1262  0.1012  1.2782
  116MOL0     C15222  -2.564   5.787   9.679 -0.0025 -0.2509 -0.1483
  116MOL0     C15223  -2.672   5.888   9.670 -0.3839  0.5776  0.1829
  116MOL0    Cl15224  -2.830   5.808   9.649  0.1347  0.0739  0.0573
  116MOL0     C15225  -1.844   5.339   9.932 -0.6501  0.3648  0.2876
  116MOL0     C15226  -1.710   5.317   9.952  0.1021  0.2787 -0.6299
  116MOL0     O15227  -1.495   5.179   9.720 -0.8452  0.4432  0.6902
  116MOL0     C15228  -1.232   5.097   9.728  1.0572  0.3292 -0.1074
  116MOL0     C15229  -1.105   5.058   9.739 -0.2824  0.3066  0.5964
  116MOL0     N15230  -0.566   4.675   9.961  0.5561 -0.8208  0.4160
  116MOL0     N15231  -0.490   4.604   9.886 -0.9491 -0.1241 -0.3126
  116MOL0     C15232   0.808   4.316   9.622 -0.0572 -0.1801  0.2472
  116MOL0     C15233   0.945   4.339   9.627 -0.1869  0.4527  0.0763
  116MOL0     C15234   1.363   4.390   9.738 -0.0962  0.0654 -0.1674
  116MOL0     C15235   1.387   4.425   9.608  0.2657 -0.1522  0.0315
  116MOL0     C15236   1.525   4.436   9.569 -0.3812 -0.2239  0.6074
  116MOL0     C15237   1.630   4.415   9.662  0.0656  0.0674  0.8492
  116MOL0     O15238   1.755   4.417   9.612 -0.3175 -0.7782  0.2864
  116MOL0     C15239   1.848   4.495   9.691 -0.4164  0.5099 -0.3328
  116MOL0     C15240   1.962   4.527   9.598 -0.4597 -0.1029  0.5718
  116MOL0     C15241   2.061   4.633   9.647 -0.0004 -0.2490 -0.2097
  116MOL0     C15242   2.003   4.774   9.636  0.5059 -0.5574 -0.0949
  116MOL0     C15243   2.101   4.876   9.641  0.2820 -0.2710 -0.0025
  116MOL0     C15244   2.190   4.963   9.635 -0.5922  0.0914  0.1597
  116MOL0     C15245   1.598   4.382   9.792  0.2144  1.0542  0.3857
  116MOL0     C15246   1.466   4.362   9.831 -0.3628  0.2193  0.4233
  116MOL0     H15247   0.959   4.561   9.875  2.3241 -0.0922  0.0269
  116MOL0     H15248   0.721   4.516   9.877 -1.4425 -2.1273  0.7032
  116MOL0     H15249   0.492   4.470   9.840 -0.9184  0.7158 -1.0758
  116MOL0     H15250   0.504   4.302   9.902 -2.2901 -0.6612  0.0533
  116MOL0     H15251   0.351   4.214   9.755  0.4369 -0.0859 -1.7902
  116MOL0     H15252   0.346   4.358   9.657  2.1766 -1.1907  0.2909
  116MOL0     H15253   0.237   4.495   9.820  1.8496 -0.2736 -1.9215
  116MOL0     H15254   0.267   4.377   9.950  0.1455  1.3772  0.2010
  116MOL0     H15255   0.126   4.313   9.700 -0.5984  1.7972 -0.5918
  116MOL0     H15256   0.103   4.235   9.866 -2.8193  0.6829 -0.5244
  116MOL0     H15257   0.022   4.512   9.794  0.1640  0.7362  1.1377
  116MOL0     H15258   0.045   4.453   9.955 -0.8689 -0.5652  0.8109
  116MOL0     H15259  -0.125   4.263   9.891 -0.3158 -1.3222 -1.9170
  116MOL0     H15260  -0.145   4.364   9.742  0.3689  4.6097 -0.3694
  116MOL0     H15261  -0.317   4.409   9.930 -0.9725  1.8997 -0.6668
  116MOL0     H15262  -0.175   4.463  10.028  2.4502  1.2950 -0.9335
  116MOL0     H15263  -0.232   4.590   9.750  1.4676 -1.0765 -0.0211
  116MOL0     H15264  -0.159   4.651   9.907  1.4099 -3.1113  2.5881
  116MOL0     H15265  -0.277   4.817  10.013  1.6769 -2.6353  2.7072
  116MOL0     H15266  -0.515   4.911  10.195  0.0245  2.1054 -0.3749
  116MOL0     H15267  -0.657   4.842  10.134 -0.7383  2.7689  1.3725
  116MOL0     H15268  -0.498   5.041   9.967  1.7954 -3.3130  1.5506
  116MOL0     H15269  -0.601   5.093  10.095  3.2239  0.3774  0.4662
  116MOL0     H15270  -0.678   5.034   9.841 -1.3890 -1.3072 -1.4033
  116MOL0     H15271  -0.714   4.875   9.913 -0.3724 -0.0753  0.7565
  116MOL0     H15272  -0.831   5.145  10.011 -3.5956  0.3155  0.7278
  116MOL0     H15273  -0.881   4.974  10.057  1.3128  0.1431 -1.0077
  116MOL0     H15274  -1.040   5.164  10.059  3.3389  1.1541 -2.2316
  116MOL0     H15275  -1.285   5.220  10.034 -0.7600  0.5804 -0.9995
  116MOL0     H15276  -1.706   4.993   9.858  1.3603  1.2563 -1.3277
  116MOL0     H15277  -1.960   5.042   9.830 -0.6328 -0.9019  0.5473
  116MOL0     H15278  -2.146   5.134   9.945 -2.3679 -0.2377  0.4892
  116MOL0     H15279  -2.181   5.188   9.774 -1.5113 -0.8945  0.3126
  116MOL0     H15280  -2.295   5.295  10.029  1.9862 -1.9740  1.1359
  116MOL0     H15281  -2.373   5.202   9.898 -0.3151 -0.1792 -1.9197
  116MOL0     H15282  -2.306   5.378   9.724 -1.5571  2.2218 -1.1877
  116MOL0     H15283  -2.249   5.480   9.874 -1.5556  0.0057  1.9211
  116MOL0     H15284  -2.529   5.384   9.826  1.5642 -1.5652  0.7224
  116MOL0     H15285  -2.476   5.482   9.958  0.4739 -2.0678 -0.1231
  116MOL0     H15286  -2.446   5.544   9.666  0.4556 -0.5499  0.1472
  116MOL0     H15287  -2.375   5.640   9.792  0.5588 -0.9443 -1.0856
  116MOL0     H15288  -2.596   5.697   9.884 -0.0797 -2.2720  1.9648
  116MOL0     H15289  -2.675   5.619   9.743  1.2598 -0.8313 -1.0693
  116MOL0     H15290  -2.484   5.856   9.709  0.1582 -0.7036  0.4797
  116MOL0     H15291  -2.540   5.747   9.580  0.5099  0.1514 -0.1923
  116MOL0     H15292  -2.659   5.955   9.585 -4.4109  0.8767 -0.4301
  116MOL0     H15293  -2.669   5.945   9.763  2.4123  0.4910  0.2079
  116MOL0     H15294  -1.877   5.436   9.968  0.8757  1.0222 -0.0179
  116MOL0     H15295  -1.649   5.394   9.997 -0.2575  0.5775 -0.6554
  116MOL0     H15296  -1.288   5.073   9.638 -0.5322  1.1586  0.6225
  116MOL0     H15297  -1.049   5.005   9.663  0.6492 -1.3713  2.3739
  116MOL0     H15298   0.763   4.244   9.554  0.1401 -1.0428  1.0020
  116MOL0     H15299   1.005   4.289   9.551  1.9100 -2.1122  3.1892
  116MOL0     H15300   1.311   4.445   9.533  1.9760  1.5331 -1.3680
  116MOL0     H15301   1.552   4.462   9.467 -0.2801 -0.0787  0.6722
  116MOL0     H15302   1.893   4.441   9.774 -0.6897  1.9870  0.8156
  116MOL0     H15303   1.809   4.591   9.726  0.7110  2.1570 -3.1803
  116MOL0     H15304   2.022   4.436   9.598  1.1087  0.9073  0.5113
  116MOL0     H15305   1.928   4.560   9.500 -2.0823 -2.7950  0.1371
  116MOL0     H15306   2.151   4.615   9.588 -0.1743 -0.4380 -0.4227
  116MOL0     H15307   2.090   4.625   9.752  1.2789  2.4184 -0.2650
  116MOL0     H15308   1.956   4.780   9.537 -0.5998 -0.4363  0.4236
  116MOL0     H15309   1.922   4.783   9.708  1.8599  0.6392  1.3359
  116MOL0     H15310   2.271   5.031   9.618 -1.9495  1.3467 -1.7648
  116MOL0     H15311   1.687   4.350   9.844 -1.1850  0.3305  2.4659
  116MOL0     H15312   1.454   4.321   9.931 -0.2647 -0.4284  0.1733
  117MOL0     O15313   8.934  10.833   4.722 -0.5521  0.1312 -0.8192
  117MOL0     C15314   9.033  10.826   4.799  0.4457  1.2255 -0.7722
  117MOL0     O15315   9.038  10.846   4.932 -0.0573  0.1401 -0.2901
  117MOL0     C15316   8.924  10.805   4.998  0.4341 -0.1614  0.4458
  117MOL0     C15317   8.888  10.874   5.119 -0.8855  0.9207 -0.6991
  117MOL0     C15318   8.780  10.842   5.196 -0.1001  0.0343  0.3766
  117MOL0     C15319   8.687  10.745   5.158 -0.4565 -0.5216 -0.4518
  117MOL0     O15320   8.574  10.730   5.236  0.1599  0.4085  0.1710
  117MOL0     C15321   8.484  10.620   5.207 -0.3449 -0.2915  0.6314
  117MOL0     C15322   8.341  10.650   5.243 -0.6152  0.4729 -0.2123
  117MOL0     C15323   8.315  10.673   5.397 -0.8893  0.0864  0.6632
  117MOL0     C15324   8.172  10.723   5.408  1.5859  0.2511 -0.8123
  117MOL0     C15325   8.131  10.712   5.559  1.2724  0.0836  0.4197
  117MOL0     C15326   7.982  10.759   5.584 -0.9411  0.4909 -0.2561
  117MOL0     C15327   7.945  10.767   5.737 -0.3509 -0.6037  0.5287
  117MOL0     C15328   8.003  10.895   5.794  0.6014  0.2808  0.1529
  117MOL0     N15329   7.993  10.901   5.938  0.0282  0.1968 -0.5733
  117MOL0     C15330   7.895  10.839   6.005  0.3252 -0.7407 -0.1484
  117MOL0     C15331   7.939  10.821   6.130  0.0868 -0.6468 -0.2027
  117MOL0     C15332   7.881  10.727   6.227 -0.1032 -0.4188  0.0958
  117MOL0     C15333   7.972  10.620   6.271 -0.7890  0.5265 -0.0299
  117MOL0     C15334   7.913  10.541   6.395  0.6074 -0.4364  0.0953
  117MOL0     C15335   7.977  10.598   6.524 -0.1845 -0.0147  0.8023
  117MOL0     O15336   7.953  10.527   6.643 -0.5660 -0.1828  0.7884
  117MOL0     C15337   7.824  10.531   6.692 -0.1123  0.2060  0.0401
  117MOL0     C15338   7.718  10.622   6.660  0.1151  0.3246 -0.2502
  117MOL0     C15339   7.587  10.602   6.715  0.0634  0.2347 -0.4692
  117MOL0     C15340   7.558  10.488   6.794 -0.5185 -0.3720 -0.0485
  117MOL0     C15341   7.425  10.470   6.856  0.2173 -0.3104  1.0213
  117MOL0     O15342   7.405  10.349   6.906 -0.1641  0.3654 -0.0205
  117MOL0     C15343   7.285  10.323   6.955  0.8215  0.4405  0.2631
  117MOL0     C15344   7.287  10.254   7.078 -0.4099 -0.0160 -0.8095
  117MOL0     C15345   7.164  10.214   7.127 -0.0741 -0.0123 -0.2307
  117MOL0     C15346   7.042  10.247   7.072 -0.7460  0.3306 -1.0167
  117MOL0     O15347   6.919  10.210   7.121  0.4904 -0.0906  0.0107
  117MOL0     C15348   6.915  10.122   7.224  0.1837  0.0572  0.1955
  117MOL0     C15349   6.769  10.092   7.259 -0.1326 -0.5578  1.0856
  117MOL0     C15350   6.751  10.055   7.407  0.3767 -0.4327  0.3930
  117MOL0     C15351   6.615   9.990   7.450  0.0685 -0.7619 -0.5428
  117MOL0     C15352   6.496  10.067   7.404  0.9245 -0.1034  0.2808
  117MOL0     C15353   6.363  10.008   7.452 -0.3849 -0.4568  0.1390
  117MOL0     C15354   6.244  10.107   7.416 -0.3718  0.5949  0.4633
  117MOL0     C15355   6.103  10.048   7.435 -0.4786 -0.1489 -0.1661
  117MOL0    Cl15356   6.078  10.008   7.609 -0.0649  0.1576  0.5563
  117MOL0     C15357   7.048  10.333   6.965 -0.0233  0.2455  0.3466
  117MOL0     C15358   7.160  10.364   6.894  0.3315  0.1323 -0.5884
  117MOL0     O15359   7.347  10.566   6.849 -0.2039  0.0146 -0.1000
  117MOL0     C15360   7.662  10.402   6.822 -0.5729 -0.4907 -0.8677
  117MOL0     C15361   7.791  10.424   6.777  0.2905 -0.1418  0.2300
  117MOL0     N15362   8.056  10.888   6.145  0.8326 -0.1577  0.0260
  117MOL0     N15363   8.085  10.944   6.027 -0.7300  0.5501 -0.3003
  117MOL0     C15364   8.722  10.666   5.041  0.1973  0.0767 -0.1965
  117MOL0     C15365   8.834  10.696   4.958 -0.2372  0.3626 -1.0286
  117MOL0     C15366   9.163  10.835   4.726 -0.2829 -0.0697  0.1238
  117MOL0     C15367   9.282  10.871   4.792 -0.7720 -0.2553 -0.8155
  117MOL0     C15368   9.403  10.876   4.736 -0.4201  0.7724  0.3955
  117MOL0     C15369   9.412  10.856   4.594 -1.5274  0.0814  0.5282
  117MOL0     O15370   9.517  10.881   4.512 -0.0804  0.4435 -0.4866
  117MOL0     C15371   9.616  10.969   4.563 -1.1144 -0.9136  0.0677
  117MOL0     C15372   9.740  10.904   4.608 -0.2217  0.1256 -0.1702
  117MOL0     C15373   9.848  10.990   4.668 -0.5689 -0.1567  0.0707
  117MOL0     C15374   9.916  11.093   4.585  1.1558 -0.4069 -0.0124
  117MOL0     C15375   9.836  11.213   4.554 -0.0579 -1.1379  0.0578
  117MOL0     C15376   9.774  11.317   4.527  0.0343 -0.1900 -0.3352
  117MOL0     C15377   9.298  10.821   4.526 -1.2743 -0.1822 -1.3043
  117MOL0     C15378   9.174  10.809   4.588  0.2043 -0.1438  0.2488
  117MOL0     H15379   8.946  10.959   5.154 -0.3963 -0.9947  3.7021
  117MOL0     H15380   8.754  10.901   5.284 -1.2704  0.4790 -0.2550
  117MOL0     H15381   8.508  10.523   5.250  1.9725  0.1887  0.5168
  117MOL0     H15382   8.486  10.610   5.098 -3.6454  0.6499  0.3778
  117MOL0     H15383   8.270  10.579   5.199  1.5624 -0.8763 -1.7631
  117MOL0     H15384   8.324  10.749   5.200  0.5026  1.2514  1.0547
  117MOL0     H15385   8.385  10.747   5.435  0.2417  1.0140 -2.8257
  117MOL0     H15386   8.332  10.579   5.450  0.7927  0.2312  0.4256
  117MOL0     H15387   8.156  10.826   5.375 -0.0864  0.4204  0.3928
  117MOL0     H15388   8.099  10.662   5.355  0.0999  0.1835  1.2115
  117MOL0     H15389   8.197  10.783   5.611 -3.1102  4.1885  1.0098
  117MOL0     H15390   8.148  10.609   5.594 -0.2374 -1.1851 -2.2551
  117MOL0     H15391   7.908  10.690   5.541  1.8135 -1.1896 -2.6477
  117MOL0     H15392   7.969  10.857   5.536 -2.7415 -0.1819 -1.2510
  117MOL0     H15393   7.838  10.756   5.751 -0.8692  0.8933 -1.6597
  117MOL0     H15394   7.987  10.679   5.786  0.4265 -0.1487  0.7089
  117MOL0     H15395   7.942  10.982   5.766 -1.9528 -0.6252  2.4862
  117MOL0     H15396   8.107  10.906   5.761  0.5222  0.2105 -0.1285
  117MOL0     H15397   7.809  10.788   5.963  0.6597  1.1492 -3.4233
  117MOL0     H15398   7.790  10.685   6.184  0.5573 -0.1000 -1.6891
  117MOL0     H15399   7.858  10.789   6.314 -1.2708 -1.6642  0.7254
  117MOL0     H15400   8.069  10.664   6.294 -1.5398  1.5780  1.2440
  117MOL0     H15401   7.971  10.546   6.190 -2.2383  0.8352 -0.3386
  117MOL0     H15402   7.804  10.554   6.393  0.7475  0.7611 -0.4882
  117MOL0     H15403   7.934  10.434   6.391  1.9443 -0.3213  2.4776
  117MOL0     H15404   7.974  10.706   6.536  0.7218  0.2561 -1.0916
  117MOL0     H15405   8.085  10.586   6.515 -0.1644  0.9403 -0.4913
  117MOL0     H15406   7.733  10.707   6.596  2.8903  0.6673  0.7052
  117MOL0     H15407   7.513  10.679   6.695  0.5982  0.6420 -0.9211
  117MOL0     H15408   7.380  10.220   7.122  0.6188  2.9591 -0.3887
  117MOL0     H15409   7.171  10.138   7.205 -3.4596  0.8578  1.0733
  117MOL0     H15410   6.956  10.161   7.317 -3.3952 -1.6481  2.7476
  117MOL0     H15411   6.975  10.032   7.208 -2.2198 -1.2410 -2.7506
  117MOL0     H15412   6.750  10.008   7.192  2.6113 -0.5611  0.1791
  117MOL0     H15413   6.698  10.172   7.235 -0.2919 -1.3893 -1.5515
  117MOL0     H15414   6.756  10.148   7.465 -0.1660  0.7052 -1.3205
  117MOL0     H15415   6.837   9.994   7.438  1.2085  1.4546  1.9740
  117MOL0     H15416   6.615   9.887   7.415 -1.9910 -0.9438 -0.1376
  117MOL0     H15417   6.610   9.983   7.559 -0.8111 -1.3077 -0.6065
  117MOL0     H15418   6.488  10.068   7.295 -1.4079  0.7742  0.3839
  117MOL0     H15419   6.502  10.171   7.436  3.3768 -0.8976  2.8072
  117MOL0     H15420   6.365   9.984   7.559 -0.7911 -1.4503 -0.0696
  117MOL0     H15421   6.348   9.910   7.408 -0.9024  0.2647 -1.3485
  117MOL0     H15422   6.260  10.199   7.474  0.0741  1.8747 -1.5950
  117MOL0     H15423   6.264  10.132   7.312  2.2721  1.4162  1.0682
  117MOL0     H15424   6.102   9.947   7.394  1.5890 -0.3473  0.1818
  117MOL0     H15425   6.021  10.109   7.395  0.5823  1.0264 -0.5889
  117MOL0     H15426   6.951  10.367   6.930  0.7832  2.1012 -0.2005
  117MOL0     H15427   7.150  10.424   6.804 -1.1585  1.0588  0.1649
  117MOL0     H15428   7.644  10.320   6.891 -2.4636 -1.1094 -2.0279
  117MOL0     H15429   7.869  10.351   6.794  0.6230 -0.1416 -1.1626
  117MOL0     H15430   8.659  10.585   5.006 -0.1604  0.6816 -0.9811
  117MOL0     H15431   8.836  10.631   4.872 -3.1141 -2.1774  0.6616
  117MOL0     H15432   9.285  10.881   4.900  0.2686 -2.2513 -0.6295
  117MOL0     H15433   9.494  10.905   4.787 -0.6470  0.6245  0.8973
  117MOL0     H15434   9.592  11.030   4.651  2.4602 -1.1393  1.3826
  117MOL0     H15435   9.642  11.040   4.484 -0.3342 -1.2532  0.0100
  117MOL0     H15436   9.714  10.834   4.688  0.9957 -1.2471 -0.9176
  117MOL0     H15437   9.786  10.859   4.519 -3.1258  2.8819 -3.3763
  117MOL0     H15438   9.919  10.914   4.701  0.1955 -0.3757 -1.9516
  117MOL0     H15439   9.810  11.052   4.750  2.3651  0.5284  1.0155
  117MOL0     H15440  10.005  11.125   4.641  1.9435 -0.8108 -1.0039
  117MOL0     H15441   9.944  11.050   4.488  0.4087 -1.1545  0.0913
  117MOL0     H15442   9.711  11.403   4.520 -0.0826 -0.1634  0.7843
  117MOL0     H15443   9.299  10.825   4.417 -2.6644  0.5519 -1.3199
  117MOL0     H15444   9.083  10.774   4.540  1.1165 -1.2286 -0.7344
  118MOL0     O15445   1.419   4.712   7.096 -0.0968  0.0272 -0.4901
  118MOL0     C15446   1.464   4.733   7.210 -0.2389  0.2916 -0.2110
  118MOL0     O15447   1.393   4.729   7.330 -0.1237  0.7631  0.1062
  118MOL0     C15448   1.257   4.703   7.316  0.3679  0.3235 -1.1839
  118MOL0     C15449   1.218   4.563   7.338  0.3663  0.1628  0.5384
  118MOL0     C15450   1.082   4.535   7.309  0.6514  0.0105  0.3207
  118MOL0     C15451   0.985   4.630   7.267 -1.3048  0.1602 -0.5349
  118MOL0     O15452   0.875   4.574   7.217  0.1663  0.1627  0.2329
  118MOL0     C15453   0.756   4.647   7.218  0.2022 -0.8107 -0.0751
  118MOL0     C15454   0.644   4.563   7.161 -0.4519  0.2934  0.0270
  118MOL0     C15455   0.508   4.615   7.184  0.1322  0.1914  0.1200
  118MOL0     C15456   0.404   4.512   7.129 -0.7234 -0.2668 -0.0045
  118MOL0     C15457   0.264   4.570   7.147  0.3145  0.4783 -0.1577
  118MOL0     C15458   0.158   4.461   7.121  1.2167  0.4260  0.1579
  118MOL0     C15459   0.009   4.503   7.139 -0.4763 -0.3138  0.3245
  118MOL0     C15460  -0.083   4.399   7.103 -0.4950  0.3441  0.0618
  118MOL0     N15461  -0.225   4.426   7.121 -0.2477 -0.3529 -0.8280
  118MOL0     C15462  -0.292   4.544   7.095 -1.1089  0.6959 -0.5533
  118MOL0     C15463  -0.421   4.518   7.129 -0.1732  0.0336  0.0003
  118MOL0     C15464  -0.535   4.621   7.130 -1.2483  0.0215 -1.0549
  118MOL0     C15465  -0.660   4.548   7.095 -0.1865  1.1540  0.4459
  118MOL0     C15466  -0.784   4.638   7.089 -0.0189  0.2446  0.0277
  118MOL0     C15467  -0.905   4.552   7.092  0.0766  0.3561 -0.4222
  118MOL0     O15468  -0.929   4.513   6.959 -0.0328 -0.4847 -0.1429
  118MOL0     C15469  -1.038   4.437   6.938  0.2938  0.4510  0.5271
  118MOL0     C15470  -1.059   4.393   6.809 -0.5806  0.1393  0.4397
  118MOL0     C15471  -1.159   4.303   6.786  0.3430  0.1929  0.5144
  118MOL0     C15472  -1.246   4.257   6.883  0.7912  0.2482 -0.1280
  118MOL0     C15473  -1.360   4.170   6.851 -0.3796 -0.0874 -1.0567
  118MOL0     O15474  -1.365   4.101   6.730  0.2251 -0.5467 -0.0346
  118MOL0     C15475  -1.489   4.050   6.697  0.1178 -0.1838 -1.1981
  118MOL0     C15476  -1.525   3.922   6.753 -0.4503 -0.7746  0.4438
  118MOL0     C15477  -1.652   3.870   6.725 -0.5595  0.0313 -0.0326
  118MOL0     C15478  -1.745   3.946   6.646 -0.5194  0.2137  0.6827
  118MOL0     O15479  -1.874   3.909   6.621 -0.2979  0.0924  0.1577
  118MOL0     C15480  -1.883   3.763   6.636  0.6248 -0.8281  0.4329
  118MOL0     C15481  -2.014   3.706   6.582 -0.3458  0.3530  0.0435
  118MOL0     C15482  -2.140   3.783   6.626  0.2127  0.6646 -0.1575
  118MOL0     C15483  -2.273   3.713   6.600 -0.0898  0.6720 -0.3601
  118MOL0     C15484  -2.313   3.737   6.455  0.0437  0.2664  0.3312
  118MOL0     C15485  -2.424   3.640   6.414  0.0501 -0.3916  0.0404
  118MOL0     C15486  -2.450   3.651   6.253 -0.8278  0.1996  0.4538
  118MOL0     C15487  -2.531   3.529   6.204 -0.3697 -0.4116  0.2064
  118MOL0    Cl15488  -2.696   3.539   6.282  0.0510 -0.0412  0.4217
  118MOL0     C15489  -1.704   4.071   6.590 -0.2937  0.1556 -0.7239
  118MOL0     C15490  -1.577   4.128   6.616  0.1586 -0.5425 -0.3924
  118MOL0     O15491  -1.451   4.166   6.934  0.5071 -0.6673 -0.0963
  118MOL0     C15492  -1.234   4.304   7.014  0.3618  0.4389 -0.9457
  118MOL0     C15493  -1.133   4.402   7.042 -0.0797 -0.1106 -0.0664
  118MOL0     N15494  -0.426   4.397   7.190 -0.0861 -0.0133  0.1639
  118MOL0     N15495  -0.314   4.341   7.180  0.0545 -0.2174 -0.1506
  118MOL0     C15496   1.029   4.762   7.250  0.1976  0.0392 -0.0372
  118MOL0     C15497   1.167   4.788   7.264 -0.0588  0.8191  0.0407
  118MOL0     C15498   1.613   4.732   7.221  0.2485 -0.0366  0.9426
  118MOL0     C15499   1.683   4.735   7.351  0.0828 -0.7478 -0.4388
  118MOL0     C15500   1.822   4.736   7.363  0.0792 -0.9363  0.4862
  118MOL0     C15501   1.902   4.733   7.248 -0.2641 -0.1904 -0.1340
  118MOL0     O15502   2.038   4.744   7.232  0.6337  0.3454  0.0468
  118MOL0     C15503   2.114   4.739   7.346 -0.9094 -0.4625  0.3987
  118MOL0     C15504   2.260   4.758   7.307  0.3036 -0.2311 -0.4409
  118MOL0     C15505   2.361   4.722   7.417  0.7751  0.1589 -0.7318
  118MOL0     C15506   2.326   4.745   7.561  0.0454  0.0511  0.1188
  118MOL0     C15507   2.299   4.885   7.591  0.2097  0.3438  0.5067
  118MOL0     C15508   2.264   5.004   7.591 -0.0635 -0.1397  0.1719
  118MOL0     C15509   1.832   4.737   7.126 -0.1656  0.6379 -0.4732
  118MOL0     C15510   1.692   4.730   7.113 -0.3180  0.5735  0.5001
  118MOL0     H15511   1.285   4.484   7.371 -1.6475 -2.8220 -1.9660
  118MOL0     H15512   1.053   4.430   7.308  1.7396 -0.4016  3.0156
  118MOL0     H15513   0.771   4.735   7.153  1.2097 -0.1507  1.0193
  118MOL0     H15514   0.731   4.677   7.320 -0.8253 -0.7508 -0.3285
  118MOL0     H15515   0.648   4.460   7.196  0.1621 -1.5527 -4.7496
  118MOL0     H15516   0.668   4.549   7.055  1.3266  0.4710  0.3834
  118MOL0     H15517   0.503   4.713   7.135  0.7369 -0.4633 -1.2914
  118MOL0     H15518   0.493   4.637   7.291  3.0289  0.0290  0.6294
  118MOL0     H15519   0.418   4.503   7.021 -0.0897  2.0655 -0.1711
  118MOL0     H15520   0.410   4.412   7.172 -0.7920 -1.3781 -2.4061
  118MOL0     H15521   0.251   4.657   7.083  2.7549  0.1913 -1.1546
  118MOL0     H15522   0.245   4.603   7.250 -0.6457 -0.7751  0.0936
  118MOL0     H15523   0.173   4.386   7.198  1.8340  1.4254  1.0335
  118MOL0     H15524   0.175   4.421   7.020 -0.8035 -0.5565  0.1671
  118MOL0     H15525  -0.004   4.521   7.246  1.3396  0.5870  0.4360
  118MOL0     H15526   0.001   4.599   7.087  2.8928 -0.3780 -0.5755
  118MOL0     H15527  -0.055   4.306   7.154 -1.3854 -0.7636 -1.3924
  118MOL0     H15528  -0.067   4.389   6.995 -3.1725  1.7086 -0.5482
  118MOL0     H15529  -0.255   4.636   7.051 -1.9276  0.9302 -0.7683
  118MOL0     H15530  -0.514   4.703   7.060  2.0244 -1.4691 -2.0140
  118MOL0     H15531  -0.540   4.655   7.234  3.0220 -0.4446 -0.5051
  118MOL0     H15532  -0.674   4.475   7.174 -0.1129  1.0595  0.3714
  118MOL0     H15533  -0.642   4.483   7.009  0.0395 -0.3637  1.5948
  118MOL0     H15534  -0.793   4.703   7.177 -0.8260 -0.1215  0.2168
  118MOL0     H15535  -0.790   4.700   6.999 -0.0407 -0.5391 -0.5223
  118MOL0     H15536  -0.996   4.600   7.128  0.0967  2.4039 -2.8183
  118MOL0     H15537  -0.894   4.468   7.162  2.0559 -0.5916 -1.7671
  118MOL0     H15538  -1.001   4.429   6.725 -2.8927 -0.8761 -1.7182
  118MOL0     H15539  -1.169   4.261   6.686  1.5272  0.8332  0.1121
  118MOL0     H15540  -1.462   3.867   6.823 -1.5962 -0.0917  2.0963
  118MOL0     H15541  -1.676   3.778   6.779  3.2511 -1.2559 -0.1854
  118MOL0     H15542  -1.886   3.744   6.744  0.4673 -0.3713  0.5095
  118MOL0     H15543  -1.796   3.725   6.582  1.8718  3.8163 -1.3468
  118MOL0     H15544  -2.025   3.597   6.590 -0.0944  0.4506  2.1128
  118MOL0     H15545  -2.004   3.720   6.474  0.8627  3.4938  0.4800
  118MOL0     H15546  -2.127   3.885   6.588  0.4450 -0.3023 -2.8685
  118MOL0     H15547  -2.135   3.800   6.734 -2.1680 -0.1625  0.1444
  118MOL0     H15548  -2.250   3.609   6.627  0.4808  0.2003 -2.4721
  118MOL0     H15549  -2.354   3.762   6.655 -1.9134  2.6619 -4.3376
  118MOL0     H15550  -2.230   3.726   6.385  0.5028  0.1840  0.8857
  118MOL0     H15551  -2.359   3.836   6.446 -2.0064 -0.8354 -2.8235
  118MOL0     H15552  -2.514   3.670   6.468 -1.5339 -0.5267 -2.3370
  118MOL0     H15553  -2.397   3.537   6.437  1.5126 -1.0247 -3.7318
  118MOL0     H15554  -2.500   3.744   6.223  0.0760  0.2669 -0.9345
  118MOL0     H15555  -2.354   3.659   6.201 -1.4519  1.8453 -0.5308
  118MOL0     H15556  -2.472   3.440   6.229  1.8341  1.0085  0.3726
  118MOL0     H15557  -2.550   3.525   6.096  1.0753  3.5475 -0.3597
  118MOL0     H15558  -1.773   4.120   6.522  1.6636  2.8203 -0.9251
  118MOL0     H15559  -1.556   4.228   6.581 -0.4879  0.2921  1.4684
  118MOL0     H15560  -1.295   4.263   7.093 -0.8966 -1.0702 -2.6273
  118MOL0     H15561  -1.131   4.441   7.143 -0.6412 -0.1296 -0.0463
  118MOL0     H15562   0.965   4.840   7.212 -0.7514 -0.1129  1.1980
  118MOL0     H15563   1.200   4.889   7.244  2.9537 -0.0082  0.2965
  118MOL0     H15564   1.630   4.724   7.445 -0.5998 -3.3137 -1.0300
  118MOL0     H15565   1.861   4.745   7.464  0.0489 -1.4843  0.5546
  118MOL0     H15566   2.106   4.642   7.397  2.2017 -0.6577  0.7258
  118MOL0     H15567   2.096   4.818   7.419  5.4140  2.4988 -0.5881
  118MOL0     H15568   2.278   4.701   7.215  1.9394  1.7904 -1.4603
  118MOL0     H15569   2.281   4.863   7.287  0.2570 -0.2393 -0.5348
  118MOL0     H15570   2.447   4.789   7.415  0.1422  1.3864  3.3772
  118MOL0     H15571   2.387   4.616   7.413  2.9262  0.5993  0.5043
  118MOL0     H15572   2.236   4.692   7.593 -0.9851  1.3108 -0.5554
  118MOL0     H15573   2.416   4.708   7.610  0.1242 -2.2085 -1.5465
  118MOL0     H15574   2.239   5.108   7.583  0.6010  0.0777  0.8498
  118MOL0     H15575   1.896   4.739   7.038  0.4473 -1.7292 -0.1505
  118MOL0     H15576   1.646   4.741   7.015  2.6662  1.1117 -0.9939
  119MOL0     O15577   7.497   3.347   1.675 -0.1868 -0.1255  0.0458
  119MOL0     C15578   7.565   3.257   1.733  0.6541  0.3002  0.1230
  119MOL0     O15579   7.516   3.169   1.833 -0.0271  0.0627 -0.0030
  119MOL0     C15580   7.379   3.184   1.836 -1.1958 -0.0803  0.2067
  119MOL0     C15581   7.326   3.260   1.931 -0.1911 -0.4649 -0.0845
  119MOL0     C15582   7.193   3.286   1.931  0.8645  0.0202 -0.4767
  119MOL0     C15583   7.107   3.226   1.837 -0.5606 -0.0036  1.1833
  119MOL0     O15584   6.967   3.228   1.829 -0.2941 -0.0025  0.5402
  119MOL0     C15585   6.912   3.298   1.938  0.1408 -0.0041 -0.0366
  119MOL0     C15586   6.767   3.315   1.897  0.1768 -0.3402  0.0987
  119MOL0     C15587   6.698   3.384   2.016  0.0625  0.4099  0.1453
  119MOL0     C15588   6.545   3.397   1.999 -1.7428  0.4056 -0.3722
  119MOL0     C15589   6.496   3.538   2.015 -0.3823  0.0507 -0.0190
  119MOL0     C15590   6.336   3.538   2.020 -0.4466  0.3685  0.1086
  119MOL0     C15591   6.277   3.675   2.016 -0.3095 -0.1890 -0.4956
  119MOL0     C15592   6.304   3.759   2.144  0.2993  0.2281  0.1346
  119MOL0     N15593   6.195   3.853   2.157  0.3815 -0.1388  0.0428
  119MOL0     C15594   6.175   3.928   2.260  0.3722  0.0694 -0.1837
  119MOL0     C15595   6.053   3.991   2.238  0.4061  0.0654  0.2866
  119MOL0     C15596   5.977   4.073   2.345 -0.4044 -0.6122  0.8978
  119MOL0     C15597   5.822   4.082   2.333 -0.3728  0.0032  0.8135
  119MOL0     C15598   5.757   3.944   2.323  0.7877  0.2632  0.3088
  119MOL0     C15599   5.610   3.974   2.343 -0.7534  0.9330 -0.6659
  119MOL0     O15600   5.532   3.851   2.328  0.0858  0.2626  0.6425
  119MOL0     C15601   5.398   3.857   2.296  0.3995  0.0078 -0.0264
  119MOL0     C15602   5.335   3.736   2.288  0.1859 -1.2801  0.1986
  119MOL0     C15603   5.199   3.732   2.268 -0.4469  0.6306  0.4395
  119MOL0     C15604   5.126   3.854   2.265  0.8486  0.4619 -0.3671
  119MOL0     C15605   4.970   3.859   2.257  0.1531  0.1974 -0.9047
  119MOL0     O15606   4.916   3.985   2.267  0.3027  0.1560  0.2784
  119MOL0     C15607   4.788   4.009   2.217 -0.5145  0.1325  0.3246
  119MOL0     C15608   4.744   3.939   2.104 -0.2828  0.5222 -0.5909
  119MOL0     C15609   4.618   3.983   2.055 -0.1370 -0.9080  0.3144
  119MOL0     C15610   4.549   4.103   2.096 -0.1735  0.3205 -0.5080
  119MOL0     O15611   4.423   4.146   2.055 -0.1041  0.4161  0.0198
  119MOL0     C15612   4.368   4.084   1.937  1.1118 -0.8893  0.1897
  119MOL0     C15613   4.249   4.165   1.894  0.1240 -0.4476  0.4815
  119MOL0     C15614   4.196   4.140   1.753  0.3281  0.0591 -0.6502
  119MOL0     C15615   4.059   4.215   1.728 -0.0404 -0.1658  0.5115
  119MOL0     C15616   3.990   4.219   1.582 -0.0327  0.1844 -0.1459
  119MOL0     C15617   3.839   4.226   1.599  0.0069 -0.0158  0.0987
  119MOL0     C15618   3.769   4.178   1.465  0.8361 -0.3447 -0.6813
  119MOL0     C15619   3.615   4.175   1.467  0.1699  0.0988 -0.1856
  119MOL0    Cl15620   3.559   4.154   1.301 -0.6258 -0.1294 -0.1042
  119MOL0     C15621   4.600   4.164   2.213  0.4239 -0.3357  0.0139
  119MOL0     C15622   4.723   4.116   2.270  0.3776  0.2805  0.1013
  119MOL0     O15623   4.910   3.757   2.233 -0.5205 -0.7519 -0.0714
  119MOL0     C15624   5.191   3.978   2.277  0.0604  0.1250 -0.4149
  119MOL0     C15625   5.327   3.974   2.280  0.5784 -0.4768 -0.3608
  119MOL0     N15626   6.007   3.947   2.121  0.1846  0.6318 -0.4208
  119MOL0     N15627   6.093   3.869   2.073 -0.3117  0.1046  0.1198
  119MOL0     C15628   7.162   3.145   1.741  0.0168  0.0592  0.0943
  119MOL0     C15629   7.298   3.122   1.744 -0.3386 -0.1809  0.3405
  119MOL0     C15630   7.711   3.267   1.722  0.1454  0.0537 -0.2039
  119MOL0     C15631   7.788   3.371   1.660 -0.7770  0.9195  1.1920
  119MOL0     C15632   7.935   3.378   1.667  0.1769 -0.3804 -0.4090
  119MOL0     C15633   8.001   3.267   1.715 -0.3654 -0.2126 -0.2635
  119MOL0     O15634   8.138   3.263   1.710  0.1081 -0.3889 -0.0195
  119MOL0     C15635   8.212   3.170   1.796 -0.2263 -0.7485  0.0970
  119MOL0     C15636   8.355   3.221   1.808 -0.8750 -0.0275 -0.6076
  119MOL0     C15637   8.431   3.238   1.677  0.4140 -0.5449  0.0930
  119MOL0     C15638   8.567   3.303   1.710 -0.1426  0.2299 -0.8750
  119MOL0     C15639   8.656   3.281   1.591 -0.8720  0.3047 -0.9166
  119MOL0     C15640   8.727   3.266   1.492  0.2238 -0.0663  0.3881
  119MOL0     C15641   7.925   3.159   1.760 -0.1688 -0.4254 -0.7625
  119MOL0     C15642   7.785   3.164   1.765 -0.2978  0.1259  0.1428
  119MOL0     H15643   7.393   3.321   1.991 -1.4978  0.2804  0.6751
  119MOL0     H15644   7.157   3.347   2.014  2.3677  0.7751 -0.3340
  119MOL0     H15645   6.951   3.400   1.943 -0.0502  0.1083 -0.8176
  119MOL0     H15646   6.915   3.240   2.031 -1.7769 -1.2216 -0.6604
  119MOL0     H15647   6.728   3.215   1.877 -1.0314  0.0099  0.6252
  119MOL0     H15648   6.749   3.365   1.801 -1.4626  0.8632  0.9831
  119MOL0     H15649   6.745   3.483   2.022 -2.0228  1.3918  0.9566
  119MOL0     H15650   6.720   3.330   2.109 -3.9372 -0.5911  0.7003
  119MOL0     H15651   6.519   3.352   1.903  5.5405 -2.7369 -1.5477
  119MOL0     H15652   6.495   3.340   2.078 -1.4476  1.5666  0.6748
  119MOL0     H15653   6.537   3.599   1.935 -1.7194  0.8419 -0.1190
  119MOL0     H15654   6.533   3.593   2.102  1.0488  1.5265 -1.5004
  119MOL0     H15655   6.306   3.497   2.117 -0.8493  2.3868  0.8858
  119MOL0     H15656   6.293   3.473   1.943  2.1061 -2.7620  1.1221
  119MOL0     H15657   6.310   3.729   1.927 -0.9061  2.0615  0.5686
  119MOL0     H15658   6.171   3.655   1.997 -0.2808 -2.0042  0.9371
  119MOL0     H15659   6.393   3.816   2.117  1.9607 -3.0392 -1.8224
  119MOL0     H15660   6.320   3.700   2.234 -1.4418  0.0227  0.3547
  119MOL0     H15661   6.236   3.932   2.350  2.4585  1.8970 -1.5701
  119MOL0     H15662   6.014   4.176   2.339  0.4780 -0.8722  1.7721
  119MOL0     H15663   5.998   4.042   2.447 -1.4789 -1.1004  0.9875
  119MOL0     H15664   5.800   4.134   2.240 -0.4040  0.3665  1.0206
  119MOL0     H15665   5.782   4.142   2.416 -0.6110  1.4017 -0.2768
  119MOL0     H15666   5.774   3.923   2.217  0.3543  0.6897  0.1491
  119MOL0     H15667   5.802   3.872   2.391  1.3301  0.3619  0.0617
  119MOL0     H15668   5.580   4.039   2.260 -0.3896  0.0151 -1.5353
  119MOL0     H15669   5.582   4.017   2.440 -1.0921  3.3428 -1.7503
  119MOL0     H15670   5.400   3.650   2.300 -1.8760 -3.1179 -0.9860
  119MOL0     H15671   5.160   3.630   2.262 -0.0485  0.4981  0.0944
  119MOL0     H15672   4.799   3.861   2.052 -1.0132 -0.0101 -0.5644
  119MOL0     H15673   4.562   3.922   1.984  0.9139 -0.6747 -0.7513
  119MOL0     H15674   4.332   3.985   1.966 -3.0582  0.8800  1.8651
  119MOL0     H15675   4.446   4.074   1.861 -0.2722  1.8610 -1.7849
  119MOL0     H15676   4.277   4.271   1.896  0.3274 -0.5124  1.9152
  119MOL0     H15677   4.174   4.144   1.970  1.2956  1.1272  2.1625
  119MOL0     H15678   4.184   4.034   1.728 -1.8551 -0.0711  0.6912
  119MOL0     H15679   4.276   4.174   1.687  0.1661  1.5396 -0.1375
  119MOL0     H15680   3.985   4.179   1.800 -2.0081  0.6670 -1.0066
  119MOL0     H15681   4.070   4.320   1.755 -1.5956  0.3598 -0.7689
  119MOL0     H15682   4.027   4.135   1.521 -1.2129 -0.7988  0.4470
  119MOL0     H15683   4.017   4.309   1.527  0.9027  0.8351  1.3276
  119MOL0     H15684   3.803   4.328   1.616 -0.9851 -0.5220  1.1647
  119MOL0     H15685   3.815   4.148   1.672 -1.6268  0.5604  0.2211
  119MOL0     H15686   3.812   4.235   1.381  0.5225 -1.6683 -1.7735
  119MOL0     H15687   3.793   4.074   1.446 -1.9109 -1.5656  1.6798
  119MOL0     H15688   3.578   4.268   1.510 -0.2905 -0.7647  1.3709
  119MOL0     H15689   3.577   4.101   1.538 -0.5093  2.4274  2.0027
  119MOL0     H15690   4.553   4.255   2.249  0.7025  0.2595 -1.0692
  119MOL0     H15691   4.766   4.174   2.350  2.2932  0.3199 -0.8992
  119MOL0     H15692   5.140   4.071   2.298 -2.1507 -1.2916  0.8601
  119MOL0     H15693   5.367   4.074   2.293  0.2921 -0.4428  0.3417
  119MOL0     H15694   7.103   3.089   1.669 -3.5664  2.7426  0.6752
  119MOL0     H15695   7.339   3.054   1.670 -0.4698 -1.2488  1.2331
  119MOL0     H15696   7.736   3.453   1.613 -1.5287  0.2127  0.7557
  119MOL0     H15697   7.996   3.462   1.636  1.5656 -1.2613 -0.1269
  119MOL0     H15698   8.201   3.072   1.749 -1.8757  1.4089 -4.6870
  119MOL0     H15699   8.169   3.139   1.891 -1.4403 -0.0212 -0.1892
  119MOL0     H15700   8.349   3.310   1.871  0.6013 -1.3453  1.5604
  119MOL0     H15701   8.410   3.148   1.869 -2.4570 -1.1758 -0.5087
  119MOL0     H15702   8.365   3.310   1.627  0.8094  2.0730  3.0329
  119MOL0     H15703   8.448   3.141   1.630  1.7286 -0.7346  0.9100
  119MOL0     H15704   8.556   3.408   1.738  1.5146  0.2140 -0.0524
  119MOL0     H15705   8.607   3.251   1.797 -0.0784  0.6228 -0.6653
  119MOL0     H15706   8.792   3.246   1.409 -1.6586 -0.3061 -1.0912
  119MOL0     H15707   7.970   3.065   1.788  2.0630  1.0047  0.7751
  119MOL0     H15708   7.734   3.072   1.795 -0.3375  0.3922  0.8909
  120MOL0     O15709   3.268   2.707   5.020  0.4601 -0.0483 -0.3878
  120MOL0     C15710   3.337   2.797   5.066  0.3867  0.7822  0.1025
  120MOL0     O15711   3.307   2.870   5.179  0.4049  0.2074 -0.0155
  120MOL0     C15712   3.176   2.840   5.224 -0.9977 -0.4415 -0.4426
  120MOL0     C15713   3.184   2.767   5.345  0.1606 -0.5368 -0.3154
  120MOL0     C15714   3.060   2.736   5.401 -0.8635  0.2232 -0.3820
  120MOL0     C15715   2.935   2.780   5.345 -0.1839 -0.4445  1.1423
  120MOL0     O15716   2.815   2.752   5.404  0.3534 -0.3959 -0.7491
  120MOL0     C15717   2.791   2.636   5.490  0.4849  0.7209 -0.6090
  120MOL0     C15718   2.648   2.602   5.488  1.3173  0.5414 -0.6913
  120MOL0     C15719   2.605   2.522   5.608  0.4801 -1.0652 -0.1702
  120MOL0     C15720   2.451   2.521   5.623  0.6688 -0.5011  0.6024
  120MOL0     C15721   2.415   2.406   5.713 -0.1617  0.0130 -0.6313
  120MOL0     C15722   2.415   2.269   5.639  0.0389  0.2325 -0.0085
  120MOL0     C15723   2.364   2.155   5.736 -0.7272  0.5350  0.3327
  120MOL0     C15724   2.213   2.152   5.738 -0.8044  0.9823 -0.6129
  120MOL0     N15725   2.162   2.060   5.836  0.3058  0.3112 -0.6548
  120MOL0     C15726   2.027   2.049   5.868 -0.6936  0.1184 -0.9884
  120MOL0     C15727   2.034   1.964   5.975  0.2866  0.2344  0.9140
  120MOL0     C15728   1.911   1.925   6.045 -0.4794  0.0005  0.0626
  120MOL0     C15729   1.898   2.003   6.174  0.0184 -0.2364 -0.0641
  120MOL0     C15730   1.760   1.985   6.242 -0.2880  0.7100 -0.2327
  120MOL0     C15731   1.730   1.832   6.271 -0.3078 -0.3789 -0.6313
  120MOL0     O15732   1.609   1.820   6.349  0.4460 -0.4247 -0.1987
  120MOL0     C15733   1.602   1.714   6.438  0.0504 -0.3628 -0.7036
  120MOL0     C15734   1.547   1.594   6.384  0.1261  1.7776 -0.7789
  120MOL0     C15735   1.534   1.490   6.476  0.7317  0.6283 -0.5624
  120MOL0     C15736   1.602   1.490   6.597  0.1578  1.4095  0.6161
  120MOL0     C15737   1.584   1.375   6.690 -0.0488 -1.0487  0.5718
  120MOL0     O15738   1.472   1.305   6.677  0.1405  0.3265 -0.2087
  120MOL0     C15739   1.474   1.181   6.740 -0.2658  0.1506  0.0409
  120MOL0     C15740   1.362   1.147   6.809  0.2071 -0.5162  0.3303
  120MOL0     C15741   1.343   1.019   6.865 -0.0211  0.0827  0.3101
  120MOL0     C15742   1.452   0.926   6.862 -0.0451 -0.0434  0.1700
  120MOL0     O15743   1.444   0.796   6.916 -0.5861 -0.1018  0.4023
  120MOL0     C15744   1.310   0.748   6.933  0.2830  0.5489 -0.5479
  120MOL0     C15745   1.327   0.599   6.959  0.8272  0.0935  0.2541
  120MOL0     C15746   1.451   0.564   7.037 -0.1704  0.2866 -0.0817
  120MOL0     C15747   1.442   0.414   7.071 -0.1467 -0.3794  0.1150
  120MOL0     C15748   1.575   0.354   7.082  0.0091 -0.0345  0.4710
  120MOL0     C15749   1.589   0.220   7.156  1.7133  0.1990 -0.2340
  120MOL0     C15750   1.736   0.187   7.185  0.2511 -0.0276  0.3996
  120MOL0     C15751   1.764   0.049   7.241  0.5880 -0.2792 -0.0477
  120MOL0    Cl15752   1.752  -0.080   7.107  0.4389  0.0641  0.2018
  120MOL0     C15753   1.563   0.955   6.782 -0.1041 -0.5526 -0.1375
  120MOL0     C15754   1.573   1.085   6.726 -0.3667 -0.4403 -0.3760
  120MOL0     O15755   1.673   1.357   6.770 -0.7743  0.3509  0.5105
  120MOL0     C15756   1.676   1.601   6.629  0.0745 -1.0706  0.5124
  120MOL0     C15757   1.670   1.711   6.558  0.3745 -0.3913 -0.3177
  120MOL0     N15758   2.164   1.915   5.996 -0.0030 -0.2516 -0.2449
  120MOL0     N15759   2.236   1.981   5.912  0.0871  0.0228  0.1227
  120MOL0     C15760   2.931   2.867   5.240  0.4296 -0.3590  0.2530
  120MOL0     C15761   3.057   2.897   5.173 -0.0392 -0.7075 -0.1762
  120MOL0     C15762   3.470   2.827   5.005  1.2613 -0.5747 -0.1160
  120MOL0     C15763   3.556   2.925   5.051 -0.1594  0.4244 -0.8100
  120MOL0     C15764   3.671   2.966   4.982  0.7177  1.0363  0.3839
  120MOL0     C15765   3.713   2.894   4.871 -0.6703  0.1265 -0.3753
  120MOL0     O15766   3.827   2.922   4.803 -0.2805  0.0333 -0.3893
  120MOL0     C15767   3.900   3.033   4.842  0.0642 -0.2743 -0.6010
  120MOL0     C15768   4.024   3.028   4.738  0.5511 -0.9752  0.0322
  120MOL0     C15769   4.117   3.145   4.794  0.0540 -0.6876  0.3728
  120MOL0     C15770   4.265   3.136   4.748  0.4167 -1.0374 -0.4558
  120MOL0     C15771   4.362   3.247   4.775  0.1129  1.3204 -0.8222
  120MOL0     C15772   4.443   3.337   4.797  0.3144  0.2718 -0.4193
  120MOL0     C15773   3.630   2.786   4.828  0.0397  0.0378 -0.2566
  120MOL0     C15774   3.509   2.756   4.891  1.1935 -1.0357  0.1000
  120MOL0     H15775   3.278   2.745   5.394  0.1217 -0.0917 -0.0254
  120MOL0     H15776   3.053   2.665   5.484  2.5280 -0.8340 -0.8468
  120MOL0     H15777   2.824   2.650   5.593 -2.8321  1.4526  0.4684
  120MOL0     H15778   2.834   2.547   5.442  2.6174  1.6027 -0.4429
  120MOL0     H15779   2.640   2.538   5.400  2.1652 -0.8214  0.1865
  120MOL0     H15780   2.593   2.697   5.495  0.9591  0.3647 -1.1142
  120MOL0     H15781   2.651   2.565   5.697 -0.0917  0.1616 -0.4324
  120MOL0     H15782   2.653   2.426   5.590  1.2460 -0.9270  1.0233
  120MOL0     H15783   2.429   2.620   5.664  2.1298 -0.1112  0.4948
  120MOL0     H15784   2.392   2.519   5.531  1.6725  2.1842 -0.2134
  120MOL0     H15785   2.315   2.425   5.753  0.1323 -1.3398  0.8673
  120MOL0     H15786   2.481   2.404   5.800 -2.5455  0.8722  1.3148
  120MOL0     H15787   2.515   2.244   5.601 -0.7262 -0.0871 -1.9176
  120MOL0     H15788   2.353   2.272   5.549 -0.7846 -1.8598  0.4270
  120MOL0     H15789   2.409   2.060   5.704 -0.4320  1.5164 -2.4269
  120MOL0     H15790   2.408   2.183   5.832  1.2585  1.8791 -0.8749
  120MOL0     H15791   2.174   2.136   5.637 -1.8785  0.5809 -0.1469
  120MOL0     H15792   2.176   2.244   5.784 -1.4169  0.8560 -0.8396
  120MOL0     H15793   1.933   2.092   5.834 -0.8254  0.5858 -0.0662
  120MOL0     H15794   1.932   1.818   6.060  0.6304  0.3857  1.4269
  120MOL0     H15795   1.829   1.942   5.974  0.3637 -0.0676 -0.9637
  120MOL0     H15796   1.924   2.109   6.162  0.1917 -0.2896 -0.1533
  120MOL0     H15797   1.970   1.956   6.242  0.1928 -2.3687 -1.6193
  120MOL0     H15798   1.766   2.027   6.344  1.4853  1.4198 -0.5874
  120MOL0     H15799   1.685   2.032   6.178 -0.7623  0.6751  0.2789
  120MOL0     H15800   1.813   1.794   6.332 -1.2767 -1.6671 -0.0586
  120MOL0     H15801   1.729   1.773   6.179  0.1151 -0.5118 -0.5530
  120MOL0     H15802   1.506   1.570   6.287  0.3275 -1.1671 -0.2186
  120MOL0     H15803   1.482   1.402   6.438 -2.6642  2.4892 -0.5949
  120MOL0     H15804   1.277   1.214   6.806 -2.8772 -4.0781  0.7119
  120MOL0     H15805   1.251   1.001   6.919 -0.4451 -0.0133 -0.4322
  120MOL0     H15806   1.248   0.768   6.845 -1.1335  0.9367  0.5041
  120MOL0     H15807   1.258   0.795   7.017 -0.2901 -0.3635 -0.3769
  120MOL0     H15808   1.331   0.552   6.860  1.7660  2.5321 -0.9470
  120MOL0     H15809   1.238   0.552   7.003 -0.9183  2.6841 -0.2845
  120MOL0     H15810   1.478   0.624   7.123  1.9158 -2.8129  1.6036
  120MOL0     H15811   1.536   0.584   6.971  0.3369  1.6659  0.9653
  120MOL0     H15812   1.398   0.411   7.171  1.8815  2.3179  1.2160
  120MOL0     H15813   1.385   0.358   6.995 -1.7948  1.6865 -0.2737
  120MOL0     H15814   1.649   0.419   7.128  1.9388 -1.1475 -0.9453
  120MOL0     H15815   1.607   0.337   6.979  1.9622 -0.0316  1.0427
  120MOL0     H15816   1.532   0.159   7.085  0.8428  1.2739 -0.4849
  120MOL0     H15817   1.534   0.225   7.251 -1.6217 -0.1372 -2.0062
  120MOL0     H15818   1.791   0.197   7.091  0.0696 -0.5556  0.2321
  120MOL0     H15819   1.772   0.265   7.252  0.4252  0.7883 -0.6246
  120MOL0     H15820   1.702   0.023   7.328 -1.8647 -1.4849 -2.0269
  120MOL0     H15821   1.870   0.048   7.266  0.9914 -0.0236 -1.6372
  120MOL0     H15822   1.636   0.877   6.761 -0.4672 -0.3689 -2.3405
  120MOL0     H15823   1.662   1.116   6.672  1.9874 -3.5191  1.3843
  120MOL0     H15824   1.723   1.591   6.726  0.5239  0.6102  0.4913
  120MOL0     H15825   1.719   1.798   6.600 -0.4453 -0.9368  1.9330
  120MOL0     H15826   2.839   2.911   5.203  0.4016  1.3296  2.1631
  120MOL0     H15827   3.067   2.964   5.088  0.3961  2.2292  2.0541
  120MOL0     H15828   3.534   2.967   5.149 -0.3264  1.1356 -1.1424
  120MOL0     H15829   3.737   3.044   5.018 -0.2731  1.8442  0.5039
  120MOL0     H15830   3.932   3.033   4.947 -2.3035  0.0145  0.1788
  120MOL0     H15831   3.831   3.117   4.835 -2.5851 -1.8801  2.9342
  120MOL0     H15832   4.066   2.927   4.743 -0.9568 -1.5861  1.2511
  120MOL0     H15833   3.980   3.049   4.640  0.6080 -0.9842  0.0052
  120MOL0     H15834   4.121   3.145   4.904 -0.0884  3.0541  0.4987
  120MOL0     H15835   4.074   3.244   4.776  0.6684 -0.1039  1.9356
  120MOL0     H15836   4.307   3.043   4.787  1.7049 -0.9062 -1.4719
  120MOL0     H15837   4.272   3.120   4.640  0.9758 -1.7537 -0.3180
  120MOL0     H15838   4.516   3.415   4.806 -1.0501  1.5490  0.1017
  120MOL0     H15839   3.662   2.720   4.748  0.3588 -3.6441  2.6287
  120MOL0     H15840   3.445   2.673   4.861 -1.8941  0.6222  1.5953
  121MOL0     O15841  10.428   9.491   9.940  0.3742  0.1713 -0.6431
  121MOL0     C15842  10.461   9.552  10.044 -0.0403  0.7963  1.0668
  121MOL0     O15843  10.385   9.576  10.152  0.3573 -0.3377 -0.2035
  121MOL0     C15844  10.260   9.533  10.170  0.6196 -0.8552 -0.8662
  121MOL0     C15845  10.149   9.615  10.142  0.5968  0.0951 -0.0747
  121MOL0     C15846  10.020   9.572  10.174  0.0011 -0.5793  0.6062
  121MOL0     C15847  10.000   9.443  10.220  0.3637 -0.0652 -0.1839
  121MOL0     O15848   9.874   9.388  10.253  0.1674 -0.5091  0.7043
  121MOL0     C15849   9.763   9.422  10.167 -0.8498  0.2032  0.5013
  121MOL0     C15850   9.642   9.341  10.203  0.5509 -0.6092 -0.4269
  121MOL0     C15851   9.519   9.390  10.129  0.1918 -0.5461  0.9100
  121MOL0     C15852   9.404   9.296  10.150  0.1046 -0.2955 -0.1902
  121MOL0     C15853   9.268   9.364  10.127  0.4144 -0.6685 -0.6054
  121MOL0     C15854   9.147   9.268  10.113  1.1458 -0.1001 -0.1260
  121MOL0     C15855   9.014   9.331  10.073  0.0117 -0.2317 -1.4475
  121MOL0     C15856   8.897   9.230  10.080  0.4192  0.3140 -0.3700
  121MOL0     N15857   8.784   9.273   9.998 -0.5591  0.1780 -0.3310
  121MOL0     C15858   8.650   9.254  10.031 -0.5492  0.8199  0.4972
  121MOL0     C15859   8.574   9.283   9.923  0.0019  0.6320 -0.1514
  121MOL0     C15860   8.426   9.279   9.906  1.1222 -0.0507  0.1280
  121MOL0     C15861   8.354   9.401   9.980 -0.2159 -0.2611 -0.1349
  121MOL0     C15862   8.223   9.436   9.917 -0.3394  0.8781  0.7956
  121MOL0     C15863   8.110   9.492  10.002 -0.7971  0.7005 -0.0972
  121MOL0     O15864   8.011   9.543   9.910  0.7664  1.1983 -0.3703
  121MOL0     C15865   7.903   9.622   9.950 -0.3271 -0.0611  0.1431
  121MOL0     C15866   7.882   9.661  10.084 -0.1375 -0.4296 -0.2576
  121MOL0     C15867   7.760   9.734  10.126 -0.4349 -0.3050  0.1647
  121MOL0     C15868   7.658   9.749  10.031  0.4223  0.0834 -0.0520
  121MOL0     C15869   7.522   9.803  10.068  0.6143 -0.5395  0.5472
  121MOL0     O15870   7.433   9.814   9.961 -0.4194 -0.7474 -0.6971
  121MOL0     C15871   7.319   9.900   9.961  0.2763 -0.1819  0.4252
  121MOL0     C15872   7.232   9.915  10.063  0.5325 -0.6567  0.1730
  121MOL0     C15873   7.117   9.987  10.049  0.3480  0.3501  0.0336
  121MOL0     C15874   7.093  10.060   9.929 -0.0026  0.6582  0.1562
  121MOL0     O15875   6.985  10.138   9.900  0.4241 -0.3873  0.1158
  121MOL0     C15876   6.917  10.195  10.012 -0.0587  0.6553  0.3038
  121MOL0     C15877   6.846  10.324   9.974  0.0705 -0.6360  0.7275
  121MOL0     C15878   6.807  10.406  10.098  0.0750  0.5010  0.4587
  121MOL0     C15879   6.670  10.365  10.144  1.9334  0.4047  1.3419
  121MOL0     C15880   6.621  10.450  10.266 -0.0453  0.8568  0.1471
  121MOL0     C15881   6.467  10.433  10.293  0.3282  0.2836 -0.2159
  121MOL0     C15882   6.429  10.483  10.439  0.1115  0.3388 -0.2216
  121MOL0     C15883   6.283  10.519  10.442  0.7517 -0.0769  0.7204
  121MOL0    Cl15884   6.235  10.576  10.599 -0.1652 -0.2190 -0.0719
  121MOL0     C15885   7.182  10.036   9.821 -0.7913 -0.9112 -0.4268
  121MOL0     C15886   7.293   9.957   9.842 -0.4439 -0.0988  0.9208
  121MOL0     O15887   7.505   9.855  10.178 -0.3972 -0.0680 -0.2690
  121MOL0     C15888   7.694   9.736   9.893 -0.3748  0.1338 -0.2690
  121MOL0     C15889   7.814   9.671   9.859  0.5411 -0.4949  0.0359
  121MOL0     N15890   8.661   9.321   9.824 -0.2615  0.1806 -0.2402
  121MOL0     N15891   8.785   9.316   9.867 -0.9582  0.8340  0.1767
  121MOL0     C15892  10.107   9.366  10.262 -0.0421  0.2141  0.2933
  121MOL0     C15893  10.243   9.411  10.235  1.3073 -0.4953  0.0641
  121MOL0     C15894  10.601   9.608  10.041 -0.1847 -0.6647 -0.3437
  121MOL0     C15895  10.638   9.731  10.113  0.1147  0.4253 -0.2394
  121MOL0     C15896  10.771   9.776  10.114 -0.4188  0.0590 -0.3830
  121MOL0     C15897  10.875   9.709  10.045 -0.1020  0.5428  1.1448
  121MOL0     O15898  11.005   9.759  10.030 -0.0053  0.1524 -0.2385
  121MOL0     C15899  11.049   9.854  10.129  0.0348 -0.4621 -0.1376
  121MOL0     C15900  11.198   9.826  10.145  1.2259  0.0882 -0.0728
  121MOL0     C15901  11.263   9.930  10.239  0.4707  0.1905 -0.1823
  121MOL0     C15902  11.415   9.920  10.238  0.0453  0.3565 -0.8420
  121MOL0     C15903  11.482  10.020  10.327  0.9621 -0.4318  0.1934
  121MOL0     C15904  11.547  10.097  10.400 -0.1799  0.7492  0.6408
  121MOL0     C15905  10.838   9.594   9.970 -0.3774  0.0388  0.6832
  121MOL0     C15906  10.700   9.551   9.967  0.0377  0.2420  0.2500
  121MOL0     H15907  10.168   9.718  10.114 -3.3116  0.7397 -0.8710
  121MOL0     H15908   9.941   9.640  10.143  0.8333 -0.2435 -0.9137
  121MOL0     H15909   9.783   9.397  10.062 -0.3033  0.9476  0.4263
  121MOL0     H15910   9.748   9.530  10.170  0.4012  0.4835 -1.6242
  121MOL0     H15911   9.606   9.359  10.305 -0.8097 -2.1754 -0.5806
  121MOL0     H15912   9.660   9.235  10.182  1.1920 -0.5183 -0.3434
  121MOL0     H15913   9.547   9.394  10.023 -1.8035 -0.8762  0.3430
  121MOL0     H15914   9.485   9.488  10.164 -1.8926 -1.0754  0.4981
  121MOL0     H15915   9.430   9.214  10.082  4.3079  0.1189  0.6648
  121MOL0     H15916   9.413   9.260  10.253  1.2233 -1.0284 -0.5230
  121MOL0     H15917   9.283   9.416  10.033  2.4898 -0.3040 -0.1260
  121MOL0     H15918   9.242   9.441  10.201 -2.1852 -1.0657 -1.0205
  121MOL0     H15919   9.135   9.210  10.205  1.0971  1.0865  0.6304
  121MOL0     H15920   9.165   9.194  10.034  0.3403  2.1864 -2.6162
  121MOL0     H15921   8.994   9.426  10.123 -2.7892  0.4017 -3.5581
  121MOL0     H15922   9.029   9.358   9.968 -2.1794  0.0948 -1.7286
  121MOL0     H15923   8.876   9.207  10.185 -0.7872  1.6537 -0.2883
  121MOL0     H15924   8.939   9.141  10.034 -1.3101  0.0491 -1.5503
  121MOL0     H15925   8.614   9.219  10.127  0.4756  1.2348  1.0385
  121MOL0     H15926   8.388   9.184   9.945 -0.9022  0.4217 -0.5773
  121MOL0     H15927   8.394   9.270   9.802 -3.7229  0.1491  1.3487
  121MOL0     H15928   8.417   9.488   9.959  0.0950 -0.9958 -2.5562
  121MOL0     H15929   8.350   9.393  10.089 -0.1287 -0.7109 -0.1616
  121MOL0     H15930   8.246   9.509   9.839  1.1064 -1.8055 -1.5046
  121MOL0     H15931   8.174   9.360   9.854 -0.4243  1.9188 -0.4318
  121MOL0     H15932   8.145   9.572  10.068  1.3976 -0.2569 -0.0066
  121MOL0     H15933   8.068   9.418  10.071  0.5917  0.0137  0.0413
  121MOL0     H15934   7.961   9.629  10.152  0.6478 -1.5414 -1.6377
  121MOL0     H15935   7.741   9.752  10.231 -0.8661 -1.5487  0.3169
  121MOL0     H15936   7.256   9.869  10.159 -0.1126  0.0574  0.6922
  121MOL0     H15937   7.055  10.004  10.137  0.2958 -2.5530  0.6728
  121MOL0     H15938   6.991  10.205  10.092  2.1274 -2.8651 -1.0079
  121MOL0     H15939   6.842  10.118  10.036 -0.0767  0.0554 -1.5547
  121MOL0     H15940   6.768  10.313   9.898 -2.6030  1.7034  2.8928
  121MOL0     H15941   6.911  10.390   9.916 -2.2467  0.7941 -0.3970
  121MOL0     H15942   6.802  10.512  10.069 -1.0226 -0.2202 -2.4035
  121MOL0     H15943   6.885  10.391  10.172  3.1862 -1.4036 -2.9037
  121MOL0     H15944   6.599  10.372  10.061  2.6302  0.3762  0.7369
  121MOL0     H15945   6.672  10.261  10.176  1.7627 -0.4880 -1.3307
  121MOL0     H15946   6.633  10.557  10.246 -3.5907  1.2320 -0.6072
  121MOL0     H15947   6.671  10.413  10.356  2.9022  0.4625 -1.5403
  121MOL0     H15948   6.441  10.328  10.283 -2.3036  0.5319  2.7216
  121MOL0     H15949   6.408  10.497  10.226 -2.5497 -1.7253  0.2509
  121MOL0     H15950   6.435  10.391  10.498 -1.8309 -1.6117 -2.8310
  121MOL0     H15951   6.492  10.557  10.489  0.1808 -0.6556  1.2152
  121MOL0     H15952   6.220  10.436  10.409 -0.2561  0.5357  1.0473
  121MOL0     H15953   6.271  10.606  10.376  0.5452 -1.4559 -1.1255
  121MOL0     H15954   7.144  10.073   9.726 -2.4427 -2.5666 -0.4836
  121MOL0     H15955   7.350   9.925   9.755  0.4223  0.9373  1.0887
  121MOL0     H15956   7.617   9.753   9.818 -2.7261 -0.4973  1.8707
  121MOL0     H15957   7.846   9.644   9.759  3.2564  2.6274 -0.1048
  121MOL0     H15958  10.092   9.276  10.321  0.5321 -0.0032  0.1060
  121MOL0     H15959  10.320   9.345  10.272  0.7264 -1.2106  0.0307
  121MOL0     H15960  10.559   9.782  10.168 -0.1602  0.1602 -0.3867
  121MOL0     H15961  10.796   9.871  10.160  1.3190 -0.3010 -0.5057
  121MOL0     H15962  11.003   9.840  10.227 -0.4943  1.0466 -0.1349
  121MOL0     H15963  11.041   9.957  10.093 -1.5650 -0.7166 -0.6019
  121MOL0     H15964  11.220   9.726  10.183 -1.0303 -1.5499 -2.7183
  121MOL0     H15965  11.249   9.830  10.049  2.1325  0.5691  0.4176
  121MOL0     H15966  11.221   9.925  10.340  2.7985  2.0077  0.9502
  121MOL0     H15967  11.227  10.029  10.209  1.0798  0.5661  0.3188
  121MOL0     H15968  11.442   9.822  10.279  3.1646  1.5277  0.2259
  121MOL0     H15969  11.452   9.929  10.136 -0.7834  0.1058 -1.1770
  121MOL0     H15970  11.600  10.150  10.477 -1.9347  1.9853  1.0663
  121MOL0     H15971  10.916   9.535   9.922 -2.0103 -2.3164  0.7562
  121MOL0     H15972  10.682   9.461   9.910  2.2914  0.3627 -0.7825
  122MOL0     O15973   9.398   2.744   9.436  0.1410 -0.2716 -0.4721
  122MOL0     C15974   9.343   2.660   9.514  0.1087 -0.9666  0.0844
  122MOL0     O15975   9.224   2.683   9.572 -0.2631  0.6220  0.1625
  122MOL0     C15976   9.125   2.767   9.531 -0.2263  0.1894 -0.2328
  122MOL0     C15977   9.116   2.872   9.443  0.7560  0.2591 -0.4192
  122MOL0     C15978   9.001   2.953   9.447  0.4863 -0.0772 -0.0974
  122MOL0     C15979   8.892   2.933   9.530  0.3627 -0.6750  0.6619
  122MOL0     O15980   8.781   3.009   9.522  0.2765 -0.2213  0.2835
  122MOL0     C15981   8.648   2.945   9.525 -0.1218  0.0566  0.7348
  122MOL0     C15982   8.547   3.043   9.474 -0.6983 -0.2219 -0.5668
  122MOL0     C15983   8.413   2.967   9.455  0.2455  1.0252  0.1510
  122MOL0     C15984   8.295   3.062   9.498  0.5573 -0.2816 -0.3960
  122MOL0     C15985   8.164   2.990   9.488  0.0836  0.4883 -0.6218
  122MOL0     C15986   8.143   2.866   9.580  0.1256 -0.7513  0.7086
  122MOL0     C15987   7.989   2.812   9.585 -0.9833  0.5424  0.0894
  122MOL0     C15988   7.963   2.757   9.448  0.4361  0.5369  0.1581
  122MOL0     N15989   7.826   2.702   9.457  0.6230 -0.4049  0.1298
  122MOL0     C15990   7.800   2.576   9.410 -0.7190  0.2395  0.1277
  122MOL0     C15991   7.663   2.571   9.418 -1.1697 -0.1449 -0.2489
  122MOL0     C15992   7.576   2.454   9.376 -0.0337 -0.0025 -0.4979
  122MOL0     C15993   7.474   2.393   9.481  0.2116  0.5843  0.3188
  122MOL0     C15994   7.328   2.412   9.455  0.4321 -0.4888 -0.0910
  122MOL0     C15995   7.295   2.560   9.456  0.0116  0.4352 -0.7288
  122MOL0     O15996   7.148   2.574   9.463  0.0136  0.3884 -0.4686
  122MOL0     C15997   7.102   2.686   9.514 -0.2555  0.2473 -0.3209
  122MOL0     C15998   7.170   2.806   9.504 -0.2501 -0.1909 -0.0479
  122MOL0     C15999   7.122   2.923   9.562 -0.4397 -0.2947  0.4645
  122MOL0     C16000   6.996   2.926   9.623  0.3287 -0.3894  1.1073
  122MOL0     C16001   6.938   3.050   9.666  0.1302  0.8682 -0.1671
  122MOL0     O16002   7.005   3.165   9.622  0.2644  0.3438 -0.0547
  122MOL0     C16003   6.969   3.280   9.668  0.0637  0.7734 -0.0604
  122MOL0     C16004   7.076   3.367   9.703  0.6890 -0.5121  0.1444
  122MOL0     C16005   7.047   3.497   9.733 -1.2755 -0.5795 -0.0111
  122MOL0     C16006   6.911   3.540   9.736 -0.9832  0.0362  0.3374
  122MOL0     O16007   6.882   3.657   9.797 -0.0255 -0.2830  0.6297
  122MOL0     C16008   6.940   3.683   9.923 -0.6153 -0.7235  0.6211
  122MOL0     C16009   6.837   3.763   9.993  0.2469 -0.1428 -0.5288
  122MOL0     C16010   6.856   3.778  10.145  0.8758 -0.2098 -0.3279
  122MOL0     C16011   6.978   3.858  10.181  0.2539  0.9565 -0.7815
  122MOL0     C16012   6.993   3.887  10.337  0.4883  0.3303 -0.5456
  122MOL0     C16013   7.124   3.962  10.373 -0.6889  0.2064  0.8814
  122MOL0     C16014   7.254   3.889  10.342 -0.5258  0.6540  0.2030
  122MOL0     C16015   7.370   3.986  10.372  0.9851  0.0080  0.2362
  122MOL0    Cl16016   7.501   3.914  10.272 -0.1935 -0.0296 -0.1634
  122MOL0     C16017   6.806   3.452   9.710 -0.1134 -0.4288 -0.3812
  122MOL0     C16018   6.839   3.326   9.670  0.2013 -0.8858  0.1898
  122MOL0     O16019   6.838   3.042   9.734 -0.9283 -1.0293  0.3964
  122MOL0     C16020   6.926   2.799   9.634 -0.2632 -0.8328  0.5594
  122MOL0     C16021   6.979   2.688   9.574  0.1471  0.4760  0.0744
  122MOL0     N16022   7.611   2.679   9.477 -0.3328 -0.0554  0.1210
  122MOL0     N16023   7.711   2.766   9.494  0.2651  0.2725  0.2266
  122MOL0     C16024   8.902   2.824   9.615 -0.1895  0.4412 -0.9561
  122MOL0     C16025   9.012   2.740   9.614  1.2510 -0.2405 -0.3147
  122MOL0     C16026   9.416   2.536   9.538  0.1662  0.0748 -0.3513
  122MOL0     C16027   9.360   2.439   9.632  0.3237 -0.1354 -0.3036
  122MOL0     C16028   9.418   2.308   9.658  0.1226  0.7376 -0.7880
  122MOL0     C16029   9.527   2.270   9.578  0.5775  0.2186  0.1993
  122MOL0     O16030   9.580   2.144   9.601  0.0769 -0.2281 -0.9775
  122MOL0     C16031   9.708   2.115   9.543 -0.4953 -0.5484  0.5521
  122MOL0     C16032   9.763   1.982   9.607 -0.4974 -0.6475 -0.0728
  122MOL0     C16033   9.889   1.934   9.525  0.1583  0.5374  0.7815
  122MOL0     C16034   9.960   1.815   9.592  0.0109  0.4805 -0.0831
  122MOL0     C16035  10.050   1.863   9.704  0.0907  0.7267 -0.6983
  122MOL0     C16036  10.107   1.908   9.800  0.1417  0.2676 -0.5090
  122MOL0     C16037   9.587   2.371   9.498  0.8151 -0.3926  0.5521
  122MOL0     C16038   9.539   2.499   9.484 -0.4015  0.2241  0.0366
  122MOL0     H16039   9.199   2.890   9.375  0.1002  1.0770 -1.0274
  122MOL0     H16040   9.004   3.033   9.373  1.1818 -2.4424 -2.7989
  122MOL0     H16041   8.618   2.922   9.628 -0.7222  0.1452  0.5792
  122MOL0     H16042   8.643   2.859   9.458 -0.3242  1.1532 -0.6844
  122MOL0     H16043   8.567   3.089   9.376 -0.7850  0.0611 -0.4545
  122MOL0     H16044   8.540   3.119   9.553  0.7339 -0.2275 -0.4061
  122MOL0     H16045   8.407   2.877   9.516  0.3206  0.5349 -0.5515
  122MOL0     H16046   8.399   2.930   9.353  2.7898  1.9708 -0.6172
  122MOL0     H16047   8.300   3.095   9.602 -1.1361  0.8266 -0.6103
  122MOL0     H16048   8.287   3.145   9.427 -2.0110 -1.8281 -2.0836
  122MOL0     H16049   8.147   2.958   9.385  1.5513  0.0254 -0.7459
  122MOL0     H16050   8.079   3.059   9.498  0.0780  0.6698 -1.7726
  122MOL0     H16051   8.179   2.891   9.680  0.5990  0.5741  0.2284
  122MOL0     H16052   8.205   2.782   9.548 -2.3301 -3.5146  2.6224
  122MOL0     H16053   7.984   2.733   9.661  0.2392  1.1814  0.8678
  122MOL0     H16054   7.928   2.900   9.608 -1.1401  0.4510  0.0220
  122MOL0     H16055   8.028   2.674   9.420  0.2251  1.3677 -3.2954
  122MOL0     H16056   7.973   2.830   9.366  0.7064 -1.2205 -1.4409
  122MOL0     H16057   7.875   2.510   9.368  2.0570  3.2564 -0.0309
  122MOL0     H16058   7.638   2.366   9.358 -1.7291 -1.5106  0.5802
  122MOL0     H16059   7.518   2.464   9.284 -1.3641 -2.7627 -0.0815
  122MOL0     H16060   7.497   2.442   9.576 -0.4502 -0.6364  1.1362
  122MOL0     H16061   7.491   2.286   9.501 -2.3726 -0.0545 -0.4816
  122MOL0     H16062   7.294   2.371   9.360  0.2291  0.1689 -0.3132
  122MOL0     H16063   7.266   2.363   9.531 -0.1126 -3.2361 -2.1378
  122MOL0     H16064   7.335   2.607   9.366  0.1013  1.3675 -0.2120
  122MOL0     H16065   7.331   2.610   9.546  0.0693 -1.7180  0.5142
  122MOL0     H16066   7.269   2.816   9.461 -1.0582 -0.6717 -2.1126
  122MOL0     H16067   7.167   3.019   9.542 -0.2971 -0.7301 -1.4679
  122MOL0     H16068   7.179   3.335   9.687 -0.2352 -2.6214 -2.2958
  122MOL0     H16069   7.124   3.565   9.768 -0.1836 -2.0239  0.4846
  122MOL0     H16070   7.040   3.726   9.920 -1.4183  1.3657  1.8642
  122MOL0     H16071   6.953   3.590   9.980  3.8395 -0.2610  0.6643
  122MOL0     H16072   6.736   3.731   9.969  0.0002  1.0364 -1.1587
  122MOL0     H16073   6.851   3.861   9.946  0.4234 -1.0935 -2.5281
  122MOL0     H16074   6.866   3.681  10.196  2.0057 -1.1281 -2.1904
  122MOL0     H16075   6.773   3.842  10.177 -1.2663 -2.1821 -1.5364
  122MOL0     H16076   7.061   3.799  10.142 -1.2562 -1.0917 -1.0988
  122MOL0     H16077   6.979   3.956  10.132  1.5183  1.2241 -0.2451
  122MOL0     H16078   6.982   3.802  10.405  2.3492  0.7027  0.2748
  122MOL0     H16079   6.925   3.961  10.381 -0.4402 -1.7099  1.6962
  122MOL0     H16080   7.126   3.991  10.478  1.1213  1.1031  0.6354
  122MOL0     H16081   7.106   4.053  10.314  0.3005  0.4839  0.9981
  122MOL0     H16082   7.258   3.801  10.406 -0.9782 -0.9827 -1.8934
  122MOL0     H16083   7.259   3.859  10.237  0.4456 -1.1079  0.7282
  122MOL0     H16084   7.379   4.002  10.480 -4.7778  1.1209  0.8655
  122MOL0     H16085   7.356   4.085  10.326  1.8687 -1.1811 -2.8582
  122MOL0     H16086   6.703   3.484   9.728  0.3036  0.9805 -0.3728
  122MOL0     H16087   6.762   3.257   9.639  0.5684 -2.4729  2.6049
  122MOL0     H16088   6.832   2.786   9.686  0.2716 -0.6953  1.5866
  122MOL0     H16089   6.918   2.598   9.579 -0.1450  0.4936 -2.1034
  122MOL0     H16090   8.821   2.806   9.685  1.3071  1.8704  1.2769
  122MOL0     H16091   9.014   2.656   9.683  4.6995 -0.5530 -0.6493
  122MOL0     H16092   9.265   2.473   9.670 -0.3572  0.7354 -2.6361
  122MOL0     H16093   9.369   2.241   9.727 -1.1931  1.3492 -1.0917
  122MOL0     H16094   9.781   2.192   9.565  2.0285 -1.9131 -2.4403
  122MOL0     H16095   9.702   2.112   9.434  1.3309  4.2699  0.0816
  122MOL0     H16096   9.791   2.000   9.711 -3.5087 -2.0680  1.0982
  122MOL0     H16097   9.696   1.897   9.591  1.5671 -2.2456 -0.7533
  122MOL0     H16098   9.958   2.017   9.510  0.2513  0.1518 -1.1673
  122MOL0     H16099   9.855   1.900   9.427 -1.4641  0.5085  1.3286
  122MOL0     H16100   9.883   1.750   9.634  1.0838 -1.1880 -0.6131
  122MOL0     H16101  10.018   1.761   9.516 -1.5131  0.3984 -1.2388
  122MOL0     H16102  10.144   1.963   9.884 -1.3645  1.0050 -0.3030
  122MOL0     H16103   9.673   2.347   9.437 -0.4141 -0.5452 -1.2060
  122MOL0     H16104   9.584   2.561   9.407 -1.1897 -0.6707 -1.1844
  123MOL0     O16105   4.055   8.515   8.844 -0.1075  0.2800 -0.6354
  123MOL0     C16106   4.063   8.432   8.757 -0.5156  0.8349 -0.0489
  123MOL0     O16107   3.967   8.347   8.713  0.7756 -0.3618 -0.8028
  123MOL0     C16108   3.848   8.350   8.783  0.2630 -0.1383  0.2164
  123MOL0     C16109   3.838   8.356   8.921  0.5812  0.5298 -0.0800
  123MOL0     C16110   3.714   8.349   8.992 -0.7060  0.3008  0.3147
  123MOL0     C16111   3.597   8.357   8.917  0.5411 -0.1541  0.0086
  123MOL0     O16112   3.468   8.354   8.972  0.0716  0.2411 -0.2296
  123MOL0     C16113   3.425   8.236   9.038  0.4835  0.0472  0.6218
  123MOL0     C16114   3.310   8.159   8.963 -0.2073 -0.8890 -0.8996
  123MOL0     C16115   3.173   8.228   8.962  0.6165  0.4703  0.9505
  123MOL0     C16116   3.069   8.138   8.893 -0.6991 -0.0081  0.3514
  123MOL0     C16117   2.920   8.187   8.896  0.2045  0.3347  0.2600
  123MOL0     C16118   2.901   8.329   8.850 -0.2080 -0.7751 -0.5346
  123MOL0     C16119   2.752   8.364   8.835  0.2361 -0.2751  0.2409
  123MOL0     C16120   2.698   8.295   8.709  0.6388 -0.1935 -0.2548
  123MOL0     N16121   2.573   8.356   8.662 -0.5405 -0.0841 -0.6552
  123MOL0     C16122   2.446   8.306   8.675 -0.0412 -0.2688 -0.3277
  123MOL0     C16123   2.368   8.383   8.599  0.2098 -0.1253 -0.3082
  123MOL0     C16124   2.222   8.367   8.577 -0.2282 -0.0203  0.7927
  123MOL0     C16125   2.130   8.301   8.679  0.1112  0.4515  0.1716
  123MOL0     C16126   1.999   8.364   8.713  0.2687 -0.4984 -0.1733
  123MOL0     C16127   1.911   8.390   8.591 -0.5551  0.1128 -0.2986
  123MOL0     O16128   1.783   8.415   8.651 -0.3408  0.3598  0.4465
  123MOL0     C16129   1.675   8.406   8.567  0.4335 -0.6995  0.3127
  123MOL0     C16130   1.560   8.377   8.634 -0.2131 -0.1343 -0.0091
  123MOL0     C16131   1.436   8.373   8.563 -0.5147 -0.3716  0.1477
  123MOL0     C16132   1.439   8.389   8.417  0.6618  0.2873  0.4360
  123MOL0     C16133   1.313   8.372   8.338 -0.0115 -0.2573  0.2709
  123MOL0     O16134   1.324   8.386   8.204  0.1189 -0.6658  0.9803
  123MOL0     C16135   1.210   8.415   8.138  0.4014  0.3884  0.7322
  123MOL0     C16136   1.108   8.501   8.183 -0.0445  0.4354  0.4626
  123MOL0     C16137   1.009   8.534   8.091  0.2417  0.2148 -0.3487
  123MOL0     C16138   1.014   8.492   7.955  1.0390 -0.2330 -0.3404
  123MOL0     O16139   0.909   8.539   7.879  0.4004 -0.0119 -0.3209
  123MOL0     C16140   0.943   8.574   7.741 -0.7719  0.4288 -0.4639
  123MOL0     C16141   1.014   8.712   7.732  0.1796 -0.4607  0.7313
  123MOL0     C16142   0.948   8.824   7.806  0.4498 -0.0953 -0.0868
  123MOL0     C16143   1.051   8.948   7.814 -0.1593 -1.0651  0.6964
  123MOL0     C16144   0.990   9.061   7.895  0.0013  0.7077  1.4335
  123MOL0     C16145   1.093   9.174   7.923  0.1634  0.6609 -0.2214
  123MOL0     C16146   1.130   9.257   7.802 -0.5181 -0.3716  0.4773
  123MOL0     C16147   1.250   9.339   7.846  0.4207 -0.0853  0.0994
  123MOL0    Cl16148   1.327   9.418   7.703 -0.1868 -0.1381 -0.4259
  123MOL0     C16149   1.114   8.408   7.915 -0.5944  0.3723  0.0315
  123MOL0     C16150   1.209   8.371   8.008  0.2910  0.5313 -0.5379
  123MOL0     O16151   1.206   8.357   8.395  0.3677 -0.2463 -0.3877
  123MOL0     C16152   1.562   8.410   8.349  0.0212  0.0855 -0.3098
  123MOL0     C16153   1.679   8.416   8.426  0.8831 -0.7503  0.2796
  123MOL0     N16154   2.446   8.478   8.543 -0.2707 -0.2543 -0.9644
  123MOL0     N16155   2.570   8.465   8.577 -0.4932 -0.0362 -0.0056
  123MOL0     C16156   3.604   8.361   8.780  0.0344 -0.0020 -0.0472
  123MOL0     C16157   3.724   8.365   8.713 -0.4107  0.0069 -0.1629
  123MOL0     C16158   4.196   8.410   8.682  0.3047 -0.5812 -0.1842
  123MOL0     C16159   4.297   8.506   8.690  0.3374  0.7972 -0.4773
  123MOL0     C16160   4.421   8.488   8.630  0.3017  0.1927  0.1375
  123MOL0     C16161   4.452   8.367   8.569 -0.2436 -0.3834  0.1124
  123MOL0     O16162   4.580   8.327   8.529 -0.2219  0.5504  0.0096
  123MOL0     C16163   4.695   8.415   8.546  0.4725 -0.0451  0.2348
  123MOL0     C16164   4.826   8.333   8.542 -0.1325 -0.8573  0.6514
  123MOL0     C16165   4.958   8.422   8.599  0.3094  0.1251  0.0783
  123MOL0     C16166   5.051   8.334   8.666  0.1291  0.4350  0.8376
  123MOL0     C16167   5.165   8.408   8.717  0.4129 -0.2150 -0.2027
  123MOL0     C16168   5.251   8.481   8.754  0.2622 -1.6278  0.6861
  123MOL0     C16169   4.352   8.273   8.562  0.1817 -0.0012  0.3693
  123MOL0     C16170   4.221   8.296   8.606 -0.0327 -0.4038  0.3932
  123MOL0     H16171   3.929   8.343   8.979 -0.4940 -0.9825  1.3794
  123MOL0     H16172   3.704   8.362   9.100 -1.0504  0.3968  0.2721
  123MOL0     H16173   3.392   8.251   9.142 -0.8197 -1.7309  0.5147
  123MOL0     H16174   3.509   8.166   9.038 -1.0995 -1.9355  1.0742
  123MOL0     H16175   3.300   8.060   9.010 -2.0553 -1.4241 -2.3176
  123MOL0     H16176   3.346   8.132   8.864 -0.5650 -2.1845 -0.6991
  123MOL0     H16177   3.185   8.313   8.894 -1.9247  0.2991  0.2115
  123MOL0     H16178   3.147   8.265   9.062  0.8590 -1.0459  1.6004
  123MOL0     H16179   3.101   8.123   8.789 -2.1334 -1.1873  0.0648
  123MOL0     H16180   3.088   8.041   8.940  1.8799  0.4855  0.5139
  123MOL0     H16181   2.872   8.174   8.994 -1.6690 -0.7302 -0.7470
  123MOL0     H16182   2.871   8.132   8.816  1.6591  0.4578 -0.7507
  123MOL0     H16183   2.948   8.359   8.756  0.0452  1.3993  0.2346
  123MOL0     H16184   2.952   8.405   8.911 -0.3102 -0.3701 -0.9461
  123MOL0     H16185   2.694   8.342   8.925 -1.4585 -0.2263 -0.7761
  123MOL0     H16186   2.746   8.473   8.824  0.4594 -0.4233 -1.9103
  123MOL0     H16187   2.697   8.187   8.731  3.0592 -0.4652 -1.1207
  123MOL0     H16188   2.763   8.302   8.621  0.4874 -1.4835 -0.4959
  123MOL0     H16189   2.416   8.226   8.741 -0.4956 -0.2148 -0.4672
  123MOL0     H16190   2.184   8.322   8.485 -1.5092 -2.7351  2.5244
  123MOL0     H16191   2.185   8.470   8.576 -0.4381 -0.0633 -1.7113
  123MOL0     H16192   2.190   8.298   8.770  1.6734  3.2679 -0.6572
  123MOL0     H16193   2.118   8.198   8.646 -0.7961  1.0150 -1.3411
  123MOL0     H16194   1.943   8.298   8.779 -0.5035 -0.2756 -0.5818
  123MOL0     H16195   2.027   8.450   8.774  3.6618 -1.3747 -0.3116
  123MOL0     H16196   1.911   8.305   8.522  0.2296  0.8530 -1.2330
  123MOL0     H16197   1.942   8.477   8.534  2.8359 -1.4970 -1.1862
  123MOL0     H16198   1.561   8.376   8.743 -0.5855 -2.2115  0.0139
  123MOL0     H16199   1.344   8.374   8.622 -2.2941 -1.8905 -2.3813
  123MOL0     H16200   1.107   8.540   8.284  0.8647  0.5816  0.4232
  123MOL0     H16201   0.927   8.596   8.126  1.5874  1.0581  1.5277
  123MOL0     H16202   0.842   8.568   7.701 -0.6451  0.4241 -0.7889
  123MOL0     H16203   0.999   8.496   7.688 -0.7507 -0.0973  0.3243
  123MOL0     H16204   1.025   8.743   7.627 -0.6484  0.0036  0.7694
  123MOL0     H16205   1.113   8.704   7.777  0.0600  1.5903  1.4820
  123MOL0     H16206   0.916   8.800   7.907  2.2825  0.3887  0.6602
  123MOL0     H16207   0.860   8.851   7.747  1.0090  0.8700 -0.5265
  123MOL0     H16208   1.152   8.921   7.847 -0.0299 -0.8490  0.4868
  123MOL0     H16209   1.069   8.982   7.711 -1.5198  1.7689  1.3167
  123MOL0     H16210   0.951   9.021   7.989 -2.2227  0.7109  0.5660
  123MOL0     H16211   0.898   9.095   7.847  0.3938  0.0781  0.2106
  123MOL0     H16212   1.180   9.126   7.969  0.5235 -0.0286 -1.5648
  123MOL0     H16213   1.047   9.240   7.997 -1.6118  1.9076 -2.3218
  123MOL0     H16214   1.160   9.208   7.709  1.4595 -0.5936  1.1875
  123MOL0     H16215   1.051   9.328   7.779  0.0366  0.5014  1.2006
  123MOL0     H16216   1.324   9.272   7.892 -1.1885 -0.4208  2.3777
  123MOL0     H16217   1.227   9.415   7.921  1.7087  1.1258 -0.6823
  123MOL0     H16218   1.135   8.380   7.812  3.2689  0.8052  0.5365
  123MOL0     H16219   1.287   8.307   7.969 -2.0502 -1.9968 -1.3323
  123MOL0     H16220   1.566   8.431   8.243  1.8356  0.1350 -0.2575
  123MOL0     H16221   1.777   8.441   8.387  0.5131 -1.5165 -1.2689
  123MOL0     H16222   3.506   8.360   8.733 -0.0177  0.7508  0.0234
  123MOL0     H16223   3.712   8.370   8.605 -1.8692  5.4651 -0.0578
  123MOL0     H16224   4.287   8.590   8.758  1.3199 -0.1678  0.9325
  123MOL0     H16225   4.488   8.573   8.634  0.2046  0.4868 -2.5398
  123MOL0     H16226   4.695   8.467   8.642 -1.5987 -0.6065  0.5903
  123MOL0     H16227   4.687   8.487   8.463 -0.6205  0.2833  0.6087
  123MOL0     H16228   4.810   8.250   8.611 -2.8560 -1.1605 -0.2076
  123MOL0     H16229   4.852   8.287   8.446  5.5389 -1.6269  2.1971
  123MOL0     H16230   4.909   8.483   8.675 -1.6861 -2.4659  1.0303
  123MOL0     H16231   5.001   8.488   8.523  0.0318  2.4303  1.8033
  123MOL0     H16232   4.996   8.275   8.739 -0.2410 -2.2164 -1.4120
  123MOL0     H16233   5.093   8.263   8.593 -1.6365  1.5525 -1.3644
  123MOL0     H16234   5.309   8.561   8.796  3.3881 -4.3158  1.9565
  123MOL0     H16235   4.364   8.181   8.505  1.7269  0.5914 -0.3292
  123MOL0     H16236   4.151   8.213   8.597  0.6847 -0.9528 -0.2635
  124MOL0     O16237   1.494   0.798   2.104  0.2050  0.7321 -0.5228
  124MOL0     C16238   1.487   0.780   1.981 -0.0576 -0.0029 -0.2431
  124MOL0     O16239   1.368   0.768   1.916 -0.5208 -0.3894 -0.3564
  124MOL0     C16240   1.253   0.742   1.988 -0.1729  0.0404 -0.3179
  124MOL0     C16241   1.130   0.769   1.924  0.1333 -0.1274  0.4260
  124MOL0     C16242   1.009   0.748   1.986 -0.5378  0.3283  0.0209
  124MOL0     C16243   0.997   0.679   2.107  0.0832  0.1879  0.6051
  124MOL0     O16244   0.879   0.639   2.173  0.6325  0.8666  0.5721
  124MOL0     C16245   0.762   0.692   2.122 -0.8752  0.1670  0.5415
  124MOL0     C16246   0.659   0.670   2.227  0.5147 -0.7460 -0.3207
  124MOL0     C16247   0.670   0.777   2.335  0.0911 -0.5919 -0.7030
  124MOL0     C16248   0.573   0.765   2.452 -0.6416  0.5171  0.1925
  124MOL0     C16249   0.431   0.804   2.403  0.0560 -0.1987 -0.2768
  124MOL0     C16250   0.332   0.788   2.527  0.3105 -0.6447  0.6086
  124MOL0     C16251   0.183   0.808   2.488  1.0639 -0.3517  0.2791
  124MOL0     C16252   0.126   0.710   2.385 -0.2299 -0.0686  0.3856
  124MOL0     N16253   0.168   0.574   2.416  0.0396  0.2851 -0.7572
  124MOL0     C16254   0.103   0.478   2.491 -0.8035 -0.1909  0.9899
  124MOL0     C16255   0.160   0.359   2.461  0.3904  0.2336  0.8901
  124MOL0     C16256   0.144   0.234   2.537  1.0076  0.6305 -0.2359
  124MOL0     C16257   0.061   0.125   2.449  0.7994  0.2660  0.2564
  124MOL0     C16258   0.125   0.111   2.321 -0.3263  1.2707 -0.1382
  124MOL0     C16259   0.089  -0.025   2.254 -0.0843 -0.5258 -0.3788
  124MOL0     O16260  -0.055  -0.062   2.256  0.7743  0.0319 -0.0363
  124MOL0     C16261  -0.146   0.010   2.181  0.8722 -0.1198  0.2669
  124MOL0     C16262  -0.284  -0.008   2.201  0.1633  1.1226 -0.3422
  124MOL0     C16263  -0.372   0.062   2.123  0.3118  0.7589 -0.1168
  124MOL0     C16264  -0.333   0.147   2.027 -0.2232  0.1420  0.3141
  124MOL0     C16265  -0.429   0.226   1.942  0.5913  0.3420  0.4151
  124MOL0     O16266  -0.378   0.333   1.882 -0.0948  0.4134 -0.0993
  124MOL0     C16267  -0.465   0.406   1.800  0.8340  0.2672 -0.0367
  124MOL0     C16268  -0.487   0.374   1.666 -0.7306  0.4195 -0.3538
  124MOL0     C16269  -0.587   0.443   1.596  0.2456 -0.2085  0.7706
  124MOL0     C16270  -0.648   0.556   1.645  0.5025 -0.0378 -0.2815
  124MOL0     O16271  -0.730   0.623   1.557  0.2275  0.2406 -0.1705
  124MOL0     C16272  -0.740   0.769   1.573  0.4823  1.1201  0.2157
  124MOL0     C16273  -0.792   0.824   1.448 -0.1237 -0.7515  1.1318
  124MOL0     C16274  -0.930   0.762   1.411  0.5376  0.3096  0.0104
  124MOL0     C16275  -0.983   0.827   1.276 -0.0902 -0.3578 -0.8415
  124MOL0     C16276  -1.109   0.757   1.230 -0.0319  0.5704  0.1649
  124MOL0     C16277  -1.161   0.800   1.092 -0.3005 -0.6065 -0.5142
  124MOL0     C16278  -1.175   0.949   1.073  0.4692 -0.1236 -0.3363
  124MOL0     C16279  -1.233   0.993   0.940  0.0764  0.3866  0.0895
  124MOL0    Cl16280  -1.400   0.929   0.923  0.3290 -0.5119  0.0986
  124MOL0     C16281  -0.620   0.599   1.773 -0.3903 -0.6519  0.4195
  124MOL0     C16282  -0.527   0.524   1.856  1.1451  1.4336 -0.3174
  124MOL0     O16283  -0.550   0.196   1.932 -0.5638  1.0017 -0.9319
  124MOL0     C16284  -0.199   0.175   2.017 -0.7744  0.0173  0.6852
  124MOL0     C16285  -0.102   0.110   2.092  0.4698 -0.1030 -0.2236
  124MOL0     N16286   0.264   0.387   2.377 -0.3028  0.0595  0.5181
  124MOL0     N16287   0.275   0.512   2.354  0.3829 -0.3601 -0.5869
  124MOL0     C16288   1.118   0.633   2.158  0.2369  0.1682 -1.2112
  124MOL0     C16289   1.243   0.677   2.116 -0.2636 -0.3097 -0.1051
  124MOL0     C16290   1.613   0.769   1.891 -1.2202  0.0569 -0.2901
  124MOL0     C16291   1.601   0.705   1.766  0.7060 -0.7759  0.7046
  124MOL0     C16292   1.715   0.709   1.687  0.9320  0.9699 -0.1751
  124MOL0     C16293   1.837   0.760   1.729 -0.3098  1.1825 -0.2709
  124MOL0     O16294   1.952   0.763   1.661  0.1832  0.4114 -0.0488
  124MOL0     C16295   1.959   0.694   1.533  0.1604 -0.5041  0.3124
  124MOL0     C16296   2.099   0.685   1.480 -1.0796 -0.4102  1.0904
  124MOL0     C16297   2.144   0.549   1.424  0.3905  0.0721 -0.1152
  124MOL0     C16298   2.296   0.546   1.387 -0.1343 -0.4775  0.6900
  124MOL0     C16299   2.312   0.653   1.276 -0.4263 -0.0682 -0.1443
  124MOL0     C16300   2.328   0.728   1.177 -0.2053 -0.0507 -0.0956
  124MOL0     C16301   1.846   0.812   1.852 -0.1634  0.1125 -0.3828
  124MOL0     C16302   1.732   0.814   1.935 -0.2594 -0.8489  0.3394
  124MOL0     H16303   1.131   0.812   1.824  1.7022 -0.8892  0.0632
  124MOL0     H16304   0.917   0.778   1.938  1.1215  0.5449 -3.3800
  124MOL0     H16305   0.736   0.647   2.025 -0.7540 -0.7026  0.9092
  124MOL0     H16306   0.770   0.801   2.116 -4.6708  0.5760  0.0312
  124MOL0     H16307   0.673   0.568   2.265  1.6652  0.0674  1.5996
  124MOL0     H16308   0.567   0.679   2.170 -0.1159  0.5927  0.8509
  124MOL0     H16309   0.650   0.875   2.289  2.2818 -0.4880 -1.5846
  124MOL0     H16310   0.765   0.790   2.387 -1.5542  0.5791  2.2641
  124MOL0     H16311   0.569   0.661   2.488 -0.6029  0.1752 -0.7744
  124MOL0     H16312   0.605   0.836   2.528  1.2061 -1.0270  0.9638
  124MOL0     H16313   0.396   0.744   2.319 -0.9877  0.0090 -0.0116
  124MOL0     H16314   0.429   0.907   2.365 -2.1541 -0.5000 -1.1118
  124MOL0     H16315   0.363   0.853   2.608 -1.3746  0.0698  0.7249
  124MOL0     H16316   0.339   0.688   2.571 -0.4008 -1.4285 -0.9705
  124MOL0     H16317   0.140   0.805   2.589  1.9851  1.7681  0.7895
  124MOL0     H16318   0.162   0.909   2.452  0.8908  0.7853  3.2920
  124MOL0     H16319   0.146   0.723   2.278 -2.9557  0.7934 -0.1087
  124MOL0     H16320   0.019   0.717   2.405 -0.0049 -0.1819  1.7419
  124MOL0     H16321   0.028   0.496   2.567 -1.2520  1.1009  0.2719
  124MOL0     H16322   0.081   0.259   2.623 -0.5955  2.6837 -1.8936
  124MOL0     H16323   0.232   0.182   2.575 -0.7578 -1.7466  0.8650
  124MOL0     H16324  -0.044   0.153   2.431  0.0668 -3.1814 -1.7314
  124MOL0     H16325   0.069   0.040   2.517  1.5743  0.6247  0.6196
  124MOL0     H16326   0.085   0.192   2.259 -1.9714 -0.4569 -1.4723
  124MOL0     H16327   0.234   0.110   2.333 -0.0871  0.2779 -2.0090
  124MOL0     H16328   0.144  -0.099   2.313  3.6385  1.8407 -0.5791
  124MOL0     H16329   0.135  -0.028   2.155  0.9171  0.2635  0.0447
  124MOL0     H16330  -0.304  -0.095   2.263 -0.3700  1.0266 -0.6510
  124MOL0     H16331  -0.476   0.034   2.137  0.8060 -2.5691 -1.9968
  124MOL0     H16332  -0.427   0.292   1.628  0.3558 -0.2435  2.5544
  124MOL0     H16333  -0.595   0.408   1.494  0.8152 -2.7218  1.5060
  124MOL0     H16334  -0.638   0.804   1.588  1.4467 -1.4650  0.1976
  124MOL0     H16335  -0.810   0.796   1.653  1.7919  1.1313  1.3975
  124MOL0     H16336  -0.726   0.804   1.363  0.1465  0.9556  0.9220
  124MOL0     H16337  -0.800   0.932   1.463  0.3680 -0.3692 -1.0196
  124MOL0     H16338  -1.001   0.768   1.494  2.0598  2.0863  1.2771
  124MOL0     H16339  -0.920   0.653   1.403  2.5509  0.3442  1.2755
  124MOL0     H16340  -1.011   0.932   1.287 -1.3965 -0.4927 -2.5436
  124MOL0     H16341  -0.898   0.817   1.208  1.6699  0.2033  1.1283
  124MOL0     H16342  -1.193   0.770   1.299 -0.2695 -0.7205  0.1407
  124MOL0     H16343  -1.088   0.650   1.224  0.5284  0.6409  0.7657
  124MOL0     H16344  -1.252   0.754   1.052  0.1758 -0.8931 -1.3022
  124MOL0     H16345  -1.098   0.756   1.014  1.0747  1.2032 -0.5032
  124MOL0     H16346  -1.250   0.982   1.146 -0.1838 -2.7034  0.2707
  124MOL0     H16347  -1.088   1.014   1.085 -0.7625  1.7470 -0.9643
  124MOL0     H16348  -1.167   0.972   0.855  0.1929  2.3003 -0.3329
  124MOL0     H16349  -1.237   1.101   0.953  1.3162  0.2680  1.8554
  124MOL0     H16350  -0.670   0.685   1.815  1.0938  0.6731 -0.4282
  124MOL0     H16351  -0.503   0.540   1.961  0.6424 -0.6505  0.1550
  124MOL0     H16352  -0.158   0.247   1.947 -0.6110  1.4017  2.1349
  124MOL0     H16353  -0.002   0.140   2.062  1.3267 -1.7414  0.8500
  124MOL0     H16354   1.105   0.592   2.258  1.6379  1.0375 -0.6514
  124MOL0     H16355   1.327   0.655   2.182  1.5469 -2.0771 -2.8001
  124MOL0     H16356   1.509   0.653   1.741  1.7285 -2.3062 -0.0164
  124MOL0     H16357   1.703   0.665   1.589  4.3563  1.2274 -0.8464
  124MOL0     H16358   1.894   0.740   1.457  0.5600  1.9968  1.3918
  124MOL0     H16359   1.920   0.594   1.557 -0.1540 -0.4648 -0.0115
  124MOL0     H16360   2.109   0.764   1.405 -1.3439  0.8006  2.2730
  124MOL0     H16361   2.163   0.706   1.566  0.4088 -0.5858  0.0533
  124MOL0     H16362   2.091   0.523   1.332 -2.0878 -1.1347  1.5488
  124MOL0     H16363   2.106   0.467   1.486 -0.5219 -1.3174 -2.3972
  124MOL0     H16364   2.363   0.570   1.469 -0.2334  2.5113  0.0047
  124MOL0     H16365   2.338   0.448   1.362 -0.2328  0.5267 -4.7314
  124MOL0     H16366   2.365   0.784   1.094  2.5818 -1.6581 -0.0950
  124MOL0     H16367   1.946   0.832   1.889 -0.0492 -0.4248 -0.3982
  124MOL0     H16368   1.742   0.854   2.035  0.6772  0.9635 -0.4227
  125MOL0     O16369   8.276   0.458   3.477 -0.2000 -0.1409  0.2583
  125MOL0     C16370   8.321   0.553   3.539  0.2465  0.2267  0.6790
  125MOL0     O16371   8.257   0.673   3.561  0.1991  0.8787 -0.4411
  125MOL0     C16372   8.124   0.672   3.518  0.2711 -0.0258 -0.0769
  125MOL0     C16373   8.013   0.645   3.598  0.6927 -0.5481 -0.8216
  125MOL0     C16374   7.879   0.627   3.540 -0.3205  1.2386 -0.0724
  125MOL0     C16375   7.863   0.659   3.400  0.8560 -0.4786  0.5086
  125MOL0     O16376   7.743   0.651   3.325  0.1038  0.1221 -0.2697
  125MOL0     C16377   7.630   0.614   3.396  0.1752 -0.9027  0.5879
  125MOL0     C16378   7.525   0.567   3.295  0.2947 -0.1594  0.3364
  125MOL0     C16379   7.400   0.497   3.361 -0.8702 -0.9497 -0.6081
  125MOL0     C16380   7.317   0.427   3.260  0.0041  0.1805 -0.4859
  125MOL0     C16381   7.197   0.346   3.323 -0.2262  0.0188  0.4388
  125MOL0     C16382   7.057   0.365   3.251  0.3989 -0.4022 -0.5128
  125MOL0     C16383   6.939   0.322   3.350 -0.2825 -0.4009 -0.5108
  125MOL0     C16384   6.817   0.297   3.265  0.1591 -0.0562  0.4806
  125MOL0     N16385   6.707   0.259   3.343 -0.7907  0.3339 -0.4231
  125MOL0     C16386   6.658   0.133   3.368 -0.7455 -0.3975  0.3264
  125MOL0     C16387   6.560   0.152   3.464 -0.7603  0.0332 -0.8771
  125MOL0     C16388   6.489   0.038   3.533  0.6680  0.4192 -0.4545
  125MOL0     C16389   6.343   0.077   3.577 -0.7413  0.7443 -0.3895
  125MOL0     C16390   6.280  -0.035   3.673 -0.4637 -0.1199  0.5961
  125MOL0     C16391   6.129  -0.039   3.683  0.0024  0.7262 -0.3538
  125MOL0     O16392   6.087   0.077   3.752  0.6403 -0.4662 -0.4107
  125MOL0     C16393   5.965   0.078   3.822  0.4739 -1.0586  0.7602
  125MOL0     C16394   5.854  -0.013   3.791 -0.5654  0.5216 -0.5994
  125MOL0     C16395   5.730   0.001   3.850 -0.1372 -1.1174 -0.1226
  125MOL0     C16396   5.710   0.103   3.954  0.9694 -0.1765 -0.8933
  125MOL0     C16397   5.579   0.125   4.018 -0.3092 -0.3409  0.2848
  125MOL0     O16398   5.475   0.058   3.959  0.6428 -0.3027  0.1539
  125MOL0     C16399   5.348   0.088   4.005  0.3797 -0.1590  0.0684
  125MOL0     C16400   5.288   0.219   4.000  0.1646  0.6204 -1.1381
  125MOL0     C16401   5.156   0.244   4.051 -0.7875  0.1083  0.0312
  125MOL0     C16402   5.086   0.136   4.102 -0.7061  0.0501 -0.3442
  125MOL0     O16403   4.960   0.152   4.142  0.1149 -0.8704 -0.0211
  125MOL0     C16404   4.924   0.109   4.273 -0.0007  0.8948  0.4621
  125MOL0     C16405   4.774   0.139   4.292  0.0362 -0.7403  0.0195
  125MOL0     C16406   4.709   0.043   4.391  0.3006 -0.6465 -0.1391
  125MOL0     C16407   4.557   0.063   4.389  0.0600  0.5247  0.2518
  125MOL0     C16408   4.500  -0.025   4.497 -0.3120  0.1651  0.5280
  125MOL0     C16409   4.356  -0.058   4.491  1.1670  0.2449 -0.0495
  125MOL0     C16410   4.269   0.077   4.517 -0.2143 -0.0391 -0.0845
  125MOL0     C16411   4.119   0.055   4.493  0.3899 -0.4434 -0.2379
  125MOL0    Cl16412   4.085   0.044   4.309 -0.2290  0.0552  0.1772
  125MOL0     C16413   5.140   0.003   4.100  0.2666 -1.1213  0.6094
  125MOL0     C16414   5.267  -0.018   4.048  0.0048  0.1893 -0.2559
  125MOL0     O16415   5.570   0.193   4.118  0.2173  0.6168 -0.9838
  125MOL0     C16416   5.819   0.186   3.984 -0.2388  0.4733 -0.1327
  125MOL0     C16417   5.940   0.180   3.912 -0.9615  0.0691 -0.4374
  125MOL0     N16418   6.553   0.288   3.503 -0.7707 -0.6687  0.3441
  125MOL0     N16419   6.632   0.348   3.421  0.2444  0.3838 -0.0083
  125MOL0     C16420   7.977   0.685   3.327 -0.0162  0.4994  0.4605
  125MOL0     C16421   8.098   0.692   3.382  0.1709 -0.3243  0.8061
  125MOL0     C16422   8.463   0.545   3.580 -0.4972  0.0339 -0.0593
  125MOL0     C16423   8.514   0.652   3.651  0.3956 -0.5005 -0.1947
  125MOL0     C16424   8.651   0.657   3.689 -0.4037 -0.0428  0.0318
  125MOL0     C16425   8.734   0.559   3.630 -0.6913 -0.0438  0.4978
  125MOL0     O16426   8.867   0.583   3.661  0.5727 -0.3590 -0.0998
  125MOL0     C16427   8.967   0.508   3.592  0.1222 -0.0055 -0.3155
  125MOL0     C16428   9.108   0.524   3.659  0.2346  0.4731  0.9361
  125MOL0     C16429   9.098   0.489   3.804  0.0945  0.0364  0.2320
  125MOL0     C16430   9.237   0.513   3.876 -0.2274 -0.4220 -0.3150
  125MOL0     C16431   9.355   0.476   3.797  0.7800  0.8807 -0.9616
  125MOL0     C16432   9.443   0.450   3.714  0.0353 -0.0578  1.0689
  125MOL0     C16433   8.679   0.454   3.558 -0.1228 -0.3343  0.0435
  125MOL0     C16434   8.548   0.448   3.531 -0.0355  0.1749 -0.0869
  125MOL0     H16435   8.028   0.615   3.702  0.8369 -1.6608 -1.1546
  125MOL0     H16436   7.806   0.601   3.617  0.9639  2.0917  1.5039
  125MOL0     H16437   7.593   0.685   3.471  0.8804 -2.6295  2.6638
  125MOL0     H16438   7.653   0.531   3.463  1.0265  0.6729  2.3338
  125MOL0     H16439   7.578   0.499   3.229  1.6758 -0.8250  2.0495
  125MOL0     H16440   7.498   0.649   3.227  1.6943  0.6059  0.6623
  125MOL0     H16441   7.332   0.570   3.405 -1.2804 -0.7514 -1.5457
  125MOL0     H16442   7.435   0.429   3.440  0.9449  1.0045  0.3587
  125MOL0     H16443   7.268   0.499   3.194  2.6594  1.1061 -1.6057
  125MOL0     H16444   7.374   0.357   3.198 -0.1431 -0.9371  0.6119
  125MOL0     H16445   7.170   0.388   3.421 -5.0448 -0.5343 -0.4027
  125MOL0     H16446   7.227   0.242   3.337 -1.2234 -0.1327  1.5935
  125MOL0     H16447   7.064   0.304   3.160  2.0203 -0.9538 -0.0576
  125MOL0     H16448   7.036   0.468   3.220  1.6181 -0.8088 -2.9872
  125MOL0     H16449   6.970   0.229   3.398  1.6075  1.0500  1.2708
  125MOL0     H16450   6.924   0.394   3.431  1.1857 -2.1113  1.4093
  125MOL0     H16451   6.837   0.222   3.187  0.2804 -0.4410  0.8813
  125MOL0     H16452   6.803   0.392   3.214 -0.2317 -0.4649 -0.1958
  125MOL0     H16453   6.702   0.045   3.323 -1.6084 -0.0089 -1.3349
  125MOL0     H16454   6.538  -0.006   3.621 -1.5505 -2.7148 -0.6060
  125MOL0     H16455   6.483  -0.045   3.461 -0.0325  0.7571 -0.7968
  125MOL0     H16456   6.292   0.083   3.480  0.1033  0.0594 -0.8890
  125MOL0     H16457   6.348   0.175   3.625 -1.0596  1.6531 -2.1235
  125MOL0     H16458   6.312  -0.128   3.626  2.9099  0.6035  1.1642
  125MOL0     H16459   6.329  -0.028   3.771 -0.8719  3.8044  0.6974
  125MOL0     H16460   6.091  -0.126   3.737 -1.1000  1.4255  0.0224
  125MOL0     H16461   6.096  -0.048   3.579  0.9804  1.1616 -0.7137
  125MOL0     H16462   5.860  -0.094   3.719 -0.4025 -0.5485  0.5857
  125MOL0     H16463   5.652  -0.061   3.808  0.8898 -3.4757  1.2368
  125MOL0     H16464   5.350   0.298   3.961  2.2385 -1.2766 -1.9317
  125MOL0     H16465   5.125   0.347   4.044  0.2737  0.5006  0.8206
  125MOL0     H16466   4.987   0.156   4.349 -0.0848  1.7984 -0.0128
  125MOL0     H16467   4.934   0.000   4.278 -0.3716  0.8764  0.8131
  125MOL0     H16468   4.720   0.131   4.198  2.7415  1.9321 -1.9291
  125MOL0     H16469   4.769   0.241   4.330  2.1987  0.2059 -1.9673
  125MOL0     H16470   4.742   0.062   4.494 -1.7000 -0.9918  0.5977
  125MOL0     H16471   4.734  -0.057   4.355  0.4792 -1.5892  2.3948
  125MOL0     H16472   4.531   0.164   4.423  0.3044 -0.3194  3.2586
  125MOL0     H16473   4.521   0.033   4.291 -0.4341 -0.8121  0.8254
  125MOL0     H16474   4.530   0.011   4.596  0.6653  0.6113  0.0769
  125MOL0     H16475   4.553  -0.120   4.483 -1.6099 -0.1293 -3.6787
  125MOL0     H16476   4.330  -0.140   4.558 -0.3859  0.0315 -0.8783
  125MOL0     H16477   4.338  -0.088   4.387  0.8562 -0.4196  0.1869
  125MOL0     H16478   4.298   0.124   4.611  0.5624 -1.5146  0.4404
  125MOL0     H16479   4.310   0.145   4.441  0.6588 -2.5959 -2.0181
  125MOL0     H16480   4.063   0.139   4.535 -2.9109 -1.4410 -2.3297
  125MOL0     H16481   4.081  -0.042   4.527 -0.9017 -0.5107 -1.7605
  125MOL0     H16482   5.077  -0.077   4.137 -2.5527  1.9099  2.8344
  125MOL0     H16483   5.309  -0.118   4.056  0.0113  0.3237  1.9393
  125MOL0     H16484   5.806   0.268   4.055  0.5471  2.1838 -1.8678
  125MOL0     H16485   6.027   0.244   3.926  0.2128 -0.6606 -3.6039
  125MOL0     H16486   7.960   0.705   3.221 -1.0866  0.2365  0.5710
  125MOL0     H16487   8.185   0.709   3.318  0.2563  0.2815  1.0727
  125MOL0     H16488   8.449   0.735   3.675  0.3139 -0.4767 -0.4944
  125MOL0     H16489   8.703   0.731   3.749 -0.6979  0.7891 -0.7170
  125MOL0     H16490   8.971   0.539   3.487  1.2215  2.3999  0.3524
  125MOL0     H16491   8.947   0.401   3.603  2.0888 -0.5336 -1.3276
  125MOL0     H16492   9.171   0.449   3.610 -0.9762 -1.0793  1.6598
  125MOL0     H16493   9.152   0.623   3.647  0.1903  0.4860  0.8804
  125MOL0     H16494   9.084   0.381   3.807 -0.3046  0.0077 -1.4780
  125MOL0     H16495   9.013   0.543   3.846 -0.6959  0.2665 -1.5643
  125MOL0     H16496   9.249   0.619   3.898 -2.0099 -0.2128 -0.1352
  125MOL0     H16497   9.240   0.459   3.972  1.3035  1.2098  0.6103
  125MOL0     H16498   9.517   0.434   3.639 -1.8665  0.9496 -1.1737
  125MOL0     H16499   8.740   0.375   3.516  0.2707  1.4379 -3.0348
  125MOL0     H16500   8.509   0.369   3.469 -0.8364  0.6747 -0.2349
  126MOL0     O16501   0.479   4.465  10.116 -0.8823 -0.3362 -0.2534
  126MOL0     C16502   0.536   4.539  10.195 -0.5869  0.1379 -0.8576
  126MOL0     O16503   0.480   4.634  10.278  0.5565  0.4042 -1.0321
  126MOL0     C16504   0.342   4.644  10.291  1.0441  0.0354 -0.0364
  126MOL0     C16505   0.261   4.701  10.187  0.0859 -0.4272 -0.6914
  126MOL0     C16506   0.124   4.722  10.218  0.5035 -0.7863  0.9153
  126MOL0     C16507   0.063   4.661  10.331  0.6181 -0.8367  0.3726
  126MOL0     O16508  -0.072   4.684  10.339  0.0180  0.5211  0.1895
  126MOL0     C16509  -0.146   4.635  10.453  0.1409  0.8132 -1.0125
  126MOL0     C16510  -0.294   4.654  10.438  0.6793 -0.1118 -0.6859
  126MOL0     C16511  -0.363   4.565  10.332 -0.3803  0.3463  0.2374
  126MOL0     C16512  -0.515   4.573  10.346 -0.8657  0.4203  0.4305
  126MOL0     C16513  -0.590   4.489  10.244  0.9692  0.2623 -0.1487
  126MOL0     C16514  -0.745   4.512  10.230 -0.0245  0.2842  0.1076
  126MOL0     C16515  -0.808   4.508  10.369 -0.2240 -0.6201 -0.4534
  126MOL0     C16516  -0.955   4.540  10.353 -0.9417 -0.3449  0.6994
  126MOL0     N16517  -1.021   4.551  10.485  0.0481 -0.4652  1.1459
  126MOL0     C16518  -1.081   4.447  10.552 -1.1847  0.1144 -0.8655
  126MOL0     C16519  -1.146   4.502  10.652  0.7284 -0.5094 -0.5494
  126MOL0     C16520  -1.237   4.425  10.747 -0.4718 -0.8061 -0.5607
  126MOL0     C16521  -1.378   4.426  10.691 -0.3441 -0.2556  0.5907
  126MOL0     C16522  -1.468   4.335  10.776 -0.5003 -0.3058 -0.3831
  126MOL0     C16523  -1.621   4.361  10.754  0.4376 -0.2219 -0.5451
  126MOL0     O16524  -1.652   4.499  10.791 -0.1803  0.0868  0.0713
  126MOL0     C16525  -1.781   4.549  10.787 -0.0834 -0.4883  0.1475
  126MOL0     C16526  -1.885   4.485  10.710  0.2593 -0.0182 -0.4903
  126MOL0     C16527  -2.017   4.536  10.720 -0.0631  0.6389 -0.2620
  126MOL0     C16528  -2.040   4.656  10.794  0.7304  0.1633 -0.7811
  126MOL0     C16529  -2.177   4.707  10.810  0.3433  0.2113 -0.0121
  126MOL0     O16530  -2.273   4.636  10.761  0.0059  0.0604 -1.2329
  126MOL0     C16531  -2.401   4.703  10.748  0.0866 -0.7688 -0.7572
  126MOL0     C16532  -2.464   4.801  10.837 -0.0501 -0.9193  0.0511
  126MOL0     C16533  -2.600   4.842  10.811 -0.0122 -0.5431  0.4476
  126MOL0     C16534  -2.668   4.800  10.697 -0.1953  1.3810  0.6296
  126MOL0     O16535  -2.798   4.834  10.663 -0.5501  0.4799  0.5983
  126MOL0     C16536  -2.881   4.859  10.770  0.1135 -0.0662  0.5209
  126MOL0     C16537  -3.017   4.821  10.709 -0.2047 -0.4446  0.5038
  126MOL0     C16538  -3.075   4.936  10.627 -0.3918  0.2200  0.4447
  126MOL0     C16539  -3.221   4.919  10.591  0.5996  0.9968  0.5570
  126MOL0     C16540  -3.268   5.037  10.517  0.5459 -0.1038 -0.4354
  126MOL0     C16541  -3.295   5.159  10.611 -0.0383  0.7734 -0.1940
  126MOL0     C16542  -3.334   5.285  10.536 -0.3155 -0.8847  0.2547
  126MOL0     C16543  -3.398   5.384  10.633  0.3104  0.3526 -1.5103
  126MOL0    Cl16544  -3.447   5.527  10.545 -0.3179 -0.1363  0.0744
  126MOL0     C16545  -2.602   4.704  10.614  0.5663  0.0121 -0.1027
  126MOL0     C16546  -2.478   4.655  10.649 -0.3638 -0.3439 -0.0524
  126MOL0     O16547  -2.191   4.810  10.870  0.0738  0.1432 -0.5251
  126MOL0     C16548  -1.936   4.723  10.854  0.1457 -0.3315  0.4557
  126MOL0     C16549  -1.806   4.677  10.850  0.5254  0.9117  0.0064
  126MOL0     N16550  -1.118   4.638  10.661 -0.1900 -0.3095 -0.3251
  126MOL0     N16551  -1.037   4.660  10.568  0.6663  0.2073 -0.2315
  126MOL0     C16552   0.142   4.589  10.418  0.1031 -0.1517  0.1838
  126MOL0     C16553   0.279   4.575  10.395  0.6881  0.2443  0.5881
  126MOL0     C16554   0.688   4.545  10.202  0.2973 -0.8864  1.3683
  126MOL0     C16555   0.768   4.451  10.136  0.4813  0.0745 -0.5407
  126MOL0     C16556   0.912   4.450  10.151 -0.1197  0.5627  0.4191
  126MOL0     C16557   0.977   4.561  10.195 -0.3886  0.3470 -0.3536
  126MOL0     O16558   1.114   4.587  10.188  0.3432  0.6161 -0.1644
  126MOL0     C16559   1.204   4.494  10.126  0.0659 -0.4408  0.1557
  126MOL0     C16560   1.343   4.495  10.198  0.6116 -0.6843  0.1968
  126MOL0     C16561   1.393   4.635  10.222 -0.1349 -0.5011 -0.4159
  126MOL0     C16562   1.523   4.621  10.297  0.0506 -0.4471 -0.4867
  126MOL0     C16563   1.590   4.744  10.320  0.1202  0.1987 -0.6579
  126MOL0     C16564   1.665   4.841  10.344 -0.5016  0.2393  0.4910
  126MOL0     C16565   0.894   4.653  10.259 -1.2819 -0.0328  0.0323
  126MOL0     C16566   0.757   4.653  10.266  0.1384  0.8356  0.7467
  126MOL0     H16567   0.309   4.749  10.103  1.9081 -0.5294  0.2370
  126MOL0     H16568   0.068   4.776  10.143  1.9885  1.1590  1.1343
  126MOL0     H16569  -0.117   4.695  10.539  1.6269 -0.4344 -0.5884
  126MOL0     H16570  -0.122   4.530  10.474 -0.4478  0.7839 -0.4738
  126MOL0     H16571  -0.317   4.760  10.421 -0.4309 -0.4789 -1.6369
  126MOL0     H16572  -0.333   4.631  10.537  0.8335 -0.6470 -0.7448
  126MOL0     H16573  -0.337   4.459  10.332 -3.7421 -0.6153 -1.7568
  126MOL0     H16574  -0.330   4.605  10.235 -1.7341 -4.3047 -2.4695
  126MOL0     H16575  -0.535   4.527  10.443  0.2667  0.3354  0.6334
  126MOL0     H16576  -0.540   4.679  10.350  0.7491  0.8344  0.3415
  126MOL0     H16577  -0.582   4.382  10.265 -0.4628  0.6039  2.6132
  126MOL0     H16578  -0.545   4.512  10.147 -1.2279 -2.2731 -1.9230
  126MOL0     H16579  -0.787   4.437  10.163 -0.1694  0.2209  0.2663
  126MOL0     H16580  -0.763   4.608  10.181 -2.0417  0.6713  1.4725
  126MOL0     H16581  -0.808   4.410  10.419  1.6561  0.4557  1.8576
  126MOL0     H16582  -0.770   4.576  10.445 -0.2259  0.9560 -1.8076
  126MOL0     H16583  -0.998   4.462  10.289  0.3573  0.1398 -0.8337
  126MOL0     H16584  -0.958   4.641  10.310  0.5601  0.8295  3.1280
  126MOL0     H16585  -1.079   4.342  10.524  1.3144  0.0555 -0.6820
  126MOL0     H16586  -1.238   4.475  10.845  0.7231  4.3214 -2.8485
  126MOL0     H16587  -1.208   4.321  10.765  1.1108 -0.1379  1.1273
  126MOL0     H16588  -1.371   4.379  10.592 -0.8411 -0.0108  0.4404
  126MOL0     H16589  -1.416   4.528  10.681 -0.5203 -0.5287 -2.3671
  126MOL0     H16590  -1.438   4.231  10.758  4.3045  0.8394 -0.3674
  126MOL0     H16591  -1.460   4.361  10.882 -0.9651 -0.3326 -0.3419
  126MOL0     H16592  -1.689   4.291  10.804  0.0353 -1.3984 -2.6016
  126MOL0     H16593  -1.648   4.338  10.650 -1.3806  1.9799 -0.6284
  126MOL0     H16594  -1.871   4.387  10.667  2.8220  0.4565 -0.9120
  126MOL0     H16595  -2.103   4.484  10.678  0.7246 -1.7547  0.8848
  126MOL0     H16596  -2.409   4.849  10.917  0.3794 -0.2058 -0.6549
  126MOL0     H16597  -2.658   4.901  10.881  0.8793 -0.5315  1.1944
  126MOL0     H16598  -2.875   4.965  10.797  0.7965 -0.3353  1.4990
  126MOL0     H16599  -2.862   4.793  10.855  0.7478 -0.5208  0.0366
  126MOL0     H16600  -3.083   4.809  10.795 -0.2230  3.5920  1.2537
  126MOL0     H16601  -3.019   4.726  10.654  1.5130  0.6297 -1.5807
  126MOL0     H16602  -3.026   4.941  10.529 -0.7553  0.1228  0.2593
  126MOL0     H16603  -3.059   5.029  10.682  0.4682  0.0139  0.5597
  126MOL0     H16604  -3.226   4.837  10.519  5.7435  1.1334 -0.3133
  126MOL0     H16605  -3.277   4.897  10.683 -0.5538 -2.6246 -0.8243
  126MOL0     H16606  -3.359   5.004  10.468  2.4978 -1.5417 -3.3784
  126MOL0     H16607  -3.197   5.047  10.434  3.0708 -1.7617  1.3666
  126MOL0     H16608  -3.198   5.177  10.658  0.6582 -1.5738 -0.6145
  126MOL0     H16609  -3.372   5.131  10.684 -0.3645 -2.1360 -1.5177
  126MOL0     H16610  -3.252   5.330  10.479  0.0167  0.4002  1.6786
  126MOL0     H16611  -3.416   5.258  10.468  1.2203 -1.3666 -1.4707
  126MOL0     H16612  -3.343   5.420  10.720  0.0117  0.6025 -1.4200
  126MOL0     H16613  -3.489   5.342  10.677  1.0752 -0.4874 -0.6932
  126MOL0     H16614  -2.657   4.655  10.534  0.1964  0.9052 -0.4120
  126MOL0     H16615  -2.431   4.577  10.589 -0.2730 -2.1580  2.2322
  126MOL0     H16616  -1.948   4.811  10.915 -1.2345 -1.1774  1.4588
  126MOL0     H16617  -1.735   4.739  10.904 -0.3850  2.2413 -0.2890
  126MOL0     H16618   0.095   4.536  10.501  1.8250 -0.2842  1.1238
  126MOL0     H16619   0.342   4.520  10.465  1.0889  1.3222  1.1026
  126MOL0     H16620   0.726   4.360  10.094  0.4115  0.0071 -0.3251
  126MOL0     H16621   0.957   4.371  10.091 -0.6242  0.5980 -0.0123
  126MOL0     H16622   1.219   4.516  10.020  1.3158 -2.3853 -0.1254
  126MOL0     H16623   1.169   4.392  10.144  0.2881 -0.6621 -0.6156
  126MOL0     H16624   1.325   4.444  10.293 -2.8805  0.9406  0.5736
  126MOL0     H16625   1.414   4.435  10.141 -0.4597  0.5716 -2.6069
  126MOL0     H16626   1.320   4.688  10.284  0.3012 -2.9398  2.3912
  126MOL0     H16627   1.413   4.682  10.125 -0.0709 -1.5332 -0.9134
  126MOL0     H16628   1.511   4.568  10.392 -2.5414 -0.6450 -0.8368
  126MOL0     H16629   1.584   4.550  10.241 -0.5450  0.2908 -2.1448
  126MOL0     H16630   1.733   4.919  10.374 -1.1584 -0.0077  2.8167
  126MOL0     H16631   0.946   4.733  10.311 -1.5625 -1.2284  2.2574
  126MOL0     H16632   0.712   4.732  10.325  0.4648  0.5510  1.3918
  127MOL0     O16633   1.174  10.418   2.699  0.3317 -0.0606  0.6459
  127MOL0     C16634   1.165  10.507   2.619  0.2697 -0.3968  0.0202
  127MOL0     O16635   1.048  10.545   2.551 -0.3233  0.0336 -0.1584
  127MOL0     C16636   0.928  10.483   2.575 -0.5093  0.2105  0.3844
  127MOL0     C16637   0.860  10.436   2.457 -0.1026  0.5947 -0.6988
  127MOL0     C16638   0.729  10.381   2.458  0.5340 -0.4355 -0.0342
  127MOL0     C16639   0.657  10.379   2.580 -0.6148 -0.2756  0.0946
  127MOL0     O16640   0.527  10.341   2.599 -0.1977  0.3135  0.0433
  127MOL0     C16641   0.452  10.266   2.491  0.0053 -1.0064 -0.5715
  127MOL0     C16642   0.327  10.203   2.556  0.1323 -0.0552 -0.6239
  127MOL0     C16643   0.271  10.085   2.470  0.5636  0.9174 -0.1537
  127MOL0     C16644   0.133  10.037   2.537 -0.0305  0.0169  0.5195
  127MOL0     C16645   0.104   9.886   2.518 -0.2751  0.1216  0.4515
  127MOL0     C16646   0.206   9.785   2.573  0.0123  1.2295  0.7710
  127MOL0     C16647   0.159   9.642   2.545  0.2713 -0.3854  0.0346
  127MOL0     C16648   0.056   9.593   2.637  0.2402  0.2122 -0.4336
  127MOL0     N16649   0.052   9.448   2.650 -0.0994 -0.9880  0.0965
  127MOL0     C16650  -0.026   9.363   2.583  0.1247  0.2892 -0.4144
  127MOL0     C16651   0.010   9.238   2.628 -0.7921 -0.1885 -0.3282
  127MOL0     C16652  -0.030   9.102   2.582 -0.5720 -0.7872  0.4687
  127MOL0     C16653  -0.186   9.081   2.571  0.0509 -0.0648 -0.4052
  127MOL0     C16654  -0.227   8.945   2.532 -0.3291 -0.2923  1.0373
  127MOL0     C16655  -0.218   8.941   2.377 -0.1165  0.1369 -0.2720
  127MOL0     O16656  -0.318   9.006   2.311  0.8592 -0.1208  0.0844
  127MOL0     C16657  -0.443   8.961   2.303  0.6124  1.2188  0.3925
  127MOL0     C16658  -0.545   9.047   2.278  0.3513  0.1306 -0.3481
  127MOL0     C16659  -0.671   9.000   2.248 -0.5338 -0.3397 -0.6636
  127MOL0     C16660  -0.706   8.867   2.260 -0.5678 -0.0923 -0.8649
  127MOL0     C16661  -0.840   8.827   2.221  0.9639 -0.0054 -0.1314
  127MOL0     O16662  -0.937   8.921   2.237  0.5939  0.0808  0.2102
  127MOL0     C16663  -1.060   8.924   2.173  0.0279  0.5754  0.0230
  127MOL0     C16664  -1.163   8.985   2.247  0.4968  0.7246 -0.6348
  127MOL0     C16665  -1.292   9.003   2.196  0.6375 -0.7212 -0.2198
  127MOL0     C16666  -1.313   8.960   2.064  0.8009  0.0515 -0.1391
  127MOL0     O16667  -1.436   8.970   2.013  0.4262  0.3836  0.1821
  127MOL0     C16668  -1.531   9.069   2.024  0.0301 -0.6198 -0.0101
  127MOL0     C16669  -1.657   9.039   1.933 -0.6329 -0.2947 -0.0196
  127MOL0     C16670  -1.731   9.169   1.900 -0.7095 -0.1981 -0.4871
  127MOL0     C16671  -1.671   9.250   1.793 -0.1812 -1.4776 -0.4233
  127MOL0     C16672  -1.767   9.358   1.743 -0.0866 -0.2168  0.2492
  127MOL0     C16673  -1.869   9.292   1.646 -0.7664  0.2111 -0.0261
  127MOL0     C16674  -1.942   9.403   1.565 -0.8534  0.0299 -0.2243
  127MOL0     C16675  -2.012   9.507   1.648  0.2114 -0.3688  0.0438
  127MOL0    Cl16676  -2.135   9.424   1.760  0.0217  0.0895 -0.1037
  127MOL0     C16677  -1.209   8.906   1.992 -0.5463  0.6972 -0.9040
  127MOL0     C16678  -1.086   8.886   2.044 -0.4526 -0.4410  0.4909
  127MOL0     O16679  -0.861   8.718   2.176 -0.7603  0.5943 -0.5976
  127MOL0     C16680  -0.602   8.779   2.305  0.7881  0.1058  1.0284
  127MOL0     C16681  -0.470   8.824   2.326  0.4918 -0.4831  0.2023
  127MOL0     N16682   0.104   9.254   2.732 -0.8035  0.2301 -0.3785
  127MOL0     N16683   0.126   9.378   2.747 -0.2656 -0.0474  0.1524
  127MOL0     C16684   0.729  10.421   2.693  1.2694  0.3000 -0.7713
  127MOL0     C16685   0.864  10.464   2.697 -0.2746  0.0348  0.9141
  127MOL0     C16686   1.295  10.578   2.586  0.2581 -0.1563  0.1626
  127MOL0     C16687   1.296  10.692   2.506 -0.3107 -0.3559 -0.4307
  127MOL0     C16688   1.423  10.753   2.473 -0.3161 -0.1461  0.0622
  127MOL0     C16689   1.542  10.713   2.538 -0.5717  0.3915 -0.2549
  127MOL0     O16690   1.656  10.779   2.502  0.1846 -0.1724  0.3304
  127MOL0     C16691   1.746  10.803   2.613 -0.1026 -0.2964 -0.4697
  127MOL0     C16692   1.809  10.940   2.604 -0.2951  0.4328 -0.1164
  127MOL0     C16693   1.710  11.056   2.632 -0.1531  0.0119 -0.2148
  127MOL0     C16694   1.646  11.107   2.493 -0.1096  0.0934 -0.1448
  127MOL0     C16695   1.729  11.195   2.406  0.1312 -0.5190 -0.1345
  127MOL0     C16696   1.805  11.272   2.347  0.2920 -0.1347  0.0422
  127MOL0     C16697   1.536  10.601   2.628  0.2008  0.7618 -0.2598
  127MOL0     C16698   1.417  10.534   2.649  0.3808  0.4555 -0.3547
  127MOL0     H16699   0.923  10.435   2.369 -0.2041  0.0120 -0.7701
  127MOL0     H16700   0.683  10.342   2.367  2.6445 -2.6774 -0.2374
  127MOL0     H16701   0.521  10.190   2.455 -0.5417 -0.7522 -2.2780
  127MOL0     H16702   0.411  10.338   2.419 -0.0134 -0.8507 -0.4048
  127MOL0     H16703   0.250  10.279   2.566 -0.1229 -0.2532 -1.0936
  127MOL0     H16704   0.355  10.170   2.657  3.5606  1.5376 -0.8831
  127MOL0     H16705   0.337  10.001   2.448 -0.5158  0.0631 -0.1916
  127MOL0     H16706   0.224  10.126   2.380 -1.1410 -1.5243 -0.4510
  127MOL0     H16707   0.134  10.059   2.644 -0.7011 -0.0963  0.5515
  127MOL0     H16708   0.054  10.100   2.496  0.5086  1.1072  1.1039
  127MOL0     H16709   0.088   9.869   2.411  0.5396 -4.1523  0.8096
  127MOL0     H16710   0.005   9.858   2.556 -0.2157  0.3822  0.8124
  127MOL0     H16711   0.211   9.809   2.680 -1.1397  0.5859  0.9839
  127MOL0     H16712   0.304   9.784   2.523 -0.2020 -0.3386  0.3253
  127MOL0     H16713   0.107   9.630   2.449 -0.1966 -0.1689  0.2560
  127MOL0     H16714   0.242   9.571   2.545  2.9282  2.4814  0.9655
  127MOL0     H16715  -0.043   9.636   2.617  0.9247  2.3349  0.4603
  127MOL0     H16716   0.092   9.632   2.733 -3.1999  0.0939  1.0536
  127MOL0     H16717  -0.093   9.384   2.500 -2.2140 -2.8222  0.5006
  127MOL0     H16718   0.017   9.030   2.650  0.0358 -0.5821  0.2752
  127MOL0     H16719   0.010   9.093   2.481  0.4581  1.4323  0.6230
  127MOL0     H16720  -0.226   9.154   2.499  1.5384 -1.3540 -2.6957
  127MOL0     H16721  -0.236   9.115   2.662  0.1027 -0.3755 -0.2615
  127MOL0     H16722  -0.164   8.877   2.589 -1.9687 -1.7524  1.1548
  127MOL0     H16723  -0.335   8.933   2.537 -0.4032 -1.5827 -1.7036
  127MOL0     H16724  -0.213   8.838   2.343  3.9509  0.3217 -0.6528
  127MOL0     H16725  -0.126   8.989   2.342  0.2072  1.7204  2.4627
  127MOL0     H16726  -0.535   9.155   2.282 -2.1675  0.4011  2.5151
  127MOL0     H16727  -0.741   9.076   2.215 -0.1218 -0.4905 -1.9380
  127MOL0     H16728  -1.136   9.015   2.348 -0.4111  0.2411 -0.2424
  127MOL0     H16729  -1.372   9.042   2.257 -0.1599 -2.3100 -0.2065
  127MOL0     H16730  -1.492   9.164   1.988 -3.4508  0.7567 -0.4756
  127MOL0     H16731  -1.561   9.090   2.127  0.7175  1.3589 -0.1685
  127MOL0     H16732  -1.729   8.970   1.978 -0.6565 -0.6515 -0.5924
  127MOL0     H16733  -1.623   8.989   1.842  1.3945  0.0072  0.5207
  127MOL0     H16734  -1.749   9.230   1.989 -1.2560  3.8439 -3.1053
  127MOL0     H16735  -1.833   9.145   1.867  0.2481 -0.7850 -3.3474
  127MOL0     H16736  -1.583   9.298   1.835  0.7487 -3.8196  0.4219
  127MOL0     H16737  -1.626   9.188   1.715  3.3618  1.6086 -1.1441
  127MOL0     H16738  -1.704   9.423   1.681  0.7723 -0.8464  0.4403
  127MOL0     H16739  -1.808   9.421   1.822  0.7163  1.2209 -0.4403
  127MOL0     H16740  -1.941   9.230   1.701 -3.1033  2.6142 -0.1015
  127MOL0     H16741  -1.812   9.230   1.577 -1.0081  0.3830 -0.3864
  127MOL0     H16742  -1.875   9.457   1.498 -0.7347 -0.2763 -0.3578
  127MOL0     H16743  -2.009   9.344   1.503 -1.7688  1.6007 -0.7786
  127MOL0     H16744  -2.072   9.577   1.590  0.6263 -0.3725 -0.3988
  127MOL0     H16745  -1.938   9.565   1.703 -0.1687 -0.3818  0.5773
  127MOL0     H16746  -1.219   8.881   1.887  5.3164  1.5738 -2.0183
  127MOL0     H16747  -1.007   8.840   1.985 -0.3515  0.7223 -0.2975
  127MOL0     H16748  -0.636   8.676   2.317 -0.3359  0.3335  0.0009
  127MOL0     H16749  -0.398   8.743   2.333  1.9445  0.4990 -2.0025
  127MOL0     H16750   0.682  10.425   2.791  1.5888  1.4810 -0.6523
  127MOL0     H16751   0.920  10.492   2.786  2.1025 -0.9087 -0.1927
  127MOL0     H16752   1.205  10.736   2.468 -0.2193  1.0102  0.8369
  127MOL0     H16753   1.417  10.822   2.389 -0.5424 -3.2006 -2.5791
  127MOL0     H16754   1.836  10.741   2.614  0.1740  0.0938 -0.8046
  127MOL0     H16755   1.694  10.807   2.709  0.3042  4.9939 -0.1819
  127MOL0     H16756   1.893  10.942   2.674 -0.3947 -1.4039  0.0969
  127MOL0     H16757   1.851  10.940   2.503 -2.3613 -2.1377 -1.0854
  127MOL0     H16758   1.771  11.135   2.678  0.7475  0.2039 -1.6388
  127MOL0     H16759   1.628  11.037   2.702 -1.7041  3.8007 -0.7395
  127MOL0     H16760   1.621  11.014   2.442  2.0826  0.1689 -1.5107
  127MOL0     H16761   1.550  11.154   2.517  0.3438 -0.3633  2.9122
  127MOL0     H16762   1.873  11.337   2.294 -0.9562  0.5307 -0.8032
  127MOL0     H16763   1.629  10.558   2.663  0.9538  1.6008 -1.1713
  127MOL0     H16764   1.412  10.459   2.727  1.1066  0.2746 -0.4722
  128MOL0     O16765   6.779   4.894   6.417  0.0961  0.6150 -1.4142
  128MOL0     C16766   6.811   4.790   6.357  0.2661 -0.4472 -0.5441
  128MOL0     O16767   6.718   4.691   6.322 -0.3703 -0.2086 -0.3547
  128MOL0     C16768   6.585   4.708   6.355 -0.0399  0.0913  0.0755
  128MOL0     C16769   6.541   4.759   6.477 -0.1210  0.4578 -1.1349
  128MOL0     C16770   6.416   4.811   6.489  0.5257 -0.3879 -0.2625
  128MOL0     C16771   6.314   4.770   6.400  0.4154 -0.4679  0.9005
  128MOL0     O16772   6.178   4.784   6.414  0.1902 -0.4439 -0.0017
  128MOL0     C16773   6.130   4.839   6.537 -0.7744  0.1765 -0.0272
  128MOL0     C16774   5.979   4.821   6.550  0.0421 -0.3419  0.4447
  128MOL0     C16775   5.894   4.917   6.473 -0.3781 -1.0064 -0.7250
  128MOL0     C16776   5.749   4.905   6.506 -0.3721 -0.0055 -0.2350
  128MOL0     C16777   5.673   5.026   6.441  0.4559  0.2802 -0.7378
  128MOL0     C16778   5.518   5.024   6.468  0.5474  0.4742 -0.1882
  128MOL0     C16779   5.471   5.052   6.606  0.4765 -0.1752 -0.6934
  128MOL0     C16780   5.524   5.180   6.666  0.2452  0.4241  0.3685
  128MOL0     N16781   5.494   5.305   6.590  0.5048  0.8345  0.4773
  128MOL0     C16782   5.385   5.385   6.620 -0.0105  0.5083  0.5276
  128MOL0     C16783   5.416   5.502   6.561  0.5202 -0.0253  0.2689
  128MOL0     C16784   5.322   5.621   6.551 -0.6432 -0.0816  0.0016
  128MOL0     C16785   5.338   5.707   6.677 -0.4787  0.0831 -0.4717
  128MOL0     C16786   5.222   5.808   6.703 -0.2264  0.3655  0.8808
  128MOL0     C16787   5.187   5.891   6.580  0.3440 -0.5335 -0.5490
  128MOL0     O16788   5.075   5.976   6.619 -0.7984  0.0582 -0.1250
  128MOL0     C16789   4.947   5.951   6.573 -0.9195 -0.1084 -0.3339
  128MOL0     C16790   4.853   6.049   6.591  0.0665 -0.6611  0.1098
  128MOL0     C16791   4.733   6.043   6.529  0.3710  0.3844  0.3909
  128MOL0     C16792   4.696   5.930   6.455  0.0245 -0.3488  0.4000
  128MOL0     C16793   4.564   5.934   6.392 -0.3205 -0.2188  0.6024
  128MOL0     O16794   4.472   6.016   6.451  0.5726 -0.1165  0.4032
  128MOL0     C16795   4.346   6.015   6.399  0.4718  0.1478  0.4179
  128MOL0     C16796   4.266   5.910   6.372  0.1370  0.3074  0.0051
  128MOL0     C16797   4.132   5.918   6.329 -0.5988 -0.3921 -0.0351
  128MOL0     C16798   4.073   6.041   6.314  0.3541  0.4061  0.2103
  128MOL0     O16799   3.941   6.038   6.282  0.4670 -0.0134 -0.2320
  128MOL0     C16800   3.859   6.143   6.337 -0.4393  0.3206  0.8494
  128MOL0     C16801   3.711   6.115   6.318  0.3728  0.0436 -0.7469
  128MOL0     C16802   3.626   6.232   6.383  0.1205 -0.3410 -0.6320
  128MOL0     C16803   3.474   6.212   6.365  0.9229  0.3595 -0.3199
  128MOL0     C16804   3.430   6.066   6.405 -0.9945 -0.2239 -0.3414
  128MOL0     C16805   3.288   6.071   6.448  0.6168  1.3869 -0.2495
  128MOL0     C16806   3.245   5.935   6.500  0.4093  0.3132 -0.0090
  128MOL0     C16807   3.090   5.926   6.535  0.0516  0.6565  0.3615
  128MOL0    Cl16808   2.991   5.924   6.383 -0.4790  0.0104  0.2589
  128MOL0     C16809   4.151   6.151   6.330 -0.4477 -1.0960  0.8699
  128MOL0     C16810   4.286   6.141   6.380  0.4281 -0.0356 -0.2604
  128MOL0     O16811   4.560   5.869   6.291  0.3252 -0.5150  0.9828
  128MOL0     C16812   4.786   5.822   6.446 -0.1935 -0.8959 -0.3239
  128MOL0     C16813   4.914   5.835   6.504  0.2094  0.5995  0.4568
  128MOL0     N16814   5.540   5.496   6.500 -0.1082 -0.2716 -0.8792
  128MOL0     N16815   5.586   5.374   6.515 -0.3736 -0.4464  0.0114
  128MOL0     C16816   6.358   4.716   6.277 -0.0029  0.7112 -0.2035
  128MOL0     C16817   6.487   4.686   6.256  0.0947 -0.1240 -0.3612
  128MOL0     C16818   6.951   4.751   6.327  0.8110 -0.0550 -0.4770
  128MOL0     C16819   6.983   4.644   6.235 -0.5532 -0.4991  0.2504
  128MOL0     C16820   7.124   4.597   6.222  0.0659  0.7241  0.8160
  128MOL0     C16821   7.222   4.658   6.301 -0.3494  0.1736  0.0784
  128MOL0     O16822   7.344   4.600   6.294 -0.2538 -0.4133 -0.3467
  128MOL0     C16823   7.463   4.686   6.294  0.1374  0.7293 -0.1772
  128MOL0     C16824   7.577   4.586   6.294  0.3249 -0.4453 -1.2149
  128MOL0     C16825   7.585   4.505   6.166  1.0371  0.1885 -0.8010
  128MOL0     C16826   7.711   4.422   6.177  0.0105  0.0727 -0.2286
  128MOL0     C16827   7.833   4.492   6.136  0.7959 -1.2730  0.3624
  128MOL0     C16828   7.934   4.529   6.089  0.6973 -0.2704  0.4732
  128MOL0     C16829   7.188   4.765   6.382  0.6007  0.2314  0.2696
  128MOL0     C16830   7.056   4.809   6.392 -0.1334  0.1867 -0.4476
  128MOL0     H16831   6.606   4.775   6.562 -1.6940  4.0243 -0.4061
  128MOL0     H16832   6.394   4.874   6.575 -0.8132  1.8799 -2.1174
  128MOL0     H16833   6.157   4.944   6.548 -0.6817  0.0398  1.2081
  128MOL0     H16834   6.178   4.780   6.616  0.6481  3.1001  1.4819
  128MOL0     H16835   5.953   4.835   6.655 -1.5758 -0.6455  0.1094
  128MOL0     H16836   5.958   4.718   6.520  0.3918 -0.3888  0.3494
  128MOL0     H16837   5.904   4.896   6.366  2.1377 -0.7309 -0.6173
  128MOL0     H16838   5.937   5.016   6.491 -0.3271 -0.9946 -0.9084
  128MOL0     H16839   5.708   4.811   6.467 -1.8347  0.1595  0.7915
  128MOL0     H16840   5.731   4.903   6.613 -1.3452  0.1727 -0.3789
  128MOL0     H16841   5.686   5.017   6.333 -0.0663 -0.1725 -0.7697
  128MOL0     H16842   5.715   5.122   6.472 -1.9742  1.1483  0.1170
  128MOL0     H16843   5.470   4.929   6.443  1.3808  0.2406 -0.9650
  128MOL0     H16844   5.464   5.095   6.404 -3.5067 -0.9359  1.3165
  128MOL0     H16845   5.362   5.053   6.609  0.4660 -0.4897 -0.8852
  128MOL0     H16846   5.501   4.971   6.674  0.1766 -0.1560 -0.5358
  128MOL0     H16847   5.628   5.185   6.699  0.5601  0.5748 -0.6198
  128MOL0     H16848   5.458   5.191   6.753 -0.5589 -0.9470 -0.0317
  128MOL0     H16849   5.295   5.360   6.675  1.2517  0.0970  2.4827
  128MOL0     H16850   5.222   5.577   6.557 -1.1355  0.9264 -0.5357
  128MOL0     H16851   5.332   5.689   6.466  0.0359  0.9129  0.8482
  128MOL0     H16852   5.435   5.757   6.668 -0.9405  1.0865 -0.0654
  128MOL0     H16853   5.342   5.630   6.754 -3.1702  1.2042  0.9235
  128MOL0     H16854   5.138   5.749   6.742 -1.4793 -0.2984 -2.4851
  128MOL0     H16855   5.254   5.879   6.780  1.3151  0.1453  0.4749
  128MOL0     H16856   5.170   5.848   6.481  0.9716 -1.2305 -0.3606
  128MOL0     H16857   5.276   5.948   6.552  0.3807 -0.4276 -0.2287
  128MOL0     H16858   4.875   6.141   6.643 -0.7988  2.0149 -3.8472
  128MOL0     H16859   4.667   6.127   6.549  1.4045  1.1632  0.6510
  128MOL0     H16860   4.322   5.817   6.363  0.1987  0.4504 -1.2665
  128MOL0     H16861   4.086   5.821   6.314 -0.0973 -1.4833  4.1669
  128MOL0     H16862   3.880   6.235   6.282 -2.1034 -0.8353 -1.9366
  128MOL0     H16863   3.879   6.143   6.445 -1.0145  0.7809  0.9619
  128MOL0     H16864   3.697   6.035   6.391 -0.7378  0.5528 -0.3777
  128MOL0     H16865   3.682   6.089   6.215 -3.5561 -0.6343  0.3459
  128MOL0     H16866   3.653   6.324   6.329 -0.5383 -0.4428 -1.1467
  128MOL0     H16867   3.653   6.248   6.488  1.9387 -0.9448 -0.9760
  128MOL0     H16868   3.428   6.284   6.433  1.7188  0.5150  0.0664
  128MOL0     H16869   3.440   6.238   6.264  0.5237  0.4903 -0.1543
  128MOL0     H16870   3.501   6.042   6.485  1.7547 -1.0542 -2.8574
  128MOL0     H16871   3.449   5.997   6.323  0.0100  0.8749 -1.0811
  128MOL0     H16872   3.215   6.088   6.369  0.5955  2.1882 -0.0689
  128MOL0     H16873   3.272   6.151   6.522  0.4630  0.6107  0.5691
  128MOL0     H16874   3.260   5.859   6.423 -2.8576  0.7769 -1.2480
  128MOL0     H16875   3.299   5.915   6.593  0.0338  3.5916  1.0347
  128MOL0     H16876   3.049   6.017   6.579 -1.9012 -0.6875  1.4807
  128MOL0     H16877   3.066   5.833   6.587  2.0539  0.4324  0.9542
  128MOL0     H16878   4.106   6.247   6.308 -1.8050 -1.5891  1.3871
  128MOL0     H16879   4.343   6.230   6.407  0.0753 -0.0845  0.6489
  128MOL0     H16880   4.762   5.733   6.389  1.6830 -1.4487 -0.3228
  128MOL0     H16881   4.978   5.748   6.503  1.3456  1.4152  1.1042
  128MOL0     H16882   6.292   4.704   6.191 -1.8555 -1.3048  1.3920
  128MOL0     H16883   6.531   4.653   6.162  1.0110 -0.7343  0.2625
  128MOL0     H16884   6.897   4.598   6.188 -0.9195 -0.7740  1.1758
  128MOL0     H16885   7.153   4.519   6.153  2.6688  1.0421  1.4713
  128MOL0     H16886   7.466   4.743   6.387 -0.0700  0.5286 -0.0474
  128MOL0     H16887   7.466   4.749   6.204  1.0066  0.7400 -0.1564
  128MOL0     H16888   7.667   4.647   6.306 -0.4595  0.4964  0.3253
  128MOL0     H16889   7.568   4.520   6.381 -1.6534 -0.3027 -1.2466
  128MOL0     H16890   7.581   4.569   6.078 -0.7123  4.5968  2.1613
  128MOL0     H16891   7.503   4.432   6.170  1.9789 -0.9075 -0.8296
  128MOL0     H16892   7.721   4.355   6.263  0.8409 -2.0432 -1.8762
  128MOL0     H16893   7.685   4.357   6.093 -2.5390  2.1072 -1.1345
  128MOL0     H16894   8.014   4.571   6.031  0.8279 -1.8356 -0.5716
  128MOL0     H16895   7.265   4.812   6.442  0.8128  1.5720 -0.9945
  128MOL0     H16896   7.029   4.894   6.454 -2.4261 -2.9125  3.2927
  129MOL0     O16897   9.065   9.652   0.493 -0.0271  0.3572  0.2005
  129MOL0     C16898   9.174   9.593   0.473 -0.2411 -0.8666  0.8306
  129MOL0     O16899   9.206   9.532   0.356  0.1491 -0.0401 -0.1648
  129MOL0     C16900   9.107   9.487   0.264 -0.5835  0.6829 -0.4307
  129MOL0     C16901   9.152   9.445   0.142  0.1102  0.5714  0.8152
  129MOL0     C16902   9.069   9.409   0.038 -0.4345 -0.6463  0.0677
  129MOL0     C16903   8.923   9.413   0.058 -0.3147 -0.0014 -0.8276
  129MOL0     O16904   8.829   9.387  -0.034  0.0416  0.2667  0.0583
  129MOL0     C16905   8.862   9.375  -0.171  0.3317 -0.6837 -0.4356
  129MOL0     C16906   8.746   9.353  -0.262  0.4537 -0.3793  0.6419
  129MOL0     C16907   8.659   9.479  -0.276 -0.2042 -0.2315  0.2453
  129MOL0     C16908   8.526   9.434  -0.339  0.7685  0.1737  0.2238
  129MOL0     C16909   8.437   9.546  -0.391  0.1199 -0.1670 -0.1471
  129MOL0     C16910   8.304   9.491  -0.441  0.1478 -0.0035  0.7310
  129MOL0     C16911   8.207   9.603  -0.502 -0.3794 -0.4136  0.6004
  129MOL0     C16912   8.069   9.557  -0.547  0.1840 -0.3959 -0.0912
  129MOL0     N16913   7.983   9.668  -0.584 -0.2333  0.1855  0.6242
  129MOL0     C16914   7.906   9.740  -0.503 -0.1190  0.1657 -0.3222
  129MOL0     C16915   7.841   9.825  -0.587  0.8062 -0.3097 -0.7935
  129MOL0     C16916   7.719   9.914  -0.553  0.5070  0.2527  0.4254
  129MOL0     C16917   7.608   9.923  -0.662 -0.9335 -0.3939  0.0308
  129MOL0     C16918   7.514  10.045  -0.630 -0.1650 -0.5354  0.4068
  129MOL0     C16919   7.440  10.024  -0.496  0.6288  0.3715  0.3516
  129MOL0     O16920   7.362  10.140  -0.475  0.2478 -0.2372 -0.6867
  129MOL0     C16921   7.279  10.155  -0.360  0.4725 -0.4221 -0.8373
  129MOL0     C16922   7.199  10.277  -0.352 -0.9578  0.7295 -0.5040
  129MOL0     C16923   7.113  10.306  -0.243 -0.5238  0.3030  0.6161
  129MOL0     C16924   7.088  10.213  -0.140 -0.0611  0.3565 -0.2563
  129MOL0     C16925   6.982  10.227  -0.036 -0.3918 -0.2942  0.0296
  129MOL0     O16926   6.970  10.132   0.067  1.0146  0.5097  0.3083
  129MOL0     C16927   6.863  10.155   0.151 -0.3839  0.8432 -0.8481
  129MOL0     C16928   6.733  10.135   0.105  0.9238 -0.0034 -0.1081
  129MOL0     C16929   6.628  10.151   0.200  0.4203  0.7672 -0.7706
  129MOL0     C16930   6.649  10.198   0.332 -0.0236 -0.5983  1.1469
  129MOL0     O16931   6.535  10.210   0.417 -0.9184  0.0073  0.7963
  129MOL0     C16932   6.554  10.231   0.561 -0.1079  0.6235  0.8199
  129MOL0     C16933   6.427  10.280   0.634  0.1607  0.0084 -0.4391
  129MOL0     C16934   6.334  10.158   0.652 -0.1009 -0.2246 -0.1323
  129MOL0     C16935   6.218  10.190   0.735  0.8922 -0.2247  0.0880
  129MOL0     C16936   6.133  10.064   0.764 -0.1210  0.1424 -0.3976
  129MOL0     C16937   5.995  10.100   0.835 -0.8806 -0.0072 -0.1189
  129MOL0     C16938   5.903   9.987   0.868  1.0575  0.1337 -0.3378
  129MOL0     C16939   5.788  10.028   0.956 -0.5755 -0.1221  0.1886
  129MOL0    Cl16940   5.652   9.901   0.949 -0.4624  0.0964 -0.1548
  129MOL0     C16941   6.784  10.196   0.381  0.0091 -0.1412 -0.2542
  129MOL0     C16942   6.891  10.182   0.285  0.3352 -0.3541  0.0443
  129MOL0     O16943   6.906  10.319  -0.053 -0.3459  0.1736  0.0886
  129MOL0     C16944   7.173  10.096  -0.151  1.1177 -0.3695  0.4415
  129MOL0     C16945   7.260  10.064  -0.258  1.1341  0.4585 -0.3223
  129MOL0     N16946   7.870   9.788  -0.715  0.1869  0.0496  0.0219
  129MOL0     N16947   7.957   9.693  -0.713 -0.0214  0.5637  1.2321
  129MOL0     C16948   8.876   9.439   0.182  0.1652 -0.5020  0.1130
  129MOL0     C16949   8.963   9.487   0.280 -1.1308 -0.9658 -0.4508
  129MOL0     C16950   9.277   9.597   0.579 -0.2236 -0.2072 -0.5437
  129MOL0     C16951   9.279   9.685   0.689  0.3133  0.3675  0.6355
  129MOL0     C16952   9.392   9.693   0.781  0.7866  0.2847 -0.1068
  129MOL0     C16953   9.484   9.592   0.780  0.1935  0.0303  0.5525
  129MOL0     O16954   9.596   9.594   0.867 -0.8312  0.5855  0.4523
  129MOL0     C16955   9.718   9.535   0.808 -0.2885  0.8656  0.6937
  129MOL0     C16956   9.840   9.590   0.877  0.6979  0.4439  0.3043
  129MOL0     C16957   9.839   9.550   1.028 -0.3094 -0.1407  0.0144
  129MOL0     C16958   9.943   9.617   1.108 -0.2179  0.3598  0.2634
  129MOL0     C16959  10.080   9.561   1.089  0.0631  0.6571 -0.3889
  129MOL0     C16960  10.193   9.517   1.102 -0.2853  0.9656  0.2302
  129MOL0     C16961   9.479   9.492   0.677 -0.3697  0.5735  0.8186
  129MOL0     C16962   9.379   9.502   0.578 -0.4538 -0.2996 -0.2247
  129MOL0     H16963   9.259   9.446   0.122 -0.1222  0.0104 -0.5820
  129MOL0     H16964   9.114   9.402  -0.060 -0.7149  2.2495 -0.3437
  129MOL0     H16965   8.938   9.299  -0.195  0.1249 -0.8103 -0.6908
  129MOL0     H16966   8.911   9.464  -0.211  0.3436 -1.0089 -1.1763
  129MOL0     H16967   8.688   9.266  -0.230  0.5028 -0.8327 -0.4569
  129MOL0     H16968   8.791   9.343  -0.362 -0.3999  3.5756 -0.3092
  129MOL0     H16969   8.709   9.552  -0.340 -1.0769  1.1161  1.0582
  129MOL0     H16970   8.658   9.525  -0.176  0.9405 -0.6338  0.4665
  129MOL0     H16971   8.550   9.375  -0.428 -2.2920  0.5625 -1.0110
  129MOL0     H16972   8.467   9.374  -0.269  0.8920  3.0834  3.0318
  129MOL0     H16973   8.489   9.605  -0.467 -0.2791 -0.1052 -0.3743
  129MOL0     H16974   8.392   9.605  -0.310 -1.7049  0.9505 -1.8604
  129MOL0     H16975   8.256   9.434  -0.361  2.1413 -0.3176  1.7671
  129MOL0     H16976   8.336   9.426  -0.523 -1.6969  1.5243 -1.3152
  129MOL0     H16977   8.191   9.673  -0.420  1.2096  2.6125 -1.4927
  129MOL0     H16978   8.255   9.655  -0.585  0.4444 -1.3628  0.4586
  129MOL0     H16979   8.021   9.512  -0.459 -1.4317 -0.9662 -1.2142
  129MOL0     H16980   8.066   9.481  -0.625 -0.1272 -0.5106  0.0301
  129MOL0     H16981   7.910   9.735  -0.395  1.1118 -1.1245 -0.3913
  129MOL0     H16982   7.761  10.013  -0.534 -1.9837  1.4978 -0.2149
  129MOL0     H16983   7.681   9.876  -0.458  0.1744 -0.2646  0.0917
  129MOL0     H16984   7.554   9.828  -0.675 -3.8566  1.2993 -1.1078
  129MOL0     H16985   7.654   9.943  -0.759  1.7015 -0.4364  1.1940
  129MOL0     H16986   7.577  10.134  -0.626 -0.6366 -0.0504 -1.8293
  129MOL0     H16987   7.440  10.068  -0.707  0.0028 -0.2513  0.3280
  129MOL0     H16988   7.497  10.001  -0.406  1.1221  0.5150  0.0769
  129MOL0     H16989   7.369   9.943  -0.512  0.2356  1.0637 -1.7215
  129MOL0     H16990   7.204  10.346  -0.435 -0.0266  1.9868  0.5373
  129MOL0     H16991   7.058  10.400  -0.247 -1.1820 -0.1194 -1.2894
  129MOL0     H16992   6.701  10.108   0.005 -0.6887 -0.6895  0.5516
  129MOL0     H16993   6.530  10.130   0.157  0.4890 -0.0446 -0.5297
  129MOL0     H16994   6.627  10.312   0.571  0.8635 -0.1538  0.1904
  129MOL0     H16995   6.604  10.141   0.598  1.8188  0.3257 -2.2092
  129MOL0     H16996   6.371  10.349   0.570 -0.7227 -0.5533 -0.2933
  129MOL0     H16997   6.442  10.327   0.732  0.5566  0.0086 -0.4986
  129MOL0     H16998   6.389  10.078   0.703 -1.7971  1.4960  5.0330
  129MOL0     H16999   6.309  10.114   0.555 -2.0964 -0.0173  0.2488
  129MOL0     H17000   6.258  10.228   0.830 -0.4447 -2.2521  1.5487
  129MOL0     H17001   6.163  10.274   0.691  1.2235  0.3958  0.8254
  129MOL0     H17002   6.197  10.005   0.830  1.5058  0.3408 -1.7433
  129MOL0     H17003   6.122  10.015   0.667  2.3890  1.6708 -1.5616
  129MOL0     H17004   5.954  10.172   0.764  0.6838 -0.0308 -1.1094
  129MOL0     H17005   6.016  10.158   0.926  0.3765  0.7379 -0.8489
  129MOL0     H17006   5.846   9.962   0.778  1.1436 -0.1717 -0.3058
  129MOL0     H17007   5.970   9.906   0.899  0.2576 -0.0354  1.0035
  129MOL0     H17008   5.743  10.122   0.922  0.7657  0.5521  0.2144
  129MOL0     H17009   5.828  10.027   1.058  1.6179 -2.0505 -0.5773
  129MOL0     H17010   6.814  10.201   0.485  0.8958 -1.8219 -0.3946
  129MOL0     H17011   6.991  10.207   0.319 -0.4219  2.0272  0.7266
  129MOL0     H17012   7.159  10.018  -0.077  0.3064 -3.9416 -3.0956
  129MOL0     H17013   7.301   9.963  -0.264 -0.9835 -0.4312 -0.9618
  129MOL0     H17014   8.769   9.454   0.189  0.1435  2.7289 -3.6469
  129MOL0     H17015   8.918   9.524   0.371  0.3408  0.1209 -0.1271
  129MOL0     H17016   9.198   9.756   0.703 -0.6889 -0.9247  1.6276
  129MOL0     H17017   9.395   9.773   0.854 -2.4176  2.5978 -2.2042
  129MOL0     H17018   9.726   9.569   0.704 -1.9821 -1.8768 -0.4466
  129MOL0     H17019   9.719   9.427   0.794  0.6013  0.8394  0.8941
  129MOL0     H17020   9.928   9.538   0.837  1.0615  0.2718  1.2885
  129MOL0     H17021   9.863   9.697   0.873 -0.1404  0.8139  3.1936
  129MOL0     H17022   9.838   9.440   1.029 -2.1204 -0.1514  0.5583
  129MOL0     H17023   9.749   9.596   1.070 -1.1721 -2.0088  0.3083
  129MOL0     H17024   9.951   9.722   1.078  1.0811 -0.4129 -2.4409
  129MOL0     H17025   9.931   9.618   1.217 -0.5660 -0.5393  0.2449
  129MOL0     H17026  10.292   9.479   1.120 -0.3572  0.1780 -0.9113
  129MOL0     H17027   9.558   9.418   0.666 -0.9196  0.0759  0.1507
  129MOL0     H17028   9.388   9.424   0.504  2.0536 -1.3131  1.0346
  130MOL0     O17029   3.094   4.080   8.610  0.4135 -0.0672 -0.5128
  130MOL0     C17030   3.054   3.965   8.628  0.8438  0.2512 -0.1723
  130MOL0     O17031   2.924   3.921   8.613  0.1276  0.0033 -0.7057
  130MOL0     C17032   2.825   4.000   8.552 -0.6332 -0.7429  1.1584
  130MOL0     C17033   2.833   4.065   8.431 -0.4827 -0.0017 -0.0809
  130MOL0     C17034   2.732   4.129   8.367 -1.0429  0.1132  0.1183
  130MOL0     C17035   2.609   4.139   8.430  0.2864 -0.4689 -0.1583
  130MOL0     O17036   2.506   4.199   8.363 -0.0010 -0.2668 -0.0787
  130MOL0     C17037   2.512   4.205   8.221  0.6459  0.5170  0.3526
  130MOL0     C17038   2.365   4.248   8.168  0.6154  0.9611 -0.0780
  130MOL0     C17039   2.260   4.134   8.176  0.0891 -0.5322 -0.2061
  130MOL0     C17040   2.127   4.159   8.112  0.7059  0.3189 -0.2305
  130MOL0     C17041   2.025   4.194   8.218  0.3117  0.2159 -0.0598
  130MOL0     C17042   1.883   4.206   8.166 -0.3452  0.1923  0.3545
  130MOL0     C17043   1.794   4.223   8.293 -0.5122 -0.0596  0.3866
  130MOL0     C17044   1.645   4.217   8.262 -0.5266 -0.0003 -0.5796
  130MOL0     N17045   1.572   4.186   8.387 -0.8728  0.7302  0.5395
  130MOL0     C17046   1.500   4.262   8.463 -0.2293  0.5426 -1.0700
  130MOL0     C17047   1.401   4.189   8.522 -0.6418 -0.2664  0.1243
  130MOL0     C17048   1.289   4.233   8.613 -0.8949 -0.1427 -0.3630
  130MOL0     C17049   1.155   4.252   8.556 -0.5749  0.1269 -0.2134
  130MOL0     C17050   1.082   4.115   8.517  0.0146 -0.1619  0.3132
  130MOL0     C17051   1.075   4.006   8.622  0.3776 -0.1645 -0.0023
  130MOL0     O17052   0.999   4.043   8.734 -0.7967 -0.0865 -0.0763
  130MOL0     C17053   0.868   4.003   8.757  0.1333  0.1875  0.7847
  130MOL0     C17054   0.776   3.963   8.657  0.4338  0.2980 -0.3819
  130MOL0     C17055   0.642   3.932   8.693  0.4189 -0.1725 -0.1667
  130MOL0     C17056   0.598   3.945   8.823  0.5454 -0.8479 -0.3636
  130MOL0     C17057   0.451   3.921   8.845 -0.3543  0.9496 -0.5203
  130MOL0     O17058   0.351   3.937   8.745 -0.0870  0.2913 -0.2242
  130MOL0     C17059   0.218   3.914   8.777  0.2152 -0.1639 -0.9073
  130MOL0     C17060   0.133   3.900   8.671  0.4636 -0.1008  1.3469
  130MOL0     C17061  -0.006   3.870   8.679  0.2053  0.6295  0.4320
  130MOL0     C17062  -0.065   3.856   8.805  0.5589  1.2267 -1.0618
  130MOL0     O17063  -0.194   3.817   8.818 -0.7796  0.3991  0.1010
  130MOL0     C17064  -0.286   3.923   8.856 -0.9764  0.7600 -1.0635
  130MOL0     C17065  -0.318   4.022   8.749  0.3853 -0.1540  0.0513
  130MOL0     C17066  -0.432   4.112   8.807 -1.4496  0.5756 -0.0154
  130MOL0     C17067  -0.559   4.029   8.820 -0.2279  0.1141 -0.0597
  130MOL0     C17068  -0.685   4.124   8.804 -0.4816  0.3912 -0.6021
  130MOL0     C17069  -0.803   4.034   8.756  0.4867  0.1839  0.1782
  130MOL0     C17070  -0.927   4.116   8.735 -0.8180  0.5638 -0.3946
  130MOL0     C17071  -1.028   4.054   8.646 -0.7929  0.5874 -0.0132
  130MOL0    Cl17072  -0.980   4.052   8.475 -0.0732  0.0474 -0.5199
  130MOL0     C17073   0.016   3.883   8.918  0.9544  0.3084  0.2341
  130MOL0     C17074   0.153   3.923   8.905  0.0869  0.4048 -0.4640
  130MOL0     O17075   0.434   3.863   8.950 -0.3924  0.2651 -0.0691
  130MOL0     C17076   0.690   3.993   8.921  1.4281  0.4442 -0.3331
  130MOL0     C17077   0.820   4.019   8.888  0.0352 -0.8246  0.3693
  130MOL0     N17078   1.422   4.064   8.474 -0.6431 -0.0278 -0.1633
  130MOL0     N17079   1.532   4.055   8.409 -0.2634  0.6087  0.5226
  130MOL0     C17080   2.599   4.085   8.551  0.3207  0.3734  0.7689
  130MOL0     C17081   2.703   4.021   8.615  0.9505  0.0038  0.4244
  130MOL0     C17082   3.150   3.880   8.711 -0.0396 -0.2967  0.7505
  130MOL0     C17083   3.277   3.932   8.736  0.3936 -0.2280 -0.8858
  130MOL0     C17084   3.372   3.866   8.808  0.2065 -0.0647  0.2991
  130MOL0     C17085   3.344   3.738   8.864 -0.9840 -0.8627 -0.0139
  130MOL0     O17086   3.436   3.656   8.936 -0.8007 -0.0854  0.0610
  130MOL0     C17087   3.582   3.667   8.907  0.7147 -0.2228 -0.0256
  130MOL0     C17088   3.648   3.760   9.018  0.0768  0.9628  0.3664
  130MOL0     C17089   3.794   3.793   8.989  0.1113  0.3919 -0.3933
  130MOL0     C17090   3.859   3.853   9.117 -0.5566  0.1723 -0.3946
  130MOL0     C17091   3.994   3.912   9.088 -0.2888  0.1096 -0.1558
  130MOL0     C17092   4.107   3.941   9.071 -0.2216  0.0120 -0.1139
  130MOL0     C17093   3.216   3.694   8.847 -0.7804  0.1772  0.3070
  130MOL0     C17094   3.122   3.753   8.768  1.1112  0.1182 -0.4870
  130MOL0     H17095   2.928   4.062   8.379 -1.0199  1.9151 -1.2617
  130MOL0     H17096   2.763   4.178   8.275  0.5120 -1.3524 -0.1919
  130MOL0     H17097   2.545   4.109   8.182  0.0791  0.1327  0.8160
  130MOL0     H17098   2.584   4.281   8.187 -0.0095  1.3481  0.7784
  130MOL0     H17099   2.380   4.287   8.067  0.7426  1.5221  0.1513
  130MOL0     H17100   2.312   4.325   8.225 -1.5267  1.2513 -2.3102
  130MOL0     H17101   2.249   4.108   8.281  0.7009  0.2236  0.0573
  130MOL0     H17102   2.311   4.051   8.126  0.3404 -0.0832 -0.7038
  130MOL0     H17103   2.132   4.237   8.036 -0.5347  0.5510 -0.0947
  130MOL0     H17104   2.097   4.063   8.068 -2.6261  1.0421  0.2172
  130MOL0     H17105   2.063   4.284   8.269  0.7926  0.2657 -0.4974
  130MOL0     H17106   2.002   4.110   8.284 -1.3413  0.0108 -0.8576
  130MOL0     H17107   1.851   4.120   8.107  1.8595  0.2592 -1.0583
  130MOL0     H17108   1.884   4.293   8.099  2.8831  0.6437  0.7910
  130MOL0     H17109   1.808   4.158   8.379  1.5111  0.5933  0.6143
  130MOL0     H17110   1.811   4.326   8.325 -2.2827  0.2499  0.4231
  130MOL0     H17111   1.619   4.130   8.201  1.0519 -0.2146 -0.9893
  130MOL0     H17112   1.603   4.307   8.218 -2.8490 -1.8769 -2.4808
  130MOL0     H17113   1.517   4.365   8.494  0.6255 -0.0370  0.5159
  130MOL0     H17114   1.309   4.334   8.650 -1.6611  0.0498 -0.4668
  130MOL0     H17115   1.283   4.171   8.703 -0.0384  1.7873  1.0990
  130MOL0     H17116   1.173   4.299   8.460 -0.3743 -0.0074 -0.2407
  130MOL0     H17117   1.096   4.316   8.622  1.1626  1.2948  0.2590
  130MOL0     H17118   0.978   4.138   8.493  0.2615  1.1606  0.4244
  130MOL0     H17119   1.133   4.079   8.428 -0.5651 -0.5667  0.1365
  130MOL0     H17120   1.182   3.990   8.640  1.0691  1.1756 -2.3110
  130MOL0     H17121   1.041   3.913   8.577  2.0772 -1.9783  2.2489
  130MOL0     H17122   0.804   3.952   8.552 -0.4476 -0.5582 -0.5403
  130MOL0     H17123   0.570   3.896   8.621 -0.0040 -2.2121  1.1846
  130MOL0     H17124   0.163   3.893   8.567 -2.0000  1.8062  0.4045
  130MOL0     H17125  -0.055   3.833   8.590  0.8925  1.3402 -0.2502
  130MOL0     H17126  -0.245   3.979   8.940 -1.1095 -0.6001 -0.0479
  130MOL0     H17127  -0.371   3.865   8.894  0.5773  1.6940  4.8548
  130MOL0     H17128  -0.339   3.955   8.665  1.6538 -1.8324  1.0229
  130MOL0     H17129  -0.232   4.081   8.717 -1.0974  1.7883 -0.5670
  130MOL0     H17130  -0.449   4.189   8.731  0.6944  1.1891  0.0350
  130MOL0     H17131  -0.409   4.155   8.905 -2.4348  0.4592  0.2776
  130MOL0     H17132  -0.549   3.937   8.761  1.8439 -0.9476  1.7874
  130MOL0     H17133  -0.557   3.981   8.918  0.6636  1.1109  0.4284
  130MOL0     H17134  -0.660   4.198   8.728  0.3465  0.0782 -0.6442
  130MOL0     H17135  -0.701   4.176   8.899 -0.9395  0.1246 -0.5307
  130MOL0     H17136  -0.805   3.952   8.829  1.5730  0.2304  0.2654
  130MOL0     H17137  -0.780   4.001   8.655 -0.1662 -0.6154  0.2738
  130MOL0     H17138  -0.971   4.122   8.835 -0.6383 -0.3835 -0.2498
  130MOL0     H17139  -0.906   4.217   8.699 -2.4634 -0.3793 -4.5548
  130MOL0     H17140  -1.125   4.102   8.657 -1.7981 -0.7356 -2.2824
  130MOL0     H17141  -1.045   3.950   8.678  1.2805 -0.4990 -2.0930
  130MOL0     H17142  -0.024   3.888   9.018  0.9111 -1.0335  0.2904
  130MOL0     H17143   0.207   3.942   8.997  2.5384 -0.1194 -1.6889
  130MOL0     H17144   0.638   4.011   9.015  1.1243 -2.8311  0.2646
  130MOL0     H17145   0.892   4.062   8.956  0.2886 -0.9173  0.1660
  130MOL0     H17146   2.506   4.095   8.604 -1.5807 -2.3329 -1.7222
  130MOL0     H17147   2.691   3.982   8.716 -0.2562  2.0776  1.1605
  130MOL0     H17148   3.303   4.025   8.687 -2.0317  0.8246 -0.3325
  130MOL0     H17149   3.469   3.913   8.816  0.4096 -0.1525 -1.3270
  130MOL0     H17150   3.592   3.722   8.813  0.2290  2.9719  1.6628
  130MOL0     H17151   3.635   3.572   8.898  0.5447 -0.5086  1.6207
  130MOL0     H17152   3.589   3.853   9.027 -1.2848 -0.0329  2.5541
  130MOL0     H17153   3.650   3.707   9.113 -1.5977  1.5405  0.7706
  130MOL0     H17154   3.816   3.865   8.909  1.5746 -0.8260 -1.1406
  130MOL0     H17155   3.850   3.700   8.977  0.4325 -0.3230  4.6360
  130MOL0     H17156   3.784   3.927   9.149  0.9833  1.2277  0.9575
  130MOL0     H17157   3.876   3.780   9.196 -0.1354 -1.2010 -1.7033
  130MOL0     H17158   4.209   3.961   9.045 -0.0327 -1.9596 -1.1038
  130MOL0     H17159   3.186   3.596   8.884 -1.4853  0.3630  0.2336
  130MOL0     H17160   3.022   3.711   8.766  1.4149 -0.6390  0.0482
  131MOL0     O17161   7.238   6.438   2.344 -0.3209  0.6926 -0.5781
  131MOL0     C17162   7.270   6.495   2.452 -0.0605 -0.0876 -0.6629
  131MOL0     O17163   7.189   6.551   2.544  0.3177  0.5607  0.3038
  131MOL0     C17164   7.052   6.545   2.521  0.3418 -0.4266 -0.0295
  131MOL0     C17165   7.001   6.673   2.490  0.5675 -0.6437 -0.2274
  131MOL0     C17166   6.865   6.681   2.458 -0.1440 -0.1609 -0.0946
  131MOL0     C17167   6.773   6.579   2.488 -0.2132 -0.0388  0.1587
  131MOL0     O17168   6.635   6.585   2.479  0.3017 -0.3735  0.1460
  131MOL0     C17169   6.586   6.690   2.555  0.3625 -0.4249 -0.5580
  131MOL0     C17170   6.452   6.646   2.613 -0.9845 -0.0501 -0.7812
  131MOL0     C17171   6.450   6.500   2.670  0.3762  0.5038 -1.0891
  131MOL0     C17172   6.314   6.465   2.733  0.0580  0.4168 -0.3662
  131MOL0     C17173   6.288   6.325   2.786  0.1186 -0.1064 -0.5422
  131MOL0     C17174   6.377   6.301   2.909  0.4530  0.5320  0.0622
  131MOL0     C17175   6.373   6.160   2.959 -0.4551 -0.4425  1.1767
  131MOL0     C17176   6.461   6.132   3.081  1.2851  0.8035 -0.2574
  131MOL0     N17177   6.392   6.168   3.213 -0.7166  0.5135 -0.1198
  131MOL0     C17178   6.374   6.295   3.269 -0.4627  0.3863  0.6296
  131MOL0     C17179   6.312   6.272   3.389 -1.0481 -0.1111  0.4581
  131MOL0     C17180   6.273   6.383   3.481 -0.1277 -0.0050 -0.1910
  131MOL0     C17181   6.255   6.336   3.626 -0.4719 -0.4387  0.1627
  131MOL0     C17182   6.114   6.260   3.637 -0.5390 -0.1909  0.4704
  131MOL0     C17183   6.064   6.233   3.777  0.1524 -0.1150  0.5427
  131MOL0     O17184   5.948   6.151   3.760  0.0154  1.3050 -0.3752
  131MOL0     C17185   5.879   6.109   3.872  0.2792 -0.2788 -0.0569
  131MOL0     C17186   5.791   5.997   3.852 -0.3734 -0.3262 -0.5076
  131MOL0     C17187   5.689   5.963   3.936 -0.6132 -0.3196 -0.1794
  131MOL0     C17188   5.674   6.033   4.062 -0.2808  0.1285 -0.1977
  131MOL0     C17189   5.572   6.001   4.168  0.0585  0.4845  0.7983
  131MOL0     O17190   5.498   5.888   4.145 -0.0435  0.2178  0.0876
  131MOL0     C17191   5.390   5.859   4.224  0.0239  0.5766 -0.2351
  131MOL0     C17192   5.392   5.832   4.364 -0.3784  0.4615 -0.1330
  131MOL0     C17193   5.277   5.804   4.440 -1.1832 -0.5595 -1.1124
  131MOL0     C17194   5.154   5.798   4.379 -0.3533 -0.4066 -0.5885
  131MOL0     O17195   5.050   5.774   4.461  0.5498 -0.6476  0.6379
  131MOL0     C17196   4.927   5.704   4.424  0.0991 -1.4871  0.5621
  131MOL0     C17197   4.911   5.580   4.503 -0.2558  1.0243  1.1522
  131MOL0     C17198   5.027   5.485   4.470 -0.8729  0.5214  0.4957
  131MOL0     C17199   5.011   5.417   4.331  0.0422 -0.1789 -0.0765
  131MOL0     C17200   5.129   5.339   4.307 -0.1850  0.0965 -0.1690
  131MOL0     C17201   5.120   5.206   4.242  0.3727  0.6305  0.4617
  131MOL0     C17202   5.252   5.149   4.201 -0.9350  0.6792 -0.5207
  131MOL0     C17203   5.248   4.997   4.159  0.2516  0.0911 -0.0956
  131MOL0    Cl17204   5.221   4.918   4.312 -0.0834 -0.2716  0.6024
  131MOL0     C17205   5.140   5.834   4.240 -0.5393  0.4873 -0.1206
  131MOL0     C17206   5.260   5.864   4.163  0.0470  0.9883 -0.3938
  131MOL0     O17207   5.539   6.086   4.247 -0.2026  0.0629 -0.4001
  131MOL0     C17208   5.771   6.136   4.092 -1.0581  0.1299  0.8155
  131MOL0     C17209   5.868   6.180   3.997 -1.0266  0.1743 -0.1325
  131MOL0     N17210   6.277   6.139   3.399 -0.6860  0.8062  0.7939
  131MOL0     N17211   6.342   6.070   3.299 -0.0422  0.3711 -0.3258
  131MOL0     C17212   6.834   6.451   2.507  0.1290 -0.5888 -0.2069
  131MOL0     C17213   6.968   6.435   2.531  0.1056  0.6673  0.5862
  131MOL0     C17214   7.412   6.500   2.491 -0.2870 -0.6244  0.2604
  131MOL0     C17215   7.507   6.433   2.410  0.2874 -0.2333 -0.0796
  131MOL0     C17216   7.642   6.457   2.422 -0.3919  0.3012  0.4425
  131MOL0     C17217   7.694   6.528   2.533 -0.1980  0.5528  0.3557
  131MOL0     O17218   7.824   6.559   2.566 -0.1384  0.1686 -0.2188
  131MOL0     C17219   7.926   6.538   2.469  0.9080 -0.3387 -0.0384
  131MOL0     C17220   8.058   6.542   2.552  0.0431 -0.3841  0.1155
  131MOL0     C17221   8.185   6.536   2.459  0.3020 -0.8375 -0.1266
  131MOL0     C17222   8.261   6.401   2.473  0.5579 -0.4078 -0.3995
  131MOL0     C17223   8.393   6.413   2.422  0.2652 -1.2051 -0.1703
  131MOL0     C17224   8.505   6.430   2.380 -0.4324 -0.4474 -0.6218
  131MOL0     C17225   7.598   6.588   2.616  0.7505 -0.6751  0.3989
  131MOL0     C17226   7.462   6.574   2.600  0.6405  0.3933  0.5019
  131MOL0     H17227   7.071   6.755   2.485  0.8000 -0.9139 -3.0497
  131MOL0     H17228   6.824   6.778   2.430 -0.5268 -0.6780 -1.4091
  131MOL0     H17229   6.574   6.783   2.499 -0.2627 -0.5773 -0.6926
  131MOL0     H17230   6.645   6.712   2.644  0.8574 -1.8253 -0.5050
  131MOL0     H17231   6.390   6.641   2.523 -0.6037 -2.3983 -0.9764
  131MOL0     H17232   6.427   6.721   2.689  0.7287  0.2643 -0.4971
  131MOL0     H17233   6.522   6.488   2.752 -1.2785 -2.4886  0.0945
  131MOL0     H17234   6.469   6.425   2.593  0.7728  0.5103 -0.9998
  131MOL0     H17235   6.307   6.538   2.814  2.4779 -0.8383  1.1237
  131MOL0     H17236   6.237   6.495   2.662 -0.9534 -0.6037  0.2670
  131MOL0     H17237   6.320   6.254   2.709 -2.4297 -1.5213 -0.4086
  131MOL0     H17238   6.183   6.301   2.807 -0.2069  1.4104 -0.3213
  131MOL0     H17239   6.349   6.378   2.982 -1.4434  0.2582 -0.3121
  131MOL0     H17240   6.477   6.323   2.872  0.1396  0.0415 -1.1429
  131MOL0     H17241   6.276   6.124   2.994  0.0689 -0.1975  2.9673
  131MOL0     H17242   6.410   6.098   2.877  1.4495 -0.2586  1.8693
  131MOL0     H17243   6.562   6.171   3.089  0.8704  1.4331  2.9423
  131MOL0     H17244   6.463   6.022   3.077 -2.7560  0.5705 -1.9679
  131MOL0     H17245   6.412   6.384   3.219 -0.5782  0.2959  0.3811
  131MOL0     H17246   6.184   6.437   3.448 -0.5726  0.1088  1.1360
  131MOL0     H17247   6.361   6.449   3.485 -0.1017 -0.0769  1.1175
  131MOL0     H17248   6.259   6.421   3.694 -0.0641  1.8187 -2.5083
  131MOL0     H17249   6.341   6.271   3.644 -0.9226 -1.9459 -2.6260
  131MOL0     H17250   6.038   6.325   3.591 -2.5348  0.1043  3.8284
  131MOL0     H17251   6.116   6.167   3.580 -4.4804  1.5262 -3.0595
  131MOL0     H17252   6.037   6.329   3.822 -1.7996 -0.7746  0.8922
  131MOL0     H17253   6.140   6.183   3.837  1.6113  2.2326  0.7816
  131MOL0     H17254   5.816   5.939   3.763  1.9285  0.3225 -0.3524
  131MOL0     H17255   5.633   5.871   3.925  0.1954 -0.9160  0.5859
  131MOL0     H17256   5.494   5.832   4.401  1.1895 -1.5085 -3.9431
  131MOL0     H17257   5.276   5.791   4.548  0.6366  0.5390 -0.9342
  131MOL0     H17258   4.930   5.686   4.317  2.7970 -0.1023  0.3199
  131MOL0     H17259   4.851   5.777   4.453  1.9733  0.6176  0.4447
  131MOL0     H17260   4.818   5.530   4.473 -0.1826  1.2735  0.5092
  131MOL0     H17261   4.915   5.598   4.611 -0.7048  1.4098  1.1055
  131MOL0     H17262   5.031   5.402   4.541 -2.1160  0.9961  1.1422
  131MOL0     H17263   5.125   5.534   4.478 -0.9121  0.5631  0.7413
  131MOL0     H17264   4.928   5.345   4.336 -0.5297  0.3988 -1.0578
  131MOL0     H17265   4.982   5.478   4.245 -0.5951  1.3575  1.1990
  131MOL0     H17266   5.180   5.328   4.403 -3.7961  1.5436  2.1086
  131MOL0     H17267   5.191   5.399   4.240 -2.8693  3.5311  0.1988
  131MOL0     H17268   5.042   5.202   4.165 -1.5623 -0.3421  2.3526
  131MOL0     H17269   5.084   5.134   4.316  0.9586 -0.6058 -0.4430
  131MOL0     H17270   5.297   5.210   4.122 -0.8967 -0.0486 -1.0743
  131MOL0     H17271   5.314   5.159   4.290 -4.0338  1.7306  1.6860
  131MOL0     H17272   5.340   4.962   4.111  1.5698  1.0315  1.6282
  131MOL0     H17273   5.167   4.967   4.091 -0.7775 -1.2479  1.6141
  131MOL0     H17274   5.040   5.855   4.205 -0.4662 -1.3741 -1.5941
  131MOL0     H17275   5.252   5.914   4.066 -2.1943  2.1864  0.3355
  131MOL0     H17276   5.751   6.203   4.176  2.3530  2.0860  0.2444
  131MOL0     H17277   5.931   6.265   4.020 -1.4000  0.1714  0.9746
  131MOL0     H17278   6.769   6.364   2.507  1.0244 -1.2724 -0.0966
  131MOL0     H17279   7.021   6.341   2.546 -0.9636  0.0548  0.6982
  131MOL0     H17280   7.474   6.377   2.323 -0.9120 -2.4249  1.6560
  131MOL0     H17281   7.708   6.424   2.343 -0.9248  0.9845 -0.3075
  131MOL0     H17282   7.918   6.614   2.390  0.3796 -2.7157 -2.4088
  131MOL0     H17283   7.926   6.445   2.411 -1.1901 -1.4454  1.6175
  131MOL0     H17284   8.066   6.625   2.623  2.3957 -0.9025  0.5209
  131MOL0     H17285   8.062   6.455   2.619  0.2114  2.1448  3.6695
  131MOL0     H17286   8.247   6.615   2.504 -1.0643  0.2811 -0.1604
  131MOL0     H17287   8.166   6.554   2.353  1.2252 -3.1934 -0.7602
  131MOL0     H17288   8.260   6.377   2.579 -0.2561 -2.4481 -0.8250
  131MOL0     H17289   8.215   6.317   2.420 -1.0290 -0.5866  1.1680
  131MOL0     H17290   8.607   6.433   2.347 -0.2376 -0.8451 -0.0584
  131MOL0     H17291   7.627   6.657   2.695 -2.1136 -1.6926  2.5000
  131MOL0     H17292   7.398   6.626   2.670 -1.8375 -0.7594 -0.7595
  132MOL0     O17293   9.233   0.235   3.275  0.8444 -0.2742 -0.6604
  132MOL0     C17294   9.196   0.350   3.247 -0.1122 -0.3313  0.4376
  132MOL0     O17295   9.106   0.381   3.158 -0.5070  0.4824  0.0691
  132MOL0     C17296   9.035   0.280   3.098 -0.6414  0.3796 -0.1759
  132MOL0     C17297   9.101   0.191   3.009  0.0173 -0.4484 -0.0798
  132MOL0     C17298   9.012   0.099   2.946 -0.7516  0.7445 -0.1313
  132MOL0     C17299   8.881   0.086   2.975  0.0443 -0.5621 -0.0708
  132MOL0     O17300   8.812  -0.015   2.914 -0.2160 -0.1251 -0.1996
  132MOL0     C17301   8.670  -0.033   2.929  0.3497  0.2924  0.1350
  132MOL0     C17302   8.625  -0.160   2.863  0.2591  0.4438 -0.0689
  132MOL0     C17303   8.470  -0.151   2.866 -0.0230  0.7466 -0.2328
  132MOL0     C17304   8.396  -0.268   2.786 -1.0092 -0.2270 -0.9899
  132MOL0     C17305   8.247  -0.270   2.803  0.8165  0.4771 -0.3082
  132MOL0     C17306   8.186  -0.375   2.701  0.6638  0.2591 -0.2117
  132MOL0     C17307   8.032  -0.382   2.697  0.6725  0.4096 -0.0814
  132MOL0     C17308   8.001  -0.513   2.622 -0.5803 -0.1150  0.4376
  132MOL0     N17309   7.872  -0.522   2.552  1.0073 -0.1827  0.1772
  132MOL0     C17310   7.847  -0.481   2.430  0.1242 -0.1926 -0.1566
  132MOL0     C17311   7.728  -0.527   2.387  0.2697  0.0192 -0.5049
  132MOL0     C17312   7.661  -0.472   2.271  0.2392 -0.1278 -0.2801
  132MOL0     C17313   7.537  -0.558   2.242 -0.1253  0.4283  0.4025
  132MOL0     C17314   7.433  -0.554   2.349 -0.1227  0.0484 -0.2041
  132MOL0     C17315   7.331  -0.669   2.341 -0.0346  1.9498  0.0956
  132MOL0     O17316   7.245  -0.657   2.222 -0.2692  0.6940  0.3542
  132MOL0     C17317   7.115  -0.702   2.233  0.8101  0.8744 -1.1185
  132MOL0     C17318   7.021  -0.633   2.163 -0.0744 -0.1390  0.1005
  132MOL0     C17319   6.884  -0.637   2.179  0.3406 -0.2854 -0.5282
  132MOL0     C17320   6.835  -0.721   2.289  0.1081 -0.0911  0.1649
  132MOL0     C17321   6.689  -0.736   2.324  0.3522 -0.5577 -0.1929
  132MOL0     O17322   6.600  -0.689   2.229  0.1522 -0.3618  0.7411
  132MOL0     C17323   6.461  -0.694   2.237 -0.1475  0.8111 -0.1342
  132MOL0     C17324   6.385  -0.806   2.284  0.6354  0.4953 -0.2769
  132MOL0     C17325   6.242  -0.797   2.280  1.3138  0.1560  0.4558
  132MOL0     C17326   6.171  -0.684   2.234  0.6096  0.2079 -0.0749
  132MOL0     O17327   6.030  -0.652   2.231  0.0870 -0.0855 -0.1332
  132MOL0     C17328   5.962  -0.738   2.328  0.3390 -0.0667 -0.2983
  132MOL0     C17329   5.822  -0.682   2.350  0.0904 -0.3910 -0.3787
  132MOL0     C17330   5.743  -0.720   2.478 -0.1305  0.4010  0.5616
  132MOL0     C17331   5.723  -0.874   2.493 -0.0444 -1.0143 -0.3642
  132MOL0     C17332   5.672  -0.944   2.620 -0.4774  0.0714  0.0603
  132MOL0     C17333   5.550  -0.864   2.675  0.3615  0.8080 -0.9268
  132MOL0     C17334   5.464  -0.957   2.759  0.1514 -0.6369 -0.0483
  132MOL0     C17335   5.327  -0.894   2.797  0.3733 -0.2230  0.3635
  132MOL0    Cl17336   5.345  -0.755   2.912  0.2203 -0.2427  0.1966
  132MOL0     C17337   6.250  -0.581   2.187 -0.8288  0.3208  0.7966
  132MOL0     C17338   6.392  -0.585   2.192  0.5018  0.7454 -0.8864
  132MOL0     O17339   6.662  -0.804   2.426  0.3172 -0.1107 -0.1537
  132MOL0     C17340   6.936  -0.792   2.364  0.1711  0.7270 -0.8454
  132MOL0     C17341   7.066  -0.780   2.337 -0.2614  0.3113  0.3785
  132MOL0     N17342   7.683  -0.619   2.485 -0.0340  0.0091 -0.0495
  132MOL0     N17343   7.779  -0.612   2.584  0.7374  0.0785 -0.7876
  132MOL0     C17344   8.826   0.162   3.069  1.0153  0.4598 -0.1649
  132MOL0     C17345   8.900   0.265   3.124 -0.1816  0.0176  0.3967
  132MOL0     C17346   9.271   0.457   3.306 -0.0985 -0.4047  0.0103
  132MOL0     C17347   9.220   0.586   3.297 -0.7889  0.1866  0.2028
  132MOL0     C17348   9.293   0.697   3.340  0.3711 -0.6517 -0.1743
  132MOL0     C17349   9.420   0.684   3.399 -0.7850  0.2442  0.0446
  132MOL0     O17350   9.489   0.802   3.426  0.5644 -0.7039 -0.0535
  132MOL0     C17351   9.628   0.799   3.455 -0.9386 -0.7918  0.6381
  132MOL0     C17352   9.680   0.935   3.461 -0.4457 -0.5507  0.8614
  132MOL0     C17353   9.820   0.934   3.510 -0.5341 -0.2741 -0.3905
  132MOL0     C17354   9.928   0.852   3.434  0.1792  0.2047  0.2935
  132MOL0     C17355   9.932   0.893   3.291 -0.0339  0.2757 -0.0443
  132MOL0     C17356   9.937   0.927   3.174  0.6822 -0.2182  0.1207
  132MOL0     C17357   9.480   0.560   3.394 -0.3738 -0.1488  0.3105
  132MOL0     C17358   9.407   0.445   3.347 -0.4705  0.7085 -0.6119
  132MOL0     H17359   9.207   0.204   2.991  0.3189  1.3172  2.4451
  132MOL0     H17360   9.062   0.032   2.877 -1.4920 -0.5966  0.5852
  132MOL0     H17361   8.621   0.053   2.883 -0.6736 -1.3256 -1.9293
  132MOL0     H17362   8.641  -0.040   3.034 -0.7347 -4.8497 -0.2711
  132MOL0     H17363   8.646  -0.253   2.915  3.1625  1.2367  0.3434
  132MOL0     H17364   8.675  -0.168   2.766  0.0712  0.9381 -0.2106
  132MOL0     H17365   8.435  -0.059   2.818 -0.5953  0.2216 -0.8637
  132MOL0     H17366   8.431  -0.151   2.968 -2.3098  2.4870 -1.0064
  132MOL0     H17367   8.420  -0.252   2.680  1.5736  0.3131 -0.4078
  132MOL0     H17368   8.451  -0.359   2.813  1.6391  1.3479 -0.6472
  132MOL0     H17369   8.217  -0.169   2.772 -1.6041  0.1172  0.7097
  132MOL0     H17370   8.210  -0.274   2.905  0.8713  3.1799 -0.0967
  132MOL0     H17371   8.217  -0.473   2.739 -1.1853  0.0618  0.9526
  132MOL0     H17372   8.220  -0.353   2.600 -0.3028 -1.0963 -0.8600
  132MOL0     H17373   7.992  -0.381   2.798 -1.7297 -0.4042 -0.9503
  132MOL0     H17374   7.990  -0.301   2.637 -0.9976 -0.1208  0.3189
  132MOL0     H17375   8.004  -0.601   2.688 -0.7782 -0.1640  0.3837
  132MOL0     H17376   8.080  -0.532   2.550  0.0838 -0.2310  1.1825
  132MOL0     H17377   7.910  -0.402   2.391  0.8738  0.2170  1.8059
  132MOL0     H17378   7.730  -0.471   2.185 -0.4103  3.0110 -0.8567
  132MOL0     H17379   7.626  -0.371   2.292 -0.7045 -0.3092 -0.9208
  132MOL0     H17380   7.555  -0.660   2.207 -1.5381  1.1408 -2.7357
  132MOL0     H17381   7.501  -0.515   2.148  2.6358  1.1573 -0.3932
  132MOL0     H17382   7.466  -0.553   2.453  1.1964  1.3177 -0.6100
  132MOL0     H17383   7.384  -0.458   2.327  1.4091  0.8727 -0.1297
  132MOL0     H17384   7.277  -0.684   2.435  2.2539 -0.4655  1.1666
  132MOL0     H17385   7.386  -0.763   2.325  0.1623  2.1351 -0.3514
  132MOL0     H17386   7.058  -0.572   2.081  0.0919  0.0804  0.3358
  132MOL0     H17387   6.814  -0.580   2.117  1.3488 -1.0669 -2.4593
  132MOL0     H17388   6.429  -0.895   2.329  5.0668  3.9019  3.1063
  132MOL0     H17389   6.188  -0.879   2.326  1.2570  0.0791  0.2483
  132MOL0     H17390   6.017  -0.738   2.423  0.5210  0.7855 -0.3989
  132MOL0     H17391   5.953  -0.839   2.287  2.3342  0.8884 -3.3857
  132MOL0     H17392   5.753  -0.687   2.265  1.4378 -1.2283 -1.4722
  132MOL0     H17393   5.837  -0.573   2.351  5.0005 -0.8355  0.8217
  132MOL0     H17394   5.646  -0.669   2.477  0.2743  1.2404  1.7808
  132MOL0     H17395   5.795  -0.682   2.566  0.8628 -2.2682  1.2299
  132MOL0     H17396   5.637  -0.906   2.433 -1.8097 -0.0665  1.5044
  132MOL0     H17397   5.820  -0.919   2.473  0.7503  0.1871  0.6451
  132MOL0     H17398   5.749  -0.957   2.696  0.3556  1.2196 -0.5487
  132MOL0     H17399   5.644  -1.046   2.590  1.3837 -0.4310 -0.1100
  132MOL0     H17400   5.492  -0.835   2.587  2.5265 -1.7182 -3.3989
  132MOL0     H17401   5.579  -0.774   2.730  1.8640  0.3907 -0.9953
  132MOL0     H17402   5.458  -1.058   2.718 -1.2585 -0.5223 -0.1613
  132MOL0     H17403   5.526  -0.966   2.849  1.0009  0.5078 -0.4933
  132MOL0     H17404   5.263  -0.980   2.818  1.4110 -1.8528 -2.4880
  132MOL0     H17405   5.281  -0.847   2.709 -0.0235  0.2698  0.8304
  132MOL0     H17406   6.204  -0.488   2.156  2.1899  2.0495  1.1774
  132MOL0     H17407   6.437  -0.487   2.181 -0.2535  1.2163  0.0662
  132MOL0     H17408   6.907  -0.858   2.445 -2.8766  1.4533 -1.2228
  132MOL0     H17409   7.144  -0.835   2.388  1.6410  1.1530 -1.4618
  132MOL0     H17410   8.727   0.140   3.107  0.1043 -0.6428 -2.9385
  132MOL0     H17411   8.864   0.341   3.192  1.3495  0.5993  0.5985
  132MOL0     H17412   9.123   0.613   3.257  0.2239  1.4294 -1.5506
  132MOL0     H17413   9.250   0.796   3.343  0.2216 -0.7338  1.1244
  132MOL0     H17414   9.677   0.747   3.373  2.1705 -0.5574  2.1989
  132MOL0     H17415   9.646   0.737   3.544  3.2765 -2.0796 -0.8634
  132MOL0     H17416   9.671   0.968   3.357  0.2685  0.3810  1.0812
  132MOL0     H17417   9.620   1.011   3.512  2.3116  1.8806  0.6907
  132MOL0     H17418   9.812   0.899   3.613  0.4024  2.9608  0.9119
  132MOL0     H17419   9.847   1.037   3.533  0.7027 -0.8665  0.9641
  132MOL0     H17420  10.028   0.875   3.473 -0.3714  2.3483  0.5557
  132MOL0     H17421   9.912   0.743   3.439  1.1008  0.0178 -0.4619
  132MOL0     H17422   9.934   0.952   3.070 -0.5619 -1.3704 -0.1481
  132MOL0     H17423   9.584   0.552   3.423  0.3093  2.1557 -1.2314
  132MOL0     H17424   9.455   0.348   3.336  1.6529  1.6993 -0.5707
  133MOL0     O17425   6.921   9.089   4.432  0.3823 -0.1903 -0.3725
  133MOL0     C17426   6.815   9.035   4.449 -0.3492 -0.4785 -0.9977
  133MOL0     O17427   6.798   8.915   4.499  0.1850 -0.2214 -0.2098
  133MOL0     C17428   6.905   8.843   4.553 -0.2304  0.2393  0.7314
  133MOL0     C17429   6.888   8.780   4.679 -0.5054  0.2620 -0.2493
  133MOL0     C17430   6.991   8.714   4.739 -0.2243  0.4461 -0.3613
  133MOL0     C17431   7.120   8.714   4.683  0.5835 -0.3786  0.5386
  133MOL0     O17432   7.224   8.650   4.759  0.3321 -0.0332  0.6714
  133MOL0     C17433   7.353   8.717   4.748  0.3076 -0.1924  0.0081
  133MOL0     C17434   7.435   8.681   4.868 -0.4895 -0.2645  0.0475
  133MOL0     C17435   7.356   8.724   4.994  0.7947 -0.3169 -0.1157
  133MOL0     C17436   7.453   8.742   5.114  0.2584  0.1751 -0.3421
  133MOL0     C17437   7.381   8.745   5.251 -0.0159 -1.0456 -0.2915
  133MOL0     C17438   7.281   8.861   5.260 -0.2895 -0.2509  0.1827
  133MOL0     C17439   7.207   8.854   5.387  0.0809  1.0785  0.8438
  133MOL0     C17440   7.115   8.971   5.388 -0.1660  0.0861 -0.1669
  133MOL0     N17441   7.041   8.982   5.520  0.5767  0.0432  0.6987
  133MOL0     C17442   6.915   8.933   5.547 -0.0716 -1.0353  0.4688
  133MOL0     C17443   6.897   8.961   5.680  0.1620  0.8010  0.1183
  133MOL0     C17444   6.779   8.932   5.767 -0.4575  0.4101 -0.2855
  133MOL0     C17445   6.697   9.067   5.771  0.4358  0.3637  0.4221
  133MOL0     C17446   6.607   9.061   5.899 -0.2230  0.0239 -0.6727
  133MOL0     C17447   6.521   9.190   5.924 -0.1314 -0.6353  0.0604
  133MOL0     O17448   6.611   9.303   5.895 -0.6980  0.4618  0.0098
  133MOL0     C17449   6.567   9.431   5.899  0.2741 -0.9449  0.6207
  133MOL0     C17450   6.651   9.531   5.849  0.4243  0.3961  0.8169
  133MOL0     C17451   6.617   9.663   5.826 -0.1856  0.4865 -0.0500
  133MOL0     C17452   6.483   9.702   5.853 -0.0936  0.2239 -0.0746
  133MOL0     C17453   6.439   9.841   5.837  0.3009  0.8660  0.0786
  133MOL0     O17454   6.530   9.924   5.785 -0.1371 -0.1856  0.4650
  133MOL0     C17455   6.515  10.062   5.764  0.0074  0.8278  0.4943
  133MOL0     C17456   6.402  10.144   5.783 -0.1304  0.3286 -0.0411
  133MOL0     C17457   6.410  10.282   5.767 -0.6680  0.0435 -0.0156
  133MOL0     C17458   6.536  10.343   5.721  0.8902  0.5573  0.4139
  133MOL0     O17459   6.554  10.471   5.703  0.1672 -0.2055 -0.0772
  133MOL0     C17460   6.462  10.555   5.766  0.1337  0.0813 -0.9808
  133MOL0     C17461   6.357  10.608   5.669  0.9453  0.1627  0.7756
  133MOL0     C17462   6.246  10.696   5.735  0.6639  0.4859  0.1361
  133MOL0     C17463   6.146  10.619   5.816  0.2213  0.4275  0.7241
  133MOL0     C17464   6.033  10.719   5.862 -0.3910 -0.6075  0.0260
  133MOL0     C17465   5.928  10.655   5.953 -0.7459 -0.8002 -0.8216
  133MOL0     C17466   5.833  10.757   6.018 -0.3970  1.0887  0.2020
  133MOL0     C17467   5.726  10.818   5.922 -0.0107  0.8524  1.1211
  133MOL0    Cl17468   5.802  10.934   5.806  0.6037  0.3403  0.0951
  133MOL0     C17469   6.641  10.254   5.692 -0.7928  0.1066 -0.6228
  133MOL0     C17470   6.631  10.115   5.718 -0.2306 -1.0298 -0.7337
  133MOL0     O17471   6.337   9.875   5.902  0.0570 -0.3005  0.7327
  133MOL0     C17472   6.396   9.601   5.914 -0.1767  0.3843  0.4127
  133MOL0     C17473   6.435   9.468   5.933  0.4426  0.1242  0.3625
  133MOL0     N17474   7.001   9.030   5.728 -0.5832 -0.6455 -0.2436
  133MOL0     N17475   7.086   9.043   5.630  0.5805 -0.3986 -0.2822
  133MOL0     C17476   7.141   8.771   4.555  0.7111  0.2684 -0.3874
  133MOL0     C17477   7.028   8.828   4.492 -0.5276 -0.2188  0.6083
  133MOL0     C17478   6.691   9.097   4.416 -1.1314  0.4700  0.0074
  133MOL0     C17479   6.565   9.031   4.423 -0.2373 -1.0953 -0.2630
  133MOL0     C17480   6.453   9.108   4.422  0.0100  0.1598 -0.0544
  133MOL0     C17481   6.457   9.245   4.391  0.9816  0.4968  0.0508
  133MOL0     O17482   6.346   9.319   4.377  0.1322 -0.4917  0.3438
  133MOL0     C17483   6.212   9.268   4.419 -0.0802 -0.3873  0.8091
  133MOL0     C17484   6.119   9.385   4.386 -0.4695  0.1958  0.4173
  133MOL0     C17485   5.969   9.362   4.422 -0.5169  0.6026  0.2403
  133MOL0     C17486   5.903   9.497   4.410 -0.1152  0.1130 -0.4054
  133MOL0     C17487   5.755   9.492   4.405 -1.0050 -0.6826  0.2904
  133MOL0     C17488   5.635   9.490   4.387 -0.7543  0.5875 -0.2664
  133MOL0     C17489   6.575   9.312   4.363 -0.3447  0.9244 -0.0129
  133MOL0     C17490   6.696   9.236   4.385 -0.7294 -0.6924  0.6746
  133MOL0     H17491   6.787   8.773   4.718  0.4265 -1.9843  2.0199
  133MOL0     H17492   6.976   8.646   4.821  1.5208  1.2920  0.7133
  133MOL0     H17493   7.339   8.826   4.745 -2.1657 -0.4133  0.6045
  133MOL0     H17494   7.399   8.697   4.652 -2.0225  1.9398 -1.6956
  133MOL0     H17495   7.529   8.735   4.858 -1.9250  2.2772 -0.5215
  133MOL0     H17496   7.451   8.572   4.865 -0.6286 -0.3243  1.0155
  133MOL0     H17497   7.284   8.644   5.015 -1.5396  1.3639 -1.3383
  133MOL0     H17498   7.297   8.814   4.978  0.9749 -0.1583  0.1158
  133MOL0     H17499   7.526   8.661   5.111  2.9801  2.3422  1.6869
  133MOL0     H17500   7.516   8.830   5.096 -0.4109  0.8057  0.3364
  133MOL0     H17501   7.470   8.761   5.313 -0.1314  3.0923 -0.9239
  133MOL0     H17502   7.327   8.651   5.264  1.2752 -1.8207 -0.3440
  133MOL0     H17503   7.203   8.852   5.184  1.1685  0.2046 -1.4407
  133MOL0     H17504   7.334   8.956   5.246  2.0598 -1.6614 -0.9679
  133MOL0     H17505   7.152   8.759   5.389  0.3676  0.9113  0.7840
  133MOL0     H17506   7.287   8.862   5.461  1.6904  2.8335 -0.9944
  133MOL0     H17507   7.043   8.969   5.306 -1.4385  1.2117  0.8622
  133MOL0     H17508   7.171   9.065   5.381 -0.1975  0.5168  3.5597
  133MOL0     H17509   6.844   8.876   5.488 -1.3710  0.8606  0.0868
  133MOL0     H17510   6.818   8.906   5.866 -1.2037  0.8847  0.1394
  133MOL0     H17511   6.731   8.844   5.724  0.4431 -1.0401  1.5839
  133MOL0     H17512   6.630   9.073   5.685 -0.1307  1.9403  0.9242
  133MOL0     H17513   6.755   9.160   5.779 -1.7927  1.9499 -0.6436
  133MOL0     H17514   6.538   8.976   5.890 -2.5320  1.4309  2.1403
  133MOL0     H17515   6.668   9.046   5.989  2.5881  3.0051 -1.9177
  133MOL0     H17516   6.487   9.192   6.028 -0.1394  0.9777  0.0477
  133MOL0     H17517   6.437   9.194   5.854  1.7025  3.6361 -2.2591
  133MOL0     H17518   6.752   9.500   5.825 -0.3832  0.1593 -3.0329
  133MOL0     H17519   6.692   9.737   5.799  0.6824  2.2961  5.8785
  133MOL0     H17520   6.302  10.109   5.804 -1.0155  1.9735 -1.3089
  133MOL0     H17521   6.318  10.337   5.788  0.1338  1.5313 -0.2254
  133MOL0     H17522   6.515  10.644   5.801 -1.3949 -0.0855  2.0915
  133MOL0     H17523   6.415  10.519   5.858  1.1184  2.1104  0.3915
  133MOL0     H17524   6.311  10.523   5.618  0.0168  0.5840  0.8772
  133MOL0     H17525   6.410  10.666   5.593  1.5596 -1.1383  0.1955
  133MOL0     H17526   6.192  10.756   5.661  0.4623  1.5637  1.1376
  133MOL0     H17527   6.294  10.762   5.808 -0.4062 -0.4413  1.7393
  133MOL0     H17528   6.093  10.539   5.762 -0.4611  1.4950 -0.2311
  133MOL0     H17529   6.200  10.577   5.901 -1.3388 -0.3674  1.3810
  133MOL0     H17530   5.982  10.759   5.774  2.6674  2.2919 -0.5967
  133MOL0     H17531   6.075  10.801   5.920 -1.4315  0.1764 -0.2935
  133MOL0     H17532   5.989  10.611   6.033 -1.2946 -0.5903 -0.2730
  133MOL0     H17533   5.867  10.583   5.899 -2.5955  0.4431 -0.4583
  133MOL0     H17534   5.786  10.698   6.096  0.9427  0.2357  0.3975
  133MOL0     H17535   5.894  10.830   6.073 -0.6955 -0.5084  2.8241
  133MOL0     H17536   5.651  10.876   5.977  0.9053  0.9869  2.2835
  133MOL0     H17537   5.662  10.748   5.868 -0.6597  1.6977  0.7560
  133MOL0     H17538   6.735  10.296   5.658 -0.4374 -1.3347 -1.5003
  133MOL0     H17539   6.712  10.046   5.696  1.1214  0.3424 -0.2312
  133MOL0     H17540   6.297   9.630   5.948  0.4229  0.4699  2.1699
  133MOL0     H17541   6.361   9.398   5.971  2.2145 -1.5205  0.9307
  133MOL0     H17542   7.238   8.764   4.506 -0.1929  2.4047 -2.6766
  133MOL0     H17543   7.038   8.867   4.391 -0.1657  0.4776  0.9005
  133MOL0     H17544   6.555   8.929   4.462 -0.9499 -0.5686  1.0127
  133MOL0     H17545   6.366   9.049   4.449 -0.1069  0.6748  0.7383
  133MOL0     H17546   6.210   9.256   4.528 -1.4543 -1.4404  0.6928
  133MOL0     H17547   6.174   9.183   4.362  1.1331  1.9020 -3.9137
  133MOL0     H17548   6.147   9.467   4.451 -1.6620  0.3386  0.7743
  133MOL0     H17549   6.130   9.409   4.280  1.8174 -2.4538 -0.0816
  133MOL0     H17550   5.957   9.310   4.517  0.2942  0.8335  0.4741
  133MOL0     H17551   5.928   9.291   4.349 -0.5720 -0.5532  1.3741
  133MOL0     H17552   5.938   9.560   4.492 -2.6716  1.9316 -0.5942
  133MOL0     H17553   5.930   9.533   4.311  1.3405 -1.5943 -0.6781
  133MOL0     H17554   5.531   9.477   4.367 -0.3307 -4.4334 -0.5622
  133MOL0     H17555   6.586   9.417   4.337  1.0930  0.6289 -0.6705
  133MOL0     H17556   6.785   9.297   4.370 -2.0950  1.2948  0.2043
  134MOL0     O17557   6.206   4.101   5.676 -0.1174 -0.2841  0.0153
  134MOL0     C17558   6.219   4.220   5.675  0.3075  0.4242 -0.1922
  134MOL0     O17559   6.117   4.311   5.690  0.3509  0.0720  0.0243
  134MOL0     C17560   5.991   4.282   5.730  0.1504  0.3602  0.5274
  134MOL0     C17561   5.957   4.217   5.852  0.3931 -0.5276 -0.5065
  134MOL0     C17562   5.824   4.194   5.891 -0.8478 -0.2449 -0.1503
  134MOL0     C17563   5.722   4.239   5.810  0.3731 -0.1504  0.7456
  134MOL0     O17564   5.591   4.243   5.863  0.1299  0.6725 -0.2490
  134MOL0     C17565   5.526   4.118   5.846  0.2293  0.2203 -0.4875
  134MOL0     C17566   5.427   4.089   5.959 -0.3032 -0.0351  0.0764
  134MOL0     C17567   5.314   4.188   5.938  0.7391 -0.7810  0.0425
  134MOL0     C17568   5.192   4.152   6.032  0.8806  0.1746  0.9623
  134MOL0     C17569   5.080   4.255   6.026  0.0059 -0.2003  0.2035
  134MOL0     C17570   5.015   4.274   5.880  0.6012  0.0629 -1.0291
  134MOL0     C17571   4.887   4.364   5.900 -0.3174  0.1109 -0.2741
  134MOL0     C17572   4.838   4.427   5.775 -0.2400  0.2589  0.3179
  134MOL0     N17573   4.728   4.524   5.791  0.5068 -0.3797 -0.0690
  134MOL0     C17574   4.589   4.495   5.778 -0.7260 -0.1224 -0.1715
  134MOL0     C17575   4.528   4.598   5.846 -0.0346 -0.2800 -0.1177
  134MOL0     C17576   4.373   4.601   5.877 -0.4715 -0.8093 -0.6285
  134MOL0     C17577   4.311   4.739   5.839  0.0204  0.1736 -0.1749
  134MOL0     C17578   4.176   4.752   5.910 -0.1801  0.1622 -0.1183
  134MOL0     C17579   4.097   4.858   5.839  0.8732  0.4473 -0.2985
  134MOL0     O17580   4.008   4.795   5.743 -0.1026  0.1171 -0.0646
  134MOL0     C17581   3.895   4.863   5.704  0.0877  0.6023  0.1162
  134MOL0     C17582   3.848   4.992   5.742 -0.9476 -0.2848 -0.8922
  134MOL0     C17583   3.729   5.046   5.689  0.3649  0.7195  0.1039
  134MOL0     C17584   3.652   4.978   5.587 -0.1971 -0.0516 -0.2768
  134MOL0     C17585   3.539   5.043   5.511 -0.6543 -0.4033 -0.5790
  134MOL0     O17586   3.516   5.177   5.529 -0.1238  0.2248  0.0829
  134MOL0     C17587   3.399   5.220   5.469  0.0704 -0.1088 -0.1986
  134MOL0     C17588   3.415   5.311   5.368  1.0037  0.2277 -0.7710
  134MOL0     C17589   3.305   5.356   5.290  0.2120  0.1574  0.3796
  134MOL0     C17590   3.179   5.305   5.317 -0.2355  0.3299 -0.1851
  134MOL0     O17591   3.085   5.337   5.222  0.5277 -0.1105  0.0261
  134MOL0     C17592   2.943   5.310   5.238 -0.0303  0.3341  0.2538
  134MOL0     C17593   2.855   5.356   5.120 -0.1704  0.1976 -0.4542
  134MOL0     C17594   2.707   5.317   5.148 -0.2103 -0.6839 -0.2128
  134MOL0     C17595   2.634   5.403   5.256  0.0839  0.4299  1.1726
  134MOL0     C17596   2.476   5.378   5.249 -0.4766  0.4503  0.1400
  134MOL0     C17597   2.405   5.417   5.383 -0.1120 -0.2615 -0.5111
  134MOL0     C17598   2.258   5.413   5.376  0.2359  0.4496  0.7003
  134MOL0     C17599   2.199   5.453   5.507  0.3835  1.2467  0.3904
  134MOL0    Cl17600   2.211   5.332   5.632  0.2817 -0.0121  0.2372
  134MOL0     C17601   3.158   5.223   5.425  0.2858  0.6641  0.0825
  134MOL0     C17602   3.268   5.181   5.501  0.0596 -0.0402  0.4974
  134MOL0     O17603   3.486   4.969   5.433  0.1758 -0.3811  0.0162
  134MOL0     C17604   3.704   4.852   5.551 -0.2161  0.2075  0.1306
  134MOL0     C17605   3.820   4.798   5.611 -0.4767 -0.2146 -0.0330
  134MOL0     N17606   4.620   4.672   5.904 -0.1631  0.4876 -0.1797
  134MOL0     N17607   4.735   4.637   5.868 -0.4209  0.0228  0.3371
  134MOL0     C17608   5.762   4.320   5.696  0.5949  0.0866  0.7118
  134MOL0     C17609   5.892   4.333   5.652  1.8367 -0.7552  0.0224
  134MOL0     C17610   6.344   4.276   5.634  0.6337  0.0341 -0.1542
  134MOL0     C17611   6.359   4.414   5.593  0.2350 -0.0371  0.3747
  134MOL0     C17612   6.479   4.460   5.553  0.3220  0.2832  0.8389
  134MOL0     C17613   6.591   4.379   5.547  0.1891  0.6041 -0.6442
  134MOL0     O17614   6.703   4.436   5.504  0.0684 -0.5115 -0.3230
  134MOL0     C17615   6.815   4.347   5.476 -0.6761 -0.6736  0.1004
  134MOL0     C17616   6.922   4.426   5.392 -0.1243 -0.3285  0.2284
  134MOL0     C17617   7.025   4.325   5.333  0.8856 -0.2050  0.2757
  134MOL0     C17618   7.143   4.391   5.269  0.1349  0.7082  0.8233
  134MOL0     C17619   7.241   4.440   5.368 -0.0692  0.8523  0.5207
  134MOL0     C17620   7.317   4.479   5.450 -0.0582  0.0650  0.4046
  134MOL0     C17621   6.580   4.249   5.586 -0.0233  0.3277 -0.6102
  134MOL0     C17622   6.461   4.196   5.627  0.5439  1.0123 -0.6642
  134MOL0     H17623   6.031   4.182   5.923  2.3290  0.1074 -2.1249
  134MOL0     H17624   5.804   4.137   5.981  1.2688 -0.3216  0.3348
  134MOL0     H17625   5.595   4.035   5.835  2.5517  1.9039  0.6760
  134MOL0     H17626   5.490   4.103   5.743  1.8987 -0.4025 -1.0133
  134MOL0     H17627   5.480   4.089   6.055 -0.5122  0.5912  0.1981
  134MOL0     H17628   5.381   3.990   5.952  1.3296 -1.3069  4.1031
  134MOL0     H17629   5.278   4.193   5.835  0.5253 -0.2024  0.1416
  134MOL0     H17630   5.353   4.283   5.975  3.1888 -1.8536  0.4226
  134MOL0     H17631   5.156   4.053   6.002 -2.8240  1.3947  0.9098
  134MOL0     H17632   5.219   4.150   6.138 -1.9934  0.4986  1.7749
  134MOL0     H17633   5.112   4.350   6.070  1.9434 -1.0461  0.6926
  134MOL0     H17634   4.998   4.217   6.088 -2.3390  0.8021 -2.0725
  134MOL0     H17635   4.995   4.171   5.849  4.0740 -1.9015  2.3172
  134MOL0     H17636   5.085   4.319   5.810  1.0861  1.5251  0.3429
  134MOL0     H17637   4.806   4.305   5.945  0.0518 -1.4125 -1.5227
  134MOL0     H17638   4.921   4.443   5.967 -0.1500 -0.9674  0.9330
  134MOL0     H17639   4.822   4.347   5.702  0.6967 -0.1339  0.5267
  134MOL0     H17640   4.923   4.483   5.734 -0.7822  0.0166 -1.2189
  134MOL0     H17641   4.539   4.410   5.733  0.2109 -1.2240  0.7910
  134MOL0     H17642   4.341   4.567   5.976  0.2979  0.3920  0.0615
  134MOL0     H17643   4.330   4.536   5.800  0.6123 -0.4985 -1.5338
  134MOL0     H17644   4.311   4.742   5.730  0.6471  1.9412 -0.1591
  134MOL0     H17645   4.373   4.820   5.878  2.5575 -1.3828 -0.7227
  134MOL0     H17646   4.118   4.659   5.914  0.1970 -0.0358  1.1557
  134MOL0     H17647   4.206   4.781   6.011  0.9960  3.1283 -1.2021
  134MOL0     H17648   4.166   4.928   5.792  3.2199 -0.2775  1.8758
  134MOL0     H17649   4.036   4.915   5.909 -1.4672 -1.4321 -0.6358
  134MOL0     H17650   3.898   5.062   5.809 -1.0149 -1.1735  0.1168
  134MOL0     H17651   3.695   5.145   5.717 -1.0348  0.3008 -0.0311
  134MOL0     H17652   3.514   5.354   5.360  0.8529  0.3602 -2.0742
  134MOL0     H17653   3.322   5.427   5.210 -2.7039  4.1466  2.8963
  134MOL0     H17654   2.912   5.361   5.330  1.6864 -1.5919  2.0103
  134MOL0     H17655   2.916   5.205   5.251 -0.0956  0.5127  1.8075
  134MOL0     H17656   2.884   5.295   5.034  1.5281 -2.5437  1.8957
  134MOL0     H17657   2.876   5.461   5.096 -2.4962  0.8088 -0.0451
  134MOL0     H17658   2.694   5.210   5.166 -0.1465 -0.3880  1.7866
  134MOL0     H17659   2.654   5.349   5.058 -0.4958 -1.3219 -0.2708
  134MOL0     H17660   2.665   5.374   5.357 -1.8291  1.9984  2.2955
  134MOL0     H17661   2.659   5.509   5.246 -1.3114  0.8842  2.1777
  134MOL0     H17662   2.460   5.270   5.237 -0.2790  0.4273  0.0724
  134MOL0     H17663   2.432   5.432   5.165  2.3158  0.8049 -1.2381
  134MOL0     H17664   2.441   5.517   5.407  1.2903 -0.3173 -2.1275
  134MOL0     H17665   2.448   5.356   5.463  0.1435  1.0141  0.3397
  134MOL0     H17666   2.214   5.485   5.307 -0.7603 -0.8117 -0.0246
  134MOL0     H17667   2.236   5.310   5.345 -0.5186  1.1481 -1.1848
  134MOL0     H17668   2.094   5.469   5.483  0.6577  1.4566 -0.7217
  134MOL0     H17669   2.234   5.549   5.548 -0.8287  1.8012  0.1757
  134MOL0     H17670   3.056   5.186   5.436 -0.5834  2.4280 -1.5325
  134MOL0     H17671   3.260   5.105   5.578  0.8013 -2.4487 -1.6418
  134MOL0     H17672   3.658   4.784   5.480  0.6250 -0.5847  0.3289
  134MOL0     H17673   3.849   4.698   5.579  1.0913 -0.2707  1.4188
  134MOL0     H17674   5.680   4.364   5.641  0.7049  0.1219  0.5774
  134MOL0     H17675   5.914   4.397   5.568 -3.1821  1.4818  0.0569
  134MOL0     H17676   6.272   4.478   5.604 -2.3682 -3.4746  1.4051
  134MOL0     H17677   6.488   4.563   5.519 -1.0401  0.8885  2.1743
  134MOL0     H17678   6.782   4.257   5.424 -2.5642 -1.4312  2.4406
  134MOL0     H17679   6.861   4.303   5.565  3.4691  0.9073 -0.9946
  134MOL0     H17680   6.878   4.496   5.321 -0.2796  1.2297  1.7828
  134MOL0     H17681   6.967   4.502   5.457 -2.7434  1.1393  0.4746
  134MOL0     H17682   6.966   4.273   5.256  0.3330  0.1720  0.4405
  134MOL0     H17683   7.053   4.256   5.413  1.7737  1.2542  1.2667
  134MOL0     H17684   7.178   4.322   5.192 -0.3702  3.2404 -1.8211
  134MOL0     H17685   7.115   4.472   5.202 -0.6793 -0.9077 -0.9093
  134MOL0     H17686   7.388   4.517   5.522 -0.3372  2.0490 -0.3075
  134MOL0     H17687   6.665   4.182   5.590 -0.2260 -0.1593 -2.9275
  134MOL0     H17688   6.448   4.090   5.645  2.1832  0.6439 -1.4263
  135MOL0     O17689   8.298   4.350   9.233 -0.0349 -0.6777 -0.3941
  135MOL0     C17690   8.357   4.388   9.135 -1.5404  0.3691  0.4401
  135MOL0     O17691   8.299   4.458   9.031  0.4088  0.2202  0.0423
  135MOL0     C17692   8.162   4.487   9.056 -1.1263 -0.1429 -0.1668
  135MOL0     C17693   8.126   4.622   9.060 -0.4617 -0.4764  0.0574
  135MOL0     C17694   7.991   4.647   9.076 -0.6139 -0.1413 -0.7947
  135MOL0     C17695   7.888   4.556   9.095  0.6909  0.6259 -1.0581
  135MOL0     O17696   7.765   4.600   9.123 -0.4161 -0.4278  0.3766
  135MOL0     C17697   7.664   4.524   9.072  0.6739 -0.3740  0.7304
  135MOL0     C17698   7.656   4.510   8.918  0.4537 -0.1411 -0.1827
  135MOL0     C17699   7.523   4.448   8.873  0.1955 -1.0530 -0.7457
  135MOL0     C17700   7.502   4.443   8.717 -0.7317  0.1497 -0.2578
  135MOL0     C17701   7.367   4.404   8.663  0.6963 -0.1514 -0.1424
  135MOL0     C17702   7.259   4.497   8.717  0.1801  0.5748  0.0788
  135MOL0     C17703   7.121   4.501   8.646 -0.2459  0.3537  0.1564
  135MOL0     C17704   7.012   4.576   8.729 -0.5300 -0.3703  0.6568
  135MOL0     N17705   6.955   4.485   8.828  0.1222 -0.8961 -0.6411
  135MOL0     C17706   6.979   4.490   8.961 -0.2202  0.6511  0.1827
  135MOL0     C17707   6.919   4.382   9.016 -0.3162 -0.4906 -0.3174
  135MOL0     C17708   6.902   4.351   9.155  0.1837 -0.1128 -0.1771
  135MOL0     C17709   7.036   4.344   9.229 -0.5626 -0.3563 -0.7293
  135MOL0     C17710   7.012   4.331   9.382  0.7105  0.5740  0.1124
  135MOL0     C17711   7.134   4.299   9.458  1.6124  0.4309  0.2477
  135MOL0     O17712   7.246   4.376   9.413  0.2811  0.5086  0.7492
  135MOL0     C17713   7.374   4.347   9.458 -0.7295  0.5463 -0.6870
  135MOL0     C17714   7.400   4.258   9.559 -0.0324  0.4749  0.3818
  135MOL0     C17715   7.527   4.230   9.600 -0.4760 -0.1924 -0.1955
  135MOL0     C17716   7.640   4.296   9.548 -0.0802 -0.0704 -0.5312
  135MOL0     C17717   7.779   4.266   9.602  0.8373  1.4452  0.3241
  135MOL0     O17718   7.877   4.342   9.564 -0.8032 -0.3671 -0.0295
  135MOL0     C17719   8.006   4.339   9.621 -0.4407  0.2053  0.3413
  135MOL0     C17720   8.037   4.322   9.763 -0.0077 -0.1564 -0.0287
  135MOL0     C17721   8.166   4.313   9.808 -0.3060  0.5324 -0.1543
  135MOL0     C17722   8.277   4.332   9.726 -0.5369  0.5076 -0.0868
  135MOL0     O17723   8.406   4.332   9.770 -0.1858  0.2347 -0.0244
  135MOL0     C17724   8.436   4.353   9.913  0.3859 -0.2008 -0.7029
  135MOL0     C17725   8.582   4.327   9.931 -0.8732 -0.1580  0.2770
  135MOL0     C17726   8.626   4.174   9.908 -0.3064 -0.0361  0.0290
  135MOL0     C17727   8.779   4.159   9.941  0.2916 -0.6581 -0.0788
  135MOL0     C17728   8.820   4.015   9.945 -0.4708  0.0105 -0.3613
  135MOL0     C17729   8.975   4.002   9.945  0.3718  0.3476  0.5524
  135MOL0     C17730   9.041   4.041  10.079  0.8686 -0.0532  0.9933
  135MOL0     C17731   9.191   4.058  10.076 -0.7024  0.3919 -0.0071
  135MOL0    Cl17732   9.268   3.902  10.028 -0.2098 -0.4864  0.1415
  135MOL0     C17733   8.249   4.352   9.588  0.3350  0.0989  0.0152
  135MOL0     C17734   8.119   4.357   9.534 -0.2023  0.1270  0.5265
  135MOL0     O17735   7.789   4.166   9.681 -0.3510 -0.2458  0.2072
  135MOL0     C17736   7.619   4.378   9.437 -0.3171 -1.0914  0.8662
  135MOL0     C17737   7.485   4.403   9.394 -0.5789  0.5012  0.2721
  135MOL0     N17738   6.852   4.323   8.910 -0.3913 -0.1240 -0.5218
  135MOL0     N17739   6.872   4.384   8.800  0.0609  0.1247  0.7634
  135MOL0     C17740   7.939   4.415   9.089  0.0268 -0.7632 -0.2079
  135MOL0     C17741   8.070   4.390   9.067  0.3141 -1.1701 -0.4058
  135MOL0     C17742   8.504   4.356   9.129 -0.0714  0.3744 -0.5530
  135MOL0     C17743   8.578   4.321   9.249  0.3936  0.1178 -0.1960
  135MOL0     C17744   8.709   4.274   9.250  0.2878  0.5547 -0.3288
  135MOL0     C17745   8.782   4.273   9.125 -0.3532  0.5796  0.1213
  135MOL0     O17746   8.911   4.217   9.116  0.5028 -0.4756 -0.8521
  135MOL0     C17747   8.986   4.177   9.236 -0.2670 -0.0166  0.6536
  135MOL0     C17748   9.117   4.124   9.190  0.0550  0.2406  0.2627
  135MOL0     C17749   9.222   4.085   9.307  0.3738  0.2836  0.3154
  135MOL0     C17750   9.340   4.017   9.243  0.5482 -0.0052 -0.3973
  135MOL0     C17751   9.439   3.999   9.350 -0.4420  0.0985 -0.2930
  135MOL0     C17752   9.534   3.990   9.429  0.7928 -0.0341  0.6028
  135MOL0     C17753   8.718   4.327   9.009  0.2938 -0.8435 -0.5605
  135MOL0     C17754   8.583   4.364   9.015  0.1375  0.7047 -0.5472
  135MOL0     H17755   8.181   4.709   9.026 -1.6316  0.3883  0.3218
  135MOL0     H17756   7.968   4.753   9.080  1.0042  0.3047 -2.2866
  135MOL0     H17757   7.575   4.580   9.102  0.5473  0.9610 -1.9121
  135MOL0     H17758   7.656   4.426   9.120  0.4304 -1.3465 -1.1918
  135MOL0     H17759   7.736   4.455   8.869  0.7214  0.3950 -0.3554
  135MOL0     H17760   7.659   4.613   8.881 -0.5874 -0.0331  0.0131
  135MOL0     H17761   7.436   4.496   8.918  0.2849 -2.2695  0.8380
  135MOL0     H17762   7.514   4.346   8.912  1.7715 -0.2134  2.1633
  135MOL0     H17763   7.521   4.545   8.683 -1.5308  1.4422  2.8339
  135MOL0     H17764   7.564   4.363   8.675 -0.5715  0.5608 -0.8083
  135MOL0     H17765   7.345   4.300   8.690 -0.7515  0.1545 -0.0441
  135MOL0     H17766   7.365   4.413   8.554 -0.1965  0.3785 -0.0917
  135MOL0     H17767   7.290   4.600   8.734 -2.2244  1.1553  1.3998
  135MOL0     H17768   7.239   4.461   8.818 -2.6967  0.6332 -0.3956
  135MOL0     H17769   7.143   4.559   8.556  0.7397 -1.0971 -0.5753
  135MOL0     H17770   7.089   4.400   8.620 -1.3187  0.9136 -0.7706
  135MOL0     H17771   6.936   4.609   8.657  0.3289  3.8454  1.4449
  135MOL0     H17772   7.045   4.672   8.769  1.0501 -0.1514 -1.0273
  135MOL0     H17773   7.038   4.564   9.015 -2.5686  2.3207  0.5813
  135MOL0     H17774   6.846   4.258   9.169  0.5393 -0.0714  1.9072
  135MOL0     H17775   6.836   4.421   9.209 -1.3845 -1.4856 -0.2598
  135MOL0     H17776   7.104   4.428   9.215 -0.8266  0.1206  0.6831
  135MOL0     H17777   7.096   4.260   9.193  1.2649 -1.3389  3.9162
  135MOL0     H17778   6.962   4.425   9.408 -1.2885  0.4940 -2.8934
  135MOL0     H17779   6.941   4.252   9.408  1.5383 -0.0275  0.6027
  135MOL0     H17780   7.158   4.192   9.455  0.8515  0.2058  1.3307
  135MOL0     H17781   7.113   4.321   9.564 -1.4735 -0.3114 -0.1039
  135MOL0     H17782   7.333   4.179   9.594  0.6564 -1.0918 -1.5941
  135MOL0     H17783   7.539   4.161   9.682 -0.6902  0.4952  0.4207
  135MOL0     H17784   7.955   4.331   9.834  0.8615 -1.9296  1.2606
  135MOL0     H17785   8.173   4.292   9.914  1.1581  1.0222 -0.1309
  135MOL0     H17786   8.385   4.282   9.978  2.8025 -4.1080 -2.6899
  135MOL0     H17787   8.422   4.456   9.947  1.7243 -0.6651  1.4253
  135MOL0     H17788   8.610   4.362  10.031 -1.2654  0.4088  0.1903
  135MOL0     H17789   8.628   4.386   9.851 -3.2792  1.4283 -0.0294
  135MOL0     H17790   8.611   4.156   9.801  0.4763 -0.3129 -0.0405
  135MOL0     H17791   8.570   4.106   9.973  3.7648 -1.0791  2.8314
  135MOL0     H17792   8.840   4.210   9.866 -0.8177 -1.4685 -1.5753
  135MOL0     H17793   8.794   4.218  10.032  1.4807  0.3598 -0.9054
  135MOL0     H17794   8.779   3.963   9.858  0.4791 -2.0672  0.3640
  135MOL0     H17795   8.777   3.983  10.041 -1.2124  1.5129 -0.1731
  135MOL0     H17796   9.014   4.059   9.860 -0.3465  0.7621  0.4881
  135MOL0     H17797   9.000   3.896   9.939 -0.4919  0.0850  1.2856
  135MOL0     H17798   8.992   4.126  10.126 -0.3509  0.1481 -0.5567
  135MOL0     H17799   9.030   3.962  10.153 -0.2172  0.0684  0.9699
  135MOL0     H17800   9.231   4.080  10.175 -0.5330  0.6176 -0.1237
  135MOL0     H17801   9.217   4.136  10.005 -0.2537  2.4506  2.3021
  135MOL0     H17802   8.337   4.362   9.524  0.4693 -0.6250  0.0786
  135MOL0     H17803   8.105   4.366   9.426  4.1218  2.2219 -0.0806
  135MOL0     H17804   7.702   4.420   9.381  0.4764 -2.3709  1.0459
  135MOL0     H17805   7.470   4.449   9.297  2.6846 -2.6043 -1.9871
  135MOL0     H17806   7.871   4.334   9.113 -0.4837  0.1421  1.5608
  135MOL0     H17807   8.103   4.287   9.061 -0.4514 -1.4022 -0.7012
  135MOL0     H17808   8.518   4.314   9.339 -1.5753 -0.1426 -1.4602
  135MOL0     H17809   8.755   4.244   9.344 -0.4819  3.1786  0.9967
  135MOL0     H17810   8.939   4.097   9.294 -0.0067 -2.4097 -2.1648
  135MOL0     H17811   8.998   4.268   9.295 -1.6407  0.3823  0.3562
  135MOL0     H17812   9.104   4.034   9.129 -2.2181 -2.0051  3.7231
  135MOL0     H17813   9.167   4.193   9.121  3.6115 -2.6183 -0.2703
  135MOL0     H17814   9.180   4.012   9.377  2.3713 -2.4351 -1.1309
  135MOL0     H17815   9.257   4.176   9.358 -1.4554  0.6882  0.9406
  135MOL0     H17816   9.318   3.921   9.195  0.0214  0.3025 -0.7922
  135MOL0     H17817   9.379   4.083   9.165  0.4100 -0.2180 -0.6471
  135MOL0     H17818   9.614   3.987   9.501  0.6579 -0.3024  0.7389
  135MOL0     H17819   8.776   4.340   8.917 -0.5517  2.8146 -0.7002
  135MOL0     H17820   8.533   4.410   8.930 -1.4699  0.1173  0.0456
  136MOL0     O17821   6.268   8.829   1.958  0.2177  0.2778 -0.1879
  136MOL0     C17822   6.331   8.732   1.917  0.0973  0.2609 -0.5234
  136MOL0     O17823   6.282   8.599   1.907 -0.1518  0.4373  0.8137
  136MOL0     C17824   6.155   8.572   1.951  0.1445  0.2481 -0.5807
  136MOL0     C17825   6.123   8.445   2.006  0.4490  0.1897 -0.0141
  136MOL0     C17826   5.987   8.408   2.022 -0.0241  0.8298  0.4059
  136MOL0     C17827   5.884   8.495   1.987  0.4890 -0.1303 -0.1147
  136MOL0     O17828   5.758   8.436   1.993 -0.4586 -0.0060  0.3449
  136MOL0     C17829   5.657   8.509   1.923  0.1760  0.8601 -0.7869
  136MOL0     C17830   5.519   8.456   1.952 -0.2536  1.1531  0.5026
  136MOL0     C17831   5.413   8.515   1.855 -0.5011 -0.5580 -0.5274
  136MOL0     C17832   5.393   8.669   1.871  0.4342 -0.3416 -0.6873
  136MOL0     C17833   5.265   8.711   1.806 -0.5514  0.3390 -0.0761
  136MOL0     C17834   5.206   8.853   1.831  0.6862  0.4360 -0.4524
  136MOL0     C17835   5.165   8.881   1.979  0.7678  0.1609 -0.1376
  136MOL0     C17836   5.085   8.772   2.054  0.2403 -0.8376 -0.5266
  136MOL0     N17837   4.958   8.733   1.996 -0.1418  0.5013 -0.4895
  136MOL0     C17838   4.876   8.625   2.028 -0.2279 -0.2277  0.7228
  136MOL0     C17839   4.764   8.649   1.954  0.3813  1.0256 -0.5064
  136MOL0     C17840   4.651   8.549   1.948 -1.7606 -0.0738 -0.3788
  136MOL0     C17841   4.521   8.599   1.885  0.8190  0.5925  0.6172
  136MOL0     C17842   4.454   8.712   1.959 -0.2464 -0.7806  0.3901
  136MOL0     C17843   4.319   8.740   1.896  0.5154  0.8572  0.1831
  136MOL0     O17844   4.246   8.615   1.883  0.8718  0.6510 -0.0924
  136MOL0     C17845   4.109   8.610   1.845 -0.4388  0.6612 -1.2901
  136MOL0     C17846   4.026   8.722   1.845 -0.1885 -0.2467  0.6612
  136MOL0     C17847   3.895   8.720   1.807 -0.4121 -0.6010 -0.9251
  136MOL0     C17848   3.842   8.600   1.761  0.3070 -0.4940 -0.5664
  136MOL0     C17849   3.695   8.596   1.745  0.7350 -0.2984  0.0528
  136MOL0     O17850   3.648   8.466   1.774  0.6609  0.6755 -0.0930
  136MOL0     C17851   3.514   8.438   1.755 -0.3579  1.0366  0.7979
  136MOL0     C17852   3.417   8.509   1.811  0.2986 -0.0338  0.1270
  136MOL0     C17853   3.282   8.484   1.787  0.2088 -0.0406 -1.0040
  136MOL0     C17854   3.238   8.383   1.704  0.2231  1.1410 -0.2746
  136MOL0     O17855   3.111   8.339   1.665 -0.8927 -0.6069 -0.0945
  136MOL0     C17856   2.997   8.423   1.698 -0.1922 -0.0870 -0.6512
  136MOL0     C17857   2.939   8.415   1.842 -0.5390 -0.2058  0.5329
  136MOL0     C17858   2.904   8.259   1.887  0.5467 -0.2584 -0.3025
  136MOL0     C17859   2.802   8.272   2.005  0.0476 -0.1476  1.1936
  136MOL0     C17860   2.745   8.137   2.036 -1.1072 -0.4810  0.5243
  136MOL0     C17861   2.633   8.152   2.137 -0.3920 -0.4265  0.1753
  136MOL0     C17862   2.533   8.037   2.163  0.2369 -1.1041 -0.1360
  136MOL0     C17863   2.446   8.076   2.284  0.3587 -0.6277  0.3929
  136MOL0    Cl17864   2.370   8.240   2.271  0.4208  0.1777  0.1885
  136MOL0     C17865   3.338   8.301   1.650 -0.2943 -1.1990 -0.4214
  136MOL0     C17866   3.474   8.331   1.673 -0.0249 -0.2532 -0.0494
  136MOL0     O17867   3.615   8.694   1.721 -0.1595 -0.0988  0.1492
  136MOL0     C17868   3.921   8.487   1.758  0.1548 -0.3559 -0.1660
  136MOL0     C17869   4.051   8.491   1.816 -0.4838 -0.2235  0.5022
  136MOL0     N17870   4.774   8.766   1.885  0.0133  0.0992  0.3888
  136MOL0     N17871   4.884   8.818   1.920  0.0069 -0.6496  0.1658
  136MOL0     C17872   5.914   8.624   1.937  0.9460  0.4411 -0.3494
  136MOL0     C17873   6.048   8.657   1.915 -0.6532  0.5068  0.5347
  136MOL0     C17874   6.469   8.759   1.863 -0.0215  0.6939  1.2914
  136MOL0     C17875   6.508   8.887   1.838  0.1106  0.2044 -0.7456
  136MOL0     C17876   6.633   8.918   1.782 -0.9627  0.1596  0.4116
  136MOL0     C17877   6.726   8.816   1.746  0.1536  0.9165 -0.0525
  136MOL0     O17878   6.847   8.857   1.692 -0.2455  0.4285  0.4299
  136MOL0     C17879   6.950   8.757   1.687 -0.4548  0.6682  0.4291
  136MOL0     C17880   7.081   8.820   1.632 -0.7351 -0.5576 -0.2379
  136MOL0     C17881   7.185   8.715   1.651  0.2163 -0.1599  0.7111
  136MOL0     C17882   7.310   8.743   1.567  0.0429 -0.0184  0.0196
  136MOL0     C17883   7.425   8.790   1.645 -0.2954  0.3860  0.0113
  136MOL0     C17884   7.503   8.844   1.720 -0.2298  1.2503  0.2561
  136MOL0     C17885   6.685   8.678   1.769  0.1956 -0.8695 -0.3420
  136MOL0     C17886   6.562   8.657   1.827 -0.4147  0.2459  0.4920
  136MOL0     H17887   6.194   8.365   2.023 -0.4411 -0.5943  0.0942
  136MOL0     H17888   5.960   8.305   2.040 -0.5881  1.3686  3.0667
  136MOL0     H17889   5.673   8.507   1.815 -1.0715  0.1308 -0.9870
  136MOL0     H17890   5.649   8.610   1.963 -0.0544  0.2860  0.6614
  136MOL0     H17891   5.490   8.476   2.055  1.2070  0.1201  1.1575
  136MOL0     H17892   5.527   8.346   1.955 -1.1977  1.0988  3.2362
  136MOL0     H17893   5.317   8.470   1.878 -1.3627  1.5261  0.2140
  136MOL0     H17894   5.438   8.490   1.751  0.1244 -2.2693 -0.0052
  136MOL0     H17895   5.387   8.709   1.973 -0.2624 -0.5376 -0.6390
  136MOL0     H17896   5.481   8.705   1.819  1.2828  3.1560  2.6989
  136MOL0     H17897   5.187   8.644   1.842  1.8215 -2.1970  0.6179
  136MOL0     H17898   5.266   8.687   1.699  0.0661  0.6115 -0.1376
  136MOL0     H17899   5.112   8.867   1.776 -1.2476 -1.4140  2.1093
  136MOL0     H17900   5.274   8.934   1.806 -1.6358  1.8761 -2.5371
  136MOL0     H17901   5.255   8.904   2.036  0.7199 -0.2127  0.0892
  136MOL0     H17902   5.101   8.970   1.973  1.1612  0.6694  2.3388
  136MOL0     H17903   5.069   8.794   2.160  1.2235 -1.5761 -0.2110
  136MOL0     H17904   5.154   8.688   2.065  1.4240  0.2765  0.9900
  136MOL0     H17905   4.896   8.535   2.084  1.1337  0.3211  1.1644
  136MOL0     H17906   4.628   8.510   2.047  2.4232  0.6036  1.0763
  136MOL0     H17907   4.696   8.466   1.892  1.7913  0.7479  0.9431
  136MOL0     H17908   4.452   8.514   1.887 -0.9744  1.9365 -0.6898
  136MOL0     H17909   4.535   8.628   1.780 -0.6604  2.5908  0.9001
  136MOL0     H17910   4.448   8.680   2.063  1.0370  3.6938  2.0633
  136MOL0     H17911   4.517   8.801   1.957 -0.0478 -0.9237 -0.3459
  136MOL0     H17912   4.342   8.779   1.796  1.1778  0.3072  0.1118
  136MOL0     H17913   4.263   8.810   1.957 -1.6412 -1.4625  1.0231
  136MOL0     H17914   4.064   8.821   1.870 -0.2036  0.1879 -0.9551
  136MOL0     H17915   3.845   8.814   1.824  3.0185  1.1108  0.8511
  136MOL0     H17916   3.448   8.598   1.863 -2.4233  2.8704 -2.7459
  136MOL0     H17917   3.211   8.560   1.817 -0.6089 -0.7105 -1.2110
  136MOL0     H17918   2.920   8.405   1.623  0.0957 -0.0648 -0.9527
  136MOL0     H17919   3.035   8.525   1.684 -2.1466  0.7214 -0.2875
  136MOL0     H17920   2.848   8.473   1.854  0.3157  0.9581  1.7275
  136MOL0     H17921   3.009   8.452   1.918 -2.2605 -2.2384  3.3136
  136MOL0     H17922   2.991   8.201   1.920  0.1365 -1.3315 -1.0345
  136MOL0     H17923   2.864   8.204   1.802  0.8885 -0.4978 -0.3125
  136MOL0     H17924   2.857   8.299   2.095 -1.2247 -0.3998  2.0650
  136MOL0     H17925   2.731   8.353   1.991  1.2429  0.6133 -1.2280
  136MOL0     H17926   2.828   8.077   2.074  1.7611  3.8158  1.8420
  136MOL0     H17927   2.709   8.091   1.944 -0.7423 -1.9907  1.1100
  136MOL0     H17928   2.569   8.237   2.115  1.9783  1.8258  1.3961
  136MOL0     H17929   2.678   8.176   2.235 -1.3947  0.3470  0.4584
  136MOL0     H17930   2.474   8.024   2.071 -2.2600 -3.3678  1.6050
  136MOL0     H17931   2.580   7.943   2.195 -1.3728 -1.5712  0.9946
  136MOL0     H17932   2.504   8.075   2.377 -3.4997  0.1228  3.0872
  136MOL0     H17933   2.369   8.000   2.295 -0.0523 -0.4927 -1.3838
  136MOL0     H17934   3.305   8.224   1.581 -0.4304 -2.3266  0.8601
  136MOL0     H17935   3.543   8.253   1.641  1.0440  0.8362 -0.4467
  136MOL0     H17936   3.890   8.388   1.724 -0.9535 -0.5472  1.2974
  136MOL0     H17937   4.101   8.395   1.823 -1.7342 -0.8614  0.8863
  136MOL0     H17938   5.839   8.699   1.917 -0.6217 -0.5528  1.4648
  136MOL0     H17939   6.061   8.757   1.875 -0.1243  1.3602  2.6922
  136MOL0     H17940   6.445   8.971   1.862  0.5878  0.1890  0.6605
  136MOL0     H17941   6.645   9.024   1.761  0.9279  0.2126  1.5152
  136MOL0     H17942   6.927   8.672   1.622  0.9751 -0.4183  1.2728
  136MOL0     H17943   6.967   8.713   1.786 -2.9618 -3.9238 -0.8685
  136MOL0     H17944   7.083   8.857   1.529  1.0460 -0.6998 -0.2854
  136MOL0     H17945   7.115   8.901   1.698  1.3337 -0.3448 -1.4533
  136MOL0     H17946   7.131   8.630   1.608 -0.4217 -0.6161  2.3117
  136MOL0     H17947   7.206   8.696   1.757 -0.7510  1.3787  1.2217
  136MOL0     H17948   7.334   8.653   1.510 -0.0755 -0.0863  0.0754
  136MOL0     H17949   7.294   8.825   1.496 -3.5843  0.6551  1.3785
  136MOL0     H17950   7.572   8.894   1.785  0.9065  0.3747 -0.2404
  136MOL0     H17951   6.752   8.597   1.742  0.5415 -0.5103 -0.5814
  136MOL0     H17952   6.539   8.553   1.846  3.7492 -0.7896  0.6922
  137MOL0     O17953   1.846   6.215   6.136 -0.3984  0.0401  0.6633
  137MOL0     C17954   1.922   6.306   6.167 -0.0265  0.1251  0.5128
  137MOL0     O17955   1.908   6.437   6.136  0.3933 -0.2439 -0.2414
  137MOL0     C17956   1.791   6.502   6.105 -0.1973 -0.3888  1.2969
  137MOL0     C17957   1.669   6.491   6.185  1.0406 -0.6862  0.2880
  137MOL0     C17958   1.551   6.546   6.146 -1.1222  0.0685  0.3525
  137MOL0     C17959   1.541   6.616   6.026  0.0139 -1.0101 -0.9830
  137MOL0     O17960   1.419   6.668   5.991  0.0248  0.3178 -0.1792
  137MOL0     C17961   1.422   6.770   5.898 -0.1257  0.0030 -0.0604
  137MOL0     C17962   1.277   6.825   5.893  0.9623  0.3284  0.2131
  137MOL0     C17963   1.255   6.932   5.782  0.2586 -0.1799  0.0734
  137MOL0     C17964   1.115   6.979   5.755  0.3485 -0.4817 -0.0582
  137MOL0     C17965   1.053   7.052   5.876  0.3561 -1.1589  0.3336
  137MOL0     C17966   0.925   7.132   5.829 -0.7538 -0.8512  0.8801
  137MOL0     C17967   0.853   7.192   5.944  1.2536  1.0996 -0.3963
  137MOL0     C17968   0.924   7.280   6.050 -0.2907 -0.0274 -0.3096
  137MOL0     N17969   0.975   7.396   5.981  0.2091 -0.9060 -1.0160
  137MOL0     C17970   0.893   7.483   5.910  0.3594 -0.6629 -0.3386
  137MOL0     C17971   0.980   7.563   5.842 -0.0390 -0.1314 -0.2639
  137MOL0     C17972   0.937   7.687   5.768 -0.4307 -0.0111 -0.1772
  137MOL0     C17973   0.954   7.659   5.621 -0.5651 -0.4862 -0.0959
  137MOL0     C17974   0.866   7.765   5.535  0.4680  0.5175  0.4415
  137MOL0     C17975   0.710   7.764   5.545 -0.0545 -0.1317 -0.5280
  137MOL0     O17976   0.671   7.627   5.512 -0.2889  0.4508 -0.7118
  137MOL0     C17977   0.539   7.609   5.465 -0.4334  0.3743 -0.9474
  137MOL0     C17978   0.518   7.507   5.375 -0.6626 -0.0640  0.0941
  137MOL0     C17979   0.386   7.476   5.339 -0.7204 -0.5366  0.0147
  137MOL0     C17980   0.273   7.545   5.385 -0.3576 -0.6024 -0.7320
  137MOL0     C17981   0.130   7.502   5.355  0.2732 -0.3802 -0.2158
  137MOL0     O17982   0.031   7.599   5.361 -0.0013 -0.1681 -0.4677
  137MOL0     C17983  -0.097   7.565   5.330 -0.4307  0.4092  0.4338
  137MOL0     C17984  -0.166   7.488   5.419 -0.2294 -0.2563 -0.3823
  137MOL0     C17985  -0.294   7.447   5.389 -0.0727 -0.2003  0.1420
  137MOL0     C17986  -0.354   7.494   5.268 -0.0846  0.6818 -0.4719
  137MOL0     O17987  -0.477   7.455   5.235  0.4787  0.4299  0.7517
  137MOL0     C17988  -0.519   7.325   5.291 -0.2731 -0.0998  0.3496
  137MOL0     C17989  -0.657   7.287   5.233  0.0607 -0.2613 -0.1086
  137MOL0     C17990  -0.768   7.373   5.296 -0.6853  0.3934 -0.4095
  137MOL0     C17991  -0.900   7.341   5.219 -0.1406 -0.4710 -0.3598
  137MOL0     C17992  -1.036   7.360   5.295  0.2665 -0.0535 -0.9889
  137MOL0     C17993  -1.047   7.256   5.412 -0.0807  0.1190 -0.2308
  137MOL0     C17994  -1.189   7.252   5.471  0.4409  0.2008  0.4403
  137MOL0     C17995  -1.288   7.193   5.367  0.3980  0.2183 -1.3757
  137MOL0    Cl17996  -1.446   7.150   5.436 -0.0382  0.2182 -0.0039
  137MOL0     C17997  -0.285   7.582   5.185 -0.7994 -0.0406  0.9138
  137MOL0     C17998  -0.152   7.618   5.215 -0.5288  0.0998 -0.4387
  137MOL0     O17999   0.115   7.390   5.312  0.0989 -0.0138 -0.4308
  137MOL0     C18000   0.300   7.656   5.463 -0.6903  0.4218 -0.8767
  137MOL0     C18001   0.427   7.684   5.511 -0.0746 -0.5270  0.5243
  137MOL0     N18002   1.109   7.532   5.891  0.0499 -0.7370  0.1664
  137MOL0     N18003   1.106   7.421   5.960  0.4273 -0.8186 -0.4383
  137MOL0     C18004   1.659   6.626   5.946 -0.1897  0.6506  0.5864
  137MOL0     C18005   1.783   6.569   5.981 -0.2016  0.2276  0.0113
  137MOL0     C18006   2.059   6.265   6.218 -0.1679 -0.5147 -0.0230
  137MOL0     C18007   2.182   6.330   6.195  0.5237 -0.4601 -0.5571
  137MOL0     C18008   2.297   6.276   6.258 -0.2236 -0.3072  0.4582
  137MOL0     C18009   2.300   6.153   6.327  0.9823 -0.0259 -1.6548
  137MOL0     O18010   2.403   6.083   6.383  0.6383  0.0599 -0.0097
  137MOL0     C18011   2.536   6.136   6.363  1.1970  0.1798  0.9591
  137MOL0     C18012   2.557   6.243   6.465 -0.2204  0.2024 -0.0125
  137MOL0     C18013   2.698   6.296   6.436 -0.1231 -0.6060 -0.9798
  137MOL0     C18014   2.810   6.215   6.485 -0.3886  1.4053  0.4364
  137MOL0     C18015   2.935   6.272   6.426  0.1886  0.3524  0.4095
  137MOL0     C18016   3.036   6.319   6.382 -0.3280 -0.3192  0.2772
  137MOL0     C18017   2.176   6.091   6.351  0.3658  0.5816  0.4876
  137MOL0     C18018   2.062   6.145   6.287 -0.6251  0.4329  0.0885
  137MOL0     H18019   1.663   6.446   6.283 -1.2191  1.4144  1.2058
  137MOL0     H18020   1.462   6.532   6.205 -1.3944  0.9100  0.1587
  137MOL0     H18021   1.446   6.730   5.799 -2.0325  0.8043 -0.8909
  137MOL0     H18022   1.484   6.852   5.934  0.3157 -0.1452 -0.4682
  137MOL0     H18023   1.240   6.867   5.986  0.7915 -1.8505  1.1830
  137MOL0     H18024   1.211   6.738   5.888 -0.1468  0.8956  3.2451
  137MOL0     H18025   1.286   6.902   5.681 -0.8365 -1.6173  0.1349
  137MOL0     H18026   1.305   7.025   5.810 -0.9083  0.7831 -0.9031
  137MOL0     H18027   1.114   7.047   5.669 -1.4294  0.6458  0.7746
  137MOL0     H18028   1.045   6.902   5.720 -1.8241  1.1125  0.5243
  137MOL0     H18029   1.121   7.136   5.895 -0.5573 -0.2789 -0.2113
  137MOL0     H18030   1.046   6.998   5.971 -0.4023  0.1176  1.0422
  137MOL0     H18031   0.860   7.063   5.774 -1.3520  0.1793  0.2542
  137MOL0     H18032   0.965   7.206   5.758  3.0330 -3.6673 -0.2574
  137MOL0     H18033   0.761   7.240   5.911  0.0541 -0.3407  0.7050
  137MOL0     H18034   0.817   7.096   5.983 -0.8249  1.7644 -0.5421
  137MOL0     H18035   1.004   7.218   6.091 -1.4401 -1.3285  0.0376
  137MOL0     H18036   0.852   7.305   6.129 -0.2039  1.8595 -0.7717
  137MOL0     H18037   0.785   7.492   5.917  0.4328  0.6087 -0.5980
  137MOL0     H18038   0.993   7.775   5.801  1.7487 -0.0984 -3.1701
  137MOL0     H18039   0.833   7.708   5.794  0.3869  2.2017  1.6853
  137MOL0     H18040   0.922   7.557   5.599 -1.4886  0.3566 -3.1962
  137MOL0     H18041   1.055   7.662   5.579 -0.9819 -2.7103 -1.4007
  137MOL0     H18042   0.904   7.867   5.549  2.3807 -0.3502  2.1245
  137MOL0     H18043   0.890   7.745   5.430  0.6381  2.2761  0.1105
  137MOL0     H18044   0.677   7.837   5.471 -1.1734  0.6441  0.6938
  137MOL0     H18045   0.682   7.801   5.644  0.4055  1.4367 -0.9562
  137MOL0     H18046   0.599   7.442   5.343 -0.5785 -0.5672  1.2872
  137MOL0     H18047   0.361   7.398   5.268 -0.6525  0.5526 -1.2458
  137MOL0     H18048  -0.127   7.446   5.512  2.9154  0.8683 -1.0788
  137MOL0     H18049  -0.332   7.375   5.460 -2.0767  1.5005  0.8834
  137MOL0     H18050  -0.526   7.319   5.400  1.2076  0.9459  0.5206
  137MOL0     H18051  -0.465   7.245   5.239  0.7624  1.8681 -1.7497
  137MOL0     H18052  -0.681   7.182   5.250  0.1318 -0.2362  0.1531
  137MOL0     H18053  -0.660   7.309   5.126  1.6086  1.9593  0.2279
  137MOL0     H18054  -0.733   7.476   5.298 -1.1254  0.5365  0.3063
  137MOL0     H18055  -0.777   7.340   5.400  1.0065 -0.4013 -0.4747
  137MOL0     H18056  -0.892   7.397   5.125  1.9670 -0.1646 -0.0307
  137MOL0     H18057  -0.898   7.234   5.197  2.1066 -0.1221 -2.1910
  137MOL0     H18058  -1.123   7.343   5.231 -0.4507  1.4922 -0.4914
  137MOL0     H18059  -1.043   7.462   5.335  2.6754 -0.2836  0.2166
  137MOL0     H18060  -0.978   7.282   5.492  0.3841 -2.6859  0.3958
  137MOL0     H18061  -1.013   7.157   5.379 -0.6858  0.1709 -1.0448
  137MOL0     H18062  -1.183   7.186   5.557  1.1208 -1.0645 -0.5418
  137MOL0     H18063  -1.222   7.352   5.500  2.8411  0.7692  1.4526
  137MOL0     H18064  -1.251   7.099   5.326 -1.3018 -1.8324  1.3982
  137MOL0     H18065  -1.304   7.258   5.281 -0.7346 -0.6822 -1.8763
  137MOL0     H18066  -0.338   7.635   5.106  1.3990  2.2994  0.8878
  137MOL0     H18067  -0.097   7.697   5.165 -1.6430  2.3328  1.6587
  137MOL0     H18068   0.219   7.699   5.522  0.9479 -0.4033  2.2163
  137MOL0     H18069   0.428   7.755   5.592 -4.4754  1.3306 -0.7684
  137MOL0     H18070   1.647   6.662   5.844 -1.3377 -0.2314  0.3845
  137MOL0     H18071   1.865   6.573   5.910  0.3210 -0.1868  0.5861
  137MOL0     H18072   2.175   6.426   6.145  1.2445  0.6410  1.3672
  137MOL0     H18073   2.387   6.336   6.253 -0.2160 -0.3410  0.1737
  137MOL0     H18074   2.552   6.174   6.261  0.1522 -1.3898  0.1715
  137MOL0     H18075   2.610   6.056   6.375  2.9016  1.5618  0.1581
  137MOL0     H18076   2.480   6.321   6.459 -1.4433 -1.0272 -0.9071
  137MOL0     H18077   2.549   6.188   6.559 -2.2197 -0.0503 -0.2920
  137MOL0     H18078   2.704   6.387   6.497 -1.2430 -1.7482  0.9422
  137MOL0     H18079   2.706   6.328   6.332 -2.0214 -0.5822 -1.1572
  137MOL0     H18080   2.817   6.207   6.594  0.1293 -1.1743  0.2682
  137MOL0     H18081   2.808   6.110   6.454 -0.9646  1.0958  1.4711
  137MOL0     H18082   3.127   6.368   6.355 -0.2936 -0.3904  0.2642
  137MOL0     H18083   2.169   5.992   6.394  3.3867  0.2387  0.3980
  137MOL0     H18084   1.972   6.088   6.306  0.2861 -0.2786  2.6548
  138MOL0     O18085   3.471   4.964   1.209 -0.0777  0.6039  1.1411
  138MOL0     C18086   3.588   5.003   1.185  0.1776 -0.0557  0.0387
  138MOL0     O18087   3.620   5.114   1.114  0.9316 -0.2894  0.3861
  138MOL0     C18088   3.521   5.192   1.065  0.3076 -0.2790 -0.0031
  138MOL0     C18089   3.511   5.319   1.120 -1.3436  0.3750 -0.5958
  138MOL0     C18090   3.414   5.405   1.080 -0.3727  0.0485  0.0101
  138MOL0     C18091   3.319   5.370   0.992  0.5948 -0.3206  0.4405
  138MOL0     O18092   3.210   5.437   0.951  0.1306 -0.7046  0.5023
  138MOL0     C18093   3.149   5.533   1.032 -0.0751 -0.3630 -0.2646
  138MOL0     C18094   2.994   5.505   1.018  0.0710 -0.6576  0.5508
  138MOL0     C18095   2.940   5.555   0.880  0.0154  0.2372 -0.3844
  138MOL0     C18096   2.797   5.505   0.860 -0.1644  0.6500 -0.3154
  138MOL0     C18097   2.747   5.568   0.731 -0.8104 -0.5743  0.2221
  138MOL0     C18098   2.614   5.506   0.693  0.1714  0.3283 -0.4249
  138MOL0     C18099   2.570   5.543   0.551  0.0249  0.2132  0.1298
  138MOL0     C18100   2.542   5.692   0.538 -1.0062  0.7362  0.4914
  138MOL0     N18101   2.437   5.730   0.634  0.4587 -0.1610 -0.1526
  138MOL0     C18102   2.316   5.669   0.644  0.8953 -0.1690 -0.1797
  138MOL0     C18103   2.243   5.741   0.735  0.3140  0.5195  0.4210
  138MOL0     C18104   2.104   5.721   0.787 -0.3599 -0.0167  0.4886
  138MOL0     C18105   2.001   5.661   0.688  0.5478  0.5432 -0.1821
  138MOL0     C18106   1.880   5.754   0.662 -0.1247 -0.2230 -0.3611
  138MOL0     C18107   1.792   5.757   0.788 -0.0256 -1.0351 -1.0344
  138MOL0     O18108   1.735   5.626   0.803  0.1280 -0.5088  0.2701
  138MOL0     C18109   1.595   5.620   0.799 -0.2830 -0.0497  0.1287
  138MOL0     C18110   1.531   5.571   0.693  0.6641  0.0460  0.2489
  138MOL0     C18111   1.389   5.576   0.684  0.1785 -0.2551 -0.3056
  138MOL0     C18112   1.308   5.632   0.791  0.2953  0.3097 -0.6833
  138MOL0     C18113   1.162   5.629   0.772  0.2446  0.0814  0.0395
  138MOL0     O18114   1.085   5.677   0.875  0.2284 -0.3172 -0.3750
  138MOL0     C18115   0.948   5.696   0.863  0.1525 -0.8776 -0.3481
  138MOL0     C18116   0.896   5.820   0.826 -0.1662  0.4820 -0.2606
  138MOL0     C18117   0.753   5.843   0.820  1.0978  0.4785  0.0098
  138MOL0     C18118   0.672   5.734   0.848 -0.5758 -0.1962  0.2810
  138MOL0     O18119   0.540   5.752   0.811 -0.5479  0.3738  0.1245
  138MOL0     C18120   0.436   5.723   0.902  0.1157  0.0635 -0.6930
  138MOL0     C18121   0.362   5.594   0.877 -0.2881  0.4755 -0.2391
  138MOL0     C18122   0.296   5.595   0.736 -0.0517 -0.9286 -0.1448
  138MOL0     C18123   0.241   5.465   0.687  0.5278 -0.3846  0.4339
  138MOL0     C18124   0.127   5.475   0.580  0.1537 -0.1102 -0.3451
  138MOL0     C18125   0.088   5.342   0.522  0.0427 -0.0008 -0.8266
  138MOL0     C18126  -0.033   5.340   0.426 -0.4622 -0.1889  0.1138
  138MOL0     C18127   0.005   5.269   0.299  0.4467 -0.6262  0.5014
  138MOL0    Cl18128  -0.132   5.258   0.186 -0.0909 -0.1180 -0.3062
  138MOL0     C18129   0.731   5.615   0.906  0.6693  0.3858 -0.1257
  138MOL0     C18130   0.866   5.609   0.925  0.5201  0.2971  0.3445
  138MOL0     O18131   1.115   5.573   0.676  0.0590 -0.2267  0.5084
  138MOL0     C18132   1.378   5.674   0.908 -0.0529  0.5883 -0.3220
  138MOL0     C18133   1.522   5.667   0.913  0.0620 -0.5023 -0.5980
  138MOL0     N18134   2.325   5.845   0.768 -0.4835  0.0331  0.4539
  138MOL0     N18135   2.438   5.841   0.706  0.7143  0.0304  0.3374
  138MOL0     C18136   3.321   5.242   0.933 -0.5742  0.6978 -0.0009
  138MOL0     C18137   3.430   5.155   0.964 -0.0548  1.0170 -0.3376
  138MOL0     C18138   3.699   4.930   1.243 -0.1095  0.7611 -0.2644
  138MOL0     C18139   3.684   4.796   1.286 -0.0643  0.6203 -0.8723
  138MOL0     C18140   3.789   4.725   1.339  0.5437 -0.0920 -0.5835
  138MOL0     C18141   3.912   4.790   1.361  0.9514  0.6657 -0.2605
  138MOL0     O18142   4.023   4.726   1.407 -0.7335  0.3200 -0.5573
  138MOL0     C18143   3.997   4.666   1.535 -0.0871  0.4622  0.3937
  138MOL0     C18144   4.091   4.736   1.633  0.0945  0.4382 -0.2486
  138MOL0     C18145   4.102   4.662   1.768  0.0077  0.1007 -0.2136
  138MOL0     C18146   4.184   4.747   1.872  0.6083 -0.4049 -0.1107
  138MOL0     C18147   4.135   4.884   1.895 -0.0674 -0.1156 -0.8610
  138MOL0     C18148   4.092   4.991   1.924 -0.5141  0.3648 -0.2535
  138MOL0     C18149   3.933   4.920   1.310  0.3459 -0.3544 -1.1298
  138MOL0     C18150   3.825   4.984   1.245 -0.2881 -0.6664 -0.1342
  138MOL0     H18151   3.592   5.339   1.189 -0.8928 -1.3858 -0.5755
  138MOL0     H18152   3.418   5.502   1.128  0.0255  1.4091 -2.5454
  138MOL0     H18153   3.167   5.637   1.003 -1.6656  0.4043  1.3488
  138MOL0     H18154   3.171   5.520   1.138  0.4126  0.0559 -0.3090
  138MOL0     H18155   2.936   5.556   1.096 -0.8107  1.9064 -1.6333
  138MOL0     H18156   2.984   5.397   1.031  0.0216 -1.4848 -4.4372
  138MOL0     H18157   3.008   5.525   0.800  1.4524  0.6415  0.6397
  138MOL0     H18158   2.944   5.664   0.882  1.2985  0.1995  1.0550
  138MOL0     H18159   2.805   5.396   0.849  0.1820  0.8251 -2.0639
  138MOL0     H18160   2.730   5.524   0.944  0.9841  2.1044  0.3057
  138MOL0     H18161   2.822   5.553   0.653  0.8027  1.2653  1.3357
  138MOL0     H18162   2.740   5.676   0.744  0.5704 -0.8894  5.7937
  138MOL0     H18163   2.541   5.524   0.773 -1.2135  2.8699 -2.1346
  138MOL0     H18164   2.627   5.397   0.691 -0.4756  0.2466 -0.3507
  138MOL0     H18165   2.634   5.501   0.472 -0.1504 -0.6367  0.4313
  138MOL0     H18166   2.479   5.485   0.534  2.7706 -4.3666 -0.5060
  138MOL0     H18167   2.506   5.720   0.438 -0.3415 -0.1436 -0.0119
  138MOL0     H18168   2.633   5.751   0.550 -1.2578  0.8959  1.7128
  138MOL0     H18169   2.298   5.574   0.595  2.6740 -0.8476  0.4077
  138MOL0     H18170   2.068   5.816   0.826 -2.0897 -1.3278  2.3072
  138MOL0     H18171   2.126   5.646   0.865  2.9795  0.6887  0.3999
  138MOL0     H18172   1.967   5.562   0.719  2.1351  0.0441  0.0899
  138MOL0     H18173   2.054   5.641   0.594  2.5465  0.8709  0.8209
  138MOL0     H18174   1.938   5.846   0.645 -0.7219  0.8401  2.7755
  138MOL0     H18175   1.827   5.713   0.575  0.5088 -2.8843  0.4007
  138MOL0     H18176   1.712   5.831   0.774  1.9233  1.7626  1.3763
  138MOL0     H18177   1.856   5.783   0.872  0.0358 -1.1254 -1.0536
  138MOL0     H18178   1.590   5.550   0.605 -0.3009 -0.8194 -0.2243
  138MOL0     H18179   1.340   5.541   0.593 -1.9123 -0.0596  0.6997
  138MOL0     H18180   0.964   5.900   0.797 -1.4527  2.0535  0.8858
  138MOL0     H18181   0.700   5.932   0.788 -0.4162 -0.4513 -0.2215
  138MOL0     H18182   0.360   5.800   0.884  3.0535  3.0321 -1.3832
  138MOL0     H18183   0.472   5.733   1.005 -0.9829  0.5550 -0.3429
  138MOL0     H18184   0.285   5.584   0.954  0.6302  0.9215  0.7609
  138MOL0     H18185   0.428   5.507   0.884  0.6791  1.2972  1.9226
  138MOL0     H18186   0.370   5.622   0.660 -0.1493 -2.9790 -1.0594
  138MOL0     H18187   0.219   5.672   0.725 -0.0127 -0.9134 -0.3195
  138MOL0     H18188   0.325   5.404   0.654  0.7575 -0.4570  1.1355
  138MOL0     H18189   0.197   5.415   0.774 -0.6933  2.2403  1.4487
  138MOL0     H18190   0.164   5.540   0.500 -1.9751  1.7589  0.0815
  138MOL0     H18191   0.040   5.517   0.632  0.4891  0.5975 -0.3355
  138MOL0     H18192   0.049   5.288   0.610  2.2106  2.2459  1.6830
  138MOL0     H18193   0.175   5.290   0.483 -1.4391 -2.4445 -1.0864
  138MOL0     H18194  -0.120   5.289   0.469  1.3706 -2.8496  0.8832
  138MOL0     H18195  -0.053   5.444   0.399  1.2056  0.5936  1.6809
  138MOL0     H18196   0.032   5.166   0.323 -0.0344 -1.1590 -1.1239
  138MOL0     H18197   0.087   5.329   0.256  1.7276 -0.5766  2.8633
  138MOL0     H18198   0.659   5.537   0.930 -2.3921  2.0884 -2.9656
  138MOL0     H18199   0.903   5.519   0.974 -0.2980 -0.3579 -0.2238
  138MOL0     H18200   1.332   5.705   1.002  0.4634  2.4594 -0.6400
  138MOL0     H18201   1.567   5.697   1.007 -1.1730  4.3590 -1.2767
  138MOL0     H18202   3.244   5.205   0.866  0.6759 -0.0942 -1.0577
  138MOL0     H18203   3.445   5.053   0.930  2.6091  0.1959  2.8513
  138MOL0     H18204   3.592   4.753   1.247 -1.2425  3.3785 -1.3810
  138MOL0     H18205   3.786   4.620   1.366 -0.3159 -0.3288 -1.5692
  138MOL0     H18206   4.016   4.559   1.529 -0.9556  0.2988  0.3820
  138MOL0     H18207   3.894   4.670   1.571 -0.1389 -1.1458  0.5003
  138MOL0     H18208   4.191   4.750   1.592  0.9537 -2.5469  0.6325
  138MOL0     H18209   4.043   4.834   1.646 -1.3031 -0.2026 -0.3636
  138MOL0     H18210   4.157   4.571   1.743  0.5958  0.3909  0.0115
  138MOL0     H18211   4.002   4.636   1.803  0.4968 -3.7758 -1.2081
  138MOL0     H18212   4.181   4.689   1.965 -2.1485  0.0159  0.1256
  138MOL0     H18213   4.289   4.753   1.841  0.2907  0.6742 -1.0173
  138MOL0     H18214   4.069   5.095   1.937  1.3544  0.6772  0.9070
  138MOL0     H18215   4.032   4.964   1.317 -0.3749  1.0652  1.4445
  138MOL0     H18216   3.852   5.082   1.207  1.5126 -1.1574 -0.1959
  139MOL0     O18217   5.774  10.338   5.801 -0.4636 -0.3424 -0.1075
  139MOL0     C18218   5.748  10.294   5.685  0.7625 -0.2852 -0.1028
  139MOL0     O18219   5.626  10.247   5.637  0.1302  0.6051  0.4560
  139MOL0     C18220   5.525  10.207   5.720  0.1459  0.1918  1.2405
  139MOL0     C18221   5.549  10.157   5.850  0.1748  0.4136 -0.3055
  139MOL0     C18222   5.443  10.122   5.931  0.6804  0.2626 -1.2778
  139MOL0     C18223   5.311  10.118   5.882  0.4117  0.0655 -0.8369
  139MOL0     O18224   5.210  10.082   5.961 -0.2592  0.6962  0.6484
  139MOL0     C18225   5.183  10.151   6.084  0.2520 -0.0791  0.9077
  139MOL0     C18226   5.043  10.210   6.087  0.1660 -0.8695 -0.2048
  139MOL0     C18227   4.937  10.107   6.056 -0.9788  0.8736  0.4613
  139MOL0     C18228   4.791  10.154   6.079  0.1714 -0.4695 -0.2229
  139MOL0     C18229   4.755  10.257   5.972  0.2148 -0.2492 -0.6893
  139MOL0     C18230   4.602  10.274   5.956  0.2905  1.0406 -0.6843
  139MOL0     C18231   4.526  10.150   5.912 -0.2829 -0.7017 -0.3179
  139MOL0     C18232   4.387  10.195   5.858 -0.2927  1.1551  0.2666
  139MOL0     N18233   4.306  10.074   5.841 -0.2691 -0.0623  0.7859
  139MOL0     C18234   4.313   9.978   5.740  0.6318  0.0490 -0.6735
  139MOL0     C18235   4.201   9.901   5.753  0.0214 -0.2586  0.4398
  139MOL0     C18236   4.160   9.787   5.657 -0.1045 -0.4552 -0.7682
  139MOL0     C18237   4.157   9.654   5.724  0.5348  0.3071 -0.5427
  139MOL0     C18238   4.120   9.544   5.625 -0.4797 -0.5651 -0.2452
  139MOL0     C18239   4.156   9.404   5.669  0.0457 -0.1342  0.1555
  139MOL0     O18240   4.067   9.389   5.782 -0.0883  0.5250  0.2710
  139MOL0     C18241   4.072   9.278   5.855  0.8353 -0.3878 -1.4159
  139MOL0     C18242   3.990   9.275   5.966  0.0305  0.2511  0.0672
  139MOL0     C18243   3.993   9.158   6.046  0.2036  0.4023  0.5326
  139MOL0     C18244   4.056   9.044   6.013 -0.3091 -0.1847 -0.0099
  139MOL0     C18245   4.030   8.911   6.083  0.2277 -0.1847  0.3641
  139MOL0     O18246   3.950   8.914   6.200 -0.1402  0.3592 -0.2268
  139MOL0     C18247   3.921   8.796   6.271  0.3177 -0.1014 -0.2632
  139MOL0     C18248   3.994   8.675   6.272  0.0047  0.3124  0.1871
  139MOL0     C18249   3.945   8.567   6.350  0.1308  0.2629  0.4518
  139MOL0     C18250   3.825   8.583   6.418  0.7377  0.0169  0.0121
  139MOL0     O18251   3.771   8.481   6.482  0.8499 -0.1058 -1.3192
  139MOL0     C18252   3.693   8.499   6.602  0.1259 -0.3661 -0.7817
  139MOL0     C18253   3.785   8.477   6.731  0.1751 -0.8552  0.1082
  139MOL0     C18254   3.719   8.499   6.865  0.0132  0.1735 -0.6286
  139MOL0     C18255   3.816   8.522   6.977  0.4022 -0.9165 -0.1922
  139MOL0     C18256   3.742   8.598   7.090  0.1574  0.4153 -1.0885
  139MOL0     C18257   3.677   8.493   7.175 -0.1825 -0.1796 -0.9278
  139MOL0     C18258   3.607   8.559   7.297 -0.5897  0.5169 -0.2652
  139MOL0     C18259   3.492   8.472   7.353  0.5782  0.0436 -0.6492
  139MOL0    Cl18260   3.350   8.454   7.248  0.2115 -0.3599  0.3536
  139MOL0     C18261   3.754   8.705   6.407 -0.4325 -0.1260 -0.6125
  139MOL0     C18262   3.808   8.815   6.342  0.4452  0.3163  0.6661
  139MOL0     O18263   4.084   8.811   6.033  0.6922  0.0041  0.0127
  139MOL0     C18264   4.152   9.054   5.910  0.0466 -0.3998 -0.1032
  139MOL0     C18265   4.157   9.167   5.826  0.2061  1.2855  0.0736
  139MOL0     N18266   4.117   9.954   5.855  0.3676 -0.1842 -0.6659
  139MOL0     N18267   4.192  10.052   5.909 -0.0764  0.1895 -0.2159
  139MOL0     C18268   5.282  10.167   5.751 -0.1890 -0.0831 -0.6454
  139MOL0     C18269   5.392  10.209   5.669 -0.6402  0.4862 -0.2547
  139MOL0     C18270   5.859  10.280   5.597  0.1442 -0.2150 -0.0753
  139MOL0     C18271   5.995  10.304   5.632 -1.0608  0.5875 -0.3110
  139MOL0     C18272   6.102  10.298   5.540 -0.2463 -0.8090 -0.3405
  139MOL0     C18273   6.074  10.270   5.409 -0.2586  0.6879  0.0197
  139MOL0     O18274   6.177  10.269   5.321 -0.6567 -0.8988 -0.2754
  139MOL0     C18275   6.273  10.172   5.359 -0.6519  0.0548  0.4084
  139MOL0     C18276   6.419  10.228   5.383 -0.5377 -0.3321  0.4818
  139MOL0     C18277   6.477  10.307   5.260  0.0192 -0.2255  0.0359
  139MOL0     C18278   6.623  10.353   5.282  0.2038  0.8646 -0.1552
  139MOL0     C18279   6.679  10.420   5.160 -0.3716  0.1507 -0.2461
  139MOL0     C18280   6.729  10.479   5.064 -0.0966 -0.0339  0.8610
  139MOL0     C18281   5.941  10.244   5.370  0.4963 -0.0928 -0.2247
  139MOL0     C18282   5.836  10.243   5.462  0.2381  0.4824  0.3769
  139MOL0     H18283   5.650  10.163   5.890  1.0757 -3.8191 -1.4750
  139MOL0     H18284   5.448  10.098   6.036 -0.6350 -1.0854 -1.4841
  139MOL0     H18285   5.256  10.230   6.106  1.5006  0.4576 -4.1141
  139MOL0     H18286   5.190  10.081   6.168 -0.1427 -0.8995  0.2658
  139MOL0     H18287   5.023  10.278   6.003 -0.7294 -1.7925 -0.7618
  139MOL0     H18288   5.017  10.246   6.187 -1.2223 -1.1590 -0.4364
  139MOL0     H18289   4.955  10.021   6.121 -1.9877  0.2412 -0.0791
  139MOL0     H18290   4.949  10.066   5.955  2.0734  1.3312  0.5413
  139MOL0     H18291   4.726  10.069   6.056  1.3264 -0.8053 -2.5039
  139MOL0     H18292   4.767  10.195   6.178  0.6427  0.3171 -0.4255
  139MOL0     H18293   4.790  10.203   5.884  2.8722 -0.2154  0.2473
  139MOL0     H18294   4.807  10.352   5.990  0.9952 -1.1059  2.0693
  139MOL0     H18295   4.575  10.349   5.882  1.1364  3.7755  1.6260
  139MOL0     H18296   4.570  10.305   6.056  1.9301 -0.3015  0.3241
  139MOL0     H18297   4.577  10.093   5.834 -1.1801 -3.3304  0.9000
  139MOL0     H18298   4.519  10.084   5.999 -1.7039 -2.1781 -1.5074
  139MOL0     H18299   4.406  10.250   5.766  1.8287  2.7931  1.5994
  139MOL0     H18300   4.329  10.264   5.920 -0.4349  1.3378 -0.0669
  139MOL0     H18301   4.396   9.951   5.676  0.4250  1.2574 -1.4917
  139MOL0     H18302   4.238   9.785   5.580  0.8437 -0.1184  0.1551
  139MOL0     H18303   4.063   9.814   5.614 -0.6760  0.0546  0.7596
  139MOL0     H18304   4.078   9.655   5.799  0.4538 -0.1440 -0.6181
  139MOL0     H18305   4.250   9.615   5.767  0.0253 -1.8589 -1.2647
  139MOL0     H18306   4.013   9.550   5.604 -0.0358  1.2707 -2.3708
  139MOL0     H18307   4.160   9.562   5.524 -1.4418  1.0738 -0.3727
  139MOL0     H18308   4.261   9.393   5.697  0.9517  0.4046 -2.6355
  139MOL0     H18309   4.127   9.332   5.592  2.7211 -0.1197 -0.9779
  139MOL0     H18310   3.947   9.369   5.997  4.5722  3.2528 -1.7614
  139MOL0     H18311   3.919   9.158   6.125  0.4819  1.7832  0.8247
  139MOL0     H18312   4.090   8.670   6.221 -0.0689  0.7631 -0.0052
  139MOL0     H18313   3.986   8.467   6.348 -1.1940 -0.3015  0.8806
  139MOL0     H18314   3.619   8.419   6.597  1.2807 -1.4495 -1.1933
  139MOL0     H18315   3.629   8.588   6.599 -2.8058 -2.1937  1.6272
  139MOL0     H18316   3.860   8.554   6.711 -0.2011 -0.8137 -1.2673
  139MOL0     H18317   3.832   8.380   6.714  0.8300 -0.2085 -2.0931
  139MOL0     H18318   3.656   8.413   6.887 -1.4457  1.2588 -0.4245
  139MOL0     H18319   3.653   8.586   6.860  3.2601  2.8191 -1.5766
  139MOL0     H18320   3.846   8.419   7.001  1.8010 -0.1422  1.6428
  139MOL0     H18321   3.904   8.579   6.945  0.4618 -0.5948  0.5394
  139MOL0     H18322   3.671   8.673   7.057 -0.8350  0.8347  1.7411
  139MOL0     H18323   3.822   8.648   7.146  0.7074 -0.0621 -1.4278
  139MOL0     H18324   3.753   8.424   7.213  0.0899  1.1881  1.1978
  139MOL0     H18325   3.611   8.428   7.118  1.1402 -3.5503  1.1023
  139MOL0     H18326   3.675   8.553   7.383 -0.8797  0.9564 -0.0029
  139MOL0     H18327   3.573   8.661   7.277  1.3769  0.9076 -2.0063
  139MOL0     H18328   3.459   8.528   7.440  0.0734 -1.1228 -0.0745
  139MOL0     H18329   3.520   8.373   7.390 -1.2651 -0.3624 -0.2402
  139MOL0     H18330   3.652   8.718   6.443  1.0208  1.6384  3.3973
  139MOL0     H18331   3.760   8.912   6.341  3.0798  1.7417  0.8239
  139MOL0     H18332   4.212   8.968   5.883 -0.4022  0.0007 -2.6311
  139MOL0     H18333   4.222   9.157   5.739 -0.9276  0.1068 -0.6789
  139MOL0     H18334   5.185  10.163   5.702  0.4908  4.3782 -2.7549
  139MOL0     H18335   5.366  10.229   5.566  2.9813  0.1831 -1.3784
  139MOL0     H18336   6.026  10.328   5.733  1.4429 -1.1241 -0.5757
  139MOL0     H18337   6.205  10.324   5.563 -0.5374 -0.6549  0.8613
  139MOL0     H18338   6.274  10.103   5.274 -0.8639  0.1189  0.3519
  139MOL0     H18339   6.241  10.112   5.444  0.5561  1.3992  1.8732
  139MOL0     H18340   6.411  10.295   5.469 -2.7005  1.6274 -1.1235
  139MOL0     H18341   6.486  10.142   5.398 -1.5795 -1.6627 -1.8504
  139MOL0     H18342   6.413  10.393   5.239  0.2443 -0.8585 -4.1502
  139MOL0     H18343   6.466  10.242   5.172 -1.2385 -1.1401  0.8314
  139MOL0     H18344   6.625  10.424   5.365 -1.1144 -0.6909  1.2759
  139MOL0     H18345   6.682  10.272   5.327 -0.5612  1.3364  1.7924
  139MOL0     H18346   6.775  10.544   4.991 -0.0219 -0.9872  0.0444
  139MOL0     H18347   5.924  10.208   5.269  0.8646 -1.7384  0.2547
  139MOL0     H18348   5.743  10.211   5.418  1.5236 -1.0810 -1.3373
  140MOL0     O18349   3.603   0.509   8.463 -0.1433 -0.9001 -0.3377
  140MOL0     C18350   3.668   0.520   8.567  0.4674 -0.5147 -0.0141
  140MOL0     O18351   3.637   0.473   8.693 -0.7744  0.2652 -0.0438
  140MOL0     C18352   3.521   0.396   8.698 -0.8229  0.2960 -0.7130
  140MOL0     C18353   3.418   0.449   8.783  0.3063  0.2396  0.3702
  140MOL0     C18354   3.301   0.376   8.803  0.2064 -0.1491  0.0469
  140MOL0     C18355   3.281   0.255   8.729  0.1910 -0.5834 -0.9365
  140MOL0     O18356   3.161   0.187   8.729 -0.2369  0.2390  0.2037
  140MOL0     C18357   3.037   0.259   8.737  0.2718  0.4676  0.8828
  140MOL0     C18358   2.931   0.147   8.723  0.2811  0.4605 -0.0073
  140MOL0     C18359   2.791   0.190   8.769 -0.1002  0.5910 -0.3673
  140MOL0     C18360   2.708   0.060   8.783  0.5972 -0.3331 -0.3002
  140MOL0     C18361   2.565   0.100   8.814  0.5481 -0.1226  0.3142
  140MOL0     C18362   2.485  -0.018   8.869 -0.0883 -0.0978  0.5111
  140MOL0     C18363   2.340   0.028   8.898  0.0795  0.4010 -0.1312
  140MOL0     C18364   2.292  -0.049   9.025  0.8112 -0.4311  1.0064
  140MOL0     N18365   2.151  -0.026   9.058  0.0985  0.2595  0.1782
  140MOL0     C18366   2.073   0.095   9.049 -0.5705  0.0223  0.1655
  140MOL0     C18367   1.955   0.053   9.082 -0.4446  0.0437 -0.4492
  140MOL0     C18368   1.834   0.136   9.095 -0.1698 -0.9196 -0.4193
  140MOL0     C18369   1.837   0.206   9.230 -0.4666  0.2130 -0.4897
  140MOL0     C18370   1.844   0.117   9.359  0.1407  0.4774  0.2658
  140MOL0     C18371   1.715   0.022   9.362 -1.0892  0.2133 -0.5220
  140MOL0     O18372   1.593   0.093   9.371 -0.0628  0.0992 -0.2314
  140MOL0     C18373   1.496   0.048   9.459  0.9266  0.1489  0.6730
  140MOL0     C18374   1.399   0.144   9.485  1.2438 -0.0125 -0.6762
  140MOL0     C18375   1.294   0.124   9.572 -0.7350  0.0205  0.3422
  140MOL0     C18376   1.264  -0.014   9.604  0.1083 -0.5195 -0.0883
  140MOL0     C18377   1.146  -0.047   9.679 -0.2289 -0.2890 -0.2584
  140MOL0     O18378   1.080   0.062   9.730  0.4600  0.8135 -0.7572
  140MOL0     C18379   0.975   0.039   9.820  0.2409  0.1761 -0.1945
  140MOL0     C18380   0.985  -0.063   9.918 -0.0855 -0.0198 -0.4384
  140MOL0     C18381   0.883  -0.085  10.006  0.6538  0.3241  0.3353
  140MOL0     C18382   0.761  -0.014   9.987  0.1936  0.2294 -0.2706
  140MOL0     O18383   0.660  -0.062  10.067  0.0854 -0.6357 -0.5447
  140MOL0     C18384   0.537   0.005  10.076  0.0078 -0.0523 -0.0927
  140MOL0     C18385   0.418  -0.063  10.136 -0.1794 -0.4945 -0.6614
  140MOL0     C18386   0.442  -0.101  10.286 -0.3997  0.0646 -0.2835
  140MOL0     C18387   0.549  -0.212  10.304 -0.0492  0.2949 -0.1947
  140MOL0     C18388   0.552  -0.258  10.450 -0.1676  0.2156 -0.0096
  140MOL0     C18389   0.649  -0.384  10.473  0.4976  0.1566  0.4879
  140MOL0     C18390   0.570  -0.521  10.471  0.5242 -0.5892 -0.3848
  140MOL0     C18391   0.678  -0.626  10.465 -0.3431  1.3500 -0.1729
  140MOL0    Cl18392   0.600  -0.774  10.514  0.1413 -0.0678 -0.2602
  140MOL0     C18393   0.757   0.094   9.903 -0.3285 -0.0723 -0.0638
  140MOL0     C18394   0.859   0.125   9.816 -0.2615 -0.1157 -0.3328
  140MOL0     O18395   1.105  -0.162   9.679 -0.4862 -0.9864  0.2369
  140MOL0     C18396   1.361  -0.108   9.579 -0.5899  0.2292 -0.5198
  140MOL0     C18397   1.480  -0.083   9.511  1.7778  0.3334 -0.4581
  140MOL0     N18398   1.950  -0.086   9.102  0.5634 -0.2583  0.0445
  140MOL0     N18399   2.072  -0.128   9.098 -0.1847 -0.7685 -0.2069
  140MOL0     C18400   3.378   0.208   8.648 -0.4945 -0.4308  0.0886
  140MOL0     C18401   3.497   0.277   8.632  0.4100 -0.6335  0.2921
  140MOL0     C18402   3.784   0.608   8.557  0.1188 -0.5353 -0.8559
  140MOL0     C18403   3.866   0.624   8.675 -0.1493  0.6980  0.2434
  140MOL0     C18404   3.985   0.696   8.667  0.1374 -0.5556  0.4150
  140MOL0     C18405   4.023   0.764   8.547  0.7055 -0.3390 -0.1293
  140MOL0     O18406   4.137   0.833   8.531 -0.4034 -0.1074  0.1097
  140MOL0     C18407   4.249   0.811   8.630 -0.0417  0.9034 -0.1654
  140MOL0     C18408   4.371   0.885   8.574  0.4820 -0.0684  0.4006
  140MOL0     C18409   4.428   0.818   8.442  0.7434 -0.4778 -0.0617
  140MOL0     C18410   4.581   0.837   8.442 -0.3160 -0.3369  0.2071
  140MOL0     C18411   4.635   0.780   8.319  0.8952 -0.5116 -0.7137
  140MOL0     C18412   4.666   0.728   8.209 -0.7185 -0.2875 -0.5218
  140MOL0     C18413   3.938   0.749   8.432 -0.2461  1.1714  0.3646
  140MOL0     C18414   3.815   0.683   8.438  0.0519  0.2725  0.0543
  140MOL0     H18415   3.445   0.542   8.832  2.1704  0.0351 -0.1803
  140MOL0     H18416   3.226   0.418   8.870 -1.5418 -1.3912 -1.0718
  140MOL0     H18417   3.021   0.322   8.649 -1.8208 -1.1679  0.0329
  140MOL0     H18418   3.036   0.308   8.836  0.9181  2.1965  0.0860
  140MOL0     H18419   2.946   0.064   8.792 -0.7034  0.7629  0.5895
  140MOL0     H18420   2.921   0.111   8.620  5.1830 -1.1385 -0.1844
  140MOL0     H18421   2.753   0.265   8.699 -1.5941  0.8703  0.6899
  140MOL0     H18422   2.802   0.250   8.860 -0.8900  0.5306 -0.2246
  140MOL0     H18423   2.723   0.027   8.680  3.0210  1.2870 -0.5449
  140MOL0     H18424   2.744  -0.017   8.853  0.9645 -0.3332 -0.4898
  140MOL0     H18425   2.506   0.128   8.727  0.0080  0.4908  0.8624
  140MOL0     H18426   2.561   0.168   8.900 -0.0201  0.6224 -0.2850
  140MOL0     H18427   2.535  -0.051   8.960 -0.4550  0.0466  0.7662
  140MOL0     H18428   2.491  -0.107   8.805 -0.7674 -0.3446  0.7840
  140MOL0     H18429   2.343   0.132   8.932  3.2260 -0.1781  1.7969
  140MOL0     H18430   2.274   0.023   8.811  1.0261  2.0104 -0.9959
  140MOL0     H18431   2.346  -0.013   9.114  3.3675 -1.3535 -0.0728
  140MOL0     H18432   2.318  -0.154   9.008  2.4621 -0.0930  1.1882
  140MOL0     H18433   2.107   0.195   9.024  0.9680 -1.0502 -2.4943
  140MOL0     H18434   1.743   0.075   9.087 -1.9406  1.5848 -0.3983
  140MOL0     H18435   1.831   0.206   9.011  1.4421  0.5340  0.6548
  140MOL0     H18436   1.756   0.279   9.240  0.5025  1.2420  0.1449
  140MOL0     H18437   1.929   0.266   9.226  0.5534 -1.1922  0.7354
  140MOL0     H18438   1.936   0.057   9.364  1.6920  2.3347 -2.7315
  140MOL0     H18439   1.836   0.180   9.448  3.4331 -2.6287  3.0826
  140MOL0     H18440   1.731  -0.027   9.459  0.3076  4.0560  1.4206
  140MOL0     H18441   1.715  -0.054   9.283 -0.0374  0.8528 -1.1632
  140MOL0     H18442   1.414   0.247   9.455 -1.1412  0.8637  0.8283
  140MOL0     H18443   1.224   0.202   9.602  1.9852  1.8131  2.5077
  140MOL0     H18444   1.068  -0.132   9.926 -1.3710 -1.5654  0.1718
  140MOL0     H18445   0.897  -0.163  10.080 -1.7493 -0.3881  0.1149
  140MOL0     H18446   0.502   0.017   9.973 -2.0445 -2.3410  0.2309
  140MOL0     H18447   0.546   0.107  10.115 -0.6520  0.4798 -1.3088
  140MOL0     H18448   0.382  -0.149  10.078 -2.9936 -1.1534  1.8188
  140MOL0     H18449   0.335   0.008  10.138 -0.7834 -1.1850  1.6202
  140MOL0     H18450   0.351  -0.149  10.325  0.5206 -2.8902 -1.4717
  140MOL0     H18451   0.464  -0.016  10.352 -1.7264  0.8725 -0.8533
  140MOL0     H18452   0.532  -0.301  10.243  0.1259  0.2645 -0.1990
  140MOL0     H18453   0.648  -0.174  10.275  0.1366 -0.8171 -1.0953
  140MOL0     H18454   0.453  -0.288  10.486  0.3359 -0.7809  0.5967
  140MOL0     H18455   0.599  -0.182  10.513  1.4156 -0.6275 -0.1160
  140MOL0     H18456   0.708  -0.374  10.565 -0.2287  2.8424  0.7595
  140MOL0     H18457   0.718  -0.372  10.389 -1.5401  0.5017 -1.2223
  140MOL0     H18458   0.517  -0.536  10.566  0.0156 -0.0231 -0.5706
  140MOL0     H18459   0.488  -0.529  10.399  0.5494  0.2986 -0.5271
  140MOL0     H18460   0.756  -0.617  10.541 -2.4607 -1.5350  2.5936
  140MOL0     H18461   0.728  -0.635  10.368 -0.9915  0.9296 -0.4756
  140MOL0     H18462   0.665   0.152   9.894  0.8484  2.2017  1.5325
  140MOL0     H18463   0.852   0.210   9.749  1.6981  1.8153  1.7165
  140MOL0     H18464   1.332  -0.209   9.605 -0.2393  0.5571  1.2775
  140MOL0     H18465   1.544  -0.169   9.493  1.3067 -0.5153  1.6186
  140MOL0     H18466   3.366   0.109   8.605  0.1088  0.5682 -2.6026
  140MOL0     H18467   3.563   0.229   8.560 -1.8947  0.4009 -2.7095
  140MOL0     H18468   3.855   0.570   8.769 -0.3057  3.0737  1.6750
  140MOL0     H18469   4.057   0.715   8.745  1.4190  0.6015 -0.9764
  140MOL0     H18470   4.262   0.703   8.627 -1.0473  0.7969 -1.0298
  140MOL0     H18471   4.228   0.851   8.730 -2.7544 -0.6021 -0.0397
  140MOL0     H18472   4.337   0.986   8.551 -0.6020 -0.6921 -0.8781
  140MOL0     H18473   4.448   0.879   8.652  0.7028 -1.0243  0.1295
  140MOL0     H18474   4.383   0.863   8.354  0.3137  0.6039  0.6926
  140MOL0     H18475   4.403   0.712   8.450  0.4756 -0.2626  3.5626
  140MOL0     H18476   4.600   0.945   8.444 -0.6211 -0.2778 -0.0489
  140MOL0     H18477   4.625   0.792   8.531  0.7719  0.2022 -0.0342
  140MOL0     H18478   4.704   0.670   8.127  1.3440 -1.0360  0.8584
  140MOL0     H18479   3.962   0.793   8.335  0.1475  1.1408  0.4456
  140MOL0     H18480   3.740   0.684   8.360  0.1403 -0.9234 -0.0642
  141MOL0     O18481   6.128   4.687   5.902 -0.0714  0.2309 -0.8071
  141MOL0     C18482   6.214   4.767   5.923  0.2802  0.1742 -0.2284
  141MOL0     O18483   6.184   4.904   5.947  0.4152  0.7643  0.0061
  141MOL0     C18484   6.058   4.946   5.961 -0.6342 -0.0426 -0.2500
  141MOL0     C18485   6.035   5.073   5.910 -0.0177 -0.7465 -0.1918
  141MOL0     C18486   5.917   5.140   5.931  0.2835 -0.0927  0.0096
  141MOL0     C18487   5.812   5.081   6.003 -0.7547  0.0004 -0.1869
  141MOL0     O18488   5.684   5.131   6.041 -0.7868 -0.9755 -0.1314
  141MOL0     C18489   5.646   5.254   5.973  0.0090  0.0959 -0.4168
  141MOL0     C18490   5.491   5.279   5.991 -1.3087 -0.4519 -0.0966
  141MOL0     C18491   5.449   5.271   6.137 -0.4358 -0.6864 -0.0995
  141MOL0     C18492   5.299   5.306   6.149  0.3927 -0.2479 -0.7062
  141MOL0     C18493   5.253   5.319   6.297  0.2937 -0.0782 -0.6639
  141MOL0     C18494   5.129   5.247   6.333  0.2984  0.0269 -0.4494
  141MOL0     C18495   5.110   5.261   6.487  0.1698  0.2120 -0.7191
  141MOL0     C18496   4.975   5.210   6.519  0.6132  0.3346  0.5873
  141MOL0     N18497   4.862   5.300   6.471 -0.4866 -0.1252  0.7242
  141MOL0     C18498   4.807   5.294   6.341 -0.0798 -0.2595 -0.2306
  141MOL0     C18499   4.742   5.406   6.324  1.0746 -0.1288  0.2046
  141MOL0     C18500   4.654   5.454   6.202  0.9150  0.1905 -0.4773
  141MOL0     C18501   4.511   5.423   6.225 -0.0399  0.9298 -0.7056
  141MOL0     C18502   4.420   5.485   6.118 -1.4128 -0.3434 -0.1057
  141MOL0     C18503   4.273   5.504   6.148  0.6265 -0.6363 -0.3791
  141MOL0     O18504   4.231   5.624   6.069  0.1927  0.3131  1.4273
  141MOL0     C18505   4.097   5.668   6.077 -0.4327 -0.3798  0.4551
  141MOL0     C18506   3.995   5.593   6.126  0.1919 -0.2025  0.1266
  141MOL0     C18507   3.866   5.632   6.128  0.7780 -0.0849  0.6636
  141MOL0     C18508   3.827   5.760   6.071  0.0547 -0.4920 -0.5222
  141MOL0     C18509   3.682   5.805   6.086  0.0005  0.6168 -0.7333
  141MOL0     O18510   3.643   5.916   6.021 -0.7498 -0.8915 -0.1238
  141MOL0     C18511   3.512   5.940   5.995 -0.1986 -0.2005  0.0992
  141MOL0     C18512   3.448   6.056   6.037 -0.5581 -0.2037 -0.1082
  141MOL0     C18513   3.315   6.081   6.029  0.7772  0.1156  0.5826
  141MOL0     C18514   3.232   5.989   5.966 -0.0657 -0.5314  0.1460
  141MOL0     O18515   3.099   6.012   5.952  0.2574 -0.4318 -0.7958
  141MOL0     C18516   3.030   5.963   6.074 -0.2170 -0.9088  0.4043
  141MOL0     C18517   2.883   5.943   6.042 -0.9462 -0.0729 -0.9187
  141MOL0     C18518   2.860   5.831   5.937 -0.3025  0.3763 -0.9068
  141MOL0     C18519   2.711   5.799   5.913  0.3328  0.3314 -0.3370
  141MOL0     C18520   2.675   5.666   5.852  0.4671 -0.0882 -0.0616
  141MOL0     C18521   2.713   5.538   5.931  0.7599 -0.9063  0.5178
  141MOL0     C18522   2.654   5.406   5.880  0.1203 -0.0485 -0.8041
  141MOL0     C18523   2.501   5.390   5.916  0.5424  0.8089 -0.1631
  141MOL0    Cl18524   2.489   5.402   6.099  0.1555 -0.5002  0.0407
  141MOL0     C18525   3.291   5.872   5.928 -0.2179 -0.3362 -0.3364
  141MOL0     C18526   3.430   5.846   5.932  0.0668  0.7949 -0.5750
  141MOL0     O18527   3.603   5.721   6.135 -0.6421 -0.6516  0.1168
  141MOL0     C18528   3.928   5.837   6.015 -0.1506 -0.5334  0.0597
  141MOL0     C18529   4.059   5.791   6.020 -0.2218  0.0157 -0.3738
  141MOL0     N18530   4.756   5.478   6.444  0.2580 -0.8631 -0.2387
  141MOL0     N18531   4.825   5.419   6.533  0.0076 -0.8922  0.7106
  141MOL0     C18532   5.838   4.960   6.060 -0.3054 -0.4537  0.1465
  141MOL0     C18533   5.958   4.898   6.054 -0.4437 -0.1321  0.1690
  141MOL0     C18534   6.361   4.727   5.913  0.2326 -0.1209  0.0364
  141MOL0     C18535   6.398   4.593   5.887 -0.1333  0.0483  0.6321
  141MOL0     C18536   6.531   4.566   5.887  0.1041 -0.3097  0.3119
  141MOL0     C18537   6.636   4.655   5.911 -0.5295  0.1164 -0.7203
  141MOL0     O18538   6.770   4.628   5.911 -0.3719 -0.1591 -0.3317
  141MOL0     C18539   6.810   4.535   5.807 -0.0150 -0.2655  0.9899
  141MOL0     C18540   6.960   4.508   5.840  0.3124 -0.7335  0.8320
  141MOL0     C18541   7.049   4.639   5.828  0.5351 -0.4425  0.5266
  141MOL0     C18542   7.173   4.625   5.742  0.2789  0.3543 -0.1603
  141MOL0     C18543   7.288   4.551   5.811  1.0137 -0.1095  0.5459
  141MOL0     C18544   7.372   4.493   5.872 -0.2109  1.9168  1.0553
  141MOL0     C18545   6.601   4.790   5.934  0.1015 -0.2628  0.7844
  141MOL0     C18546   6.460   4.827   5.934 -0.4485  0.5212 -0.1380
  141MOL0     H18547   6.112   5.119   5.850  1.1401 -0.9501  1.1045
  141MOL0     H18548   5.902   5.236   5.883 -0.9550  0.0261  0.5770
  141MOL0     H18549   5.656   5.263   5.864  0.0660 -0.1077 -0.4273
  141MOL0     H18550   5.689   5.340   6.025 -0.8853  0.3816 -0.1199
  141MOL0     H18551   5.434   5.204   5.936 -0.1692 -0.5961 -1.1047
  141MOL0     H18552   5.473   5.378   5.950  2.3398  0.3966  0.0445
  141MOL0     H18553   5.500   5.347   6.198  1.9630 -2.2388 -0.0385
  141MOL0     H18554   5.472   5.174   6.182  2.5991  0.5162  1.2340
  141MOL0     H18555   5.281   5.403   6.101  1.7783 -0.9435 -2.7722
  141MOL0     H18556   5.234   5.242   6.087  1.8972 -0.0873 -2.5372
  141MOL0     H18557   5.234   5.425   6.317  1.9477 -0.1913  1.8959
  141MOL0     H18558   5.334   5.283   6.361  2.2145 -0.3900 -3.1402
  141MOL0     H18559   5.138   5.146   6.293  1.8872  0.1199 -0.3977
  141MOL0     H18560   5.046   5.288   6.275  0.1875 -0.3006 -0.5185
  141MOL0     H18561   5.176   5.196   6.545 -0.2459 -0.7554 -1.3031
  141MOL0     H18562   5.120   5.362   6.529  0.3079  0.8650 -2.2240
  141MOL0     H18563   4.957   5.212   6.627 -2.5651  0.4468  0.1523
  141MOL0     H18564   4.961   5.112   6.473 -1.9833  1.6411 -1.6719
  141MOL0     H18565   4.829   5.214   6.271  1.1727 -1.9237  1.9472
  141MOL0     H18566   4.690   5.405   6.112 -1.6895  0.1109 -1.5584
  141MOL0     H18567   4.681   5.560   6.199  3.0096 -0.2886 -0.1172
  141MOL0     H18568   4.483   5.475   6.316 -0.1759 -0.2223 -0.0743
  141MOL0     H18569   4.500   5.314   6.234 -0.0414  1.0535  1.1290
  141MOL0     H18570   4.469   5.581   6.096  4.5424 -3.0359 -0.7474
  141MOL0     H18571   4.438   5.423   6.029 -1.7256  0.1265 -0.5032
  141MOL0     H18572   4.262   5.525   6.255 -3.7089 -1.9106 -0.3616
  141MOL0     H18573   4.219   5.414   6.117 -1.5517  0.1185  0.9430
  141MOL0     H18574   4.012   5.500   6.180 -1.4313 -0.8060 -0.3370
  141MOL0     H18575   3.799   5.579   6.195  1.8499  1.1959  2.8968
  141MOL0     H18576   3.519   6.120   6.087 -0.3995  0.5453 -1.2517
  141MOL0     H18577   3.273   6.171   6.071 -0.7745 -1.2056  1.9844
  141MOL0     H18578   3.038   6.039   6.152 -0.2302  0.7909 -1.1657
  141MOL0     H18579   3.078   5.870   6.105  0.7014 -0.4376  0.4497
  141MOL0     H18580   2.837   6.037   6.011 -3.9348 -0.6664  1.2709
  141MOL0     H18581   2.837   5.925   6.140  1.7513  0.4342  0.5437
  141MOL0     H18582   2.909   5.745   5.984 -0.4027  0.6296 -0.3272
  141MOL0     H18583   2.910   5.859   5.844 -0.3992 -1.1657 -1.4408
  141MOL0     H18584   2.663   5.808   6.011  5.0119  3.1558  2.0573
  141MOL0     H18585   2.667   5.882   5.857 -0.3129  1.9106  2.3166
  141MOL0     H18586   2.725   5.654   5.755  1.1930  0.9595  0.1655
  141MOL0     H18587   2.567   5.663   5.840  0.2898 -0.5203  1.4674
  141MOL0     H18588   2.680   5.563   6.032 -0.2177 -0.7664  0.1780
  141MOL0     H18589   2.819   5.515   5.928  0.8065 -0.9037  1.7787
  141MOL0     H18590   2.669   5.395   5.772 -3.6360  1.8111 -1.6925
  141MOL0     H18591   2.717   5.327   5.920  1.9965  1.4225 -0.6988
  141MOL0     H18592   2.469   5.288   5.894  1.6646  0.3160  0.4198
  141MOL0     H18593   2.439   5.463   5.862  0.4000  0.6390 -0.2309
  141MOL0     H18594   3.227   5.793   5.890  0.5583 -1.2274  0.1879
  141MOL0     H18595   3.468   5.754   5.890 -0.3906  0.6122 -0.6003
  141MOL0     H18596   3.898   5.933   5.973 -0.9542 -1.0122 -0.4803
  141MOL0     H18597   4.137   5.837   5.960  0.3495  0.2447  0.5230
  141MOL0     H18598   5.763   4.923   6.131 -1.7126 -1.2975 -1.6932
  141MOL0     H18599   5.984   4.811   6.115  0.4051  0.3536  0.5095
  141MOL0     H18600   6.326   4.513   5.882 -0.5591  0.4940 -1.0060
  141MOL0     H18601   6.563   4.468   5.852  2.5585  1.1764 -1.9754
  141MOL0     H18602   6.799   4.573   5.705  4.3712  0.3262  0.5654
  141MOL0     H18603   6.752   4.442   5.802  0.6442 -0.6781  0.9393
  141MOL0     H18604   6.966   4.470   5.942 -0.1759 -0.7758  0.8514
  141MOL0     H18605   6.997   4.429   5.774 -1.0670  0.1728 -1.1318
  141MOL0     H18606   7.094   4.657   5.926 -0.8162 -3.9477  1.9391
  141MOL0     H18607   6.995   4.730   5.799 -0.3856 -1.5563 -1.5121
  141MOL0     H18608   7.146   4.568   5.653  2.5336 -1.9511  0.4910
  141MOL0     H18609   7.209   4.726   5.722  2.1744  0.2071  2.0526
  141MOL0     H18610   7.435   4.427   5.929 -1.6582  0.1984  0.7649
  141MOL0     H18611   6.677   4.862   5.962  1.9663 -1.1795 -1.5503
  141MOL0     H18612   6.443   4.934   5.944  0.1229  0.4745  1.7294
  142MOL0     O18613   8.666   3.031   3.344 -0.4199  0.1093  0.0751
  142MOL0     C18614   8.637   2.921   3.389 -0.3677  0.1531  0.0525
  142MOL0     O18615   8.723   2.844   3.460 -0.7736 -0.2407 -0.3091
  142MOL0     C18616   8.848   2.892   3.500  0.4303  0.6778  0.8161
  142MOL0     C18617   8.865   2.964   3.616  0.1870 -0.6788 -0.3176
  142MOL0     C18618   8.988   3.026   3.646 -0.0084  0.5166  0.4626
  142MOL0     C18619   9.095   3.006   3.555  0.3164 -0.1988 -1.3496
  142MOL0     O18620   9.225   3.046   3.571 -0.2260 -0.8525  0.0396
  142MOL0     C18621   9.267   3.148   3.667  0.2966 -0.0142  0.0145
  142MOL0     C18622   9.300   3.079   3.804 -0.4709 -0.3828 -0.6408
  142MOL0     C18623   9.316   3.168   3.923 -0.1452  0.9981  0.6013
  142MOL0     C18624   9.184   3.213   3.981 -0.3989  0.8848 -0.4191
  142MOL0     C18625   9.198   3.263   4.129  0.9286  0.2424 -0.1144
  142MOL0     C18626   9.072   3.339   4.192 -0.0080  0.5092  0.0043
  142MOL0     C18627   9.044   3.469   4.117  0.2769 -0.1515 -0.3719
  142MOL0     C18628   8.943   3.555   4.201  0.7106 -0.4602 -0.1763
  142MOL0     N18629   8.802   3.502   4.183  0.7057  0.0327  0.3325
  142MOL0     C18630   8.709   3.496   4.073  0.2448  0.0338 -0.0272
  142MOL0     C18631   8.590   3.442   4.123 -0.2970 -0.1961  0.0951
  142MOL0     C18632   8.463   3.443   4.046 -0.5665  0.1110 -0.7808
  142MOL0     C18633   8.347   3.379   4.113  0.3539  0.0938 -0.0756
  142MOL0     C18634   8.235   3.355   4.010  0.5291  0.5152  0.5176
  142MOL0     C18635   8.106   3.317   4.080 -0.3861 -0.9810  0.6558
  142MOL0     O18636   8.018   3.306   3.970  0.5290  0.1774 -0.4890
  142MOL0     C18637   7.879   3.307   3.990 -1.6414  0.1680  0.8255
  142MOL0     C18638   7.801   3.227   3.901  0.2051 -0.1514  0.0937
  142MOL0     C18639   7.662   3.230   3.902 -0.4525 -0.2707  0.2773
  142MOL0     C18640   7.596   3.319   3.986  0.8823  0.4723 -1.2027
  142MOL0     C18641   7.445   3.304   3.989  0.4496  0.5843 -0.2035
  142MOL0     O18642   7.397   3.186   3.938  0.2911 -0.1497  0.1153
  142MOL0     C18643   7.260   3.170   3.936 -0.4514  0.0086 -0.6348
  142MOL0     C18644   7.192   3.160   4.061 -0.2501 -0.3737  0.3342
  142MOL0     C18645   7.055   3.144   4.063  0.1166 -0.2144  0.0029
  142MOL0     C18646   6.987   3.109   3.950 -0.2457  0.0214 -0.0086
  142MOL0     O18647   6.851   3.090   3.979 -0.4688  0.1126  0.1363
  142MOL0     C18648   6.772   3.168   3.890  0.5242  0.2279  0.1918
  142MOL0     C18649   6.622   3.142   3.919 -0.4999 -0.0067 -0.3711
  142MOL0     C18650   6.526   3.213   3.822  0.3185 -0.1315 -0.8704
  142MOL0     C18651   6.385   3.225   3.878  0.2262 -0.8393  0.7068
  142MOL0     C18652   6.295   3.306   3.791  0.3498 -0.3458  0.6505
  142MOL0     C18653   6.161   3.332   3.854 -0.2453 -0.5022 -0.4165
  142MOL0     C18654   6.074   3.411   3.754  0.1316 -0.0914 -0.0379
  142MOL0     C18655   5.956   3.479   3.822  0.7811  0.0874  0.0471
  142MOL0    Cl18656   5.851   3.351   3.885 -0.0845 -0.3443  0.1059
  142MOL0     C18657   7.049   3.104   3.826  0.1183 -0.1372  0.2068
  142MOL0     C18658   7.193   3.127   3.814  0.3753  0.3929  0.4957
  142MOL0     O18659   7.385   3.398   4.034  0.1191  0.0174 -0.3553
  142MOL0     C18660   7.675   3.408   4.065 -0.0159  0.0490  0.1898
  142MOL0     C18661   7.813   3.399   4.071 -0.1782  0.5429  0.1473
  142MOL0     N18662   8.615   3.410   4.254  0.6189  0.0217 -0.5811
  142MOL0     N18663   8.735   3.455   4.288 -0.1295 -0.6211  0.3626
  142MOL0     C18664   9.075   2.942   3.439  0.7668  0.0058 -0.1167
  142MOL0     C18665   8.953   2.886   3.410  0.6207 -0.0243  0.0879
  142MOL0     C18666   8.494   2.869   3.386 -0.0264  0.0023  0.3393
  142MOL0     C18667   8.398   2.928   3.310  0.6171 -0.2715  0.6855
  142MOL0     C18668   8.276   2.874   3.296  0.1940 -0.1381 -0.3025
  142MOL0     C18669   8.235   2.760   3.358  0.7205  0.5169 -0.4741
  142MOL0     O18670   8.106   2.714   3.356 -0.7415  0.2686 -1.4158
  142MOL0     C18671   7.994   2.773   3.283 -0.5036 -0.8875 -0.1357
  142MOL0     C18672   7.934   2.886   3.360 -0.3843  0.2824  0.4925
  142MOL0     C18673   7.826   2.948   3.271 -0.3784  0.1970  0.3954
  142MOL0     C18674   7.805   3.094   3.301  0.1159 -0.4018 -0.5609
  142MOL0     C18675   7.914   3.172   3.249 -1.4068 -0.5959 -0.2071
  142MOL0     C18676   8.019   3.222   3.198  0.8285 -0.6864 -0.4489
  142MOL0     C18677   8.323   2.704   3.446 -1.0831  0.4584 -0.2351
  142MOL0     C18678   8.454   2.762   3.467  0.5032  0.0234  0.6263
  142MOL0     H18679   8.779   2.968   3.682  2.4045 -0.2410  2.7811
  142MOL0     H18680   9.017   3.076   3.738  4.5289 -1.9999  0.6788
  142MOL0     H18681   9.197   3.230   3.681 -0.4702 -0.8438  1.2337
  142MOL0     H18682   9.357   3.195   3.624  1.8861 -1.6355  1.3869
  142MOL0     H18683   9.399   3.034   3.788 -0.5714 -0.4283 -1.1289
  142MOL0     H18684   9.226   3.002   3.826 -0.5938  0.1353  0.9720
  142MOL0     H18685   9.373   3.257   3.896  1.5084 -0.1962 -0.0392
  142MOL0     H18686   9.363   3.110   4.003 -0.4484  1.9506  1.4858
  142MOL0     H18687   9.152   3.297   3.919 -0.5984  1.8400  0.9261
  142MOL0     H18688   9.106   3.138   3.968 -1.6968  2.2731 -0.8711
  142MOL0     H18689   9.290   3.324   4.129 -0.0387  1.9882  3.2210
  142MOL0     H18690   9.217   3.182   4.200 -1.9032 -0.3828  0.0208
  142MOL0     H18691   9.100   3.365   4.294 -1.6525  0.2807  0.5482
  142MOL0     H18692   8.982   3.277   4.199 -1.3728  2.4510  0.1530
  142MOL0     H18693   9.144   3.512   4.104  1.6605 -3.4689 -1.9372
  142MOL0     H18694   9.003   3.459   4.016  1.4246 -0.7676 -0.7991
  142MOL0     H18695   8.937   3.660   4.172  0.5864 -0.4899 -0.2586
  142MOL0     H18696   8.972   3.556   4.307 -0.2935  0.8098  0.1116
  142MOL0     H18697   8.736   3.524   3.972  0.0701 -1.9488 -0.6706
  142MOL0     H18698   8.479   3.392   3.950 -0.2259  0.6564 -1.0204
  142MOL0     H18699   8.438   3.548   4.029  1.7258  1.1154  1.3783
  142MOL0     H18700   8.308   3.444   4.192  1.5972 -0.5650  1.1322
  142MOL0     H18701   8.379   3.284   4.156  1.3493 -0.7415 -2.5093
  142MOL0     H18702   8.193   3.441   3.957 -4.0695 -0.9176  1.3726
  142MOL0     H18703   8.272   3.291   3.930  0.1655  0.9556 -0.0119
  142MOL0     H18704   8.073   3.389   4.155 -3.3386 -0.7351 -0.7668
  142MOL0     H18705   8.132   3.222   4.129  0.5426  0.6967  3.6417
  142MOL0     H18706   7.860   3.162   3.838 -0.9099  0.3777 -1.5550
  142MOL0     H18707   7.623   3.159   3.831  1.0237  2.5578 -3.7191
  142MOL0     H18708   7.247   3.184   4.152 -1.0702  2.5218  0.1775
  142MOL0     H18709   7.017   3.142   4.165  1.1970 -1.1907  0.4095
  142MOL0     H18710   6.800   3.149   3.785 -2.4914 -2.6396 -0.2488
  142MOL0     H18711   6.795   3.272   3.914  3.2052 -0.2759  0.1321
  142MOL0     H18712   6.615   3.180   4.021  0.7008  3.2028 -1.3320
  142MOL0     H18713   6.595   3.037   3.929  0.6228 -0.1855  1.0390
  142MOL0     H18714   6.524   3.171   3.721 -0.0019 -1.8768 -0.1843
  142MOL0     H18715   6.560   3.317   3.820 -0.9538  0.3229  0.1760
  142MOL0     H18716   6.343   3.125   3.888  1.5748 -1.6786 -1.3382
  142MOL0     H18717   6.382   3.279   3.973  0.0966  1.2703 -0.4212
  142MOL0     H18718   6.283   3.252   3.696 -0.1732 -0.0770  0.5570
  142MOL0     H18719   6.336   3.406   3.777  1.1063 -1.0308 -3.6441
  142MOL0     H18720   6.177   3.402   3.937  0.7134  0.5396 -1.4422
  142MOL0     H18721   6.114   3.244   3.898  0.1244 -0.1930  0.6262
  142MOL0     H18722   6.141   3.489   3.716  1.2042 -0.9668  0.0132
  142MOL0     H18723   6.024   3.346   3.682 -0.2989 -1.3497  1.3500
  142MOL0     H18724   5.906   3.534   3.742  1.1544 -1.4552 -1.3115
  142MOL0     H18725   5.993   3.548   3.898  3.0511 -0.0707 -0.8420
  142MOL0     H18726   6.995   3.077   3.736  0.3139  1.4568 -0.4155
  142MOL0     H18727   7.241   3.116   3.718 -1.0383  4.4027 -0.8691
  142MOL0     H18728   7.628   3.473   4.138  1.2856 -1.7140  2.7279
  142MOL0     H18729   7.863   3.452   4.151 -1.8011 -0.2281  1.7522
  142MOL0     H18730   9.157   2.939   3.368  0.9439  3.4533 -0.2135
  142MOL0     H18731   8.943   2.833   3.316  0.3180  1.3960 -0.7090
  142MOL0     H18732   8.426   3.019   3.257 -2.4925 -1.1181 -2.8043
  142MOL0     H18733   8.210   2.929   3.229  0.8698  1.2444  0.1407
  142MOL0     H18734   7.914   2.699   3.268 -1.6166 -0.2550  2.1044
  142MOL0     H18735   8.031   2.803   3.185  2.0067 -1.5243  0.5548
  142MOL0     H18736   7.886   2.850   3.451 -0.3364  2.3835  1.3967
  142MOL0     H18737   8.021   2.949   3.376 -0.1866 -0.2367  1.5047
  142MOL0     H18738   7.723   2.916   3.292 -0.2448 -0.2769  0.3165
  142MOL0     H18739   7.846   2.922   3.167 -0.9738 -1.8185  0.7348
  142MOL0     H18740   7.706   3.126   3.270  0.8105  2.9289  0.3500
  142MOL0     H18741   7.799   3.104   3.410  1.8645  0.9981 -0.5421
  142MOL0     H18742   8.102   3.262   3.144 -0.9805  0.3981 -2.5882
  142MOL0     H18743   8.287   2.614   3.495 -0.4312 -0.1727 -0.8941
  142MOL0     H18744   8.518   2.719   3.544  0.2176 -0.7114  0.4668
  143MOL0     O18745   0.332   6.162  10.274  0.2067 -0.1171 -0.0058
  143MOL0     C18746   0.407   6.155  10.179 -0.1108  0.3019  0.0234
  143MOL0     O18747   0.398   6.048  10.085 -0.2336 -0.3405 -0.4973
  143MOL0     C18748   0.295   5.957  10.093  0.6840 -0.8945  0.4908
  143MOL0     C18749   0.251   5.889  10.215  0.2097 -0.4129  0.7006
  143MOL0     C18750   0.147   5.796  10.208 -0.5913  0.2862  0.6319
  143MOL0     C18751   0.078   5.773  10.089 -1.1284 -0.7009  0.5122
  143MOL0     O18752  -0.038   5.699  10.076 -0.0698  0.0775 -0.2777
  143MOL0     C18753  -0.080   5.623  10.190  0.6583 -0.1894 -0.7694
  143MOL0     C18754  -0.170   5.702  10.283  0.2090  0.0619 -0.7764
  143MOL0     C18755  -0.294   5.779  10.227  0.1175 -0.0495 -0.2179
  143MOL0     C18756  -0.369   5.684  10.139  0.2659 -0.2980 -0.4029
  143MOL0     C18757  -0.509   5.738  10.103 -0.7911 -0.6477  0.8228
  143MOL0     C18758  -0.586   5.622  10.039 -0.4483 -0.7888 -0.4988
  143MOL0     C18759  -0.738   5.641  10.046  0.2353  0.2495  0.8502
  143MOL0     C18760  -0.799   5.519   9.968 -0.1706 -0.6055 -0.5893
  143MOL0     N18761  -0.940   5.510  10.003 -0.2853  0.1171  0.0874
  143MOL0     C18762  -1.032   5.612   9.990  0.9720 -0.5653 -0.6260
  143MOL0     C18763  -1.151   5.553  10.032 -0.6867  0.2369 -0.6802
  143MOL0     C18764  -1.281   5.628  10.042 -0.6597  0.0869 -0.1554
  143MOL0     C18765  -1.395   5.560   9.980 -0.3291 -0.2424  0.2135
  143MOL0     C18766  -1.369   5.524   9.831  0.0279  0.7473 -0.1727
  143MOL0     C18767  -1.497   5.521   9.751 -0.3286  0.6639  0.2093
  143MOL0     O18768  -1.544   5.652   9.732 -0.0682 -0.1561 -0.3168
  143MOL0     C18769  -1.676   5.660   9.690  0.0582 -0.2600  0.0512
  143MOL0     C18770  -1.759   5.549   9.656  0.0999 -0.2677 -1.1283
  143MOL0     C18771  -1.892   5.569   9.613  0.4333  0.2012 -0.5219
  143MOL0     C18772  -1.942   5.700   9.605  0.4195 -0.3263 -0.8200
  143MOL0     C18773  -2.087   5.711   9.571  0.8556  0.2377 -0.3967
  143MOL0     O18774  -2.149   5.831   9.589 -0.7390  0.1281  0.3821
  143MOL0     C18775  -2.248   5.869   9.500 -0.1553  0.1692 -0.5664
  143MOL0     C18776  -2.310   5.984   9.534  0.1469  0.2176  0.0736
  143MOL0     C18777  -2.424   6.023   9.465 -0.1248  0.3134 -0.3021
  143MOL0     C18778  -2.466   5.958   9.357  0.4221  0.5145 -0.2684
  143MOL0     O18779  -2.580   6.006   9.291  0.2413  0.1157  0.1562
  143MOL0     C18780  -2.658   5.908   9.213 -0.5912  0.3141 -1.1176
  143MOL0     C18781  -2.797   5.946   9.174  0.3261  0.4172 -0.0949
  143MOL0     C18782  -2.887   5.947   9.297  0.1532 -0.3934 -0.4070
  143MOL0     C18783  -3.017   5.999   9.253 -0.3369 -0.3038 -0.6330
  143MOL0     C18784  -3.120   5.984   9.365 -0.7453 -0.1625 -0.5124
  143MOL0     C18785  -3.238   6.072   9.329  0.1414 -0.1520  0.2040
  143MOL0     C18786  -3.367   6.076   9.419 -0.2313  1.0644  0.4337
  143MOL0     C18787  -3.499   6.064   9.347  0.4858  0.6863  0.2602
  143MOL0    Cl18788  -3.523   6.162   9.205 -0.3050  0.0071  0.1152
  143MOL0     C18789  -2.386   5.849   9.305 -0.1457  0.3023 -0.2631
  143MOL0     C18790  -2.271   5.812   9.380  0.0445 -0.9830 -0.1753
  143MOL0     O18791  -2.157   5.612   9.561 -0.0133  0.4115  0.0688
  143MOL0     C18792  -1.860   5.812   9.634 -0.0510 -0.9038  0.5561
  143MOL0     C18793  -1.722   5.794   9.667  0.1610 -0.3706 -0.1566
  143MOL0     N18794  -1.124   5.435  10.081  0.0198  0.4856  0.6202
  143MOL0     N18795  -1.000   5.406  10.059  0.1741  0.1766  0.4718
  143MOL0     C18796   0.125   5.835   9.973  0.4592  0.5323  0.7618
  143MOL0     C18797   0.229   5.927   9.976 -0.6926  0.9445 -0.4115
  143MOL0     C18798   0.510   6.259  10.143 -0.2863  0.7441 -0.2653
  143MOL0     C18799   0.623   6.221  10.067 -0.2725 -0.1318  0.4140
  143MOL0     C18800   0.701   6.323  10.012  0.5905  0.2930 -0.6428
  143MOL0     C18801   0.693   6.456  10.057 -0.6470 -1.0361 -0.6376
  143MOL0     O18802   0.772   6.561  10.009 -0.5085  0.1825  0.5632
  143MOL0     C18803   0.861   6.537   9.903  0.9166 -0.9423 -0.3021
  143MOL0     C18804   0.912   6.673   9.863 -0.1374  0.0663 -0.2596
  143MOL0     C18805   1.021   6.657   9.759 -0.0094  0.3383  0.3435
  143MOL0     C18806   1.099   6.789   9.741  0.7901 -0.1851  0.4980
  143MOL0     C18807   1.031   6.883   9.658  0.5014 -0.2416  0.3466
  143MOL0     C18808   0.971   6.957   9.580  0.0282 -0.2584  0.5074
  143MOL0     C18809   0.599   6.487  10.150  0.4078 -0.2549 -0.3508
  143MOL0     C18810   0.503   6.395  10.188 -0.2382  0.6264 -0.0824
  143MOL0     H18811   0.299   5.922  10.307 -0.2939  0.4869  0.6453
  143MOL0     H18812   0.124   5.748  10.303 -1.6936  0.2512  0.3578
  143MOL0     H18813   0.001   5.576  10.247  0.1082 -0.6652 -0.3684
  143MOL0     H18814  -0.137   5.537  10.153 -0.4463  0.1721  0.0226
  143MOL0     H18815  -0.104   5.757  10.350 -1.3638  0.0083  0.8993
  143MOL0     H18816  -0.222   5.643  10.359  2.3212  0.3305  0.9831
  143MOL0     H18817  -0.255   5.861  10.166  3.2413 -0.7245  0.7104
  143MOL0     H18818  -0.358   5.831  10.300  2.0106  0.7645  0.9458
  143MOL0     H18819  -0.312   5.671  10.046  0.1355 -1.0267 -0.3834
  143MOL0     H18820  -0.369   5.584  10.182  0.3656 -0.8216 -1.5758
  143MOL0     H18821  -0.512   5.821  10.032 -0.5818 -1.0789  0.3027
  143MOL0     H18822  -0.551   5.771  10.198  0.4581 -2.0222  1.8978
  143MOL0     H18823  -0.565   5.530  10.094  1.9489  0.3736  0.7098
  143MOL0     H18824  -0.564   5.612   9.933 -1.4269 -3.3547 -0.5265
  143MOL0     H18825  -0.783   5.623  10.144 -0.7286 -2.8597 -0.0561
  143MOL0     H18826  -0.775   5.739  10.016  0.0274  0.2595  1.1331
  143MOL0     H18827  -0.742   5.427   9.981  0.0324 -0.3746  0.1901
  143MOL0     H18828  -0.792   5.553   9.864 -0.6198  1.4590  0.0177
  143MOL0     H18829  -1.023   5.719   9.971  3.0659 -0.6683 -0.5123
  143MOL0     H18830  -1.267   5.726   9.995  2.8171 -1.0093 -1.7240
  143MOL0     H18831  -1.295   5.654  10.148  1.4066  0.3625  0.1053
  143MOL0     H18832  -1.477   5.632   9.975 -0.2389 -0.2184 -1.4870
  143MOL0     H18833  -1.420   5.470  10.036 -0.5461 -0.4966 -0.2866
  143MOL0     H18834  -1.299   5.596   9.787  0.9886 -1.4763 -2.5335
  143MOL0     H18835  -1.326   5.425   9.816  0.0071  0.5412  1.0635
  143MOL0     H18836  -1.560   5.462   9.818  0.3837  1.2612  1.4529
  143MOL0     H18837  -1.478   5.470   9.656  0.8424  1.0592  0.2161
  143MOL0     H18838  -1.718   5.450   9.671  0.4670  0.2880  2.5143
  143MOL0     H18839  -1.956   5.483   9.596 -0.3990 -0.4211  4.2452
  143MOL0     H18840  -2.289   6.039   9.625 -1.7311 -0.5465  1.0381
  143MOL0     H18841  -2.484   6.108   9.497 -0.4688  0.0626 -0.2761
  143MOL0     H18842  -2.670   5.818   9.274 -0.7042  0.6563 -0.6358
  143MOL0     H18843  -2.594   5.876   9.130  0.5711  2.7215 -1.2471
  143MOL0     H18844  -2.830   5.875   9.098  2.8129 -2.6147  1.4374
  143MOL0     H18845  -2.798   6.043   9.122 -0.4585 -0.7285 -2.3591
  143MOL0     H18846  -2.851   6.014   9.376 -1.5644 -0.8944  0.8671
  143MOL0     H18847  -2.895   5.850   9.346  0.6039 -0.0718  0.3236
  143MOL0     H18848  -3.001   6.106   9.236  0.2352  0.4478  3.4902
  143MOL0     H18849  -3.052   5.952   9.161 -0.9027 -1.4676  0.1475
  143MOL0     H18850  -3.085   6.019   9.463 -3.7760  0.2862  0.5161
  143MOL0     H18851  -3.150   5.881   9.382 -2.8458  0.6111  0.8602
  143MOL0     H18852  -3.265   6.042   9.227  4.5861 -1.6883 -0.7638
  143MOL0     H18853  -3.196   6.173   9.321 -0.9868  0.5862  2.7715
  143MOL0     H18854  -3.347   5.992   9.487  2.9919  0.8366 -0.6116
  143MOL0     H18855  -3.356   6.171   9.472  2.8305  2.6843 -2.6509
  143MOL0     H18856  -3.579   6.092   9.416 -0.3142 -1.1770  0.1279
  143MOL0     H18857  -3.524   5.960   9.324 -1.6619  1.4624 -1.1749
  143MOL0     H18858  -2.419   5.786   9.223  0.6729 -0.5257  0.0368
  143MOL0     H18859  -2.217   5.730   9.334 -0.7600 -1.1231 -0.9025
  143MOL0     H18860  -1.905   5.910   9.622  0.5893 -0.7856 -1.3244
  143MOL0     H18861  -1.662   5.878   9.699  1.0794 -0.8469 -0.6137
  143MOL0     H18862   0.079   5.810   9.878 -0.4694 -2.4930  1.8935
  143MOL0     H18863   0.272   5.970   9.887 -2.5820  2.0272 -0.8595
  143MOL0     H18864   0.619   6.115  10.043 -2.6494 -0.7210  2.8059
  143MOL0     H18865   0.776   6.294   9.939 -0.7585  0.2942 -2.0700
  143MOL0     H18866   0.806   6.483   9.826 -0.8081  0.5226 -0.1667
  143MOL0     H18867   0.946   6.477   9.936  2.2329 -0.5081 -2.6732
  143MOL0     H18868   0.821   6.720   9.824 -0.6913  0.1698  1.0817
  143MOL0     H18869   0.933   6.720   9.960  0.8122  1.1509 -0.9742
  143MOL0     H18870   0.989   6.644   9.655  0.7567  6.2175 -0.9929
  143MOL0     H18871   1.088   6.577   9.793 -0.1763 -0.1978 -0.5583
  143MOL0     H18872   1.125   6.826   9.841  2.2062 -1.3058  0.5780
  143MOL0     H18873   1.198   6.769   9.701  0.7554  0.3779  0.1263
  143MOL0     H18874   0.918   7.021   9.512 -0.4460  0.5174  1.5853
  143MOL0     H18875   0.603   6.590  10.183 -2.2227 -0.5134  1.0821
  143MOL0     H18876   0.418   6.438  10.241 -1.0279 -0.3246 -0.5308
  144MOL0     O18877   0.141   9.237   9.807  0.5076 -0.0048 -0.3541
  144MOL0     C18878   0.067   9.338   9.827  0.0671  0.5439 -0.6577
  144MOL0     O18879  -0.068   9.335   9.841  0.3868  0.2153 -0.3521
  144MOL0     C18880  -0.121   9.208   9.826 -0.4511 -0.4185 -0.1852
  144MOL0     C18881  -0.134   9.153   9.698 -0.9279 -0.1796 -0.2392
  144MOL0     C18882  -0.181   9.022   9.679  0.2983  0.1144 -0.3591
  144MOL0     C18883  -0.224   8.946   9.791  0.0478  0.6729  0.0117
  144MOL0     O18884  -0.263   8.814   9.793 -0.9299  0.0173 -0.2267
  144MOL0     C18885  -0.378   8.767   9.727  0.4801  0.3706  0.3493
  144MOL0     C18886  -0.515   8.828   9.767 -0.1432 -0.2256 -0.1266
  144MOL0     C18887  -0.634   8.772   9.696 -0.6120  0.3206  0.5652
  144MOL0     C18888  -0.758   8.866   9.718  0.0520  0.0335  0.5764
  144MOL0     C18889  -0.843   8.853   9.593 -0.1534  0.0642  0.0240
  144MOL0     C18890  -0.972   8.924   9.625 -0.2710  0.9095  0.3227
  144MOL0     C18891  -1.041   8.960   9.495  0.0572  0.0950  0.1170
  144MOL0     C18892  -1.164   9.035   9.535  0.5661  0.3961 -0.0789
  144MOL0     N18893  -1.261   9.027   9.423  0.6315 -0.9998  0.7530
  144MOL0     C18894  -1.360   8.932   9.413 -0.6868 -0.1100 -0.1325
  144MOL0     C18895  -1.432   8.974   9.306  0.7593  0.6185 -0.0985
  144MOL0     C18896  -1.551   8.893   9.255  0.1985 -0.2549 -0.2111
  144MOL0     C18897  -1.693   8.944   9.304  0.4947  0.0405  0.4854
  144MOL0     C18898  -1.730   9.073   9.238  0.3323 -0.1310  0.0600
  144MOL0     C18899  -1.876   9.099   9.280  0.1498  0.0677 -0.3433
  144MOL0     O18900  -1.974   9.019   9.214  0.3271  0.5555 -0.7741
  144MOL0     C18901  -2.089   9.075   9.158  0.6499  0.0176  0.5859
  144MOL0     C18902  -2.102   9.077   9.022  0.1647  0.3570  0.3792
  144MOL0     C18903  -2.221   9.120   8.962 -0.6961  0.2115 -0.1803
  144MOL0     C18904  -2.320   9.177   9.041  0.2014  0.1745  0.2511
  144MOL0     C18905  -2.438   9.257   8.985  0.1355 -0.0068  0.1129
  144MOL0     O18906  -2.553   9.276   9.067 -0.3375 -0.4419  0.0760
  144MOL0     C18907  -2.668   9.338   9.026 -0.3271 -1.3123  0.1763
  144MOL0     C18908  -2.712   9.454   9.086  0.1140 -0.4813 -0.2641
  144MOL0     C18909  -2.837   9.511   9.053 -0.6599  0.3595 -1.1816
  144MOL0     C18910  -2.916   9.461   8.955 -1.6569  0.0330  0.2727
  144MOL0     O18911  -3.031   9.524   8.941  0.6180  0.7528 -0.1463
  144MOL0     C18912  -3.120   9.487   8.835 -0.0016 -0.7099  0.2249
  144MOL0     C18913  -3.247   9.564   8.819  0.1972  0.7369  0.6540
  144MOL0     C18914  -3.230   9.707   8.788 -0.7938 -0.5096  0.6049
  144MOL0     C18915  -3.358   9.780   8.752  0.8738 -0.8552 -0.1083
  144MOL0     C18916  -3.348   9.934   8.763 -0.6147 -1.1493  0.5400
  144MOL0     C18917  -3.480   9.999   8.726  0.1744 -0.0410  0.6712
  144MOL0     C18918  -3.510  10.007   8.575 -0.9106 -0.2226 -0.2618
  144MOL0     C18919  -3.651   9.980   8.549  1.4386 -0.0337 -0.1410
  144MOL0    Cl18920  -3.675   9.806   8.590  0.9985 -0.2272 -0.2341
  144MOL0     C18921  -2.868   9.355   8.881 -0.0951 -0.1375  0.2247
  144MOL0     C18922  -2.742   9.300   8.915 -0.2031  0.3077 -0.6476
  144MOL0     O18923  -2.433   9.270   8.861  0.1616 -0.0917  0.1156
  144MOL0     C18924  -2.307   9.157   9.177  0.3070 -0.5613 -0.7553
  144MOL0     C18925  -2.191   9.109   9.240  0.2496  0.8270  0.8808
  144MOL0     N18926  -1.382   9.091   9.256  0.0602 -0.6621 -0.5136
  144MOL0     N18927  -1.275   9.122   9.325  0.7283 -0.8286 -0.0826
  144MOL0     C18928  -0.214   9.011   9.919 -0.5309 -0.0730  0.5654
  144MOL0     C18929  -0.164   9.145   9.938  0.2433  0.0424 -0.0189
  144MOL0     C18930   0.131   9.463   9.803  0.0184 -0.8068  0.9401
  144MOL0     C18931   0.066   9.587   9.820 -0.1723 -0.4451 -0.6568
  144MOL0     C18932   0.124   9.710   9.798 -0.5592 -0.2530  0.2124
  144MOL0     C18933   0.256   9.718   9.758  0.0009  0.5821 -0.4143
  144MOL0     O18934   0.323   9.835   9.734  0.5678 -0.0202 -0.1526
  144MOL0     C18935   0.411   9.870   9.846 -0.2019 -0.1782  0.0896
  144MOL0     C18936   0.498   9.984   9.784  0.6833  0.2727 -0.2592
  144MOL0     C18937   0.584   9.927   9.673 -0.7205 -0.0131 -0.4179
  144MOL0     C18938   0.645  10.021   9.568  0.0623 -0.6079  0.0455
  144MOL0     C18939   0.750  10.107   9.633  0.4935  0.7204 -0.3001
  144MOL0     C18940   0.831  10.175   9.683 -0.0088 -0.1586  0.7086
  144MOL0     C18941   0.327   9.598   9.738  1.0235 -0.0125 -0.8169
  144MOL0     C18942   0.271   9.473   9.762 -0.1356 -0.7136 -0.1927
  144MOL0     H18943  -0.100   9.215   9.616 -2.4793  1.2477  0.1384
  144MOL0     H18944  -0.172   8.979   9.580 -1.0275 -1.1734  0.0416
  144MOL0     H18945  -0.379   8.662   9.759  3.1343  0.1373 -0.0803
  144MOL0     H18946  -0.381   8.786   9.619 -1.8610 -0.2800  0.2582
  144MOL0     H18947  -0.504   8.933   9.739  2.9623  0.1634  2.0896
  144MOL0     H18948  -0.545   8.812   9.870 -0.8421 -1.0348 -0.4431
  144MOL0     H18949  -0.651   8.675   9.743 -0.1062 -0.3238 -0.5329
  144MOL0     H18950  -0.614   8.752   9.590  1.2436  2.7870  0.3541
  144MOL0     H18951  -0.817   8.826   9.801 -1.5992  0.7080 -0.2226
  144MOL0     H18952  -0.733   8.971   9.733 -0.7406  0.2396  0.4854
  144MOL0     H18953  -0.853   8.745   9.576  0.3331 -0.2323  1.4571
  144MOL0     H18954  -0.808   8.891   9.496 -0.6335 -0.5533 -0.4037
  144MOL0     H18955  -0.955   9.015   9.685  1.7284  1.9163 -1.6476
  144MOL0     H18956  -1.041   8.860   9.680 -0.5944  2.9839  2.5112
  144MOL0     H18957  -0.978   9.023   9.431 -1.5863  1.9905  0.2646
  144MOL0     H18958  -1.072   8.871   9.441  1.2763 -0.1552 -0.1997
  144MOL0     H18959  -1.142   9.137   9.566 -1.0237  0.2698  1.6452
  144MOL0     H18960  -1.207   8.987   9.624 -0.5362 -0.1570 -0.8832
  144MOL0     H18961  -1.374   8.848   9.480 -0.7395  0.7421  0.9561
  144MOL0     H18962  -1.542   8.794   9.302 -0.6069 -0.1839  0.1062
  144MOL0     H18963  -1.552   8.881   9.147  2.3593  1.2441 -0.4510
  144MOL0     H18964  -1.699   8.965   9.411 -2.3689  1.4736  0.1319
  144MOL0     H18965  -1.767   8.869   9.272 -1.8411  2.1103  0.7705
  144MOL0     H18966  -1.658   9.151   9.265 -2.1995  1.3311  3.3704
  144MOL0     H18967  -1.724   9.056   9.130 -0.8028  0.0511 -0.0461
  144MOL0     H18968  -1.914   9.201   9.268 -2.2635  0.0941  4.7026
  144MOL0     H18969  -1.880   9.080   9.388 -2.3552  1.6112 -0.0863
  144MOL0     H18970  -2.021   9.055   8.953  0.4370  0.6770  0.5962
  144MOL0     H18971  -2.222   9.135   8.854  1.7407 -2.1609 -0.6208
  144MOL0     H18972  -2.662   9.497   9.172 -3.5005 -2.1324  2.9666
  144MOL0     H18973  -2.870   9.591   9.118 -1.5111  0.8913 -2.2337
  144MOL0     H18974  -3.148   9.381   8.845 -1.1952 -0.8685 -3.5045
  144MOL0     H18975  -3.077   9.486   8.735 -1.1152 -1.3235 -0.2656
  144MOL0     H18976  -3.304   9.557   8.912  1.5632 -0.5731  1.4212
  144MOL0     H18977  -3.311   9.515   8.745  3.7096  0.9502 -2.8476
  144MOL0     H18978  -3.163   9.723   8.703 -1.2824  1.8220  0.5906
  144MOL0     H18979  -3.193   9.760   8.877 -0.7389 -1.3153  1.0726
  144MOL0     H18980  -3.388   9.757   8.650  1.5477 -0.7909 -0.3212
  144MOL0     H18981  -3.433   9.762   8.830 -0.1985  0.0110 -0.9100
  144MOL0     H18982  -3.275   9.979   8.695 -0.5049 -1.0129  0.7443
  144MOL0     H18983  -3.316   9.971   8.861  0.2725  0.0816 -0.1805
  144MOL0     H18984  -3.480  10.104   8.756 -0.1684 -0.2995  1.6344
  144MOL0     H18985  -3.571   9.969   8.778 -0.4911 -1.2221 -1.0965
  144MOL0     H18986  -3.483  10.109   8.547 -0.8813  0.1881  1.1939
  144MOL0     H18987  -3.449   9.944   8.509  0.2277  1.6817 -1.0816
  144MOL0     H18988  -3.683   9.994   8.445 -0.7672  0.7650  0.5899
  144MOL0     H18989  -3.716  10.037   8.616 -1.6324 -3.2318 -0.1205
  144MOL0     H18990  -2.921   9.309   8.798  0.4365 -0.4236  0.0392
  144MOL0     H18991  -2.694   9.227   8.851 -0.5620 -0.3381 -0.1929
  144MOL0     H18992  -2.395   9.181   9.237  0.6055  0.5473 -0.7362
  144MOL0     H18993  -2.190   9.115   9.348 -0.2805  1.0597  0.8720
  144MOL0     H18994  -0.249   8.965  10.011 -0.4786 -0.3736  0.4356
  144MOL0     H18995  -0.165   9.192  10.037  2.1779 -0.7446  0.4188
  144MOL0     H18996  -0.036   9.587   9.857 -0.4181  0.0268 -1.3140
  144MOL0     H18997   0.068   9.802   9.815 -2.4759 -1.7694  2.8567
  144MOL0     H18998   0.474   9.783   9.863  1.1972  0.1830 -2.6851
  144MOL0     H18999   0.348   9.914   9.924 -0.0256  2.9777 -1.3780
  144MOL0     H19000   0.445  10.066   9.734  2.1313  0.6680 -1.2295
  144MOL0     H19001   0.561  10.025   9.863 -1.1054  0.5580  1.0991
  144MOL0     H19002   0.524   9.853   9.619 -0.5763  1.2536 -2.4173
  144MOL0     H19003   0.666   9.875   9.723  0.1064  1.4661 -0.1836
  144MOL0     H19004   0.686   9.958   9.489  2.2370 -1.6590  1.8874
  144MOL0     H19005   0.559  10.076   9.529  0.2845 -0.9946 -1.0205
  144MOL0     H19006   0.911  10.226   9.733 -2.4601  1.2195  3.5864
  144MOL0     H19007   0.430   9.590   9.704  0.7428 -1.9300 -1.3565
  144MOL0     H19008   0.314   9.374   9.755 -1.9569 -1.6353  0.8748
  145MOL0     O19009  10.803   3.987   1.655  0.2062  0.0163  0.0459
  145MOL0     C19010  10.864   3.896   1.705 -0.8890 -0.0569  0.0403
  145MOL0     O19011  10.812   3.805   1.785  0.2889  0.2370 -0.6955
  145MOL0     C19012  10.678   3.797   1.832 -0.0724  0.5107 -0.2276
  145MOL0     C19013  10.570   3.845   1.760  0.0978 -0.2249  0.2243
  145MOL0     C19014  10.442   3.838   1.809  0.0457 -0.2338  0.4608
  145MOL0     C19015  10.421   3.778   1.935  0.1094 -0.7228  0.0506
  145MOL0     O19016  10.294   3.782   1.982  0.1102 -0.5806  0.7856
  145MOL0     C19017  10.260   3.718   2.105 -0.1561  0.3447 -0.0923
  145MOL0     C19018  10.112   3.706   2.124  0.2159 -0.3145  0.3513
  145MOL0     C19019  10.080   3.593   2.220  0.2969  0.3890 -0.3133
  145MOL0     C19020   9.927   3.575   2.240  0.5405  0.5200 -0.2044
  145MOL0     C19021   9.888   3.457   2.320  0.3437  0.0381 -0.0703
  145MOL0     C19022   9.747   3.475   2.365  0.0940 -0.7938 -0.7319
  145MOL0     C19023   9.693   3.337   2.413 -0.2196  0.2114 -0.3605
  145MOL0     C19024   9.566   3.351   2.507 -0.2831 -0.5817 -0.4781
  145MOL0     N19025   9.451   3.416   2.432 -1.0175  0.5493 -0.0997
  145MOL0     C19026   9.377   3.354   2.339 -0.0929  0.1256  0.0237
  145MOL0     C19027   9.276   3.438   2.318  0.3679 -0.6197  0.9363
  145MOL0     C19028   9.170   3.417   2.214 -0.7998 -0.0474  0.0996
  145MOL0     C19029   9.041   3.354   2.275  0.1157  0.4253  0.4524
  145MOL0     C19030   8.927   3.334   2.174 -0.2297 -0.0624  0.0850
  145MOL0     C19031   8.796   3.299   2.251 -0.2300  0.5314  0.4854
  145MOL0     O19032   8.681   3.338   2.175  0.3775  0.8668  0.2171
  145MOL0     C19033   8.554   3.283   2.214 -0.4069 -0.1082 -0.0224
  145MOL0     C19034   8.530   3.199   2.324 -0.9001  0.0908 -0.1675
  145MOL0     C19035   8.396   3.162   2.349 -0.3680 -0.2574 -0.0552
  145MOL0     C19036   8.296   3.203   2.265 -0.2226 -0.1430 -0.2101
  145MOL0     C19037   8.157   3.169   2.277  0.5735  0.6158  0.1161
  145MOL0     O19038   8.055   3.232   2.202 -0.0273 -0.0478 -0.0170
  145MOL0     C19039   7.923   3.218   2.220  0.0495  0.2920  0.3945
  145MOL0     C19040   7.852   3.287   2.115  0.4155  0.5463 -0.4429
  145MOL0     C19041   7.713   3.290   2.130 -0.0317 -0.0710 -0.6595
  145MOL0     C19042   7.643   3.231   2.236 -0.6977  0.1964 -0.8858
  145MOL0     O19043   7.508   3.223   2.225  0.2512 -0.0597  0.0015
  145MOL0     C19044   7.435   3.136   2.317  0.2561  0.1679  0.0325
  145MOL0     C19045   7.283   3.152   2.314 -0.8724 -0.1051 -0.1940
  145MOL0     C19046   7.215   3.042   2.241  0.6363 -0.0055  0.2011
  145MOL0     C19047   7.175   2.922   2.328  0.4537  0.0439 -0.3360
  145MOL0     C19048   7.084   2.825   2.240 -1.1696  0.7073  0.4680
  145MOL0     C19049   6.946   2.875   2.201  0.5921  0.7242  0.0289
  145MOL0     C19050   6.845   2.864   2.320 -0.4975  0.6663  0.0946
  145MOL0     C19051   6.723   2.957   2.318  0.6999 -0.1392  1.0362
  145MOL0    Cl19052   6.772   3.129   2.313  0.0686 -0.5840  0.2192
  145MOL0     C19053   7.718   3.162   2.334 -0.0128 -0.2425  0.1221
  145MOL0     C19054   7.856   3.153   2.321  0.0205  1.2303  0.4375
  145MOL0     O19055   8.136   3.090   2.366 -0.3396 -0.1652 -0.3557
  145MOL0     C19056   8.325   3.293   2.153  0.3967  0.4571 -0.7958
  145MOL0     C19057   8.452   3.336   2.137  0.1896 -0.2272 -0.4123
  145MOL0     N19058   9.285   3.555   2.395 -0.0820  0.0369  0.1959
  145MOL0     N19059   9.393   3.536   2.468 -0.2058 -0.2226  0.8811
  145MOL0     C19060  10.530   3.739   2.005 -0.3101 -0.4904 -0.3212
  145MOL0     C19061  10.654   3.736   1.953 -0.2236  0.1249  0.0633
  145MOL0     C19062  11.017   3.896   1.689 -0.7736 -0.4521 -0.5601
  145MOL0     C19063  11.081   3.988   1.608  0.0739  0.2285  0.1513
  145MOL0     C19064  11.224   3.998   1.610 -0.3207  1.0444  0.0253
  145MOL0     C19065  11.297   3.896   1.678 -0.7253 -0.7107 -0.3863
  145MOL0     O19066  11.435   3.887   1.674 -0.3022  0.0769 -0.1501
  145MOL0     C19067  11.512   3.987   1.597 -0.0795  1.2566  0.6930
  145MOL0     C19068  11.656   3.940   1.583 -0.1872  0.2991 -0.2388
  145MOL0     C19069  11.739   4.043   1.516  0.2849  0.2714 -0.0764
  145MOL0     C19070  11.895   4.025   1.537  0.1662  0.1347  0.4309
  145MOL0     C19071  11.922   3.999   1.674 -0.2400 -0.3572 -0.4891
  145MOL0     C19072  11.936   3.957   1.790  0.4237 -0.1364  0.0119
  145MOL0     C19073  11.228   3.798   1.749 -0.1114 -0.0076 -0.4205
  145MOL0     C19074  11.091   3.797   1.755  1.4983  0.6648  0.2930
  145MOL0     H19075  10.592   3.887   1.662  1.1953 -0.6419  0.2847
  145MOL0     H19076  10.362   3.883   1.752 -1.4914  1.5939  3.7711
  145MOL0     H19077  10.288   3.779   2.191 -0.3331 -2.4355  2.0571
  145MOL0     H19078  10.321   3.628   2.116  1.2928  1.3879  0.8547
  145MOL0     H19079  10.060   3.675   2.033  0.0652  1.1582 -0.0825
  145MOL0     H19080  10.062   3.800   2.146 -0.9249 -0.7491 -0.2699
  145MOL0     H19081  10.118   3.633   2.315 -0.3299  2.7858 -1.0088
  145MOL0     H19082  10.128   3.498   2.195  0.1178 -0.0333  0.8803
  145MOL0     H19083   9.899   3.658   2.306  1.5161 -0.5412  1.6489
  145MOL0     H19084   9.867   3.574   2.149 -1.9924  1.0329  1.3554
  145MOL0     H19085   9.951   3.436   2.407  0.3999  2.9074  0.6990
  145MOL0     H19086   9.902   3.371   2.254  1.3899 -0.9562  1.3840
  145MOL0     H19087   9.691   3.502   2.275 -1.4519  1.7689  0.8668
  145MOL0     H19088   9.735   3.557   2.436  1.1261  0.3675 -1.8480
  145MOL0     H19089   9.678   3.287   2.317 -1.9484  1.1362 -0.6147
  145MOL0     H19090   9.777   3.292   2.466  0.7317  0.5974 -1.4980
  145MOL0     H19091   9.592   3.399   2.602  0.7974 -2.0566 -0.0027
  145MOL0     H19092   9.527   3.256   2.541 -0.7041  0.6982  2.9385
  145MOL0     H19093   9.389   3.265   2.279 -0.1186  0.3229 -0.2740
  145MOL0     H19094   9.212   3.341   2.148 -0.0080  0.1749  0.3407
  145MOL0     H19095   9.135   3.505   2.159 -1.8599  0.4991  1.5763
  145MOL0     H19096   9.017   3.423   2.357  0.2592  2.6749 -1.2860
  145MOL0     H19097   9.073   3.260   2.321 -1.2918  1.2209  3.2784
  145MOL0     H19098   8.911   3.425   2.115 -1.0103 -0.3510 -0.1508
  145MOL0     H19099   8.951   3.252   2.106  1.1300  0.7664 -0.4873
  145MOL0     H19100   8.792   3.353   2.346 -0.4272 -2.3793  2.2398
  145MOL0     H19101   8.799   3.193   2.279 -1.1468  0.4646  0.3519
  145MOL0     H19102   8.611   3.167   2.387 -0.8807 -4.2657 -2.0259
  145MOL0     H19103   8.380   3.082   2.421  2.2764  0.3148  1.3332
  145MOL0     H19104   7.907   3.337   2.036 -0.8325 -0.5381 -2.0555
  145MOL0     H19105   7.651   3.336   2.053 -0.5675  1.2629  0.5274
  145MOL0     H19106   7.472   3.148   2.419  2.2192  0.5786 -0.6706
  145MOL0     H19107   7.459   3.033   2.286  1.7860  0.4106  0.3374
  145MOL0     H19108   7.265   3.247   2.263 -0.9871 -0.5733 -1.0524
  145MOL0     H19109   7.246   3.151   2.417  0.1853 -1.3232  0.2027
  145MOL0     H19110   7.277   3.002   2.160 -0.6860 -4.5469  1.1584
  145MOL0     H19111   7.130   3.091   2.193 -1.4588 -0.6465  2.9909
  145MOL0     H19112   7.270   2.887   2.369  2.7539  4.0698 -1.6640
  145MOL0     H19113   7.115   2.945   2.417  1.4623  1.1469  0.0797
  145MOL0     H19114   7.069   2.737   2.304  1.3387 -1.0182 -1.1410
  145MOL0     H19115   7.133   2.791   2.148 -0.6814 -2.3575  1.7576
  145MOL0     H19116   6.897   2.830   2.115  0.1337  3.6665 -1.3856
  145MOL0     H19117   6.946   2.978   2.164  0.5117  1.4795  1.9767
  145MOL0     H19118   6.811   2.761   2.322  0.9971  0.1319 -0.6467
  145MOL0     H19119   6.897   2.872   2.416 -3.0381  0.2786  1.5915
  145MOL0     H19120   6.668   2.955   2.412 -2.1371 -0.1914 -0.5202
  145MOL0     H19121   6.651   2.936   2.239 -0.5617  3.5289  1.0200
  145MOL0     H19122   7.665   3.090   2.396 -2.1299 -0.2516 -1.5909
  145MOL0     H19123   7.900   3.078   2.385  0.1420 -0.9959 -2.0968
  145MOL0     H19124   8.247   3.324   2.085  0.3631  0.0643 -0.9394
  145MOL0     H19125   8.472   3.417   2.067 -1.8515 -0.5230 -1.4143
  145MOL0     H19126  10.506   3.706   2.106 -1.5970  0.0675 -0.4289
  145MOL0     H19127  10.733   3.696   2.015  0.5407 -1.2094 -1.6945
  145MOL0     H19128  11.031   4.058   1.541  1.0447  2.5766  1.7418
  145MOL0     H19129  11.275   4.067   1.542  1.4995  0.6117  0.9100
  145MOL0     H19130  11.501   4.086   1.642  0.8600  2.0361 -0.7179
  145MOL0     H19131  11.468   4.003   1.498 -0.8142  0.8269  0.9386
  145MOL0     H19132  11.688   3.906   1.681  0.7418 -1.7868 -1.2128
  145MOL0     H19133  11.657   3.852   1.519  0.8541 -0.0465  0.2236
  145MOL0     H19134  11.711   4.141   1.556  0.1632  0.9718 -1.8191
  145MOL0     H19135  11.717   4.037   1.409 -0.3067 -0.3910  0.0778
  145MOL0     H19136  11.921   3.942   1.471 -2.7928 -0.0087 -0.7163
  145MOL0     H19137  11.953   4.111   1.502  2.0438 -1.6550 -1.1228
  145MOL0     H19138  11.951   3.920   1.889  3.3017 -0.1406 -0.3162
  145MOL0     H19139  11.292   3.724   1.796 -1.9579 -0.2271  1.9699
  145MOL0     H19140  11.043   3.714   1.806  2.8989 -0.8793 -0.7655
  146MOL0     O19141   2.329   3.656   3.552  0.4466 -0.5475  0.0677
  146MOL0     C19142   2.374   3.627   3.441  1.2129  0.2854 -0.3091
  146MOL0     O19143   2.297   3.587   3.332  0.3113  0.6930 -0.1733
  146MOL0     C19144   2.164   3.553   3.348 -0.0979 -0.1964 -0.2022
  146MOL0     C19145   2.126   3.425   3.388  1.6687 -0.0656 -0.1199
  146MOL0     C19146   1.991   3.391   3.391  0.4678 -0.5290 -0.3510
  146MOL0     C19147   1.895   3.492   3.386  0.5773  0.4498  0.6413
  146MOL0     O19148   1.759   3.474   3.396 -0.5688  0.3816 -0.0921
  146MOL0     C19149   1.690   3.370   3.333 -0.1672  0.7032 -0.4129
  146MOL0     C19150   1.550   3.378   3.380  0.7888 -0.0713 -0.1335
  146MOL0     C19151   1.490   3.234   3.355  0.3336 -0.0011 -0.1455
  146MOL0     C19152   1.348   3.213   3.404  0.0014  0.6083  0.1664
  146MOL0     C19153   1.307   3.064   3.393  0.5555 -0.2673 -0.1945
  146MOL0     C19154   1.166   3.037   3.455 -0.5987  0.1342 -0.3365
  146MOL0     C19155   1.094   2.922   3.396  0.6290  0.2204 -0.0855
  146MOL0     C19156   0.958   2.886   3.465  0.1631 -0.0947 -0.1505
  146MOL0     N19157   0.886   2.771   3.393 -0.1154 -0.7732 -0.1458
  146MOL0     C19158   0.902   2.638   3.427  1.2394  0.2952  0.1804
  146MOL0     C19159   0.813   2.569   3.348 -0.0595 -1.5167 -1.0499
  146MOL0     C19160   0.779   2.420   3.345 -0.1335  0.9022 -0.2725
  146MOL0     C19161   0.624   2.386   3.314 -0.3716 -0.8438  0.2293
  146MOL0     C19162   0.583   2.249   3.362  0.0088  0.5239  0.6608
  146MOL0     C19163   0.437   2.234   3.417 -0.4294  0.1118 -0.5820
  146MOL0     O19164   0.417   2.097   3.444  0.7322 -0.2184  0.1635
  146MOL0     C19165   0.289   2.049   3.469  0.3405  0.3331 -0.4446
  146MOL0     C19166   0.168   2.127   3.470  0.2314  0.3393  0.0780
  146MOL0     C19167   0.042   2.066   3.469 -0.6667  0.2983 -0.7711
  146MOL0     C19168   0.036   1.926   3.467  0.3049 -0.5709  0.6427
  146MOL0     C19169  -0.098   1.859   3.470 -0.4644  1.0419  0.0796
  146MOL0     O19170  -0.207   1.923   3.514 -0.0566  0.9887  1.0448
  146MOL0     C19171  -0.333   1.861   3.528  0.3320 -0.0220 -0.2550
  146MOL0     C19172  -0.417   1.838   3.411 -0.4030  0.1388 -0.1710
  146MOL0     C19173  -0.529   1.759   3.433  0.1469 -0.4076  0.2278
  146MOL0     C19174  -0.562   1.703   3.558 -0.9202 -0.3302 -1.0232
  146MOL0     O19175  -0.680   1.648   3.587 -0.3926 -0.1531 -0.4940
  146MOL0     C19176  -0.781   1.635   3.491  0.5072 -0.1815 -0.0774
  146MOL0     C19177  -0.910   1.586   3.541 -0.0913  0.3110 -0.2188
  146MOL0     C19178  -0.975   1.693   3.639 -1.0249 -0.3599 -0.2792
  146MOL0     C19179  -1.002   1.836   3.592 -0.6005 -0.2095  0.2146
  146MOL0     C19180  -1.100   1.918   3.687 -0.5983 -0.4200  0.0133
  146MOL0     C19181  -1.228   1.841   3.725  0.1663 -0.0417  0.1686
  146MOL0     C19182  -1.348   1.935   3.749  0.6713  0.3289  0.3374
  146MOL0     C19183  -1.487   1.858   3.732  0.3896 -0.3974  0.5121
  146MOL0    Cl19184  -1.491   1.713   3.826 -0.2366 -0.3069 -0.2050
  146MOL0     C19185  -0.473   1.724   3.662 -0.4938  0.4519 -0.6372
  146MOL0     C19186  -0.361   1.807   3.653  0.0078 -0.5575  0.1989
  146MOL0     O19187  -0.103   1.742   3.419 -0.5433 -0.3467  0.1682
  146MOL0     C19188   0.153   1.855   3.470 -0.7451 -0.0715 -0.2311
  146MOL0     C19189   0.277   1.913   3.475 -0.1679  0.0406 -1.0307
  146MOL0     N19190   0.753   2.664   3.259 -0.1315  0.2639 -0.2259
  146MOL0     N19191   0.800   2.782   3.283  0.5552 -0.1108 -0.7764
  146MOL0     C19192   1.933   3.623   3.369  0.1860  0.6397  0.6012
  146MOL0     C19193   2.065   3.651   3.340 -0.2877  0.1267 -0.4365
  146MOL0     C19194   2.530   3.634   3.430 -0.5591 -0.9407 -0.4398
  146MOL0     C19195   2.609   3.569   3.325  0.4802  0.1151 -0.2309
  146MOL0     C19196   2.748   3.588   3.324 -0.2729 -0.2514  0.8736
  146MOL0     C19197   2.818   3.663   3.416  0.2125 -0.2313  0.1890
  146MOL0     O19198   2.955   3.673   3.395 -0.0120  0.7447 -0.2953
  146MOL0     C19199   3.044   3.749   3.484  0.2604 -0.0984 -0.0515
  146MOL0     C19200   3.186   3.710   3.446  0.4243  0.4969 -0.2965
  146MOL0     C19201   3.213   3.564   3.495  0.6244 -0.2493 -0.1289
  146MOL0     C19202   3.355   3.549   3.538  0.8442 -0.6787 -0.2926
  146MOL0     C19203   3.390   3.410   3.546  0.4902 -0.2012 -0.0078
  146MOL0     C19204   3.420   3.297   3.537 -0.0208 -0.0464 -0.2496
  146MOL0     C19205   2.744   3.718   3.520  0.4191 -0.2962  0.0214
  146MOL0     C19206   2.606   3.698   3.531 -0.0372  0.8515  0.2201
  146MOL0     H19207   2.197   3.349   3.418  1.5310 -0.3603 -0.5249
  146MOL0     H19208   1.958   3.290   3.414  1.3640 -0.8688 -0.4947
  146MOL0     H19209   1.729   3.269   3.342  0.0823  0.2854 -4.3407
  146MOL0     H19210   1.703   3.386   3.226 -0.8380 -0.5216 -0.6953
  146MOL0     H19211   1.501   3.452   3.316  2.3687  0.9497 -0.2265
  146MOL0     H19212   1.554   3.399   3.488  1.1961 -2.2025  0.3102
  146MOL0     H19213   1.551   3.170   3.419 -2.1758 -0.0596  2.4013
  146MOL0     H19214   1.504   3.202   3.252  1.1935 -1.5494  0.4156
  146MOL0     H19215   1.333   3.250   3.506 -1.5912  1.6655 -0.4070
  146MOL0     H19216   1.280   3.273   3.343 -0.2520  0.9909  0.8168
  146MOL0     H19217   1.380   2.994   3.434 -0.2858 -0.6059  0.7772
  146MOL0     H19218   1.303   3.052   3.285  0.0945 -0.9613 -0.1069
  146MOL0     H19219   1.103   3.126   3.445 -3.2186 -1.4285  1.1361
  146MOL0     H19220   1.184   3.009   3.559 -0.3470 -0.2461 -0.4835
  146MOL0     H19221   1.081   2.955   3.292 -0.3362  3.4668  0.9487
  146MOL0     H19222   1.160   2.834   3.398  1.8825  0.8244 -4.4207
  146MOL0     H19223   0.887   2.968   3.481  2.3481  1.5072  2.0981
  146MOL0     H19224   0.973   2.847   3.566  0.3451  1.1196  0.3020
  146MOL0     H19225   0.957   2.594   3.510 -1.7119 -1.5099  1.3234
  146MOL0     H19226   0.806   2.380   3.443  0.4267  1.1046 -0.3361
  146MOL0     H19227   0.841   2.379   3.265 -1.0831  0.1766 -0.6517
  146MOL0     H19228   0.605   2.396   3.207  3.7845  1.1912 -0.5555
  146MOL0     H19229   0.562   2.464   3.358  0.1166  0.5372 -1.4059
  146MOL0     H19230   0.617   2.184   3.281  0.1008 -0.3194  1.3612
  146MOL0     H19231   0.652   2.216   3.440  2.3207 -1.6680 -2.0947
  146MOL0     H19232   0.373   2.260   3.333 -3.4124 -1.6345  1.0126
  146MOL0     H19233   0.417   2.307   3.496 -2.4189  1.1355 -1.9655
  146MOL0     H19234   0.171   2.235   3.465 -0.1562  0.2997 -1.4139
  146MOL0     H19235  -0.050   2.124   3.468 -0.5684  0.4645 -0.3069
  146MOL0     H19236  -0.384   1.878   3.315 -0.0347  0.2260 -0.0101
  146MOL0     H19237  -0.591   1.728   3.350  0.2618  0.9489 -0.3884
  146MOL0     H19238  -0.737   1.568   3.417  0.6465 -1.8673  1.4639
  146MOL0     H19239  -0.800   1.729   3.438 -0.8710 -1.0058 -1.1221
  146MOL0     H19240  -0.893   1.490   3.590  1.1097  1.7945  2.5324
  146MOL0     H19241  -0.976   1.560   3.457  2.8324 -0.4406 -2.4324
  146MOL0     H19242  -0.909   1.700   3.725  1.3456  0.9154 -2.0974
  146MOL0     H19243  -1.064   1.641   3.678 -1.3111 -1.2655 -2.0347
  146MOL0     H19244  -0.911   1.894   3.579 -1.3610  0.8541 -0.6403
  146MOL0     H19245  -1.051   1.830   3.494 -1.3626 -0.7165  0.6116
  146MOL0     H19246  -1.127   2.013   3.639  0.7272  1.5670  2.9214
  146MOL0     H19247  -1.044   1.949   3.775 -0.4952  0.3495 -0.3167
  146MOL0     H19248  -1.212   1.788   3.819 -0.4660 -2.2121 -0.8941
  146MOL0     H19249  -1.264   1.772   3.648  3.5364  0.0859 -1.6972
  146MOL0     H19250  -1.354   1.971   3.853  1.3835  0.6828  0.2588
  146MOL0     H19251  -1.348   2.022   3.683 -1.1754  1.7638  2.0596
  146MOL0     H19252  -1.507   1.833   3.627 -1.7335 -2.0002  1.2282
  146MOL0     H19253  -1.555   1.928   3.782  0.2205 -1.0164  1.1563
  146MOL0     H19254  -0.495   1.676   3.757  1.7453 -3.5997 -1.9314
  146MOL0     H19255  -0.303   1.835   3.740  0.4479 -0.6128 -0.0777
  146MOL0     H19256   0.146   1.747   3.468  1.8633 -0.3248  0.7479
  146MOL0     H19257   0.366   1.850   3.477  1.5717  2.3468  0.6639
  146MOL0     H19258   1.859   3.700   3.352 -0.6055 -0.5780 -1.8639
  146MOL0     H19259   2.087   3.753   3.311  0.7844  1.2586  3.7087
  146MOL0     H19260   2.568   3.489   3.264  2.0164 -1.4472  0.6882
  146MOL0     H19261   2.792   3.536   3.240 -1.0768  3.5655 -2.1974
  146MOL0     H19262   3.026   3.725   3.589 -0.0404 -0.1454 -0.1135
  146MOL0     H19263   3.032   3.858   3.482  0.4585 -0.0792 -0.2706
  146MOL0     H19264   3.183   3.701   3.337  0.7417  0.8549 -0.3368
  146MOL0     H19265   3.261   3.782   3.480 -0.9448  0.8400  2.2705
  146MOL0     H19266   3.186   3.486   3.424  0.2810 -0.8623  0.6690
  146MOL0     H19267   3.155   3.552   3.586  0.8919 -0.4361  0.0164
  146MOL0     H19268   3.411   3.604   3.462 -0.5577  0.0097 -0.8741
  146MOL0     H19269   3.377   3.599   3.633 -2.4779  2.7592 -1.1007
  146MOL0     H19270   3.444   3.193   3.545 -1.7032 -0.3331  2.4045
  146MOL0     H19271   2.775   3.789   3.595  0.3443 -0.9268  0.6671
  146MOL0     H19272   2.556   3.746   3.615 -4.5897  0.6102 -2.0127
  147MOL0     O19273   6.487   0.153   0.742 -0.1662  0.3203 -0.2571
  147MOL0     C19274   6.562   0.251   0.749 -0.2511 -0.6344  0.8451
  147MOL0     O19275   6.515   0.376   0.776 -0.0564  0.0379  0.0683
  147MOL0     C19276   6.394   0.398   0.848 -0.9860  0.0661 -0.6890
  147MOL0     C19277   6.318   0.311   0.924  0.1765 -0.0577 -0.4157
  147MOL0     C19278   6.193   0.350   0.986 -0.0101 -0.3914  0.4024
  147MOL0     C19279   6.151   0.481   0.963 -0.2717 -0.3098 -0.6638
  147MOL0     O19280   6.040   0.518   1.034  0.4243 -0.6172  0.5952
  147MOL0     C19281   5.958   0.623   0.978 -0.2029  0.0226 -0.2737
  147MOL0     C19282   5.902   0.576   0.837 -0.0843 -0.5309  0.1760
  147MOL0     C19283   5.774   0.641   0.795  0.3258  0.3307 -0.1239
  147MOL0     C19284   5.651   0.603   0.881  0.0012 -0.5358  0.2259
  147MOL0     C19285   5.529   0.671   0.822 -0.2413  0.2099  0.2130
  147MOL0     C19286   5.408   0.617   0.896  0.4040  0.7278  0.8951
  147MOL0     C19287   5.274   0.689   0.894  0.4904 -0.3976  0.1718
  147MOL0     C19288   5.290   0.826   0.952  0.5183  0.0775 -0.9511
  147MOL0     N19289   5.159   0.896   0.980 -0.4196  0.7195 -0.2070
  147MOL0     C19290   5.031   0.832   1.006 -0.1693  0.3183  0.2377
  147MOL0     C19291   4.949   0.924   1.060  0.1829 -0.1691 -1.0132
  147MOL0     C19292   4.797   0.901   1.087 -0.8279 -0.1101  0.3915
  147MOL0     C19293   4.744   0.977   1.209 -0.1693 -0.3354 -0.2520
  147MOL0     C19294   4.599   0.927   1.247 -0.1550 -0.0083 -0.2283
  147MOL0     C19295   4.530   1.015   1.360  0.2893  0.3715  1.6012
  147MOL0     O19296   4.416   0.931   1.401 -0.3387  0.2058  0.2282
  147MOL0     C19297   4.312   0.980   1.464  1.0949 -0.5074  0.2903
  147MOL0     C19298   4.308   1.112   1.515  0.3527  0.7392 -0.8328
  147MOL0     C19299   4.200   1.166   1.583  0.0742 -0.0272 -0.1719
  147MOL0     C19300   4.089   1.086   1.603  0.8652 -0.1160 -0.5677
  147MOL0     C19301   3.972   1.138   1.667  0.2722  0.3359 -0.0800
  147MOL0     O19302   3.959   1.265   1.658 -0.5252 -0.2109 -0.0036
  147MOL0     C19303   3.850   1.328   1.706  0.0997  0.5289 -0.0588
  147MOL0     C19304   3.812   1.323   1.845  0.1954 -0.5813 -0.3831
  147MOL0     C19305   3.691   1.385   1.875  0.3270 -0.1046 -0.1553
  147MOL0     C19306   3.624   1.479   1.789 -0.3818  0.6828  0.6160
  147MOL0     O19307   3.522   1.566   1.824  0.2213 -0.4253 -0.4287
  147MOL0     C19308   3.407   1.494   1.884  0.0453  0.5181  0.2329
  147MOL0     C19309   3.290   1.594   1.887  0.2128  0.2281  0.2574
  147MOL0     C19310   3.196   1.582   1.768 -0.0069  0.2344 -0.0764
  147MOL0     C19311   3.077   1.671   1.775 -0.9047  0.2733 -0.9447
  147MOL0     C19312   3.011   1.681   1.635 -0.1107  0.2179  0.5210
  147MOL0     C19313   2.868   1.742   1.632  0.7578 -0.0277  0.2858
  147MOL0     C19314   2.825   1.808   1.502  0.6103  0.2292  0.4938
  147MOL0     C19315   2.928   1.914   1.455  0.0819  0.1806  0.6999
  147MOL0    Cl19316   3.040   1.862   1.322 -0.0672 -0.1740 -0.2902
  147MOL0     C19317   3.676   1.490   1.658 -0.4286  0.2822  0.9336
  147MOL0     C19318   3.784   1.411   1.620 -0.4496 -0.1030  0.4966
  147MOL0     O19319   3.894   1.057   1.719  0.4861  0.3616 -0.2560
  147MOL0     C19320   4.080   0.960   1.548  0.6730  0.3147 -0.1718
  147MOL0     C19321   4.191   0.904   1.482  0.1137 -0.2747  0.4886
  147MOL0     N19322   5.031   1.037   1.088  0.2772  0.1981  0.6575
  147MOL0     N19323   5.145   1.022   1.032 -0.2633 -0.2035 -0.3553
  147MOL0     C19324   6.228   0.573   0.891 -0.2161  0.2778  0.1279
  147MOL0     C19325   6.345   0.531   0.837 -0.4797  0.1162  0.3577
  147MOL0     C19326   6.697   0.239   0.699  0.9993  0.4574  0.1363
  147MOL0     C19327   6.765   0.354   0.657 -0.1905 -0.0410  0.4809
  147MOL0     C19328   6.896   0.355   0.604  0.5151  0.7197 -0.5983
  147MOL0     C19329   6.965   0.235   0.577 -0.1684 -0.5725 -0.6938
  147MOL0     O19330   7.081   0.240   0.505  0.1593 -0.9505  0.6863
  147MOL0     C19331   7.120   0.115   0.442  0.4946  0.2943 -0.8293
  147MOL0     C19332   7.233   0.149   0.345  0.7717  0.2552  0.2278
  147MOL0     C19333   7.309   0.026   0.306 -0.5570 -0.3729  0.9143
  147MOL0     C19334   7.400   0.035   0.184  0.4809 -0.5299  0.7397
  147MOL0     C19335   7.457  -0.092   0.158 -0.1173  0.3317  1.1114
  147MOL0     C19336   7.511  -0.190   0.106  0.8462 -0.2006 -0.4336
  147MOL0     C19337   6.896   0.118   0.612 -0.0158 -0.2262 -0.0018
  147MOL0     C19338   6.763   0.118   0.673  0.3089  0.1000  0.1140
  147MOL0     H19339   6.346   0.209   0.948 -1.3056  0.3619  4.0146
  147MOL0     H19340   6.125   0.279   1.031  1.4624 -1.3774  1.1753
  147MOL0     H19341   6.017   0.711   0.954  0.1514 -0.0152  0.4276
  147MOL0     H19342   5.873   0.642   1.044 -2.1530  1.2264 -2.9759
  147MOL0     H19343   5.882   0.468   0.843  0.2876 -0.5879  0.4266
  147MOL0     H19344   5.976   0.590   0.758 -1.8893 -0.2213 -1.5362
  147MOL0     H19345   5.750   0.601   0.696  0.5271  0.8943 -0.4038
  147MOL0     H19346   5.783   0.750   0.794  0.1392  0.3912  1.9060
  147MOL0     H19347   5.643   0.494   0.885  3.4518 -0.8555  1.1474
  147MOL0     H19348   5.674   0.649   0.978  1.1827  3.4868 -1.7328
  147MOL0     H19349   5.518   0.659   0.714 -3.1092 -1.8143  0.6097
  147MOL0     H19350   5.543   0.777   0.842  0.8597  0.3315 -1.0781
  147MOL0     H19351   5.436   0.602   1.001 -0.1506 -1.0557  0.8218
  147MOL0     H19352   5.389   0.515   0.861  1.8242  1.2742 -1.7181
  147MOL0     H19353   5.230   0.682   0.795 -0.0684 -1.8972  0.5029
  147MOL0     H19354   5.201   0.634   0.955 -0.1946  0.6919  0.3779
  147MOL0     H19355   5.341   0.889   0.879 -1.6714  2.5504 -0.5031
  147MOL0     H19356   5.349   0.809   1.042 -0.4921  0.7290 -0.1423
  147MOL0     H19357   5.005   0.728   0.988  1.7136  0.0789 -1.5338
  147MOL0     H19358   4.776   0.795   1.107 -2.0987  0.5068  2.6880
  147MOL0     H19359   4.741   0.924   0.996 -2.1973  1.1029  1.4998
  147MOL0     H19360   4.749   1.084   1.188  1.0076 -0.8826 -3.1871
  147MOL0     H19361   4.814   0.954   1.291  0.1723  0.7969 -0.2106
  147MOL0     H19362   4.531   0.915   1.163 -1.6877 -2.3514  1.2077
  147MOL0     H19363   4.602   0.821   1.274 -0.1195 -0.3408 -1.4880
  147MOL0     H19364   4.500   1.115   1.327  1.6719  0.2768 -0.0861
  147MOL0     H19365   4.599   1.023   1.445  1.8870  0.6352  0.3228
  147MOL0     H19366   4.399   1.171   1.519  0.7169  0.1342  0.2094
  147MOL0     H19367   4.206   1.267   1.622 -1.9267 -0.7336  2.2292
  147MOL0     H19368   3.871   1.272   1.920  0.0608  1.2526  1.0066
  147MOL0     H19369   3.649   1.375   1.974 -0.4556  1.4356 -0.3002
  147MOL0     H19370   3.423   1.459   1.986 -0.7267  0.8070  0.4607
  147MOL0     H19371   3.379   1.410   1.820 -2.4227  0.3511  1.4428
  147MOL0     H19372   3.332   1.694   1.894  0.6464  0.0589  0.1049
  147MOL0     H19373   3.233   1.579   1.979  1.4967  0.1301  1.0502
  147MOL0     H19374   3.159   1.479   1.769 -0.3333  0.3506 -0.1187
  147MOL0     H19375   3.258   1.603   1.681 -0.9961  0.6117 -0.7068
  147MOL0     H19376   3.006   1.618   1.840 -0.1675 -0.5423 -0.7929
  147MOL0     H19377   3.102   1.770   1.816  0.5252 -0.2651 -0.4559
  147MOL0     H19378   3.012   1.584   1.586  1.6210  0.5353 -0.1508
  147MOL0     H19379   3.078   1.741   1.572 -2.1411 -0.1190 -2.1248
  147MOL0     H19380   2.872   1.825   1.703  0.6924  0.2532 -0.0397
  147MOL0     H19381   2.794   1.667   1.663 -0.4669  0.0576 -2.2080
  147MOL0     H19382   2.812   1.735   1.422 -1.1424  0.6425  0.3728
  147MOL0     H19383   2.731   1.858   1.527  1.2636  1.5941  0.3387
  147MOL0     H19384   2.982   1.952   1.543  1.2930 -0.4101  0.2357
  147MOL0     H19385   2.878   2.003   1.417 -0.8161  1.3330  4.2115
  147MOL0     H19386   3.642   1.548   1.573  0.7705 -4.1558 -2.9700
  147MOL0     H19387   3.826   1.433   1.523 -2.6719  2.1335 -0.0700
  147MOL0     H19388   3.987   0.906   1.562  1.1183 -0.3058  0.4594
  147MOL0     H19389   4.179   0.802   1.449  2.2484 -1.1249  2.0847
  147MOL0     H19390   6.201   0.677   0.882 -1.0166  0.0640 -0.0107
  147MOL0     H19391   6.406   0.612   0.798  0.7528  0.5240  2.9158
  147MOL0     H19392   6.729   0.456   0.670  1.2213  0.3712  1.3502
  147MOL0     H19393   6.955   0.446   0.595 -0.0211  0.9761 -1.6622
  147MOL0     H19394   7.037   0.077   0.383  1.0019 -0.2773 -1.1879
  147MOL0     H19395   7.147   0.045   0.522 -0.1761  3.0337  2.0160
  147MOL0     H19396   7.182   0.187   0.256  0.3008 -1.4559 -0.2776
  147MOL0     H19397   7.304   0.222   0.384  3.1567  0.0461 -3.2922
  147MOL0     H19398   7.239  -0.058   0.296  1.2719 -2.1697  2.3149
  147MOL0     H19399   7.378  -0.008   0.384 -1.0763 -2.3661  0.5780
  147MOL0     H19400   7.342   0.056   0.093  1.9820 -3.3128 -0.9915
  147MOL0     H19401   7.479   0.107   0.203 -0.8141  0.9044  0.9163
  147MOL0     H19402   7.544  -0.277   0.054 -0.0388 -0.6264 -0.3060
  147MOL0     H19403   6.928   0.018   0.582 -1.8209 -0.6940 -0.5036
  147MOL0     H19404   6.721   0.020   0.694 -2.5935  0.6050 -2.5601
  148MOL0     O19405  10.523   5.774   1.108 -0.1272  0.6093 -0.6352
  148MOL0     C19406  10.464   5.871   1.152  0.3217 -0.5682 -0.4361
  148MOL0     O19407  10.357   5.866   1.225  0.5037 -0.1825 -0.5730
  148MOL0     C19408  10.295   5.752   1.276 -0.2462  0.1766 -0.2231
  148MOL0     C19409  10.323   5.614   1.257 -0.6309  0.5178 -0.1502
  148MOL0     C19410  10.237   5.512   1.316 -0.1881 -0.2001  0.3833
  148MOL0     C19411  10.102   5.552   1.344 -0.2685 -0.4451  0.4560
  148MOL0     O19412  10.007   5.458   1.371  0.3536  0.0289  0.0535
  148MOL0     C19413   9.929   5.419   1.255  0.9166  0.3686 -0.0484
  148MOL0     C19414   9.807   5.377   1.326  0.0772 -0.5583 -0.9061
  148MOL0     C19415   9.721   5.495   1.392  0.0589 -0.2682  0.0035
  148MOL0     C19416   9.582   5.455   1.430  0.2258  0.8448  0.1373
  148MOL0     C19417   9.582   5.358   1.548  0.5143  0.0206  0.2995
  148MOL0     C19418   9.602   5.412   1.684  0.1482 -0.4962  0.2903
  148MOL0     C19419   9.587   5.300   1.785 -0.2992 -0.1516  0.7147
  148MOL0     C19420   9.621   5.342   1.923  0.0569 -0.8861 -0.1140
  148MOL0     N19421   9.509   5.371   2.002  0.2293 -0.2177 -0.4080
  148MOL0     C19422   9.431   5.280   2.058  0.3794 -0.0347 -0.5153
  148MOL0     C19423   9.338   5.348   2.121  0.3724  0.1844 -0.2376
  148MOL0     C19424   9.225   5.291   2.207  0.1612  0.2162 -0.3070
  148MOL0     C19425   9.094   5.342   2.148 -0.4407  0.1109  0.2937
  148MOL0     C19426   8.980   5.307   2.253  0.2875  0.3379 -0.2169
  148MOL0     C19427   8.854   5.409   2.240 -0.2487  0.5452 -0.2462
  148MOL0     O19428   8.749   5.341   2.314  0.5904  0.0322 -0.4175
  148MOL0     C19429   8.620   5.380   2.287 -0.4920  0.5418  0.4182
  148MOL0     C19430   8.586   5.488   2.215  0.5457  0.7980 -0.1549
  148MOL0     C19431   8.448   5.523   2.186  0.2852  0.9630 -0.5725
  148MOL0     C19432   8.348   5.438   2.241 -0.4447 -0.5543 -0.0951
  148MOL0     C19433   8.204   5.487   2.239  0.2832  0.4965 -0.5126
  148MOL0     O19434   8.116   5.384   2.267 -0.3253  0.7149 -0.0631
  148MOL0     C19435   7.983   5.407   2.279  0.0700 -0.6177  0.1144
  148MOL0     C19436   7.909   5.525   2.301  0.4714  0.2553  0.0278
  148MOL0     C19437   7.769   5.526   2.329 -0.0263 -0.0037  0.2570
  148MOL0     C19438   7.692   5.413   2.301 -0.1040  0.0557  0.3253
  148MOL0     O19439   7.556   5.412   2.310  0.1615  0.2121 -0.3573
  148MOL0     C19440   7.486   5.502   2.397 -0.4747 -0.6385  0.0700
  148MOL0     C19441   7.339   5.479   2.397  0.1028 -0.0229 -0.3860
  148MOL0     C19442   7.270   5.577   2.486  0.7159 -0.6414  0.0515
  148MOL0     C19443   7.117   5.577   2.485 -0.0886  0.6177 -0.1704
  148MOL0     C19444   7.053   5.689   2.580 -0.1681  0.4458 -0.2120
  148MOL0     C19445   6.904   5.705   2.552 -0.0182  0.6190  0.6953
  148MOL0     C19446   6.816   5.793   2.644 -0.6029  0.3492  0.7774
  148MOL0     C19447   6.793   5.931   2.575 -0.1973 -0.0485  0.0868
  148MOL0    Cl19448   6.658   6.018   2.661  0.4507 -0.1689 -0.2351
  148MOL0     C19449   7.762   5.289   2.265 -0.6178 -0.0954  0.1864
  148MOL0     C19450   7.906   5.287   2.260  0.4766 -1.2791 -0.2464
  148MOL0     O19451   8.173   5.600   2.207  0.0771 -0.0792  0.1116
  148MOL0     C19452   8.385   5.317   2.317  0.7412 -0.3263 -0.1449
  148MOL0     C19453   8.521   5.296   2.333 -0.0030  0.0993 -0.2204
  148MOL0     N19454   9.344   5.484   2.092 -0.3732  0.4084  0.1638
  148MOL0     N19455   9.458   5.495   2.024  0.5967 -0.2457 -0.4659
  148MOL0     C19456  10.074   5.686   1.363  0.4424 -0.0136 -0.1529
  148MOL0     C19457  10.169   5.780   1.336 -0.9371 -0.6459 -0.0345
  148MOL0     C19458  10.511   6.010   1.118  0.4887  0.0227  1.1260
  148MOL0     C19459  10.589   6.041   1.007 -0.2838 -0.0570  0.9915
  148MOL0     C19460  10.640   6.169   0.986 -0.0940  0.5314  0.4703
  148MOL0     C19461  10.636   6.269   1.089 -0.2392  0.2872 -0.0458
  148MOL0     O19462  10.718   6.376   1.061  0.2001  0.1909  0.3142
  148MOL0     C19463  10.761   6.467   1.165  0.5109 -0.5292  0.1075
  148MOL0     C19464  10.900   6.430   1.229  0.4421  0.1698  0.6048
  148MOL0     C19465  10.952   6.533   1.329 -0.6701  0.0535  0.1425
  148MOL0     C19466  11.034   6.648   1.266 -0.2493  0.4001 -0.4869
  148MOL0     C19467  11.078   6.753   1.367 -0.0018 -0.4270  1.0566
  148MOL0     C19468  11.114   6.844   1.437 -0.2150 -0.1851  0.7546
  148MOL0     C19469  10.561   6.235   1.203  0.4008  0.6676  0.5512
  148MOL0     C19470  10.493   6.112   1.213 -0.6380  1.0276  0.0463
  148MOL0     H19471  10.418   5.582   1.215 -0.6585 -1.1815  0.9877
  148MOL0     H19472  10.260   5.407   1.298 -1.4085 -0.4475  0.2373
  148MOL0     H19473   9.977   5.332   1.210 -0.7553 -0.6888  0.1340
  148MOL0     H19474   9.910   5.502   1.186  0.3341  1.1278  1.0010
  148MOL0     H19475   9.832   5.311   1.410  1.3904  1.4890  0.3945
  148MOL0     H19476   9.749   5.324   1.251 -0.0658  1.3660 -2.2175
  148MOL0     H19477   9.709   5.561   1.305  1.0885 -1.5283 -1.1530
  148MOL0     H19478   9.782   5.546   1.467  2.2435  0.1446 -1.9239
  148MOL0     H19479   9.522   5.544   1.445 -3.3229 -1.2462 -0.5151
  148MOL0     H19480   9.528   5.411   1.345  0.7105  1.3691 -0.4597
  148MOL0     H19481   9.655   5.279   1.530  1.9388  1.1080  1.0404
  148MOL0     H19482   9.487   5.304   1.554  0.0994  0.8937  2.2366
  148MOL0     H19483   9.538   5.499   1.703  1.0922  0.4526 -0.6420
  148MOL0     H19484   9.708   5.437   1.695  0.0446 -0.5911  1.6740
  148MOL0     H19485   9.486   5.261   1.776 -0.4591  0.6927 -2.1357
  148MOL0     H19486   9.657   5.221   1.757  0.2276  0.4071  0.4178
  148MOL0     H19487   9.698   5.420   1.930 -2.6663  1.9799  0.2368
  148MOL0     H19488   9.665   5.259   1.979 -1.2119 -1.3097  0.2905
  148MOL0     H19489   9.443   5.173   2.066 -0.1933 -0.0073  1.3579
  148MOL0     H19490   9.242   5.319   2.311 -0.6560  1.2534 -0.4363
  148MOL0     H19491   9.235   5.182   2.204  1.3173  0.2902  0.0083
  148MOL0     H19492   9.073   5.301   2.048  4.6190 -1.0087 -0.5796
  148MOL0     H19493   9.086   5.451   2.142 -1.9961 -0.0493 -2.3771
  148MOL0     H19494   8.936   5.209   2.232 -1.9163  1.3005 -0.4237
  148MOL0     H19495   9.011   5.304   2.358 -0.4036 -1.2393 -0.0331
  148MOL0     H19496   8.829   5.411   2.133  0.4198  0.2453 -0.4170
  148MOL0     H19497   8.864   5.512   2.274  2.4466  0.2807 -0.0420
  148MOL0     H19498   8.660   5.561   2.184  0.2711  1.6074  1.0402
  148MOL0     H19499   8.416   5.615   2.138 -0.5188  2.0540  1.8830
  148MOL0     H19500   7.956   5.622   2.311  0.7215  0.1072  0.2789
  148MOL0     H19501   7.718   5.615   2.364  1.0724  0.8028 -0.1312
  148MOL0     H19502   7.508   5.602   2.360 -1.3987 -0.7958 -0.9571
  148MOL0     H19503   7.533   5.485   2.495  4.7049  1.0840 -1.7670
  148MOL0     H19504   7.315   5.376   2.425 -0.7977  0.1340 -0.5386
  148MOL0     H19505   7.305   5.498   2.295  0.2305  0.3238 -0.3667
  148MOL0     H19506   7.296   5.677   2.450  2.6439 -1.1886 -0.2329
  148MOL0     H19507   7.299   5.567   2.591  3.4252 -0.6932 -0.6267
  148MOL0     H19508   7.091   5.602   2.382 -2.4974  1.2092  0.5199
  148MOL0     H19509   7.082   5.475   2.503 -2.8171  0.7680 -3.7289
  148MOL0     H19510   7.097   5.789   2.571 -1.3827  1.1784  1.3983
  148MOL0     H19511   7.068   5.661   2.684  0.0500  3.7637  0.7683
  148MOL0     H19512   6.865   5.604   2.561 -0.7539  0.8991  0.7526
  148MOL0     H19513   6.892   5.730   2.447  1.0636 -1.3542  0.0597
  148MOL0     H19514   6.726   5.740   2.674 -0.4705  0.3331  1.1537
  148MOL0     H19515   6.870   5.800   2.739  1.3708 -0.6026 -0.2053
  148MOL0     H19516   6.774   5.914   2.468 -2.3265  1.2598  0.1917
  148MOL0     H19517   6.880   5.996   2.583  2.5601 -3.6197  2.1288
  148MOL0     H19518   7.696   5.203   2.263 -3.0055  1.6365 -0.9679
  148MOL0     H19519   7.966   5.200   2.236  1.4257 -0.6922 -0.0482
  148MOL0     H19520   8.319   5.243   2.361  1.2581 -0.0644  1.0956
  148MOL0     H19521   8.557   5.204   2.378  0.0794  0.3820  0.3005
  148MOL0     H19522   9.975   5.714   1.395  1.5775  0.4143  3.3242
  148MOL0     H19523  10.140   5.884   1.347  2.5042  0.4292 -0.1658
  148MOL0     H19524  10.608   5.963   0.934 -0.0610  0.4001  0.5518
  148MOL0     H19525  10.686   6.176   0.888 -0.5538 -1.8072  0.0358
  148MOL0     H19526  10.687   6.465   1.246  1.1285  0.0511  0.7053
  148MOL0     H19527  10.756   6.567   1.121 -0.4461 -1.6017 -2.3603
  148MOL0     H19528  10.876   6.347   1.296  0.5168 -0.1498  0.2398
  148MOL0     H19529  10.970   6.405   1.149  1.3964  2.3170  0.6944
  148MOL0     H19530  11.011   6.484   1.407 -0.7324  0.3342  0.3680
  148MOL0     H19531  10.866   6.583   1.374 -1.4316  0.6156 -1.8406
  148MOL0     H19532  11.117   6.600   1.213 -1.2392 -1.8058 -0.1160
  148MOL0     H19533  10.974   6.696   1.189 -3.8644 -0.1192  1.7933
  148MOL0     H19534  11.135   6.923   1.506 -2.4485 -2.0619  3.8751
  148MOL0     H19535  10.559   6.307   1.285  2.1078  1.8332 -0.3714
  148MOL0     H19536  10.425   6.101   1.297 -0.6505  3.3791  0.4102
  149MOL0     O19537   7.578   3.395   8.030 -0.1000  0.6003 -0.6157
  149MOL0     C19538   7.642   3.304   8.086  0.0140 -0.3231  0.5234
  149MOL0     O19539   7.601   3.216   8.185  0.7248 -0.0451 -0.6399
  149MOL0     C19540   7.474   3.231   8.224 -0.4620 -0.5282 -0.6027
  149MOL0     C19541   7.444   3.294   8.346 -0.7883 -0.6635  0.4282
  149MOL0     C19542   7.306   3.301   8.384  0.2327 -0.1750  0.0520
  149MOL0     C19543   7.207   3.245   8.302 -0.0251 -0.7492  0.4188
  149MOL0     O19544   7.073   3.253   8.317 -0.6504  0.2319  0.0449
  149MOL0     C19545   7.017   3.385   8.350  0.1999 -0.4599  0.5243
  149MOL0     C19546   6.869   3.386   8.391 -0.7579  0.0559 -0.5372
  149MOL0     C19547   6.778   3.366   8.266  0.1327 -0.1658 -0.7708
  149MOL0     C19548   6.634   3.401   8.311 -0.6752 -0.0786 -0.2864
  149MOL0     C19549   6.618   3.550   8.315  1.0712 -0.6007  0.3389
  149MOL0     C19550   6.470   3.594   8.362 -0.7248  0.7826  0.4136
  149MOL0     C19551   6.474   3.582   8.522  0.4475 -0.4532  0.3842
  149MOL0     C19552   6.338   3.622   8.579  0.1774 -0.1330  0.5092
  149MOL0     N19553   6.346   3.621   8.722  0.4544 -0.3435 -0.6912
  149MOL0     C19554   6.437   3.696   8.790 -0.4602  0.0549 -0.2365
  149MOL0     C19555   6.411   3.669   8.917  0.0647  0.2798 -1.1325
  149MOL0     C19556   6.478   3.725   9.042 -0.4526 -0.3464 -0.4368
  149MOL0     C19557   6.588   3.830   9.019 -1.1767 -0.5637 -0.7406
  149MOL0     C19558   6.540   3.964   8.974  0.5162 -0.3551  0.7430
  149MOL0     C19559   6.646   4.052   8.903 -0.0567 -0.0519 -0.4759
  149MOL0     O19560   6.644   4.001   8.774  0.1431 -0.1118 -0.3020
  149MOL0     C19561   6.620   4.094   8.680 -0.1620  0.2672  0.6331
  149MOL0     C19562   6.717   4.181   8.629  0.0966 -0.0131 -0.1070
  149MOL0     C19563   6.697   4.271   8.530 -0.2161 -0.2645 -0.4836
  149MOL0     C19564   6.575   4.262   8.463  0.1381  0.4221 -0.3607
  149MOL0     C19565   6.543   4.352   8.349  0.1201 -0.8652 -0.0434
  149MOL0     O19566   6.628   4.465   8.330  0.4553  0.8249  0.1691
  149MOL0     C19567   6.602   4.577   8.265 -0.3458 -0.1811 -0.2591
  149MOL0     C19568   6.697   4.681   8.263 -0.0651 -0.0544  0.3282
  149MOL0     C19569   6.674   4.805   8.203  0.3964  0.5890 -0.0014
  149MOL0     C19570   6.548   4.824   8.146  0.2111 -0.3501 -0.3848
  149MOL0     O19571   6.546   4.946   8.070  0.3433  0.0176  0.5554
  149MOL0     C19572   6.444   4.967   7.976  0.7608  0.1266 -0.6777
  149MOL0     C19573   6.491   5.078   7.881  0.4406  0.0056  0.7353
  149MOL0     C19574   6.505   5.214   7.948 -0.4847 -0.0332  0.6173
  149MOL0     C19575   6.524   5.329   7.844  0.7660  0.3251 -0.0264
  149MOL0     C19576   6.545   5.465   7.917 -0.3331 -0.0090  0.0011
  149MOL0     C19577   6.432   5.511   8.019 -0.3059 -0.2617 -0.4797
  149MOL0     C19578   6.297   5.531   7.949 -0.3979  0.4955 -0.0706
  149MOL0     C19579   6.185   5.534   8.059  0.2302  0.1281 -0.2217
  149MOL0    Cl19580   6.207   5.685   8.167 -0.1045 -0.1677  0.3987
  149MOL0     C19581   6.448   4.724   8.148 -0.3369 -0.6844  0.1286
  149MOL0     C19582   6.470   4.605   8.210 -0.0656  0.1355 -0.3751
  149MOL0     O19583   6.439   4.340   8.286  0.4017 -0.3949 -0.7327
  149MOL0     C19584   6.471   4.177   8.511  0.0390  0.2219  0.1225
  149MOL0     C19585   6.494   4.096   8.619 -0.5660  1.0592 -0.1412
  149MOL0     N19586   6.290   3.591   8.919 -0.3053  0.0988  1.3783
  149MOL0     N19587   6.254   3.562   8.804 -0.1569  0.1179  0.3036
  149MOL0     C19588   7.238   3.192   8.185  0.4342  0.1059  0.5846
  149MOL0     C19589   7.367   3.176   8.142 -0.5593 -0.7164  0.4531
  149MOL0     C19590   7.784   3.301   8.046  0.2594 -0.3765 -0.4030
  149MOL0     C19591   7.861   3.197   8.083  0.6872 -0.5103  0.2231
  149MOL0     C19592   8.000   3.193   8.060 -0.4728 -0.2071  0.7008
  149MOL0     C19593   8.059   3.295   7.989  0.2254  0.3769  0.0236
  149MOL0     O19594   8.194   3.272   7.963 -0.1999  0.1627 -0.0417
  149MOL0     C19595   8.258   3.342   7.853 -0.2080 -0.4237 -0.2140
  149MOL0     C19596   8.388   3.266   7.819  0.0674 -0.4835 -0.6614
  149MOL0     C19597   8.472   3.352   7.725 -0.2018  0.4796 -0.4461
  149MOL0     C19598   8.546   3.467   7.801  0.9613  0.4111 -0.2061
  149MOL0     C19599   8.659   3.421   7.875  0.4942  0.6442 -0.6286
  149MOL0     C19600   8.736   3.371   7.947 -0.0209 -0.2414 -0.5326
  149MOL0     C19601   7.977   3.406   7.949  0.2098 -0.8675  0.4786
  149MOL0     C19602   7.840   3.410   7.976 -0.4295 -0.4363  0.2248
  149MOL0     H19603   7.531   3.317   8.406  0.4714 -2.9836 -0.3668
  149MOL0     H19604   7.278   3.356   8.473 -2.6001 -0.9909 -0.2668
  149MOL0     H19605   7.043   3.452   8.268 -1.4130 -0.7965 -0.3114
  149MOL0     H19606   7.063   3.431   8.437 -0.4320 -0.0110  0.6247
  149MOL0     H19607   6.857   3.488   8.428  2.9352  1.2445 -2.0830
  149MOL0     H19608   6.858   3.316   8.474  2.0987  0.7513  0.5583
  149MOL0     H19609   6.785   3.263   8.231  0.5276 -0.8426  1.1760
  149MOL0     H19610   6.817   3.436   8.192 -1.9742  3.7823  1.5176
  149MOL0     H19611   6.556   3.365   8.243 -2.0691  0.0887  1.1794
  149MOL0     H19612   6.613   3.361   8.411  0.7101  1.4918  0.6948
  149MOL0     H19613   6.649   3.594   8.220  4.4868  0.3444  1.7467
  149MOL0     H19614   6.692   3.602   8.377  0.8030  0.3091 -0.0980
  149MOL0     H19615   6.398   3.522   8.321  0.5169 -0.9065  1.0605
  149MOL0     H19616   6.451   3.697   8.330 -0.2768  1.2361  1.5448
  149MOL0     H19617   6.503   3.483   8.556  1.6800 -1.4151 -3.0149
  149MOL0     H19618   6.548   3.657   8.552 -2.3975  2.3555  0.9937
  149MOL0     H19619   6.261   3.557   8.537  2.3423 -0.1266 -4.0587
  149MOL0     H19620   6.316   3.725   8.550  1.0809  0.0070  0.2961
  149MOL0     H19621   6.526   3.738   8.745 -0.4909 -1.6083 -1.9810
  149MOL0     H19622   6.522   3.637   9.089  1.0991 -0.1120 -1.3905
  149MOL0     H19623   6.409   3.767   9.116  1.0277 -1.2212  1.5371
  149MOL0     H19624   6.672   3.783   8.967  1.1413  1.2621  1.1277
  149MOL0     H19625   6.642   3.855   9.111 -1.5014 -0.9785 -0.4380
  149MOL0     H19626   6.445   3.959   8.920  0.6407 -3.3915  0.6236
  149MOL0     H19627   6.510   4.014   9.067 -1.0451 -1.0787  0.6582
  149MOL0     H19628   6.744   4.048   8.950 -0.7487  0.3538  1.0484
  149MOL0     H19629   6.617   4.157   8.907  2.1720  0.9370 -4.5676
  149MOL0     H19630   6.809   4.172   8.687 -2.0321 -0.9022  3.4313
  149MOL0     H19631   6.777   4.337   8.498  0.1896  1.0044  2.7805
  149MOL0     H19632   6.798   4.657   8.295 -0.3784 -2.6695 -0.4216
  149MOL0     H19633   6.742   4.888   8.193 -1.1021  1.8028 -0.5126
  149MOL0     H19634   6.350   4.995   8.025  0.3193  0.5596 -1.7370
  149MOL0     H19635   6.428   4.873   7.922  1.2779 -0.7901  0.7031
  149MOL0     H19636   6.409   5.084   7.809  0.9144 -0.0978  0.1762
  149MOL0     H19637   6.574   5.052   7.814 -0.0788  1.9335 -0.7776
  149MOL0     H19638   6.597   5.210   8.007  0.3001  1.5069 -0.4336
  149MOL0     H19639   6.415   5.233   8.008 -0.7342 -1.1469  0.6036
  149MOL0     H19640   6.613   5.304   7.786  0.6879 -3.1108  1.1083
  149MOL0     H19641   6.435   5.327   7.780  1.8004  2.0012 -1.6068
  149MOL0     H19642   6.559   5.547   7.846  1.1801  0.4562  0.7947
  149MOL0     H19643   6.643   5.478   7.965  0.3513 -1.8115 -0.8167
  149MOL0     H19644   6.471   5.597   8.073 -0.5848 -0.1095 -0.5190
  149MOL0     H19645   6.416   5.438   8.098 -2.3396 -0.7022 -1.2515
  149MOL0     H19646   6.299   5.630   7.902  2.8262  0.0863 -1.0599
  149MOL0     H19647   6.276   5.454   7.874 -1.7088 -0.0015  0.7807
  149MOL0     H19648   6.181   5.449   8.127 -1.1935 -0.2335 -0.7337
  149MOL0     H19649   6.086   5.523   8.013  0.7114 -1.4759 -0.9677
  149MOL0     H19650   6.355   4.749   8.098  0.2065 -1.6991 -1.4295
  149MOL0     H19651   6.391   4.534   8.189 -0.1134  0.8369 -2.8352
  149MOL0     H19652   6.374   4.180   8.462  1.3638  2.2602 -2.6790
  149MOL0     H19653   6.424   4.025   8.660  0.9713  0.8805  2.3713
  149MOL0     H19654   7.160   3.143   8.129  0.6331 -0.9945  1.2426
  149MOL0     H19655   7.392   3.136   8.045  0.4728  0.8866  0.0148
  149MOL0     H19656   7.825   3.103   8.125 -0.2903 -0.9532 -1.4676
  149MOL0     H19657   8.061   3.108   8.091  0.1179 -1.0260 -2.3593
  149MOL0     H19658   8.275   3.445   7.887 -1.1283 -0.2888 -0.1364
  149MOL0     H19659   8.192   3.350   7.767 -0.1119 -0.2483 -0.2712
  149MOL0     H19660   8.438   3.221   7.905 -0.0197 -2.9973 -1.8176
  149MOL0     H19661   8.364   3.167   7.779  0.8165 -1.3085  0.8207
  149MOL0     H19662   8.406   3.394   7.649 -0.7452 -0.6777 -0.6338
  149MOL0     H19663   8.549   3.291   7.678  1.2457  1.3017  0.7768
  149MOL0     H19664   8.588   3.548   7.741  4.9773 -2.3166 -1.5630
  149MOL0     H19665   8.475   3.517   7.868  0.0458 -0.4072 -0.5358
  149MOL0     H19666   8.806   3.330   8.017 -0.4027 -2.4813 -1.3525
  149MOL0     H19667   8.021   3.489   7.895  0.7078 -1.1178  0.4942
  149MOL0     H19668   7.793   3.502   7.945 -3.9115 -1.3095  2.3873
  150MOL0     O19669  10.963   9.357   0.642 -0.8157  0.1397 -0.2649
  150MOL0     C19670  11.055   9.288   0.585 -0.3212  0.4029 -0.2158
  150MOL0     O19671  11.042   9.176   0.510 -0.9685  0.0645  0.0191
  150MOL0     C19672  10.921   9.129   0.465  0.6366 -0.6699  0.0965
  150MOL0     C19673  10.914   9.001   0.414 -0.6727 -0.1673 -0.7429
  150MOL0     C19674  10.797   8.959   0.362  0.4562  0.1839  0.0052
  150MOL0     C19675  10.681   9.026   0.367  0.0145 -0.0199 -0.0658
  150MOL0     O19676  10.576   8.959   0.315  0.3294 -0.4189 -0.1689
  150MOL0     C19677  10.441   8.998   0.345  0.0092  0.2259  0.4794
  150MOL0     C19678  10.379   9.054   0.217  0.4070 -0.3504 -0.0020
  150MOL0     C19679  10.224   9.073   0.224 -0.1450  0.4285  0.2033
  150MOL0     C19680  10.171   9.123   0.096  0.7627  0.2323  0.0825
  150MOL0     C19681  10.014   9.104   0.092 -0.1448 -0.0769 -0.6090
  150MOL0     C19682   9.955   9.145  -0.045 -0.2368  0.1830  0.2461
  150MOL0     C19683   9.801   9.155  -0.038 -0.2583  0.1206 -0.7365
  150MOL0     C19684   9.747   9.216  -0.166 -0.2301  0.8008  0.3934
  150MOL0     N19685   9.602   9.228  -0.159  0.6395 -0.6413 -0.1485
  150MOL0     C19686   9.504   9.151  -0.222 -0.1749 -0.4167 -0.4553
  150MOL0     C19687   9.384   9.195  -0.176  1.1111  0.2877 -0.6220
  150MOL0     C19688   9.253   9.130  -0.194  0.3725 -0.0158  0.4158
  150MOL0     C19689   9.202   9.181  -0.326  0.7997  0.8337  0.5958
  150MOL0     C19690   9.077   9.114  -0.375 -0.5186 -0.0987  0.5140
  150MOL0     C19691   9.028   9.200  -0.489 -0.0099  0.1166 -0.2530
  150MOL0     O19692   8.902   9.131  -0.524  0.1394  0.2728  0.3959
  150MOL0     C19693   8.819   9.204  -0.610 -0.4631 -0.7533  0.1361
  150MOL0     C19694   8.818   9.347  -0.612 -0.3695 -0.5681  0.9458
  150MOL0     C19695   8.713   9.414  -0.679  0.0393 -0.3894 -0.0993
  150MOL0     C19696   8.613   9.346  -0.752 -0.6679 -0.9503 -0.2587
  150MOL0     C19697   8.507   9.420  -0.807  0.6014  0.3307 -0.0539
  150MOL0     O19698   8.513   9.556  -0.792  0.5700  0.0194 -0.3478
  150MOL0     C19699   8.431   9.641  -0.855  0.3171  0.3249 -0.9411
  150MOL0     C19700   8.487   9.759  -0.893  0.0637 -0.2611  1.1748
  150MOL0     C19701   8.407   9.860  -0.953 -0.6948 -0.1078  0.5313
  150MOL0     C19702   8.270   9.855  -0.953  0.0937  0.1050 -0.0111
  150MOL0     O19703   8.183   9.952  -0.989 -0.2510 -0.0185 -0.2971
  150MOL0     C19704   8.075   9.973  -0.888 -0.4620 -0.1433  0.4082
  150MOL0     C19705   8.075  10.123  -0.864 -0.1077 -0.5101 -0.3179
  150MOL0     C19706   7.960  10.174  -0.781  0.7550  0.2768  0.6741
  150MOL0     C19707   7.957  10.325  -0.751 -0.1663  0.0410 -0.0237
  150MOL0     C19708   7.850  10.366  -0.651  0.0516  0.2493  0.3158
  150MOL0     C19709   7.838  10.515  -0.618  0.1786  0.3360 -0.6783
  150MOL0     C19710   7.705  10.551  -0.545 -0.0258  0.2557  0.3855
  150MOL0     C19711   7.701  10.705  -0.509 -0.5256  0.7016 -0.3029
  150MOL0    Cl19712   7.532  10.765  -0.510  0.4138 -0.5240  0.1971
  150MOL0     C19713   8.216   9.734  -0.902  0.1122  0.1871  0.5434
  150MOL0     C19714   8.292   9.628  -0.853  0.1660 -0.6347  0.6727
  150MOL0     O19715   8.415   9.355  -0.861 -0.0033 -0.2009  0.1479
  150MOL0     C19716   8.627   9.204  -0.760  0.0305 -1.8968 -0.3247
  150MOL0     C19717   8.732   9.142  -0.692  0.7227 -0.6436  0.1708
  150MOL0     N19718   9.405   9.291  -0.082 -0.2809  0.2013  0.0747
  150MOL0     N19719   9.541   9.315  -0.077  0.3687  0.3532  0.3143
  150MOL0     C19720  10.690   9.159   0.409  0.0770 -0.0813 -0.3194
  150MOL0     C19721  10.808   9.218   0.450  0.1012  0.4102  0.2525
  150MOL0     C19722  11.190   9.344   0.586  0.2070 -0.3074  0.1385
  150MOL0     C19723  11.297   9.265   0.538 -0.5792 -0.8678 -0.6290
  150MOL0     C19724  11.422   9.330   0.537  0.3106  0.0474  0.2837
  150MOL0     C19725  11.449   9.461   0.584 -0.6371  0.4759 -0.1650
  150MOL0     O19726  11.577   9.512   0.590  0.2436 -1.0797  0.2953
  150MOL0     C19727  11.609   9.655   0.606 -0.3085 -0.2279 -0.1206
  150MOL0     C19728  11.750   9.694   0.565 -0.5267  0.1803  0.4086
  150MOL0     C19729  11.785   9.843   0.574  0.1599 -0.0946 -0.1264
  150MOL0     C19730  11.932   9.858   0.568 -0.2104 -0.4812  0.6240
  150MOL0     C19731  11.982   9.995   0.574  0.3127  0.7054  0.2904
  150MOL0     C19732  12.028  10.106   0.581 -0.5902  0.8960  0.0304
  150MOL0     C19733  11.341   9.533   0.625  0.3397 -0.8893 -0.0167
  150MOL0     C19734  11.214   9.471   0.626  0.3988 -0.4918 -0.0998
  150MOL0     H19735  11.004   8.941   0.420 -0.5976  0.0844  1.1773
  150MOL0     H19736  10.805   8.861   0.316  4.2800  0.0985  0.4925
  150MOL0     H19737  10.419   9.062   0.431 -1.6906  1.1155 -0.5603
  150MOL0     H19738  10.381   8.908   0.367  2.5762 -1.0072  3.0640
  150MOL0     H19739  10.398   8.992   0.129 -0.8182 -0.4451 -0.2221
  150MOL0     H19740  10.421   9.153   0.197 -1.5734  0.4100 -0.6307
  150MOL0     H19741  10.205   9.148   0.302 -0.4328 -0.2485  0.7950
  150MOL0     H19742  10.171   8.982   0.253  0.1262  0.2165  0.0466
  150MOL0     H19743  10.194   9.230   0.093 -0.1418  0.4223 -0.3146
  150MOL0     H19744  10.224   9.073   0.016  1.6473  0.9868  0.1758
  150MOL0     H19745   9.968   9.152   0.179  0.9582 -0.4536  0.2048
  150MOL0     H19746   9.991   8.998   0.110 -0.2257 -0.2121 -1.4536
  150MOL0     H19747   9.993   9.078  -0.123 -1.6587  1.2025 -1.3965
  150MOL0     H19748   9.996   9.242  -0.072 -0.8064  0.3810  0.0782
  150MOL0     H19749   9.759   9.054  -0.036  0.2275 -0.1364 -2.5256
  150MOL0     H19750   9.773   9.212   0.051  1.0337  1.4140 -1.1313
  150MOL0     H19751   9.768   9.143  -0.245  0.4158 -0.4352  1.6715
  150MOL0     H19752   9.803   9.302  -0.205 -0.5711  0.4439 -0.9646
  150MOL0     H19753   9.524   9.052  -0.263  1.3900  0.5911 -2.2652
  150MOL0     H19754   9.189   9.159  -0.110  3.2585 -0.9379  3.1395
  150MOL0     H19755   9.262   9.021  -0.200 -1.8986 -0.1908 -1.0917
  150MOL0     H19756   9.281   9.161  -0.399  1.1977  0.3170  1.1546
  150MOL0     H19757   9.193   9.289  -0.311  0.0259  1.1919 -1.9521
  150MOL0     H19758   9.097   9.013  -0.413 -1.8634 -0.0202 -0.4632
  150MOL0     H19759   9.006   9.102  -0.293  0.6922 -2.2036  1.3366
  150MOL0     H19760   9.106   9.199  -0.566 -0.2960 -0.3427 -0.5491
  150MOL0     H19761   9.010   9.302  -0.456 -0.5180 -0.7935  2.5446
  150MOL0     H19762   8.885   9.418  -0.566 -2.7141  1.8634  0.8856
  150MOL0     H19763   8.709   9.522  -0.667 -0.8496  0.0159 -3.1167
  150MOL0     H19764   8.595   9.770  -0.882  0.1799 -1.3849  1.2468
  150MOL0     H19765   8.464   9.945  -0.988 -1.5737  0.4388  0.3957
  150MOL0     H19766   8.100   9.929  -0.791 -0.1980  0.0759  0.4395
  150MOL0     H19767   7.974   9.944  -0.917 -0.3480  0.3216 -0.4840
  150MOL0     H19768   8.060  10.174  -0.960 -2.1035  2.8735  1.5934
  150MOL0     H19769   8.171  10.142  -0.815 -0.2882 -0.4842  0.0309
  150MOL0     H19770   7.952  10.122  -0.685  1.1254 -1.2896 -0.1174
  150MOL0     H19771   7.868  10.150  -0.835  2.4656 -1.5704 -1.6586
  150MOL0     H19772   8.048  10.359  -0.701 -0.6508  1.2856  0.0357
  150MOL0     H19773   7.943  10.380  -0.845  4.0530  1.0391 -0.2896
  150MOL0     H19774   7.878  10.315  -0.559  1.5527  0.6563  0.1031
  150MOL0     H19775   7.751  10.322  -0.671  0.0582 -0.0415  0.9110
  150MOL0     H19776   7.847  10.571  -0.712 -0.0082 -1.8046 -2.0372
  150MOL0     H19777   7.924  10.544  -0.556 -0.7565  0.4908  0.5739
  150MOL0     H19778   7.632  10.524  -0.622  1.0136 -1.2877 -0.1029
  150MOL0     H19779   7.685  10.483  -0.462 -1.3186 -0.0619 -0.1617
  150MOL0     H19780   7.757  10.757  -0.588 -1.9155  2.0395 -0.4561
  150MOL0     H19781   7.748  10.719  -0.412  1.4498 -0.3848 -1.0439
  150MOL0     H19782   8.110   9.721  -0.917  0.3812 -1.2551 -0.2422
  150MOL0     H19783   8.247   9.537  -0.815 -0.5789 -1.1973 -1.4165
  150MOL0     H19784   8.557   9.138  -0.810 -1.3804 -1.1855  0.6369
  150MOL0     H19785   8.733   9.034  -0.690  0.2227 -0.7209 -1.5088
  150MOL0     H19786  10.597   9.214   0.396 -0.9340 -1.6578  0.0105
  150MOL0     H19787  10.809   9.325   0.468 -0.4168  0.4091  0.3282
  150MOL0     H19788  11.289   9.168   0.492 -3.3279 -0.1871 -1.7882
  150MOL0     H19789  11.503   9.270   0.497 -0.4107 -0.1842 -0.9111
  150MOL0     H19790  11.601   9.672   0.713  0.3193  1.3283 -0.2993
  150MOL0     H19791  11.537   9.719   0.554 -0.5082 -0.6612 -0.3914
  150MOL0     H19792  11.821   9.635   0.624 -0.1998  0.8633  0.7119
  150MOL0     H19793  11.765   9.671   0.459 -1.4671  1.8131 -0.1098
  150MOL0     H19794  11.758   9.902   0.662  3.2068  4.1399 -1.7016
  150MOL0     H19795  11.736   9.897   0.492  2.3741  1.0903 -0.7396
  150MOL0     H19796  11.965   9.801   0.656 -0.6548  0.6617  1.5585
  150MOL0     H19797  11.971   9.806   0.480 -2.7613  0.8648 -1.4192
  150MOL0     H19798  12.045  10.211   0.572 -0.2687  0.8609  0.1954
  150MOL0     H19799  11.354   9.638   0.649 -1.0740 -0.5012 -0.8074
  150MOL0     H19800  11.136   9.540   0.656  2.1400  2.0152 -0.9904
  151MOL0     O19801   7.538   5.781   9.742 -0.3627 -0.3439  0.2367
  151MOL0     C19802   7.626   5.790   9.652  0.5471  0.3770 -0.6637
  151MOL0     O19803   7.599   5.790   9.518  0.3997  0.8871 -1.0772
  151MOL0     C19804   7.467   5.816   9.479  0.5764 -0.1229 -0.2293
  151MOL0     C19805   7.390   5.721   9.404 -0.4575 -0.8699 -0.1381
  151MOL0     C19806   7.267   5.757   9.362 -0.0073 -0.4156  0.1964
  151MOL0     C19807   7.200   5.874   9.400 -0.9205  0.9059  0.9545
  151MOL0     O19808   7.076   5.909   9.372 -0.1717 -0.0226 -0.1838
  151MOL0     C19809   6.988   5.803   9.327 -0.6888  0.0391  0.8207
  151MOL0     C19810   6.845   5.861   9.332  0.7481  0.5758 -0.5945
  151MOL0     C19811   6.735   5.772   9.289 -0.2873  1.1938 -0.7599
  151MOL0     C19812   6.704   5.668   9.397  0.3719  0.2304  0.2168
  151MOL0     C19813   6.568   5.608   9.393  0.2313 -0.3292 -0.2617
  151MOL0     C19814   6.553   5.522   9.518  0.2576 -0.0343  0.1479
  151MOL0     C19815   6.439   5.421   9.509 -0.7075 -0.4024  0.1371
  151MOL0     C19816   6.303   5.483   9.527 -0.5842  0.3077 -0.8944
  151MOL0     N19817   6.202   5.380   9.488 -0.3040  0.1911 -1.0537
  151MOL0     C19818   6.135   5.370   9.372 -0.3277  0.8085 -0.1865
  151MOL0     C19819   6.058   5.263   9.383  0.5034 -0.9906 -0.0926
  151MOL0     C19820   5.973   5.190   9.288  0.1932 -0.8340 -0.2660
  151MOL0     C19821   5.891   5.290   9.201 -0.4975  1.1131  1.1346
  151MOL0     C19822   5.773   5.370   9.273 -0.3244  0.2204  0.8600
  151MOL0     C19823   5.636   5.316   9.279  0.4112  0.4366  0.1180
  151MOL0     O19824   5.588   5.234   9.165 -0.3140  0.1684 -0.4627
  151MOL0     C19825   5.456   5.240   9.134  0.0902 -0.8759  0.1603
  151MOL0     C19826   5.358   5.248   9.229  0.2227  0.4680  0.5781
  151MOL0     C19827   5.223   5.243   9.199  0.5292  0.0646 -0.2665
  151MOL0     C19828   5.186   5.231   9.068 -0.2487 -1.4695 -0.5695
  151MOL0     C19829   5.042   5.236   9.022 -0.3102 -0.7265 -0.5218
  151MOL0     O19830   4.945   5.269   9.118  0.2061  0.0919 -0.0850
  151MOL0     C19831   4.813   5.275   9.100 -0.5876 -0.1297  0.4444
  151MOL0     C19832   4.740   5.238   8.983  0.4884  0.2774  0.7103
  151MOL0     C19833   4.607   5.191   8.986 -0.5706  0.3715 -0.7973
  151MOL0     C19834   4.528   5.203   9.109 -0.9553  0.1233  0.6027
  151MOL0     O19835   4.398   5.186   9.122  0.3207 -0.2713  0.4645
  151MOL0     C19836   4.312   5.146   9.010  0.4997 -0.2646 -0.0894
  151MOL0     C19837   4.163   5.159   9.050  0.2420 -0.0360 -0.1190
  151MOL0     C19838   4.088   5.055   8.967 -0.3402  0.2254  0.0464
  151MOL0     C19839   3.931   5.050   8.984  0.2549  0.2042  0.9350
  151MOL0     C19840   3.892   4.986   9.115  0.0676 -0.4342  0.1158
  151MOL0     C19841   3.742   5.024   9.145  0.2735  0.0194  0.0605
  151MOL0     C19842   3.719   5.167   9.163 -0.2680  0.9393 -0.1995
  151MOL0     C19843   3.605   5.193   9.260  0.4725 -0.4161 -0.2741
  151MOL0    Cl19844   3.622   5.120   9.416 -0.2454  0.0905  0.0546
  151MOL0     C19845   4.592   5.251   9.216 -0.5817  0.8324 -0.1737
  151MOL0     C19846   4.730   5.280   9.216 -0.0223 -0.4915 -0.0837
  151MOL0     O19847   5.024   5.233   8.901  0.2934 -0.0207  0.2992
  151MOL0     C19848   5.286   5.225   8.965  0.1362 -1.0338  0.5297
  151MOL0     C19849   5.422   5.215   9.002  1.1364 -0.3472  0.2024
  151MOL0     N19850   6.081   5.203   9.504  0.0729 -0.7333 -0.3466
  151MOL0     N19851   6.161   5.276   9.573 -0.7924  0.1359  0.3711
  151MOL0     C19852   7.279   5.970   9.458  0.6501 -0.4590 -0.6520
  151MOL0     C19853   7.410   5.938   9.501 -0.7812  0.5509  0.3254
  151MOL0     C19854   7.763   5.785   9.705 -0.0163 -0.0026  0.1317
  151MOL0     C19855   7.871   5.745   9.627  0.5042 -0.6788 -0.3930
  151MOL0     C19856   7.999   5.735   9.675 -0.3363 -0.9169  0.2646
  151MOL0     C19857   8.018   5.775   9.811  0.6812  1.2047  0.7163
  151MOL0     O19858   8.139   5.737   9.862 -0.2093  0.0781  0.1644
  151MOL0     C19859   8.175   5.777   9.996  0.3190  0.8329  0.3240
  151MOL0     C19860   8.319   5.725  10.025 -0.1016 -0.5865  0.6905
  151MOL0     C19861   8.343   5.751  10.172 -0.3159  0.2043  0.3310
  151MOL0     C19862   8.496   5.755  10.196 -0.1138  0.5942  0.0900
  151MOL0     C19863   8.551   5.618  10.181 -0.1037 -0.0453 -0.1654
  151MOL0     C19864   8.604   5.512  10.185  0.1805  0.1286 -0.4457
  151MOL0     C19865   7.909   5.832   9.889 -0.3403  0.0485  0.0043
  151MOL0     C19866   7.786   5.829   9.834  0.3359 -0.1677  0.2341
  151MOL0     H19867   7.436   5.626   9.379  1.0500 -0.6591  1.5876
  151MOL0     H19868   7.224   5.686   9.292 -0.5566 -1.0055  1.1059
  151MOL0     H19869   6.993   5.722   9.399 -0.2139 -0.1459  0.5859
  151MOL0     H19870   7.024   5.775   9.227 -0.0893 -1.4763  1.4329
  151MOL0     H19871   6.854   5.946   9.264  1.5715 -0.7626 -2.2115
  151MOL0     H19872   6.819   5.898   9.432 -0.9707  1.6610 -1.3811
  151MOL0     H19873   6.750   5.726   9.191 -1.4041  1.2170 -0.9621
  151MOL0     H19874   6.645   5.831   9.271 -3.4117 -2.9993 -0.4409
  151MOL0     H19875   6.784   5.594   9.403 -0.9635 -1.6021 -2.2389
  151MOL0     H19876   6.705   5.723   9.491  1.6860  3.2188 -1.3766
  151MOL0     H19877   6.560   5.550   9.300  1.1171 -0.5964 -0.1715
  151MOL0     H19878   6.491   5.686   9.388 -0.6494 -1.1426  0.4083
  151MOL0     H19879   6.538   5.574   9.613  2.0317 -1.6643  1.3851
  151MOL0     H19880   6.648   5.470   9.535  1.0211  1.5177  0.8238
  151MOL0     H19881   6.443   5.375   9.409  0.4054  0.4319 -0.2172
  151MOL0     H19882   6.446   5.341   9.584 -2.0601 -0.7254 -0.0584
  151MOL0     H19883   6.297   5.567   9.457 -1.7273 -0.7249 -2.0956
  151MOL0     H19884   6.282   5.522   9.626 -2.5264  2.4472 -2.0534
  151MOL0     H19885   6.144   5.431   9.283  1.5991 -0.4566 -0.9309
  151MOL0     H19886   5.898   5.131   9.340 -2.1894  3.0233  1.1219
  151MOL0     H19887   6.043   5.141   9.220 -0.1773  2.3311 -3.2186
  151MOL0     H19888   5.848   5.220   9.129 -0.9720  0.0001  2.4446
  151MOL0     H19889   5.953   5.362   9.148 -1.2802 -0.0424 -1.4903
  151MOL0     H19890   5.807   5.404   9.371 -1.7188  0.4901  1.2602
  151MOL0     H19891   5.749   5.457   9.211  0.1946  2.5616  3.7466
  151MOL0     H19892   5.570   5.399   9.306 -0.1479 -0.0738  0.3533
  151MOL0     H19893   5.631   5.249   9.365  1.4563  4.4589  3.6717
  151MOL0     H19894   5.376   5.249   9.336 -0.8842  1.3665  0.7806
  151MOL0     H19895   5.148   5.254   9.277 -2.2605  1.9997 -2.9555
  151MOL0     H19896   4.805   5.215   8.899 -0.2326 -1.1127  0.5035
  151MOL0     H19897   4.552   5.154   8.899  1.4832 -0.5210 -1.7759
  151MOL0     H19898   4.331   5.042   8.983  3.7499  0.3079 -0.4797
  151MOL0     H19899   4.335   5.209   8.923 -1.9019  2.6913  1.2178
  151MOL0     H19900   4.124   5.259   9.028 -2.8947 -1.5037 -1.8842
  151MOL0     H19901   4.158   5.136   9.157  0.6195  0.2202 -0.0451
  151MOL0     H19902   4.122   4.953   8.985 -2.2082 -0.2464  1.2256
  151MOL0     H19903   4.115   5.057   8.860  3.1915 -1.1548  0.7784
  151MOL0     H19904   3.918   5.159   8.976 -0.0730  0.1045 -0.0233
  151MOL0     H19905   3.883   5.004   8.897 -0.1262  0.1960  1.1528
  151MOL0     H19906   3.954   5.027   9.195 -0.7511  1.3793 -0.1250
  151MOL0     H19907   3.912   4.878   9.111  2.0059 -0.1233  0.5517
  151MOL0     H19908   3.683   4.959   9.209 -1.7591 -0.6540 -2.2989
  151MOL0     H19909   3.699   5.005   9.046  2.0262 -0.1778 -0.6935
  151MOL0     H19910   3.811   5.220   9.191  0.4904  0.6551 -2.0100
  151MOL0     H19911   3.700   5.213   9.066 -1.6166  1.7486  0.4213
  151MOL0     H19912   3.522   5.140   9.211  1.1899 -4.3119  2.3429
  151MOL0     H19913   3.583   5.300   9.272  0.2422 -0.5046  0.0896
  151MOL0     H19914   4.535   5.250   9.308  0.8424  0.7508  0.7366
  151MOL0     H19915   4.776   5.319   9.306  2.4836 -1.7239 -0.7239
  151MOL0     H19916   5.262   5.207   8.860 -0.7502  0.0489  0.5233
  151MOL0     H19917   5.495   5.202   8.922  0.6148  1.0655 -0.5327
  151MOL0     H19918   7.238   6.068   9.482  1.3489 -0.1633 -0.6355
  151MOL0     H19919   7.480   6.001   9.555 -2.3885  0.6753  2.3515
  151MOL0     H19920   7.847   5.698   9.532  1.0523 -2.2983  0.2378
  151MOL0     H19921   8.081   5.699   9.613 -1.2926 -1.3915 -0.7589
  151MOL0     H19922   8.107   5.731  10.068 -1.8339  0.9266 -1.5463
  151MOL0     H19923   8.174   5.885  10.009 -0.9210  1.3202 -2.8579
  151MOL0     H19924   8.340   5.620  10.002 -0.3846 -0.8275  1.5202
  151MOL0     H19925   8.383   5.789   9.963 -1.7489 -1.8277 -2.5513
  151MOL0     H19926   8.310   5.676  10.243 -0.0538 -0.4860 -0.2665
  151MOL0     H19927   8.298   5.844  10.208 -0.8030 -0.7102  2.1939
  151MOL0     H19928   8.559   5.818  10.132 -2.4092 -1.9983 -5.4043
  151MOL0     H19929   8.511   5.785  10.300 -1.4546  0.5742  0.2995
  151MOL0     H19930   8.637   5.411  10.194  2.0696  0.7439 -0.1412
  151MOL0     H19931   7.930   5.860   9.992 -0.0973 -2.5676  0.7321
  151MOL0     H19932   7.701   5.864   9.891 -0.2146 -2.3150  0.8455
  152MOL0     O19933   2.997   1.283   2.554  0.2352 -0.2232  0.4171
  152MOL0     C19934   2.945   1.339   2.460  0.0339  0.1756  0.7135
  152MOL0     O19935   2.984   1.328   2.329  0.3224  0.0159 -0.0349
  152MOL0     C19936   3.083   1.238   2.290  0.5986  0.0900  0.2005
  152MOL0     C19937   3.076   1.109   2.325  0.1387  0.0013 -0.0150
  152MOL0     C19938   3.163   1.015   2.273  0.4304 -0.4679 -0.2014
  152MOL0     C19939   3.269   1.056   2.185  0.4948  1.2374  0.0594
  152MOL0     O19940   3.352   0.967   2.129  0.2310  0.5486  0.5116
  152MOL0     C19941   3.483   1.008   2.082 -0.4566 -0.3738 -0.1582
  152MOL0     C19942   3.572   0.885   2.075  0.3896  0.2108 -0.2205
  152MOL0     C19943   3.670   0.896   1.966 -0.0615  0.0896  0.9125
  152MOL0     C19944   3.759   0.762   1.956 -0.0107 -0.6707  1.0517
  152MOL0     C19945   3.845   0.762   1.832 -0.7253 -0.3251 -1.0779
  152MOL0     C19946   3.895   0.617   1.793  0.7249 -0.3607  0.1432
  152MOL0     C19947   4.004   0.621   1.679  0.7985 -0.4649  0.4521
  152MOL0     C19948   4.073   0.487   1.664  0.1195  0.2150  0.8046
  152MOL0     N19949   3.975   0.390   1.621 -0.2089  0.8773  0.1202
  152MOL0     C19950   3.906   0.307   1.708 -0.2527 -0.3002  0.0173
  152MOL0     C19951   3.831   0.232   1.630  0.1119  0.2712 -0.4320
  152MOL0     C19952   3.747   0.110   1.664 -0.2828 -0.7725 -0.3613
  152MOL0     C19953   3.628   0.145   1.762 -0.6093  0.5378  0.5814
  152MOL0     C19954   3.551   0.272   1.715  0.1390  0.0651 -0.3443
  152MOL0     C19955   3.420   0.286   1.793 -0.6260  0.0616  0.0647
  152MOL0     O19956   3.318   0.195   1.749 -0.1158  0.0016  0.1789
  152MOL0     C19957   3.191   0.210   1.802  0.8272 -0.4516  0.0066
  152MOL0     C19958   3.082   0.146   1.747 -0.8302  0.2752 -0.8342
  152MOL0     C19959   2.954   0.168   1.783 -0.1985  0.9203 -0.1448
  152MOL0     C19960   2.925   0.257   1.890 -0.4389 -0.5953 -0.0453
  152MOL0     C19961   2.786   0.306   1.915  0.1976 -0.9001 -0.8891
  152MOL0     O19962   2.698   0.282   1.820  0.4774 -0.5625  0.5276
  152MOL0     C19963   2.565   0.278   1.848 -0.2061 -0.4082  0.4481
  152MOL0     C19964   2.484   0.357   1.767  0.6740 -0.0751 -0.4133
  152MOL0     C19965   2.341   0.363   1.792 -0.0900 -0.1144  0.6952
  152MOL0     C19966   2.283   0.305   1.909  0.2151 -0.3459  0.0257
  152MOL0     O19967   2.145   0.309   1.933  0.6322  0.4562  0.3189
  152MOL0     C19968   2.059   0.355   1.833 -0.0059 -0.2199  0.1332
  152MOL0     C19969   1.923   0.339   1.894 -0.2676 -0.3858  0.4250
  152MOL0     C19970   1.804   0.392   1.812 -0.8606 -0.1827 -0.0970
  152MOL0     C19971   1.679   0.399   1.910 -0.5269 -0.1763  0.3792
  152MOL0     C19972   1.620   0.271   1.982  0.3620  0.4360  0.1220
  152MOL0     C19973   1.481   0.295   2.057  0.3672  0.2098 -0.5209
  152MOL0     C19974   1.467   0.177   2.161  0.5760 -0.8666  1.4821
  152MOL0     C19975   1.367   0.206   2.260 -0.1616 -0.5711 -0.9805
  152MOL0    Cl19976   1.318   0.047   2.329 -0.1132 -0.2258  0.1727
  152MOL0     C19977   2.375   0.240   1.993 -0.4395 -0.2327  0.2499
  152MOL0     C19978   2.507   0.217   1.960 -0.3441  0.1669  0.7885
  152MOL0     O19979   2.759   0.364   2.020 -0.1636 -0.0744 -0.0374
  152MOL0     C19980   3.037   0.312   1.959 -0.1731  0.7230  0.0350
  152MOL0     C19981   3.161   0.294   1.909  0.2655  0.1216  0.3792
  152MOL0     N19982   3.837   0.281   1.498  0.4815 -0.0528  0.5061
  152MOL0     N19983   3.929   0.368   1.498 -0.1080 -0.0655  0.5891
  152MOL0     C19984   3.270   1.189   2.155 -0.6974 -0.8183  0.4980
  152MOL0     C19985   3.180   1.274   2.208 -0.5823 -0.6173 -0.3679
  152MOL0     C19986   2.823   1.422   2.485 -0.5540 -0.6002  0.5020
  152MOL0     C19987   2.763   1.493   2.377  0.6158 -0.1584  0.0484
  152MOL0     C19988   2.645   1.564   2.396  0.0569 -0.4009  0.4207
  152MOL0     C19989   2.586   1.573   2.524 -0.2761  0.8446  0.1794
  152MOL0     O19990   2.469   1.633   2.558 -0.7210 -0.2593 -0.4772
  152MOL0     C19991   2.398   1.702   2.453  0.6537 -0.3229 -0.1396
  152MOL0     C19992   2.267   1.747   2.516 -0.3734  0.1627 -0.0519
  152MOL0     C19993   2.167   1.808   2.419  0.2107 -0.4520  0.6016
  152MOL0     C19994   2.024   1.828   2.480  0.7717 -0.2908 -0.2698
  152MOL0     C19995   2.017   1.942   2.576 -0.0014  0.0855  0.6233
  152MOL0     C19996   2.001   2.043   2.641 -0.0943 -0.4094 -0.6213
  152MOL0     C19997   2.654   1.514   2.637  0.4237 -0.4680  0.4806
  152MOL0     C19998   2.772   1.442   2.618  0.1315 -0.4052 -0.1542
  152MOL0     H19999   2.987   1.085   2.382 -0.0569 -1.4586 -0.8901
  152MOL0     H20000   3.158   0.911   2.302 -0.9061 -0.2846  0.3014
  152MOL0     H20001   3.530   1.085   2.145  1.7491 -1.5786 -0.2538
  152MOL0     H20002   3.469   1.037   1.978  0.9203 -1.0058 -0.5305
  152MOL0     H20003   3.501   0.804   2.059 -0.8890  1.4541 -1.1821
  152MOL0     H20004   3.632   0.868   2.165  1.3939 -2.5080 -1.2983
  152MOL0     H20005   3.740   0.978   1.984  0.5132 -0.8303  3.1947
  152MOL0     H20006   3.609   0.907   1.876  0.0218 -1.0012  0.7046
  152MOL0     H20007   3.811   0.762   2.052 -0.6280  1.2795  1.4389
  152MOL0     H20008   3.695   0.674   1.942  0.5929 -1.1839  1.4789
  152MOL0     H20009   3.935   0.822   1.847  0.3359 -2.2390  0.7151
  152MOL0     H20010   3.797   0.812   1.747  1.1393  3.9163  0.1451
  152MOL0     H20011   3.808   0.557   1.761 -0.1254  0.5440  0.6950
  152MOL0     H20012   3.946   0.577   1.881  1.5742  0.1966 -0.0902
  152MOL0     H20013   3.957   0.656   1.586 -0.5275  3.2044  2.3363
  152MOL0     H20014   4.073   0.700   1.707 -1.7760  2.6954 -1.4131
  152MOL0     H20015   4.125   0.462   1.757  1.5247 -1.1909 -0.2920
  152MOL0     H20016   4.145   0.497   1.582 -1.1581  0.9510 -0.2848
  152MOL0     H20017   3.914   0.305   1.816 -1.4086  1.9444  0.2021
  152MOL0     H20018   3.817   0.033   1.695  0.3494 -0.1479 -0.2091
  152MOL0     H20019   3.700   0.086   1.568 -0.7751  1.8617 -0.8526
  152MOL0     H20020   3.662   0.174   1.862 -0.3145  0.8862  0.3800
  152MOL0     H20021   3.571   0.052   1.774 -0.0232 -0.1820 -1.7419
  152MOL0     H20022   3.615   0.360   1.724 -1.4620  1.7692 -3.5761
  152MOL0     H20023   3.514   0.267   1.612  1.0732  0.4844 -0.7097
  152MOL0     H20024   3.382   0.388   1.779  1.8318  0.8797 -1.4790
  152MOL0     H20025   3.438   0.261   1.898 -2.1762 -1.1944  0.0579
  152MOL0     H20026   3.104   0.069   1.674 -1.1437  1.3411 -2.0987
  152MOL0     H20027   2.881   0.110   1.728  0.2293  0.0466  0.2001
  152MOL0     H20028   2.525   0.415   1.685  3.8255  1.5112  2.0212
  152MOL0     H20029   2.273   0.418   1.728  0.0162 -2.2751 -1.4246
  152MOL0     H20030   2.052   0.284   1.749  0.4574 -0.6119  0.4230
  152MOL0     H20031   2.059   0.460   1.803 -2.6488 -0.2958 -0.3789
  152MOL0     H20032   1.935   0.385   1.993  2.6127 -0.9282  0.4391
  152MOL0     H20033   1.903   0.233   1.910  1.4505 -0.7468  0.3815
  152MOL0     H20034   1.775   0.327   1.729 -1.2539  0.6717 -0.6405
  152MOL0     H20035   1.822   0.495   1.781  1.5027 -0.7668 -0.8004
  152MOL0     H20036   1.707   0.474   1.985  3.3389  0.5338 -1.5058
  152MOL0     H20037   1.607   0.456   1.852 -1.1981 -0.9556  0.4379
  152MOL0     H20038   1.690   0.243   2.062 -0.1118 -0.3615  0.2589
  152MOL0     H20039   1.607   0.188   1.911 -1.5162  2.1685 -1.7056
  152MOL0     H20040   1.398   0.297   1.987 -0.6920 -0.3265  0.6751
  152MOL0     H20041   1.482   0.391   2.110  0.6546 -0.7323  1.2633
  152MOL0     H20042   1.430   0.090   2.105 -1.1774  0.0268  1.2013
  152MOL0     H20043   1.564   0.158   2.209  0.7963 -1.1564  0.9419
  152MOL0     H20044   1.285   0.267   2.219 -0.5432  0.0507  0.6148
  152MOL0     H20045   1.413   0.271   2.336 -0.3318 -2.9229  1.2839
  152MOL0     H20046   2.345   0.190   2.084  3.6598 -0.3959  1.7281
  152MOL0     H20047   2.554   0.148   2.029 -0.2562 -0.0487  0.5202
  152MOL0     H20048   3.025   0.368   2.051 -0.9461 -1.0833  1.0957
  152MOL0     H20049   3.241   0.333   1.971 -0.4385 -0.4066  1.6616
  152MOL0     H20050   3.342   1.222   2.082  0.3163 -2.8234  0.5009
  152MOL0     H20051   3.183   1.374   2.167 -3.0452 -0.1077  0.5436
  152MOL0     H20052   2.780   1.495   2.270 -1.5752 -0.8530 -0.3681
  152MOL0     H20053   2.606   1.623   2.314  2.2439 -0.8637 -1.0334
  152MOL0     H20054   2.382   1.639   2.365 -2.9580 -0.1592  0.2898
  152MOL0     H20055   2.460   1.790   2.432  0.7541  0.1376  1.8341
  152MOL0     H20056   2.223   1.659   2.564 -2.8575  2.1991  1.6828
  152MOL0     H20057   2.299   1.817   2.594 -2.4795 -1.0284  2.0210
  152MOL0     H20058   2.156   1.739   2.335 -1.3946  0.1311  0.2943
  152MOL0     H20059   2.200   1.899   2.367  0.5433 -0.7125  0.3543
  152MOL0     H20060   1.966   1.863   2.394  0.0372 -1.5491 -0.2948
  152MOL0     H20061   1.970   1.738   2.509  0.0425  0.1281 -0.2974
  152MOL0     H20062   1.987   2.128   2.704 -0.3399  1.0524 -2.5619
  152MOL0     H20063   2.608   1.519   2.735  1.0104 -2.8825  0.9565
  152MOL0     H20064   2.828   1.393   2.697 -0.2840  1.4496  1.3561
  153MOL0     O20065   1.718   8.655  10.093 -0.4266 -0.1999  0.3904
  153MOL0     C20066   1.709   8.782  10.098  0.3910  0.5126  0.5065
  153MOL0     O20067   1.604   8.857  10.058  0.3095  0.3160  0.7095
  153MOL0     C20068   1.497   8.815   9.980  0.5306  0.2645 -0.0701
  153MOL0     C20069   1.485   8.688   9.914 -0.1414  0.4952 -0.6759
  153MOL0     C20070   1.362   8.647   9.853  0.1050 -0.2186  0.3203
  153MOL0     C20071   1.257   8.737   9.841 -0.8009  0.4088 -0.2214
  153MOL0     O20072   1.142   8.705   9.777  1.4735 -0.3121 -0.0278
  153MOL0     C20073   1.021   8.757   9.834  1.0740 -0.8033  0.0286
  153MOL0     C20074   0.900   8.705   9.754 -0.2847 -0.6056  0.9209
  153MOL0     C20075   0.904   8.559   9.763  0.6207  0.0100 -0.0118
  153MOL0     C20076   0.787   8.497   9.673 -0.2985  0.1263  0.1163
  153MOL0     C20077   0.812   8.518   9.529  0.1436 -0.3449  0.5197
  153MOL0     C20078   0.768   8.403   9.429 -0.2454  0.0791  0.4804
  153MOL0     C20079   0.615   8.368   9.406 -0.1238 -0.0209  0.6030
  153MOL0     C20080   0.526   8.488   9.365 -0.3271  0.6050  0.7078
  153MOL0     N20081   0.389   8.460   9.393  0.5650  0.0324  0.0863
  153MOL0     C20082   0.312   8.530   9.476  0.7749  0.3211 -0.1445
  153MOL0     C20083   0.193   8.469   9.480 -0.5982  0.1689  0.3196
  153MOL0     C20084   0.066   8.518   9.540 -0.0462  0.3828 -0.1736
  153MOL0     C20085  -0.044   8.563   9.437 -0.2010  0.7526 -0.5576
  153MOL0     C20086  -0.046   8.726   9.439  1.1795  0.1502 -0.8365
  153MOL0     C20087  -0.159   8.771   9.343 -0.0923  0.3053  0.6839
  153MOL0     O20088  -0.281   8.722   9.400 -0.4119 -0.0723 -0.1183
  153MOL0     C20089  -0.384   8.704   9.305  0.0174 -0.5351 -0.2585
  153MOL0     C20090  -0.493   8.633   9.350  0.7355 -0.5469 -0.6525
  153MOL0     C20091  -0.609   8.627   9.270  0.9173  0.2372 -0.1799
  153MOL0     C20092  -0.614   8.697   9.150  0.1621  0.2723  0.3888
  153MOL0     C20093  -0.744   8.715   9.070  0.1402 -0.3693 -0.1269
  153MOL0     O20094  -0.839   8.629   9.101  0.3165  0.0696 -0.3583
  153MOL0     C20095  -0.959   8.658   9.041  0.6436  0.2941 -0.4637
  153MOL0     C20096  -0.989   8.591   8.923 -0.7690 -0.5485 -0.3470
  153MOL0     C20097  -1.115   8.611   8.867  0.5672  0.0446  0.1915
  153MOL0     C20098  -1.212   8.693   8.933  0.0147  0.2997  0.8283
  153MOL0     O20099  -1.339   8.702   8.889  0.4892 -0.3181 -0.3213
  153MOL0     C20100  -1.367   8.661   8.747 -0.3580  0.3335 -0.1298
  153MOL0     C20101  -1.502   8.718   8.696 -0.5442 -1.0238 -0.0944
  153MOL0     C20102  -1.617   8.682   8.794 -0.4500 -0.3454  0.6421
  153MOL0     C20103  -1.750   8.717   8.725 -0.3947  0.1072 -0.4407
  153MOL0     C20104  -1.868   8.695   8.822  0.0608 -0.5532 -0.5247
  153MOL0     C20105  -2.002   8.728   8.759  0.3123 -0.2598 -0.4821
  153MOL0     C20106  -2.115   8.705   8.861 -0.5255  0.4013  0.4425
  153MOL0     C20107  -2.245   8.775   8.813 -0.4894 -0.5850 -0.9183
  153MOL0    Cl20108  -2.362   8.780   8.944  0.1437 -0.3261  0.1088
  153MOL0     C20109  -1.177   8.759   9.051 -0.1626  0.1921  0.6759
  153MOL0     C20110  -1.051   8.753   9.106 -0.4731  0.2289  0.0629
  153MOL0     O20111  -0.759   8.821   8.998  0.6665  0.3928  0.0212
  153MOL0     C20112  -0.499   8.759   9.103  0.2653 -0.2927 -0.8011
  153MOL0     C20113  -0.387   8.768   9.184 -0.2618  0.0543 -0.3609
  153MOL0     N20114   0.189   8.369   9.376  0.0722  0.5370  0.0739
  153MOL0     N20115   0.314   8.365   9.328  0.5723 -0.2120 -0.5312
  153MOL0     C20116   1.274   8.860   9.903  0.0405 -0.8930 -0.0801
  153MOL0     C20117   1.392   8.897   9.974 -0.2492 -0.0745  0.6188
  153MOL0     C20118   1.810   8.850  10.181 -0.3283  0.2439 -0.2152
  153MOL0     C20119   1.942   8.793  10.190  0.3985  0.2595  0.0900
  153MOL0     C20120   2.041   8.850  10.266 -0.2875  0.7161 -0.1980
  153MOL0     C20121   2.021   8.978  10.326 -0.6331  0.1915  0.7722
  153MOL0     O20122   2.125   9.032  10.398  0.5034 -0.4028  0.2645
  153MOL0     C20123   2.109   9.155  10.458  0.5067  0.2441 -0.1036
  153MOL0     C20124   2.246   9.183  10.512  0.1584  0.3169  0.6283
  153MOL0     C20125   2.337   9.193  10.385 -0.3504  0.3082  0.5154
  153MOL0     C20126   2.486   9.240  10.416  0.4906  0.4673 -0.0640
  153MOL0     C20127   2.562   9.289  10.301  0.8811  0.0713  0.1245
  153MOL0     C20128   2.620   9.324  10.195  1.0092  0.1856 -0.0983
  153MOL0     C20129   1.888   9.039  10.315  0.2933 -0.0277  1.0370
  153MOL0     C20130   1.787   8.968  10.248 -0.7068  0.1371 -0.0013
  153MOL0     H20131   1.568   8.618   9.918  0.9218  1.7473 -0.4782
  153MOL0     H20132   1.359   8.554   9.798 -2.8731  1.5377 -2.8587
  153MOL0     H20133   1.025   8.866   9.843  1.5378 -0.9598  2.4193
  153MOL0     H20134   1.011   8.723   9.937 -1.4166  1.2058  0.5542
  153MOL0     H20135   0.909   8.747   9.653  0.4942 -1.9380  0.4158
  153MOL0     H20136   0.815   8.756   9.800  0.9321  4.3046 -1.5332
  153MOL0     H20137   0.876   8.537   9.866 -4.2479  0.7548 -0.9162
  153MOL0     H20138   0.999   8.513   9.737 -0.0763 -1.0031 -0.8352
  153MOL0     H20139   0.766   8.394   9.700 -0.1789 -0.2307 -1.0989
  153MOL0     H20140   0.695   8.551   9.695 -0.3526 -0.4914  1.4967
  153MOL0     H20141   0.920   8.529   9.515  0.1074 -1.1857 -0.6186
  153MOL0     H20142   0.757   8.606   9.495 -2.1450 -1.5454  0.8426
  153MOL0     H20143   0.822   8.314   9.462  1.0628 -0.1281 -1.9201
  153MOL0     H20144   0.823   8.419   9.335 -1.4776 -3.3416 -0.9737
  153MOL0     H20145   0.607   8.288   9.332  1.0815  1.3170 -1.0569
  153MOL0     H20146   0.576   8.339   9.504 -1.0834  1.2607  0.6350
  153MOL0     H20147   0.550   8.509   9.261  1.1713 -2.6155  0.2891
  153MOL0     H20148   0.548   8.579   9.422  1.8900  1.3774 -1.2202
  153MOL0     H20149   0.325   8.620   9.535 -0.7860 -0.9073  2.2903
  153MOL0     H20150   0.079   8.598   9.615  0.2747  0.6393 -0.5017
  153MOL0     H20151   0.019   8.439   9.599  0.0580 -2.3932 -3.5236
  153MOL0     H20152  -0.138   8.519   9.474  0.0523 -1.4352 -2.2701
  153MOL0     H20153  -0.024   8.523   9.337 -0.8598 -2.9327  0.6214
  153MOL0     H20154  -0.062   8.763   9.541  1.5989 -0.4722 -0.5313
  153MOL0     H20155   0.046   8.767   9.396  1.4625  0.5026  0.0791
  153MOL0     H20156  -0.134   8.716   9.252 -1.5364  0.5710  0.1045
  153MOL0     H20157  -0.170   8.877   9.319  0.6635 -0.1581 -2.0747
  153MOL0     H20158  -0.487   8.581   9.445 -3.6879 -1.1771 -0.5127
  153MOL0     H20159  -0.701   8.596   9.319  0.5938  1.5592  0.0888
  153MOL0     H20160  -0.922   8.521   8.873 -1.5228 -1.0385 -0.6840
  153MOL0     H20161  -1.143   8.552   8.780 -1.5490 -0.1721  0.9592
  153MOL0     H20162  -1.360   8.553   8.742 -3.4676  0.0905 -2.5032
  153MOL0     H20163  -1.285   8.707   8.691  0.2795 -1.2188 -0.5068
  153MOL0     H20164  -1.524   8.679   8.597  1.9717  0.4188 -1.3077
  153MOL0     H20165  -1.498   8.826   8.681 -4.0572 -0.7738 -0.0428
  153MOL0     H20166  -1.605   8.750   8.879  0.9153  0.7685 -0.3854
  153MOL0     H20167  -1.596   8.579   8.826  2.1165 -0.0695  0.1082
  153MOL0     H20168  -1.747   8.819   8.685 -2.5319 -0.1541 -1.4109
  153MOL0     H20169  -1.773   8.646   8.645  1.8717  0.8450 -1.8520
  153MOL0     H20170  -1.858   8.754   8.914  0.8964  0.7488 -1.4294
  153MOL0     H20171  -1.867   8.587   8.842 -2.1640 -0.4299  0.5487
  153MOL0     H20172  -2.025   8.675   8.666  3.5175 -0.5013 -1.2355
  153MOL0     H20173  -1.995   8.834   8.737  0.4111  0.3756  2.2520
  153MOL0     H20174  -2.124   8.596   8.864  4.0069 -0.5987 -4.7132
  153MOL0     H20175  -2.091   8.756   8.954 -1.2816  1.1749  0.2225
  153MOL0     H20176  -2.292   8.706   8.742  0.9252 -1.7185 -0.8086
  153MOL0     H20177  -2.235   8.878   8.779 -2.5666  0.9830  2.6141
  153MOL0     H20178  -1.249   8.816   9.108 -1.7362  1.5568 -2.3897
  153MOL0     H20179  -1.026   8.815   9.192 -1.6704  1.1539 -0.2293
  153MOL0     H20180  -0.489   8.808   9.007  0.7596 -0.2460 -0.7271
  153MOL0     H20181  -0.304   8.816   9.133 -1.5874  1.3344 -1.3828
  153MOL0     H20182   1.202   8.941   9.895  0.1607 -0.6134  1.3898
  153MOL0     H20183   1.396   8.994  10.022 -4.1309  0.1580  0.8465
  153MOL0     H20184   1.970   8.701  10.140 -0.8921 -0.0218 -0.1552
  153MOL0     H20185   2.131   8.791  10.280 -0.5517  0.6526  1.4076
  153MOL0     H20186   2.042   9.155  10.545  2.7107 -0.7242  1.7230
  153MOL0     H20187   2.082   9.230  10.383  3.8631  0.1824 -1.5504
  153MOL0     H20188   2.235   9.278  10.565 -0.9664 -0.0624  1.0849
  153MOL0     H20189   2.264   9.110  10.591 -1.8801 -0.3408  0.5394
  153MOL0     H20190   2.291   9.251  10.305 -0.8598  1.1786  1.4224
  153MOL0     H20191   2.344   9.091  10.345  0.1010 -0.3030  2.1044
  153MOL0     H20192   2.470   9.316  10.494 -1.0879 -2.6098  2.8721
  153MOL0     H20193   2.531   9.152  10.463 -2.0480 -1.3068 -0.7797
  153MOL0     H20194   2.657   9.369  10.105  1.4182  0.2469  0.0980
  153MOL0     H20195   1.865   9.141  10.342 -1.0765  0.2804 -1.0605
  153MOL0     H20196   1.689   9.012  10.235  0.0993  2.6219  1.6041
  154MOL0     O20197   9.604   3.252   6.261 -0.2287 -0.1471  0.4931
  154MOL0     C20198   9.694   3.294   6.189 -0.6793  0.4060 -0.3223
  154MOL0     O20199   9.683   3.324   6.060 -0.7682 -1.2650  0.1266
  154MOL0     C20200   9.567   3.313   5.988  0.1600  0.3523 -0.1231
  154MOL0     C20201   9.481   3.205   5.993  0.8150  0.1835  0.1575
  154MOL0     C20202   9.357   3.209   5.918  0.3277  0.5975  0.1326
  154MOL0     C20203   9.335   3.312   5.822  0.6818 -0.3466  0.2796
  154MOL0     O20204   9.215   3.313   5.755 -0.1475 -0.8619  0.8809
  154MOL0     C20205   9.232   3.342   5.615  0.0857  0.7453  0.4327
  154MOL0     C20206   9.095   3.309   5.542  0.3322  0.5782  0.5304
  154MOL0     C20207   8.974   3.400   5.575 -0.6642 -0.1489 -1.0564
  154MOL0     C20208   8.844   3.362   5.517  0.7823 -0.9514  0.4418
  154MOL0     C20209   8.736   3.457   5.546  0.2491  0.6704 -0.5276
  154MOL0     C20210   8.607   3.401   5.492  0.2937 -0.4298  0.2271
  154MOL0     C20211   8.489   3.506   5.515  0.2028 -0.0737  0.9464
  154MOL0     C20212   8.362   3.479   5.418  0.8681  0.0370 -0.2587
  154MOL0     N20213   8.310   3.346   5.453 -0.6596  0.0874  0.7535
  154MOL0     C20214   8.265   3.258   5.363  1.1018 -0.1606  0.0759
  154MOL0     C20215   8.192   3.175   5.436 -0.1616 -0.0615  0.4557
  154MOL0     C20216   8.107   3.057   5.379 -0.5632 -0.6208  0.4125
  154MOL0     C20217   7.973   3.114   5.332  0.3394 -0.6944 -0.5474
  154MOL0     C20218   7.909   3.000   5.249 -0.3777  0.5651  0.2492
  154MOL0     C20219   7.765   3.035   5.218  0.5753 -0.2264 -0.8581
  154MOL0     O20220   7.736   3.019   5.080 -0.5100  0.5182 -0.2699
  154MOL0     C20221   7.606   3.043   5.033 -0.5133  0.4299  0.1211
  154MOL0     C20222   7.502   3.060   5.122  0.9251 -0.4791  1.3667
  154MOL0     C20223   7.374   3.087   5.074 -0.5580 -0.3994  0.2773
  154MOL0     C20224   7.353   3.106   4.941  0.2280 -0.2627 -0.2831
  154MOL0     C20225   7.222   3.139   4.886 -0.5449  0.7456  0.3321
  154MOL0     O20226   7.213   3.172   4.753 -0.0356  0.3734 -0.0134
  154MOL0     C20227   7.084   3.194   4.702 -0.0633  0.3822  0.3006
  154MOL0     C20228   7.028   3.322   4.705  0.3395 -0.3036  0.1921
  154MOL0     C20229   6.894   3.333   4.661  0.5109 -0.8081  0.3277
  154MOL0     C20230   6.829   3.229   4.594 -0.1318  0.3223  0.6253
  154MOL0     O20231   6.705   3.255   4.537  0.2534 -0.1174 -0.2875
  154MOL0     C20232   6.620   3.154   4.485 -0.7035  0.1969 -0.7367
  154MOL0     C20233   6.643   3.126   4.335 -0.1757  0.6618 -0.0812
  154MOL0     C20234   6.552   3.020   4.278 -0.1048 -0.5484 -0.2445
  154MOL0     C20235   6.407   3.074   4.252  0.0558  0.1895 -0.6297
  154MOL0     C20236   6.303   2.979   4.203  0.0465  0.1583 -0.0485
  154MOL0     C20237   6.166   3.055   4.180 -0.6521  0.6220 -0.2416
  154MOL0     C20238   6.060   2.954   4.176  0.2247 -0.0788 -0.6759
  154MOL0     C20239   5.935   3.015   4.117  0.2290  0.6511 -0.1941
  154MOL0    Cl20240   5.790   2.909   4.119  0.0394 -0.4441  0.0097
  154MOL0     C20241   6.889   3.104   4.585  0.7507 -0.2996  0.2925
  154MOL0     C20242   7.010   3.087   4.649  0.6529  0.0747  0.3344
  154MOL0     O20243   7.127   3.138   4.964  0.3754 -0.6324 -0.1997
  154MOL0     C20244   7.456   3.084   4.855 -0.0767  0.0820  0.0766
  154MOL0     C20245   7.581   3.054   4.905  0.5846  0.0616  1.3209
  154MOL0     N20246   8.199   3.208   5.571 -0.4656 -0.4964  1.0627
  154MOL0     N20247   8.268   3.316   5.571 -0.2019  0.2982  0.7415
  154MOL0     C20248   9.433   3.410   5.800  0.4298  0.7133 -0.1091
  154MOL0     C20249   9.544   3.419   5.898 -0.1779  0.6623  0.1274
  154MOL0     C20250   9.824   3.307   6.259  0.4463 -0.5708  0.4982
  154MOL0     C20251   9.830   3.322   6.399  0.1837  0.4132 -0.1251
  154MOL0     C20252   9.956   3.339   6.457 -0.6383 -0.2745 -0.0704
  154MOL0     C20253  10.071   3.353   6.379 -0.7164  0.0965 -0.5243
  154MOL0     O20254  10.199   3.367   6.427  0.0078  0.5481 -0.5785
  154MOL0     C20255  10.213   3.378   6.567 -0.0964 -0.2023 -0.3879
  154MOL0     C20256  10.360   3.415   6.601  0.2030  0.8441 -0.7768
  154MOL0     C20257  10.459   3.294   6.628 -0.3740 -0.4107 -0.6015
  154MOL0     C20258  10.430   3.210   6.758  0.6113  0.0362  1.3278
  154MOL0     C20259  10.515   3.092   6.754  0.1611  0.8654 -0.1224
  154MOL0     C20260  10.590   2.998   6.735 -0.3252 -0.4757  0.2997
  154MOL0     C20261  10.057   3.345   6.239 -0.0654  0.5287 -0.0612
  154MOL0     C20262   9.939   3.319   6.181 -0.4129  0.5237 -0.0313
  154MOL0     H20263   9.497   3.122   6.061 -1.1838 -1.2695 -1.0327
  154MOL0     H20264   9.292   3.123   5.926  3.7448 -2.3098 -0.7020
  154MOL0     H20265   9.312   3.274   5.585 -0.3557 -0.5100  1.9283
  154MOL0     H20266   9.257   3.445   5.590 -0.1179  0.9640  1.0971
  154MOL0     H20267   9.073   3.204   5.563 -1.2557  1.2218  2.4491
  154MOL0     H20268   9.110   3.309   5.434 -0.0688 -2.7237  0.3773
  154MOL0     H20269   9.004   3.496   5.531 -0.9034  1.2271  1.5347
  154MOL0     H20270   8.969   3.423   5.682 -1.2610  3.7505 -1.7691
  154MOL0     H20271   8.842   3.348   5.409 -2.1790  0.3155  0.2338
  154MOL0     H20272   8.817   3.271   5.572  2.2289 -0.3709  2.2175
  154MOL0     H20273   8.754   3.548   5.487 -1.5350  0.9221 -0.7351
  154MOL0     H20274   8.731   3.467   5.654 -0.2632  0.0022 -0.4861
  154MOL0     H20275   8.568   3.314   5.545  0.2186  0.7472  2.2184
  154MOL0     H20276   8.608   3.383   5.384  0.8077  1.3350 -0.1032
  154MOL0     H20277   8.457   3.493   5.619 -3.2971 -1.5566 -0.1634
  154MOL0     H20278   8.520   3.610   5.501  1.5569 -0.2709  2.2708
  154MOL0     H20279   8.385   3.493   5.312 -1.7504 -2.0039 -1.2205
  154MOL0     H20280   8.289   3.556   5.442  0.7907  0.2329 -1.0909
  154MOL0     H20281   8.268   3.270   5.255 -0.7794 -0.1515 -0.0078
  154MOL0     H20282   8.101   2.970   5.446  1.0402 -2.3034 -1.4659
  154MOL0     H20283   8.166   3.017   5.295  0.6894 -0.3313  1.1251
  154MOL0     H20284   7.983   3.201   5.267 -2.4038  0.5644  0.5723
  154MOL0     H20285   7.907   3.143   5.414 -1.2410  2.6713 -2.7853
  154MOL0     H20286   7.964   2.998   5.154 -1.8492 -2.7081 -0.6751
  154MOL0     H20287   7.916   2.903   5.300  2.9557 -0.2277 -1.4463
  154MOL0     H20288   7.746   3.141   5.236 -4.4282 -0.6787 -1.9563
  154MOL0     H20289   7.712   2.972   5.290  0.5636 -0.2676 -0.9032
  154MOL0     H20290   7.514   3.061   5.230  0.8444 -0.0648  1.3718
  154MOL0     H20291   7.290   3.096   5.141  0.8603  0.8737  1.9622
  154MOL0     H20292   7.083   3.409   4.739  0.2656 -0.2057  0.0592
  154MOL0     H20293   6.839   3.425   4.675 -0.5089 -1.3568  0.0413
  154MOL0     H20294   6.519   3.190   4.508 -0.3402 -0.8971  3.5771
  154MOL0     H20295   6.622   3.060   4.541 -4.1253  0.7639  0.5808
  154MOL0     H20296   6.746   3.091   4.332 -0.0617  0.7440  1.6534
  154MOL0     H20297   6.632   3.218   4.276 -1.1242 -0.1681 -1.2551
  154MOL0     H20298   6.540   2.939   4.351  0.8311 -1.5222 -1.1436
  154MOL0     H20299   6.588   2.983   4.181  0.8706  1.0569 -0.5315
  154MOL0     H20300   6.366   3.118   4.344 -0.5358 -1.1185 -0.2510
  154MOL0     H20301   6.427   3.155   4.181  3.1724 -2.1274 -2.6569
  154MOL0     H20302   6.287   2.889   4.263 -1.2013  1.0299  0.9973
  154MOL0     H20303   6.327   2.941   4.104  0.2014  0.6068 -0.1829
  154MOL0     H20304   6.170   3.118   4.090  0.5150  1.7401  0.5599
  154MOL0     H20305   6.155   3.125   4.263  3.2780 -0.3105  1.2843
  154MOL0     H20306   6.089   2.876   4.105 -1.1233 -0.2128 -1.1117
  154MOL0     H20307   6.048   2.905   4.273  1.5808 -0.0163 -0.4669
  154MOL0     H20308   5.948   3.039   4.011 -0.9653 -1.2511 -0.8328
  154MOL0     H20309   5.914   3.102   4.180  1.0133 -0.1756  1.2590
  154MOL0     H20310   6.828   3.022   4.549 -0.8834 -1.1173  4.4054
  154MOL0     H20311   7.054   2.988   4.662  3.1187  0.8617 -1.2917
  154MOL0     H20312   7.449   3.094   4.747 -0.7511 -1.0115  0.0018
  154MOL0     H20313   7.662   3.034   4.836  0.5602 -2.7119  1.9695
  154MOL0     H20314   9.409   3.493   5.734  0.9255  1.0389  0.1158
  154MOL0     H20315   9.612   3.504   5.904 -3.3589  3.5341 -1.3123
  154MOL0     H20316   9.743   3.321   6.464  1.8959  0.3920  2.2787
  154MOL0     H20317   9.969   3.350   6.564  0.0413 -0.3927 -0.1345
  154MOL0     H20318  10.191   3.282   6.614 -1.0056 -0.3737 -1.1350
  154MOL0     H20319  10.149   3.458   6.606 -0.7237 -0.8066 -0.1526
  154MOL0     H20320  10.401   3.466   6.513  1.6727  3.6898  1.3789
  154MOL0     H20321  10.374   3.485   6.684 -0.1886  0.9020 -0.7546
  154MOL0     H20322  10.561   3.331   6.638 -1.0375  1.2756  0.1640
  154MOL0     H20323  10.470   3.231   6.539  0.6086 -0.8031 -0.2117
  154MOL0     H20324  10.465   3.265   6.846  1.1976  1.7563  0.0540
  154MOL0     H20325  10.327   3.178   6.778 -0.2423  2.0184  0.3847
  154MOL0     H20326  10.657   2.918   6.711  0.1975  0.0532 -0.0329
  154MOL0     H20327  10.146   3.345   6.178  0.2360 -2.0038  0.2812
  154MOL0     H20328   9.938   3.313   6.073 -0.1624  0.5267 -0.0320
  155MOL0     O20329   2.573   2.581   9.859 -1.1717  0.3020 -0.8584
  155MOL0     C20330   2.520   2.518   9.770 -0.1979 -0.5726 -0.6896
  155MOL0     O20331   2.581   2.472   9.652  0.5410 -0.8274  0.4140
  155MOL0     C20332   2.710   2.486   9.625 -0.4568  0.3975 -0.0456
  155MOL0     C20333   2.748   2.410   9.512 -0.2403  0.6507 -0.1062
  155MOL0     C20334   2.877   2.402   9.462 -0.4634 -0.0056  0.1390
  155MOL0     C20335   2.980   2.468   9.537 -0.1584  0.3240  0.1470
  155MOL0     O20336   3.116   2.473   9.503 -0.1885  0.0701  0.6799
  155MOL0     C20337   3.142   2.495   9.366 -0.6186  0.5528 -0.0871
  155MOL0     C20338   3.274   2.563   9.349 -0.0072 -0.1472 -0.4464
  155MOL0     C20339   3.399   2.481   9.385 -0.9349 -0.1624  0.0274
  155MOL0     C20340   3.524   2.576   9.408  0.3738 -0.0422  0.9763
  155MOL0     C20341   3.648   2.498   9.457  1.0013 -0.3247  0.2008
  155MOL0     C20342   3.782   2.581   9.465 -0.9770  0.1233  0.0614
  155MOL0     C20343   3.785   2.694   9.566 -0.3075  0.3009 -0.4048
  155MOL0     C20344   3.901   2.786   9.532 -0.1694 -0.3290 -0.2414
  155MOL0     N20345   4.037   2.734   9.547  0.3406  0.4442 -0.3019
  155MOL0     C20346   4.105   2.676   9.452 -0.0571 -0.4362  0.4549
  155MOL0     C20347   4.222   2.646   9.517  0.1413 -1.1189  0.5176
  155MOL0     C20348   4.346   2.592   9.456  0.1862  0.1472 -0.2683
  155MOL0     C20349   4.331   2.471   9.368  0.0603 -0.3112  0.0348
  155MOL0     C20350   4.276   2.352   9.434  0.4691  0.0580  0.8933
  155MOL0     C20351   4.264   2.242   9.330  0.2609  0.7845  0.1254
  155MOL0     O20352   4.180   2.265   9.214 -0.4748  0.1713  0.2794
  155MOL0     C20353   4.042   2.273   9.229 -0.4348  0.1021  0.0964
  155MOL0     C20354   3.978   2.299   9.107 -0.8399 -0.6647  0.1567
  155MOL0     C20355   3.843   2.285   9.091  0.1364 -0.4813  0.1759
  155MOL0     C20356   3.764   2.246   9.203  0.0237  0.2743  0.1974
  155MOL0     C20357   3.625   2.231   9.190 -0.1949 -0.9035 -0.2323
  155MOL0     O20358   3.568   2.120   9.263 -0.0131 -0.8608 -0.1502
  155MOL0     C20359   3.439   2.082   9.236 -0.0181  0.0054 -0.6459
  155MOL0     C20360   3.399   2.015   9.121  0.1494 -0.4711 -0.2792
  155MOL0     C20361   3.265   1.978   9.108  0.8386 -0.0217  1.1552
  155MOL0     C20362   3.171   2.002   9.211  1.2911  0.6796  0.1475
  155MOL0     O20363   3.038   1.984   9.198  0.2534 -0.0709  0.3267
  155MOL0     C20364   2.971   1.984   9.069  0.7217 -0.2782 -0.0485
  155MOL0     C20365   2.819   2.003   9.085  0.0565  0.5435  0.5828
  155MOL0     C20366   2.742   2.011   8.955  0.2356  0.6435  0.0958
  155MOL0     C20367   2.713   1.873   8.895  0.3316  0.1435  0.1249
  155MOL0     C20368   2.593   1.881   8.790  0.5913 -0.0777 -0.5169
  155MOL0     C20369   2.448   1.919   8.842 -1.0631 -0.9692 -0.5284
  155MOL0     C20370   2.403   1.831   8.960  0.0342 -0.1554  1.2399
  155MOL0     C20371   2.252   1.807   8.956 -0.1396  0.0803 -1.0324
  155MOL0    Cl20372   2.205   1.694   8.828  0.0685 -0.2104  0.2082
  155MOL0     C20373   3.215   2.067   9.325  0.1420  0.2176  0.3389
  155MOL0     C20374   3.348   2.112   9.340  0.3118  0.3350 -0.4684
  155MOL0     O20375   3.562   2.314   9.130  0.2443 -1.1823  0.2260
  155MOL0     C20376   3.828   2.220   9.327 -0.1346 -0.4257  0.1672
  155MOL0     C20377   3.966   2.237   9.340  0.1142  0.4454  0.0955
  155MOL0     N20378   4.215   2.678   9.650 -0.6216  0.3070  0.3533
  155MOL0     N20379   4.105   2.734   9.669  0.5653  0.3497  0.5080
  155MOL0     C20380   2.954   2.532   9.660  0.1436 -0.4238  0.1127
  155MOL0     C20381   2.822   2.539   9.705  0.4771 -0.0692  0.7212
  155MOL0     C20382   2.375   2.510   9.770  0.8559 -0.6124  0.0192
  155MOL0     C20383   2.302   2.442   9.671 -0.2798 -0.4066  0.8132
  155MOL0     C20384   2.165   2.439   9.682 -0.1024 -0.0590  0.2458
  155MOL0     C20385   2.095   2.501   9.788 -0.0707  0.1285  1.2297
  155MOL0     O20386   1.963   2.464   9.787 -0.2680 -0.1377  0.1293
  155MOL0     C20387   1.874   2.522   9.886  0.6259  0.6569  0.0548
  155MOL0     C20388   1.735   2.449   9.876 -1.0334 -0.8202 -0.5491
  155MOL0     C20389   1.659   2.504   9.748 -0.6291 -0.2322 -0.5170
  155MOL0     C20390   1.591   2.640   9.779 -0.3973 -0.3562  0.3112
  155MOL0     C20391   1.470   2.652   9.862 -0.6901 -0.9640 -0.3920
  155MOL0     C20392   1.363   2.673   9.921  0.8262 -0.0666 -0.6251
  155MOL0     C20393   2.159   2.553   9.894 -0.0079  0.0771  0.3571
  155MOL0     C20394   2.293   2.564   9.879 -0.2371  0.1587  0.1950
  155MOL0     H20395   2.672   2.353   9.460 -1.3622  0.5464  1.5981
  155MOL0     H20396   2.890   2.353   9.366  2.0523  1.9104 -0.6033
  155MOL0     H20397   3.060   2.548   9.316  0.7687  1.1351 -1.8449
  155MOL0     H20398   3.158   2.396   9.322 -0.9113  0.7941 -0.7509
  155MOL0     H20399   3.262   2.656   9.405 -1.9189  2.1398 -4.2512
  155MOL0     H20400   3.286   2.608   9.250  1.4697 -0.1895 -0.3070
  155MOL0     H20401   3.424   2.416   9.300  2.1105  1.3568 -0.3981
  155MOL0     H20402   3.380   2.426   9.478 -1.4535 -1.2282 -0.6831
  155MOL0     H20403   3.553   2.615   9.310  1.2726 -2.5673  0.1473
  155MOL0     H20404   3.512   2.662   9.475  0.7953  0.9749 -0.2081
  155MOL0     H20405   3.661   2.406   9.399 -1.7593 -1.2591  0.9041
  155MOL0     H20406   3.629   2.463   9.559 -1.5242  1.1549  0.3169
  155MOL0     H20407   3.814   2.616   9.366  1.9412  1.8495  1.4835
  155MOL0     H20408   3.863   2.510   9.483 -0.8496 -0.1166 -1.3556
  155MOL0     H20409   3.696   2.756   9.547  0.0228  0.3018 -2.0950
  155MOL0     H20410   3.792   2.663   9.670  1.5733 -0.7838 -0.8190
  155MOL0     H20411   3.893   2.852   9.619  0.2600 -0.0635 -0.4013
  155MOL0     H20412   3.883   2.850   9.446  1.0694  0.7130  0.2423
  155MOL0     H20413   4.083   2.676   9.346  1.7455 -0.5604  0.0387
  155MOL0     H20414   4.411   2.572   9.541 -0.5917  0.3461  0.3800
  155MOL0     H20415   4.385   2.672   9.392  1.7832 -0.4029 -0.0212
  155MOL0     H20416   4.428   2.440   9.328 -0.6362  1.2158 -3.2320
  155MOL0     H20417   4.279   2.509   9.279  1.2467  2.1894  0.3206
  155MOL0     H20418   4.337   2.323   9.520  0.5015 -3.2250 -0.0999
  155MOL0     H20419   4.177   2.378   9.470 -0.2711 -0.0387 -0.9629
  155MOL0     H20420   4.230   2.152   9.382  0.4197  0.6181 -0.0569
  155MOL0     H20421   4.362   2.219   9.288  0.1664  2.2792 -0.9936
  155MOL0     H20422   4.038   2.326   9.021  0.6974  1.5591  1.7999
  155MOL0     H20423   3.789   2.306   9.000  0.6997  1.9803  0.3303
  155MOL0     H20424   3.472   2.016   9.041  2.1970 -2.6692  1.4106
  155MOL0     H20425   3.237   1.941   9.010  1.7132 -0.0738  0.9144
  155MOL0     H20426   2.988   1.889   9.018 -1.1973 -1.0269  0.6340
  155MOL0     H20427   3.008   2.062   9.001 -3.1323 -0.8379 -3.1890
  155MOL0     H20428   2.813   2.099   9.137  4.6884  1.7953 -0.7397
  155MOL0     H20429   2.777   1.931   9.156  1.4136 -0.5244  0.3616
  155MOL0     H20430   2.800   2.064   8.878 -0.1593 -0.0317 -0.6877
  155MOL0     H20431   2.648   2.065   8.968  0.5642  1.7745 -1.7585
  155MOL0     H20432   2.796   1.827   8.841  0.1096 -1.6785  1.2383
  155MOL0     H20433   2.687   1.798   8.971  0.2341 -2.4093 -2.2326
  155MOL0     H20434   2.573   1.780   8.753  3.6743 -0.8047 -0.4165
  155MOL0     H20435   2.627   1.956   8.717  1.0783  0.8523  0.6422
  155MOL0     H20436   2.373   1.928   8.763 -0.2002  1.2269 -1.1488
  155MOL0     H20437   2.460   2.020   8.881  3.6041 -0.6431 -2.1416
  155MOL0     H20438   2.450   1.732   8.952 -0.7788 -0.5420  1.0977
  155MOL0     H20439   2.427   1.869   9.060  1.4125  1.7225  0.2553
  155MOL0     H20440   2.201   1.903   8.953  1.8044  1.1956 -0.5237
  155MOL0     H20441   2.231   1.755   9.049 -0.4441 -0.3139 -1.3186
  155MOL0     H20442   3.144   2.087   9.406 -2.6048 -1.1227 -1.5835
  155MOL0     H20443   3.378   2.164   9.431 -1.2136  1.2899 -0.4708
  155MOL0     H20444   3.774   2.193   9.417 -1.8454  5.5046  1.3063
  155MOL0     H20445   4.015   2.199   9.429  0.7130 -0.4916 -0.6234
  155MOL0     H20446   3.041   2.569   9.713  0.5661 -1.4804  0.1925
  155MOL0     H20447   2.804   2.595   9.796 -0.8169  1.1835 -0.2536
  155MOL0     H20448   2.352   2.398   9.586  1.3497  0.4379  1.2793
  155MOL0     H20449   2.111   2.382   9.607 -0.0218  1.7419 -1.2683
  155MOL0     H20450   1.853   2.629   9.876 -0.8409  0.3678 -0.0671
  155MOL0     H20451   1.912   2.500   9.987 -0.4643 -2.5012 -0.1174
  155MOL0     H20452   1.739   2.340   9.870 -3.4584 -1.0260  0.4495
  155MOL0     H20453   1.677   2.482   9.962  1.3995  0.6941  0.6023
  155MOL0     H20454   1.582   2.431   9.721 -1.1879  0.1044  0.1531
  155MOL0     H20455   1.721   2.512   9.658  0.3148 -0.9191  0.0586
  155MOL0     H20456   1.660   2.723   9.797 -2.5700  1.1444  2.2520
  155MOL0     H20457   1.540   2.664   9.685 -1.5212 -1.6624  0.5569
  155MOL0     H20458   1.269   2.696   9.967  1.6028 -1.1732  1.6428
  155MOL0     H20459   2.113   2.582   9.989 -0.1407 -2.1449  1.0171
  155MOL0     H20460   2.338   2.611   9.966 -0.6239 -2.3234  1.8359
  156MOL0     O20461   2.838   2.945   4.953  0.0841  0.0831 -0.7199
  156MOL0     C20462   2.846   3.060   4.917 -0.7578 -0.1991  0.0332
  156MOL0     O20463   2.767   3.164   4.948 -0.2814  0.2560  0.0307
  156MOL0     C20464   2.645   3.142   5.019  0.5585 -1.0433  0.0527
  156MOL0     C20465   2.565   3.029   5.009  0.6953  0.4125  0.1511
  156MOL0     C20466   2.438   3.017   5.066  0.8309  0.9789 -0.4200
  156MOL0     C20467   2.385   3.129   5.134 -0.2237  0.0781  0.5108
  156MOL0     O20468   2.262   3.137   5.200 -0.6366 -0.0012  0.0881
  156MOL0     C20469   2.182   3.019   5.191  0.4658 -0.0603 -0.2901
  156MOL0     C20470   2.058   3.038   5.274 -0.9052  0.6660 -0.0148
  156MOL0     C20471   1.947   2.941   5.249  0.3449 -0.4073 -0.3317
  156MOL0     C20472   1.814   3.002   5.308  0.0191 -0.0804 -0.0558
  156MOL0     C20473   1.704   2.898   5.316  0.5101  0.5939 -0.1687
  156MOL0     C20474   1.569   2.962   5.370  0.4124 -0.0459 -0.1990
  156MOL0     C20475   1.459   2.848   5.363 -0.3881 -0.7370 -0.4271
  156MOL0     C20476   1.322   2.883   5.420  0.1375  0.1989 -0.1615
  156MOL0     N20477   1.229   2.771   5.409 -0.2715  0.1604 -0.1336
  156MOL0     C20478   1.111   2.774   5.486  0.1534  0.2911  0.3815
  156MOL0     C20479   1.033   2.671   5.447 -0.2124  0.2006  0.8842
  156MOL0     C20480   0.891   2.636   5.499  0.2568  0.3443  0.2294
  156MOL0     C20481   0.806   2.568   5.393  0.3349 -0.8027  0.5877
  156MOL0     C20482   0.669   2.540   5.460 -0.0263  0.5983 -0.1119
  156MOL0     C20483   0.570   2.461   5.370  0.3167  0.5183 -0.5785
  156MOL0     O20484   0.452   2.432   5.443  0.1017  0.2071  1.4266
  156MOL0     C20485   0.341   2.399   5.368  0.2349  0.2756 -0.3946
  156MOL0     C20486   0.340   2.375   5.229  0.0374  0.0870 -0.4146
  156MOL0     C20487   0.225   2.332   5.169  0.5520  0.5478  0.6226
  156MOL0     C20488   0.101   2.310   5.239 -0.0626  0.4851  0.4724
  156MOL0     C20489  -0.012   2.241   5.178  0.1054 -0.8997  0.4073
  156MOL0     O20490  -0.119   2.214   5.260 -0.0120 -0.6205 -0.1239
  156MOL0     C20491  -0.214   2.137   5.208 -0.0265  0.6391  0.1823
  156MOL0     C20492  -0.300   2.177   5.103 -0.1301 -0.1312  0.4010
  156MOL0     C20493  -0.405   2.096   5.050 -0.7297 -0.1411 -0.6394
  156MOL0     C20494  -0.425   1.970   5.106 -0.1668 -0.5610  0.3983
  156MOL0     O20495  -0.523   1.884   5.057  0.3190  0.1793  0.0187
  156MOL0     C20496  -0.508   1.739   5.079  0.3491  0.3487 -0.0660
  156MOL0     C20497  -0.622   1.672   4.994  0.2410  0.6254  0.1002
  156MOL0     C20498  -0.767   1.717   5.040  0.4390  0.6336  0.3451
  156MOL0     C20499  -0.874   1.614   4.981 -0.8977  0.1965 -0.9761
  156MOL0     C20500  -1.007   1.682   5.000 -0.6136  0.5591  0.1947
  156MOL0     C20501  -1.040   1.797   4.898  0.7843 -0.1257 -1.1721
  156MOL0     C20502  -1.186   1.838   4.907  0.8029  0.2357  0.0515
  156MOL0     C20503  -1.225   1.929   4.788  0.4199  0.3495  0.1922
  156MOL0    Cl20504  -1.391   1.967   4.821  0.0443  0.0458 -0.0915
  156MOL0     C20505  -0.339   1.931   5.208  0.6685  0.0371  0.5356
  156MOL0     C20506  -0.232   1.999   5.252 -0.6142  0.0124  0.1169
  156MOL0     O20507  -0.008   2.208   5.058  0.0395 -0.8803 -0.0983
  156MOL0     C20508   0.102   2.339   5.375 -1.0066 -0.1043 -0.0907
  156MOL0     C20509   0.223   2.386   5.437  0.0555  1.0761 -0.6110
  156MOL0     N20510   1.097   2.613   5.339 -0.4645  0.5013 -0.2451
  156MOL0     N20511   1.201   2.682   5.317  0.2094  0.0930  0.0864
  156MOL0     C20512   2.471   3.239   5.154  0.0532  0.3881  0.1252
  156MOL0     C20513   2.599   3.245   5.100  1.2100 -0.3117 -0.2555
  156MOL0     C20514   2.981   3.094   4.848  0.5533  0.2212 -0.5591
  156MOL0     C20515   3.082   2.994   4.832 -0.1416 -0.9265  0.1992
  156MOL0     C20516   3.201   3.028   4.771 -0.9530  0.3225 -0.7188
  156MOL0     C20517   3.226   3.148   4.715  0.5717  0.0697  0.2216
  156MOL0     O20518   3.329   3.168   4.633  0.1941 -1.2852 -0.3523
  156MOL0     C20519   3.456   3.126   4.677 -0.5579 -0.5351 -0.1795
  156MOL0     C20520   3.551   3.103   4.556  1.0835  0.3340  0.4836
  156MOL0     C20521   3.612   3.238   4.526  0.2418  0.2675  0.3647
  156MOL0     C20522   3.725   3.225   4.421  0.1692 -0.5061  0.4322
  156MOL0     C20523   3.806   3.348   4.415  0.1132 -0.1013  0.2877
  156MOL0     C20524   3.871   3.443   4.389  0.8041 -0.1577 -0.0224
  156MOL0     C20525   3.135   3.252   4.732 -0.8713 -0.3305 -0.3078
  156MOL0     C20526   3.011   3.220   4.796 -0.4399  0.1668  0.4237
  156MOL0     H20527   2.606   2.945   4.954 -1.7193 -0.8840  0.1621
  156MOL0     H20528   2.390   2.919   5.062  1.7831  0.5130 -3.5323
  156MOL0     H20529   2.224   2.929   5.236  2.1355  0.5598 -0.5307
  156MOL0     H20530   2.147   3.007   5.088 -3.0352  2.1634  0.4299
  156MOL0     H20531   2.014   3.136   5.251  1.1527  1.6238 -0.0490
  156MOL0     H20532   2.092   3.050   5.377  2.7301  1.3768 -1.1537
  156MOL0     H20533   1.972   2.844   5.292  1.5996  0.8172  1.9033
  156MOL0     H20534   1.934   2.929   5.141 -0.3964  0.2111 -0.3198
  156MOL0     H20535   1.831   3.049   5.405 -2.0282 -1.1507  0.8894
  156MOL0     H20536   1.784   3.076   5.233  0.1542  1.8224  1.7022
  156MOL0     H20537   1.743   2.821   5.384 -0.3309 -0.3883 -0.7817
  156MOL0     H20538   1.685   2.861   5.215 -0.9401 -0.7372  0.5639
  156MOL0     H20539   1.552   3.045   5.300 -0.9522 -0.7795 -0.7791
  156MOL0     H20540   1.569   3.009   5.469 -0.1590  0.5830 -0.4895
  156MOL0     H20541   1.451   2.809   5.261 -0.0573 -0.4960 -0.5481
  156MOL0     H20542   1.509   2.767   5.418  2.3679  0.4811 -0.9458
  156MOL0     H20543   1.284   2.973   5.371 -2.3286  0.1135  1.3723
  156MOL0     H20544   1.348   2.909   5.523  0.3207  1.6138 -0.5434
  156MOL0     H20545   1.083   2.837   5.570  2.4909  1.6638  0.2298
  156MOL0     H20546   0.842   2.731   5.526 -0.1422  0.7673 -1.8434
  156MOL0     H20547   0.891   2.576   5.591 -2.3973 -1.5837 -0.9118
  156MOL0     H20548   0.858   2.481   5.349  3.4310  1.2953 -0.2768
  156MOL0     H20549   0.794   2.638   5.309  1.2545  1.1032  1.9831
  156MOL0     H20550   0.682   2.471   5.544 -2.6879  0.2214  0.0768
  156MOL0     H20551   0.620   2.635   5.483 -1.0741  0.1362 -0.3786
  156MOL0     H20552   0.598   2.358   5.345 -4.0646 -1.9701  3.0621
  156MOL0     H20553   0.550   2.521   5.281  0.5177  1.6493  0.1190
  156MOL0     H20554   0.430   2.380   5.169 -1.9029  1.7671 -3.4385
  156MOL0     H20555   0.246   2.297   5.068 -1.9403  1.3466 -0.2325
  156MOL0     H20556  -0.276   2.277   5.070  0.9830  0.2942  2.3715
  156MOL0     H20557  -0.470   2.129   4.970 -1.0313 -0.9184 -0.7158
  156MOL0     H20558  -0.515   1.711   5.185 -1.3603 -1.5538 -0.6389
  156MOL0     H20559  -0.411   1.707   5.041  0.2631  1.1588 -1.0062
  156MOL0     H20560  -0.612   1.563   5.008 -0.3624  0.7312  1.5601
  156MOL0     H20561  -0.599   1.703   4.892  0.1619  3.7421  0.9328
  156MOL0     H20562  -0.788   1.816   5.000  3.6038  0.7614 -1.2905
  156MOL0     H20563  -0.768   1.712   5.149  0.3090 -3.1601  0.3263
  156MOL0     H20564  -0.853   1.595   4.875  1.8601 -0.4342 -0.3987
  156MOL0     H20565  -0.869   1.523   5.040 -1.6098  1.3744  0.9963
  156MOL0     H20566  -1.014   1.727   5.100  0.1684 -2.1522  1.5942
  156MOL0     H20567  -1.075   1.597   4.988  0.1181  0.0061 -0.0625
  156MOL0     H20568  -1.000   1.769   4.800  2.5972 -0.8670 -0.2584
  156MOL0     H20569  -0.976   1.879   4.933 -0.6380  1.2807 -1.7227
  156MOL0     H20570  -1.247   1.748   4.911 -0.1842  0.8448 -0.8359
  156MOL0     H20571  -1.207   1.895   4.998 -0.5711  0.4873 -0.4063
  156MOL0     H20572  -1.221   1.869   4.697 -0.6893  0.3104  0.1617
  156MOL0     H20573  -1.161   2.018   4.786  4.0757 -2.0628  0.8231
  156MOL0     H20574  -0.369   1.842   5.263 -0.8641 -0.1241 -0.4963
  156MOL0     H20575  -0.169   1.966   5.334 -2.1450 -1.9977  0.5428
  156MOL0     H20576   0.017   2.327   5.442 -1.1607 -0.4856 -0.3525
  156MOL0     H20577   0.222   2.422   5.540  1.0557  0.0546 -0.2297
  156MOL0     H20578   2.428   3.315   5.218 -3.0792  0.1292 -1.4825
  156MOL0     H20579   2.658   3.336   5.099  1.1124 -0.0874 -4.6684
  156MOL0     H20580   3.077   2.887   4.850  1.9516 -1.1957 -0.4517
  156MOL0     H20581   3.260   2.937   4.769 -1.7694 -0.2352  0.0700
  156MOL0     H20582   3.449   3.036   4.739 -1.2714  0.6557  1.5749
  156MOL0     H20583   3.495   3.205   4.743 -0.0164  0.3267 -1.4981
  156MOL0     H20584   3.619   3.021   4.579  0.3707  0.1752  2.1490
  156MOL0     H20585   3.489   3.076   4.469 -1.0729  0.1963  1.9795
  156MOL0     H20586   3.648   3.288   4.616  0.9797  1.5552 -0.6110
  156MOL0     H20587   3.542   3.309   4.482  1.3028  1.0605 -0.0870
  156MOL0     H20588   3.782   3.136   4.449 -2.1389 -1.5808  1.9864
  156MOL0     H20589   3.673   3.214   4.325 -2.3026  3.5745  1.0402
  156MOL0     H20590   3.948   3.511   4.361 -0.1010  0.5608 -0.8244
  156MOL0     H20591   3.148   3.350   4.688 -2.1377  0.3973  0.8442
  156MOL0     H20592   2.932   3.293   4.809 -1.7717 -1.0358 -0.7130
  157MOL0     O20593  10.733   3.101   1.617 -0.1913 -0.4210  0.0681
  157MOL0     C20594  10.793   3.012   1.561  0.9871  0.7392 -0.2305
  157MOL0     O20595  10.734   2.908   1.501  0.1021 -0.0068  0.0201
  157MOL0     C20596  10.596   2.888   1.500 -0.6069  0.1729 -0.6251
  157MOL0     C20597  10.539   2.855   1.380 -0.7851  0.0946 -0.6864
  157MOL0     C20598  10.398   2.830   1.380  0.7201 -0.3336 -0.0722
  157MOL0     C20599  10.322   2.840   1.500 -0.1902  0.2075 -0.2558
  157MOL0     O20600  10.196   2.795   1.506  0.3068  0.0347  0.8905
  157MOL0     C20601  10.095   2.890   1.448  0.1527  0.2394 -0.3460
  157MOL0     C20602   9.943   2.842   1.447 -0.6547 -0.6589  0.2509
  157MOL0     C20603   9.890   2.847   1.591 -0.3074  0.0221 -0.0328
  157MOL0     C20604   9.752   2.789   1.606  0.9984 -0.9477 -0.4025
  157MOL0     C20605   9.638   2.899   1.602  0.5424  0.0479 -0.3928
  157MOL0     C20606   9.624   2.974   1.467  0.2922  1.0309  0.6676
  157MOL0     C20607   9.525   3.089   1.464  0.0620 -0.0834 -0.0380
  157MOL0     C20608   9.374   3.036   1.448  0.0050 -0.2062 -0.4359
  157MOL0     N20609   9.313   2.988   1.577  0.4686  0.6032  1.3333
  157MOL0     C20610   9.324   3.043   1.701 -0.0503 -0.0512 -0.3766
  157MOL0     C20611   9.269   2.953   1.785  0.5814  0.0335  1.0695
  157MOL0     C20612   9.274   2.950   1.935  0.6051 -0.6484 -0.7032
  157MOL0     C20613   9.140   2.919   2.001 -0.0892  0.3478  0.9135
  157MOL0     C20614   9.146   2.917   2.156  0.4577  0.6469  0.3466
  157MOL0     C20615   9.005   2.875   2.206  0.1776  0.2016 -0.0859
  157MOL0     O20616   8.903   2.960   2.151 -0.2515 -0.3947 -0.0732
  157MOL0     C20617   8.770   2.927   2.172 -0.2880 -0.6990  0.7708
  157MOL0     C20618   8.690   3.010   2.095 -0.0326  0.9795 -0.1545
  157MOL0     C20619   8.551   2.986   2.092 -0.5488  0.3681 -0.3441
  157MOL0     C20620   8.496   2.889   2.172 -0.0304 -0.0993 -0.6705
  157MOL0     C20621   8.356   2.848   2.142 -0.5019  0.4599  0.2154
  157MOL0     O20622   8.289   2.902   2.038  0.2129 -0.1114  0.0954
  157MOL0     C20623   8.168   2.848   1.998 -0.6758 -0.0828 -0.6062
  157MOL0     C20624   8.154   2.821   1.856  0.0610  0.3126  0.5790
  157MOL0     C20625   8.027   2.775   1.807  1.0205  0.5529 -0.5280
  157MOL0     C20626   7.917   2.757   1.891 -0.2988 -0.6198  0.4788
  157MOL0     O20627   7.811   2.714   1.819  0.2151  0.1404 -0.4296
  157MOL0     C20628   7.694   2.689   1.893  0.1199  0.3287  0.5835
  157MOL0     C20629   7.602   2.807   1.886  0.5415 -1.1680  0.3489
  157MOL0     C20630   7.461   2.780   1.922  0.2688 -0.1565  0.0066
  157MOL0     C20631   7.396   2.671   1.837 -0.3778 -0.4646 -0.6364
  157MOL0     C20632   7.245   2.651   1.890  0.2010 -0.1138 -0.2380
  157MOL0     C20633   7.155   2.768   1.846 -0.1163 -0.8726 -0.4840
  157MOL0     C20634   7.009   2.728   1.867  0.2986 -0.2261 -0.4935
  157MOL0     C20635   6.916   2.851   1.839  0.1922 -0.0404 -0.2190
  157MOL0    Cl20636   6.742   2.804   1.858 -0.3434  0.3745 -0.1099
  157MOL0     C20637   7.930   2.786   2.028 -0.1387  0.3132 -0.4218
  157MOL0     C20638   8.053   2.837   2.079  0.4230 -0.6907  0.3992
  157MOL0     O20639   8.320   2.744   2.200  0.4103 -0.1745 -0.1765
  157MOL0     C20640   8.574   2.815   2.259  0.6734 -0.1522  0.1022
  157MOL0     C20641   8.709   2.837   2.262 -0.5776  0.6672  0.0162
  157MOL0     N20642   9.223   2.845   1.717 -0.3788  0.8682 -0.8181
  157MOL0     N20643   9.252   2.868   1.592  0.8273 -0.5216  0.2687
  157MOL0     C20644  10.383   2.869   1.619  0.2569 -0.5168 -1.1157
  157MOL0     C20645  10.522   2.898   1.621 -0.2251  0.1970  0.6292
  157MOL0     C20646  10.941   3.024   1.558 -0.1960 -0.7103 -0.4433
  157MOL0     C20647  11.015   2.980   1.449 -0.0600 -0.4241  0.3549
  157MOL0     C20648  11.154   2.996   1.440  0.3650 -0.3194 -0.6340
  157MOL0     C20649  11.227   3.055   1.544 -0.1586 -0.6156 -0.4517
  157MOL0     O20650  11.358   3.077   1.516  0.3531  0.1332  0.2017
  157MOL0     C20651  11.438   3.134   1.626  0.5049 -0.2785 -0.2752
  157MOL0     C20652  11.474   3.041   1.740 -0.1163 -0.2097  0.7250
  157MOL0     C20653  11.533   2.911   1.689 -0.5644 -0.3224 -0.6274
  157MOL0     C20654  11.687   2.930   1.660  0.0789 -0.4478  0.4320
  157MOL0     C20655  11.785   2.875   1.753  0.3140 -0.6645  0.0215
  157MOL0     C20656  11.875   2.844   1.827 -0.2722  0.3558 -0.3404
  157MOL0     C20657  11.154   3.098   1.658  0.3052  0.1433 -0.0150
  157MOL0     C20658  11.010   3.082   1.666 -0.2223 -0.0161 -0.3852
  157MOL0     H20659  10.600   2.844   1.290 -2.0187  0.0458 -1.5411
  157MOL0     H20660  10.342   2.802   1.292 -0.8054  2.6583 -0.1775
  157MOL0     H20661  10.129   2.905   1.345 -1.0274  0.4444 -0.7247
  157MOL0     H20662  10.101   2.984   1.503 -2.7152  0.9194 -1.0434
  157MOL0     H20663   9.941   2.744   1.398  1.4296  0.0510 -1.4366
  157MOL0     H20664   9.902   2.915   1.376  0.1945 -1.4322 -1.0812
  157MOL0     H20665   9.893   2.953   1.619  0.5885  0.0656 -0.2567
  157MOL0     H20666   9.950   2.779   1.652 -1.3055  0.5954  1.6765
  157MOL0     H20667   9.730   2.705   1.540 -3.3423 -0.9573  0.7739
  157MOL0     H20668   9.743   2.754   1.710  1.7541  1.5903  0.6006
  157MOL0     H20669   9.649   2.966   1.688  0.7869 -1.1918  0.5815
  157MOL0     H20670   9.544   2.843   1.609  1.5547 -1.9965 -2.0779
  157MOL0     H20671   9.589   2.902   1.393 -3.7991  0.3131  2.9833
  157MOL0     H20672   9.722   3.011   1.435  1.4254 -1.2549  1.3241
  157MOL0     H20673   9.539   3.149   1.554  1.9887  0.6380 -0.7691
  157MOL0     H20674   9.551   3.147   1.375 -1.8856 -0.1781 -0.7184
  157MOL0     H20675   9.366   2.959   1.371 -1.8703  0.0697 -0.5765
  157MOL0     H20676   9.307   3.118   1.419 -0.7111 -0.9637 -0.9668
  157MOL0     H20677   9.363   3.140   1.731 -0.7956  0.0604  0.2791
  157MOL0     H20678   9.295   3.055   1.961 -4.1782  0.1555  0.8071
  157MOL0     H20679   9.359   2.885   1.955  0.9657 -0.5040 -1.7152
  157MOL0     H20680   9.127   2.814   1.975 -0.1359  0.2575  1.3017
  157MOL0     H20681   9.062   2.970   1.944  3.2401  0.7533 -3.9504
  157MOL0     H20682   9.209   2.841   2.202 -1.9868 -1.7654 -0.0057
  157MOL0     H20683   9.178   3.015   2.193  2.1684 -0.2277  1.2731
  157MOL0     H20684   9.009   2.898   2.313  1.8344  3.9947 -0.7948
  157MOL0     H20685   8.991   2.772   2.173 -3.0089  1.0202 -1.6775
  157MOL0     H20686   8.724   3.100   2.044 -1.3230  1.4471 -0.2521
  157MOL0     H20687   8.489   3.055   2.036  0.5782  2.0999  0.4628
  157MOL0     H20688   8.240   2.845   1.795  0.4757 -0.0304  1.0213
  157MOL0     H20689   8.010   2.765   1.700 -3.3864 -0.2347  0.0418
  157MOL0     H20690   7.706   2.667   2.000 -2.4935  1.1630  1.1293
  157MOL0     H20691   7.651   2.599   1.846 -0.4232  1.6395 -1.5496
  157MOL0     H20692   7.604   2.837   1.781 -1.6292 -2.9337 -0.2681
  157MOL0     H20693   7.640   2.890   1.946  2.2051 -1.8853  0.3584
  157MOL0     H20694   7.403   2.870   1.901  0.7324  0.3446  0.8339
  157MOL0     H20695   7.458   2.766   2.030 -0.7778  3.4902  0.5719
  157MOL0     H20696   7.395   2.693   1.730 -0.9443  2.2681 -0.1535
  157MOL0     H20697   7.456   2.580   1.841 -0.4601 -0.4895  0.4893
  157MOL0     H20698   7.254   2.628   1.997  0.6207 -3.1428 -0.8346
  157MOL0     H20699   7.225   2.554   1.845  0.4028 -0.8681  1.2349
  157MOL0     H20700   7.178   2.790   1.741  0.4073  3.3431  0.3522
  157MOL0     H20701   7.171   2.859   1.904 -1.4095  1.4352 -3.4736
  157MOL0     H20702   6.980   2.651   1.794  0.4054 -0.1455 -0.6214
  157MOL0     H20703   6.993   2.685   1.966  1.5332  0.0429 -0.1694
  157MOL0     H20704   6.924   2.881   1.734 -3.3412 -0.8417 -0.8474
  157MOL0     H20705   6.945   2.931   1.908  1.2376  0.4624 -1.1939
  157MOL0     H20706   7.855   2.779   2.105 -0.7741  3.0300 -0.6946
  157MOL0     H20707   8.053   2.868   2.183  0.5154  0.1015  0.1700
  157MOL0     H20708   8.531   2.739   2.323 -2.9606 -1.0330 -3.0343
  157MOL0     H20709   8.766   2.774   2.330 -0.6116 -0.4600 -0.9754
  157MOL0     H20710  10.327   2.861   1.712 -1.8043  0.0787 -2.2351
  157MOL0     H20711  10.589   2.909   1.707  3.0587 -0.6275 -1.6292
  157MOL0     H20712  10.955   2.933   1.372 -3.6128  3.2588  0.5661
  157MOL0     H20713  11.206   2.962   1.351  1.1619 -0.7065 -0.0439
  157MOL0     H20714  11.393   3.226   1.664  1.7096  1.9447 -3.7923
  157MOL0     H20715  11.532   3.173   1.585  0.7824 -0.6473 -0.0042
  157MOL0     H20716  11.549   3.084   1.807  0.7165 -0.5060 -0.0034
  157MOL0     H20717  11.385   3.016   1.798 -2.4347 -0.8427 -2.7804
  157MOL0     H20718  11.482   2.871   1.601 -0.1893  0.6160 -1.2964
  157MOL0     H20719  11.514   2.844   1.773 -1.1156  2.5308  1.6834
  157MOL0     H20720  11.708   2.871   1.570 -0.3825 -0.6560  0.4609
  157MOL0     H20721  11.703   3.036   1.638  0.1914 -0.6755 -0.6010
  157MOL0     H20722  11.948   2.810   1.898  0.3050  2.7526  0.2968
  157MOL0     H20723  11.208   3.146   1.739  0.9120 -0.3586 -0.1167
  157MOL0     H20724  10.961   3.123   1.754  1.7090 -2.0977  1.8038
  158MOL0     O20725   1.599   4.408   9.205 -0.3472 -0.6935 -0.0104
  158MOL0     C20726   1.521   4.359   9.129 -0.0161  0.2634  0.0920
  158MOL0     O20727   1.534   4.361   8.990 -0.1337 -0.2729  0.0615
  158MOL0     C20728   1.645   4.397   8.911 -0.9829 -0.1380 -0.1574
  158MOL0     C20729   1.658   4.340   8.786 -0.5315  0.2350  0.6243
  158MOL0     C20730   1.773   4.370   8.709 -0.5318  0.3419 -0.0758
  158MOL0     C20731   1.875   4.453   8.748  0.3657 -0.4221 -0.3737
  158MOL0     O20732   1.988   4.464   8.667  0.5263  0.6536  0.0604
  158MOL0     C20733   2.097   4.549   8.704 -0.3818  0.2154 -0.1426
  158MOL0     C20734   2.219   4.533   8.619 -0.8058  0.9053  0.0864
  158MOL0     C20735   2.203   4.582   8.476  0.1166 -0.4602 -0.0620
  158MOL0     C20736   2.343   4.562   8.408 -0.8348 -0.0817 -0.8210
  158MOL0     C20737   2.365   4.637   8.276 -0.1993  0.7002 -0.6659
  158MOL0     C20738   2.495   4.598   8.203 -0.1869  0.3579  0.4962
  158MOL0     C20739   2.525   4.693   8.090  0.6500 -0.0068  0.4590
  158MOL0     C20740   2.407   4.732   7.999  0.1244 -0.1098 -0.0435
  158MOL0     N20741   2.354   4.614   7.916 -0.6270  0.0678 -0.8887
  158MOL0     C20742   2.223   4.602   7.895 -0.1663 -0.8210 -0.4986
  158MOL0     C20743   2.211   4.479   7.835 -0.5950  0.1200  0.2466
  158MOL0     C20744   2.079   4.416   7.826 -0.1742 -0.5737 -0.6062
  158MOL0     C20745   2.005   4.475   7.703 -0.2300  0.3003 -0.3401
  158MOL0     C20746   1.903   4.591   7.739  0.0784  0.3002 -0.9422
  158MOL0     C20747   1.815   4.570   7.863 -0.6804  0.5309  0.1355
  158MOL0     O20748   1.750   4.440   7.872  0.0066 -0.5878 -0.5136
  158MOL0     C20749   1.634   4.411   7.807  0.3441 -0.4928  0.1679
  158MOL0     C20750   1.580   4.469   7.695  0.4806 -0.7507  0.3525
  158MOL0     C20751   1.450   4.434   7.645 -0.8377 -0.3769  0.0620
  158MOL0     C20752   1.376   4.338   7.715  0.7382 -0.8873 -1.2286
  158MOL0     C20753   1.235   4.322   7.686  1.0139  0.7517 -1.2091
  158MOL0     O20754   1.171   4.233   7.767  0.5651  0.0488 -0.0905
  158MOL0     C20755   1.033   4.193   7.769  0.4546 -0.0387 -0.3816
  158MOL0     C20756   0.993   4.115   7.879 -1.0645  0.3451  0.2850
  158MOL0     C20757   0.864   4.066   7.898 -0.2894 -0.6416  0.5580
  158MOL0     C20758   0.767   4.105   7.800 -0.0871  0.5759  0.5596
  158MOL0     O20759   0.632   4.074   7.812  0.3426  0.1232 -0.1811
  158MOL0     C20760   0.577   4.035   7.936  0.4581 -0.3772 -0.1692
  158MOL0     C20761   0.421   4.014   7.933  0.1765 -0.1382 -0.0766
  158MOL0     C20762   0.344   4.135   7.859 -0.6831  0.7633 -0.7849
  158MOL0     C20763   0.385   4.267   7.920  0.4955  0.0104 -0.7851
  158MOL0     C20764   0.269   4.360   7.917  0.3399  0.6445  0.3501
  158MOL0     C20765   0.299   4.505   7.953 -0.6996  0.0825  0.3402
  158MOL0     C20766   0.384   4.526   8.087 -0.1707 -0.5943  0.4798
  158MOL0     C20767   0.412   4.666   8.128  0.2463 -0.3330 -0.8934
  158MOL0    Cl20768   0.487   4.775   8.000 -0.0089 -0.3296 -0.2178
  158MOL0     C20769   0.807   4.179   7.690 -0.5233 -0.5543 -0.7863
  158MOL0     C20770   0.946   4.211   7.669  0.0914  0.7081 -0.0399
  158MOL0     O20771   1.177   4.377   7.598 -0.1737 -0.1580  0.3815
  158MOL0     C20772   1.444   4.270   7.822 -0.8478 -0.1481 -0.1089
  158MOL0     C20773   1.573   4.306   7.860 -0.2178 -0.5333  0.1648
  158MOL0     N20774   2.339   4.429   7.808 -0.2044  1.2909 -0.8904
  158MOL0     N20775   2.426   4.529   7.847  0.5587 -0.1737 -0.6757
  158MOL0     C20776   1.862   4.504   8.882 -0.8216 -0.7112 -0.0338
  158MOL0     C20777   1.751   4.482   8.956  0.1205  1.1308 -1.0811
  158MOL0     C20778   1.391   4.290   9.184  0.2067  0.4037 -0.0409
  158MOL0     C20779   1.289   4.244   9.088 -0.4149  0.9630 -0.5336
  158MOL0     C20780   1.174   4.176   9.135 -0.2029  0.7328 -0.0636
  158MOL0     C20781   1.163   4.136   9.270  0.6754 -0.4710 -0.3453
  158MOL0     O20782   1.060   4.064   9.329  1.0687 -0.7206 -0.1276
  158MOL0     C20783   1.020   3.941   9.259  0.1656  0.3802 -0.4767
  158MOL0     C20784   0.866   3.943   9.253 -0.2918  0.9129  0.5090
  158MOL0     C20785   0.792   3.962   9.384 -0.0867  0.2349 -0.2984
  158MOL0     C20786   0.642   3.945   9.352 -0.5744  0.3377 -0.3321
  158MOL0     C20787   0.558   3.985   9.465  0.1825  0.1827  0.2096
  158MOL0     C20788   0.505   4.035   9.565  0.0555  0.1482  0.0410
  158MOL0     C20789   1.267   4.180   9.361 -0.1244 -0.4778  0.6475
  158MOL0     C20790   1.384   4.253   9.319 -0.1527  0.2898  0.8165
  158MOL0     H20791   1.583   4.269   8.754 -0.0354  1.0860 -2.8651
  158MOL0     H20792   1.773   4.320   8.613  0.6745 -1.5806  0.8697
  158MOL0     H20793   2.115   4.532   8.811 -0.2903 -1.6134 -0.4056
  158MOL0     H20794   2.061   4.652   8.701 -1.0954 -0.0288 -0.2493
  158MOL0     H20795   2.233   4.425   8.618  0.1573  1.0123  0.7740
  158MOL0     H20796   2.313   4.569   8.662  0.3854  2.1518 -3.2074
  158MOL0     H20797   2.179   4.689   8.469  1.9345 -0.0273 -0.0664
  158MOL0     H20798   2.128   4.527   8.419  0.9910  0.8710 -2.6665
  158MOL0     H20799   2.418   4.610   8.472 -1.7536 -1.6025  1.5167
  158MOL0     H20800   2.368   4.456   8.403 -2.4777 -0.4058 -4.2302
  158MOL0     H20801   2.369   4.744   8.300  0.5922  0.4076  0.5895
  158MOL0     H20802   2.289   4.614   8.200  0.4390  0.5709 -1.2759
  158MOL0     H20803   2.487   4.498   8.159  1.8264  0.3748  0.0130
  158MOL0     H20804   2.578   4.609   8.273  1.4871  1.9203 -1.5749
  158MOL0     H20805   2.551   4.788   8.137 -1.9915  0.7448  0.5798
  158MOL0     H20806   2.602   4.655   8.023 -1.4265 -2.4719 -0.6975
  158MOL0     H20807   2.449   4.796   7.921 -1.2290 -0.5028 -1.1406
  158MOL0     H20808   2.332   4.788   8.056  1.7245 -0.2476  2.3681
  158MOL0     H20809   2.144   4.657   7.945  0.5712 -2.8796  3.3243
  158MOL0     H20810   2.031   4.426   7.924  3.6423  1.9992  1.2112
  158MOL0     H20811   2.092   4.311   7.801 -0.2140 -1.3675  2.3152
  158MOL0     H20812   1.934   4.398   7.672  0.6660 -1.1563  1.1035
  158MOL0     H20813   2.074   4.491   7.619  1.0430 -2.5342  0.0625
  158MOL0     H20814   1.964   4.681   7.736  1.1411 -0.3570  0.0655
  158MOL0     H20815   1.835   4.585   7.654  0.0944  0.5548 -0.9732
  158MOL0     H20816   1.739   4.648   7.869  1.4717  2.6953  0.7110
  158MOL0     H20817   1.872   4.584   7.955  0.7926 -0.7151 -0.5460
  158MOL0     H20818   1.629   4.551   7.642  0.2176 -1.0757 -0.3945
  158MOL0     H20819   1.408   4.487   7.560  0.9702 -0.6467 -1.0811
  158MOL0     H20820   1.067   4.104   7.957  0.5722 -2.0044 -1.4449
  158MOL0     H20821   0.837   4.018   7.992  0.3099 -0.2459  0.9370
  158MOL0     H20822   0.597   4.113   8.011 -0.0386 -1.2886  0.9422
  158MOL0     H20823   0.620   3.943   7.976  0.6056 -1.0056 -1.7303
  158MOL0     H20824   0.375   4.016   8.032 -1.1140  0.1455 -0.6637
  158MOL0     H20825   0.391   3.916   7.896 -0.0226 -0.3119  0.5364
  158MOL0     H20826   0.239   4.108   7.877 -0.0081 -2.4932 -1.0772
  158MOL0     H20827   0.367   4.131   7.752  1.4406 -0.6169 -0.3325
  158MOL0     H20828   0.424   4.268   8.022  0.6078  1.8220 -0.8112
  158MOL0     H20829   0.466   4.304   7.857 -0.1540  0.4193 -1.3947
  158MOL0     H20830   0.196   4.321   7.989  1.8058 -2.8796  0.1519
  158MOL0     H20831   0.212   4.363   7.824 -3.4137 -0.6890  2.3896
  158MOL0     H20832   0.198   4.542   7.971 -0.9318 -1.4423  2.6731
  158MOL0     H20833   0.351   4.560   7.874 -3.3403  2.0958 -0.1287
  158MOL0     H20834   0.328   4.480   8.169  1.3646  0.2270  2.0382
  158MOL0     H20835   0.482   4.480   8.076 -0.3463 -0.5710 -1.7098
  158MOL0     H20836   0.478   4.663   8.216  1.1605  0.1425 -1.5479
  158MOL0     H20837   0.322   4.712   8.172  1.3374 -0.6538  1.9042
  158MOL0     H20838   0.739   4.189   7.606  0.7175 -0.6582 -1.8397
  158MOL0     H20839   0.977   4.249   7.572  2.7864 -1.7800 -0.3116
  158MOL0     H20840   1.407   4.180   7.870 -2.4535  1.7058  2.3892
  158MOL0     H20841   1.622   4.255   7.942  1.8265  2.0026  0.6695
  158MOL0     H20842   1.942   4.559   8.932 -0.4390 -0.4263 -0.9350
  158MOL0     H20843   1.738   4.531   9.052  0.4639 -1.4329  0.3718
  158MOL0     H20844   1.293   4.279   8.985  0.9141  2.9388  0.1487
  158MOL0     H20845   1.092   4.160   9.065 -0.2524  2.2038 -0.3774
  158MOL0     H20846   1.057   3.851   9.308  2.7319  0.2909 -2.3815
  158MOL0     H20847   1.060   3.952   9.158 -0.9096  1.1603 -0.8308
  158MOL0     H20848   0.851   4.034   9.194  1.2956 -0.3327 -1.9407
  158MOL0     H20849   0.832   3.856   9.197 -0.3783  0.6767  0.9241
  158MOL0     H20850   0.817   4.063   9.419 -0.6787  0.4347 -0.4421
  158MOL0     H20851   0.825   3.884   9.454 -1.4236 -1.3210 -1.3345
  158MOL0     H20852   0.610   4.004   9.266  0.8126 -0.1824 -1.2331
  158MOL0     H20853   0.612   3.841   9.336  2.3522 -0.9774  1.9492
  158MOL0     H20854   0.451   4.076   9.648  0.4465  1.8578 -0.5079
  158MOL0     H20855   1.263   4.149   9.465  0.5472 -1.3934  0.4097
  158MOL0     H20856   1.473   4.269   9.378 -1.7466  2.7850  2.7718
  159MOL0     O20857   3.090   3.878   3.883  0.8182 -0.4468 -0.2894
  159MOL0     C20858   3.033   3.770   3.891  0.6766  0.1033  0.7273
  159MOL0     O20859   3.084   3.656   3.935 -0.2029  0.4644  0.2074
  159MOL0     C20860   3.223   3.644   3.959  0.4821  0.9993 -0.2315
  159MOL0     C20861   3.261   3.543   4.052 -0.9931 -0.8170  0.2177
  159MOL0     C20862   3.400   3.521   4.076 -0.0918 -0.5361  0.0671
  159MOL0     C20863   3.499   3.587   4.001  0.0767  0.3809  0.6198
  159MOL0     O20864   3.623   3.559   4.023 -0.0032 -0.6996 -0.5673
  159MOL0     C20865   3.700   3.668   4.065  0.4615  0.4981 -0.6330
  159MOL0     C20866   3.808   3.683   3.959 -0.6679  0.7928  0.2623
  159MOL0     C20867   3.923   3.587   3.995  1.2360 -0.7960  0.4962
  159MOL0     C20868   4.031   3.584   3.889 -0.1087 -0.2325 -0.3762
  159MOL0     C20869   4.142   3.487   3.915 -0.0372 -0.8068 -0.4083
  159MOL0     C20870   4.275   3.516   3.839 -0.6951  0.0599 -0.0639
  159MOL0     C20871   4.380   3.413   3.884  0.2297  0.3863  0.0265
  159MOL0     C20872   4.502   3.433   3.787 -0.3261 -0.2092 -0.1802
  159MOL0     N20873   4.603   3.337   3.825 -0.5370 -0.4298  0.2853
  159MOL0     C20874   4.637   3.285   3.945 -0.2964 -0.1353  0.4969
  159MOL0     C20875   4.741   3.201   3.924  0.5709  0.0032  0.3308
  159MOL0     C20876   4.810   3.122   4.030 -0.1524  0.2696  0.1608
  159MOL0     C20877   4.952   3.164   4.076 -0.1826  0.4165  0.2939
  159MOL0     C20878   5.050   3.187   3.955 -0.3514  0.1377 -0.2910
  159MOL0     C20879   5.200   3.174   4.007 -0.6058 -0.3322  0.7542
  159MOL0     O20880   5.264   3.214   3.883  0.3340  0.4154  0.3038
  159MOL0     C20881   5.389   3.178   3.865  0.2392  0.6582 -0.0675
  159MOL0     C20882   5.447   3.245   3.758  0.1090  0.6512 -0.1134
  159MOL0     C20883   5.573   3.204   3.698  0.0548 -0.4642 -0.1557
  159MOL0     C20884   5.646   3.102   3.766  0.8987 -1.0247  0.7227
  159MOL0     C20885   5.781   3.052   3.722 -1.1223 -0.1691  0.2846
  159MOL0     O20886   5.855   2.965   3.790 -0.0659  0.0596  0.0688
  159MOL0     C20887   5.988   2.928   3.744 -0.2315 -0.1994 -0.2777
  159MOL0     C20888   6.073   3.005   3.671 -0.4259 -0.7372  0.0821
  159MOL0     C20889   6.203   2.970   3.645 -0.1652 -0.3944  0.1031
  159MOL0     C20890   6.256   2.847   3.685 -0.1723 -0.2219 -0.5719
  159MOL0     O20891   6.384   2.815   3.647  0.3447  0.1680 -0.1959
  159MOL0     C20892   6.482   2.917   3.632  0.2723  0.0123 -0.0822
  159MOL0     C20893   6.620   2.861   3.652 -0.2779 -0.0631 -0.9648
  159MOL0     C20894   6.673   2.786   3.522 -0.9712 -0.0477  0.2129
  159MOL0     C20895   6.814   2.724   3.538  0.8905  0.4393  0.1252
  159MOL0     C20896   6.913   2.839   3.522 -0.3080  0.2379  0.0302
  159MOL0     C20897   7.047   2.774   3.481  0.2253  0.8484  0.0230
  159MOL0     C20898   7.162   2.878   3.461 -0.6073 -0.0660 -0.5637
  159MOL0     C20899   7.301   2.827   3.502  0.2419  0.3495 -0.2239
  159MOL0    Cl20900   7.435   2.946   3.463  0.0188  0.6766  0.0687
  159MOL0     C20901   6.172   2.761   3.751  0.1101  0.8247  0.1890
  159MOL0     C20902   6.046   2.802   3.784 -0.0691  0.1320 -0.0750
  159MOL0     O20903   5.817   3.098   3.614 -0.2304 -0.7550 -0.5728
  159MOL0     C20904   5.586   3.041   3.879 -0.7163  0.7113 -0.4157
  159MOL0     C20905   5.464   3.079   3.929  0.3625  0.3068 -0.2265
  159MOL0     N20906   4.764   3.187   3.786  0.1402 -0.4845  0.0641
  159MOL0     N20907   4.684   3.271   3.732 -0.4372 -0.6833 -0.2449
  159MOL0     C20908   3.450   3.668   3.895 -0.8433  0.1893  0.9018
  159MOL0     C20909   3.318   3.686   3.868 -0.0587 -0.0945 -0.0306
  159MOL0     C20910   2.882   3.767   3.885  0.2406 -0.6119  0.4132
  159MOL0     C20911   2.812   3.884   3.847  0.1511 -0.8986 -0.4232
  159MOL0     C20912   2.672   3.888   3.847  0.7548 -0.4865 -0.3951
  159MOL0     C20913   2.593   3.777   3.890 -0.7170  0.6162  0.4308
  159MOL0     O20914   2.460   3.776   3.873  0.3544  0.0096  0.5884
  159MOL0     C20915   2.387   3.659   3.925 -0.0619  0.5217 -0.7289
  159MOL0     C20916   2.240   3.687   3.956  0.3362  0.1189 -0.5742
  159MOL0     C20917   2.156   3.786   3.868 -0.4836 -0.4652 -0.1723
  159MOL0     C20918   2.006   3.787   3.912 -0.7825 -0.2968 -0.0345
  159MOL0     C20919   2.007   3.853   4.044 -0.3414 -0.1193 -0.2440
  159MOL0     C20920   2.009   3.907   4.152  0.2382 -0.1185 -0.0127
  159MOL0     C20921   2.665   3.663   3.926 -0.7977 -0.7134  0.1526
  159MOL0     C20922   2.805   3.658   3.922  0.7434  0.1697  0.7691
  159MOL0     H20923   3.190   3.477   4.099  2.3488 -1.5025  5.0944
  159MOL0     H20924   3.424   3.455   4.158  1.4768 -0.1350 -0.0287
  159MOL0     H20925   3.739   3.650   4.165  1.8095  2.0049 -0.8454
  159MOL0     H20926   3.636   3.757   4.061 -1.4159 -0.7896 -0.7765
  159MOL0     H20927   3.847   3.785   3.958  0.6268  0.4310 -3.2861
  159MOL0     H20928   3.768   3.658   3.860 -2.3770  2.7789  0.3977
  159MOL0     H20929   3.886   3.486   4.016  0.1964 -0.2684  1.3152
  159MOL0     H20930   3.965   3.626   4.089  1.0513  0.2361  0.1675
  159MOL0     H20931   3.983   3.545   3.798 -0.6396  1.3213 -0.8119
  159MOL0     H20932   4.065   3.685   3.864  3.0589 -0.9981  0.4946
  159MOL0     H20933   4.115   3.383   3.895 -0.6511 -0.3211 -2.2210
  159MOL0     H20934   4.171   3.496   4.020 -0.7135  0.3869 -0.3059
  159MOL0     H20935   4.311   3.616   3.861 -2.1955  1.4259 -3.2193
  159MOL0     H20936   4.261   3.523   3.731 -0.5168 -2.6689 -0.3442
  159MOL0     H20937   4.411   3.436   3.986 -0.6992  0.4188  0.3077
  159MOL0     H20938   4.326   3.318   3.877 -4.9777  2.7729  2.2706
  159MOL0     H20939   4.535   3.537   3.795  0.1625 -0.1743 -2.1545
  159MOL0     H20940   4.488   3.418   3.680 -1.5910  1.6221 -0.3245
  159MOL0     H20941   4.595   3.317   4.040 -0.2790  0.0857  0.4299
  159MOL0     H20942   4.821   3.020   3.991 -0.3183 -0.1099  1.0773
  159MOL0     H20943   4.748   3.113   4.119  0.5110 -0.4919  0.5660
  159MOL0     H20944   4.990   3.099   4.156 -0.0588 -0.2877 -0.3180
  159MOL0     H20945   4.930   3.260   4.122 -2.6003  0.7980 -1.5063
  159MOL0     H20946   5.034   3.107   3.882 -1.5383 -1.2676  1.3919
  159MOL0     H20947   5.031   3.280   3.901  0.6104  0.1456 -0.6367
  159MOL0     H20948   5.203   3.067   4.029 -1.6115 -0.2540  1.3352
  159MOL0     H20949   5.216   3.236   4.095 -0.9435  1.2967 -0.2833
  159MOL0     H20950   5.403   3.333   3.713 -0.2188  0.8540  0.5969
  159MOL0     H20951   5.619   3.245   3.608  2.1281  0.8601  1.3932
  159MOL0     H20952   6.052   3.108   3.646  2.1273  0.2144  1.5511
  159MOL0     H20953   6.272   3.032   3.591  0.0660 -0.3597  0.4381
  159MOL0     H20954   6.450   2.997   3.699 -1.3496  0.7076 -1.5930
  159MOL0     H20955   6.471   2.950   3.528 -4.0935  1.9470  0.7438
  159MOL0     H20956   6.605   2.791   3.734  1.1755  0.3497 -0.3282
  159MOL0     H20957   6.695   2.938   3.672  0.7762 -0.7799 -2.0324
  159MOL0     H20958   6.673   2.854   3.436  2.8195 -1.0075 -0.6987
  159MOL0     H20959   6.596   2.710   3.505 -2.1315  0.7262  1.7354
  159MOL0     H20960   6.816   2.678   3.637  2.1217 -0.2143 -0.1967
  159MOL0     H20961   6.834   2.650   3.461 -0.6441  0.3213 -0.1989
  159MOL0     H20962   6.926   2.898   3.613 -2.3157 -0.2908  0.6966
  159MOL0     H20963   6.887   2.909   3.442  0.4191 -1.0568 -1.4009
  159MOL0     H20964   7.028   2.735   3.381 -1.1110 -0.0064  0.5809
  159MOL0     H20965   7.068   2.693   3.552 -2.7588  0.1808  0.2804
  159MOL0     H20966   7.164   2.918   3.359 -1.4615 -1.9568 -1.3607
  159MOL0     H20967   7.147   2.964   3.527  1.7928 -0.0523  0.0661
  159MOL0     H20968   7.317   2.727   3.460  2.8042  0.1097  1.1359
  159MOL0     H20969   7.288   2.808   3.609 -2.9261  0.7790 -0.4227
  159MOL0     H20970   6.211   2.661   3.770 -2.4764 -0.5588 -1.1975
  159MOL0     H20971   5.976   2.740   3.839  1.1470 -0.5293  0.7606
  159MOL0     H20972   5.639   2.959   3.928 -0.4829 -0.8164 -3.0639
  159MOL0     H20973   5.422   3.026   4.014 -2.2079 -1.3706 -2.3532
  159MOL0     H20974   3.526   3.718   3.837  1.5644 -2.9259  1.0822
  159MOL0     H20975   3.290   3.745   3.781  2.6572 -1.4725 -1.9870
  159MOL0     H20976   2.875   3.961   3.805  1.5966 -0.9898  1.4477
  159MOL0     H20977   2.605   3.964   3.808 -1.1689 -1.4827  0.8436
  159MOL0     H20978   2.416   3.635   4.027 -3.5342  3.0975  1.0907
  159MOL0     H20979   2.396   3.578   3.852 -1.4288  1.3944 -1.9092
  159MOL0     H20980   2.199   3.588   3.937  2.0175 -0.1285 -3.4924
  159MOL0     H20981   2.221   3.716   4.060 -1.2545  0.5380 -0.9562
  159MOL0     H20982   2.155   3.741   3.768  1.5039 -0.3689 -0.2689
  159MOL0     H20983   2.201   3.885   3.855 -2.5614  0.2807 -2.7159
  159MOL0     H20984   1.953   3.852   3.841  1.7059 -0.1237 -1.8711
  159MOL0     H20985   1.963   3.687   3.911 -0.8673 -0.2648 -1.2587
  159MOL0     H20986   2.027   3.972   4.235  1.9892  0.4767 -0.8124
  159MOL0     H20987   2.621   3.567   3.949  1.2534 -2.3281 -2.0753
  159MOL0     H20988   2.853   3.568   3.959  1.5539  0.6051  0.7835
  160MOL0     O20989   8.916   2.513   1.835 -0.5847 -0.0782  0.6533
  160MOL0     C20990   8.941   2.456   1.944  0.7391  0.2025 -0.0971
  160MOL0     O20991   8.840   2.398   2.020 -0.2321 -0.0670  0.2294
  160MOL0     C20992   8.712   2.406   1.981 -0.2126  0.1774 -0.5872
  160MOL0     C20993   8.650   2.275   1.955  0.5481 -0.2186  0.6374
  160MOL0     C20994   8.514   2.266   1.918  0.7398 -0.8306 -0.0292
  160MOL0     C20995   8.439   2.384   1.908 -0.4782  0.4473  0.1035
  160MOL0     O20996   8.308   2.369   1.876  0.3056 -0.2008  0.6285
  160MOL0     C20997   8.221   2.432   1.956  0.4422  0.1164  0.2694
  160MOL0     C20998   8.100   2.338   1.960  0.0996  0.3123 -0.9459
  160MOL0     C20999   7.988   2.416   2.019  0.8867 -0.3827 -0.7535
  160MOL0     C21000   7.868   2.321   2.041 -0.7404 -0.3312  0.3020
  160MOL0     C21001   7.744   2.321   1.940  0.2528  0.1789  0.7886
  160MOL0     C21002   7.651   2.211   1.998  1.2413 -0.7659 -0.3628
  160MOL0     C21003   7.500   2.199   1.946 -0.6447 -0.3579 -0.3150
  160MOL0     C21004   7.514   2.154   1.798  0.4462 -0.1668  0.0725
  160MOL0     N21005   7.382   2.171   1.740  0.5171 -0.8504 -0.5561
  160MOL0     C21006   7.315   2.293   1.721  0.6892  0.9136 -0.0925
  160MOL0     C21007   7.185   2.245   1.705 -0.2377  0.6291 -0.3680
  160MOL0     C21008   7.056   2.320   1.680 -0.0041 -0.0607  0.6481
  160MOL0     C21009   6.917   2.245   1.701 -0.0839 -0.6159  0.1188
  160MOL0     C21010   6.802   2.343   1.682 -0.9249 -0.1848 -0.5453
  160MOL0     C21011   6.663   2.274   1.702  0.5222 -0.1761  0.5574
  160MOL0     O21012   6.565   2.375   1.691 -0.4841 -1.1680  0.4048
  160MOL0     C21013   6.432   2.350   1.722 -0.2466 -1.1315  0.0191
  160MOL0     C21014   6.390   2.227   1.760  0.6060  0.4738 -0.5446
  160MOL0     C21015   6.256   2.198   1.761 -0.5589 -0.1837 -0.5338
  160MOL0     C21016   6.159   2.294   1.728  0.2741  0.3689 -0.7742
  160MOL0     C21017   6.015   2.271   1.742  0.9529  0.9834 -0.1060
  160MOL0     O21018   5.936   2.381   1.776 -0.0479 -0.5664 -0.0708
  160MOL0     C21019   5.808   2.361   1.827  0.8763 -0.3497  0.7852
  160MOL0     C21020   5.764   2.472   1.900  1.0057  0.7326  0.0985
  160MOL0     C21021   5.625   2.480   1.945 -0.1345 -0.0082 -0.0267
  160MOL0     C21022   5.538   2.374   1.903 -1.0405 -1.0137 -0.0995
  160MOL0     O21023   5.399   2.383   1.925 -0.1123 -0.2981  0.0478
  160MOL0     C21024   5.348   2.472   2.030 -0.1514  0.0881  0.1675
  160MOL0     C21025   5.205   2.429   2.068 -0.7379 -0.3769  0.5288
  160MOL0     C21026   5.102   2.465   1.962 -0.0032  0.9246 -0.1234
  160MOL0     C21027   4.965   2.447   2.014 -0.1619  0.4654  0.2975
  160MOL0     C21028   4.863   2.494   1.901 -0.2513 -0.2750 -0.5205
  160MOL0     C21029   4.756   2.588   1.962 -0.7022  0.1206  0.1223
  160MOL0     C21030   4.677   2.516   2.065  0.3197  0.2797  0.2232
  160MOL0     C21031   4.593   2.616   2.148  0.3497  0.2310  0.4956
  160MOL0    Cl21032   4.480   2.699   2.044 -0.4045  0.6602 -0.2493
  160MOL0     C21033   5.584   2.264   1.849  0.8843  0.7742  0.3932
  160MOL0     C21034   5.717   2.256   1.815  0.3044 -0.4337  0.4478
  160MOL0     O21035   5.972   2.153   1.749  0.2142  0.3296  0.9372
  160MOL0     C21036   6.204   2.418   1.683  0.1882  0.7504  0.6591
  160MOL0     C21037   6.338   2.445   1.679 -0.5191 -0.4638 -0.5819
  160MOL0     N21038   7.180   2.111   1.740  0.1337  0.3727  0.1471
  160MOL0     N21039   7.298   2.063   1.759 -0.8780 -0.1317 -0.0026
  160MOL0     C21040   8.497   2.508   1.935 -0.4618 -0.0581 -1.0586
  160MOL0     C21041   8.635   2.518   1.979  0.5133 -0.2937 -0.1390
  160MOL0     C21042   9.075   2.465   2.001  0.0807 -0.1398 -0.3571
  160MOL0     C21043   9.102   2.399   2.123  0.2162  0.0199  0.5076
  160MOL0     C21044   9.233   2.410   2.180  0.4397 -0.6776  0.6158
  160MOL0     C21045   9.332   2.494   2.126 -0.1460  0.2469  0.0630
  160MOL0     O21046   9.463   2.486   2.191  0.4546 -0.1460  0.4035
  160MOL0     C21047   9.576   2.560   2.132 -0.2189  0.0333 -0.9921
  160MOL0     C21048   9.563   2.705   2.151  0.2577 -0.5879 -0.1931
  160MOL0     C21049   9.498   2.754   2.287 -0.8543 -0.3539 -0.1885
  160MOL0     C21050   9.546   2.897   2.318 -0.1809  0.4312  0.3375
  160MOL0     C21051   9.457   2.969   2.404 -0.0401 -0.2776 -0.1573
  160MOL0     C21052   9.371   3.021   2.483 -0.9988  0.1157  1.5207
  160MOL0     C21053   9.291   2.559   2.001 -0.4362  0.3374  0.1901
  160MOL0     C21054   9.165   2.547   1.943  0.2838  0.1681 -0.3857
  160MOL0     H21055   8.718   2.191   1.952  1.5635  0.5563  1.2151
  160MOL0     H21056   8.465   2.171   1.900  0.3355 -0.3085 -1.9624
  160MOL0     H21057   8.193   2.530   1.915 -0.1857  0.3241  1.1574
  160MOL0     H21058   8.260   2.457   2.055  1.9166 -2.5961  0.4538
  160MOL0     H21059   8.122   2.254   2.027  0.3610  1.0459 -0.1053
  160MOL0     H21060   8.070   2.301   1.861  1.3216 -1.1098 -0.8282
  160MOL0     H21061   7.959   2.500   1.956 -2.9617 -0.4861  0.5869
  160MOL0     H21062   8.011   2.452   2.119  0.6058 -0.5432 -0.6289
  160MOL0     H21063   7.904   2.218   2.040 -0.8081 -0.3995 -2.5488
  160MOL0     H21064   7.827   2.344   2.140 -1.1703  2.0136 -0.3666
  160MOL0     H21065   7.780   2.295   1.840  1.7085  1.2245  1.0090
  160MOL0     H21066   7.695   2.419   1.939 -1.7055 -0.6921 -2.2001
  160MOL0     H21067   7.651   2.220   2.107 -0.9810 -0.5536 -0.3250
  160MOL0     H21068   7.710   2.122   1.975 -1.0348 -1.7249 -3.1898
  160MOL0     H21069   7.436   2.133   2.006 -1.5207  0.9589  0.2399
  160MOL0     H21070   7.452   2.296   1.952  0.5683  0.2015  4.4853
  160MOL0     H21071   7.555   2.053   1.793  2.0858  0.4963 -0.6117
  160MOL0     H21072   7.580   2.214   1.734  1.1454  0.7340  1.5783
  160MOL0     H21073   7.354   2.392   1.702  0.0311  1.0828 -0.5576
  160MOL0     H21074   7.060   2.371   1.583  1.9089 -1.5076 -0.0923
  160MOL0     H21075   7.057   2.415   1.735  2.1054  0.8719 -0.8293
  160MOL0     H21076   6.919   2.208   1.804 -3.4044  1.1315  0.9544
  160MOL0     H21077   6.925   2.160   1.632  1.7896 -1.4856  1.3265
  160MOL0     H21078   6.810   2.424   1.755 -0.9144 -0.4859 -0.2094
  160MOL0     H21079   6.799   2.394   1.585 -1.2833  2.6817  0.8736
  160MOL0     H21080   6.661   2.221   1.798 -1.5462  0.0702  0.6975
  160MOL0     H21081   6.676   2.198   1.624  2.1807  0.9021 -0.2746
  160MOL0     H21082   6.452   2.147   1.800 -0.6336 -0.6274 -0.7565
  160MOL0     H21083   6.228   2.105   1.809 -0.9592  0.8772  1.4355
  160MOL0     H21084   5.828   2.559   1.910  0.6930  0.8655  1.0286
  160MOL0     H21085   5.596   2.579   1.979 -1.1307  0.3620 -1.8600
  160MOL0     H21086   5.347   2.576   1.996  0.2007  0.1179  0.2380
  160MOL0     H21087   5.407   2.472   2.123  1.2727 -0.2850 -0.7000
  160MOL0     H21088   5.174   2.482   2.158  0.0796  1.1889 -0.0601
  160MOL0     H21089   5.213   2.322   2.089  3.7198 -0.0224  1.7220
  160MOL0     H21090   5.123   2.398   1.878 -2.1468 -1.5476  1.1491
  160MOL0     H21091   5.101   2.571   1.936 -0.1854  1.3260  1.4206
  160MOL0     H21092   4.955   2.346   2.056  1.7536 -0.7843 -2.0131
  160MOL0     H21093   4.953   2.517   2.097 -0.5192 -1.8175  2.2956
  160MOL0     H21094   4.824   2.405   1.850 -1.8585  1.2269 -2.0672
  160MOL0     H21095   4.909   2.550   1.819 -0.4642  1.5862  0.5793
  160MOL0     H21096   4.704   2.639   1.881  0.6625  2.3039  0.5385
  160MOL0     H21097   4.813   2.663   2.018  3.2493 -3.0438  0.8604
  160MOL0     H21098   4.609   2.444   2.020  0.8691 -3.2451  4.3662
  160MOL0     H21099   4.739   2.459   2.135  0.5280 -0.7524 -0.7904
  160MOL0     H21100   4.665   2.683   2.196 -0.1654  1.7340 -0.7562
  160MOL0     H21101   4.529   2.554   2.212  0.6201 -3.5185 -2.5159
  160MOL0     H21102   5.524   2.182   1.810  1.0986  0.2500  1.1584
  160MOL0     H21103   5.738   2.160   1.769  1.0473 -0.3046  0.5032
  160MOL0     H21104   6.136   2.496   1.651  0.0652  0.2905 -0.2419
  160MOL0     H21105   6.371   2.535   1.628 -2.3804  2.1926  2.5530
  160MOL0     H21106   8.434   2.595   1.921 -0.3312  0.0415 -1.0293
  160MOL0     H21107   8.678   2.616   1.994  1.7151 -0.8005 -0.1707
  160MOL0     H21108   9.027   2.350   2.183 -0.5241  2.0029  1.2790
  160MOL0     H21109   9.254   2.358   2.273  1.9489 -1.3529 -0.0732
  160MOL0     H21110   9.592   2.544   2.025  2.8929  3.2863 -1.2283
  160MOL0     H21111   9.668   2.516   2.171  0.0701 -0.7399 -2.4992
  160MOL0     H21112   9.664   2.745   2.143  0.4653 -0.8638  0.8284
  160MOL0     H21113   9.505   2.753   2.072  1.8941 -0.5588 -1.4371
  160MOL0     H21114   9.524   2.689   2.371 -3.6749 -1.7254 -0.2860
  160MOL0     H21115   9.390   2.745   2.277 -1.0935 -0.7637  2.2048
  160MOL0     H21116   9.637   2.889   2.378  1.3142 -0.7538 -1.9511
  160MOL0     H21117   9.576   2.954   2.230  4.5324 -2.5768 -0.3625
  160MOL0     H21118   9.305   3.064   2.556 -4.9421 -3.2233  0.3081
  160MOL0     H21119   9.358   2.632   1.956  0.0275  2.1540  3.4826
  160MOL0     H21120   9.139   2.591   1.848 -1.5751  2.3200  1.0189
  161MOL0     O21121   4.453   0.683   9.364  0.8915  1.3161  0.2902
  161MOL0     C21122   4.526   0.598   9.308 -0.7608  0.3787 -0.3064
  161MOL0     O21123   4.485   0.503   9.218  0.9761  0.5145  0.3280
  161MOL0     C21124   4.360   0.481   9.189 -0.0782  0.1296  0.1156
  161MOL0     C21125   4.254   0.504   9.268  0.6574  0.4588  0.0171
  161MOL0     C21126   4.127   0.463   9.225 -0.4119 -0.3795  0.0272
  161MOL0     C21127   4.104   0.415   9.094  0.5151  0.0806  0.8424
  161MOL0     O21128   3.985   0.376   9.046  0.3821  0.1404  0.4842
  161MOL0     C21129   3.883   0.341   9.137  0.2333 -1.1718 -0.7327
  161MOL0     C21130   3.765   0.270   9.071  0.0612 -0.2470 -0.8956
  161MOL0     C21131   3.649   0.263   9.167 -0.1490 -0.4928 -1.0082
  161MOL0     C21132   3.538   0.186   9.103  0.5308  0.4821  0.6936
  161MOL0     C21133   3.408   0.186   9.182  0.1501 -0.0185  0.3028
  161MOL0     C21134   3.300   0.119   9.101  0.6218  0.0291  0.1985
  161MOL0     C21135   3.173   0.128   9.192  0.2238  0.5901  0.5787
  161MOL0     C21136   3.053   0.090   9.094  0.2971 -0.2563  0.3341
  161MOL0     N21137   2.935   0.037   9.168 -0.1068  0.7363 -0.1921
  161MOL0     C21138   2.895   0.079   9.293 -0.3086 -0.1923 -0.5186
  161MOL0     C21139   2.770   0.031   9.311 -0.3900 -0.0296 -0.1382
  161MOL0     C21140   2.693   0.097   9.419  0.4259  0.1796  0.3520
  161MOL0     C21141   2.567   0.024   9.446  1.0219 -0.1288 -0.0880
  161MOL0     C21142   2.605  -0.114   9.515  1.0392  0.0048  0.6006
  161MOL0     C21143   2.486  -0.184   9.574  0.6191  0.0657 -0.5190
  161MOL0     O21144   2.391  -0.224   9.477  0.5694 -0.3741 -0.2670
  161MOL0     C21145   2.265  -0.236   9.527  0.6038 -0.4714 -0.9468
  161MOL0     C21146   2.162  -0.209   9.442  0.9980  0.8671  0.0633
  161MOL0     C21147   2.030  -0.228   9.484 -0.7974  0.0654  0.3997
  161MOL0     C21148   1.996  -0.279   9.605  0.6063  0.6655  0.1665
  161MOL0     C21149   1.856  -0.310   9.645  0.1458  0.2043  0.1571
  161MOL0     O21150   1.829  -0.351   9.767  0.0910 -0.8080 -0.2128
  161MOL0     C21151   1.697  -0.339   9.813 -1.1036 -0.1072 -0.0498
  161MOL0     C21152   1.670  -0.291   9.940  0.2194  0.2857 -0.3158
  161MOL0     C21153   1.536  -0.286   9.991  0.1380 -0.0586 -0.3151
  161MOL0     C21154   1.430  -0.321   9.913  0.3704 -0.4042 -0.0865
  161MOL0     O21155   1.302  -0.315   9.959  0.1026  0.4477 -0.1959
  161MOL0     C21156   1.264  -0.425  10.040 -0.4506 -0.0129  1.0538
  161MOL0     C21157   1.138  -0.388  10.127 -0.2666 -0.2294 -0.4062
  161MOL0     C21158   1.177  -0.272  10.221  0.1280  0.0557  0.1324
  161MOL0     C21159   1.065  -0.257  10.329 -0.2338 -0.1946 -0.2143
  161MOL0     C21160   1.054  -0.130  10.419 -0.1572 -0.1973 -0.8013
  161MOL0     C21161   0.919  -0.116  10.486  0.7197  0.2748 -0.1222
  161MOL0     C21162   0.928  -0.003  10.592 -0.0038 -0.5382  0.5011
  161MOL0     C21163   0.801  -0.008  10.681 -0.0009  0.2591  0.5016
  161MOL0    Cl21164   0.674   0.085  10.598 -0.1058  0.1313  0.3610
  161MOL0     C21165   1.455  -0.375   9.783  0.8591 -0.1902 -0.8295
  161MOL0     C21166   1.589  -0.385   9.736 -0.1523  0.7982 -0.5641
  161MOL0     O21167   1.770  -0.276   9.560  0.3867 -0.2366 -0.1102
  161MOL0     C21168   2.100  -0.300   9.698 -0.3135  0.2497 -0.3840
  161MOL0     C21169   2.232  -0.273   9.661 -0.2491 -0.1333  0.1126
  161MOL0     N21170   2.733  -0.040   9.190  0.3508 -0.2069  0.3208
  161MOL0     N21171   2.833  -0.034   9.107 -0.0956  0.3002 -0.2895
  161MOL0     C21172   4.214   0.400   9.014 -0.2644  0.4002  0.3101
  161MOL0     C21173   4.342   0.438   9.059  0.4261 -0.9698 -0.0901
  161MOL0     C21174   4.670   0.600   9.330 -0.1124  0.0486 -0.8449
  161MOL0     C21175   4.742   0.715   9.379  0.3944  0.2070 -0.6556
  161MOL0     C21176   4.884   0.703   9.408  0.5825  0.1761 -0.0307
  161MOL0     C21177   4.948   0.581   9.391 -0.1129  0.3216  0.3343
  161MOL0     O21178   5.083   0.581   9.426  0.5403  0.5158  0.4864
  161MOL0     C21179   5.149   0.458   9.440 -0.4343 -0.2197  0.1817
  161MOL0     C21180   5.299   0.474   9.479 -0.5005 -0.1462  0.2789
  161MOL0     C21181   5.383   0.500   9.355 -1.0413  0.2921  1.0859
  161MOL0     C21182   5.539   0.485   9.369 -0.6026 -0.1372 -0.1985
  161MOL0     C21183   5.578   0.351   9.420 -0.2684 -0.6577 -0.7041
  161MOL0     C21184   5.620   0.250   9.471 -0.0811 -0.7558  0.4505
  161MOL0     C21185   4.874   0.469   9.349 -0.7885  0.2650 -0.1147
  161MOL0     C21186   4.742   0.478   9.316  0.2136 -0.5350  0.3387
  161MOL0     H21187   4.263   0.535   9.371  3.8968  0.9209 -0.3033
  161MOL0     H21188   4.047   0.475   9.297 -0.0095 -1.1154  0.6154
  161MOL0     H21189   3.846   0.436   9.177 -1.1116 -1.9916  0.0274
  161MOL0     H21190   3.920   0.271   9.213 -0.1901 -0.1578  0.4530
  161MOL0     H21191   3.801   0.167   9.063 -0.3975 -0.2976 -2.7925
  161MOL0     H21192   3.737   0.297   8.969  2.0511  0.5079 -1.2860
  161MOL0     H21193   3.613   0.363   9.189  1.4377 -0.1273  0.1214
  161MOL0     H21194   3.683   0.207   9.255 -0.1540  3.2980  1.6465
  161MOL0     H21195   3.513   0.236   9.009  0.7203  0.2223  0.5047
  161MOL0     H21196   3.575   0.084   9.089 -0.7666  0.2564 -1.7197
  161MOL0     H21197   3.383   0.286   9.220  2.4132  0.6467  0.1857
  161MOL0     H21198   3.426   0.129   9.274 -0.6069  0.0040  0.4790
  161MOL0     H21199   3.323   0.016   9.074 -0.9715 -0.2627 -0.1490
  161MOL0     H21200   3.273   0.178   9.013  0.1264  0.2635  0.5008
  161MOL0     H21201   3.175   0.054   9.272  1.3792  0.8078  0.7652
  161MOL0     H21202   3.151   0.231   9.222  1.6224  0.6996  1.2873
  161MOL0     H21203   3.085   0.014   9.023  1.3266 -0.5225  1.0709
  161MOL0     H21204   3.026   0.167   9.021 -0.8649  0.2296  1.2289
  161MOL0     H21205   2.945   0.137   9.370 -1.0965  0.9325 -0.8268
  161MOL0     H21206   2.663   0.201   9.403  0.4949  0.4797  1.9625
  161MOL0     H21207   2.757   0.096   9.508  0.5601 -0.8476  0.2624
  161MOL0     H21208   2.501   0.009   9.360 -1.2539  2.8790  0.9171
  161MOL0     H21209   2.510   0.089   9.514 -1.0925 -1.0580 -0.8791
  161MOL0     H21210   2.645  -0.180   9.437  0.5630 -0.1731  0.5045
  161MOL0     H21211   2.682  -0.098   9.591  0.2452 -0.3250  1.4902
  161MOL0     H21212   2.441  -0.122   9.652  0.7012 -2.1380  1.4161
  161MOL0     H21213   2.520  -0.275   9.624  1.1400  0.9265  0.7616
  161MOL0     H21214   2.180  -0.173   9.341 -0.2931 -1.7227 -1.1980
  161MOL0     H21215   1.951  -0.200   9.415 -0.7488  2.8250  1.3630
  161MOL0     H21216   1.750  -0.257  10.004  1.0145 -1.7704 -0.1478
  161MOL0     H21217   1.524  -0.237  10.086 -0.8464  0.6696 -0.7934
  161MOL0     H21218   1.351  -0.454  10.100 -0.3786 -1.8412  0.1126
  161MOL0     H21219   1.235  -0.508   9.975  2.6179 -1.0815  0.8918
  161MOL0     H21220   1.119  -0.480  10.183  0.7435 -0.2327 -0.0402
  161MOL0     H21221   1.046  -0.374  10.070 -0.3733 -1.4271 -0.5597
  161MOL0     H21222   1.182  -0.179  10.164 -1.6220  1.3127  1.8934
  161MOL0     H21223   1.274  -0.298  10.264  0.2939  2.1783  1.1954
  161MOL0     H21224   0.973  -0.275  10.273  0.4453 -2.8203 -0.6252
  161MOL0     H21225   1.075  -0.341  10.399 -0.4921 -0.5220 -0.5627
  161MOL0     H21226   1.057  -0.038  10.360  0.4097 -0.2545 -0.8612
  161MOL0     H21227   1.134  -0.120  10.493  0.9062  1.1874 -2.0940
  161MOL0     H21228   0.893  -0.213  10.530 -0.6500  0.3476 -0.6996
  161MOL0     H21229   0.844  -0.091  10.410 -1.2909 -0.7806  1.4330
  161MOL0     H21230   1.012  -0.024  10.660  1.3671  1.1595 -0.5860
  161MOL0     H21231   0.929   0.096  10.547 -1.9216 -0.0565  1.4087
  161MOL0     H21232   0.829   0.030  10.779  0.1706 -1.8604  1.3314
  161MOL0     H21233   0.777  -0.114  10.691  0.4151  0.2655  1.6103
  161MOL0     H21234   1.385  -0.411   9.708  1.5008 -0.2174 -1.4318
  161MOL0     H21235   1.606  -0.424   9.636  0.9565 -1.7733  0.5705
  161MOL0     H21236   2.079  -0.317   9.803 -1.6596 -0.3919 -0.7288
  161MOL0     H21237   2.315  -0.284   9.730  0.9727 -1.0094 -1.4207
  161MOL0     H21238   4.208   0.360   8.913 -2.5217 -2.3592  1.3709
  161MOL0     H21239   4.423   0.426   8.988 -0.3815  2.8417 -1.9523
  161MOL0     H21240   4.692   0.809   9.400 -0.4521 -0.5133  0.7670
  161MOL0     H21241   4.931   0.793   9.447 -0.8639  0.5989  0.8065
  161MOL0     H21242   5.141   0.410   9.342  1.3762  1.4943 -0.8792
  161MOL0     H21243   5.105   0.390   9.514 -1.2272  1.4361  1.3085
  161MOL0     H21244   5.299   0.559   9.548 -2.3206 -1.1173  1.5484
  161MOL0     H21245   5.325   0.384   9.535 -0.1116 -0.3409 -0.2003
  161MOL0     H21246   5.373   0.604   9.324 -1.8272 -0.5702 -1.9525
  161MOL0     H21247   5.354   0.445   9.265  1.9797  0.2168  0.0425
  161MOL0     H21248   5.578   0.491   9.268 -3.1164 -0.3189 -1.2570
  161MOL0     H21249   5.587   0.556   9.437 -1.1193 -0.4214  0.4795
  161MOL0     H21250   5.648   0.155   9.513 -0.3920 -0.4595  1.3587
  161MOL0     H21251   4.919   0.372   9.333 -1.4114  0.1948 -1.6106
  161MOL0     H21252   4.681   0.394   9.283 -0.3865  0.0330 -0.0180
  162MOL0     O21253   5.685   6.821   9.002 -0.5031  0.8213 -0.3237
  162MOL0     C21254   5.730   6.730   9.074  0.8598  0.6582 -0.3998
  162MOL0     O21255   5.656   6.664   9.173  0.4326  0.2058  0.4221
  162MOL0     C21256   5.528   6.700   9.190  0.3118  0.2820 -0.4368
  162MOL0     C21257   5.498   6.774   9.307  0.7615  0.0381  0.5064
  162MOL0     C21258   5.364   6.802   9.343  0.2779 -0.3243 -0.7465
  162MOL0     C21259   5.262   6.753   9.262  0.1911  0.1186 -0.8390
  162MOL0     O21260   5.127   6.764   9.278  0.3521 -0.1238  0.3814
  162MOL0     C21261   5.075   6.785   9.413  0.2162 -1.0429  0.2042
  162MOL0     C21262   4.922   6.782   9.406 -0.6132  0.1789  0.2187
  162MOL0     C21263   4.859   6.804   9.543  0.4904 -0.6105 -0.2586
  162MOL0     C21264   4.701   6.831   9.523  0.4100 -0.3294  0.1180
  162MOL0     C21265   4.623   6.804   9.655 -0.5462 -0.0649 -0.2107
  162MOL0     C21266   4.476   6.793   9.625 -0.0561 -0.1700 -0.5814
  162MOL0     C21267   4.404   6.752   9.762 -1.0788 -0.7585  1.1305
  162MOL0     C21268   4.262   6.699   9.741 -0.1356 -0.2896 -0.4329
  162MOL0     N21269   4.185   6.721   9.862  0.9507  0.1051 -0.0557
  162MOL0     C21270   4.145   6.842   9.911  0.1003  0.5234  0.4254
  162MOL0     C21271   4.060   6.819  10.015 -0.3900 -0.9113 -0.3113
  162MOL0     C21272   3.976   6.915  10.095 -0.4344 -0.1875  0.9567
  162MOL0     C21273   3.833   6.870  10.099  0.9658  0.2109 -0.0506
  162MOL0     C21274   3.779   6.835  10.237  0.0078  0.0860  0.0246
  162MOL0     C21275   3.625   6.816  10.217 -0.5299 -0.6555  0.4340
  162MOL0     O21276   3.540   6.928  10.211  0.4452  0.1950  0.0715
  162MOL0     C21277   3.409   6.898  10.193 -0.4587  0.0024  0.1075
  162MOL0     C21278   3.328   7.011  10.184 -0.3482  0.7298  1.3760
  162MOL0     C21279   3.201   6.997  10.141 -0.2044  0.2930  0.5069
  162MOL0     C21280   3.144   6.877  10.100 -0.7819  0.5807  1.1494
  162MOL0     C21281   3.007   6.861  10.044  0.2914 -0.1366 -0.7171
  162MOL0     O21282   2.955   6.742  10.002 -0.1198  0.1253 -0.2252
  162MOL0     C21283   2.824   6.740   9.959 -0.0045 -0.4438  0.8325
  162MOL0     C21284   2.786   6.718   9.827 -0.2387  0.3512 -0.4132
  162MOL0     C21285   2.655   6.685   9.786 -0.4637  0.1119  0.1479
  162MOL0     C21286   2.554   6.667   9.877 -0.3925  0.0479  0.0843
  162MOL0     O21287   2.429   6.642   9.823 -0.3920 -0.1215 -0.0566
  162MOL0     C21288   2.331   6.600   9.915 -0.0871  0.0190 -0.1154
  162MOL0     C21289   2.204   6.566   9.847 -0.9191  0.7455 -0.1478
  162MOL0     C21290   2.083   6.562   9.936 -0.5992 -0.7265  0.4996
  162MOL0     C21291   1.953   6.536   9.854 -0.0959 -0.7558  0.0904
  162MOL0     C21292   1.829   6.497   9.934  1.0626  0.2887 -0.2495
  162MOL0     C21293   1.705   6.472   9.837  0.0969  0.3876  0.9114
  162MOL0     C21294   1.576   6.443   9.917  0.3439  0.3535  0.1281
  162MOL0     C21295   1.463   6.387   9.827  0.6985  0.1657  0.2696
  162MOL0    Cl21296   1.399   6.515   9.719 -0.1160 -0.0747  0.1188
  162MOL0     C21297   2.592   6.685  10.013  0.0901 -0.5046 -0.4499
  162MOL0     C21298   2.722   6.725  10.051  0.2343 -0.2132  1.0141
  162MOL0     O21299   2.944   6.973  10.049  0.1572  0.6244 -0.0230
  162MOL0     C21300   3.223   6.763  10.118  0.1103 -0.0251 -0.0152
  162MOL0     C21301   3.350   6.768  10.167  0.0742  0.1634  0.9236
  162MOL0     N21302   4.074   6.688  10.047  0.8330  0.0327 -0.5144
  162MOL0     N21303   4.162   6.636   9.966  0.2864  0.5195 -0.3596
  162MOL0     C21304   5.296   6.685   9.143  0.7886 -0.1786 -0.1639
  162MOL0     C21305   5.429   6.658   9.108 -0.2866 -0.1911  0.4554
  162MOL0     C21306   5.877   6.712   9.064  0.4289 -0.6138 -0.1349
  162MOL0     C21307   5.948   6.653   9.168  0.3079 -0.3291  0.0708
  162MOL0     C21308   6.084   6.645   9.165  0.4554  0.6059  0.2655
  162MOL0     C21309   6.156   6.688   9.053 -0.2203 -0.2248  0.0916
  162MOL0     O21310   6.287   6.656   9.043  0.0872 -0.0661  1.1660
  162MOL0     C21311   6.358   6.634   8.923  0.3304  0.2065 -0.5111
  162MOL0     C21312   6.458   6.520   8.946 -0.6711 -0.5000  0.1729
  162MOL0     C21313   6.552   6.527   9.063 -0.3110 -1.4178  0.3458
  162MOL0     C21314   6.644   6.407   9.068 -0.1388  0.0946  0.4239
  162MOL0     C21315   6.727   6.388   8.953  0.0193  0.4265 -0.0526
  162MOL0     C21316   6.815   6.355   8.872 -0.2652 -0.3376  0.6235
  162MOL0     C21317   6.088   6.752   8.951  0.5260  0.0867 -0.6126
  162MOL0     C21318   5.950   6.762   8.952  0.6755  0.4386  0.4448
  162MOL0     H21319   5.588   6.804   9.360  1.1383 -0.9410  0.4486
  162MOL0     H21320   5.345   6.850   9.439  0.4867 -1.1981 -0.2637
  162MOL0     H21321   5.096   6.887   9.446 -0.7053 -0.8408  0.1788
  162MOL0     H21322   5.120   6.709   9.478  0.1635 -0.9745  0.3216
  162MOL0     H21323   4.906   6.677   9.383  1.1535 -0.0858  0.0959
  162MOL0     H21324   4.875   6.841   9.327 -1.5293 -2.4328 -1.2719
  162MOL0     H21325   4.921   6.878   9.594 -0.2542 -1.1716  1.5270
  162MOL0     H21326   4.867   6.706   9.591 -1.4247  0.1404  1.7747
  162MOL0     H21327   4.701   6.933   9.482  2.6555 -1.3006 -2.5756
  162MOL0     H21328   4.650   6.776   9.443  0.8743  0.0242 -0.4307
  162MOL0     H21329   4.639   6.893   9.716  2.0073 -1.5575  1.5052
  162MOL0     H21330   4.655   6.712   9.705 -2.1026 -0.9017 -0.6952
  162MOL0     H21331   4.462   6.707   9.557 -1.9787 -0.0823 -0.3546
  162MOL0     H21332   4.434   6.881   9.575 -3.0838 -1.9906 -1.4940
  162MOL0     H21333   4.452   6.669   9.815  1.7903  1.3108  1.9937
  162MOL0     H21334   4.398   6.837   9.831 -0.5409 -0.8828  1.3341
  162MOL0     H21335   4.265   6.591   9.722 -0.9791 -0.9419  2.5561
  162MOL0     H21336   4.206   6.749   9.661 -0.3757  0.6420  0.2964
  162MOL0     H21337   4.160   6.937   9.861  0.4340 -0.1586 -0.8203
  162MOL0     H21338   3.981   7.017  10.056  1.8266 -1.0267 -1.2875
  162MOL0     H21339   4.018   6.928  10.195  0.4527  0.1030  0.5678
  162MOL0     H21340   3.829   6.775  10.045  1.1274 -0.3923  0.9818
  162MOL0     H21341   3.780   6.940  10.034 -0.4241 -0.4008  0.3801
  162MOL0     H21342   3.833   6.747  10.273  0.2767  0.9372  1.8415
  162MOL0     H21343   3.801   6.920  10.303  0.6675  0.5586 -0.7878
  162MOL0     H21344   3.596   6.763  10.309  2.7824  0.7907  2.4921
  162MOL0     H21345   3.616   6.744  10.136  0.6625 -1.2659  0.8163
  162MOL0     H21346   3.365   7.110  10.210  1.8674 -0.8337  4.9327
  162MOL0     H21347   3.139   7.086  10.136  0.6077  1.0231  2.4214
  162MOL0     H21348   2.855   6.734   9.745  1.4460  0.3245  0.9339
  162MOL0     H21349   2.636   6.687   9.680 -1.5312 -0.3074  0.3135
  162MOL0     H21350   2.309   6.670   9.997  0.5344 -1.3437  1.2713
  162MOL0     H21351   2.370   6.508   9.961 -0.5475  0.2734  0.8113
  162MOL0     H21352   2.217   6.466   9.803 -0.1652  0.1654  1.3169
  162MOL0     H21353   2.192   6.641   9.768  2.0469  2.4718  0.9109
  162MOL0     H21354   2.073   6.657   9.990  1.5129 -0.5922  0.7357
  162MOL0     H21355   2.102   6.490  10.016 -0.5705  1.1136  2.2212
  162MOL0     H21356   1.943   6.629   9.797  1.2317 -2.2142 -2.7194
  162MOL0     H21357   1.978   6.455   9.785  1.0597 -1.4021  1.2248
  162MOL0     H21358   1.802   6.573  10.008  0.2994 -0.9421  0.7659
  162MOL0     H21359   1.851   6.410   9.996  0.9507 -0.7733 -1.6507
  162MOL0     H21360   1.735   6.392   9.768 -0.4316  1.5815 -0.7544
  162MOL0     H21361   1.687   6.562   9.778 -1.1428 -0.9865 -0.9168
  162MOL0     H21362   1.598   6.358   9.984  2.2102 -0.7448 -1.7603
  162MOL0     H21363   1.543   6.530   9.974 -1.5826 -0.9496  1.1454
  162MOL0     H21364   1.383   6.356   9.895 -0.0918  1.4671 -0.0366
  162MOL0     H21365   1.485   6.295   9.773 -2.0810 -2.3887  3.0239
  162MOL0     H21366   2.530   6.665  10.100 -2.4639 -2.9977 -2.6159
  162MOL0     H21367   2.749   6.750  10.153 -1.3702  0.9871  1.1806
  162MOL0     H21368   3.177   6.667  10.096 -0.7590  0.1373  1.0091
  162MOL0     H21369   3.411   6.680  10.183  0.8569  0.7915  1.4354
  162MOL0     H21370   5.216   6.649   9.078 -1.6408 -2.9819  3.9112
  162MOL0     H21371   5.447   6.602   9.016  0.2786 -3.3501  2.3321
  162MOL0     H21372   5.902   6.611   9.257 -0.0623  1.0346  0.5439
  162MOL0     H21373   6.139   6.594   9.243 -3.2740 -1.5290  1.7305
  162MOL0     H21374   6.414   6.725   8.900  0.7739  0.7247  2.2622
  162MOL0     H21375   6.288   6.613   8.842  0.7329 -0.0750 -0.7892
  162MOL0     H21376   6.412   6.421   8.947  1.3502 -1.4890 -0.1104
  162MOL0     H21377   6.523   6.521   8.858 -0.7493  1.8960  0.0600
  162MOL0     H21378   6.482   6.524   9.148 -0.0735 -0.8453  0.5696
  162MOL0     H21379   6.609   6.620   9.063 -0.7043 -1.1591  1.1187
  162MOL0     H21380   6.704   6.417   9.158  2.1135 -0.1581 -0.9750
  162MOL0     H21381   6.586   6.314   9.075 -1.5771  0.7919 -1.3387
  162MOL0     H21382   6.888   6.322   8.801  0.3953 -3.1839  2.4282
  162MOL0     H21383   6.150   6.795   8.873  0.2568  0.2527 -0.7356
  162MOL0     H21384   5.902   6.816   8.871 -0.0833 -1.1995 -0.2525
  163MOL0     O21385  10.821   9.670  10.929  0.2932 -0.2310  1.0210
  163MOL0     C21386  10.860   9.744  11.015 -0.0689 -0.1311  0.1862
  163MOL0     O21387  10.783   9.821  11.095 -0.0995 -1.0842  0.4677
  163MOL0     C21388  10.648   9.837  11.081 -0.0996  0.6236  0.2519
  163MOL0     C21389  10.576   9.826  10.962  0.7002 -0.1611 -0.3245
  163MOL0     C21390  10.436   9.819  10.969  0.4266 -0.6074  1.3507
  163MOL0     C21391  10.363   9.825  11.091 -0.5091  0.0086  0.2558
  163MOL0     O21392  10.228   9.826  11.103 -0.4369  0.0969  0.1725
  163MOL0     C21393  10.133   9.807  10.999  0.6424 -0.7865 -0.4954
  163MOL0     C21394  10.001   9.762  11.052  0.4295 -0.1468  0.2049
  163MOL0     C21395   9.896   9.775  10.941 -0.2056  0.3562 -0.1830
  163MOL0     C21396   9.772   9.714  10.999  1.1669 -0.3919 -0.7131
  163MOL0     C21397   9.657   9.721  10.902 -0.2667 -0.0926  0.7709
  163MOL0     C21398   9.525   9.688  10.971  0.1185  0.1454  0.3524
  163MOL0     C21399   9.401   9.697  10.870 -0.2354  0.7572 -0.7122
  163MOL0     C21400   9.286   9.601  10.911 -0.3458 -0.8818 -0.7934
  163MOL0     N21401   9.168   9.646  10.841 -0.0220 -0.4040 -0.4775
  163MOL0     C21402   9.085   9.746  10.898 -0.0633  0.0315 -0.2550
  163MOL0     C21403   8.970   9.727  10.825  0.5978 -0.7798  0.0832
  163MOL0     C21404   8.858   9.826  10.840  0.7210  0.8898  0.5839
  163MOL0     C21405   8.778   9.830  10.703  0.2843  0.0630  0.0578
  163MOL0     C21406   8.672   9.932  10.704 -0.6286 -0.7213 -0.1440
  163MOL0     C21407   8.599   9.931  10.569 -0.5671  0.1417  0.3511
  163MOL0     O21408   8.519  10.043  10.555  0.8771  0.5635  0.6093
  163MOL0     C21409   8.402  10.059  10.636 -0.5250  0.4402 -0.4892
  163MOL0     C21410   8.322   9.961  10.687  0.3451  0.8394 -0.1108
  163MOL0     C21411   8.206   9.983  10.754 -0.2680  1.2549  0.1128
  163MOL0     C21412   8.161  10.107  10.776 -0.6436  0.3891  0.0506
  163MOL0     C21413   8.037  10.134  10.855 -0.2216  0.0996 -0.1755
  163MOL0     O21414   7.996  10.262  10.872  0.1602  0.4619 -0.0676
  163MOL0     C21415   7.886  10.273  10.954 -0.4208 -0.5147  0.2981
  163MOL0     C21416   7.906  10.311  11.086  0.3784 -0.2300 -0.6926
  163MOL0     C21417   7.799  10.328  11.176  0.5026  0.1901  0.6254
  163MOL0     C21418   7.666  10.320  11.128  0.0948 -0.2547  1.4285
  163MOL0     O21419   7.558  10.356  11.200 -0.3293 -0.8991  0.2390
  163MOL0     C21420   7.460  10.448  11.139  0.2360  0.5828  0.0082
  163MOL0     C21421   7.335  10.467  11.223  0.8419 -0.3560 -0.3899
  163MOL0     C21422   7.366  10.565  11.335 -0.8308  0.1514  1.0274
  163MOL0     C21423   7.242  10.597  11.428 -1.1030 -0.0431  0.2275
  163MOL0     C21424   7.276  10.704  11.538  0.5550 -0.8893  0.2963
  163MOL0     C21425   7.143  10.723  11.617  0.3050 -0.3420 -0.3403
  163MOL0     C21426   7.149  10.829  11.733 -0.2687  0.2965 -0.1318
  163MOL0     C21427   7.008  10.846  11.786 -0.1204  0.4236  0.4293
  163MOL0    Cl21428   6.992  10.971  11.904  0.1680 -0.2722 -0.2304
  163MOL0     C21429   7.648  10.276  10.994  0.5186  0.4580  0.0342
  163MOL0     C21430   7.757  10.247  10.908  0.4989  0.2637  0.2509
  163MOL0     O21431   7.986  10.041  10.916 -0.0450  0.0143 -0.1655
  163MOL0     C21432   8.241  10.214  10.726 -0.7321 -0.1528 -0.2527
  163MOL0     C21433   8.356  10.189  10.652  0.7923 -0.8810  0.1921
  163MOL0     N21434   8.986   9.620  10.741 -0.0465  0.1808  0.0622
  163MOL0     N21435   9.106   9.576  10.746  0.6362  0.0713  0.1532
  163MOL0     C21436  10.440   9.847  11.210  0.3574 -0.2260  0.2656
  163MOL0     C21437  10.581   9.847  11.198 -0.2486  0.0079 -0.3901
  163MOL0     C21438  11.007   9.746  11.039  0.1097 -0.0579 -0.4115
  163MOL0     C21439  11.061   9.810  11.152 -0.1201  0.0454  0.6889
  163MOL0     C21440  11.197   9.796  11.184 -0.9215 -0.4069  0.3985
  163MOL0     C21441  11.290   9.729  11.097  0.6430  0.7919 -0.8726
  163MOL0     O21442  11.428   9.730  11.124  0.0132  0.1709  0.5885
  163MOL0     C21443  11.507   9.641  11.043 -0.8170  0.1564  0.8273
  163MOL0     C21444  11.641   9.632  11.105  0.3942 -0.8797 -0.5098
  163MOL0     C21445  11.745   9.556  11.015 -0.3920 -1.5391 -0.5191
  163MOL0     C21446  11.733   9.590  10.866  0.2712 -0.3154  0.0229
  163MOL0     C21447  11.845   9.523  10.791  0.5292  0.6378  0.0129
  163MOL0     C21448  11.934   9.481  10.725  0.1438  0.3000  0.7511
  163MOL0     C21449  11.227   9.674  10.974 -0.6623  0.7847 -0.8159
  163MOL0     C21450  11.095   9.688  10.952  0.2538 -0.0669  0.1442
  163MOL0     H21451  10.633   9.819  10.870 -1.1293  1.8168 -1.7167
  163MOL0     H21452  10.387   9.806  10.873  0.8695 -2.9979  1.3765
  163MOL0     H21453  10.171   9.724  10.939 -0.0001 -1.8150  0.4815
  163MOL0     H21454  10.118   9.897  10.938 -0.7128 -1.0236 -0.5347
  163MOL0     H21455   9.971   9.812  11.144  0.7064  2.5230 -1.0699
  163MOL0     H21456  10.027   9.656  11.068  0.4882 -0.2814 -0.6989
  163MOL0     H21457   9.927   9.714  10.855  0.9498 -2.2415  1.9275
  163MOL0     H21458   9.886   9.877  10.904  0.3816 -0.1556 -1.8614
  163MOL0     H21459   9.776   9.609  11.029  1.3721  0.2377  1.7551
  163MOL0     H21460   9.740   9.768  11.090 -0.0179 -1.5229 -0.4345
  163MOL0     H21461   9.686   9.658  10.818  1.6709  1.6703  0.0500
  163MOL0     H21462   9.639   9.814  10.848 -1.0687 -0.0533  1.0876
  163MOL0     H21463   9.509   9.760  11.052  1.2505  1.5560 -0.6196
  163MOL0     H21464   9.536   9.584  11.005  0.4578 -0.9923 -2.8834
  163MOL0     H21465   9.370   9.800  10.855  2.0558  1.3412 -1.8249
  163MOL0     H21466   9.436   9.649  10.778  1.1909 -0.6334  0.4865
  163MOL0     H21467   9.258   9.623  11.014  0.1099  1.3872 -1.1070
  163MOL0     H21468   9.311   9.495  10.898  2.2116 -0.5176  0.5415
  163MOL0     H21469   9.110   9.824  10.970  0.9460 -1.9136  1.6060
  163MOL0     H21470   8.898   9.922  10.874 -0.4104  0.5371  3.2445
  163MOL0     H21471   8.784   9.790  10.913  0.2250  0.7448  0.0164
  163MOL0     H21472   8.735   9.733  10.677  0.7801 -0.4807  1.1922
  163MOL0     H21473   8.835   9.854  10.613 -0.8810  0.8539 -0.5005
  163MOL0     H21474   8.602   9.916  10.787 -1.5704 -0.3230 -0.8467
  163MOL0     H21475   8.712  10.031  10.729 -1.7512 -0.2387 -0.1957
  163MOL0     H21476   8.543   9.839  10.549 -0.2698 -0.2753  1.3525
  163MOL0     H21477   8.675   9.939  10.492 -1.2768 -0.4244 -0.4307
  163MOL0     H21478   8.361   9.862  10.663  2.5822  1.6859 -0.2306
  163MOL0     H21479   8.150   9.895  10.784  2.3642 -0.0779  1.4984
  163MOL0     H21480   8.008  10.313  11.123 -0.2622  0.8548  1.1877
  163MOL0     H21481   7.830  10.335  11.280 -1.2201  0.9797  1.1256
  163MOL0     H21482   7.429  10.395  11.048 -0.6973  0.6842  0.2560
  163MOL0     H21483   7.520  10.536  11.115  6.1030 -1.7244  4.0535
  163MOL0     H21484   7.319  10.375  11.280  0.0014  0.4619  0.7554
  163MOL0     H21485   7.241  10.489  11.173 -0.2805 -2.4441  0.6461
  163MOL0     H21486   7.405  10.651  11.281  1.3880 -2.2997 -1.5604
  163MOL0     H21487   7.448  10.525  11.394  0.1341  0.7135  0.1032
  163MOL0     H21488   7.166  10.644  11.365 -0.4329 -0.5882 -1.0083
  163MOL0     H21489   7.210  10.502  11.473 -0.6489  0.3495  1.4300
  163MOL0     H21490   7.299  10.794  11.481 -0.4431 -1.0571 -0.3977
  163MOL0     H21491   7.360  10.674  11.601 -0.8222  0.2048  2.8259
  163MOL0     H21492   7.133  10.622  11.659  0.3377 -0.0719  0.3375
  163MOL0     H21493   7.055  10.752  11.559 -0.7309 -0.2488  1.2135
  163MOL0     H21494   7.212  10.793  11.814  1.6333  3.5200 -0.0129
  163MOL0     H21495   7.185  10.925  11.694 -1.0204  0.5423 -0.2508
  163MOL0     H21496   6.966  10.751  11.821  0.1573  0.0373 -0.2614
  163MOL0     H21497   6.955  10.882  11.697  1.4430  2.7415  0.3741
  163MOL0     H21498   7.553  10.246  10.950  0.4906 -0.4904  0.7147
  163MOL0     H21499   7.733  10.203  10.812 -1.4858 -0.4861  1.0328
  163MOL0     H21500   8.211  10.316  10.747 -3.1731 -0.7601 -0.4507
  163MOL0     H21501   8.429  10.262  10.617  2.3798 -3.2002 -1.6579
  163MOL0     H21502  10.381   9.867  11.299 -0.1054  0.8398 -0.2687
  163MOL0     H21503  10.640   9.859  11.288  4.1133 -3.4048 -2.4528
  163MOL0     H21504  10.989   9.865  11.212 -0.8767  1.1664 -1.1380
  163MOL0     H21505  11.226   9.860  11.267  1.6157  2.8174 -2.6799
  163MOL0     H21506  11.513   9.674  10.938  1.2022 -0.0489  0.8438
  163MOL0     H21507  11.468   9.540  11.051  0.0822 -0.2652  0.0556
  163MOL0     H21508  11.676   9.733  11.128 -0.7731 -1.1828  3.1826
  163MOL0     H21509  11.610   9.602  11.205 -2.1098 -1.3464 -1.3531
  163MOL0     H21510  11.721   9.449  11.021 -1.4013 -1.3077 -0.1968
  163MOL0     H21511  11.838   9.572  11.070 -0.3086 -1.3962 -0.6983
  163MOL0     H21512  11.642   9.539  10.833  0.7590 -0.7173 -0.7172
  163MOL0     H21513  11.720   9.697  10.846 -2.3757 -0.4065  0.8850
  163MOL0     H21514  12.012   9.449  10.659 -2.5639 -0.5973 -2.2505
  163MOL0     H21515  11.300   9.634  10.904  1.8840  0.1361  2.0366
  163MOL0     H21516  11.067   9.634  10.863  3.1707 -2.6649  0.6615
  164MOL0     O21517   5.365   7.384  11.165 -0.5057  0.2990  0.1541
  164MOL0     C21518   5.402   7.482  11.101 -0.6048  0.1701  0.0441
  164MOL0     O21519   5.328   7.581  11.062 -0.1512 -0.7328  0.7043
  164MOL0     C21520   5.187   7.573  11.085 -0.7598  0.7016  0.8998
  164MOL0     C21521   5.131   7.585  11.221  0.1254  0.4184  0.4683
  164MOL0     C21522   4.993   7.586  11.241 -0.3263  0.9022  0.3270
  164MOL0     C21523   4.906   7.581  11.138 -0.8853 -0.3152  0.5986
  164MOL0     O21524   4.771   7.568  11.141 -0.5002 -0.8526 -0.2017
  164MOL0     C21525   4.706   7.645  11.235  0.3034  0.2075  0.2654
  164MOL0     C21526   4.561   7.648  11.185 -0.5805  0.0957 -0.1135
  164MOL0     C21527   4.475   7.566  11.287  0.1594  0.2956 -0.2502
  164MOL0     C21528   4.334   7.553  11.244 -0.0435  0.0835 -0.7435
  164MOL0     C21529   4.288   7.423  11.318 -0.1632 -1.6511 -0.2313
  164MOL0     C21530   4.130   7.436  11.344  0.5805  0.7816  0.3721
  164MOL0     C21531   4.044   7.387  11.222  0.7385  0.1076 -0.6906
  164MOL0     C21532   3.950   7.498  11.172 -0.0415  0.2425  0.4070
  164MOL0     N21533   3.836   7.513  11.259 -0.3438 -0.5015 -0.4009
  164MOL0     C21534   3.820   7.606  11.363 -0.1293  0.1167  1.3946
  164MOL0     C21535   3.695   7.579  11.419  0.2633  0.4388 -0.1214
  164MOL0     C21536   3.625   7.661  11.526 -0.0052  0.0441  0.3460
  164MOL0     C21537   3.497   7.725  11.484  0.4898  0.3799  0.6851
  164MOL0     C21538   3.442   7.826  11.586  0.4816 -0.0114 -0.5100
  164MOL0     C21539   3.298   7.860  11.544 -0.2529 -0.2156  0.1541
  164MOL0     O21540   3.204   7.760  11.599  0.2491 -0.3624 -0.0262
  164MOL0     C21541   3.080   7.810  11.641 -0.1132  0.6474 -0.0463
  164MOL0     C21542   3.019   7.745  11.748  0.2626 -0.4333 -0.1145
  164MOL0     C21543   2.901   7.805  11.798 -0.3838 -0.3850 -0.1182
  164MOL0     C21544   2.831   7.906  11.729 -0.7476  0.2875 -0.0144
  164MOL0     C21545   2.708   7.971  11.789 -0.9808 -0.5696  0.1340
  164MOL0     O21546   2.659   8.078  11.721 -0.6450  0.4414 -0.0619
  164MOL0     C21547   2.533   8.121  11.740 -0.5636  0.5434  0.4007
  164MOL0     C21548   2.515   8.260  11.747 -0.1789 -0.0382  0.5679
  164MOL0     C21549   2.391   8.318  11.729  0.0852 -0.2355  0.0834
  164MOL0     C21550   2.281   8.233  11.702  0.4692 -0.3505 -0.3151
  164MOL0     O21551   2.163   8.294  11.693 -0.2759 -0.2688  0.5307
  164MOL0     C21552   2.089   8.265  11.576  0.3220 -0.1481  0.3487
  164MOL0     C21553   1.944   8.308  11.579 -0.7597  0.0318  0.3547
  164MOL0     C21554   1.875   8.316  11.445  0.0983 -0.2796  0.1803
  164MOL0     C21555   1.724   8.333  11.466 -0.5784  1.1647  0.5870
  164MOL0     C21556   1.667   8.457  11.549  0.0494  0.2192 -0.2803
  164MOL0     C21557   1.521   8.472  11.558  0.2024 -0.1585  0.1011
  164MOL0     C21558   1.429   8.441  11.430 -0.2357  0.5013 -0.6791
  164MOL0     C21559   1.457   8.553  11.325 -0.5459  0.1511  0.5162
  164MOL0    Cl21560   1.386   8.704  11.389  0.1673 -0.0967 -0.4416
  164MOL0     C21561   2.300   8.095  11.695 -0.2471  0.5285 -0.1393
  164MOL0     C21562   2.424   8.043  11.720  0.0926  0.6882 -0.1599
  164MOL0     O21563   2.660   7.919  11.887 -0.2652  0.3929  0.3308
  164MOL0     C21564   2.884   7.954  11.600  0.2717  0.3893 -0.9831
  164MOL0     C21565   3.011   7.909  11.572 -0.8306  0.3637  0.8021
  164MOL0     N21566   3.641   7.475  11.344 -0.2736  0.1510 -0.1822
  164MOL0     N21567   3.724   7.437  11.248 -0.0401 -0.4491  0.4706
  164MOL0     C21568   4.960   7.567  11.006 -0.4485 -0.7433  0.0541
  164MOL0     C21569   5.096   7.581  10.981 -0.5818 -0.4298  0.7285
  164MOL0     C21570   5.541   7.488  11.055 -0.3779  0.4713  0.2158
  164MOL0     C21571   5.566   7.567  10.948  0.2702  0.5800  0.4903
  164MOL0     C21572   5.701   7.578  10.902  0.4967 -0.0466  0.5726
  164MOL0     C21573   5.802   7.498  10.953  1.0553 -0.4196 -0.1718
  164MOL0     O21574   5.928   7.492  10.901  0.9413 -0.0789 -0.3684
  164MOL0     C21575   5.953   7.559  10.778 -0.9502  0.8741  0.2117
  164MOL0     C21576   6.106   7.560  10.751  0.2481  0.5954 -0.5596
  164MOL0     C21577   6.162   7.416  10.728  1.3928  0.2348 -0.7848
  164MOL0     C21578   6.300   7.407  10.779 -0.0562  0.2502 -0.1875
  164MOL0     C21579   6.358   7.280  10.753 -0.1284  0.9803  0.1088
  164MOL0     C21580   6.399   7.162  10.744 -0.8643  0.0584  0.7935
  164MOL0     C21581   5.776   7.419  11.063  0.5864 -0.6049  0.5094
  164MOL0     C21582   5.645   7.421  11.112  0.1834  0.9738 -0.5307
  164MOL0     H21583   5.196   7.586  11.308  0.2672 -0.6909  0.3962
  164MOL0     H21584   4.963   7.601  11.344 -0.5873  3.2225 -0.0259
  164MOL0     H21585   4.746   7.746  11.245  0.2183  0.6754 -3.0246
  164MOL0     H21586   4.715   7.586  11.327  2.1598 -1.3467 -0.8292
  164MOL0     H21587   4.542   7.607  11.085 -0.4766  0.9405 -0.4895
  164MOL0     H21588   4.539   7.755  11.175  2.3539  1.0580  2.2875
  164MOL0     H21589   4.487   7.614  11.385 -0.2122 -0.7963  0.3554
  164MOL0     H21590   4.522   7.468  11.303  2.1251  0.9536 -1.5676
  164MOL0     H21591   4.289   7.648  11.273 -0.9945  0.6966 -3.8126
  164MOL0     H21592   4.330   7.544  11.135  3.0098 -0.0701 -0.9335
  164MOL0     H21593   4.328   7.425  11.420  0.1443  0.9548 -0.3366
  164MOL0     H21594   4.314   7.340  11.251 -0.3516 -1.2710 -0.7885
  164MOL0     H21595   4.102   7.537  11.376 -2.4794  0.4154 -0.8733
  164MOL0     H21596   4.106   7.367  11.425 -1.9348  0.5099 -0.5268
  164MOL0     H21597   4.111   7.359  11.141 -0.2648 -2.3912 -0.7528
  164MOL0     H21598   3.983   7.298  11.243 -2.0288  1.9320 -0.3367
  164MOL0     H21599   3.911   7.468  11.075 -0.9093  0.3119  0.7269
  164MOL0     H21600   4.006   7.593  11.168  0.7487 -0.1343  1.6348
  164MOL0     H21601   3.897   7.678  11.390  1.2880 -0.5094 -0.6833
  164MOL0     H21602   3.689   7.739  11.567  1.7033 -1.5147  0.7871
  164MOL0     H21603   3.614   7.591  11.609 -0.2210  1.5285  1.6127
  164MOL0     H21604   3.425   7.646  11.464  2.0891 -0.5301 -2.0993
  164MOL0     H21605   3.524   7.776  11.391  0.3922  3.1181  2.0574
  164MOL0     H21606   3.453   7.783  11.686 -0.5292  0.7230 -0.0682
  164MOL0     H21607   3.490   7.924  11.581  2.2583 -0.8850 -1.2570
  164MOL0     H21608   3.298   7.862  11.435 -1.1625  2.9119  0.1264
  164MOL0     H21609   3.279   7.960  11.584  0.7625 -0.2132  0.6762
  164MOL0     H21610   3.059   7.664  11.808  0.1144  0.1576  0.7999
  164MOL0     H21611   2.864   7.755  11.888  0.9311 -3.0623 -0.9732
  164MOL0     H21612   2.604   8.323  11.753 -1.8558  2.7869 -1.7033
  164MOL0     H21613   2.381   8.426  11.726 -3.2213 -0.4408  0.7679
  164MOL0     H21614   2.097   8.166  11.529 -1.2246 -0.0663 -0.1441
  164MOL0     H21615   2.131   8.338  11.505  1.2809  1.2428  2.2675
  164MOL0     H21616   1.924   8.394  11.644  1.1508  0.0332  1.0157
  164MOL0     H21617   1.898   8.229  11.640  1.9695 -0.6511  1.7216
  164MOL0     H21618   1.902   8.222  11.395  0.8629 -0.6685  1.2957
  164MOL0     H21619   1.907   8.393  11.375  0.4537 -1.8032 -1.4137
  164MOL0     H21620   1.674   8.358  11.372 -1.3576 -1.4378  0.2171
  164MOL0     H21621   1.683   8.243  11.513  0.0745  1.4344  1.7099
  164MOL0     H21622   1.717   8.545  11.506  1.1538  0.7996  2.0020
  164MOL0     H21623   1.703   8.452  11.652  1.4968 -3.3316 -0.8245
  164MOL0     H21624   1.503   8.574  11.593 -0.3675 -0.8620  1.9559
  164MOL0     H21625   1.496   8.402  11.638 -3.5046 -2.3447 -2.6345
  164MOL0     H21626   1.464   8.345  11.392  1.9491 -0.4620  3.2387
  164MOL0     H21627   1.322   8.445  11.453 -0.3123  0.8712 -1.0892
  164MOL0     H21628   1.410   8.523  11.231  1.1183 -2.1638  0.3264
  164MOL0     H21629   1.564   8.558  11.304 -0.5259  2.2713  0.8751
  164MOL0     H21630   2.221   8.029  11.660  0.8463 -0.3234 -1.0801
  164MOL0     H21631   2.434   7.935  11.722 -1.4390  0.5321  0.5281
  164MOL0     H21632   2.828   8.025  11.541  1.1696  2.1123  0.1577
  164MOL0     H21633   3.053   7.944  11.479 -2.1065  0.9474  0.4319
  164MOL0     H21634   4.890   7.552  10.925 -0.0939  1.8923 -0.8330
  164MOL0     H21635   5.132   7.587  10.879 -2.5996  0.7151  0.0214
  164MOL0     H21636   5.489   7.608  10.883  1.1655 -1.8619 -2.3480
  164MOL0     H21637   5.717   7.627  10.806 -1.0605 -0.3142  0.1534
  164MOL0     H21638   5.921   7.663  10.781 -0.9482  1.0575 -2.7670
  164MOL0     H21639   5.889   7.519  10.699 -2.7919  2.6410  0.7215
  164MOL0     H21640   6.127   7.622  10.663 -3.0843  1.6387 -0.7841
  164MOL0     H21641   6.158   7.607  10.835  0.1899  0.5095 -0.4750
  164MOL0     H21642   6.168   7.392  10.621 -2.1008  0.0386 -1.0515
  164MOL0     H21643   6.095   7.343  10.775  0.6202 -0.0058 -2.2037
  164MOL0     H21644   6.368   7.486  10.746  0.1793  0.0881 -0.0929
  164MOL0     H21645   6.294   7.416  10.887  1.5611  0.1555 -0.0664
  164MOL0     H21646   6.431   7.060  10.746  0.0623  0.3355  0.6172
  164MOL0     H21647   5.863   7.371  11.106  2.7795  1.7442 -0.9938
  164MOL0     H21648   5.621   7.370  11.205 -1.2272  0.5545 -1.1082
  165MOL0     O21649   4.034   6.924   9.411 -0.9139  0.1574 -0.5749
  165MOL0     C21650   4.092   6.820   9.418  0.5948  0.6840  0.9537
  165MOL0     O21651   4.046   6.709   9.482 -0.2337 -0.4716 -0.2322
  165MOL0     C21652   3.923   6.711   9.554  0.3495  0.6103 -0.1964
  165MOL0     C21653   3.922   6.646   9.678  0.3386 -0.2929 -0.3920
  165MOL0     C21654   3.817   6.641   9.766  0.3327 -0.3545 -0.5544
  165MOL0     C21655   3.698   6.705   9.722  0.2052 -0.1772  0.5387
  165MOL0     O21656   3.595   6.683   9.807  0.0702 -0.6293 -0.2350
  165MOL0     C21657   3.485   6.766   9.793 -0.2170 -0.6073 -1.0632
  165MOL0     C21658   3.384   6.711   9.697  0.5368  0.0358  0.1370
  165MOL0     C21659   3.286   6.818   9.636 -0.2617  0.1219  0.4442
  165MOL0     C21660   3.185   6.857   9.748  0.4563  0.7946  0.1218
  165MOL0     C21661   3.125   7.008   9.727 -0.1742  1.4799 -0.0249
  165MOL0     C21662   3.039   7.028   9.608  0.2860 -0.1631 -0.3859
  165MOL0     C21663   2.970   7.167   9.600  0.4915 -0.7101  0.0760
  165MOL0     C21664   2.871   7.206   9.710 -0.0117  0.2479 -0.7846
  165MOL0     N21665   2.736   7.160   9.673 -0.2167  0.3991  0.0457
  165MOL0     C21666   2.669   7.062   9.739  0.0520  0.4540  0.3059
  165MOL0     C21667   2.542   7.069   9.692  0.6953 -0.8675 -0.3177
  165MOL0     C21668   2.430   6.971   9.733 -1.3292  0.1833  0.7027
  165MOL0     C21669   2.296   7.037   9.716 -0.5294  0.1467  0.0420
  165MOL0     C21670   2.186   6.956   9.779  0.5475  0.4553  0.6183
  165MOL0     C21671   2.057   7.037   9.791 -0.2261  0.0207  0.0650
  165MOL0     O21672   1.957   6.965   9.861  0.1733 -0.1021 -0.7608
  165MOL0     C21673   1.823   7.008   9.854 -0.6512 -0.1990 -0.5371
  165MOL0     C21674   1.727   6.912   9.864  0.5223 -0.0654  0.5220
  165MOL0     C21675   1.591   6.945   9.854  0.0318  0.6525 -0.9072
  165MOL0     C21676   1.549   7.081   9.840  0.9365  0.0662 -0.5482
  165MOL0     C21677   1.398   7.125   9.828 -0.0250  0.0594 -0.1289
  165MOL0     O21678   1.372   7.253   9.806 -0.2671 -0.1135  0.4211
  165MOL0     C21679   1.236   7.286   9.789  0.8291  0.3374 -0.4246
  165MOL0     C21680   1.168   7.366   9.879  0.3213 -0.6859 -0.0346
  165MOL0     C21681   1.047   7.421   9.843  0.0568 -0.4815 -0.9582
  165MOL0     C21682   0.981   7.376   9.731  0.0896 -0.3505 -0.6709
  165MOL0     O21683   0.853   7.409   9.699  0.1195  1.1811 -0.7708
  165MOL0     C21684   0.775   7.493   9.794 -0.7923  0.8452 -0.0238
  165MOL0     C21685   0.633   7.508   9.745  0.7156  0.0705  0.4298
  165MOL0     C21686   0.562   7.372   9.761  0.3082 -0.4762  0.8682
  165MOL0     C21687   0.416   7.373   9.709  0.0118 -0.8672 -0.5872
  165MOL0     C21688   0.342   7.252   9.762 -0.5778 -0.6557  0.2918
  165MOL0     C21689   0.371   7.135   9.674  0.6088 -0.7055  0.1459
  165MOL0     C21690   0.287   7.006   9.712  0.1308 -0.3553  0.2636
  165MOL0     C21691   0.349   6.930   9.832  0.2003 -0.4963 -0.1592
  165MOL0    Cl21692   0.284   6.771   9.854 -0.1423  0.0215 -0.0985
  165MOL0     C21693   1.041   7.286   9.645 -1.0909 -0.2747  0.1762
  165MOL0     C21694   1.172   7.241   9.672  0.8587  0.7394  0.0939
  165MOL0     O21695   1.319   7.032   9.837  0.2507 -0.5176 -0.2787
  165MOL0     C21696   1.648   7.181   9.839  0.2035 -0.2212  0.7395
  165MOL0     C21697   1.781   7.142   9.845  0.2769 -0.6695  0.1263
  165MOL0     N21698   2.542   7.155   9.577  0.1848  0.1625  0.1960
  165MOL0     N21699   2.655   7.217   9.579 -0.5396  0.0103 -0.7685
  165MOL0     C21700   3.689   6.772   9.594  0.3971 -0.6039 -0.2613
  165MOL0     C21701   3.800   6.766   9.510  0.5441 -0.2453  0.5923
  165MOL0     C21702   4.225   6.817   9.353 -0.1067  0.6307  1.1456
  165MOL0     C21703   4.289   6.941   9.314  0.5743  0.4971 -0.5423
  165MOL0     C21704   4.407   6.944   9.239  0.8887  0.2247  0.2509
  165MOL0     C21705   4.474   6.823   9.216  0.6089 -0.2934 -0.4213
  165MOL0     O21706   4.587   6.817   9.142  0.0672  0.6864  0.2907
  165MOL0     C21707   4.677   6.929   9.149  0.7371 -0.1152 -0.1151
  165MOL0     C21708   4.795   6.880   9.067  0.0939 -0.2357  0.5040
  165MOL0     C21709   4.905   6.994   9.067  1.1044  0.1737  0.4416
  165MOL0     C21710   5.021   6.929   8.983 -0.1654 -0.1808 -0.1705
  165MOL0     C21711   4.985   6.936   8.837 -0.6047  0.0453  0.0423
  165MOL0     C21712   4.968   6.915   8.720  0.4299 -0.2669  0.0873
  165MOL0     C21713   4.416   6.704   9.255  0.0802  0.7578  0.0964
  165MOL0     C21714   4.294   6.698   9.321  0.3005  0.8038  0.7990
  165MOL0     H21715   4.005   6.592   9.722 -0.9188  0.3933  3.1409
  165MOL0     H21716   3.824   6.586   9.859 -2.7820  1.8846  1.2375
  165MOL0     H21717   3.516   6.865   9.759  2.6225 -0.3674  1.7292
  165MOL0     H21718   3.436   6.770   9.891 -0.3088  0.0285 -1.1311
  165MOL0     H21719   3.325   6.627   9.736 -0.9772  0.3315 -1.3684
  165MOL0     H21720   3.431   6.665   9.610 -1.2616 -3.5130  0.8399
  165MOL0     H21721   3.230   6.786   9.547 -1.4650 -0.4723  1.3847
  165MOL0     H21722   3.353   6.897   9.600 -1.4552  1.5194  1.2391
  165MOL0     H21723   3.109   6.779   9.738  1.9519 -0.7463  0.2837
  165MOL0     H21724   3.225   6.850   9.850  0.6930  0.4965  0.0106
  165MOL0     H21725   3.203   7.084   9.738  0.8542  0.3322  0.9598
  165MOL0     H21726   3.059   7.022   9.813 -2.8076 -2.1375 -1.2592
  165MOL0     H21727   2.963   6.950   9.607  0.5271 -0.4155  0.6622
  165MOL0     H21728   3.103   7.024   9.519  1.8540  2.8129  0.4563
  165MOL0     H21729   3.046   7.245   9.588 -1.5065  1.5542  1.2337
  165MOL0     H21730   2.922   7.179   9.502  0.9241  0.2268 -0.0341
  165MOL0     H21731   2.861   7.315   9.719 -3.4246  0.1017 -1.3586
  165MOL0     H21732   2.900   7.176   9.811  0.5498 -0.1984 -1.0737
  165MOL0     H21733   2.700   7.002   9.824 -1.3776  0.4412  0.8521
  165MOL0     H21734   2.447   6.955   9.840  1.5284  1.1094  0.4578
  165MOL0     H21735   2.438   6.880   9.672 -0.2257 -0.1942  1.3880
  165MOL0     H21736   2.274   7.048   9.609 -0.4350 -0.6522 -0.0648
  165MOL0     H21737   2.295   7.134   9.765  1.7493 -0.0535  0.5618
  165MOL0     H21738   2.171   6.866   9.717 -0.4843 -1.1091  2.9838
  165MOL0     H21739   2.212   6.914   9.877 -0.2133  1.8694  1.4460
  165MOL0     H21740   2.035   7.073   9.690  0.7383  0.1662 -0.1049
  165MOL0     H21741   2.074   7.135   9.837 -1.0980  1.0440 -1.6912
  165MOL0     H21742   1.759   6.811   9.883  1.4999  0.4654  1.8598
  165MOL0     H21743   1.521   6.863   9.862  1.7810 -1.0665 -2.1302
  165MOL0     H21744   1.220   7.403   9.967 -0.1829  0.1552 -0.0766
  165MOL0     H21745   1.013   7.499   9.911 -1.5662 -0.8327 -1.3178
  165MOL0     H21746   0.821   7.591   9.807  1.4669 -0.2037  0.5221
  165MOL0     H21747   0.759   7.442   9.890 -2.0246  0.9477 -0.1586
  165MOL0     H21748   0.627   7.533   9.639 -2.8173  1.8745  0.8948
  165MOL0     H21749   0.571   7.580   9.799 -0.4026 -0.5468  0.0153
  165MOL0     H21750   0.554   7.350   9.868  3.2882 -1.5902  0.9446
  165MOL0     H21751   0.618   7.294   9.709 -1.8932 -0.9421 -0.9691
  165MOL0     H21752   0.357   7.454   9.753  0.6691  0.0205 -1.2931
  165MOL0     H21753   0.430   7.377   9.600  1.8250  1.8608 -0.3568
  165MOL0     H21754   0.234   7.270   9.758 -0.7879 -1.7951  0.5753
  165MOL0     H21755   0.368   7.241   9.868 -1.1517 -0.1357  0.4911
  165MOL0     H21756   0.478   7.113   9.684  0.2898 -2.2575  0.3908
  165MOL0     H21757   0.357   7.173   9.573  0.3130  2.6246  1.2997
  165MOL0     H21758   0.184   7.036   9.734  0.2151  0.5121 -0.4608
  165MOL0     H21759   0.276   6.945   9.622 -1.1212  2.2453 -1.4678
  165MOL0     H21760   0.335   6.988   9.924  3.1763  0.8903 -0.4504
  165MOL0     H21761   0.457   6.915   9.821  0.2416 -0.9560  0.7602
  165MOL0     H21762   0.987   7.253   9.556 -2.2992  1.5304  0.1828
  165MOL0     H21763   1.212   7.156   9.617 -0.2396 -0.5755  1.2406
  165MOL0     H21764   1.626   7.287   9.830 -0.6421 -0.5694 -2.5330
  165MOL0     H21765   1.860   7.216   9.853 -0.2551 -0.1761  0.8998
  165MOL0     H21766   3.600   6.821   9.558  2.0977  1.3917 -2.0280
  165MOL0     H21767   3.789   6.821   9.417 -0.7668  0.4457  1.1272
  165MOL0     H21768   4.241   7.032   9.350 -0.1041 -0.2140  0.4177
  165MOL0     H21769   4.434   7.046   9.212 -0.7656  0.5115 -0.4970
  165MOL0     H21770   4.693   6.958   9.253 -0.3171  1.1625 -0.2776
  165MOL0     H21771   4.627   7.011   9.096 -1.2803  0.1072  1.9352
  165MOL0     H21772   4.841   6.786   9.098  3.2433  0.9109 -0.3211
  165MOL0     H21773   4.760   6.858   8.966  1.9325  1.3939 -0.5528
  165MOL0     H21774   4.932   7.019   9.170  0.1122 -0.4000  0.8679
  165MOL0     H21775   4.869   7.075   9.003 -1.0584 -1.7742 -0.9806
  165MOL0     H21776   5.108   6.995   8.988 -0.1647  0.4393 -4.6163
  165MOL0     H21777   5.042   6.828   9.020 -2.5596  0.6027  3.9519
  165MOL0     H21778   4.966   6.889   8.616  0.1054 -0.6591  0.1858
  165MOL0     H21779   4.464   6.609   9.235  0.0803  0.9319 -0.7377
  165MOL0     H21780   4.258   6.597   9.338  2.0508 -0.7967 -3.5750
  166MOL0     O21781   5.339   8.022   1.507  0.0170  0.2283 -0.0410
  166MOL0     C21782   5.383   8.128   1.561 -0.3677 -0.4412  0.2415
  166MOL0     O21783   5.312   8.238   1.611 -0.2895  0.6889 -0.7489
  166MOL0     C21784   5.181   8.254   1.620  0.0474 -0.0761 -1.3271
  166MOL0     C21785   5.086   8.152   1.611 -0.3432  0.1243 -0.3352
  166MOL0     C21786   4.950   8.178   1.624  0.8208 -0.1435 -0.5466
  166MOL0     C21787   4.903   8.308   1.646  0.0827  0.4395 -0.3142
  166MOL0     O21788   4.766   8.337   1.655  0.6675  0.0329 -1.1265
  166MOL0     C21789   4.678   8.227   1.620 -0.5127 -0.4175 -0.1094
  166MOL0     C21790   4.536   8.273   1.647 -0.7057 -0.7543  0.7772
  166MOL0     C21791   4.438   8.172   1.591  0.1057 -0.3902 -0.8818
  166MOL0     C21792   4.288   8.215   1.621 -0.0676 -1.0187  0.3340
  166MOL0     C21793   4.188   8.109   1.598  0.3278 -0.6121 -0.0268
  166MOL0     C21794   4.045   8.157   1.630 -0.0187  0.4110 -0.1534
  166MOL0     C21795   3.947   8.031   1.610  0.0354 -0.0975  0.6501
  166MOL0     C21796   3.803   8.068   1.651 -0.3326 -0.4617  0.1710
  166MOL0     N21797   3.729   7.952   1.707  0.1129  0.1127  0.1403
  166MOL0     C21798   3.783   7.863   1.797  0.1409 -0.0853  0.6800
  166MOL0     C21799   3.686   7.760   1.801  0.5645 -0.7846 -0.0611
  166MOL0     C21800   3.703   7.641   1.881 -0.0806  0.7287 -0.6333
  166MOL0     C21801   3.623   7.516   1.831 -0.3881 -0.3022  0.3279
  166MOL0     C21802   3.586   7.420   1.941  0.2669 -0.0435 -0.8667
  166MOL0     C21803   3.459   7.471   2.018 -0.4702  0.2641 -0.4574
  166MOL0     O21804   3.350   7.507   1.930  0.1548 -0.0414  0.4616
  166MOL0     C21805   3.223   7.476   1.972  0.0367  0.2035  0.7725
  166MOL0     C21806   3.180   7.460   2.105 -0.1372  0.3930  0.2194
  166MOL0     C21807   3.039   7.447   2.138  0.3591 -0.8025 -0.7189
  166MOL0     C21808   2.947   7.480   2.040  0.8502  0.4649  0.1059
  166MOL0     C21809   2.806   7.487   2.075  0.2117 -0.2726  0.3423
  166MOL0     O21810   2.766   7.468   2.202  0.3406 -0.8045  0.0401
  166MOL0     C21811   2.636   7.502   2.236  0.4184  0.4577  0.8069
  166MOL0     C21812   2.569   7.414   2.318 -0.0355 -0.2241  0.1398
  166MOL0     C21813   2.433   7.450   2.359  0.5669 -0.2411  0.7299
  166MOL0     C21814   2.367   7.567   2.323  0.4016  0.1786  0.3498
  166MOL0     O21815   2.240   7.596   2.363 -0.7875 -0.0156 -0.0857
  166MOL0     C21816   2.217   7.728   2.405 -0.4659 -0.5638  0.5584
  166MOL0     C21817   2.079   7.730   2.477 -1.1973  0.7287 -0.2143
  166MOL0     C21818   1.970   7.717   2.382  0.3152 -0.5807 -0.2134
  166MOL0     C21819   1.930   7.855   2.325 -0.2677 -0.4186  0.0703
  166MOL0     C21820   1.796   7.844   2.251  0.4282 -0.1084  0.5758
  166MOL0     C21821   1.671   7.848   2.343 -0.0944 -0.2263  0.7073
  166MOL0     C21822   1.542   7.873   2.268  0.4882  0.6812  0.4193
  166MOL0     C21823   1.414   7.845   2.356  0.4687 -0.1445  0.4720
  166MOL0    Cl21824   1.434   7.938   2.510 -0.0098 -0.1688 -0.0639
  166MOL0     C21825   2.442   7.658   2.245  0.2351  0.1307 -0.3946
  166MOL0     C21826   2.578   7.630   2.210  0.2341 -0.1878 -0.3826
  166MOL0     O21827   2.727   7.511   1.983 -0.1576 -0.7589  0.2818
  166MOL0     C21828   2.989   7.491   1.908  0.1981 -0.0687  0.4559
  166MOL0     C21829   3.125   7.479   1.872  0.1833  0.5428  0.1901
  166MOL0     N21830   3.570   7.790   1.726  0.7284 -0.5308  0.1356
  166MOL0     N21831   3.609   7.907   1.663  0.3523 -0.6052  0.3588
  166MOL0     C21832   4.995   8.413   1.658  0.6883  0.4826 -0.7838
  166MOL0     C21833   5.132   8.386   1.644 -0.1613  0.4304 -0.0620
  166MOL0     C21834   5.529   8.137   1.576  0.2732 -0.5565 -0.5155
  166MOL0     C21835   5.593   8.238   1.656 -0.0847 -0.0134  0.4314
  166MOL0     C21836   5.732   8.255   1.657 -0.0735  0.0679  0.1642
  166MOL0     C21837   5.814   8.159   1.599  0.1055 -0.2711  0.4452
  166MOL0     O21838   5.953   8.164   1.617 -0.0033  0.3858 -0.6710
  166MOL0     C21839   6.029   8.078   1.533 -0.5878 -0.3533 -1.5519
  166MOL0     C21840   6.179   8.110   1.538  0.2495 -0.4527  0.4087
  166MOL0     C21841   6.221   8.253   1.485 -0.4640 -0.2478 -0.2042
  166MOL0     C21842   6.370   8.275   1.489 -0.2299  0.2626  0.3758
  166MOL0     C21843   6.425   8.279   1.628 -0.0045  0.0596 -0.6689
  166MOL0     C21844   6.453   8.274   1.745  0.2197 -0.2673  0.6437
  166MOL0     C21845   5.753   8.056   1.522 -0.2990  0.0391 -0.5445
  166MOL0     C21846   5.618   8.050   1.514  0.6013  0.5861 -0.4559
  166MOL0     H21847   5.123   8.050   1.605  1.1290  0.6497 -0.6355
  166MOL0     H21848   4.878   8.097   1.623 -0.7856  1.1557  1.0399
  166MOL0     H21849   4.683   8.139   1.684 -5.2989  0.1539  1.4419
  166MOL0     H21850   4.689   8.205   1.513  4.7027 -0.2012  0.1262
  166MOL0     H21851   4.537   8.365   1.587 -2.0855 -1.1075  0.1697
  166MOL0     H21852   4.525   8.286   1.755  1.0076 -1.5604  1.0678
  166MOL0     H21853   4.441   8.075   1.643 -1.0920 -0.0970 -0.2129
  166MOL0     H21854   4.445   8.162   1.482 -1.8244  0.6098 -1.1405
  166MOL0     H21855   4.276   8.237   1.728 -3.4713  0.4191 -0.2274
  166MOL0     H21856   4.258   8.305   1.566  0.5175 -2.1001 -1.8501
  166MOL0     H21857   4.207   8.023   1.664 -0.5400  0.4934  1.7542
  166MOL0     H21858   4.200   8.080   1.494 -0.3104  0.3865 -0.3921
  166MOL0     H21859   4.018   8.241   1.566  0.1863  0.2976 -0.3936
  166MOL0     H21860   4.043   8.190   1.734 -2.9775 -1.1845  0.4286
  166MOL0     H21861   3.938   8.019   1.502  0.2936 -0.2123  0.6414
  166MOL0     H21862   3.993   7.942   1.655 -1.0031 -1.6720 -1.2296
  166MOL0     H21863   3.756   8.105   1.560 -0.3503  0.4335  0.5320
  166MOL0     H21864   3.805   8.158   1.713 -1.9005 -0.9911  1.0422
  166MOL0     H21865   3.875   7.871   1.854  0.9545  0.2535 -0.6232
  166MOL0     H21866   3.677   7.658   1.986  0.7468  0.5843 -0.3951
  166MOL0     H21867   3.808   7.611   1.876 -0.8940 -2.9533  1.0340
  166MOL0     H21868   3.693   7.458   1.769 -0.0980 -0.5102  0.8456
  166MOL0     H21869   3.535   7.538   1.769  0.3523  1.2040 -0.2217
  166MOL0     H21870   3.577   7.321   1.896  2.5399  0.0902 -1.7522
  166MOL0     H21871   3.669   7.414   2.013 -0.4839 -0.9000 -0.0333
  166MOL0     H21872   3.490   7.559   2.075 -0.5134 -0.9945  1.5701
  166MOL0     H21873   3.434   7.393   2.089  0.7870 -1.1743 -1.5286
  166MOL0     H21874   3.258   7.446   2.179  2.0958 -0.7970 -2.2147
  166MOL0     H21875   3.015   7.422   2.241  0.8686 -1.2735 -0.7114
  166MOL0     H21876   2.608   7.322   2.361 -4.6595 -2.5971 -0.1484
  166MOL0     H21877   2.370   7.387   2.421 -0.3757 -0.2228 -0.1892
  166MOL0     H21878   2.209   7.793   2.317  2.9922 -0.7471 -0.0399
  166MOL0     H21879   2.295   7.764   2.471 -0.7585  1.6231 -0.1944
  166MOL0     H21880   2.062   7.825   2.529 -0.8939  1.0182 -0.6447
  166MOL0     H21881   2.079   7.644   2.545 -2.1990  1.7088  1.0842
  166MOL0     H21882   1.884   7.670   2.429  2.7054 -3.7351  1.3530
  166MOL0     H21883   1.995   7.646   2.302  0.2991 -1.4835  0.5710
  166MOL0     H21884   1.924   7.936   2.398 -2.1092  0.0672 -0.5775
  166MOL0     H21885   2.004   7.889   2.252 -2.5561  0.5111 -1.9653
  166MOL0     H21886   1.786   7.755   2.189  0.6439  0.2690 -0.0064
  166MOL0     H21887   1.791   7.935   2.190  0.1430 -0.4379  0.1020
  166MOL0     H21888   1.681   7.926   2.419 -1.0198  1.1596 -0.5215
  166MOL0     H21889   1.656   7.747   2.380  2.5466 -1.8013 -2.0223
  166MOL0     H21890   1.547   7.977   2.235 -0.3795 -0.1314 -2.5804
  166MOL0     H21891   1.536   7.819   2.173 -1.5991  1.2184  0.2015
  166MOL0     H21892   1.401   7.739   2.378 -0.3478 -0.2722 -0.5369
  166MOL0     H21893   1.326   7.883   2.303 -2.3103  1.1198  5.3568
  166MOL0     H21894   2.415   7.762   2.229 -1.3112 -0.1005  0.5070
  166MOL0     H21895   2.638   7.712   2.171 -1.9689  1.4143 -0.5776
  166MOL0     H21896   2.914   7.519   1.835  1.2281  1.4560 -0.0674
  166MOL0     H21897   3.143   7.491   1.766  4.3121 -1.1907  0.5089
  166MOL0     H21898   4.956   8.514   1.665  0.1146  0.3774 -2.0597
  166MOL0     H21899   5.209   8.463   1.648  0.8690 -0.6360  1.4975
  166MOL0     H21900   5.528   8.312   1.700  2.4267  2.0921  0.9016
  166MOL0     H21901   5.778   8.332   1.718  2.6219 -0.2943 -1.2565
  166MOL0     H21902   5.998   8.077   1.428 -1.2030  2.1708 -1.4524
  166MOL0     H21903   6.022   7.972   1.561  1.4028 -0.0731  0.2823
  166MOL0     H21904   6.213   8.099   1.641  0.5355  1.1730  0.5218
  166MOL0     H21905   6.221   8.036   1.470  2.3520  0.4836  0.5999
  166MOL0     H21906   6.173   8.339   1.533 -0.0003  0.2247 -0.5753
  166MOL0     H21907   6.189   8.261   1.380 -2.4568 -0.9814  0.3091
  166MOL0     H21908   6.426   8.193   1.443  0.3709  1.2814 -0.7565
  166MOL0     H21909   6.388   8.357   1.419 -0.1270  0.8831  1.1213
  166MOL0     H21910   6.490   8.261   1.845 -1.2307  0.5566  1.3273
  166MOL0     H21911   5.816   7.977   1.481 -1.2496 -0.8981 -0.2450
  166MOL0     H21912   5.571   7.971   1.457 -1.2763  1.0717  0.3360
  167MOL0     O21913   7.038   0.018   8.107  0.5278  0.2568 -0.2217
  167MOL0     C21914   7.149   0.055   8.066 -0.5896  0.5222 -0.1484
  167MOL0     O21915   7.188   0.185   8.042 -0.3687  0.1373  0.1110
  167MOL0     C21916   7.095   0.286   8.042  0.4591 -0.1747 -0.1498
  167MOL0     C21917   7.103   0.381   7.937 -0.3420 -0.3073 -0.1333
  167MOL0     C21918   7.000   0.476   7.924 -0.0435  0.5625 -0.3092
  167MOL0     C21919   6.889   0.479   8.021 -0.1148  0.4069  0.4555
  167MOL0     O21920   6.795   0.574   7.998  0.3067  0.2818 -0.5344
  167MOL0     C21921   6.702   0.619   8.101 -0.0342 -0.1765 -0.5845
  167MOL0     C21922   6.614   0.737   8.062 -0.0595 -0.5644 -0.3429
  167MOL0     C21923   6.698   0.855   8.013  0.0910 -0.2627 -0.4599
  167MOL0     C21924   6.618   0.988   7.970 -0.0330 -0.1773  0.3181
  167MOL0     C21925   6.702   1.077   7.881  0.5702 -0.7471  0.2621
  167MOL0     C21926   6.835   1.123   7.948 -0.0721 -0.5088 -0.7675
  167MOL0     C21927   6.911   1.218   7.849 -0.6103  0.1775 -0.3916
  167MOL0     C21928   6.991   1.140   7.743  0.0273  0.4195  0.1688
  167MOL0     N21929   7.108   1.063   7.800  0.7065  0.4371 -0.3719
  167MOL0     C21930   7.110   0.927   7.827  0.6954  0.3811 -0.0434
  167MOL0     C21931   7.225   0.909   7.900  0.9994  0.2087  0.2565
  167MOL0     C21932   7.288   0.776   7.948 -0.1882  0.3360  0.6736
  167MOL0     C21933   7.408   0.730   7.861  0.0394  0.0142  0.6569
  167MOL0     C21934   7.432   0.575   7.876  1.1742  0.4219 -0.5850
  167MOL0     C21935   7.451   0.536   8.026 -0.6190 -0.3957  0.0532
  167MOL0     O21936   7.431   0.398   8.065  0.1065 -0.1141  0.0137
  167MOL0     C21937   7.511   0.317   7.993 -0.4330 -0.1357 -0.2036
  167MOL0     C21938   7.471   0.269   7.866  0.3891 -0.4449  0.1084
  167MOL0     C21939   7.551   0.186   7.785 -0.2108 -0.9476 -0.2173
  167MOL0     C21940   7.671   0.144   7.841  0.2655  0.3376  0.5557
  167MOL0     C21941   7.745   0.048   7.756 -0.5761  0.2608 -0.2369
  167MOL0     O21942   7.874   0.085   7.717 -0.4824  0.1206  0.3190
  167MOL0     C21943   7.952  -0.006   7.653 -0.4555 -0.3402  0.2460
  167MOL0     C21944   8.046   0.034   7.546  0.2711  0.4882  0.2228
  167MOL0     C21945   8.145  -0.050   7.496 -0.1919 -0.0309  0.0444
  167MOL0     C21946   8.131  -0.187   7.535  1.4874  0.0466 -0.8292
  167MOL0     O21947   8.193  -0.284   7.463 -0.4255  0.2230  0.4832
  167MOL0     C21948   8.337  -0.274   7.460  0.2891  0.1888 -0.6529
  167MOL0     C21949   8.402  -0.405   7.408 -1.0973 -0.4508  0.2288
  167MOL0     C21950   8.357  -0.426   7.263  0.0627  0.2732 -0.1275
  167MOL0     C21951   8.452  -0.519   7.189  0.0193  0.0290 -0.0803
  167MOL0     C21952   8.380  -0.550   7.059 -0.0690 -0.6192 -0.1897
  167MOL0     C21953   8.440  -0.679   6.996 -0.9489 -0.4648 -0.2739
  167MOL0     C21954   8.352  -0.725   6.879 -0.6299  0.4166 -0.3540
  167MOL0     C21955   8.328  -0.619   6.774 -0.6767 -0.2917 -0.6046
  167MOL0    Cl21956   8.485  -0.534   6.727 -0.7926  0.1745  0.1066
  167MOL0     C21957   8.043  -0.229   7.639  0.3331  0.3042 -0.4783
  167MOL0     C21958   7.959  -0.137   7.694  0.7104  0.3190 -0.2191
  167MOL0     O21959   7.680  -0.049   7.711  0.5780  0.3240 -0.2728
  167MOL0     C21960   7.716   0.183   7.966 -0.4834 -1.1541 -1.0819
  167MOL0     C21961   7.633   0.271   8.042 -0.2232 -0.1443 -0.7681
  167MOL0     N21962   7.299   1.030   7.900 -0.2327  0.6170 -0.0801
  167MOL0     N21963   7.220   1.117   7.856 -0.2059 -0.5540 -0.5924
  167MOL0     C21964   6.896   0.403   8.138 -0.3819  1.0286  0.2678
  167MOL0     C21965   6.993   0.309   8.144  1.4005 -0.4124 -0.5511
  167MOL0     C21966   7.235  -0.060   8.023 -0.3850  0.5071  0.6701
  167MOL0     C21967   7.372  -0.056   8.027  0.1623  0.9211  0.2822
  167MOL0     C21968   7.454  -0.159   7.987 -0.2250 -0.5998 -0.4253
  167MOL0     C21969   7.398  -0.283   7.959 -0.1262  0.9541  0.3363
  167MOL0     O21970   7.475  -0.400   7.936  0.3020  0.1183 -0.0297
  167MOL0     C21971   7.600  -0.386   7.869  0.6868  0.2039 -0.3446
  167MOL0     C21972   7.630  -0.505   7.783 -0.4146 -0.2096  0.0039
  167MOL0     C21973   7.754  -0.476   7.695 -0.4562 -0.1078 -0.5002
  167MOL0     C21974   7.780  -0.596   7.613  0.6489 -0.0274 -0.3363
  167MOL0     C21975   7.892  -0.561   7.526 -0.3667  0.2893  0.0729
  167MOL0     C21976   7.973  -0.536   7.436  0.3547 -0.4671 -0.4426
  167MOL0     C21977   7.260  -0.289   7.960  0.5557 -0.0999  0.4141
  167MOL0     C21978   7.183  -0.184   7.980  0.3870 -0.3992  0.1634
  167MOL0     H21979   7.188   0.382   7.870  0.0828 -1.4183  0.3735
  167MOL0     H21980   6.997   0.545   7.840 -0.0671 -1.1778 -1.7903
  167MOL0     H21981   6.757   0.647   8.191  0.6163  0.2160 -1.0932
  167MOL0     H21982   6.634   0.537   8.126 -0.3524 -0.3901 -2.0599
  167MOL0     H21983   6.556   0.764   8.151 -2.2277 -0.7211 -1.6569
  167MOL0     H21984   6.540   0.707   7.988  1.9349 -1.0543 -2.2304
  167MOL0     H21985   6.754   0.823   7.924  1.4736 -1.2838  0.7265
  167MOL0     H21986   6.773   0.880   8.089 -1.5114  0.6894  0.8682
  167MOL0     H21987   6.525   0.955   7.922  1.0872 -1.8981 -0.8124
  167MOL0     H21988   6.577   1.047   8.052  1.4417  1.3154  0.0371
  167MOL0     H21989   6.643   1.167   7.865  0.4209 -0.9456 -0.2985
  167MOL0     H21990   6.719   1.027   7.785 -2.1827  1.4497 -1.4842
  167MOL0     H21991   6.902   1.041   7.975  2.7370  1.6574 -0.6687
  167MOL0     H21992   6.812   1.171   8.043 -1.7660  2.3150 -2.4489
  167MOL0     H21993   6.842   1.287   7.798 -1.8198  2.1848  3.4977
  167MOL0     H21994   6.981   1.279   7.907 -0.1162 -1.5628  0.9289
  167MOL0     H21995   7.032   1.204   7.664  1.6066 -1.6037 -0.7563
  167MOL0     H21996   6.927   1.074   7.684 -2.0157  3.1881 -0.9441
  167MOL0     H21997   7.028   0.858   7.813 -0.9982  1.6646  2.7280
  167MOL0     H21998   7.211   0.699   7.951 -0.1761  0.3532  1.9329
  167MOL0     H21999   7.309   0.784   8.055 -0.7756 -0.9998  0.9139
  167MOL0     H22000   7.503   0.781   7.883  1.3202 -1.4809 -1.1563
  167MOL0     H22001   7.381   0.749   7.757  0.2903  0.1223  0.6105
  167MOL0     H22002   7.352   0.517   7.829 -1.4511  1.3480  2.3708
  167MOL0     H22003   7.525   0.542   7.829  0.5780  0.3846 -1.7709
  167MOL0     H22004   7.367   0.582   8.079 -0.1183  0.8996 -0.2619
  167MOL0     H22005   7.545   0.575   8.065  0.3972 -0.7195 -1.9624
  167MOL0     H22006   7.369   0.301   7.847  0.5680  1.1759  1.5747
  167MOL0     H22007   7.516   0.155   7.687 -2.0548  1.5469 -0.4534
  167MOL0     H22008   8.053   0.141   7.525 -1.0378  0.6795  0.6482
  167MOL0     H22009   8.204  -0.003   7.418  3.3144 -1.2721  1.7570
  167MOL0     H22010   8.379  -0.251   7.559 -1.1088 -0.1682  0.0440
  167MOL0     H22011   8.360  -0.187   7.399  2.3496  0.2852  0.1810
  167MOL0     H22012   8.371  -0.486   7.476 -1.4009 -1.6044 -1.2177
  167MOL0     H22013   8.509  -0.384   7.416 -0.9403  0.4161 -2.8728
  167MOL0     H22014   8.353  -0.329   7.212 -1.3256  0.7789  0.8928
  167MOL0     H22015   8.253  -0.456   7.280 -1.1614  3.6183 -0.9026
  167MOL0     H22016   8.546  -0.469   7.161 -0.1326 -1.1370 -3.1669
  167MOL0     H22017   8.476  -0.616   7.234  1.6421  0.4583  0.0248
  167MOL0     H22018   8.390  -0.465   6.990 -0.2609 -0.4312  0.0128
  167MOL0     H22019   8.276  -0.573   7.085 -0.6456  3.3319  1.7596
  167MOL0     H22020   8.445  -0.762   7.067 -4.1199 -0.0466  0.5946
  167MOL0     H22021   8.544  -0.653   6.972 -1.7535  1.5552 -1.8293
  167MOL0     H22022   8.397  -0.808   6.825  3.0763  2.3723 -0.6680
  167MOL0     H22023   8.263  -0.763   6.929 -0.6615 -0.1252 -0.8237
  167MOL0     H22024   8.261  -0.540   6.809 -3.0173 -2.5816  0.4608
  167MOL0     H22025   8.276  -0.658   6.685  1.2570 -0.7609 -1.5818
  167MOL0     H22026   8.037  -0.332   7.674  2.0596  0.8731  1.7410
  167MOL0     H22027   7.893  -0.162   7.776  0.8351  1.3407  0.2010
  167MOL0     H22028   7.814   0.160   8.007  0.1586 -2.0954 -2.9987
  167MOL0     H22029   7.676   0.313   8.133  0.5615  1.6417 -1.9162
  167MOL0     H22030   6.825   0.390   8.219 -1.0788  0.0237 -0.4689
  167MOL0     H22031   6.989   0.236   8.224  1.6135  0.3884  0.2074
  167MOL0     H22032   7.415   0.036   8.067  1.1843  0.1590  0.9747
  167MOL0     H22033   7.562  -0.153   7.988 -0.3083  1.3276  0.7369
  167MOL0     H22034   7.678  -0.360   7.942  1.5127 -0.5439 -0.9391
  167MOL0     H22035   7.605  -0.300   7.802  0.6776 -0.2787 -0.9708
  167MOL0     H22036   7.650  -0.590   7.849  0.0428  0.3052  0.5342
  167MOL0     H22037   7.543  -0.523   7.718 -1.2987  2.2531  0.3966
  167MOL0     H22038   7.843  -0.444   7.751  0.3599 -0.5406 -1.5274
  167MOL0     H22039   7.737  -0.391   7.629  1.6660  0.8695  0.1468
  167MOL0     H22040   7.811  -0.683   7.673  2.6317  0.2436 -0.8878
  167MOL0     H22041   7.693  -0.609   7.549  1.0969  2.0205 -1.4542
  167MOL0     H22042   8.031  -0.513   7.349 -2.2257  1.4143 -1.8063
  167MOL0     H22043   7.217  -0.385   7.933 -1.4472  0.8126  0.1851
  167MOL0     H22044   7.076  -0.198   7.990  0.5755 -0.5052  2.8313
  168MOL0     O22045   1.508  10.128   1.175  0.1101  0.1051 -0.4538
  168MOL0     C22046   1.522  10.240   1.130  0.5806 -0.5769 -0.4042
  168MOL0     O22047   1.457  10.354   1.167 -0.0709  0.1928  0.4796
  168MOL0     C22048   1.348  10.330   1.248 -0.8793 -0.5553 -0.5991
  168MOL0     C22049   1.222  10.346   1.217  0.1238  0.3651  0.1702
  168MOL0     C22050   1.117  10.326   1.308 -0.5746  0.1048  0.4858
  168MOL0     C22051   1.136  10.284   1.440  0.1888  0.2613  0.1702
  168MOL0     O22052   1.034  10.253   1.528 -0.7279  0.0127  0.0327
  168MOL0     C22053   0.902  10.236   1.473 -0.7931  0.3509  0.2866
  168MOL0     C22054   0.827  10.367   1.490 -0.6062  0.0406 -0.0772
  168MOL0     C22055   0.710  10.392   1.395 -0.0730  0.2167  0.3460
  168MOL0     C22056   0.604  10.278   1.403 -0.7881 -0.1852 -0.9712
  168MOL0     C22057   0.518  10.295   1.529 -0.3923 -1.0063 -0.4719
  168MOL0     C22058   0.394  10.204   1.524  0.5931  0.5075  0.1646
  168MOL0     C22059   0.273  10.278   1.461 -0.3087 -0.4582 -0.2181
  168MOL0     C22060   0.142  10.203   1.466 -0.9373  0.3382  0.3308
  168MOL0     N22061   0.048  10.243   1.566  1.0757 -0.0988  0.5749
  168MOL0     C22062  -0.003  10.371   1.576  0.3951  0.3212  0.0936
  168MOL0     C22063  -0.118  10.354   1.643  0.3870 -0.7871 -0.3216
  168MOL0     C22064  -0.219  10.459   1.707 -0.4662 -0.4092 -0.1133
  168MOL0     C22065  -0.205  10.603   1.642  0.3909  0.4536 -0.3274
  168MOL0     C22066  -0.303  10.699   1.713  0.5398  0.1421 -0.6762
  168MOL0     C22067  -0.438  10.713   1.651  0.9675 -0.4231 -0.4722
  168MOL0     O22068  -0.509  10.592   1.676 -0.0288  0.3530  0.6557
  168MOL0     C22069  -0.633  10.573   1.613 -0.6194 -0.1114  0.2565
  168MOL0     C22070  -0.704  10.669   1.544 -0.2889  0.0391 -0.0794
  168MOL0     C22071  -0.830  10.648   1.494  0.1102 -0.1468 -0.5426
  168MOL0     C22072  -0.889  10.527   1.500  0.2591 -0.2126  1.0294
  168MOL0     C22073  -1.032  10.510   1.444 -0.2803 -0.8393  0.1276
  168MOL0     O22074  -1.088  10.625   1.399 -0.0951 -0.1416 -0.9722
  168MOL0     C22075  -1.217  10.620   1.345 -0.4551 -0.7692  0.4054
  168MOL0     C22076  -1.335  10.594   1.418 -0.2065  0.1036 -0.0343
  168MOL0     C22077  -1.450  10.569   1.346  0.5275  0.4986 -0.1875
  168MOL0     C22078  -1.458  10.576   1.210  0.0585 -0.3378 -0.2133
  168MOL0     O22079  -1.581  10.560   1.150 -0.4908  0.2885 -0.1470
  168MOL0     C22080  -1.603  10.618   1.019 -0.0715  0.3845 -0.0258
  168MOL0     C22081  -1.743  10.601   0.978 -0.0086 -0.2544  0.0814
  168MOL0     C22082  -1.767  10.464   0.918 -0.4888 -0.3731  0.7901
  168MOL0     C22083  -1.911  10.409   0.907  1.0788 -0.0286 -0.0633
  168MOL0     C22084  -1.997  10.466   0.792 -0.6098  0.1419  0.2594
  168MOL0     C22085  -2.145  10.410   0.800 -0.5148 -0.3746 -0.2311
  168MOL0     C22086  -2.213  10.444   0.669  0.2608 -0.5593 -0.1829
  168MOL0     C22087  -2.365  10.429   0.687 -0.0500 -0.0067  0.4209
  168MOL0    Cl22088  -2.451  10.506   0.544 -0.4821  0.6978  0.0565
  168MOL0     C22089  -1.341  10.603   1.140 -0.3187 -0.4976  0.2964
  168MOL0     C22090  -1.219  10.625   1.202  0.3171  0.7303 -0.6690
  168MOL0     O22091  -1.085  10.396   1.450 -0.1057  0.1772  0.1837
  168MOL0     C22092  -0.829  10.428   1.570 -0.1327  0.0834  0.3110
  168MOL0     C22093  -0.698  10.450   1.623  0.2770  0.4262  0.3750
  168MOL0     N22094  -0.134  10.218   1.672 -0.5269 -0.2883 -1.1466
  168MOL0     N22095  -0.038  10.159   1.629  0.6556  0.4609  0.1886
  168MOL0     C22096   1.267  10.273   1.484  0.4377 -0.1528 -0.7766
  168MOL0     C22097   1.374  10.287   1.390 -0.3750  0.7119  1.3024
  168MOL0     C22098   1.629  10.251   1.030 -0.4654  0.0631 -0.1191
  168MOL0     C22099   1.723  10.150   1.013  0.0801 -0.1847 -0.2152
  168MOL0     C22100   1.823  10.162   0.922  0.7318 -0.3271 -0.8839
  168MOL0     C22101   1.845  10.269   0.842  0.2637 -0.4207  0.3552
  168MOL0     O22102   1.949  10.272   0.760  0.3055 -0.7360 -0.2721
  168MOL0     C22103   2.048  10.373   0.794 -0.1474  0.8183  0.2192
  168MOL0     C22104   2.184  10.304   0.815  0.5843 -1.3162 -0.2600
  168MOL0     C22105   2.229  10.237   0.688  0.1457  0.3711  0.6906
  168MOL0     C22106   2.373  10.186   0.686  0.3389 -0.1887 -0.7626
  168MOL0     C22107   2.399  10.089   0.576 -0.2084 -0.2288  0.0227
  168MOL0     C22108   2.423  10.007   0.489  0.6099  0.5061 -1.0145
  168MOL0     C22109   1.753  10.377   0.862 -0.7413  0.2539  0.3122
  168MOL0     C22110   1.653  10.368   0.954 -0.3822  0.1218 -0.0682
  168MOL0     H22111   1.201  10.356   1.111  2.0939  2.0095 -0.1447
  168MOL0     H22112   1.014  10.342   1.276 -0.1033  1.8442 -0.3000
  168MOL0     H22113   0.844  10.165   1.531  0.1666 -1.3749 -0.7843
  168MOL0     H22114   0.896  10.210   1.366  1.6955  0.9656 -0.0801
  168MOL0     H22115   0.896  10.451   1.481  0.3293 -0.9266 -3.6908
  168MOL0     H22116   0.802  10.370   1.597  0.2696  1.5770  0.1085
  168MOL0     H22117   0.748  10.397   1.293 -0.6982 -1.4831 -0.0147
  168MOL0     H22118   0.660  10.488   1.410  2.3020  1.4186  0.9923
  168MOL0     H22119   0.543  10.304   1.315 -0.9206  0.3632 -0.7212
  168MOL0     H22120   0.639  10.175   1.396  0.1584 -0.6518  5.1886
  168MOL0     H22121   0.484  10.398   1.543 -0.4334 -1.2184  1.2774
  168MOL0     H22122   0.579  10.269   1.616  0.2664  0.2271 -0.5451
  168MOL0     H22123   0.372  10.173   1.626 -2.6742  0.8095 -0.3470
  168MOL0     H22124   0.418  10.112   1.470 -0.0137  0.0324  0.6855
  168MOL0     H22125   0.262  10.378   1.504 -1.0839 -0.1264 -1.1523
  168MOL0     H22126   0.287  10.291   1.353 -2.0945  0.7422 -0.3348
  168MOL0     H22127   0.165  10.099   1.491 -3.0773  0.1005  1.5699
  168MOL0     H22128   0.093  10.216   1.369  2.4391 -0.5629 -1.6654
  168MOL0     H22129   0.033  10.463   1.531 -1.6371  1.4487  0.6542
  168MOL0     H22130  -0.202  10.474   1.814 -1.9860  1.3652 -0.0699
  168MOL0     H22131  -0.325  10.430   1.708 -0.5842 -0.2884 -2.4834
  168MOL0     H22132  -0.232  10.602   1.536 -1.7432 -3.1701  0.0997
  168MOL0     H22133  -0.104  10.642   1.656 -0.5182  2.6562  0.7190
  168MOL0     H22134  -0.300  10.683   1.821  4.3803  1.4646 -0.4310
  168MOL0     H22135  -0.262  10.800   1.707 -2.1987  1.3933  0.4654
  168MOL0     H22136  -0.430  10.744   1.546  0.2239  0.2210 -0.3395
  168MOL0     H22137  -0.489  10.787   1.711  2.6226 -0.6054  1.2521
  168MOL0     H22138  -0.641  10.756   1.528  1.3643 -0.7483  1.7192
  168MOL0     H22139  -0.875  10.727   1.435 -1.6536 -0.5815  0.1552
  168MOL0     H22140  -1.319  10.580   1.525  1.5909  0.3727 -0.2497
  168MOL0     H22141  -1.542  10.540   1.395  0.9176 -2.5792 -1.0315
  168MOL0     H22142  -1.543  10.573   0.940 -1.2966  0.9676 -1.3423
  168MOL0     H22143  -1.561  10.718   1.033  0.0662  0.2906  0.2381
  168MOL0     H22144  -1.773  10.683   0.912  0.8561  1.2024  1.4468
  168MOL0     H22145  -1.803  10.611   1.069  1.3876 -0.2809  1.0429
  168MOL0     H22146  -1.711  10.393   0.980  2.8183  1.9158  0.6708
  168MOL0     H22147  -1.716  10.465   0.821  1.9508 -0.1186  2.0208
  168MOL0     H22148  -1.917  10.300   0.912  0.0172  0.0236  0.1452
  168MOL0     H22149  -1.964  10.443   0.997  0.0519  0.3050 -0.7808
  168MOL0     H22150  -1.959  10.431   0.695 -2.0600 -2.5230  0.5457
  168MOL0     H22151  -2.009  10.574   0.802 -2.8321 -0.0406  0.0376
  168MOL0     H22152  -2.196  10.460   0.882  0.3067  0.9034 -0.4676
  168MOL0     H22153  -2.150  10.301   0.813 -0.0883 -0.4816 -0.9022
  168MOL0     H22154  -2.202  10.551   0.652 -3.7277 -0.0976 -0.9011
  168MOL0     H22155  -2.188  10.384   0.581 -3.5014 -0.4683 -1.5193
  168MOL0     H22156  -2.390  10.481   0.780 -1.4852  2.4342 -1.2297
  168MOL0     H22157  -2.402  10.327   0.703  0.3849  0.1001  2.3612
  168MOL0     H22158  -1.339  10.600   1.032  0.5475  1.8384  0.2013
  168MOL0     H22159  -1.131  10.648   1.143  1.4513  1.0304  1.0592
  168MOL0     H22160  -0.884  10.335   1.580  2.3490 -1.7516 -1.7432
  168MOL0     H22161  -0.643  10.370   1.671 -1.0050 -0.7585 -0.0744
  168MOL0     H22162   1.287  10.234   1.583 -1.4657 -1.5066 -0.8918
  168MOL0     H22163   1.478  10.271   1.418  0.1477 -0.5691 -1.0390
  168MOL0     H22164   1.712  10.054   1.063 -1.6185 -2.3066 -4.1839
  168MOL0     H22165   1.897  10.083   0.924  4.0576  2.4788 -2.6190
  168MOL0     H22166   2.031  10.429   0.886  1.9157  3.9904 -1.1788
  168MOL0     H22167   2.048  10.450   0.717  2.5413 -0.1509 -0.8703
  168MOL0     H22168   2.259  10.372   0.856 -0.6724 -1.9629  3.4484
  168MOL0     H22169   2.179  10.228   0.893  1.0013 -1.3241 -0.2410
  168MOL0     H22170   2.220  10.302   0.600 -2.0176  1.1757  1.4404
  168MOL0     H22171   2.153  10.161   0.671 -2.4730  3.2311 -1.5619
  168MOL0     H22172   2.439  10.272   0.697  0.4933 -0.4089  0.0727
  168MOL0     H22173   2.383  10.130   0.779 -2.3769  0.0480 -0.2600
  168MOL0     H22174   2.416   9.925   0.421  1.3656  0.5850 -1.1910
  168MOL0     H22175   1.763  10.467   0.801  1.8869 -0.7797 -0.9264
  168MOL0     H22176   1.581  10.448   0.957 -0.6392  0.1831 -3.7243
  169MOL0     O22177   2.465   7.332  11.210 -0.1606  0.0069  0.4648
  169MOL0     C22178   2.460   7.429  11.143  0.1304  0.7335  0.1718
  169MOL0     O22179   2.354   7.515  11.118 -0.7680  0.5994 -0.1236
  169MOL0     C22180   2.227   7.478  11.148  0.2823  0.2511  0.7027
  169MOL0     C22181   2.185   7.499  11.278  0.3210  0.3419  0.3833
  169MOL0     C22182   2.059   7.466  11.321  0.4966  0.2618  0.3286
  169MOL0     C22183   1.966   7.412  11.230  0.4819  0.7002  0.2089
  169MOL0     O22184   1.844   7.371  11.273  0.2078  0.1271 -0.2070
  169MOL0     C22185   1.746   7.354  11.173 -0.3676  0.0272 -0.1670
  169MOL0     C22186   1.609   7.347  11.247 -0.3359 -0.0355 -0.1904
  169MOL0     C22187   1.504   7.333  11.134  0.7051  0.1412 -1.0177
  169MOL0     C22188   1.360   7.328  11.211 -0.2813 -0.2933  0.0981
  169MOL0     C22189   1.244   7.321  11.115 -0.0680 -0.0260  0.4087
  169MOL0     C22190   1.112   7.273  11.187  0.1753  0.6102 -0.2465
  169MOL0     C22191   1.059   7.367  11.296 -1.1258  0.3499 -0.0948
  169MOL0     C22192   0.927   7.328  11.354 -0.5478  0.5006 -0.0622
  169MOL0     N22193   0.812   7.346  11.265 -0.1939 -0.3553 -0.0569
  169MOL0     C22194   0.727   7.454  11.246 -0.4516 -0.0738 -0.3439
  169MOL0     C22195   0.643   7.426  11.143 -0.2225 -0.4949 -0.5083
  169MOL0     C22196   0.531   7.521  11.097  0.4916  0.4079 -0.0640
  169MOL0     C22197   0.403   7.439  11.085  0.1218  0.1253 -0.0743
  169MOL0     C22198   0.276   7.537  11.083  0.4588 -0.3303 -0.1603
  169MOL0     C22199   0.183   7.485  10.974 -0.7727  0.0352 -0.0873
  169MOL0     O22200   0.074   7.577  10.954  0.8699 -0.5268 -0.3818
  169MOL0     C22201  -0.023   7.541  10.873  0.8856  0.3379  0.2760
  169MOL0     C22202  -0.145   7.610  10.877 -0.1404  0.8184  0.8740
  169MOL0     C22203  -0.260   7.569  10.802 -0.3120 -0.1408  0.4142
  169MOL0     C22204  -0.262   7.451  10.724 -0.5452  0.0839 -0.1432
  169MOL0     C22205  -0.368   7.414  10.626 -0.1247 -0.3063  0.4762
  169MOL0     O22206  -0.464   7.507  10.608  0.5960  0.1373 -0.0527
  169MOL0     C22207  -0.574   7.489  10.528  0.1097 -0.3015 -0.1589
  169MOL0     C22208  -0.564   7.443  10.395 -0.2648 -0.6225  0.1364
  169MOL0     C22209  -0.676   7.441  10.312 -0.4725  0.5060 -0.4868
  169MOL0     C22210  -0.802   7.491  10.358  1.4148  0.1574 -0.0419
  169MOL0     O22211  -0.913   7.498  10.270  0.1159 -0.1312  0.9722
  169MOL0     C22212  -1.049   7.501  10.323  0.0347 -0.3340  0.2180
  169MOL0     C22213  -1.154   7.490  10.214 -0.4141 -0.5728 -0.0273
  169MOL0     C22214  -1.161   7.350  10.156  0.3953  0.0269 -0.6639
  169MOL0     C22215  -1.231   7.358  10.026 -0.2682  0.5370 -0.4557
  169MOL0     C22216  -1.268   7.230   9.946  1.1291 -0.0748  0.5373
  169MOL0     C22217  -1.321   7.260   9.802 -0.8070 -0.2490  0.7626
  169MOL0     C22218  -1.392   7.142   9.741 -0.3904  0.3114 -0.2448
  169MOL0     C22219  -1.316   7.084   9.615 -0.4506  0.4761 -0.4195
  169MOL0    Cl22220  -1.158   7.026   9.677 -0.1551 -0.0657 -0.0496
  169MOL0     C22221  -0.802   7.549  10.485  0.2535 -0.8478 -0.3178
  169MOL0     C22222  -0.694   7.546  10.570 -0.7667  1.1146  0.4035
  169MOL0     O22223  -0.365   7.301  10.576  0.2792  0.1438  0.5843
  169MOL0     C22224  -0.142   7.378  10.723 -0.5594  0.1123  0.5846
  169MOL0     C22225  -0.026   7.425  10.789  0.8453  0.1464 -0.8146
  169MOL0     N22226   0.673   7.300  11.109 -0.1824  0.8218 -0.6138
  169MOL0     N22227   0.771   7.250  11.175 -0.2667  0.0827 -0.1092
  169MOL0     C22228   2.008   7.387  11.096 -0.4812  0.6949  0.6695
  169MOL0     C22229   2.141   7.420  11.058  0.3979  0.4271 -0.0070
  169MOL0     C22230   2.592   7.467  11.078 -0.6156  0.0688  0.6700
  169MOL0     C22231   2.593   7.540  10.958 -0.4080  0.1437  0.4226
  169MOL0     C22232   2.710   7.572  10.893  1.0665 -0.0489  0.0804
  169MOL0     C22233   2.824   7.523  10.941  0.5162  0.0542  0.6642
  169MOL0     O22234   2.919   7.552  10.853  0.1656 -0.8211 -0.1602
  169MOL0     C22235   2.968   7.448  10.776  0.5826 -0.9222 -0.1648
  169MOL0     C22236   3.122   7.458  10.768 -0.2005  0.6055  0.0287
  169MOL0     C22237   3.178   7.377  10.653 -0.0302 -0.1213 -0.7587
  169MOL0     C22238   3.134   7.219  10.654  0.5178 -0.3406 -0.5765
  169MOL0     C22239   3.162   7.146  10.776  0.0684 -0.4162  1.0256
  169MOL0     C22240   3.166   7.096  10.884  0.1334 -0.4432 -0.1674
  169MOL0     C22241   2.831   7.444  11.057 -0.1505 -0.6681 -0.4752
  169MOL0     C22242   2.713   7.408  11.124  0.0937  0.7645 -0.6914
  169MOL0     H22243   2.259   7.519  11.355  1.1500  0.2505 -0.3697
  169MOL0     H22244   2.028   7.475  11.425  0.0114 -0.3283  0.2439
  169MOL0     H22245   1.756   7.256  11.126  0.7325 -0.4269  0.9653
  169MOL0     H22246   1.756   7.427  11.093  2.0816  1.4504  1.3247
  169MOL0     H22247   1.589   7.441  11.300 -0.5907  0.3757 -0.9919
  169MOL0     H22248   1.597   7.259  11.311  2.7983 -0.0303  0.5388
  169MOL0     H22249   1.520   7.235  11.090  1.2565 -0.4245  0.3987
  169MOL0     H22250   1.525   7.411  11.060 -0.6221 -0.2408 -1.8337
  169MOL0     H22251   1.355   7.236  11.270  2.4771 -0.4877  0.1679
  169MOL0     H22252   1.346   7.412  11.280  1.1837 -0.8902  1.1802
  169MOL0     H22253   1.261   7.255  11.029 -1.0490  1.2619 -0.8348
  169MOL0     H22254   1.226   7.416  11.062  2.5226 -1.1501 -2.8031
  169MOL0     H22255   1.133   7.176  11.232 -0.6318  0.4905 -0.1018
  169MOL0     H22256   1.037   7.252  11.110 -1.4655  0.5635  1.2960
  169MOL0     H22257   1.134   7.365  11.376  1.7333 -0.7603 -2.5801
  169MOL0     H22258   1.053   7.471  11.262 -0.9610  0.3504 -0.1245
  169MOL0     H22259   0.910   7.393  11.440  1.3220 -1.6916  2.1095
  169MOL0     H22260   0.928   7.221  11.378 -0.8769 -0.3385 -3.3066
  169MOL0     H22261   0.731   7.550  11.297 -2.7321 -0.5579  0.8747
  169MOL0     H22262   0.568   7.564  11.003  2.4853 -0.9645  0.0166
  169MOL0     H22263   0.505   7.597  11.172 -2.6151 -1.4053  0.8764
  169MOL0     H22264   0.389   7.373  11.170  0.1632 -0.8067 -0.7767
  169MOL0     H22265   0.399   7.375  10.996 -4.6217  1.5269 -1.1983
  169MOL0     H22266   0.216   7.531  11.174 -0.6755  2.9442 -0.5577
  169MOL0     H22267   0.301   7.642  11.069 -2.2141  0.4196  0.1611
  169MOL0     H22268   0.147   7.385  11.001  0.6014 -0.2824  0.6299
  169MOL0     H22269   0.232   7.467  10.878 -2.7345  0.2392 -1.1871
  169MOL0     H22270  -0.176   7.697  10.935 -1.5984 -0.9105  2.8379
  169MOL0     H22271  -0.339   7.643  10.810  1.3078  1.9966 -1.6877
  169MOL0     H22272  -0.465   7.413  10.361  0.1821 -0.6361  1.3683
  169MOL0     H22273  -0.662   7.416  10.207 -0.2335  0.0483 -0.3500
  169MOL0     H22274  -1.064   7.587  10.389  0.2658 -0.3330  0.2725
  169MOL0     H22275  -1.073   7.414  10.386  1.9320 -0.1546  1.2888
  169MOL0     H22276  -1.117   7.562  10.139  2.6264 -2.0855 -0.1699
  169MOL0     H22277  -1.253   7.517  10.250  0.2561  1.7577  0.2349
  169MOL0     H22278  -1.217   7.279  10.218  0.5758  1.0333  0.7071
  169MOL0     H22279  -1.063   7.306  10.137 -0.5815 -1.7409 -1.9275
  169MOL0     H22280  -1.324   7.416  10.028 -1.0611 -0.5560 -2.6391
  169MOL0     H22281  -1.162   7.422   9.969  0.4499 -0.8843 -1.2239
  169MOL0     H22282  -1.338   7.172  10.006 -1.4775  0.6660 -1.6144
  169MOL0     H22283  -1.174   7.173   9.942  0.9303 -1.0524  4.8116
  169MOL0     H22284  -1.239   7.294   9.738  0.3228  1.6084  3.0218
  169MOL0     H22285  -1.388   7.346   9.815  0.0919  0.4785  0.6439
  169MOL0     H22286  -1.418   7.072   9.821  0.3810  0.9040  0.5422
  169MOL0     H22287  -1.486   7.186   9.708 -0.3743  0.3123 -0.2909
  169MOL0     H22288  -1.300   7.157   9.534  1.0014  1.1312  0.4182
  169MOL0     H22289  -1.371   7.000   9.573 -1.5832  1.1340 -0.3025
  169MOL0     H22290  -0.892   7.600  10.518  3.3881  3.8083  1.9909
  169MOL0     H22291  -0.698   7.580  10.673 -0.5300 -0.0226  0.8028
  169MOL0     H22292  -0.115   7.286  10.672 -0.1333  0.6378 -0.1510
  169MOL0     H22293   0.069   7.377  10.769  0.9436  0.0567 -0.1410
  169MOL0     H22294   1.962   7.325  11.019  2.9434 -0.9060 -0.2916
  169MOL0     H22295   2.170   7.398  10.956 -0.4315 -0.4788 -0.0622
  169MOL0     H22296   2.497   7.554  10.909 -2.1935 -2.4962  2.8757
  169MOL0     H22297   2.705   7.635  10.804  1.0732  2.3697  1.6874
  169MOL0     H22298   2.933   7.455  10.673 -1.7380  1.8016  0.6779
  169MOL0     H22299   2.936   7.351  10.815  0.2187 -1.1279 -0.9479
  169MOL0     H22300   3.147   7.564  10.756  1.9615  0.0607 -0.7666
  169MOL0     H22301   3.157   7.429  10.868 -0.2715 -0.6906 -0.3103
  169MOL0     H22302   3.287   7.384  10.659 -0.0978  0.4043 -0.0371
  169MOL0     H22303   3.148   7.421  10.557  1.4342  2.7669  0.0207
  169MOL0     H22304   3.028   7.214  10.627 -0.3355 -2.3379  2.6084
  169MOL0     H22305   3.194   7.170  10.577  1.8641  1.9651 -1.0663
  169MOL0     H22306   3.160   7.049  10.980 -0.9053  2.7687  1.4970
  169MOL0     H22307   2.928   7.415  11.097 -0.5347 -1.7609 -0.2956
  169MOL0     H22308   2.705   7.358  11.220 -1.0719  2.0039 -0.1121
  170MOL0     O22309   4.479   2.024   6.218  0.2112  0.5479 -0.1727
  170MOL0     C22310   4.548   1.982   6.121 -0.9426 -0.5233 -0.4799
  170MOL0     O22311   4.639   2.065   6.057 -0.2910 -0.5551  0.2712
  170MOL0     C22312   4.613   2.203   6.041 -0.2600  0.2373 -0.6462
  170MOL0     C22313   4.712   2.289   6.072 -0.5389 -0.0042 -0.4732
  170MOL0     C22314   4.688   2.433   6.059 -0.5970  1.6283  0.2049
  170MOL0     C22315   4.564   2.482   6.016  0.3182  0.5938  0.2619
  170MOL0     O22316   4.548   2.620   5.997  0.2595  0.2803  0.0943
  170MOL0     C22317   4.465   2.676   5.888 -0.6919  0.6956 -0.5840
  170MOL0     C22318   4.326   2.726   5.942  0.0213 -0.2904  1.0826
  170MOL0     C22319   4.215   2.735   5.831  0.0946 -0.8745  0.2206
  170MOL0     C22320   4.079   2.749   5.896 -0.2934  0.0538 -0.2444
  170MOL0     C22321   3.968   2.790   5.792  0.4231 -0.3322 -0.6081
  170MOL0     C22322   3.977   2.951   5.769  0.5856  0.1439 -0.6256
  170MOL0     C22323   3.825   3.020   5.764 -0.2749  0.6492  0.0818
  170MOL0     C22324   3.782   3.066   5.898 -0.3410  0.2685 -0.0723
  170MOL0     N22325   3.680   3.166   5.878 -0.1372  0.1844 -0.3041
  170MOL0     C22326   3.569   3.148   5.803  0.8040  0.3206  0.1656
  170MOL0     C22327   3.479   3.245   5.839  1.0375  0.8799  0.0226
  170MOL0     C22328   3.337   3.271   5.785 -0.2418 -0.4756  0.2307
  170MOL0     C22329   3.246   3.146   5.814 -0.0647  0.4979 -0.6624
  170MOL0     C22330   3.102   3.197   5.813  0.5393  0.8304  0.1010
  170MOL0     C22331   3.006   3.078   5.796 -0.7142 -0.3647  0.0145
  170MOL0     O22332   3.003   3.005   5.921 -0.4874  0.3607  0.0134
  170MOL0     C22333   2.894   2.928   5.951 -0.1882  0.3811 -0.3810
  170MOL0     C22334   2.890   2.866   6.081  0.8255 -0.4690  0.8880
  170MOL0     C22335   2.771   2.808   6.118 -0.7718  0.5567 -0.1402
  170MOL0     C22336   2.660   2.789   6.029 -1.0347 -0.1631 -0.6727
  170MOL0     C22337   2.538   2.725   6.064  0.5810 -1.1638 -0.0831
  170MOL0     O22338   2.453   2.705   5.964 -0.5481  0.0288 -0.0762
  170MOL0     C22339   2.335   2.643   5.994 -0.4484 -1.5465  0.1544
  170MOL0     C22340   2.328   2.525   6.058 -0.4567 -0.1902  0.2735
  170MOL0     C22341   2.205   2.455   6.081  0.5253  0.1316  0.2678
  170MOL0     C22342   2.082   2.520   6.040 -0.8049 -0.1447 -0.1743
  170MOL0     O22343   1.963   2.451   6.048  0.1742 -0.4500  0.1476
  170MOL0     C22344   1.846   2.541   6.033  0.2582  0.3168 -0.0383
  170MOL0     C22345   1.730   2.447   6.063 -0.0256  0.6230 -0.5795
  170MOL0     C22346   1.703   2.420   6.214  0.3880  0.8324  1.1201
  170MOL0     C22347   1.559   2.365   6.230 -0.5281  0.4553  0.4138
  170MOL0     C22348   1.469   2.470   6.301  0.2508 -0.8631 -0.2123
  170MOL0     C22349   1.327   2.413   6.305 -0.9575  0.0781  0.9042
  170MOL0     C22350   1.229   2.495   6.379  0.7469 -0.3524 -0.8145
  170MOL0     C22351   1.095   2.436   6.388 -0.4604  0.0526  0.4024
  170MOL0    Cl22352   1.018   2.417   6.227  0.2162 -0.2453  0.1869
  170MOL0     C22353   2.098   2.646   5.977 -0.0173  0.5373 -0.0555
  170MOL0     C22354   2.220   2.707   5.954 -0.0648 -0.6632 -0.1665
  170MOL0     O22355   2.509   2.719   6.186  0.2270 -0.1773 -0.7920
  170MOL0     C22356   2.679   2.846   5.902  0.3258 -0.0694 -0.3128
  170MOL0     C22357   2.792   2.906   5.859  0.4071 -0.6886 -0.2650
  170MOL0     N22358   3.539   3.319   5.935 -0.6563 -0.7503 -1.0592
  170MOL0     N22359   3.661   3.275   5.956  0.6261 -0.1363 -0.5730
  170MOL0     C22360   4.463   2.392   5.996 -0.0930  0.2440  0.5865
  170MOL0     C22361   4.486   2.258   6.001 -0.0990  0.8678  0.5082
  170MOL0     C22362   4.536   1.842   6.080  0.0730 -0.3131  0.7328
  170MOL0     C22363   4.481   1.744   6.161  0.6404 -0.3826 -0.2708
  170MOL0     C22364   4.449   1.621   6.116 -0.2185 -0.0180 -0.2822
  170MOL0     C22365   4.483   1.586   5.984 -0.1746  0.1436 -0.1750
  170MOL0     O22366   4.458   1.465   5.924 -0.4464  0.3769 -0.1642
  170MOL0     C22367   4.346   1.393   5.973 -0.4472  0.1923 -0.0671
  170MOL0     C22368   4.281   1.322   5.858  0.6995 -0.9247 -0.1537
  170MOL0     C22369   4.149   1.261   5.877  0.0073  0.7157 -0.1048
  170MOL0     C22370   4.079   1.251   5.744 -0.2789 -0.0081 -0.0415
  170MOL0     C22371   4.164   1.207   5.629  0.2391  0.0758 -0.3692
  170MOL0     C22372   4.229   1.175   5.536 -0.1484 -0.1662 -0.6610
  170MOL0     C22373   4.541   1.673   5.900  0.1721 -0.1286  0.1835
  170MOL0     C22374   4.572   1.797   5.948 -0.6631  0.0708 -0.3288
  170MOL0     H22375   4.809   2.256   6.110 -1.2967 -0.2390  1.3306
  170MOL0     H22376   4.763   2.510   6.071  1.1704 -0.1786  1.3978
  170MOL0     H22377   4.441   2.596   5.817 -0.5041 -1.0998  1.2427
  170MOL0     H22378   4.513   2.744   5.818  0.2801 -0.7042 -1.3425
  170MOL0     H22379   4.340   2.818   5.998  2.8023  0.3445 -0.4238
  170MOL0     H22380   4.289   2.651   6.013 -0.0480 -3.1583 -1.7312
  170MOL0     H22381   4.223   2.635   5.788  0.2904 -0.2340 -1.3016
  170MOL0     H22382   4.242   2.818   5.766 -3.3103  0.1055 -0.1286
  170MOL0     H22383   4.051   2.652   5.938  0.5782  0.0569  0.3864
  170MOL0     H22384   4.094   2.824   5.973 -0.7174  0.3747 -0.4693
  170MOL0     H22385   3.873   2.768   5.841  0.2364  0.0881 -0.7783
  170MOL0     H22386   3.971   2.739   5.695 -1.9220  1.0846 -1.5370
  170MOL0     H22387   4.030   2.969   5.675 -0.6040  1.6084 -1.0450
  170MOL0     H22388   4.031   3.008   5.845  1.7899 -0.0355 -1.3183
  170MOL0     H22389   3.836   3.105   5.696 -2.1174 -0.9001 -2.3219
  170MOL0     H22390   3.751   2.962   5.708 -0.7850  2.7962 -1.6351
  170MOL0     H22391   3.868   3.113   5.948  0.8693 -0.1694 -1.6673
  170MOL0     H22392   3.741   2.989   5.963 -1.8933  0.1377 -1.1636
  170MOL0     H22393   3.564   3.074   5.724  3.4557  0.9874 -0.7590
  170MOL0     H22394   3.337   3.290   5.677  2.4960 -1.0246  0.0637
  170MOL0     H22395   3.304   3.364   5.832 -0.4756 -0.2151 -0.4382
  170MOL0     H22396   3.274   3.110   5.914  0.3010 -0.3727 -1.0743
  170MOL0     H22397   3.268   3.067   5.742  2.1750  0.5989 -0.1690
  170MOL0     H22398   3.085   3.238   5.913 -0.5958  2.4121 -0.6819
  170MOL0     H22399   3.081   3.273   5.737  1.9151 -1.7817 -3.1838
  170MOL0     H22400   3.033   3.004   5.721 -1.5563 -2.8044  1.9723
  170MOL0     H22401   2.911   3.126   5.769 -0.1308  2.2351  2.1033
  170MOL0     H22402   2.963   2.869   6.161  1.1749 -1.8527  0.6489
  170MOL0     H22403   2.777   2.765   6.217  0.1469  1.8363  0.3678
  170MOL0     H22404   2.416   2.468   6.089 -0.2291  0.8971  1.7387
  170MOL0     H22405   2.214   2.354   6.119 -1.7539 -0.1792  0.1167
  170MOL0     H22406   1.830   2.572   5.929  2.2962  1.9894  0.1011
  170MOL0     H22407   1.852   2.625   6.103 -0.6271 -0.8978  1.5746
  170MOL0     H22408   1.739   2.355   6.005 -3.1827  0.5472 -1.1310
  170MOL0     H22409   1.634   2.488   6.030 -3.1185 -3.5320  2.3061
  170MOL0     H22410   1.715   2.516   6.266  1.4459  1.2263  0.1896
  170MOL0     H22411   1.769   2.346   6.261 -0.2139  0.5690  1.5575
  170MOL0     H22412   1.512   2.328   6.139  1.5364 -1.6516  0.1255
  170MOL0     H22413   1.561   2.274   6.291 -0.2198 -2.8977 -4.1291
  170MOL0     H22414   1.471   2.563   6.243 -0.7188 -0.8558 -0.2527
  170MOL0     H22415   1.492   2.497   6.405 -0.7704  3.4326 -0.9231
  170MOL0     H22416   1.324   2.311   6.343 -2.2807 -1.6402 -3.2160
  170MOL0     H22417   1.285   2.401   6.205 -4.0335 -0.5525  2.1897
  170MOL0     H22418   1.262   2.493   6.484  0.7318 -2.8422 -0.8036
  170MOL0     H22419   1.230   2.598   6.342  1.7150  0.2935  0.8742
  170MOL0     H22420   1.030   2.498   6.451 -1.5965 -0.5833 -0.1008
  170MOL0     H22421   1.093   2.343   6.446  0.9528 -0.4020 -0.2504
  170MOL0     H22422   2.017   2.703   5.932  0.7793  0.1985 -1.9845
  170MOL0     H22423   2.239   2.797   5.896  0.3149  0.2848  1.3737
  170MOL0     H22424   2.600   2.838   5.829  1.2946  0.0573 -1.3911
  170MOL0     H22425   2.797   2.935   5.754  0.1976 -2.1626 -0.7083
  170MOL0     H22426   4.365   2.429   5.969 -2.0642 -1.7242  4.2113
  170MOL0     H22427   4.399   2.199   5.972  0.2274 -1.2278  3.3026
  170MOL0     H22428   4.450   1.766   6.263 -1.8072 -1.6977 -0.6611
  170MOL0     H22429   4.404   1.555   6.190 -2.1191  2.1781  0.6564
  170MOL0     H22430   4.272   1.465   6.012 -0.1372  1.7241 -2.1505
  170MOL0     H22431   4.374   1.333   6.061  0.2324 -3.3038 -2.4697
  170MOL0     H22432   4.268   1.391   5.774  1.4968 -1.4195 -0.6927
  170MOL0     H22433   4.352   1.248   5.819  0.8474 -0.5561 -0.5914
  170MOL0     H22434   4.089   1.323   5.944  0.0089  0.3073  0.2771
  170MOL0     H22435   4.153   1.160   5.919 -1.4942  0.9525  0.6970
  170MOL0     H22436   3.989   1.190   5.755 -1.4556  1.7468  0.4119
  170MOL0     H22437   4.042   1.349   5.713 -2.9655 -1.1494 -0.6922
  170MOL0     H22438   4.292   1.140   5.457 -0.5636  0.5462 -1.3259
  170MOL0     H22439   4.585   1.642   5.806  2.1667  1.6128  0.4611
  170MOL0     H22440   4.623   1.863   5.879 -3.3432  1.4458 -1.1641
  171MOL0     O22441   9.582   3.474   6.609  0.5428  0.3095  0.7088
  171MOL0     C22442   9.570   3.437   6.728  0.5240 -0.5844 -0.3588
  171MOL0     O22443   9.461   3.367   6.779  0.0066 -0.4971  0.8785
  171MOL0     C22444   9.354   3.330   6.698 -0.0804 -0.0024  0.0652
  171MOL0     C22445   9.223   3.341   6.747  0.2634 -0.6857 -0.3253
  171MOL0     C22446   9.112   3.319   6.668  0.2285 -1.1773  0.3553
  171MOL0     C22447   9.134   3.274   6.534  0.1594 -1.1943 -0.3195
  171MOL0     O22448   9.020   3.270   6.460  0.5084 -0.2767 -0.2723
  171MOL0     C22449   9.023   3.269   6.320  0.8016 -0.3194 -0.3950
  171MOL0     C22450   9.019   3.127   6.265 -1.3250  0.9777  0.0168
  171MOL0     C22451   8.888   3.061   6.275  0.0668  0.5862  0.6881
  171MOL0     C22452   8.882   2.931   6.189 -0.9015 -0.7467 -1.1598
  171MOL0     C22453   8.746   2.854   6.171 -0.0957  0.6868  0.3734
  171MOL0     C22454   8.725   2.773   6.290  0.9876 -0.3068  1.0873
  171MOL0     C22455   8.601   2.680   6.276 -0.2297  0.7893  0.4371
  171MOL0     C22456   8.615   2.570   6.382 -0.5369 -0.2701  1.1473
  171MOL0     N22457   8.547   2.599   6.507 -0.1002 -0.5372  0.0676
  171MOL0     C22458   8.420   2.647   6.527 -0.2430  0.1129  0.7733
  171MOL0     C22459   8.405   2.679   6.649  0.4347  0.0473 -0.5310
  171MOL0     C22460   8.285   2.736   6.727 -0.9735  0.2108  0.3337
  171MOL0     C22461   8.272   2.687   6.871  0.8616  0.0367 -0.2675
  171MOL0     C22462   8.168   2.766   6.948  0.2685  0.6784 -0.5211
  171MOL0     C22463   8.025   2.711   6.928 -0.3293 -0.9731  0.1406
  171MOL0     O22464   7.934   2.805   6.986  0.2659  0.3940 -0.2157
  171MOL0     C22465   7.796   2.800   6.955  0.0821 -0.3799 -0.5387
  171MOL0     C22466   7.704   2.868   7.038 -0.1031  0.1688 -0.1924
  171MOL0     C22467   7.561   2.861   7.014  0.8866 -0.1890  0.5275
  171MOL0     C22468   7.515   2.786   6.905  0.8338  0.2338  0.4738
  171MOL0     C22469   7.364   2.776   6.881 -0.4908  0.8098 -0.3023
  171MOL0     O22470   7.282   2.869   6.938 -0.2592  0.0048 -0.4083
  171MOL0     C22471   7.145   2.864   6.928  0.0993  0.0314  1.2024
  171MOL0     C22472   7.074   2.986   6.960 -0.6219 -0.4801  0.1173
  171MOL0     C22473   6.940   2.986   6.963 -0.4894 -0.5939 -0.1278
  171MOL0     C22474   6.862   2.879   6.913  0.0848 -0.6447 -0.5115
  171MOL0     O22475   6.725   2.877   6.896 -0.1077 -0.4902 -0.5407
  171MOL0     C22476   6.651   2.990   6.943 -0.3349  0.7301  0.5841
  171MOL0     C22477   6.504   2.954   6.937 -0.7342 -0.4351  0.3818
  171MOL0     C22478   6.448   2.951   6.801  0.0520  0.5684 -0.8822
  171MOL0     C22479   6.301   2.909   6.810  0.8107  0.8228 -0.0563
  171MOL0     C22480   6.240   2.861   6.671 -0.0262 -0.1639 -0.2571
  171MOL0     C22481   6.103   2.818   6.687 -0.5225 -0.1058 -0.6747
  171MOL0     C22482   6.025   2.821   6.557 -0.0820  0.2616  0.3735
  171MOL0     C22483   6.062   2.702   6.470  0.5003 -0.5363  0.0026
  171MOL0    Cl22484   5.910   2.614   6.433 -0.3122  0.0590  0.0669
  171MOL0     C22485   6.932   2.757   6.886 -0.3282 -0.1069  0.0337
  171MOL0     C22486   7.070   2.754   6.898 -0.4183 -0.0932 -0.5351
  171MOL0     O22487   7.329   2.687   6.809 -0.1408  0.9051  0.1383
  171MOL0     C22488   7.615   2.724   6.824 -0.3607  0.3644  0.6349
  171MOL0     C22489   7.750   2.730   6.850 -0.4700 -0.5483  0.3320
  171MOL0     N22490   8.524   2.661   6.712 -0.5604  0.6629 -0.6186
  171MOL0     N22491   8.606   2.608   6.630 -0.3020 -0.1809  0.9516
  171MOL0     C22492   9.264   3.246   6.492 -0.1333 -0.1425  0.1828
  171MOL0     C22493   9.372   3.289   6.567  0.6709  0.1518 -0.5774
  171MOL0     C22494   9.680   3.470   6.817  0.3115 -0.0041 -1.0283
  171MOL0     C22495   9.690   3.403   6.939  0.8452  0.7296 -0.2527
  171MOL0     C22496   9.792   3.432   7.031 -0.8143  0.3409  0.4677
  171MOL0     C22497   9.877   3.547   7.001  0.1684 -0.3437  0.2820
  171MOL0     O22498   9.980   3.580   7.082  0.6333 -0.5689 -0.5533
  171MOL0     C22499   9.995   3.533   7.223  0.4033 -0.2270 -0.0048
  171MOL0     C22500  10.120   3.590   7.285 -0.2082 -0.6616 -0.5253
  171MOL0     C22501  10.132   3.546   7.430  0.9059 -0.0175 -0.1122
  171MOL0     C22502  10.258   3.595   7.499 -0.2024 -0.5226 -0.0552
  171MOL0     C22503  10.250   3.739   7.523  0.6147  0.5405  0.5561
  171MOL0     C22504  10.233   3.853   7.543  0.9155 -0.8511  0.0022
  171MOL0     C22505   9.853   3.627   6.886  0.1281 -0.2939  1.0090
  171MOL0     C22506   9.764   3.584   6.791 -0.4569  0.6274  0.3283
  171MOL0     H22507   9.206   3.385   6.845 -0.0969  1.2718 -1.2210
  171MOL0     H22508   9.011   3.340   6.704  0.9062  1.0790  1.1133
  171MOL0     H22509   9.107   3.323   6.276  0.2123  0.4657 -0.5769
  171MOL0     H22510   8.931   3.318   6.285  0.5745 -0.5897 -0.1907
  171MOL0     H22511   9.094   3.061   6.310 -0.8523  2.3296  1.2928
  171MOL0     H22512   9.037   3.132   6.157 -7.0831  0.4050 -1.2963
  171MOL0     H22513   8.799   3.116   6.244 -0.8369 -0.4528  1.3550
  171MOL0     H22514   8.879   3.029   6.379  1.4644  2.1581  1.3379
  171MOL0     H22515   8.915   2.946   6.086 -1.4286 -1.1273 -1.3882
  171MOL0     H22516   8.965   2.866   6.219  0.0299  0.2395 -1.5066
  171MOL0     H22517   8.753   2.785   6.086  0.5535  1.2971 -0.0929
  171MOL0     H22518   8.653   2.911   6.159 -0.4109 -0.0780 -1.1487
  171MOL0     H22519   8.703   2.845   6.370 -0.1915  0.7570 -0.1305
  171MOL0     H22520   8.815   2.716   6.315  0.1736 -1.6455  1.0877
  171MOL0     H22521   8.510   2.740   6.286  1.2337  3.6219 -1.7606
  171MOL0     H22522   8.593   2.624   6.182  2.2241  1.4895 -0.2800
  171MOL0     H22523   8.712   2.537   6.417  1.0085  0.6605 -1.8619
  171MOL0     H22524   8.572   2.477   6.345  1.8730 -1.3894  0.9978
  171MOL0     H22525   8.346   2.659   6.448  1.8017 -2.0900 -1.6629
  171MOL0     H22526   8.193   2.700   6.680 -0.6185  0.6393 -0.7313
  171MOL0     H22527   8.294   2.845   6.723  1.5835  0.0458 -1.0268
  171MOL0     H22528   8.362   2.695   6.933 -0.2179  2.3698  1.1392
  171MOL0     H22529   8.251   2.579   6.868 -0.3173  0.2643 -1.0694
  171MOL0     H22530   8.192   2.753   7.054  1.0335 -0.0688 -0.7778
  171MOL0     H22531   8.165   2.873   6.924 -2.0117  0.0299 -3.8986
  171MOL0     H22532   8.022   2.620   6.990 -2.9378 -0.5527  0.7434
  171MOL0     H22533   8.017   2.683   6.822  1.8755  1.8917 -0.8920
  171MOL0     H22534   7.760   2.936   7.101  2.0182 -2.3695  0.8648
  171MOL0     H22535   7.490   2.916   7.074  1.6495  0.6095  0.7123
  171MOL0     H22536   7.123   3.080   6.985  0.0587 -0.1148 -2.3111
  171MOL0     H22537   6.887   3.073   6.999  0.1257 -1.5452  3.4273
  171MOL0     H22538   6.669   3.073   6.874 -0.6849 -1.0415 -1.7431
  171MOL0     H22539   6.670   3.029   7.044  0.2001 -0.3734  0.9171
  171MOL0     H22540   6.447   3.027   6.995 -1.9677  1.4253 -2.8990
  171MOL0     H22541   6.490   2.855   6.980 -1.4419 -0.6253 -0.2776
  171MOL0     H22542   6.512   2.898   6.730  2.1448  3.4436 -1.2927
  171MOL0     H22543   6.456   3.055   6.767  3.2987  1.0528  1.0063
  171MOL0     H22544   6.289   2.826   6.881  0.4731  1.8399  1.1117
  171MOL0     H22545   6.250   2.990   6.863  1.3483  0.7670  0.5661
  171MOL0     H22546   6.299   2.777   6.634 -2.8214 -2.1925 -0.4125
  171MOL0     H22547   6.251   2.940   6.595  0.4733  0.8462  0.8221
  171MOL0     H22548   6.053   2.881   6.762  0.5091 -1.7690  1.5175
  171MOL0     H22549   6.103   2.717   6.730  1.5593  0.5066  0.9737
  171MOL0     H22550   5.917   2.822   6.578 -0.5716 -1.1048 -1.8102
  171MOL0     H22551   6.051   2.915   6.508 -0.5772  2.1016  3.3913
  171MOL0     H22552   6.135   2.636   6.517 -2.1482 -2.1599  2.1143
  171MOL0     H22553   6.099   2.735   6.372  1.1539 -3.3462 -0.7962
  171MOL0     H22554   6.874   2.669   6.861 -0.4631 -0.7013  2.1922
  171MOL0     H22555   7.117   2.657   6.885 -0.7110 -0.1429 -1.2546
  171MOL0     H22556   7.585   2.667   6.737  1.6369  2.5959 -1.6656
  171MOL0     H22557   7.817   2.674   6.786 -2.3244 -1.0412 -1.2846
  171MOL0     H22558   9.275   3.202   6.393 -1.2900  1.4044 -0.6834
  171MOL0     H22559   9.467   3.280   6.516  1.1829  1.0474  0.1860
  171MOL0     H22560   9.647   3.304   6.951  3.2123 -0.3393  0.0210
  171MOL0     H22561   9.825   3.362   7.106  1.0248 -1.1043 -1.5714
  171MOL0     H22562  10.010   3.425   7.226  0.8753 -0.1494  0.7127
  171MOL0     H22563   9.912   3.550   7.293  0.5501 -3.3164  1.0775
  171MOL0     H22564  10.212   3.563   7.231  0.5970 -1.1213  1.0143
  171MOL0     H22565  10.122   3.699   7.288 -1.0007 -0.6583  0.0516
  171MOL0     H22566  10.139   3.438   7.416  0.6682 -0.3460  2.0342
  171MOL0     H22567  10.042   3.575   7.485  1.0105 -0.3597  0.2386
  171MOL0     H22568  10.266   3.552   7.599  1.2147  1.7241  0.8801
  171MOL0     H22569  10.352   3.573   7.447  0.9163  0.5684  1.4298
  171MOL0     H22570  10.219   3.957   7.561 -0.5079 -1.3064  1.7492
  171MOL0     H22571   9.916   3.712   6.863 -3.1382  1.1181 -4.6762
  171MOL0     H22572   9.762   3.632   6.693  1.1389  2.1850  1.0107
  172MOL0     O22573   0.421   2.456   3.902  0.0792  0.0261 -0.1119
  172MOL0     C22574   0.532   2.412   3.873  0.3984  0.2062  0.7534
  172MOL0     O22575   0.566   2.276   3.865 -0.1754 -0.1055 -0.3922
  172MOL0     C22576   0.468   2.186   3.896  0.0010 -0.6400  0.3934
  172MOL0     C22577   0.436   2.162   4.030  0.2525  0.1647  0.6346
  172MOL0     C22578   0.335   2.070   4.058 -0.6061 -0.3661  0.1481
  172MOL0     C22579   0.253   2.012   3.956  0.4515  0.4509  0.0128
  172MOL0     O22580   0.138   1.941   4.003  0.1822  0.2819  0.4510
  172MOL0     C22581   0.054   1.878   3.907 -1.0154 -0.1689 -0.1709
  172MOL0     C22582  -0.044   1.776   3.963  0.1135 -0.0533  0.2769
  172MOL0     C22583  -0.160   1.839   4.045 -1.0438  0.1405 -0.0564
  172MOL0     C22584  -0.253   1.727   4.093  0.0374  0.1058  0.0454
  172MOL0     C22585  -0.374   1.775   4.179 -0.4051  1.3716 -0.1526
  172MOL0     C22586  -0.482   1.666   4.190  0.6091 -0.2498  1.7742
  172MOL0     C22587  -0.592   1.692   4.293  0.7926  0.3740 -0.0598
  172MOL0     C22588  -0.702   1.588   4.297 -0.2891  0.5080 -0.7078
  172MOL0     N22589  -0.793   1.596   4.418 -0.4040 -0.7595  0.4602
  172MOL0     C22590  -0.927   1.594   4.390 -0.0332 -0.2096 -0.3124
  172MOL0     C22591  -0.989   1.587   4.513  0.4711 -0.5512  0.3895
  172MOL0     C22592  -1.141   1.592   4.541  0.2289 -1.3604 -0.0538
  172MOL0     C22593  -1.189   1.456   4.597 -0.2996  0.7733  0.8084
  172MOL0     C22594  -1.297   1.464   4.711 -0.0878  0.1871  0.5729
  172MOL0     C22595  -1.425   1.534   4.688  0.7195 -0.0304  0.3035
  172MOL0     O22596  -1.486   1.486   4.573  0.2604 -0.0815  0.3674
  172MOL0     C22597  -1.620   1.495   4.546 -0.1439  0.2126 -0.2218
  172MOL0     C22598  -1.688   1.615   4.570  0.7892  0.1023  0.6291
  172MOL0     C22599  -1.826   1.630   4.531 -0.1110 -0.2399  0.7694
  172MOL0     C22600  -1.883   1.520   4.461  0.1798 -0.4810  0.1417
  172MOL0     C22601  -2.025   1.527   4.415 -0.1852  0.1416 -1.0337
  172MOL0     O22602  -2.078   1.426   4.338 -0.1802 -0.1560 -0.1814
  172MOL0     C22603  -2.214   1.421   4.313  1.0201 -0.0165 -0.5432
  172MOL0     C22604  -2.280   1.528   4.251  0.0456 -0.0799  0.4537
  172MOL0     C22605  -2.416   1.522   4.242  0.2722 -0.2256  0.1681
  172MOL0     C22606  -2.492   1.410   4.287  0.9779 -0.0358 -0.6772
  172MOL0     O22607  -2.633   1.400   4.270 -0.0654 -0.8433  0.4106
  172MOL0     C22608  -2.676   1.307   4.174  0.7804 -0.2846 -0.0994
  172MOL0     C22609  -2.828   1.303   4.182 -0.0806 -0.1953  0.5869
  172MOL0     C22610  -2.885   1.247   4.312  0.7524 -0.3628 -0.7132
  172MOL0     C22611  -3.024   1.187   4.308  1.0904  0.2746 -0.1223
  172MOL0     C22612  -3.144   1.290   4.296 -0.3124 -0.4238  0.0280
  172MOL0     C22613  -3.281   1.218   4.275 -0.1992  0.2228  1.2666
  172MOL0     C22614  -3.401   1.311   4.235 -0.9195 -0.3033 -0.3183
  172MOL0     C22615  -3.526   1.231   4.206 -0.8638 -1.3167  0.6790
  172MOL0    Cl22616  -3.570   1.135   4.345  0.0936  0.0915 -0.0541
  172MOL0     C22617  -2.420   1.298   4.332  0.0580 -0.1650  0.0074
  172MOL0     C22618  -2.281   1.304   4.345  0.4837  0.1028  0.0688
  172MOL0     O22619  -2.091   1.613   4.464  0.2365  0.1904  0.7058
  172MOL0     C22620  -1.803   1.408   4.432 -0.1295 -0.8304  0.2975
  172MOL0     C22621  -1.675   1.396   4.476 -0.0741 -0.0208 -0.3914
  172MOL0     N22622  -0.885   1.579   4.600 -1.1419  0.7072 -0.6821
  172MOL0     N22623  -0.767   1.579   4.547 -0.1528 -0.0706 -0.7019
  172MOL0     C22624   0.279   2.046   3.822 -0.0380  0.2560 -0.0413
  172MOL0     C22625   0.382   2.131   3.793  0.0662 -0.7739  0.4156
  172MOL0     C22626   0.632   2.522   3.860 -0.0913  0.3510  0.1292
  172MOL0     C22627   0.751   2.490   3.789 -0.8460 -0.2341  1.0381
  172MOL0     C22628   0.857   2.582   3.783  0.5264  0.3375  0.4157
  172MOL0     C22629   0.846   2.702   3.853  0.1461  0.2373 -0.4630
  172MOL0     O22630   0.966   2.781   3.857  0.9433 -0.8064 -0.3226
  172MOL0     C22631   0.961   2.904   3.924  0.7067 -0.2965 -1.0039
  172MOL0     C22632   1.103   2.959   3.909 -1.0684 -0.3330 -0.2717
  172MOL0     C22633   1.136   3.086   3.995 -0.9144  0.9220 -0.1153
  172MOL0     C22634   1.255   3.156   3.927 -0.0908  0.5927 -0.5273
  172MOL0     C22635   1.384   3.085   3.917  0.3365  0.1531 -1.0391
  172MOL0     C22636   1.491   3.035   3.909  0.3638 -0.3152 -0.0439
  172MOL0     C22637   0.728   2.734   3.932  0.1492 -0.6814 -0.2868
  172MOL0     C22638   0.623   2.648   3.930 -0.3012  1.2638 -0.8710
  172MOL0     H22639   0.496   2.217   4.103 -0.2829 -0.3066  1.4488
  172MOL0     H22640   0.324   2.054   4.164 -0.2967 -1.4650  0.0252
  172MOL0     H22641   0.115   1.835   3.827  2.5355 -0.7904  2.6283
  172MOL0     H22642  -0.003   1.962   3.866  0.0651  1.2308  1.0379
  172MOL0     H22643   0.026   1.711   4.017  1.0966 -0.5819 -1.5519
  172MOL0     H22644  -0.093   1.727   3.878 -1.2958  2.3271 -0.3405
  172MOL0     H22645  -0.206   1.923   3.992  1.7194  1.1103 -1.0965
  172MOL0     H22646  -0.113   1.873   4.138  0.1406  0.9112 -0.9074
  172MOL0     H22647  -0.295   1.678   4.005 -1.2521  2.2244 -0.5936
  172MOL0     H22648  -0.196   1.650   4.146 -1.7872 -0.8055  0.7466
  172MOL0     H22649  -0.417   1.869   4.142 -2.7032  0.6132  0.4204
  172MOL0     H22650  -0.322   1.790   4.275  1.5850  0.3306 -1.0049
  172MOL0     H22651  -0.440   1.567   4.212 -1.6263 -1.6563  0.2265
  172MOL0     H22652  -0.540   1.652   4.099  0.0716  2.9887  1.5177
  172MOL0     H22653  -0.552   1.706   4.394  2.1850  2.0262 -0.7950
  172MOL0     H22654  -0.639   1.788   4.269  1.3563  0.1484 -2.2276
  172MOL0     H22655  -0.655   1.490   4.291 -1.0721  0.1741 -1.5021
  172MOL0     H22656  -0.762   1.606   4.207 -1.3490  0.0884 -0.0997
  172MOL0     H22657  -0.989   1.600   4.301 -1.2887 -2.9701  0.2841
  172MOL0     H22658  -1.196   1.620   4.451  2.9580 -0.2254 -1.4888
  172MOL0     H22659  -1.175   1.662   4.618 -2.2802 -0.2805 -2.0210
  172MOL0     H22660  -1.110   1.395   4.642  0.5975  0.8707 -0.5832
  172MOL0     H22661  -1.214   1.390   4.514 -0.2962 -0.2846  1.6231
  172MOL0     H22662  -1.326   1.361   4.737 -2.3333  1.1646  2.2645
  172MOL0     H22663  -1.248   1.497   4.803  0.5383  1.8398 -0.3112
  172MOL0     H22664  -1.384   1.635   4.676  3.8151 -1.2623 -0.3121
  172MOL0     H22665  -1.493   1.527   4.774  0.2217 -2.1331 -0.2105
  172MOL0     H22666  -1.647   1.703   4.618 -1.4749  1.2359  0.5900
  172MOL0     H22667  -1.876   1.724   4.552 -0.7805 -0.1691 -0.9533
  172MOL0     H22668  -2.231   1.623   4.230  1.6799 -0.8499  0.6694
  172MOL0     H22669  -2.473   1.606   4.204  1.3384 -0.1044 -1.2652
  172MOL0     H22670  -2.634   1.208   4.196  0.6532  0.1914  2.7566
  172MOL0     H22671  -2.660   1.330   4.069 -0.2172  1.6453  0.1123
  172MOL0     H22672  -2.863   1.240   4.099  1.2368 -1.0788  0.6790
  172MOL0     H22673  -2.875   1.400   4.162 -0.6492 -0.4679  0.5878
  172MOL0     H22674  -2.898   1.335   4.376 -0.0738 -0.0915 -1.2357
  172MOL0     H22675  -2.816   1.167   4.339 -1.1257 -1.4987  1.0749
  172MOL0     H22676  -3.030   1.100   4.242  1.2676 -0.2231  0.5076
  172MOL0     H22677  -3.047   1.148   4.407  0.2157 -0.2662 -0.5290
  172MOL0     H22678  -3.122   1.340   4.201  1.3379 -2.1763 -0.5808
  172MOL0     H22679  -3.150   1.356   4.382 -0.5515  2.7066 -2.2241
  172MOL0     H22680  -3.305   1.159   4.365  0.3264 -0.6041  0.8782
  172MOL0     H22681  -3.269   1.143   4.196 -2.5448 -0.2845  1.2970
  172MOL0     H22682  -3.410   1.391   4.308  0.4066 -0.4712  0.0648
  172MOL0     H22683  -3.377   1.359   4.140  2.7892 -2.5707 -0.7446
  172MOL0     H22684  -3.504   1.154   4.131  2.5097 -1.7810  1.9678
  172MOL0     H22685  -3.601   1.299   4.166 -1.2131 -1.2350  1.4583
  172MOL0     H22686  -2.464   1.208   4.373  1.2981 -0.3777  0.9589
  172MOL0     H22687  -2.234   1.222   4.399 -2.0592 -1.1054  0.5770
  172MOL0     H22688  -1.841   1.317   4.386 -2.2000  0.5388 -0.8761
  172MOL0     H22689  -1.623   1.303   4.452 -0.6335 -0.7518  1.0912
  172MOL0     H22690   0.197   2.028   3.754 -0.5425  0.0763  0.6023
  172MOL0     H22691   0.403   2.153   3.688  2.8077 -0.3609  0.9935
  172MOL0     H22692   0.770   2.396   3.738  0.8622  0.8743 -0.4878
  172MOL0     H22693   0.950   2.561   3.731 -0.4228  2.9747 -2.7034
  172MOL0     H22694   0.948   2.885   4.031  0.0183 -1.8130 -1.3163
  172MOL0     H22695   0.884   2.968   3.880  0.4254  1.3579  1.6710
  172MOL0     H22696   1.171   2.885   3.953  0.1109  1.1018  0.4190
  172MOL0     H22697   1.123   2.971   3.802 -0.9088 -0.6833 -0.2830
  172MOL0     H22698   1.167   3.045   4.091  2.0541  0.5089 -1.1462
  172MOL0     H22699   1.051   3.152   4.014  0.5570  2.4735  1.3415
  172MOL0     H22700   1.230   3.191   3.826  1.3506  1.0323 -0.7588
  172MOL0     H22701   1.284   3.241   3.988  1.5222 -0.3454  0.0658
  172MOL0     H22702   1.580   2.983   3.883 -0.6802 -1.4536 -1.5137
  172MOL0     H22703   0.716   2.829   3.983 -2.1681 -1.0064 -0.1010
  172MOL0     H22704   0.529   2.669   3.980 -0.2115  1.0424 -0.6036
  173MOL0     O22705   3.317   0.880   0.930  0.0878 -0.2685  0.0693
  173MOL0     C22706   3.365   0.787   0.994  0.7470  0.5300  0.6902
  173MOL0     O22707   3.307   0.746   1.116 -0.5836 -0.6179  0.1139
  173MOL0     C22708   3.219   0.829   1.178  0.1710 -1.2185  0.0437
  173MOL0     C22709   3.274   0.926   1.264  0.7912  0.1399 -0.0131
  173MOL0     C22710   3.183   1.006   1.341 -0.4181 -0.4663 -0.1635
  173MOL0     C22711   3.049   0.998   1.337 -0.0384  0.6476 -0.1689
  173MOL0     O22712   2.974   1.070   1.430 -0.4520  0.5565  0.2356
  173MOL0     C22713   2.832   1.074   1.428  0.3004 -0.2942  0.1909
  173MOL0     C22714   2.782   1.186   1.515 -0.1105 -0.2394 -0.8565
  173MOL0     C22715   2.630   1.206   1.504  0.7160 -0.8632 -0.2432
  173MOL0     C22716   2.587   1.336   1.576  1.0044 -0.0244 -0.1283
  173MOL0     C22717   2.430   1.344   1.576 -0.9926  0.0868 -0.0493
  173MOL0     C22718   2.377   1.480   1.619 -0.0782  1.5003  1.2047
  173MOL0     C22719   2.229   1.481   1.652 -0.4683  0.4231 -0.3163
  173MOL0     C22720   2.155   1.610   1.606  0.2960 -1.0259 -0.5719
  173MOL0     N22721   2.021   1.638   1.666 -0.1136  0.3111  0.4499
  173MOL0     C22722   1.918   1.698   1.601  0.0311  0.3345  1.1434
  173MOL0     C22723   1.813   1.685   1.686  0.4036  0.4635 -0.5113
  173MOL0     C22724   1.677   1.735   1.653 -0.4235  0.1222  0.6082
  173MOL0     C22725   1.573   1.626   1.670 -0.1232 -0.1202 -0.1084
  173MOL0     C22726   1.432   1.679   1.649 -0.2160 -0.4608  0.2104
  173MOL0     C22727   1.326   1.580   1.689 -0.1547  0.6296  0.2563
  173MOL0     O22728   1.198   1.644   1.675  0.2249 -0.5775  0.2387
  173MOL0     C22729   1.082   1.569   1.653 -0.7907 -0.2659 -0.5527
  173MOL0     C22730   1.058   1.430   1.681  0.0382 -0.9343  0.5346
  173MOL0     C22731   0.932   1.372   1.655  0.6156 -0.0607 -0.4201
  173MOL0     C22732   0.832   1.451   1.594  0.3805  0.0729  0.5172
  173MOL0     C22733   0.701   1.392   1.558  0.3797 -0.3305  0.3104
  173MOL0     O22734   0.617   1.468   1.483 -0.3066 -0.5266  0.4731
  173MOL0     C22735   0.489   1.429   1.448  0.7190  0.2527 -0.0251
  173MOL0     C22736   0.411   1.317   1.488 -0.0531  0.0133  0.1416
  173MOL0     C22737   0.268   1.314   1.468 -0.8838  0.2511  1.1606
  173MOL0     C22738   0.199   1.417   1.407 -0.0142  0.3119  0.2933
  173MOL0     O22739   0.058   1.426   1.389  0.2408 -0.8847  0.0771
  173MOL0     C22740  -0.028   1.330   1.444 -0.3313  0.3138  1.0073
  173MOL0     C22741  -0.163   1.360   1.384  0.6506 -0.6181 -0.6170
  173MOL0     C22742  -0.171   1.320   1.241  0.5168  0.3394 -0.0294
  173MOL0     C22743  -0.308   1.338   1.184 -1.1160 -0.1253  0.3780
  173MOL0     C22744  -0.388   1.217   1.229  0.5762 -0.4117 -0.0132
  173MOL0     C22745  -0.511   1.194   1.129  0.2102  0.0607  0.0749
  173MOL0     C22746  -0.593   1.070   1.160 -0.4039  0.2781  0.3193
  173MOL0     C22747  -0.723   1.074   1.100  1.4401 -0.4465 -0.6247
  173MOL0    Cl22748  -0.691   1.069   0.923  0.1878  0.1756  0.3774
  173MOL0     C22749   0.275   1.528   1.372  0.0831  0.2102 -0.0924
  173MOL0     C22750   0.413   1.537   1.391 -0.0879  0.3723  0.2848
  173MOL0     O22751   0.688   1.270   1.583  0.0719 -0.5984  0.4734
  173MOL0     C22752   0.855   1.586   1.579 -0.8531  0.0660  0.0383
  173MOL0     C22753   0.976   1.644   1.607 -0.6252  0.0123  0.1794
  173MOL0     N22754   1.862   1.622   1.806  0.2106 -1.1790  0.8478
  173MOL0     N22755   1.980   1.586   1.786 -0.9924  0.3221  0.3862
  173MOL0     C22756   2.989   0.908   1.245  0.0147 -0.8523  1.0287
  173MOL0     C22757   3.080   0.823   1.166  0.2144 -0.3827 -0.7530
  173MOL0     C22758   3.497   0.737   0.948 -0.0998 -0.5558 -0.4812
  173MOL0     C22759   3.579   0.673   1.038 -0.4189  0.0017 -0.3238
  173MOL0     C22760   3.707   0.627   0.996  0.3926  0.1412  0.4713
  173MOL0     C22761   3.750   0.646   0.863  0.2155 -0.2441  0.4366
  173MOL0     O22762   3.883   0.615   0.825  0.0384  0.0538  0.1223
  173MOL0     C22763   3.930   0.641   0.689  0.3042 -0.3449 -0.0667
  173MOL0     C22764   4.064   0.574   0.687  0.1742  0.3036  0.0608
  173MOL0     C22765   4.134   0.634   0.554  0.1761  0.3373 -0.1918
  173MOL0     C22766   4.285   0.624   0.548  1.3238 -0.1065 -0.8510
  173MOL0     C22767   4.320   0.488   0.502 -0.3262  0.6780 -0.8940
  173MOL0     C22768   4.367   0.380   0.477  0.2150  0.1773  0.8901
  173MOL0     C22769   3.660   0.712   0.767 -1.2565 -0.1390  0.4633
  173MOL0     C22770   3.536   0.755   0.815  0.8542  0.2304  0.8983
  173MOL0     H22771   3.381   0.932   1.278  1.2031 -1.6957 -1.8603
  173MOL0     H22772   3.234   1.074   1.408  0.5415 -1.2262 -0.1113
  173MOL0     H22773   2.792   0.976   1.457  1.8630 -2.1460 -3.3206
  173MOL0     H22774   2.798   1.093   1.326  0.3749 -3.2829 -0.4772
  173MOL0     H22775   2.827   1.284   1.496 -1.1678  0.4410 -0.0193
  173MOL0     H22776   2.807   1.162   1.618 -0.5543  1.4161 -0.3315
  173MOL0     H22777   2.573   1.127   1.552 -1.9876  0.6714 -0.6923
  173MOL0     H22778   2.594   1.217   1.400 -1.4539  2.3092  0.6727
  173MOL0     H22779   2.635   1.343   1.674 -0.5932 -1.7819  0.8625
  173MOL0     H22780   2.615   1.424   1.518 -1.2427  0.2383 -0.9305
  173MOL0     H22781   2.399   1.273   1.653 -1.4958  2.4689  2.0983
  173MOL0     H22782   2.381   1.324   1.480 -1.0460  2.6811 -0.6379
  173MOL0     H22783   2.394   1.544   1.533  0.1349  0.1325  0.1997
  173MOL0     H22784   2.431   1.503   1.711  0.8881 -2.1680  1.7130
  173MOL0     H22785   2.189   1.395   1.596  3.0914 -0.6858 -1.4391
  173MOL0     H22786   2.204   1.460   1.756 -1.4895  3.4447  0.1442
  173MOL0     H22787   2.139   1.608   1.498 -3.0997  1.2940 -0.2806
  173MOL0     H22788   2.203   1.706   1.624 -1.6830  0.5927 -3.1896
  173MOL0     H22789   1.913   1.741   1.502  0.5182 -1.3834  0.3281
  173MOL0     H22790   1.676   1.774   1.551 -0.3161  2.4028  1.4096
  173MOL0     H22791   1.657   1.823   1.716 -1.3301  0.4213 -0.0927
  173MOL0     H22792   1.587   1.599   1.775 -2.0352 -0.5833  0.0700
  173MOL0     H22793   1.597   1.529   1.626 -1.5272 -1.4076  1.8137
  173MOL0     H22794   1.432   1.757   1.727  2.9809 -3.3214  3.3856
  173MOL0     H22795   1.422   1.703   1.543  2.4451  0.1943  0.0498
  173MOL0     H22796   1.335   1.523   1.782 -2.2979 -0.7055 -0.2919
  173MOL0     H22797   1.330   1.501   1.614 -1.2981  1.9780 -1.2807
  173MOL0     H22798   1.122   1.373   1.748 -0.5694  1.1117  3.0181
  173MOL0     H22799   0.922   1.269   1.688  0.4256 -0.2048 -0.9210
  173MOL0     H22800   0.448   1.225   1.532  0.7442  0.1161 -0.2795
  173MOL0     H22801   0.213   1.230   1.510 -2.7527  0.4322 -0.7865
  173MOL0     H22802  -0.033   1.339   1.553 -2.8412  0.9616  0.8945
  173MOL0     H22803  -0.004   1.225   1.426 -3.1392 -0.5073  1.4852
  173MOL0     H22804  -0.186   1.465   1.399  0.3826 -0.8074  0.3975
  173MOL0     H22805  -0.237   1.304   1.442 -0.5877  0.1649 -1.4102
  173MOL0     H22806  -0.131   1.221   1.219  0.1515  0.0479  0.6224
  173MOL0     H22807  -0.114   1.396   1.186 -0.9588  1.1241 -0.5329
  173MOL0     H22808  -0.355   1.427   1.225 -1.0592  0.6930 -1.2493
  173MOL0     H22809  -0.292   1.342   1.076  0.0492 -0.6075  0.5167
  173MOL0     H22810  -0.432   1.239   1.327 -2.1245  0.8108 -1.4031
  173MOL0     H22811  -0.328   1.126   1.232 -0.5372 -1.1431  0.8339
  173MOL0     H22812  -0.477   1.171   1.028 -2.3208 -1.3612 -0.5216
  173MOL0     H22813  -0.578   1.280   1.121  1.2394  0.8652 -0.1591
  173MOL0     H22814  -0.544   0.977   1.129  0.3482  1.0055 -0.7188
  173MOL0     H22815  -0.603   1.058   1.268 -1.3150  0.0233  0.2150
  173MOL0     H22816  -0.770   1.169   1.128  0.2868 -1.7844  2.4557
  173MOL0     H22817  -0.791   0.990   1.122  0.7005 -0.3717 -2.4750
  173MOL0     H22818   0.227   1.617   1.332  0.2760  0.9252  1.2020
  173MOL0     H22819   0.475   1.619   1.357 -0.0244  1.3645  2.6052
  173MOL0     H22820   0.778   1.651   1.538 -0.0173  0.1380 -1.4935
  173MOL0     H22821   0.995   1.750   1.599 -1.2842  0.2927  1.9445
  173MOL0     H22822   2.883   0.888   1.232 -0.0382  0.0358 -0.1275
  173MOL0     H22823   3.042   0.753   1.092  0.3198 -0.6378 -0.5684
  173MOL0     H22824   3.548   0.659   1.141 -0.1608 -0.9808 -0.3675
  173MOL0     H22825   3.780   0.581   1.063  0.8222  1.5978  1.0526
  173MOL0     H22826   3.940   0.748   0.673  1.1217 -0.0504  2.0511
  173MOL0     H22827   3.866   0.603   0.609 -1.3485  2.9087 -0.4466
  173MOL0     H22828   4.116   0.606   0.777 -0.8569 -1.2978  1.2757
  173MOL0     H22829   4.080   0.467   0.702  1.3156  0.3682 -0.6177
  173MOL0     H22830   4.115   0.740   0.538  1.8974  0.1930 -4.1216
  173MOL0     H22831   4.078   0.582   0.475  0.6604 -0.8252  0.2031
  173MOL0     H22832   4.332   0.693   0.478  0.6803 -0.2257 -1.4158
  173MOL0     H22833   4.326   0.643   0.648  0.0692 -0.2999 -0.2772
  173MOL0     H22834   4.411   0.297   0.425 -2.4134 -0.5089 -0.4187
  173MOL0     H22835   3.686   0.738   0.665  1.7605 -2.3381  0.5646
  173MOL0     H22836   3.473   0.815   0.750  3.5335  1.2098 -0.9847
  174MOL0     O22837   7.259   3.799   2.945  0.3726 -0.5423  0.2126
  174MOL0     C22838   7.311   3.748   3.043 -0.6689 -0.7389  0.2225
  174MOL0     O22839   7.249   3.740   3.167 -0.1066 -0.7541  0.3055
  174MOL0     C22840   7.111   3.765   3.180 -0.2253 -0.2794  0.0153
  174MOL0     C22841   7.016   3.689   3.114  0.5382 -0.2905 -0.1500
  174MOL0     C22842   6.877   3.706   3.119  0.1822  0.1871 -0.3076
  174MOL0     C22843   6.830   3.801   3.211  1.7716 -0.6861 -0.3212
  174MOL0     O22844   6.690   3.811   3.226 -0.2643  0.7163  0.2817
  174MOL0     C22845   6.639   3.863   3.347 -0.7423  0.1359  0.5305
  174MOL0     C22846   6.491   3.819   3.346 -1.0004  0.4251  0.1770
  174MOL0     C22847   6.406   3.867   3.220 -0.2489 -0.3120  0.0811
  174MOL0     C22848   6.258   3.859   3.251 -0.3221 -0.4955 -0.0892
  174MOL0     C22849   6.188   3.926   3.130 -0.6030  0.3982 -0.5841
  174MOL0     C22850   6.038   3.927   3.121 -0.3553 -0.1017 -0.8901
  174MOL0     C22851   5.971   3.796   3.129 -0.5390  0.1447  0.0067
  174MOL0     C22852   5.821   3.810   3.143 -0.9027 -0.6080  0.8540
  174MOL0     N22853   5.772   3.846   3.275 -0.0715 -0.0623  0.6004
  174MOL0     C22854   5.771   3.758   3.371  0.2406 -0.3461 -0.3154
  174MOL0     C22855   5.716   3.823   3.478  0.7905  0.3460 -0.9698
  174MOL0     C22856   5.690   3.789   3.626  0.7968 -0.4047  0.5212
  174MOL0     C22857   5.639   3.644   3.639 -0.4044  0.1340 -0.5656
  174MOL0     C22858   5.607   3.600   3.784 -0.0975 -0.2016  0.0897
  174MOL0     C22859   5.459   3.625   3.828  0.3901  0.3517 -0.2176
  174MOL0     O22860   5.348   3.623   3.726 -0.5897  0.2507 -0.2330
  174MOL0     C22861   5.220   3.641   3.774  0.2338 -0.7606  0.5153
  174MOL0     C22862   5.143   3.753   3.730 -0.6083  0.3804 -0.0087
  174MOL0     C22863   5.013   3.768   3.772  0.0903  0.0691  0.0300
  174MOL0     C22864   4.946   3.676   3.857 -0.7710  0.2852  0.4758
  174MOL0     C22865   4.804   3.693   3.895  0.2486  0.7852 -0.1577
  174MOL0     O22866   4.745   3.804   3.840 -0.2739  0.4625 -0.4817
  174MOL0     C22867   4.612   3.837   3.862  0.4305 -0.1021  0.3651
  174MOL0     C22868   4.557   3.949   3.794 -1.0669 -0.5977 -0.9054
  174MOL0     C22869   4.421   3.983   3.815  0.1243  0.6284  0.3815
  174MOL0     C22870   4.343   3.920   3.915 -0.0512 -0.2885 -0.1992
  174MOL0     O22871   4.212   3.965   3.930 -0.5742  0.6089 -0.1888
  174MOL0     C22872   4.137   3.944   4.051 -0.2062  0.1058 -0.0654
  174MOL0     C22873   4.003   4.010   4.058  0.3228 -0.0687 -0.1880
  174MOL0     C22874   3.928   3.965   4.190  0.0987  1.2056 -0.0244
  174MOL0     C22875   3.785   4.018   4.193  1.1898 -0.1561 -0.6628
  174MOL0     C22876   3.716   3.983   4.329  1.2901  0.2848 -0.1044
  174MOL0     C22877   3.568   4.001   4.318 -0.1415  0.8247  1.0511
  174MOL0     C22878   3.524   4.138   4.249 -0.5628 -0.0046 -0.5194
  174MOL0     C22879   3.373   4.144   4.267  1.0629 -0.2335 -0.5016
  174MOL0    Cl22880   3.299   3.995   4.196 -0.2024  0.2179 -0.1641
  174MOL0     C22881   4.399   3.819   3.993  1.3202  0.6717  0.0520
  174MOL0     C22882   4.529   3.773   3.966 -0.5897  0.3150 -0.4335
  174MOL0     O22883   4.755   3.598   3.953 -0.8555 -0.3672 -0.8063
  174MOL0     C22884   5.020   3.551   3.893 -0.2741 -0.1091 -0.6255
  174MOL0     C22885   5.163   3.545   3.850 -0.2979  0.9247  0.9695
  174MOL0     N22886   5.693   3.953   3.434  0.2638 -0.8050  0.6014
  174MOL0     N22887   5.734   3.969   3.318  0.2865  0.1372 -0.1964
  174MOL0     C22888   6.922   3.879   3.284 -1.1946  0.3085 -0.8726
  174MOL0     C22889   7.060   3.849   3.276 -0.7902  0.1413 -0.2514
  174MOL0     C22890   7.446   3.696   3.037  0.3350 -0.3280  0.0903
  174MOL0     C22891   7.518   3.645   3.149  0.8529  0.2152  0.0631
  174MOL0     C22892   7.642   3.596   3.142 -0.3949 -0.3530  0.2255
  174MOL0     C22893   7.715   3.606   3.019  0.4242  1.0606 -0.7567
  174MOL0     O22894   7.841   3.556   2.989  0.0228 -0.1303 -0.8222
  174MOL0     C22895   7.929   3.520   3.096 -0.2880 -0.6243  0.1971
  174MOL0     C22896   8.026   3.631   3.125 -0.3255  0.2587 -0.1451
  174MOL0     C22897   8.119   3.684   3.018 -0.4601 -0.4512 -0.1434
  174MOL0     C22898   8.203   3.592   2.954 -0.6772 -0.3047  0.2625
  174MOL0     C22899   8.306   3.528   3.041 -0.5513 -0.5993 -0.1126
  174MOL0     C22900   8.390   3.489   3.119 -0.3980  0.0031  0.8741
  174MOL0     C22901   7.649   3.652   2.907  0.3691  0.0674 -0.0734
  174MOL0     C22902   7.521   3.704   2.918 -0.4420 -0.0669 -0.4947
  174MOL0     H22903   7.044   3.607   3.048 -1.7642 -0.7780 -0.6303
  174MOL0     H22904   6.813   3.647   3.055 -0.9065  1.7193 -0.6854
  174MOL0     H22905   6.647   3.972   3.346 -2.2647  0.2719 -0.6564
  174MOL0     H22906   6.689   3.821   3.435  0.7039 -0.6838 -0.6305
  174MOL0     H22907   6.443   3.833   3.443 -0.9988 -1.5010  0.5118
  174MOL0     H22908   6.482   3.710   3.346 -2.1989  0.4930 -0.9306
  174MOL0     H22909   6.426   3.803   3.134 -3.4632 -0.5027 -0.6249
  174MOL0     H22910   6.440   3.970   3.203 -0.7644 -0.3344 -1.1899
  174MOL0     H22911   6.225   3.755   3.261 -0.2860 -0.3884  1.4476
  174MOL0     H22912   6.236   3.917   3.341  1.2164  0.8989 -0.5632
  174MOL0     H22913   6.223   3.884   3.035 -1.1965  0.4328 -0.8222
  174MOL0     H22914   6.222   4.030   3.128  0.0099  0.1902 -1.3131
  174MOL0     H22915   6.010   3.979   3.029  0.5656 -1.2975 -1.8744
  174MOL0     H22916   5.994   3.983   3.204 -0.3345 -1.8322  0.3366
  174MOL0     H22917   5.990   3.738   3.038  1.1773  1.7241 -0.7024
  174MOL0     H22918   6.014   3.737   3.211  0.9034 -1.1000 -1.5733
  174MOL0     H22919   5.775   3.716   3.113 -1.0868  0.0777 -1.1488
  174MOL0     H22920   5.787   3.873   3.060 -1.4021 -2.4159 -0.3725
  174MOL0     H22921   5.801   3.653   3.370 -3.5572 -1.5958 -1.9757
  174MOL0     H22922   5.610   3.856   3.657  1.9715  1.2489  0.0775
  174MOL0     H22923   5.783   3.807   3.681  1.2804  1.8669 -0.8978
  174MOL0     H22924   5.719   3.584   3.595  1.7978  3.0861 -0.8917
  174MOL0     H22925   5.553   3.628   3.574 -1.0820 -1.0056  0.5758
  174MOL0     H22926   5.613   3.491   3.781 -0.2474 -0.2229  0.5672
  174MOL0     H22927   5.684   3.634   3.853  0.6531 -0.8891 -0.3867
  174MOL0     H22928   5.455   3.727   3.866  0.3758 -0.8884  3.5736
  174MOL0     H22929   5.431   3.566   3.916  2.2323  1.1514  0.9601
  174MOL0     H22930   5.187   3.827   3.664 -1.3149  0.7105 -0.1169
  174MOL0     H22931   4.967   3.862   3.744 -3.4894 -1.2354  0.9587
  174MOL0     H22932   4.623   3.998   3.723 -0.2294  1.5740  1.2443
  174MOL0     H22933   4.371   4.062   3.761  2.6066  1.3188 -1.0630
  174MOL0     H22934   4.193   3.999   4.126 -1.5610 -0.7683  1.6705
  174MOL0     H22935   4.118   3.840   4.081 -2.2682  0.9178  1.6684
  174MOL0     H22936   3.945   3.979   3.970  0.1253  1.3036 -0.5718
  174MOL0     H22937   4.006   4.119   4.051 -1.3534 -0.0398 -0.8778
  174MOL0     H22938   3.987   4.005   4.273 -0.0934 -0.0554  0.7457
  174MOL0     H22939   3.943   3.857   4.192 -0.9899  0.9075 -3.1756
  174MOL0     H22940   3.802   4.126   4.180  0.0282  0.3710  1.6249
  174MOL0     H22941   3.717   3.978   4.118 -1.8091  0.2555  1.6584
  174MOL0     H22942   3.752   4.042   4.413 -0.9319  0.2018  0.9839
  174MOL0     H22943   3.729   3.877   4.349 -4.3102 -0.7015  0.0619
  174MOL0     H22944   3.519   3.992   4.415 -1.0344 -0.1686  0.5315
  174MOL0     H22945   3.531   3.926   4.246 -0.3319 -0.4698  2.4466
  174MOL0     H22946   3.579   4.216   4.303  0.0314 -0.3335 -0.6471
  174MOL0     H22947   3.541   4.151   4.142 -1.1364 -0.3963 -0.6623
  174MOL0     H22948   3.346   4.237   4.215 -0.1003 -0.1824  0.1713
  174MOL0     H22949   3.349   4.161   4.372 -0.4099 -0.5559 -0.7652
  174MOL0     H22950   4.336   3.771   4.067  1.9309 -3.0737 -1.6056
  174MOL0     H22951   4.557   3.686   4.025 -1.0127  0.8359  0.5523
  174MOL0     H22952   4.981   3.483   3.968  1.1969  0.4677  0.7278
  174MOL0     H22953   5.225   3.460   3.877 -0.8327 -0.4188 -1.6725
  174MOL0     H22954   6.894   3.955   3.355  1.1974  0.3749  0.0988
  174MOL0     H22955   7.127   3.905   3.341 -1.9939  0.2753  0.9097
  174MOL0     H22956   7.470   3.634   3.245 -0.4964 -0.1627 -0.6203
  174MOL0     H22957   7.682   3.571   3.240 -1.8717 -0.9880  0.6911
  174MOL0     H22958   7.974   3.426   3.064 -0.0350 -0.1718 -0.8267
  174MOL0     H22959   7.879   3.499   3.190  0.0462 -1.7960  0.1292
  174MOL0     H22960   7.972   3.714   3.171 -2.0968 -0.6972 -0.3811
  174MOL0     H22961   8.083   3.585   3.207 -0.5576 -2.2119 -1.2801
  174MOL0     H22962   8.182   3.759   3.067 -0.5802  0.0891 -0.8026
  174MOL0     H22963   8.056   3.744   2.951  0.4255  0.7764  0.0715
  174MOL0     H22964   8.153   3.511   2.902  1.6231 -1.6960  0.0647
  174MOL0     H22965   8.261   3.639   2.874 -0.9416 -2.6107 -1.3603
  174MOL0     H22966   8.469   3.458   3.185 -1.2005 -1.3900  1.2034
  174MOL0     H22967   7.700   3.661   2.812  0.0977 -1.9096 -0.4595
  174MOL0     H22968   7.477   3.759   2.836  1.6135 -1.6222 -2.7739
  175MOL0     O22969   1.489   2.059   8.459 -0.0661 -0.0446 -0.0207
  175MOL0     C22970   1.532   2.001   8.363  0.0771 -0.0726  0.1004
  175MOL0     O22971   1.463   1.904   8.298 -0.1580 -0.0056  0.3006
  175MOL0     C22972   1.354   1.846   8.350 -0.0901  0.5061 -0.1255
  175MOL0     C22973   1.376   1.780   8.474  0.2388  0.0640 -0.5482
  175MOL0     C22974   1.267   1.716   8.529  0.0844  0.5062  0.6733
  175MOL0     C22975   1.139   1.706   8.470  0.3095  0.9688 -0.8132
  175MOL0     O22976   1.044   1.653   8.550  0.3792  0.3271  0.1252
  175MOL0     C22977   0.912   1.631   8.493 -0.7153 -1.3655  0.5708
  175MOL0     C22978   0.843   1.549   8.590 -0.1299  0.6198  0.6467
  175MOL0     C22979   0.710   1.493   8.544 -0.6583  0.1878  0.1310
  175MOL0     C22980   0.599   1.600   8.514  0.0420 -0.2215 -0.6491
  175MOL0     C22981   0.457   1.546   8.538 -0.0031 -0.4493  0.1096
  175MOL0     C22982   0.416   1.462   8.427 -0.7465 -0.5149  0.6555
  175MOL0     C22983   0.283   1.391   8.451  0.1350  0.3910  0.1855
  175MOL0     C22984   0.292   1.284   8.553  0.3381  0.8836 -0.3765
  175MOL0     N22985   0.191   1.184   8.534 -0.2755  0.2467  0.0791
  175MOL0     C22986   0.066   1.163   8.597  0.0694 -0.7017 -0.6757
  175MOL0     C22987   0.017   1.048   8.554 -0.6012  0.0414 -0.7291
  175MOL0     C22988  -0.083   0.957   8.622 -1.4226  0.0769 -0.7681
  175MOL0     C22989  -0.192   0.903   8.538 -0.3261  1.0556 -0.2590
  175MOL0     C22990  -0.283   0.806   8.619 -0.4070 -0.3885 -1.1439
  175MOL0     C22991  -0.390   0.741   8.531 -0.1439 -0.7152  0.3068
  175MOL0     O22992  -0.452   0.636   8.595 -0.1199  0.5083 -0.0197
  175MOL0     C22993  -0.534   0.666   8.706 -0.1422  0.3933  0.2967
  175MOL0     C22994  -0.588   0.791   8.741 -0.0366 -0.7527  0.1482
  175MOL0     C22995  -0.673   0.804   8.854  0.8521  0.9039  0.0013
  175MOL0     C22996  -0.713   0.682   8.925  0.2864 -0.5228  0.0950
  175MOL0     C22997  -0.815   0.688   9.032  0.4096  1.0189  0.5756
  175MOL0     O22998  -0.854   0.814   9.062 -0.6649  0.0475 -0.2642
  175MOL0     C22999  -0.956   0.837   9.153 -0.6417  0.4993  0.2474
  175MOL0     C23000  -1.075   0.766   9.144 -0.0050  0.1863 -0.2823
  175MOL0     C23001  -1.174   0.776   9.246  0.1060 -0.1885  0.2760
  175MOL0     C23002  -1.153   0.854   9.356  0.7527  0.3260 -0.3759
  175MOL0     O23003  -1.249   0.850   9.452  0.1026 -0.3325 -0.4766
  175MOL0     C23004  -1.201   0.828   9.579  0.6063 -0.0204  0.2624
  175MOL0     C23005  -1.321   0.825   9.681 -0.4660 -0.2192 -0.5127
  175MOL0     C23006  -1.441   0.738   9.638  0.1672 -0.7913  0.1985
  175MOL0     C23007  -1.544   0.733   9.748  0.6127 -0.0863 -0.1035
  175MOL0     C23008  -1.651   0.628   9.723  0.1217  0.3167 -0.6609
  175MOL0     C23009  -1.714   0.646   9.588  0.1600  0.2247  0.2572
  175MOL0     C23010  -1.838   0.560   9.562  0.0459 -0.2617  0.2995
  175MOL0     C23011  -1.952   0.626   9.644 -0.6316 -0.1149 -0.2129
  175MOL0    Cl23012  -2.106   0.574   9.575  0.0718 -0.1882  0.4015
  175MOL0     C23013  -1.042   0.931   9.357  0.0875 -0.1471  0.4350
  175MOL0     C23014  -0.940   0.916   9.262  0.1511 -0.4930 -0.2669
  175MOL0     O23015  -0.846   0.582   9.090  1.3251  0.9318  0.4366
  175MOL0     C23016  -0.650   0.567   8.891 -0.1419 -0.4302  0.0723
  175MOL0     C23017  -0.564   0.560   8.785 -0.3451 -0.1608 -0.0933
  175MOL0     N23018   0.090   1.000   8.449 -0.3965  0.1445  0.6378
  175MOL0     N23019   0.198   1.072   8.454  0.5175 -0.0884  0.0804
  175MOL0     C23020   1.127   1.751   8.337 -0.7206 -0.4522  0.8185
  175MOL0     C23021   1.238   1.827   8.276 -0.0731  0.5048  0.1587
  175MOL0     C23022   1.660   2.053   8.302  0.5118 -0.2295  0.2050
  175MOL0     C23023   1.720   1.964   8.208 -0.6105  0.8462  0.3084
  175MOL0     C23024   1.838   1.993   8.145  0.0123  0.8943  0.4575
  175MOL0     C23025   1.910   2.108   8.184  0.0516 -0.2881 -0.4577
  175MOL0     O23026   2.038   2.142   8.144 -0.0252 -0.3632 -1.1748
  175MOL0     C23027   2.061   2.133   8.001  0.7974  0.0327 -0.5069
  175MOL0     C23028   2.178   2.220   7.954  0.1449  0.7179 -0.6830
  175MOL0     C23029   2.313   2.199   8.039 -0.1867 -0.0579 -0.0306
  175MOL0     C23030   2.441   2.248   7.964  0.8622  0.7038  0.2702
  175MOL0     C23031   2.560   2.213   8.040 -0.6361  0.0658  0.0481
  175MOL0     C23032   2.661   2.174   8.100 -0.2993  0.0039 -0.3410
  175MOL0     C23033   1.853   2.196   8.273  0.1917  0.5740  0.7091
  175MOL0     C23034   1.727   2.175   8.334  0.9229 -0.4449  0.2046
  175MOL0     H23035   1.472   1.786   8.524 -0.2866 -0.5350  0.5756
  175MOL0     H23036   1.289   1.660   8.619  0.5015  0.5774  0.6175
  175MOL0     H23037   0.928   1.571   8.403  0.2438 -3.1454  1.8901
  175MOL0     H23038   0.858   1.722   8.461  2.8969  0.3412 -1.2971
  175MOL0     H23039   0.839   1.607   8.682 -2.6545  0.4329  0.7225
  175MOL0     H23040   0.904   1.459   8.605 -0.0290  0.4658 -0.5360
  175MOL0     H23041   0.666   1.431   8.623 -1.1168  1.5582  0.9867
  175MOL0     H23042   0.725   1.424   8.460  0.2503 -1.5797  1.6754
  175MOL0     H23043   0.609   1.683   8.584 -2.4285 -0.9969  0.7284
  175MOL0     H23044   0.625   1.645   8.418  1.9665 -1.4015 -0.7353
  175MOL0     H23045   0.388   1.630   8.546  1.7598  0.9600  1.2467
  175MOL0     H23046   0.451   1.497   8.636  0.5457  1.3123  1.0616
  175MOL0     H23047   0.487   1.385   8.397 -0.4066 -0.0925  0.3513
  175MOL0     H23048   0.408   1.526   8.338  1.1354 -0.1224  0.7236
  175MOL0     H23049   0.213   1.468   8.487  0.1554  0.7060 -0.4216
  175MOL0     H23050   0.247   1.343   8.359  1.4307 -0.4414  0.0896
  175MOL0     H23051   0.278   1.343   8.644 -0.3722  1.1947 -0.6846
  175MOL0     H23052   0.383   1.223   8.550 -1.4306 -1.8683 -0.6753
  175MOL0     H23053   0.031   1.215   8.685  1.3048 -0.8740 -0.0650
  175MOL0     H23054  -0.125   1.017   8.704  2.1119 -0.3752  1.5794
  175MOL0     H23055  -0.027   0.871   8.660  0.4718  1.9167  0.8021
  175MOL0     H23056  -0.146   0.845   8.458  0.1553  1.4330 -0.2598
  175MOL0     H23057  -0.257   0.978   8.492 -1.1453 -0.4981 -1.7400
  175MOL0     H23058  -0.231   0.720   8.662 -1.4202 -0.3602  0.2117
  175MOL0     H23059  -0.324   0.856   8.706  1.4348 -1.1661  0.2485
  175MOL0     H23060  -0.344   0.706   8.438 -0.9583 -1.2348  0.0902
  175MOL0     H23061  -0.464   0.814   8.496  0.3937 -0.6261 -0.7091
  175MOL0     H23062  -0.568   0.880   8.682  1.3858 -0.7769  0.5590
  175MOL0     H23063  -0.717   0.901   8.872  0.2711  1.1210 -2.2478
  175MOL0     H23064  -1.097   0.696   9.064 -1.5979 -0.2384  0.4815
  175MOL0     H23065  -1.260   0.710   9.240 -1.9291  2.3150  0.0469
  175MOL0     H23066  -1.127   0.896   9.622  0.2608  0.0998  0.6714
  175MOL0     H23067  -1.151   0.730   9.576  0.8412  0.0748  0.9185
  175MOL0     H23068  -1.361   0.925   9.698  0.6029  0.2043 -0.4224
  175MOL0     H23069  -1.279   0.793   9.777 -1.1915 -1.0097 -0.4488
  175MOL0     H23070  -1.403   0.636   9.624  2.4986 -0.7408  4.5318
  175MOL0     H23071  -1.486   0.786   9.551  2.1602 -0.0200 -0.4671
  175MOL0     H23072  -1.485   0.700   9.834 -0.4076 -0.6474  0.4015
  175MOL0     H23073  -1.588   0.831   9.769 -0.6566 -0.0143 -2.6579
  175MOL0     H23074  -1.729   0.628   9.800  0.4462 -2.0480 -0.2614
  175MOL0     H23075  -1.610   0.526   9.726 -1.2756 -0.2982  2.5379
  175MOL0     H23076  -1.642   0.613   9.514  0.4066  2.2552 -0.4627
  175MOL0     H23077  -1.750   0.747   9.566 -0.3886 -0.0049  0.0785
  175MOL0     H23078  -1.856   0.557   9.454 -2.9815  0.9171  0.6813
  175MOL0     H23079  -1.823   0.454   9.586  0.4876 -0.1183  0.6921
  175MOL0     H23080  -1.943   0.734   9.650  3.2017 -0.2818 -0.6530
  175MOL0     H23081  -1.945   0.589   9.747 -1.5585  0.9937  0.2592
  175MOL0     H23082  -1.041   1.008   9.434 -1.8720 -0.7321  1.1140
  175MOL0     H23083  -0.848   0.972   9.280 -1.1275  1.9449 -0.9032
  175MOL0     H23084  -0.662   0.476   8.949  5.4945 -1.1123  0.7637
  175MOL0     H23085  -0.522   0.462   8.765 -2.2131 -0.9165 -0.5707
  175MOL0     H23086   1.038   1.729   8.279 -0.0627  0.0499 -0.4130
  175MOL0     H23087   1.222   1.860   8.174 -2.5238 -0.1486  0.2665
  175MOL0     H23088   1.678   1.865   8.191  0.0436  0.9807 -2.5391
  175MOL0     H23089   1.886   1.923   8.078 -0.3483 -1.9823  2.9799
  175MOL0     H23090   1.966   2.162   7.955  0.9271  2.9168  0.8132
  175MOL0     H23091   2.081   2.027   7.980  0.8076 -0.1246  0.2603
  175MOL0     H23092   2.188   2.185   7.851  0.6058 -2.4145  0.3312
  175MOL0     H23093   2.145   2.324   7.958  0.0335  0.7246 -1.6755
  175MOL0     H23094   2.325   2.093   8.062 -0.8915 -0.0244  0.4843
  175MOL0     H23095   2.307   2.256   8.133  0.7130 -0.6502  0.3992
  175MOL0     H23096   2.452   2.201   7.865  1.0001  1.7502 -0.2284
  175MOL0     H23097   2.444   2.357   7.950  3.0651  0.3847 -3.0806
  175MOL0     H23098   2.751   2.145   8.151 -0.8278  1.9990  1.9298
  175MOL0     H23099   1.913   2.285   8.289  0.6513  0.4038 -0.0144
  175MOL0     H23100   1.690   2.245   8.407  0.9959  0.1957 -0.3583
  176MOL0     O23101  10.375   2.371   3.023 -0.2638  0.5702 -0.0217
  176MOL0     C23102  10.337   2.434   3.114  0.3359 -0.4318  0.3450
  176MOL0     O23103  10.250   2.532   3.111  0.2380  0.1907 -0.4884
  176MOL0     C23104  10.175   2.557   2.999 -0.5395 -0.3275  0.5708
  176MOL0     C23105  10.036   2.563   3.027  0.6096  0.4342 -0.2259
  176MOL0     C23106   9.952   2.594   2.921  0.2922  0.4480 -0.1142
  176MOL0     C23107   9.996   2.607   2.788 -0.0330  0.9715 -0.3173
  176MOL0     O23108   9.905   2.626   2.682  0.3680 -0.2042  0.1374
  176MOL0     C23109   9.947   2.582   2.549 -0.4572 -0.3816  1.0618
  176MOL0     C23110   9.827   2.565   2.454 -0.4780  0.9827  0.9716
  176MOL0     C23111   9.729   2.445   2.477 -0.0571  0.3895 -0.4904
  176MOL0     C23112   9.680   2.427   2.625  0.2072 -0.4622  0.4952
  176MOL0     C23113   9.557   2.339   2.633  0.3402 -1.3454  0.1916
  176MOL0     C23114   9.585   2.200   2.582 -0.2172  0.1971  0.2170
  176MOL0     C23115   9.467   2.110   2.608 -0.3638  0.0494 -0.0957
  176MOL0     C23116   9.358   2.139   2.509  0.0747 -0.2917  0.6861
  176MOL0     N23117   9.253   2.033   2.539 -0.2017  0.0201  0.1001
  176MOL0     C23118   9.149   2.058   2.616 -0.3528  0.8400 -0.3339
  176MOL0     C23119   9.073   1.944   2.631  0.0745 -0.9508  0.2762
  176MOL0     C23120   8.946   1.927   2.698  0.5150 -0.7465  0.5242
  176MOL0     C23121   8.830   1.893   2.607 -0.0868 -0.1996  0.1586
  176MOL0     C23122   8.715   1.823   2.680 -0.9455  0.5395  0.1837
  176MOL0     C23123   8.595   1.807   2.592 -0.1673 -0.1100  0.1907
  176MOL0     O23124   8.500   1.725   2.661  0.6266  0.0543 -0.0069
  176MOL0     C23125   8.370   1.732   2.615 -0.7277  0.4957 -0.1421
  176MOL0     C23126   8.327   1.781   2.491 -0.7729  0.3845 -0.1283
  176MOL0     C23127   8.194   1.788   2.455  0.3532 -0.1868 -0.3252
  176MOL0     C23128   8.098   1.730   2.541  0.1736  0.3406  0.6761
  176MOL0     C23129   7.954   1.729   2.505 -0.2708  0.0377 -0.1985
  176MOL0     O23130   7.867   1.733   2.611  0.0427  0.3060  0.4175
  176MOL0     C23131   7.743   1.692   2.589  0.7190  0.4418 -0.4848
  176MOL0     C23132   7.683   1.598   2.676 -0.7078 -0.2161  0.4226
  176MOL0     C23133   7.554   1.560   2.666 -0.1788  0.2008 -1.4983
  176MOL0     C23134   7.477   1.604   2.561 -0.0660 -0.0850  0.2629
  176MOL0     O23135   7.360   1.542   2.534  0.1634  0.3064  0.0519
  176MOL0     C23136   7.278   1.518   2.656 -1.5300 -1.3712  0.8798
  176MOL0     C23137   7.132   1.539   2.617  0.5326 -0.1226 -0.5430
  176MOL0     C23138   7.064   1.678   2.629  0.0458  1.1467 -0.7003
  176MOL0     C23139   6.916   1.651   2.598  0.0913  0.6454  0.2262
  176MOL0     C23140   6.840   1.782   2.570 -0.2399  0.7424 -1.2183
  176MOL0     C23141   6.693   1.782   2.634  0.5134 -0.1797 -0.4595
  176MOL0     C23142   6.608   1.904   2.598 -0.1752 -0.2865  0.7247
  176MOL0     C23143   6.546   1.885   2.463  0.1503 -0.0620  0.0901
  176MOL0    Cl23144   6.434   2.025   2.441 -0.3149  0.0758  0.1161
  176MOL0     C23145   7.531   1.701   2.477 -0.0583 -0.6812 -0.0805
  176MOL0     C23146   7.662   1.752   2.490 -0.3119  0.2472 -0.6014
  176MOL0     O23147   7.926   1.693   2.389  0.6263  0.9620  0.0725
  176MOL0     C23148   8.138   1.671   2.660 -0.1321 -0.0886 -0.0324
  176MOL0     C23149   8.276   1.677   2.696 -0.0351 -0.0176  0.9021
  176MOL0     N23150   9.141   1.850   2.558  0.4173  0.4830  0.2161
  176MOL0     N23151   9.248   1.901   2.500  0.3539 -0.6306  0.2210
  176MOL0     C23152  10.136   2.589   2.769 -0.2941  0.1967  0.0977
  176MOL0     C23153  10.225   2.572   2.873 -0.3566  0.6295 -0.7724
  176MOL0     C23154  10.428   2.439   3.221  0.1154 -0.0246 -0.3071
  176MOL0     C23155  10.392   2.492   3.343 -0.6601 -0.7340  0.8485
  176MOL0     C23156  10.486   2.506   3.449 -0.0074  0.2594  0.3592
  176MOL0     C23157  10.617   2.456   3.430  0.4407  0.2253 -0.2549
  176MOL0     O23158  10.696   2.471   3.534 -0.5458 -0.0664  0.4476
  176MOL0     C23159  10.835   2.525   3.522  0.2581  0.5541  0.5070
  176MOL0     C23160  10.830   2.677   3.498  0.2555  0.4472  0.2495
  176MOL0     C23161  10.971   2.733   3.513  0.6754 -0.0629 -0.6086
  176MOL0     C23162  10.984   2.891   3.511 -0.2594 -0.1025  0.8527
  176MOL0     C23163  10.925   2.953   3.633 -0.0483  0.8290 -0.0125
  176MOL0     C23164  10.880   3.003   3.734 -0.0390  0.1192  0.4466
  176MOL0     C23165  10.651   2.403   3.310 -0.1884 -0.4278  0.1638
  176MOL0     C23166  10.565   2.395   3.201 -0.2150  0.4115  0.0692
  176MOL0     H23167   9.990   2.559   3.125  0.2278 -1.1918 -0.4482
  176MOL0     H23168   9.844   2.605   2.934  0.2136 -0.7538  0.4081
  176MOL0     H23169   9.997   2.485   2.557 -2.0381 -1.2827  0.4662
  176MOL0     H23170  10.006   2.659   2.498 -2.1254 -0.0437 -0.4416
  176MOL0     H23171   9.860   2.542   2.352 -0.5736  1.3972  0.8424
  176MOL0     H23172   9.775   2.661   2.442 -1.5823  0.1770 -1.6686
  176MOL0     H23173   9.790   2.358   2.450  1.6148  1.5511 -0.6446
  176MOL0     H23174   9.642   2.457   2.413 -0.0278  1.2571 -0.3783
  176MOL0     H23175   9.760   2.375   2.679 -1.3297 -1.2100  2.1711
  176MOL0     H23176   9.654   2.520   2.676  1.8451  1.3276 -1.7520
  176MOL0     H23177   9.478   2.384   2.574  1.9209 -0.4994 -1.3741
  176MOL0     H23178   9.533   2.328   2.740  1.4615  0.8551  0.7417
  176MOL0     H23179   9.669   2.154   2.636  0.1881 -0.3223 -0.8333
  176MOL0     H23180   9.617   2.194   2.478 -1.7668  1.2860 -0.3625
  176MOL0     H23181   9.503   2.007   2.597 -3.2828 -1.7010  3.9668
  176MOL0     H23182   9.434   2.131   2.711  1.0961 -1.2895  0.6861
  176MOL0     H23183   9.402   2.125   2.409  1.8985  2.0816  1.0672
  176MOL0     H23184   9.316   2.240   2.520 -0.3268 -0.1582 -1.5688
  176MOL0     H23185   9.131   2.155   2.661  1.0072  1.0862 -0.2874
  176MOL0     H23186   8.929   2.016   2.761 -0.4355 -0.0756 -0.6258
  176MOL0     H23187   8.953   1.841   2.764  0.1731  0.7604  2.6429
  176MOL0     H23188   8.870   1.818   2.537 -3.3246 -1.3694 -0.6364
  176MOL0     H23189   8.805   1.978   2.543  0.9302  1.1479  1.5172
  176MOL0     H23190   8.753   1.721   2.693  0.2235  0.9190 -0.1289
  176MOL0     H23191   8.688   1.873   2.773 -1.5248 -0.2033  0.4230
  176MOL0     H23192   8.610   1.759   2.495  0.9778  2.3216 -0.9305
  176MOL0     H23193   8.557   1.906   2.566 -0.5779 -0.5845 -1.0955
  176MOL0     H23194   8.410   1.816   2.431 -0.4336  2.4250  1.4249
  176MOL0     H23195   8.163   1.822   2.357  2.4666 -0.4733 -1.1381
  176MOL0     H23196   7.746   1.557   2.755 -1.5786 -0.9295  0.7550
  176MOL0     H23197   7.513   1.481   2.728  0.2656  1.6538  0.7607
  176MOL0     H23198   7.313   1.571   2.745 -2.0237 -1.0811  0.9034
  176MOL0     H23199   7.288   1.412   2.682 -0.6482 -2.1147 -2.1646
  176MOL0     H23200   7.072   1.471   2.678 -1.3044 -0.6739 -2.8256
  176MOL0     H23201   7.118   1.502   2.515 -0.7565  2.1944 -1.2901
  176MOL0     H23202   7.102   1.750   2.556 -4.9467  1.0231 -3.9042
  176MOL0     H23203   7.067   1.721   2.730  1.1848 -1.3622  0.4247
  176MOL0     H23204   6.909   1.590   2.507 -1.1331  2.7616 -1.1791
  176MOL0     H23205   6.870   1.612   2.689 -0.3260  3.0649  1.1194
  176MOL0     H23206   6.830   1.800   2.463  2.3435  0.5828 -1.5351
  176MOL0     H23207   6.891   1.869   2.613  0.2702  0.5279 -1.3891
  176MOL0     H23208   6.703   1.776   2.743  1.3357  0.7414 -0.4764
  176MOL0     H23209   6.623   1.703   2.604  1.5368 -1.9191  1.4870
  176MOL0     H23210   6.533   1.927   2.675 -0.6241  1.3731 -0.1491
  176MOL0     H23211   6.673   1.992   2.608 -3.4348  2.3908  0.2514
  176MOL0     H23212   6.485   1.795   2.453  0.4026 -0.1442 -0.8052
  176MOL0     H23213   6.629   1.893   2.392  0.6824  0.5150  0.7667
  176MOL0     H23214   7.460   1.741   2.404 -1.2081 -1.6084  0.4911
  176MOL0     H23215   7.700   1.830   2.425  0.8658 -1.4559 -2.0699
  176MOL0     H23216   8.069   1.628   2.731 -0.2632 -0.9187 -0.6509
  176MOL0     H23217   8.303   1.624   2.787 -0.6977  1.4177  1.9806
  176MOL0     H23218  10.178   2.600   2.669  0.7597 -3.2040  0.0493
  176MOL0     H23219  10.332   2.570   2.853  0.2059  0.9984  1.8668
  176MOL0     H23220  10.294   2.538   3.353 -0.2997 -0.0785  1.4531
  176MOL0     H23221  10.444   2.550   3.540  1.9481  1.8525  0.5678
  176MOL0     H23222  10.886   2.478   3.439 -2.4182 -1.4262 -0.1472
  176MOL0     H23223  10.882   2.509   3.620 -0.5526  2.2437  1.2379
  176MOL0     H23224  10.790   2.689   3.397 -1.1718  0.0161  0.7433
  176MOL0     H23225  10.765   2.712   3.578  0.7910  0.2053  0.7963
  176MOL0     H23226  11.039   2.696   3.436  2.2014 -0.6092  0.9662
  176MOL0     H23227  11.010   2.693   3.606  1.8473  1.3784 -0.4469
  176MOL0     H23228  11.086   2.930   3.518 -1.8939  4.5073  3.8871
  176MOL0     H23229  10.923   2.940   3.435  1.9212  2.0289  0.3461
  176MOL0     H23230  10.831   3.040   3.822  0.0843 -1.4198  1.2005
  176MOL0     H23231  10.749   2.357   3.297  0.6776 -0.2110  4.6194
  176MOL0     H23232  10.595   2.353   3.106 -0.2624 -1.0016  0.6483
  177MOL0     O23233   7.935   4.381   0.303  0.2783 -0.6337  0.1245
  177MOL0     C23234   8.021   4.407   0.221  0.3564  0.0510  1.2494
  177MOL0     O23235   7.999   4.441   0.086 -0.4395 -0.2550 -0.4678
  177MOL0     C23236   7.867   4.456   0.045  0.0297  0.2465 -0.7241
  177MOL0     C23237   7.766   4.514   0.132 -0.0437 -0.0732  0.2448
  177MOL0     C23238   7.632   4.531   0.084  0.2659  0.7975  0.1262
  177MOL0     C23239   7.597   4.473  -0.039  0.4923  0.0069  0.0471
  177MOL0     O23240   7.462   4.472  -0.064 -0.0962 -0.0200  0.0382
  177MOL0     C23241   7.406   4.453  -0.193 -0.2545  0.8049  0.5949
  177MOL0     C23242   7.277   4.517  -0.199  0.1464 -0.0300  0.1272
  177MOL0     C23243   7.182   4.485  -0.316  0.4115 -0.6153 -0.4653
  177MOL0     C23244   7.053   4.586  -0.302  0.3156  0.6608  0.6742
  177MOL0     C23245   6.964   4.577  -0.429  0.1211  1.0088  0.0700
  177MOL0     C23246   6.875   4.703  -0.419 -0.0843 -0.3107 -1.0390
  177MOL0     C23247   6.752   4.715  -0.505  0.7284  0.5254  0.2223
  177MOL0     C23248   6.784   4.658  -0.645 -0.7644 -0.4915 -0.4784
  177MOL0     N23249   6.677   4.701  -0.740 -0.0972  0.8192  0.5445
  177MOL0     C23250   6.572   4.616  -0.785 -0.2561  0.7243  0.5027
  177MOL0     C23251   6.520   4.674  -0.897  0.5259 -0.4975  0.1415
  177MOL0     C23252   6.396   4.628  -0.974  0.2090  0.4815 -0.4426
  177MOL0     C23253   6.273   4.683  -0.912 -0.2212  0.1477 -0.5499
  177MOL0     C23254   6.237   4.828  -0.948  0.1968 -0.0740  0.1030
  177MOL0     C23255   6.100   4.831  -1.005 -0.4660  0.9851  0.1332
  177MOL0     O23256   6.083   4.758  -1.133  0.3433  0.6126 -0.1592
  177MOL0     C23257   5.977   4.794  -1.211  0.1186  0.1806  0.4089
  177MOL0     C23258   5.867   4.880  -1.178 -0.7311 -0.2915  0.3749
  177MOL0     C23259   5.764   4.899  -1.271  0.0719  0.1259 -0.7183
  177MOL0     C23260   5.765   4.828  -1.395  0.2594 -0.9750 -0.3374
  177MOL0     C23261   5.659   4.850  -1.495 -0.6967  0.2355  0.3232
  177MOL0     O23262   5.663   4.773  -1.611  0.0312  0.1336 -0.1796
  177MOL0     C23263   5.556   4.777  -1.696  1.0109 -0.1204  0.1076
  177MOL0     C23264   5.438   4.695  -1.660 -0.6662  0.8302 -0.3447
  177MOL0     C23265   5.322   4.706  -1.739  0.5765 -0.5142 -0.1687
  177MOL0     C23266   5.317   4.795  -1.843  0.4961  0.4379 -0.1514
  177MOL0     O23267   5.203   4.783  -1.922  0.1542  0.2699 -0.2091
  177MOL0     C23268   5.158   4.910  -1.989 -0.4945  0.4390 -0.0310
  177MOL0     C23269   5.009   4.897  -2.013 -0.2078 -0.3051 -0.5431
  177MOL0     C23270   4.934   4.892  -1.880  0.0239  0.3240  0.9776
  177MOL0     C23271   4.779   4.907  -1.897  0.2030  0.5992  0.6892
  177MOL0     C23272   4.730   4.791  -1.976  0.8020 -0.3800  0.2187
  177MOL0     C23273   4.582   4.770  -1.947 -0.4818 -0.1325 -0.3885
  177MOL0     C23274   4.506   4.674  -2.038  1.0112 -0.3074 -0.0681
  177MOL0     C23275   4.364   4.675  -1.994  0.1950 -0.2515 -0.2898
  177MOL0    Cl23276   4.287   4.838  -2.013  0.0510  0.5425 -0.4541
  177MOL0     C23277   5.425   4.882  -1.864 -0.2970 -0.0666 -0.1333
  177MOL0     C23278   5.541   4.882  -1.790 -0.3842  0.1704  0.7650
  177MOL0     O23279   5.567   4.923  -1.464 -0.2558 -0.1670 -0.4348
  177MOL0     C23280   5.865   4.731  -1.419 -0.1194  0.6466  0.1316
  177MOL0     C23281   5.962   4.713  -1.320 -0.2684 -0.2243  1.3119
  177MOL0     N23282   6.588   4.785  -0.934  0.0296  0.3702  1.0269
  177MOL0     N23283   6.681   4.800  -0.839 -0.1631  0.3437  0.5801
  177MOL0     C23284   7.695   4.415  -0.123  0.0989 -0.4522  0.1576
  177MOL0     C23285   7.830   4.407  -0.076 -0.5973  0.0464 -0.1856
  177MOL0     C23286   8.160   4.392   0.260  0.0381 -0.0375  0.3949
  177MOL0     C23287   8.272   4.446   0.179  0.5585  0.1393 -0.1459
  177MOL0     C23288   8.405   4.413   0.220 -0.0244 -0.6814 -0.5419
  177MOL0     C23289   8.434   4.349   0.343  0.0909 -0.5518 -0.5628
  177MOL0     O23290   8.559   4.336   0.394 -0.0733  0.0591  0.0232
  177MOL0     C23291   8.671   4.349   0.306 -0.6286  0.6662  0.1611
  177MOL0     C23292   8.795   4.281   0.376 -0.0439 -0.0155  1.1450
  177MOL0     C23293   8.835   4.147   0.312  0.3281  0.4767  0.6182
  177MOL0     C23294   8.978   4.103   0.361  0.3910  1.0011  0.3507
  177MOL0     C23295   9.025   3.999   0.264  0.1418 -0.4773 -0.0465
  177MOL0     C23296   9.060   3.928   0.171  0.5754  0.3379 -0.8107
  177MOL0     C23297   8.321   4.307   0.419  0.4062  0.6998 -0.3239
  177MOL0     C23298   8.194   4.328   0.379  0.4429 -0.4407  0.3616
  177MOL0     H23299   7.787   4.566   0.225 -0.1349  3.7544 -1.6788
  177MOL0     H23300   7.555   4.578   0.144 -1.4211 -2.2963  0.5533
  177MOL0     H23301   7.404   4.347  -0.221  1.2540  0.1160  2.8553
  177MOL0     H23302   7.467   4.500  -0.270 -0.7683 -1.3230 -1.1989
  177MOL0     H23303   7.302   4.624  -0.199  1.9774 -0.4247  0.1231
  177MOL0     H23304   7.218   4.509  -0.107  2.2263  2.5629  1.8238
  177MOL0     H23305   7.156   4.379  -0.327 -2.0562 -0.2377  0.9988
  177MOL0     H23306   7.226   4.514  -0.411 -0.7440  0.5336 -0.6834
  177MOL0     H23307   6.991   4.558  -0.217  0.4993 -1.8733  0.0524
  177MOL0     H23308   7.076   4.692  -0.295  0.8039  0.9841 -3.4936
  177MOL0     H23309   6.906   4.485  -0.427  0.6623  0.6720  1.2601
  177MOL0     H23310   7.030   4.569  -0.516  0.5310  1.2874  0.3468
  177MOL0     H23311   6.948   4.782  -0.433  0.7489 -1.0317 -0.8094
  177MOL0     H23312   6.836   4.725  -0.319  0.7520  2.0516 -1.1910
  177MOL0     H23313   6.665   4.663  -0.463 -1.1828  1.7062 -1.9914
  177MOL0     H23314   6.724   4.820  -0.517  0.8038  0.6873  1.3457
  177MOL0     H23315   6.769   4.550  -0.642 -0.2328 -0.5438  1.3882
  177MOL0     H23316   6.886   4.681  -0.676 -0.6838  0.3501  0.3634
  177MOL0     H23317   6.515   4.540  -0.733  1.1239 -0.4773  0.3236
  177MOL0     H23318   6.389   4.519  -0.969 -1.1560  0.5899  2.6076
  177MOL0     H23319   6.420   4.656  -1.077  1.2719 -0.2825 -0.4225
  177MOL0     H23320   6.289   4.674  -0.804  2.6019 -2.4856 -1.0623
  177MOL0     H23321   6.198   4.608  -0.937 -0.6505 -0.4149  2.0694
  177MOL0     H23322   6.247   4.895  -0.863  4.2207  0.4564 -0.5570
  177MOL0     H23323   6.307   4.871  -1.021  0.2801  3.0379  1.8348
  177MOL0     H23324   6.077   4.937  -1.017 -2.8013  0.4190 -1.0061
  177MOL0     H23325   6.030   4.786  -0.934  1.6723 -0.1506  1.6619
  177MOL0     H23326   5.874   4.938  -1.087 -1.5536 -0.0383  0.2892
  177MOL0     H23327   5.682   4.966  -1.249  0.5895  0.5514 -0.0181
  177MOL0     H23328   5.454   4.627  -1.577  0.4083  1.1997 -0.2391
  177MOL0     H23329   5.237   4.638  -1.729 -0.4230  0.3004 -2.3920
  177MOL0     H23330   5.207   4.918  -2.086 -1.2306  1.9556 -0.3205
  177MOL0     H23331   5.173   5.002  -1.931 -2.6114  1.2601 -0.6964
  177MOL0     H23332   4.995   4.804  -2.070 -0.6570 -0.1179 -0.7447
  177MOL0     H23333   4.979   4.983  -2.074  2.4346  2.2302  1.4951
  177MOL0     H23334   4.967   4.977  -1.821 -2.5089  2.1037 -0.0003
  177MOL0     H23335   4.948   4.796  -1.829  0.0714 -0.8093 -1.0426
  177MOL0     H23336   4.723   4.910  -1.804 -2.2017 -1.9581 -0.5278
  177MOL0     H23337   4.749   4.997  -1.952  0.0589 -0.6421 -1.3893
  177MOL0     H23338   4.768   4.698  -1.933  0.7653  0.3488  1.9157
  177MOL0     H23339   4.764   4.799  -2.080  0.0234 -1.8202 -0.1717
  177MOL0     H23340   4.536   4.869  -1.951  1.4317  0.7611 -1.6515
  177MOL0     H23341   4.575   4.736  -1.843  0.0301  0.4302 -0.1662
  177MOL0     H23342   4.513   4.692  -2.146 -1.2484  1.1902 -0.0498
  177MOL0     H23343   4.538   4.572  -2.015 -0.3622 -0.2517  2.5755
  177MOL0     H23344   4.354   4.639  -1.892 -1.1267 -1.6570 -0.8834
  177MOL0     H23345   4.309   4.604  -2.056 -2.1702  0.6593  0.6831
  177MOL0     H23346   5.420   4.947  -1.951 -0.9090 -0.6133 -0.5098
  177MOL0     H23347   5.613   4.960  -1.813 -1.0833  0.3055 -1.1378
  177MOL0     H23348   5.867   4.678  -1.514  0.8822 -0.6112  0.8369
  177MOL0     H23349   6.037   4.639  -1.344  0.7141  0.6534  1.6162
  177MOL0     H23350   7.670   4.375  -0.220  2.8226 -0.5137 -0.6093
  177MOL0     H23351   7.906   4.368  -0.142 -2.0222 -0.5207 -1.5622
  177MOL0     H23352   8.263   4.509   0.092 -1.7607 -0.2438 -0.2532
  177MOL0     H23353   8.486   4.454   0.160  2.2250 -1.1040  1.9827
  177MOL0     H23354   8.693   4.453   0.281 -2.0434  0.6689 -1.2419
  177MOL0     H23355   8.649   4.294   0.214  0.3675 -1.3693  1.0580
  177MOL0     H23356   8.882   4.346   0.369 -0.7888  0.8225 -0.8169
  177MOL0     H23357   8.772   4.269   0.483 -4.3643  0.5374  0.4370
  177MOL0     H23358   8.834   4.159   0.203 -1.1875  3.3626  0.8649
  177MOL0     H23359   8.759   4.069   0.325 -0.9149  1.4584 -0.4744
  177MOL0     H23360   9.043   4.191   0.371 -0.0993  1.2149  2.0985
  177MOL0     H23361   8.967   4.060   0.461  3.0583 -0.2974  0.1969
  177MOL0     H23362   9.090   3.862   0.092 -1.4903 -0.2346 -1.1731
  177MOL0     H23363   8.346   4.249   0.507 -0.8034  2.2109  1.0767
  177MOL0     H23364   8.119   4.290   0.448 -0.6218 -1.4451 -1.2513
  178MOL0     O23365  10.788   2.452   9.291  0.1499 -0.1904 -0.1841
  178MOL0     C23366  10.761   2.453   9.416 -0.5445  0.2591  0.3735
  178MOL0     O23367  10.635   2.458   9.476 -0.7008  0.3779 -0.0989
  178MOL0     C23368  10.532   2.490   9.391 -0.7249 -0.6517 -0.6291
  178MOL0     C23369  10.470   2.618   9.408  1.6180  0.3128 -0.2507
  178MOL0     C23370  10.358   2.642   9.325 -0.0123  0.0275  0.7383
  178MOL0     C23371  10.313   2.555   9.226  1.0019  0.0361 -0.6053
  178MOL0     O23372  10.197   2.585   9.155  0.4414 -0.4421 -0.0661
  178MOL0     C23373  10.141   2.495   9.066  0.1454  0.1633 -0.8899
  178MOL0     C23374  10.009   2.542   9.007  0.2587  0.6056 -0.1048
  178MOL0     C23375   9.959   2.445   8.901  0.1411  0.5976  0.2550
  178MOL0     C23376   9.810   2.426   8.895  0.3940 -0.6488  1.0732
  178MOL0     C23377   9.781   2.303   8.801  0.2086  0.9370  0.6216
  178MOL0     C23378   9.633   2.277   8.805  0.9486 -0.2173  1.2310
  178MOL0     C23379   9.574   2.142   8.754  0.6956  0.3627  0.1611
  178MOL0     C23380   9.484   2.164   8.632 -0.6631 -0.0295 -0.0362
  178MOL0     N23381   9.360   2.242   8.662 -0.1627 -0.3366 -0.6284
  178MOL0     C23382   9.270   2.206   8.757  0.9881 -0.4042 -0.6640
  178MOL0     C23383   9.161   2.289   8.747  0.1223 -0.1791 -1.1374
  178MOL0     C23384   9.030   2.289   8.830  0.5399  0.4826  0.2196
  178MOL0     C23385   8.910   2.212   8.788  1.3996 -0.4112  0.7625
  178MOL0     C23386   8.870   2.241   8.639 -0.1585 -1.0665 -0.3306
  178MOL0     C23387   8.731   2.211   8.585  0.1231 -0.6248 -1.2445
  178MOL0     O23388   8.709   2.291   8.465 -0.0628  0.5496  0.2589
  178MOL0     C23389   8.581   2.324   8.414  0.2865  0.0085  0.5504
  178MOL0     C23390   8.471   2.358   8.494 -0.0067 -0.6984  0.5240
  178MOL0     C23391   8.350   2.401   8.433 -0.3144  0.2528 -0.0886
  178MOL0     C23392   8.342   2.412   8.294  0.7269  0.0604 -0.3390
  178MOL0     C23393   8.208   2.437   8.222 -0.1503 -0.0153 -1.1009
  178MOL0     O23394   8.211   2.449   8.086 -0.0671 -0.8747 -0.1791
  178MOL0     C23395   8.102   2.432   8.009  0.5440 -0.6974  0.8877
  178MOL0     C23396   8.094   2.507   7.884  0.3544 -0.6676 -0.2503
  178MOL0     C23397   7.990   2.487   7.792 -0.4977  0.5407 -0.1395
  178MOL0     C23398   7.885   2.394   7.823 -0.4020  0.6173 -0.0838
  178MOL0     O23399   7.780   2.396   7.735 -1.4116  0.2362  0.3646
  178MOL0     C23400   7.648   2.392   7.785 -0.1516  0.3816 -0.1380
  178MOL0     C23401   7.603   2.536   7.810 -0.7847  0.8639  0.1334
  178MOL0     C23402   7.463   2.554   7.865  0.3695 -0.4848  0.6245
  178MOL0     C23403   7.357   2.517   7.768 -0.6665  0.1728  0.2200
  178MOL0     C23404   7.216   2.557   7.821 -0.0683  0.3442 -0.4155
  178MOL0     C23405   7.111   2.555   7.710 -0.1886  0.1119 -0.3436
  178MOL0     C23406   6.990   2.625   7.775  0.1455  0.4427  0.9108
  178MOL0     C23407   6.867   2.630   7.676 -0.4377 -0.0930  0.1961
  178MOL0    Cl23408   6.731   2.699   7.761 -0.2993 -0.2859 -0.2311
  178MOL0     C23409   7.897   2.314   7.936  0.3847 -1.9060  0.1891
  178MOL0     C23410   8.001   2.338   8.027  0.4938  0.8587 -0.1102
  178MOL0     O23411   8.107   2.437   8.296 -0.1042  0.8692 -0.3030
  178MOL0     C23412   8.458   2.391   8.213 -0.0792  0.8118 -1.2537
  178MOL0     C23413   8.579   2.349   8.274  0.5706 -0.5293 -0.2714
  178MOL0     N23414   9.187   2.377   8.639 -0.2931  0.3727 -0.1318
  178MOL0     N23415   9.310   2.355   8.596 -0.7692 -0.6151 -0.3120
  178MOL0     C23416  10.371   2.428   9.223  0.2780 -0.5750 -0.0952
  178MOL0     C23417  10.481   2.399   9.298  0.5417  0.5066 -0.7822
  178MOL0     C23418  10.879   2.441   9.512 -0.2025 -0.0223 -0.2819
  178MOL0     C23419  11.006   2.414   9.471  0.0565 -1.1728 -0.0876
  178MOL0     C23420  11.105   2.363   9.547 -0.6103  0.7627 -0.4807
  178MOL0     C23421  11.084   2.349   9.684 -0.3588 -0.7430  0.0830
  178MOL0     O23422  11.169   2.283   9.769 -0.0063 -0.2751  0.7407
  178MOL0     C23423  11.268   2.366   9.828  0.7751 -1.1807 -0.6949
  178MOL0     C23424  11.370   2.434   9.734 -0.4705  0.2275 -0.3328
  178MOL0     C23425  11.509   2.445   9.806  0.3265  0.2484  0.7314
  178MOL0     C23426  11.624   2.496   9.718 -0.3285  0.1783  0.1885
  178MOL0     C23427  11.598   2.634   9.686 -0.6992  0.2851 -0.5998
  178MOL0     C23428  11.586   2.747   9.644  0.5673 -0.3519 -0.7369
  178MOL0     C23429  10.956   2.384   9.733 -0.2274  0.8132  0.2649
  178MOL0     C23430  10.854   2.436   9.651  0.0481  0.1065  1.1057
  178MOL0     H23431  10.511   2.685   9.483  1.4710 -0.0711  0.1766
  178MOL0     H23432  10.316   2.739   9.351 -0.8209  0.4629 -1.8827
  178MOL0     H23433  10.121   2.401   9.119  2.3361 -0.0154 -0.2777
  178MOL0     H23434  10.212   2.467   8.989  0.4232  2.2398 -1.4403
  178MOL0     H23435  10.012   2.641   8.960 -2.3076 -0.1874 -2.2097
  178MOL0     H23436   9.929   2.544   9.082  0.0080  2.9209 -0.3669
  178MOL0     H23437   9.999   2.344   8.916  1.8592  1.0455 -1.0258
  178MOL0     H23438  10.000   2.477   8.805  0.8285  1.7874  0.9250
  178MOL0     H23439   9.766   2.423   8.995 -0.4945  0.7101  0.7460
  178MOL0     H23440   9.772   2.517   8.848  1.4396 -0.8455 -0.2065
  178MOL0     H23441   9.835   2.216   8.838  0.0092 -0.3010 -1.7881
  178MOL0     H23442   9.830   2.324   8.705  0.3909 -0.0133  0.5021
  178MOL0     H23443   9.580   2.357   8.752  1.8104 -2.0585 -2.7922
  178MOL0     H23444   9.604   2.289   8.910  2.0567  0.6665  1.4518
  178MOL0     H23445   9.654   2.069   8.738 -1.2899 -1.8642 -0.2551
  178MOL0     H23446   9.495   2.107   8.821 -1.5496  3.8401 -0.4468
  178MOL0     H23447   9.457   2.061   8.609  0.6074 -0.3147 -0.3377
  178MOL0     H23448   9.544   2.218   8.558 -0.4893  4.0304  2.7102
  178MOL0     H23449   9.279   2.131   8.835 -0.8008  0.6621  0.6701
  178MOL0     H23450   8.991   2.390   8.842  0.5518  0.5816 -0.5280
  178MOL0     H23451   9.048   2.257   8.933 -1.8970 -0.6867  0.3439
  178MOL0     H23452   8.835   2.253   8.856  2.5142  2.5951  0.3072
  178MOL0     H23453   8.915   2.102   8.790 -2.7250 -0.7642 -0.0453
  178MOL0     H23454   8.894   2.346   8.618  0.7106 -0.8108  1.7215
  178MOL0     H23455   8.943   2.193   8.573 -0.4329 -1.0337 -0.6592
  178MOL0     H23456   8.650   2.225   8.657  0.8161  0.0929 -0.5739
  178MOL0     H23457   8.731   2.105   8.560  0.4735 -0.5288 -1.6600
  178MOL0     H23458   8.479   2.350   8.602 -0.6111 -1.5951  0.5175
  178MOL0     H23459   8.257   2.411   8.488 -1.5725 -3.1835 -1.3563
  178MOL0     H23460   8.173   2.570   7.844 -1.2834  0.3992 -1.9119
  178MOL0     H23461   7.993   2.530   7.693  2.5852  1.4995  0.2779
  178MOL0     H23462   7.625   2.330   7.872  1.4511 -1.1205 -0.7264
  178MOL0     H23463   7.591   2.343   7.706  0.9676 -0.3739 -0.4954
  178MOL0     H23464   7.625   2.594   7.720 -0.1838  0.2265 -0.1432
  178MOL0     H23465   7.671   2.577   7.886 -0.5756 -1.0071  1.0297
  178MOL0     H23466   7.457   2.659   7.898  3.9347 -0.2117  0.8152
  178MOL0     H23467   7.448   2.493   7.955  0.0703 -1.4771 -0.0841
  178MOL0     H23468   7.373   2.579   7.679  3.3393 -1.8074 -0.6362
  178MOL0     H23469   7.373   2.414   7.735  1.3065 -0.2873  2.3922
  178MOL0     H23470   7.218   2.654   7.871 -1.8671 -0.9418  2.3801
  178MOL0     H23471   7.171   2.494   7.898 -0.4731  1.3899  0.2167
  178MOL0     H23472   7.091   2.456   7.668 -2.3591  0.7582 -0.9808
  178MOL0     H23473   7.165   2.615   7.637 -1.4320  1.6454 -0.0550
  178MOL0     H23474   6.957   2.563   7.858  0.3985 -0.8175  0.0940
  178MOL0     H23475   7.007   2.726   7.814 -0.7929  1.0773 -0.2453
  178MOL0     H23476   6.837   2.530   7.641 -0.2507  0.4620 -1.6751
  178MOL0     H23477   6.892   2.688   7.587  0.4873 -1.6489 -0.6108
  178MOL0     H23478   7.815   2.242   7.942 -2.7200  1.4522  1.9052
  178MOL0     H23479   8.019   2.259   8.101 -1.7357  0.1595 -0.2430
  178MOL0     H23480   8.464   2.397   8.105 -0.0735  1.3999 -1.2190
  178MOL0     H23481   8.667   2.326   8.216  1.1131 -4.0874  1.6766
  178MOL0     H23482  10.331   2.354   9.154 -1.1115  1.4968 -1.6033
  178MOL0     H23483  10.541   2.309   9.294  0.2394  0.0068  2.6401
  178MOL0     H23484  11.034   2.435   9.368  1.3911 -2.8230 -0.1055
  178MOL0     H23485  11.195   2.323   9.501  0.6455  0.5521  1.9726
  178MOL0     H23486  11.319   2.308   9.905 -0.9211 -2.0895 -0.2234
  178MOL0     H23487  11.210   2.435   9.890 -1.4860 -2.2808 -1.4710
  178MOL0     H23488  11.387   2.369   9.648 -1.1619 -1.8725  1.0363
  178MOL0     H23489  11.329   2.530   9.702 -1.6978 -0.0581  0.3129
  178MOL0     H23490  11.531   2.346   9.846 -2.1374 -0.6905 -0.0537
  178MOL0     H23491  11.510   2.514   9.891 -0.0750  0.6216  0.4392
  178MOL0     H23492  11.719   2.476   9.768 -1.3668 -3.1449  1.1192
  178MOL0     H23493  11.627   2.431   9.630  1.2271 -0.5086  0.7161
  178MOL0     H23494  11.577   2.851   9.621  1.1550 -0.3848 -1.1542
  178MOL0     H23495  10.944   2.358   9.838  1.0677 -0.1150  0.2232
  178MOL0     H23496  10.751   2.457   9.677 -1.6245 -3.5533 -1.5869
  179MOL0     O23497   7.818   7.961   1.323 -0.4579  0.5476 -0.8095
  179MOL0     C23498   7.824   8.042   1.421 -0.4428 -0.2946  0.5802
  179MOL0     O23499   7.732   8.077   1.510  0.6451  0.2191 -0.1162
  179MOL0     C23500   7.605   8.020   1.504 -0.9996 -0.6661 -0.0219
  179MOL0     C23501   7.534   8.033   1.628  0.8633 -0.5245  0.2185
  179MOL0     C23502   7.397   7.994   1.635  0.0899 -0.0600  0.5709
  179MOL0     C23503   7.331   7.932   1.526  0.2262  0.5576  0.2721
  179MOL0     O23504   7.205   7.882   1.535  0.1381 -0.2216 -0.3636
  179MOL0     C23505   7.193   7.774   1.636 -0.1057  0.1394 -0.0266
  179MOL0     C23506   7.127   7.651   1.563  0.6003  0.5018 -0.8618
  179MOL0     C23507   7.200   7.607   1.432 -0.1973 -0.6205  0.4267
  179MOL0     C23508   7.131   7.501   1.345  0.7238  0.2254  0.0697
  179MOL0     C23509   7.192   7.502   1.207 -0.0676 -0.9065 -0.6588
  179MOL0     C23510   7.179   7.364   1.153  0.3481 -0.0322 -0.4917
  179MOL0     C23511   7.254   7.345   1.021 -0.8909 -0.0657 -0.0337
  179MOL0     C23512   7.207   7.222   0.943  0.5058 -0.2902 -0.5460
  179MOL0     N23513   7.266   7.211   0.808  0.9340 -0.2895 -0.3081
  179MOL0     C23514   7.216   7.279   0.700  0.9193  0.5564 -0.2006
  179MOL0     C23515   7.289   7.229   0.601 -1.2819  0.1026  0.7755
  179MOL0     C23516   7.271   7.274   0.459  0.0431 -0.2785  0.3362
  179MOL0     C23517   7.220   7.164   0.369  0.0482  0.3794  0.0566
  179MOL0     C23518   7.085   7.109   0.414  0.8321 -0.5688 -0.9511
  179MOL0     C23519   6.976   7.214   0.385 -0.2495 -0.7114  0.7585
  179MOL0     O23520   6.841   7.161   0.403 -1.4414  0.1068  0.0648
  179MOL0     C23521   6.756   7.130   0.303 -1.2661 -0.8015  0.0371
  179MOL0     C23522   6.632   7.100   0.339  0.1479  0.0591 -0.7371
  179MOL0     C23523   6.545   7.037   0.250 -0.2874 -0.0817  0.5035
  179MOL0     C23524   6.580   7.020   0.113  0.3039  0.2335  0.4062
  179MOL0     C23525   6.478   6.959   0.027  0.3661  0.2020  0.4297
  179MOL0     O23526   6.510   6.967  -0.101  0.9129 -0.0417 -0.1915
  179MOL0     C23527   6.424   6.917  -0.196 -0.4123  0.6325 -0.5641
  179MOL0     C23528   6.316   6.998  -0.228  0.0266 -0.1409 -1.3857
  179MOL0     C23529   6.218   6.939  -0.301  0.0505 -0.0513  0.4292
  179MOL0     C23530   6.225   6.809  -0.351 -0.5270  0.5949  0.5260
  179MOL0     O23531   6.123   6.760  -0.426  0.2768  0.0710 -0.0213
  179MOL0     C23532   6.109   6.619  -0.450  0.8345  0.4424 -0.0176
  179MOL0     C23533   5.970   6.581  -0.490  0.5858  0.1193  0.0679
  179MOL0     C23534   5.894   6.558  -0.360 -0.0150  0.2571 -0.7443
  179MOL0     C23535   5.779   6.450  -0.371 -0.6517 -0.2067 -0.0793
  179MOL0     C23536   5.724   6.415  -0.234 -0.3246 -0.0462  0.0977
  179MOL0     C23537   5.585   6.349  -0.244  0.6206  0.4984  0.6952
  179MOL0     C23538   5.531   6.306  -0.110 -0.4335  0.6258 -0.3256
  179MOL0     C23539   5.395   6.247  -0.095  0.3703  0.2722 -0.3652
  179MOL0    Cl23540   5.278   6.339  -0.204  0.0299 -0.0893 -0.0706
  179MOL0     C23541   6.341   6.735  -0.333  0.3471 -0.6122 -0.3621
  179MOL0     C23542   6.437   6.790  -0.244 -0.4627 -0.4354 -0.0896
  179MOL0     O23543   6.383   6.895   0.078 -0.1320 -0.3309  0.0529
  179MOL0     C23544   6.706   7.063   0.072 -1.3545 -0.1777  0.0153
  179MOL0     C23545   6.798   7.120   0.164  0.3260 -0.2429  0.3120
  179MOL0     N23546   7.387   7.135   0.644  0.0918 -0.6972 -0.3196
  179MOL0     N23547   7.372   7.126   0.777  0.2515  0.6214 -0.2108
  179MOL0     C23548   7.409   7.926   1.410  0.8230  0.2920  1.1304
  179MOL0     C23549   7.539   7.969   1.396 -0.2158  0.0421  0.1072
  179MOL0     C23550   7.961   8.099   1.432 -0.5948 -0.5877 -0.0546
  179MOL0     C23551   8.009   8.136   1.560  0.0125 -0.0508 -0.2583
  179MOL0     C23552   8.145   8.157   1.572  0.6779  0.1040 -0.2047
  179MOL0     C23553   8.226   8.162   1.466 -0.7593 -0.5855 -0.3162
  179MOL0     O23554   8.361   8.211   1.491  0.2473 -0.2541 -0.2132
  179MOL0     C23555   8.440   8.247   1.374  0.1187  0.3871  0.7279
  179MOL0     C23556   8.570   8.296   1.426  0.0391  0.0645 -0.2876
  179MOL0     C23557   8.650   8.190   1.503 -0.9240 -0.3163  0.5799
  179MOL0     C23558   8.762   8.244   1.582 -0.4038  0.6889  0.7527
  179MOL0     C23559   8.831   8.134   1.652 -0.0131  0.0879 -0.5291
  179MOL0     C23560   8.875   8.040   1.718  0.0749 -0.7646 -0.1083
  179MOL0     C23561   8.178   8.128   1.339 -0.2578 -0.9021 -0.7563
  179MOL0     C23562   8.047   8.092   1.322  0.6063 -0.5908 -0.0208
  179MOL0     H23563   7.582   8.092   1.706  3.7050 -0.6072 -1.3070
  179MOL0     H23564   7.336   8.000   1.725 -1.2497 -2.9874 -0.0261
  179MOL0     H23565   7.135   7.807   1.723  0.6062 -0.4184  0.6715
  179MOL0     H23566   7.291   7.743   1.673 -0.3693 -2.7491 -1.4759
  179MOL0     H23567   7.021   7.678   1.550  1.2616  4.1331  0.0725
  179MOL0     H23568   7.125   7.563   1.628  3.1060  1.0257  0.0312
  179MOL0     H23569   7.302   7.579   1.459 -0.7059 -2.3039  0.6956
  179MOL0     H23570   7.211   7.695   1.368 -2.1877  0.4278  1.4251
  179MOL0     H23571   7.150   7.404   1.393  2.5449 -0.7392 -2.4003
  179MOL0     H23572   7.028   7.535   1.329  1.0257  0.6448 -1.0466
  179MOL0     H23573   7.300   7.514   1.221 -0.0511 -0.8781 -0.8093
  179MOL0     H23574   7.153   7.580   1.141 -0.5140 -0.6366 -0.0792
  179MOL0     H23575   7.074   7.336   1.143  0.2203  0.7025 -1.3221
  179MOL0     H23576   7.220   7.285   1.217 -0.5606  0.3003  0.5239
  179MOL0     H23577   7.252   7.434   0.957 -2.5861  0.9408  1.3340
  179MOL0     H23578   7.357   7.327   1.052 -1.4127  1.6373  3.1494
  179MOL0     H23579   7.098   7.216   0.936  0.3146  0.3413  1.3785
  179MOL0     H23580   7.233   7.137   1.007 -2.9332 -0.4798  0.7791
  179MOL0     H23581   7.123   7.335   0.699 -0.2410 -1.0928  2.8301
  179MOL0     H23582   7.360   7.314   0.410 -0.3684 -1.3710 -1.3830
  179MOL0     H23583   7.194   7.352   0.456 -1.0721 -1.3019 -3.4221
  179MOL0     H23584   7.298   7.088   0.375 -0.4718 -0.0771  1.5500
  179MOL0     H23585   7.199   7.190   0.265  0.0363 -3.2060 -0.9616
  179MOL0     H23586   7.062   7.013   0.367  0.6243 -1.0498  0.1160
  179MOL0     H23587   7.089   7.081   0.519  2.6797  0.9306 -0.5599
  179MOL0     H23588   6.999   7.250   0.284 -0.7633 -0.3584  0.7677
  179MOL0     H23589   6.999   7.295   0.455  2.5242 -0.2186 -0.5613
  179MOL0     H23590   6.612   7.117   0.444  0.3384  1.8132 -0.9524
  179MOL0     H23591   6.446   7.010   0.287 -1.1774  0.9422 -1.0140
  179MOL0     H23592   6.306   7.093  -0.176 -0.2866 -1.2659  0.7521
  179MOL0     H23593   6.135   7.004  -0.326 -0.9063 -0.1301  3.1079
  179MOL0     H23594   6.138   6.567  -0.359 -0.5225  1.8453  1.2609
  179MOL0     H23595   6.172   6.593  -0.536  0.3959  0.6978 -0.4189
  179MOL0     H23596   5.979   6.488  -0.546 -0.3925  0.1162 -0.1006
  179MOL0     H23597   5.911   6.654  -0.547 -2.3779 -1.3975  0.9972
  179MOL0     H23598   5.859   6.651  -0.314  1.1241 -0.8448  2.6891
  179MOL0     H23599   5.957   6.520  -0.279 -2.1211  0.4131  1.0517
  179MOL0     H23600   5.705   6.490  -0.441 -1.3452  0.9462  1.2450
  179MOL0     H23601   5.818   6.356  -0.413 -2.9465 -0.8735 -0.8273
  179MOL0     H23602   5.695   6.507  -0.182 -1.6525  0.1291 -0.8973
  179MOL0     H23603   5.796   6.359  -0.174 -1.5176  0.0035  1.6460
  179MOL0     H23604   5.592   6.261  -0.308  0.0991  1.3063 -0.5102
  179MOL0     H23605   5.512   6.415  -0.291  1.6182  0.6605 -0.6772
  179MOL0     H23606   5.603   6.238  -0.062 -1.0207  0.1353 -0.1265
  179MOL0     H23607   5.529   6.399  -0.053  1.1539  1.0883 -0.9641
  179MOL0     H23608   5.360   6.242   0.009 -0.3455 -0.1324 -0.6179
  179MOL0     H23609   5.408   6.143  -0.126  0.4832 -0.0435  0.6737
  179MOL0     H23610   6.360   6.632  -0.362  1.5786 -0.5353  0.0990
  179MOL0     H23611   6.519   6.723  -0.219 -1.4826 -1.9909 -0.7751
  179MOL0     H23612   6.738   7.051  -0.031 -3.2995  0.5372 -0.7207
  179MOL0     H23613   6.902   7.138   0.141  0.2442 -1.1566 -0.9199
  179MOL0     H23614   7.360   7.884   1.322  1.2441  0.2771  0.8997
  179MOL0     H23615   7.583   7.968   1.296  1.5625  2.0185  0.8107
  179MOL0     H23616   7.950   8.149   1.649  1.4995  1.5127  0.5558
  179MOL0     H23617   8.183   8.196   1.667 -1.0335 -1.0704  1.0293
  179MOL0     H23618   8.394   8.326   1.314  0.7400  0.9991  1.0442
  179MOL0     H23619   8.454   8.161   1.308 -0.0778  2.0010 -1.5507
  179MOL0     H23620   8.635   8.329   1.344  0.1416  0.0237 -0.2228
  179MOL0     H23621   8.553   8.382   1.491  1.1307 -1.0470  1.5327
  179MOL0     H23622   8.686   8.116   1.431  0.8350 -0.5032  1.6037
  179MOL0     H23623   8.592   8.131   1.574 -0.5163  1.3557  2.3864
  179MOL0     H23624   8.842   8.288   1.522  1.0172 -2.5394  0.0448
  179MOL0     H23625   8.704   8.310   1.647 -2.7975 -0.5184 -0.0555
  179MOL0     H23626   8.894   7.960   1.786 -0.9404 -0.7923  0.1648
  179MOL0     H23627   8.241   8.129   1.251  1.7927  1.5826  0.5960
  179MOL0     H23628   8.026   8.044   1.227  0.8582 -2.2781  0.7485
  180MOL0     O23629  10.841   0.008   3.514 -0.2275  0.2016  0.5153
  180MOL0     C23630  10.854   0.081   3.609 -0.0259 -0.7338 -0.2846
  180MOL0     O23631  10.749   0.135   3.677 -0.4550 -0.5219  0.2932
  180MOL0     C23632  10.625   0.086   3.644  0.0652 -0.8754  1.0062
  180MOL0     C23633  10.564   0.005   3.734  0.0162  0.9259  0.1401
  180MOL0     C23634  10.444  -0.067   3.712  0.0089 -0.0387 -0.8853
  180MOL0     C23635  10.371  -0.035   3.596  0.6412  0.5409  0.7576
  180MOL0     O23636  10.255  -0.089   3.571  0.1721 -0.0504  1.2399
  180MOL0     C23637  10.228  -0.221   3.617 -0.1226 -0.0005  0.0508
  180MOL0     C23638  10.126  -0.239   3.728  0.0497 -0.2157 -0.2631
  180MOL0     C23639   9.987  -0.193   3.687 -0.1896  0.0684  1.4123
  180MOL0     C23640   9.907  -0.293   3.598  0.6101 -0.2139  0.5395
  180MOL0     C23641   9.762  -0.245   3.572  0.0953 -0.1130 -0.3039
  180MOL0     C23642   9.675  -0.366   3.513 -0.3938 -0.5340  0.7533
  180MOL0     C23643   9.531  -0.312   3.510 -0.4606 -0.0296 -0.8150
  180MOL0     C23644   9.430  -0.420   3.472  0.0560  0.6957 -0.2849
  180MOL0     N23645   9.295  -0.364   3.473  1.2165  0.4075  0.0572
  180MOL0     C23646   9.234  -0.335   3.351  0.0493 -0.8003  0.7348
  180MOL0     C23647   9.105  -0.309   3.380  0.0748  0.5305  0.3304
  180MOL0     C23648   9.000  -0.276   3.279 -0.5508  0.1520 -0.1551
  180MOL0     C23649   8.862  -0.326   3.310 -0.5687 -0.4700  0.0085
  180MOL0     C23650   8.773  -0.243   3.222  0.1989  0.6698 -0.8104
  180MOL0     C23651   8.627  -0.279   3.237 -0.1052  0.3674 -0.2571
  180MOL0     O23652   8.602  -0.394   3.160 -0.0986  0.0257 -0.1502
  180MOL0     C23653   8.468  -0.420   3.131  0.5253  0.0639 -1.0937
  180MOL0     C23654   8.356  -0.354   3.181  0.3899  0.1942  0.4402
  180MOL0     C23655   8.223  -0.395   3.168 -0.2339  0.3546  0.3927
  180MOL0     C23656   8.197  -0.506   3.076 -0.2708 -0.8671 -0.3651
  180MOL0     C23657   8.054  -0.559   3.056 -0.4818 -0.0271 -0.1129
  180MOL0     O23658   7.947  -0.510   3.120 -0.4707 -0.4774 -0.3670
  180MOL0     C23659   7.814  -0.553   3.091 -0.4152 -0.0091  0.1057
  180MOL0     C23660   7.765  -0.584   2.963  0.0088 -0.8319  0.5655
  180MOL0     C23661   7.635  -0.618   2.941  0.8807 -0.2525 -0.2661
  180MOL0     C23662   7.544  -0.622   3.056  0.0600  0.0112  0.2937
  180MOL0     O23663   7.410  -0.655   3.038  0.7241  0.6562  1.0373
  180MOL0     C23664   7.359  -0.727   2.925 -0.3411 -0.2519 -0.1899
  180MOL0     C23665   7.212  -0.725   2.933 -0.1194  0.1280  0.5078
  180MOL0     C23666   7.144  -0.787   2.818  0.4101  0.3583 -0.6237
  180MOL0     C23667   6.986  -0.770   2.805  0.0128 -0.1658 -0.6162
  180MOL0     C23668   6.914  -0.837   2.928 -0.3904  0.1515  0.7846
  180MOL0     C23669   6.765  -0.794   2.944 -0.9296 -0.4789 -0.4696
  180MOL0     C23670   6.677  -0.852   2.835  0.1808 -0.1573 -0.3379
  180MOL0     C23671   6.532  -0.809   2.834 -0.4101 -0.1713 -0.1384
  180MOL0    Cl23672   6.454  -0.887   2.703 -0.6559 -0.2762  0.0934
  180MOL0     C23673   7.583  -0.584   3.185 -0.5080  0.3850 -0.7206
  180MOL0     C23674   7.723  -0.543   3.198 -0.1145 -0.3060 -0.6178
  180MOL0     O23675   8.050  -0.645   2.966 -0.1687  0.2873 -1.1730
  180MOL0     C23676   8.307  -0.568   3.022  0.1079 -0.3194  0.3918
  180MOL0     C23677   8.440  -0.523   3.048  0.0965 -0.1750  0.7706
  180MOL0     N23678   9.086  -0.340   3.511  0.0033 -0.7887 -0.9088
  180MOL0     N23679   9.202  -0.359   3.570  0.6840  0.1512  0.8082
  180MOL0     C23680  10.417   0.067   3.514 -0.0717 -0.2684 -0.3489
  180MOL0     C23681  10.548   0.124   3.535 -0.0233 -0.7356  0.3505
  180MOL0     C23682  10.998   0.111   3.655  0.4106 -0.0745  0.4682
  180MOL0     C23683  11.031   0.213   3.755  0.5003  0.2020 -0.1081
  180MOL0     C23684  11.165   0.250   3.788  1.0873  0.3469 -0.4424
  180MOL0     C23685  11.271   0.175   3.736  0.2817 -0.6818  1.3513
  180MOL0     O23686  11.398   0.215   3.749 -0.3313 -0.3617 -0.0268
  180MOL0     C23687  11.436   0.338   3.816  0.6998  0.6858 -0.3343
  180MOL0     C23688  11.585   0.366   3.796  0.4684 -0.3585  0.6748
  180MOL0     C23689  11.678   0.267   3.862 -1.1607  0.0727 -0.2164
  180MOL0     C23690  11.833   0.291   3.831 -0.1423 -0.1260  0.2772
  180MOL0     C23691  11.875   0.424   3.873 -0.3383  0.0397 -0.6595
  180MOL0     C23692  11.881   0.534   3.918  0.0963 -0.0460 -1.1577
  180MOL0     C23693  11.241   0.075   3.644 -0.3374  0.6188 -0.1044
  180MOL0     C23694  11.108   0.042   3.606 -0.7347  0.4189  0.2540
  180MOL0     H23695  10.610   0.005   3.832 -0.0045 -1.5476  0.2197
  180MOL0     H23696  10.412  -0.136   3.790 -0.1239  2.2218  1.2008
  180MOL0     H23697  10.323  -0.266   3.650 -0.5901  0.2396  1.8356
  180MOL0     H23698  10.178  -0.275   3.537 -2.0864  0.1162  1.1284
  180MOL0     H23699  10.158  -0.171   3.807 -1.2143  1.9539 -1.5152
  180MOL0     H23700  10.118  -0.343   3.763  0.6095 -0.1143  0.1777
  180MOL0     H23701   9.998  -0.090   3.653  0.7877 -0.0954  1.2223
  180MOL0     H23702   9.934  -0.174   3.781  0.7605  1.6783  1.6567
  180MOL0     H23703   9.944  -0.299   3.495 -1.0945  0.1005 -0.1287
  180MOL0     H23704   9.906  -0.391   3.646 -0.9582 -0.6807 -0.3602
  180MOL0     H23705   9.766  -0.156   3.508  0.4412 -0.6284 -1.0111
  180MOL0     H23706   9.715  -0.214   3.665  0.3520  1.9504 -0.8180
  180MOL0     H23707   9.681  -0.462   3.564 -1.2218  0.3041  2.5228
  180MOL0     H23708   9.705  -0.381   3.409 -1.6006  2.1301 -0.0799
  180MOL0     H23709   9.513  -0.270   3.610 -0.6846 -2.5406  0.2845
  180MOL0     H23710   9.525  -0.229   3.439  0.4879  2.1262  1.4782
  180MOL0     H23711   9.443  -0.507   3.536 -1.2451 -0.4429 -1.5070
  180MOL0     H23712   9.442  -0.465   3.373  2.4843 -0.4945  0.4675
  180MOL0     H23713   9.278  -0.335   3.252  0.4093 -0.5673  0.8941
  180MOL0     H23714   9.024  -0.309   3.178  1.8004 -2.3173  1.0897
  180MOL0     H23715   9.008  -0.167   3.281  3.2560  0.1207 -3.0978
  180MOL0     H23716   8.844  -0.319   3.418  5.7603 -2.4043  1.6018
  180MOL0     H23717   8.864  -0.426   3.268 -0.2275 -0.4924  0.0825
  180MOL0     H23718   8.787  -0.139   3.255 -5.0279  1.3928 -0.0343
  180MOL0     H23719   8.800  -0.256   3.117  0.0965 -2.8828 -0.5003
  180MOL0     H23720   8.570  -0.195   3.197 -0.2622  0.0622 -0.6766
  180MOL0     H23721   8.603  -0.293   3.343  3.0662  2.0143  0.8277
  180MOL0     H23722   8.357  -0.272   3.253 -1.8839 -0.7459  1.6525
  180MOL0     H23723   8.152  -0.345   3.232  0.6537  4.9479 -1.8227
  180MOL0     H23724   7.824  -0.593   2.873 -3.5546 -0.2004 -2.0417
  180MOL0     H23725   7.590  -0.623   2.842 -3.0255  0.1836  1.3109
  180MOL0     H23726   7.407  -0.825   2.920  2.7491  1.1839 -0.8237
  180MOL0     H23727   7.386  -0.675   2.833  0.1462  2.3581  1.3349
  180MOL0     H23728   7.180  -0.623   2.955  1.1989  0.4313  1.0881
  180MOL0     H23729   7.190  -0.783   3.023  0.2379  0.3713  0.7525
  180MOL0     H23730   7.170  -0.892   2.833  0.2820  0.1314 -1.9020
  180MOL0     H23731   7.183  -0.759   2.720 -2.5711  0.8544 -1.7733
  180MOL0     H23732   6.982  -0.661   2.810  0.4212 -0.1875  0.3709
  180MOL0     H23733   6.964  -0.807   2.704  1.2089 -2.9778  0.0560
  180MOL0     H23734   6.963  -0.787   3.012  0.5374  1.0220 -0.2626
  180MOL0     H23735   6.938  -0.943   2.941  2.1462  0.4662 -0.7904
  180MOL0     H23736   6.768  -0.684   2.945 -0.3213 -0.3762  3.6635
  180MOL0     H23737   6.725  -0.817   3.043  2.7812 -0.9821  1.0613
  180MOL0     H23738   6.704  -0.830   2.731 -2.1563  2.9932 -0.4374
  180MOL0     H23739   6.672  -0.961   2.845  0.8021 -0.0364  1.5139
  180MOL0     H23740   6.541  -0.701   2.817  0.7481 -0.2901 -0.3351
  180MOL0     H23741   6.484  -0.828   2.931  2.2492 -0.8028  1.1381
  180MOL0     H23742   7.515  -0.582   3.269 -1.4322  2.3387 -1.4641
  180MOL0     H23743   7.774  -0.508   3.287  1.2792 -2.2023 -0.6082
  180MOL0     H23744   8.298  -0.650   2.950  0.0983 -0.8208  0.9570
  180MOL0     H23745   8.522  -0.579   3.005 -0.4601 -0.3285 -0.1200
  180MOL0     H23746  10.373   0.105   3.422  2.0721  4.8076  0.4074
  180MOL0     H23747  10.591   0.191   3.461  1.9555 -1.4600  0.7753
  180MOL0     H23748  10.947   0.264   3.802 -0.0581 -0.2029 -0.6565
  180MOL0     H23749  11.175   0.335   3.855  4.0961 -0.7752  0.6742
  180MOL0     H23750  11.415   0.318   3.922  1.9605 -0.3416 -0.2513
  180MOL0     H23751  11.375   0.422   3.782  1.4723  1.2151 -0.4337
  180MOL0     H23752  11.614   0.357   3.691 -0.0895 -0.3163  0.5112
  180MOL0     H23753  11.601   0.465   3.840 -4.0376  0.3827  1.1843
  180MOL0     H23754  11.655   0.165   3.829 -0.6432 -0.7648  1.8798
  180MOL0     H23755  11.653   0.284   3.967  1.6028  1.2695  0.3233
  180MOL0     H23756  11.889   0.219   3.891  4.0495  2.7277  0.2139
  180MOL0     H23757  11.853   0.272   3.725  2.6976  1.6717  0.3793
  180MOL0     H23758  11.894   0.623   3.976  0.0832 -1.7956  1.7252
  180MOL0     H23759  11.321   0.023   3.592  0.1518  1.7958 -0.5452
  180MOL0     H23760  11.088  -0.026   3.525  0.1673 -0.4349  0.7300
  181MOL0     O23761   6.132  11.034   0.626  0.8122  0.8796 -0.0817
  181MOL0     C23762   6.223  11.087   0.578 -0.0500  0.5614  1.4901
  181MOL0     O23763   6.219  11.221   0.547  0.3315 -0.1409  0.1313
  181MOL0     C23764   6.096  11.287   0.555 -0.1524 -0.0623 -0.2901
  181MOL0     C23765   6.081  11.417   0.618 -0.0877  0.5157 -0.2402
  181MOL0     C23766   5.956  11.489   0.605 -0.2590 -0.0444 -0.1153
  181MOL0     C23767   5.852  11.434   0.526 -0.8904  0.1341  0.4052
  181MOL0     O23768   5.734  11.498   0.491  0.0773 -0.0829 -1.0858
  181MOL0     C23769   5.670  11.540   0.610  0.3790 -0.6553 -0.3409
  181MOL0     C23770   5.524  11.582   0.580  0.2025  0.8241  0.2785
  181MOL0     C23771   5.500  11.681   0.465  0.0416  0.2924 -0.1739
  181MOL0     C23772   5.349  11.692   0.446  0.9121 -0.1501  0.5043
  181MOL0     C23773   5.316  11.794   0.329 -0.5316 -0.0578 -0.1678
  181MOL0     C23774   5.168  11.801   0.278  0.8737  0.7192 -0.2558
  181MOL0     C23775   5.137  11.917   0.200  0.3227  0.1991 -0.3167
  181MOL0     C23776   5.210  11.940   0.077  0.6089  0.9594  0.0646
  181MOL0     N23777   5.185  11.845  -0.030  0.9573 -0.6364 -0.5182
  181MOL0     C23778   5.080  11.851  -0.123 -0.0473 -0.4023  0.1337
  181MOL0     C23779   5.101  11.740  -0.200  1.2748 -0.3615 -0.2980
  181MOL0     C23780   5.036  11.704  -0.334  0.0668 -0.3469 -0.6955
  181MOL0     C23781   4.881  11.708  -0.314 -0.0226  0.5378 -0.1007
  181MOL0     C23782   4.833  11.611  -0.208 -0.1209  1.3320 -0.0111
  181MOL0     C23783   4.683  11.596  -0.198  0.3272  0.8433  0.3743
  181MOL0     O23784   4.633  11.725  -0.171  0.2495  0.3699 -0.1477
  181MOL0     C23785   4.501  11.753  -0.182 -0.7417  0.6996  0.0895
  181MOL0     C23786   4.399  11.656  -0.185  0.5542  0.3329  0.0944
  181MOL0     C23787   4.271  11.697  -0.204 -0.5624 -0.5146 -0.3238
  181MOL0     C23788   4.234  11.836  -0.200  0.2113  0.3278 -0.8550
  181MOL0     C23789   4.093  11.871  -0.225 -0.0433  0.7420 -0.3670
  181MOL0     O23790   4.004  11.761  -0.237 -0.5193 -0.0280 -0.1869
  181MOL0     C23791   3.869  11.779  -0.261  0.1146 -0.1867 -0.2014
  181MOL0     C23792   3.816  11.722  -0.375 -0.3794  0.4861  0.7968
  181MOL0     C23793   3.686  11.752  -0.415 -0.0289  0.2223 -0.1399
  181MOL0     C23794   3.599  11.828  -0.339  0.4244 -0.0225  0.4742
  181MOL0     O23795   3.475  11.848  -0.395 -0.6308 -0.3486  0.1619
  181MOL0     C23796   3.403  11.973  -0.384 -0.7969  0.7130  0.2159
  181MOL0     C23797   3.262  11.984  -0.451  0.0624 -0.0070  0.3567
  181MOL0     C23798   3.171  11.866  -0.401  0.2270 -0.9151 -0.9192
  181MOL0     C23799   3.048  11.853  -0.482 -0.4480  0.1627 -0.3329
  181MOL0     C23800   2.949  11.728  -0.457 -0.4100 -0.6169  0.2514
  181MOL0     C23801   2.893  11.724  -0.315 -0.3442 -0.3381 -0.7296
  181MOL0     C23802   2.830  11.586  -0.288 -0.5697  0.0028 -0.3085
  181MOL0     C23803   2.727  11.595  -0.176 -0.5481 -0.0531 -0.9603
  181MOL0    Cl23804   2.792  11.665  -0.035  0.0260 -0.3993 -0.2212
  181MOL0     C23805   3.646  11.882  -0.222  0.2459 -0.4082  0.0815
  181MOL0     C23806   3.781  11.867  -0.180 -0.1935  0.3369 -0.1853
  181MOL0     O23807   4.063  11.988  -0.243  0.5269  0.2876  0.0348
  181MOL0     C23808   4.340  11.929  -0.195  0.2164 -0.6616  0.0608
  181MOL0     C23809   4.473  11.892  -0.196 -0.0369  0.1001  0.1320
  181MOL0     N23810   5.198  11.661  -0.131  0.1200  0.3867  0.6006
  181MOL0     N23811   5.244  11.724  -0.034 -0.0793  0.3579  0.8256
  181MOL0     C23812   5.879  11.316   0.461  0.0342  1.4451  0.3974
  181MOL0     C23813   5.993  11.246   0.470  0.0106 -0.1419 -1.0300
  181MOL0     C23814   6.344  11.014   0.552 -0.0659 -0.1059 -0.9021
  181MOL0     C23815   6.350  10.873   0.555  0.3520  0.5057 -0.3924
  181MOL0     C23816   6.462  10.803   0.514 -0.0748  0.0810  0.1910
  181MOL0     C23817   6.575  10.871   0.481  0.6110  0.6387  0.3235
  181MOL0     O23818   6.694  10.818   0.430  0.4634  0.6904 -0.4054
  181MOL0     C23819   6.715  10.671   0.449  0.3040 -0.3348  0.3556
  181MOL0     C23820   6.778  10.603   0.326 -1.2502 -0.1342  0.2939
  181MOL0     C23821   6.684  10.620   0.206  0.1027 -0.3511 -0.8996
  181MOL0     C23822   6.750  10.580   0.082  0.3029 -0.3056  1.4630
  181MOL0     C23823   6.808  10.686   0.006  0.1464 -0.1012  0.2725
  181MOL0     C23824   6.853  10.788  -0.044 -0.4617  0.4198 -0.3655
  181MOL0     C23825   6.577  11.010   0.483 -0.8543  0.1202 -0.2032
  181MOL0     C23826   6.466  11.081   0.509 -0.2839 -0.1866 -0.5767
  181MOL0     H23827   6.163  11.454   0.678 -0.3038  0.1229  0.3045
  181MOL0     H23828   5.945  11.582   0.659  0.7535 -1.3832  2.5645
  181MOL0     H23829   5.727  11.624   0.652  1.2201 -0.0282 -2.5757
  181MOL0     H23830   5.657  11.461   0.684 -0.8523  0.2889  0.4954
  181MOL0     H23831   5.481  11.633   0.667  0.7517  2.1982 -0.2287
  181MOL0     H23832   5.467  11.493   0.552  0.3103  1.5525 -2.4980
  181MOL0     H23833   5.542  11.630   0.377  3.7320 -2.4877  2.8448
  181MOL0     H23834   5.558  11.772   0.479 -1.4455  1.0855  1.1008
  181MOL0     H23835   5.307  11.598   0.408 -4.0804  1.3276  1.5924
  181MOL0     H23836   5.296  11.702   0.542 -0.8149 -3.3742  0.0314
  181MOL0     H23837   5.386  11.755   0.254  2.8991  1.2344  2.0927
  181MOL0     H23838   5.357  11.890   0.362  2.6890 -0.3046 -2.8362
  181MOL0     H23839   5.114  11.818   0.372  1.2079  2.0776 -0.2779
  181MOL0     H23840   5.131  11.711   0.229 -0.9811  1.2176  0.1525
  181MOL0     H23841   5.030  11.916   0.178  0.1588  1.3479  0.3675
  181MOL0     H23842   5.153  11.997   0.272 -1.2198 -1.7228  2.3570
  181MOL0     H23843   5.316  11.933   0.105  1.1292  1.6064 -1.5860
  181MOL0     H23844   5.198  12.041   0.036  1.6589  1.2895  0.5436
  181MOL0     H23845   5.010  11.928  -0.151 -1.5013 -1.5603  0.4418
  181MOL0     H23846   5.077  11.605  -0.356  0.7117 -0.1482 -0.4221
  181MOL0     H23847   5.078  11.770  -0.411  1.9199  0.7581  1.1659
  181MOL0     H23848   4.840  11.681  -0.411 -0.2541 -0.4917  0.2665
  181MOL0     H23849   4.857  11.814  -0.301  0.4045  0.7640 -1.0621
  181MOL0     H23850   4.883  11.514  -0.210 -1.8600  0.2329  3.1880
  181MOL0     H23851   4.856  11.630  -0.103 -1.9922  0.9954  0.4945
  181MOL0     H23852   4.657  11.523  -0.122  4.4199  0.8354  1.9990
  181MOL0     H23853   4.649  11.569  -0.299 -2.6370  0.8900  1.2941
  181MOL0     H23854   4.419  11.549  -0.185  0.7309  0.2441 -3.8368
  181MOL0     H23855   4.192  11.625  -0.226 -2.3585  1.5516 -1.0332
  181MOL0     H23856   3.883  11.672  -0.444 -0.1489 -0.4828  1.7114
  181MOL0     H23857   3.648  11.696  -0.500 -0.4197 -0.7587  0.6589
  181MOL0     H23858   3.462  12.058  -0.419  0.2923 -0.0110  0.2531
  181MOL0     H23859   3.393  12.002  -0.279  1.2756  0.7238  0.4601
  181MOL0     H23860   3.276  11.987  -0.559  2.8948 -0.8932  0.6125
  181MOL0     H23861   3.211  12.078  -0.425  2.5358  1.8433 -1.0692
  181MOL0     H23862   3.138  11.880  -0.298  1.3132 -0.6033 -0.5996
  181MOL0     H23863   3.226  11.772  -0.416  0.2682 -1.4614  2.0107
  181MOL0     H23864   2.986  11.942  -0.471  0.2589  0.6579 -0.2892
  181MOL0     H23865   3.076  11.859  -0.588 -2.6165 -0.1482 -0.9580
  181MOL0     H23866   3.015  11.641  -0.448  1.3658  0.7510  1.3765
  181MOL0     H23867   2.873  11.723  -0.536  0.4478  2.1058 -0.8615
  181MOL0     H23868   2.818  11.803  -0.307  1.3270  1.6258 -3.3470
  181MOL0     H23869   2.976  11.733  -0.244 -1.3235  3.1435  0.1510
  181MOL0     H23870   2.778  11.551  -0.377 -2.1317  0.9816  0.1859
  181MOL0     H23871   2.898  11.508  -0.253 -0.4085  1.3066  2.6580
  181MOL0     H23872   2.689  11.495  -0.152  0.5654 -0.1318  0.7365
  181MOL0     H23873   2.645  11.657  -0.211 -1.4496 -0.7395 -0.1345
  181MOL0     H23874   3.578  11.944  -0.165  2.5516  1.2554  1.1919
  181MOL0     H23875   3.815  11.919  -0.091 -1.5852  1.2671 -0.1594
  181MOL0     H23876   4.320  12.035  -0.199 -1.6172 -1.0033 -2.6914
  181MOL0     H23877   4.548  11.971  -0.197  0.9468 -0.7985 -0.1428
  181MOL0     H23878   5.801  11.280   0.395 -0.1747  2.0085  0.3286
  181MOL0     H23879   6.012  11.153   0.417 -2.0981 -1.2190 -0.0246
  181MOL0     H23880   6.266  10.811   0.585 -0.0499  0.7153 -1.0725
  181MOL0     H23881   6.434  10.699   0.501 -2.7786  0.5189  1.7599
  181MOL0     H23882   6.625  10.615   0.473 -0.9934 -0.7973 -4.4579
  181MOL0     H23883   6.786  10.656   0.531 -0.8178  0.8764  1.5959
  181MOL0     H23884   6.874  10.650   0.301 -1.4060  0.3771  0.6456
  181MOL0     H23885   6.796  10.495   0.338 -0.8008 -0.2973 -1.6021
  181MOL0     H23886   6.655  10.725   0.203  0.6254 -0.1939 -0.5294
  181MOL0     H23887   6.595  10.562   0.233 -0.3261 -0.2662 -2.0873
  181MOL0     H23888   6.832  10.512   0.106 -0.0048 -1.2569 -0.0492
  181MOL0     H23889   6.679  10.515   0.029  0.9833 -2.1666  2.7373
  181MOL0     H23890   6.880  10.885  -0.079 -2.1088  1.1994  0.3888
  181MOL0     H23891   6.660  11.076   0.458 -0.3181  0.3341  1.9594
  181MOL0     H23892   6.475  11.189   0.511  1.0343 -0.2624 -1.0470
  182MOL0     O23893   4.699   8.843   6.145 -0.6267 -0.3330  0.7406
  182MOL0     C23894   4.685   8.839   6.270 -0.2444  0.7177  0.6167
  182MOL0     O23895   4.773   8.897   6.358  0.4111 -0.5415 -0.2205
  182MOL0     C23896   4.872   8.971   6.306 -0.5533 -0.8082  0.0652
  182MOL0     C23897   4.864   9.079   6.213  0.5907  0.5888  0.4551
  182MOL0     C23898   4.985   9.145   6.171 -0.2849  0.0927  0.0725
  182MOL0     C23899   5.106   9.113   6.221  0.0552 -0.8552  0.5734
  182MOL0     O23900   5.216   9.188   6.174  0.5647 -0.0980  0.4371
  182MOL0     C23901   5.347   9.127   6.192  0.2764 -0.6749  0.2711
  182MOL0     C23902   5.448   9.212   6.106  0.3668 -0.1018  0.7350
  182MOL0     C23903   5.593   9.183   6.133 -0.2786 -1.0247 -0.4807
  182MOL0     C23904   5.681   9.305   6.109  0.2268 -0.1155 -0.6136
  182MOL0     C23905   5.666   9.395   5.979 -0.2600  0.7452 -0.0517
  182MOL0     C23906   5.702   9.301   5.857  0.2734 -0.6001 -0.0405
  182MOL0     C23907   5.734   9.381   5.729 -0.2829 -0.0037 -0.1185
  182MOL0     C23908   5.616   9.460   5.681  0.4766 -0.1707 -0.1967
  182MOL0     N23909   5.493   9.388   5.673 -0.4908 -0.3596  0.0704
  182MOL0     C23910   5.388   9.403   5.755 -0.6919  0.0776  0.6789
  182MOL0     C23911   5.316   9.292   5.739 -0.1928  0.0549  0.1648
  182MOL0     C23912   5.191   9.261   5.827  0.1222 -0.0889  0.1463
  182MOL0     C23913   5.058   9.263   5.754 -0.4963 -0.3071 -0.4068
  182MOL0     C23914   4.975   9.145   5.769  0.6576  0.1867  0.2787
  182MOL0     C23915   5.030   9.024   5.691  0.5958  0.8001  0.1588
  182MOL0     O23916   5.002   8.896   5.752 -0.4907  0.1915 -0.1029
  182MOL0     C23917   4.873   8.854   5.783 -0.5151 -0.7806  0.4699
  182MOL0     C23918   4.758   8.910   5.731  0.8100 -0.7629  0.2272
  182MOL0     C23919   4.633   8.849   5.761 -0.5198 -0.3647 -0.5969
  182MOL0     C23920   4.624   8.736   5.836 -0.1626  1.1482 -0.1624
  182MOL0     C23921   4.492   8.670   5.852  0.7804  0.1025 -0.5355
  182MOL0     O23922   4.479   8.543   5.909 -0.4320 -0.2440 -0.4615
  182MOL0     C23923   4.355   8.488   5.896 -0.3599 -0.0892  0.7359
  182MOL0     C23924   4.249   8.533   5.973  0.5838 -0.1630 -0.3993
  182MOL0     C23925   4.126   8.476   5.941  0.7974  0.4218  0.6983
  182MOL0     C23926   4.113   8.370   5.850  0.1393 -0.4009 -0.5421
  182MOL0     O23927   3.988   8.310   5.847 -0.4626  0.2875 -0.1155
  182MOL0     C23928   3.959   8.223   5.735  0.1991  0.0058  0.2820
  182MOL0     C23929   3.804   8.213   5.713  0.3534 -0.0353 -0.0899
  182MOL0     C23930   3.739   8.336   5.639  0.8646  0.1004 -0.0823
  182MOL0     C23931   3.578   8.311   5.638  0.0763 -1.1496  0.1278
  182MOL0     C23932   3.500   8.298   5.768 -0.6319  1.4098 -0.1114
  182MOL0     C23933   3.347   8.282   5.741 -0.8000  0.4018 -0.5477
  182MOL0     C23934   3.278   8.268   5.881 -0.2768 -0.0971 -0.0710
  182MOL0     C23935   3.126   8.285   5.885 -1.1718 -0.0500 -0.2355
  182MOL0    Cl23936   3.062   8.452   5.850  0.3999 -0.5275  0.4417
  182MOL0     C23937   4.221   8.321   5.781  0.1253 -0.2055  0.4099
  182MOL0     C23938   4.347   8.388   5.800  0.6772  0.4125  0.7847
  182MOL0     O23939   4.401   8.746   5.823  0.4423  0.2596 -0.1087
  182MOL0     C23940   4.743   8.685   5.896  0.4683  0.5058 -0.3356
  182MOL0     C23941   4.868   8.741   5.865  0.1669  0.6703  0.2601
  182MOL0     N23942   5.374   9.220   5.636 -0.0602  0.8189 -0.4235
  182MOL0     N23943   5.486   9.271   5.604 -1.0891 -0.2578 -0.8203
  182MOL0     C23944   5.115   9.013   6.319  0.4249  0.8697 -0.3378
  182MOL0     C23945   5.000   8.947   6.361  0.1995 -0.1692  0.4316
  182MOL0     C23946   4.585   8.737   6.325 -0.7728  0.6988 -0.2955
  182MOL0     C23947   4.499   8.657   6.249 -0.1823 -0.0442 -0.1089
  182MOL0     C23948   4.411   8.570   6.318  1.1557 -1.1811 -0.1664
  182MOL0     C23949   4.408   8.560   6.455 -0.0359 -0.2881  0.0101
  182MOL0     O23950   4.322   8.464   6.502  0.0530 -0.2068  0.7228
  182MOL0     C23951   4.312   8.446   6.647 -0.2319 -0.1951 -0.1975
  182MOL0     C23952   4.227   8.553   6.711 -0.5326 -1.3425  0.4991
  182MOL0     C23953   4.200   8.538   6.861 -0.1011  0.0272  0.2087
  182MOL0     C23954   4.320   8.587   6.940  0.3512 -0.0923  0.0771
  182MOL0     C23955   4.286   8.620   7.077  0.7687  0.4280  0.1949
  182MOL0     C23956   4.270   8.648   7.198 -0.8977 -0.0313 -0.0397
  182MOL0     C23957   4.504   8.634   6.531 -0.3349 -0.2315  1.5574
  182MOL0     C23958   4.587   8.728   6.464  1.0052 -0.2960 -0.4167
  182MOL0     H23959   4.784   9.112   6.147  2.1277 -1.0887 -2.4508
  182MOL0     H23960   4.980   9.220   6.093 -0.5928 -0.5662 -0.5491
  182MOL0     H23961   5.344   9.022   6.162 -0.6738 -1.0430  1.5377
  182MOL0     H23962   5.376   9.137   6.297 -3.5238  2.6078  1.2694
  182MOL0     H23963   5.422   9.318   6.105 -2.5799 -0.6839 -1.9274
  182MOL0     H23964   5.436   9.181   6.001  1.2264  0.2858  0.5097
  182MOL0     H23965   5.622   9.097   6.073  1.7667 -1.9291  1.6529
  182MOL0     H23966   5.609   9.151   6.236  0.1051  1.4245  0.2929
  182MOL0     H23967   5.673   9.374   6.193  0.0439  2.5710 -2.6837
  182MOL0     H23968   5.784   9.267   6.113  0.5201  0.7439  0.0982
  182MOL0     H23969   5.738   9.476   5.967  0.0449  0.2069 -2.5192
  182MOL0     H23970   5.564   9.433   5.990 -0.5090 -0.1076  0.6786
  182MOL0     H23971   5.619   9.233   5.833  0.1658 -0.0421 -1.3240
  182MOL0     H23972   5.786   9.239   5.889  1.1600  0.0956 -0.9596
  182MOL0     H23973   5.817   9.448   5.751  0.5258 -1.5207  1.8150
  182MOL0     H23974   5.763   9.315   5.646 -1.0243  0.1628 -0.5217
  182MOL0     H23975   5.638   9.509   5.585 -2.2349  2.0349  0.1850
  182MOL0     H23976   5.607   9.547   5.747 -0.4541  1.8982 -2.8518
  182MOL0     H23977   5.376   9.476   5.834  2.4264  0.0068  1.3137
  182MOL0     H23978   5.182   9.324   5.916 -1.3494 -1.6917  1.1934
  182MOL0     H23979   5.198   9.160   5.868 -0.0299 -0.1721 -0.0322
  182MOL0     H23980   5.079   9.284   5.649  2.6951  0.7990  0.3192
  182MOL0     H23981   4.997   9.343   5.798 -1.7902 -3.4337  4.2005
  182MOL0     H23982   4.960   9.115   5.873  1.8595 -2.2772 -0.1850
  182MOL0     H23983   4.879   9.165   5.720  1.8063 -1.0620 -2.7841
  182MOL0     H23984   5.136   9.032   5.668  0.1294  0.5197 -2.3353
  182MOL0     H23985   4.983   9.025   5.592  1.2996 -1.2294 -0.2415
  182MOL0     H23986   4.753   8.987   5.653 -0.3995 -2.1466 -1.1271
  182MOL0     H23987   4.551   8.894   5.705  0.5692  1.8634 -0.5228
  182MOL0     H23988   4.256   8.615   6.043 -0.3203  2.0174 -2.7032
  182MOL0     H23989   4.036   8.502   5.996  1.4634 -4.5208  4.8172
  182MOL0     H23990   4.002   8.126   5.761  0.5036  0.1782  0.4278
  182MOL0     H23991   3.998   8.258   5.639 -2.3766 -1.9715 -1.6309
  182MOL0     H23992   3.757   8.185   5.808 -1.3448 -0.1466 -0.9344
  182MOL0     H23993   3.789   8.133   5.640 -0.8255  0.7287 -0.7107
  182MOL0     H23994   3.784   8.339   5.539  0.7472  0.2839 -0.1305
  182MOL0     H23995   3.762   8.428   5.694 -1.8425  1.8708 -1.6826
  182MOL0     H23996   3.533   8.400   5.591  1.5507  0.8996  2.3642
  182MOL0     H23997   3.552   8.228   5.572 -1.3250 -0.4103 -0.3013
  182MOL0     H23998   3.508   8.387   5.831 -0.1662  1.5471 -0.3620
  182MOL0     H23999   3.531   8.211   5.826  2.3497  3.7956  2.1349
  182MOL0     H24000   3.336   8.191   5.682 -0.3029  1.7191 -2.7748
  182MOL0     H24001   3.304   8.370   5.692 -0.2460  1.1388  0.2491
  182MOL0     H24002   3.315   8.174   5.924 -1.0829 -1.8663 -2.9375
  182MOL0     H24003   3.313   8.349   5.946 -0.4638 -1.1847  1.4525
  182MOL0     H24004   3.105   8.250   5.987 -0.3971  1.4445  0.4598
  182MOL0     H24005   3.088   8.208   5.817  2.0245 -2.0190 -0.0476
  182MOL0     H24006   4.219   8.237   5.712 -2.5256  0.1591 -0.0682
  182MOL0     H24007   4.439   8.361   5.749  1.1503  4.0628 -0.5532
  182MOL0     H24008   4.741   8.590   5.948  0.0248 -1.5007 -3.7480
  182MOL0     H24009   4.956   8.687   5.898  0.2322  0.4001 -0.3389
  182MOL0     H24010   5.208   8.981   6.364 -0.1344 -1.2203 -0.6035
  182MOL0     H24011   5.000   8.870   6.437  2.2573 -1.6168 -0.9333
  182MOL0     H24012   4.513   8.666   6.142  1.2381  0.1830  0.0796
  182MOL0     H24013   4.332   8.517   6.265  0.4804  0.4967 -0.8880
  182MOL0     H24014   4.412   8.461   6.689 -1.3406 -0.9389  2.9523
  182MOL0     H24015   4.284   8.342   6.667  2.0847 -0.6988  0.7796
  182MOL0     H24016   4.275   8.651   6.699  0.5570 -1.9845 -0.5993
  182MOL0     H24017   4.136   8.563   6.652  0.2001 -0.4430 -0.5200
  182MOL0     H24018   4.175   8.436   6.892  1.0060  0.4718  2.8358
  182MOL0     H24019   4.112   8.597   6.886  0.1118  0.4209  0.0288
  182MOL0     H24020   4.404   8.520   6.923  0.7250  0.4948 -0.4782
  182MOL0     H24021   4.365   8.679   6.902  0.2629  0.1605  0.5754
  182MOL0     H24022   4.258   8.665   7.303  0.4340 -1.3145  0.3528
  182MOL0     H24023   4.507   8.629   6.639  1.5318 -0.1462  1.5283
  182MOL0     H24024   4.652   8.788   6.526 -1.9290  1.6309  1.0041
  183MOL0     O24025   2.702   5.925   3.723  0.4060 -0.3145 -0.3093
  183MOL0     C24026   2.723   5.814   3.780 -0.1131 -0.0470  0.7106
  183MOL0     O24027   2.627   5.739   3.838  0.0990  0.5604 -0.1376
  183MOL0     C24028   2.497   5.783   3.843  0.6478  0.4444 -0.5731
  183MOL0     C24029   2.398   5.685   3.807 -0.2019 -0.3651  0.5089
  183MOL0     C24030   2.261   5.716   3.824  0.6934 -0.0873 -0.0702
  183MOL0     C24031   2.221   5.845   3.872  0.2703  0.2184  0.4714
  183MOL0     O24032   2.087   5.887   3.880 -0.2911 -0.0581 -0.3947
  183MOL0     C24033   1.983   5.790   3.862 -0.7087  0.1599 -0.4232
  183MOL0     C24034   1.854   5.836   3.927  0.0209  0.6317 -0.1984
  183MOL0     C24035   1.732   5.742   3.890 -0.1209  0.2968 -0.3172
  183MOL0     C24036   1.729   5.611   3.968 -0.0594  0.6207  0.3515
  183MOL0     C24037   1.587   5.570   4.011 -1.3636 -0.9439 -0.1878
  183MOL0     C24038   1.509   5.509   3.902  0.0806 -1.2031  0.8218
  183MOL0     C24039   1.465   5.600   3.783 -0.4001  0.0220 -0.5140
  183MOL0     C24040   1.386   5.723   3.838  0.2372  0.4086  0.5576
  183MOL0     N24041   1.355   5.812   3.721 -1.5086 -1.2240 -0.1490
  183MOL0     C24042   1.269   5.916   3.724 -0.6121 -0.9387 -0.4434
  183MOL0     C24043   1.298   5.987   3.612 -0.8179  0.5852  0.8932
  183MOL0     C24044   1.247   6.127   3.577 -0.9446  0.1843  0.1011
  183MOL0     C24045   1.092   6.116   3.545  0.5731 -0.1664  0.2372
  183MOL0     C24046   1.070   6.048   3.408 -0.3699 -0.2943  0.0982
  183MOL0     C24047   0.934   6.096   3.351 -0.5708 -0.2859  0.1717
  183MOL0     O24048   0.832   6.097   3.455 -0.5115  1.4229  0.2304
  183MOL0     C24049   0.703   6.080   3.402  0.2498 -0.1576 -0.2486
  183MOL0     C24050   0.670   5.966   3.332 -0.2793  0.0794 -1.1499
  183MOL0     C24051   0.536   5.953   3.295 -0.3229 -0.3986  0.2374
  183MOL0     C24052   0.431   6.041   3.338 -0.2758 -0.6088  0.6899
  183MOL0     C24053   0.294   6.016   3.300  1.2784  0.6310 -0.3014
  183MOL0     O24054   0.197   6.072   3.388  0.3745  0.0865 -0.2662
  183MOL0     C24055   0.069   6.023   3.410 -0.2793  0.5402 -0.4919
  183MOL0     C24056  -0.010   5.925   3.347 -0.1216 -0.3863  0.2254
  183MOL0     C24057  -0.140   5.896   3.387  0.3718 -1.3540 -1.1218
  183MOL0     C24058  -0.196   5.971   3.493 -0.9829 -0.3166 -0.8218
  183MOL0     O24059  -0.327   5.945   3.531  0.2237  0.4190  0.9841
  183MOL0     C24060  -0.407   6.066   3.521 -0.0892  0.3240 -0.0978
  183MOL0     C24061  -0.550   6.030   3.480 -0.2581 -0.3393  0.4194
  183MOL0     C24062  -0.601   5.909   3.564  0.7064 -0.6672  0.3533
  183MOL0     C24063  -0.747   5.892   3.572  0.6588  0.4377 -0.0931
  183MOL0     C24064  -0.778   5.765   3.661  0.0814 -0.5483  0.6340
  183MOL0     C24065  -0.910   5.692   3.621  0.9250 -0.2341 -0.1414
  183MOL0     C24066  -1.033   5.786   3.638 -0.9875  0.0038  0.4957
  183MOL0     C24067  -1.170   5.716   3.595  0.0367 -0.8439  0.1088
  183MOL0    Cl24068  -1.201   5.551   3.638  0.4545 -0.3501  0.0021
  183MOL0     C24069  -0.119   6.069   3.552 -0.4026  0.6744 -0.3441
  183MOL0     C24070   0.012   6.097   3.517  0.7226  0.4871  0.8720
  183MOL0     O24071   0.261   5.941   3.213 -0.0656 -0.0894  0.0850
  183MOL0     C24072   0.472   6.158   3.402  0.1988 -0.1273  0.4520
  183MOL0     C24073   0.606   6.173   3.437 -0.2625  0.4315  0.5648
  183MOL0     N24074   1.411   5.924   3.542 -0.4436  0.2159  0.2268
  183MOL0     N24075   1.431   5.818   3.610 -0.4424  0.7240  0.5058
  183MOL0     C24076   2.323   5.927   3.916 -0.0743  0.7458 -0.3313
  183MOL0     C24077   2.460   5.903   3.905  0.0821 -0.2430 -0.4726
  183MOL0     C24078   2.858   5.757   3.804 -0.7767 -0.0533 -0.5608
  183MOL0     C24079   2.967   5.844   3.788 -0.1394  0.0401  0.0425
  183MOL0     C24080   3.099   5.805   3.834  1.5228  0.2814 -0.2489
  183MOL0     C24081   3.123   5.673   3.865 -0.0642  0.3103 -1.2902
  183MOL0     O24082   3.251   5.636   3.899  0.0529  0.0060  0.1503
  183MOL0     C24083   3.263   5.525   3.992 -0.0677  0.2651 -0.1195
  183MOL0     C24084   3.402   5.528   4.054 -0.3495  0.0463  0.1875
  183MOL0     C24085   3.510   5.523   3.940 -0.3936 -1.2438  0.2686
  183MOL0     C24086   3.650   5.553   3.996  0.0063 -0.8477  0.4676
  183MOL0     C24087   3.709   5.431   4.046 -0.0772  0.2564  0.3126
  183MOL0     C24088   3.759   5.337   4.097 -0.0340  0.6815 -0.2518
  183MOL0     C24089   3.014   5.584   3.867 -0.0914 -0.2208 -0.2471
  183MOL0     C24090   2.887   5.624   3.833  0.5802 -0.4851 -0.4514
  183MOL0     H24091   2.442   5.591   3.777 -2.1595 -0.6957 -1.5543
  183MOL0     H24092   2.184   5.644   3.800  0.4228  0.3265 -0.4559
  183MOL0     H24093   2.014   5.692   3.901 -0.7973 -0.0555 -0.8784
  183MOL0     H24094   1.951   5.767   3.759 -2.2637  0.2453  0.0152
  183MOL0     H24095   1.820   5.933   3.888 -2.5621  0.4984  1.5106
  183MOL0     H24096   1.874   5.838   4.034  4.6777 -1.9779 -0.7304
  183MOL0     H24097   1.740   5.738   3.781  0.9224  1.0787 -0.2907
  183MOL0     H24098   1.640   5.795   3.918 -0.2117  0.2682 -0.5532
  183MOL0     H24099   1.774   5.528   3.912 -0.5621 -0.8136  1.9994
  183MOL0     H24100   1.786   5.617   4.061 -0.7998 -1.1122  0.9383
  183MOL0     H24101   1.539   5.657   4.058  1.8692  2.4622 -2.5081
  183MOL0     H24102   1.605   5.494   4.087  0.3324  0.1757  0.5854
  183MOL0     H24103   1.418   5.472   3.951 -0.4637 -0.3012  0.5406
  183MOL0     H24104   1.559   5.424   3.855 -2.4127 -0.9198 -2.7250
  183MOL0     H24105   1.554   5.636   3.730 -0.6117  1.3986 -0.0007
  183MOL0     H24106   1.399   5.544   3.716  0.5736 -0.5222 -1.0314
  183MOL0     H24107   1.436   5.794   3.906 -1.0453  0.4807  1.4568
  183MOL0     H24108   1.293   5.688   3.883 -0.5938  0.1486 -1.2775
  183MOL0     H24109   1.201   5.945   3.803 -0.0122  0.1256 -0.3047
  183MOL0     H24110   1.293   6.174   3.490 -3.2478  1.5379 -0.4661
  183MOL0     H24111   1.264   6.201   3.656  1.7802  1.6449 -1.7125
  183MOL0     H24112   1.055   6.219   3.551  1.7785  0.3140 -0.2097
  183MOL0     H24113   1.046   6.059   3.625 -0.8409  0.3582 -0.1771
  183MOL0     H24114   1.158   6.064   3.344  1.0384 -0.7480  1.8313
  183MOL0     H24115   1.065   5.940   3.422 -1.0773 -0.3418 -0.4665
  183MOL0     H24116   0.905   6.033   3.266  0.6433 -1.6443  0.7242
  183MOL0     H24117   0.952   6.197   3.311 -1.9805 -0.7773 -1.8870
  183MOL0     H24118   0.736   5.880   3.332 -1.0248 -0.5210 -2.3597
  183MOL0     H24119   0.508   5.863   3.241  0.8324  0.4623 -1.8990
  183MOL0     H24120   0.029   5.867   3.265 -1.1765 -0.6876 -0.0769
  183MOL0     H24121  -0.194   5.826   3.324 -0.9345  0.5549 -2.2317
  183MOL0     H24122  -0.367   6.146   3.457 -0.2972  2.0897  1.8686
  183MOL0     H24123  -0.414   6.111   3.620  1.0313  2.8929 -1.0845
  183MOL0     H24124  -0.567   6.001   3.376  0.3514 -3.4944  1.0891
  183MOL0     H24125  -0.626   6.107   3.494 -1.0825 -1.0226 -0.1970
  183MOL0     H24126  -0.565   5.921   3.667  1.3656 -0.3418  0.0903
  183MOL0     H24127  -0.554   5.820   3.520  0.5155 -1.2903  1.3679
  183MOL0     H24128  -0.803   5.967   3.628 -2.7444 -1.6063 -0.5135
  183MOL0     H24129  -0.796   5.880   3.475  1.2571 -1.9446 -0.1537
  183MOL0     H24130  -0.782   5.792   3.767  3.6622 -2.1776  1.3525
  183MOL0     H24131  -0.697   5.693   3.648  0.6632  0.1272  0.4550
  183MOL0     H24132  -0.932   5.600   3.677  0.8497  0.8581  1.7173
  183MOL0     H24133  -0.891   5.655   3.520  5.4689 -2.2602  1.2009
  183MOL0     H24134  -1.031   5.827   3.739  2.4728 -3.0141  1.8624
  183MOL0     H24135  -1.021   5.868   3.566  0.4195 -1.9979 -1.7021
  183MOL0     H24136  -1.183   5.735   3.488  0.3527  1.2951  0.3978
  183MOL0     H24137  -1.240   5.778   3.652 -0.4313 -0.2945 -1.0326
  183MOL0     H24138  -0.157   6.117   3.642 -0.4031  1.1283 -0.5831
  183MOL0     H24139   0.076   6.165   3.573 -0.9496  1.0207  2.2264
  183MOL0     H24140   0.404   6.232   3.444 -0.7069 -0.8166  0.2304
  183MOL0     H24141   0.647   6.260   3.488 -0.0140  1.5151 -1.3665
  183MOL0     H24142   2.299   6.026   3.953  2.8055  1.0849  0.9210
  183MOL0     H24143   2.547   5.958   3.940  2.0225  0.0330 -5.0918
  183MOL0     H24144   2.952   5.949   3.763 -0.6493  0.2123  0.9999
  183MOL0     H24145   3.175   5.882   3.823  0.1528  1.4040 -3.0826
  183MOL0     H24146   3.245   5.437   3.931 -2.4484  1.5638 -1.4074
  183MOL0     H24147   3.184   5.530   4.067 -0.4078 -0.4719 -0.4190
  183MOL0     H24148   3.406   5.617   4.118  1.5422  0.9872 -1.1655
  183MOL0     H24149   3.412   5.447   4.127 -1.1465 -0.2295  0.0016
  183MOL0     H24150   3.488   5.592   3.859 -0.2100 -0.5733  0.7825
  183MOL0     H24151   3.516   5.419   3.904  0.7838 -1.0282 -0.1974
  183MOL0     H24152   3.717   5.583   3.915 -2.4044 -3.8085 -2.9949
  183MOL0     H24153   3.648   5.634   4.069 -1.2368  0.3473 -0.8275
  183MOL0     H24154   3.813   5.270   4.162  0.4387  3.2999  2.2842
  183MOL0     H24155   3.026   5.485   3.909  0.7316  0.4467  1.1693
  183MOL0     H24156   2.806   5.556   3.858 -0.2419  0.6958  0.1802
  184MOL0     O24157   7.580  10.686   0.874 -0.4561  0.6262  0.5934
  184MOL0     C24158   7.531  10.777   0.805 -0.1754 -0.2839 -0.8173
  184MOL0     O24159   7.431  10.856   0.843 -0.1157 -0.2671  0.1199
  184MOL0     C24160   7.337  10.822   0.941 -0.9084  0.0332  0.2270
  184MOL0     C24161   7.225  10.908   0.955  0.7898  0.1790  0.0388
  184MOL0     C24162   7.123  10.879   1.050 -0.8245  1.3751  0.4972
  184MOL0     C24163   7.138  10.757   1.127  0.4429 -0.7229  0.4298
  184MOL0     O24164   7.047  10.716   1.214  0.6435 -0.3512 -0.0755
  184MOL0     C24165   6.913  10.779   1.204  0.4076 -0.2794  0.1835
  184MOL0     C24166   6.816  10.679   1.294  0.3258 -0.1536  0.3360
  184MOL0     C24167   6.677  10.744   1.311  0.5199  0.6547 -0.4742
  184MOL0     C24168   6.566  10.641   1.324 -0.1091  0.0248 -0.3170
  184MOL0     C24169   6.436  10.704   1.368 -0.0672  0.4134 -0.0124
  184MOL0     C24170   6.322  10.608   1.393  0.5681 -0.3855 -0.1648
  184MOL0     C24171   6.190  10.681   1.430 -0.4339  0.0137 -0.4712
  184MOL0     C24172   6.074  10.582   1.402 -0.4209  1.2745  0.1176
  184MOL0     N24173   5.956  10.655   1.430  0.2674  0.4509 -0.3669
  184MOL0     C24174   5.885  10.644   1.544 -0.2350 -1.1013 -1.0035
  184MOL0     C24175   5.775  10.715   1.521  0.3494  0.1189  0.5107
  184MOL0     C24176   5.655  10.744   1.618 -0.0855 -0.7281  0.2579
  184MOL0     C24177   5.593  10.626   1.692  0.3050 -0.5388  0.3734
  184MOL0     C24178   5.447  10.642   1.710  0.1715 -0.0589 -0.6282
  184MOL0     C24179   5.374  10.517   1.770  0.3610  0.0230 -0.1870
  184MOL0     O24180   5.233  10.551   1.792  0.6130 -0.1544  0.1791
  184MOL0     C24181   5.158  10.475   1.880 -0.1471 -0.4845 -0.1843
  184MOL0     C24182   5.028  10.512   1.905 -0.3653 -0.5112 -0.1372
  184MOL0     C24183   4.947  10.437   1.983  0.3034 -0.4779 -0.0513
  184MOL0     C24184   4.988  10.311   2.032 -0.0682 -0.3015 -0.2921
  184MOL0     C24185   4.902  10.231   2.117  0.1022  0.1706 -0.0751
  184MOL0     O24186   4.781  10.280   2.146  0.1074 -0.0705 -0.1569
  184MOL0     C24187   4.688  10.199   2.207  0.5433 -0.2923  0.3933
  184MOL0     C24188   4.610  10.261   2.308  0.8699 -0.3930 -0.5920
  184MOL0     C24189   4.525  10.191   2.395  0.4415 -0.4350  0.5103
  184MOL0     C24190   4.517  10.055   2.371 -0.6354  0.1988 -0.2143
  184MOL0     O24191   4.433   9.978   2.453 -0.6431 -0.3452  0.1775
  184MOL0     C24192   4.415  10.013   2.587  0.2035 -0.3237  0.5496
  184MOL0     C24193   4.356   9.896   2.660 -0.7485  0.2755 -0.3926
  184MOL0     C24194   4.206   9.873   2.599 -0.1720 -0.4444 -0.1424
  184MOL0     C24195   4.135   9.766   2.676  0.6790 -0.0245 -0.7824
  184MOL0     C24196   3.984   9.754   2.635 -0.2503  0.7466  0.6466
  184MOL0     C24197   3.910   9.669   2.743 -0.2286 -0.4963 -0.8154
  184MOL0     C24198   3.904   9.730   2.882  0.0791  0.0142  0.0763
  184MOL0     C24199   3.840   9.863   2.882 -0.1864 -0.1303 -0.0579
  184MOL0    Cl24200   3.853   9.931   3.048 -0.7429 -0.0367 -0.2699
  184MOL0     C24201   4.595   9.986   2.269  0.5043  0.2963  0.9457
  184MOL0     C24202   4.675  10.060   2.184 -0.2735 -0.3967 -0.2882
  184MOL0     O24203   4.949  10.122   2.165 -0.1802 -1.1188 -0.3430
  184MOL0     C24204   5.117  10.275   1.997  0.0031  0.5841  0.0593
  184MOL0     C24205   5.201  10.352   1.920  0.0215 -0.3218 -0.1267
  184MOL0     N24206   5.776  10.772   1.395 -0.4378  0.4112  0.5180
  184MOL0     N24207   5.882  10.735   1.339  0.2080  0.1579 -0.2008
  184MOL0     C24208   7.251  10.687   1.116  0.4101  0.8571  0.3645
  184MOL0     C24209   7.345  10.713   1.030 -0.5159  0.3877  0.2448
  184MOL0     C24210   7.610  10.834   0.697 -0.7475  0.1915 -0.0458
  184MOL0     C24211   7.553  10.904   0.593  0.0965  0.8656  0.2101
  184MOL0     C24212   7.637  10.939   0.489 -0.2838 -0.5075 -0.4394
  184MOL0     C24213   7.777  10.920   0.488 -0.5171  0.5903  0.0729
  184MOL0     O24214   7.834  10.967   0.377  0.5436 -0.3321  0.5297
  184MOL0     C24215   7.977  10.960   0.372 -0.9954 -0.7660 -0.5025
  184MOL0     C24216   8.037  11.097   0.331 -0.4123  0.8363  0.4846
  184MOL0     C24217   8.026  11.121   0.175  0.6708 -0.1834 -0.7789
  184MOL0     C24218   8.110  11.235   0.139  0.3128 -0.2749  0.8162
  184MOL0     C24219   8.034  11.359   0.152 -0.5068  0.7135 -0.0631
  184MOL0     C24220   7.979  11.451   0.199  0.8598 -0.0876 -0.2792
  184MOL0     C24221   7.830  10.839   0.591 -0.0945  0.4373  0.5253
  184MOL0     C24222   7.750  10.798   0.697  0.5622  0.0923  0.7007
  184MOL0     H24223   7.213  10.996   0.892 -0.9012  0.3172  0.5141
  184MOL0     H24224   7.039  10.948   1.053 -1.5675  0.8310 -3.1571
  184MOL0     H24225   6.869  10.798   1.105 -1.7617  2.4759  1.5316
  184MOL0     H24226   6.923  10.877   1.250  2.5985 -0.1013 -0.5850
  184MOL0     H24227   6.857  10.669   1.395 -0.2917  0.4894  0.6618
  184MOL0     H24228   6.816  10.580   1.248  0.2569 -1.1924  2.4435
  184MOL0     H24229   6.657  10.805   1.222 -0.7300  1.2454  0.1782
  184MOL0     H24230   6.674  10.817   1.392 -1.4038  2.4859 -2.0702
  184MOL0     H24231   6.545  10.590   1.230 -1.0739 -0.9353  0.3918
  184MOL0     H24232   6.591  10.569   1.402  1.0645  0.7549  0.0146
  184MOL0     H24233   6.399  10.773   1.292 -2.2989  0.1994  0.7987
  184MOL0     H24234   6.459  10.764   1.457 -1.2220 -1.0461  1.3293
  184MOL0     H24235   6.330  10.541   1.479  0.4982 -3.9900 -2.7462
  184MOL0     H24236   6.316  10.539   1.307 -0.9883  0.0069 -0.4018
  184MOL0     H24237   6.191  10.717   1.533 -3.6744  1.2589 -0.7476
  184MOL0     H24238   6.178  10.773   1.371  1.1524  2.1007  2.2161
  184MOL0     H24239   6.078  10.496   1.469 -2.5110 -1.4148 -2.8967
  184MOL0     H24240   6.069  10.542   1.300  0.5909 -0.4180  0.6920
  184MOL0     H24241   5.922  10.625   1.644  0.2473 -1.3432 -1.2272
  184MOL0     H24242   5.578  10.791   1.556  0.3655 -2.0137 -1.3523
  184MOL0     H24243   5.690  10.815   1.693  1.8429 -1.4307  0.0920
  184MOL0     H24244   5.652  10.617   1.784  1.1283  3.5812  0.4418
  184MOL0     H24245   5.607  10.540   1.626  0.4182 -0.8181  0.7520
  184MOL0     H24246   5.427  10.731   1.770 -0.8763 -0.3263 -0.5569
  184MOL0     H24247   5.412  10.663   1.608 -0.1829 -2.3843 -1.0318
  184MOL0     H24248   5.423  10.492   1.865 -0.3076  0.8766  0.3945
  184MOL0     H24249   5.383  10.429   1.705  1.8486 -0.3103  0.4170
  184MOL0     H24250   4.982  10.600   1.861 -2.1872 -0.9081  0.8714
  184MOL0     H24251   4.853  10.486   2.004  0.8055  0.2662  0.4858
  184MOL0     H24252   4.616  10.368   2.325 -2.1830 -0.1168 -0.5924
  184MOL0     H24253   4.480  10.242   2.479  3.7977  3.3685  0.2958
  184MOL0     H24254   4.344  10.096   2.601  1.0826  0.5071  0.2309
  184MOL0     H24255   4.505  10.053   2.637  0.2580  0.1835  0.0630
  184MOL0     H24256   4.336   9.910   2.767 -0.1781 -1.0205 -0.0911
  184MOL0     H24257   4.416   9.805   2.653 -2.1177 -0.9702  2.2580
  184MOL0     H24258   4.206   9.850   2.492  1.5649  0.6736 -0.4346
  184MOL0     H24259   4.142   9.961   2.611  0.4636  0.0218 -0.0529
  184MOL0     H24260   4.178   9.667   2.659 -0.4597 -1.4013  3.2176
  184MOL0     H24261   4.156   9.790   2.781 -0.1371 -0.7179 -0.4436
  184MOL0     H24262   3.991   9.693   2.545 -0.0835 -2.3136  2.5700
  184MOL0     H24263   3.947   9.856   2.621  3.1388  1.8461 -1.3937
  184MOL0     H24264   3.964   9.574   2.738  2.3682  0.8420 -0.0452
  184MOL0     H24265   3.803   9.658   2.720 -0.7098 -2.6948  1.9501
  184MOL0     H24266   3.838   9.666   2.941  0.4851 -1.3951 -0.9288
  184MOL0     H24267   4.003   9.740   2.928  1.1405 -0.0023 -2.0730
  184MOL0     H24268   3.737   9.841   2.852 -0.0485 -0.1478 -0.5280
  184MOL0     H24269   3.881   9.931   2.807 -0.9968  1.0744  0.5594
  184MOL0     H24270   4.586   9.879   2.257 -0.0542  0.0549  3.1212
  184MOL0     H24271   4.730   9.996   2.115  1.5529  0.0304  0.6880
  184MOL0     H24272   5.160  10.178   2.020  0.0494  0.6932  0.4281
  184MOL0     H24273   5.296  10.316   1.884  1.5669 -0.3966  3.5637
  184MOL0     H24274   7.249  10.601   1.182  1.7127 -0.0793 -0.7588
  184MOL0     H24275   7.422  10.636   1.033 -0.9411 -0.0379  0.5176
  184MOL0     H24276   7.447  10.925   0.597  0.5020  3.0778  0.8499
  184MOL0     H24277   7.586  11.000   0.415 -2.3288  1.0784  2.1091
  184MOL0     H24278   8.007  10.877   0.307 -1.8917 -0.9572 -0.6875
  184MOL0     H24279   8.030  10.943   0.466  2.3063 -0.0521 -2.0773
  184MOL0     H24280   8.016  11.188   0.388 -0.0725  0.0384  1.9395
  184MOL0     H24281   8.144  11.087   0.349 -0.1600 -2.5737 -1.8489
  184MOL0     H24282   7.925  11.132   0.136  0.7334  0.0883 -0.8661
  184MOL0     H24283   8.064  11.034   0.120 -1.6996 -1.5373 -0.4478
  184MOL0     H24284   8.214  11.232   0.171  1.4319 -0.2632 -2.4751
  184MOL0     H24285   8.115  11.232   0.030 -2.3923  2.2673  0.4808
  184MOL0     H24286   7.935  11.538   0.242  3.6482  1.1649  0.2353
  184MOL0     H24287   7.927  10.791   0.579 -0.4434  0.2388 -1.8429
  184MOL0     H24288   7.779  10.722   0.769  1.0733 -0.3499  0.0408
  185MOL0     O24289  10.145  11.043   8.931 -0.0911  0.4040 -0.3004
  185MOL0     C24290  10.134  11.133   9.008 -0.4742 -0.3894  0.0243
  185MOL0     O24291  10.027  11.159   9.084  0.6149  1.1951 -0.4170
  185MOL0     C24292   9.904  11.097   9.066  0.0428  0.2274 -0.0267
  185MOL0     C24293   9.828  11.094   8.948  0.1296  0.8466  0.3643
  185MOL0     C24294   9.696  11.050   8.956  0.1991 -0.5465 -0.2749
  185MOL0     C24295   9.640  11.001   9.076 -0.5073  0.9793 -0.1093
  185MOL0     O24296   9.515  10.948   9.098  0.0838  0.6485  0.5180
  185MOL0     C24297   9.427  10.978   8.989 -0.2344 -0.0742 -0.2511
  185MOL0     C24298   9.294  10.939   9.050 -0.2141 -1.0255 -0.1729
  185MOL0     C24299   9.178  10.986   8.960  0.1207  0.3605  0.3283
  185MOL0     C24300   9.051  10.911   9.024  0.5285  0.9916  0.0420
  185MOL0     C24301   8.931  10.962   8.941 -0.4617  0.3771 -0.6200
  185MOL0     C24302   8.794  10.913   8.998 -1.1192 -0.7712  0.1445
  185MOL0     C24303   8.676  10.966   8.926  0.4231 -0.1510 -1.3431
  185MOL0     C24304   8.549  10.891   8.984 -0.3605 -0.4030  0.2488
  185MOL0     N24305   8.428  10.941   8.928 -0.1126 -0.1814  0.0676
  185MOL0     C24306   8.369  11.053   8.984 -1.0594  0.2503 -0.3741
  185MOL0     C24307   8.267  11.073   8.899  0.3068 -0.2371 -0.4902
  185MOL0     C24308   8.186  11.207   8.900 -1.0219  0.1447 -0.2475
  185MOL0     C24309   8.102  11.232   9.025 -0.3674 -0.0701 -0.3783
  185MOL0     C24310   7.986  11.124   9.041  0.2255  0.2504 -0.0349
  185MOL0     C24311   7.857  11.177   8.976  0.2677 -0.0634  1.2749
  185MOL0     O24312   7.806  11.297   9.043  0.2851  0.0219  0.3308
  185MOL0     C24313   7.693  11.356   8.988  0.6693  0.2196  0.3342
  185MOL0     C24314   7.642  11.456   9.069  0.3500 -0.6238 -0.2382
  185MOL0     C24315   7.527  11.528   9.029  0.1031 -0.3705 -0.0506
  185MOL0     C24316   7.461  11.501   8.911 -0.5547  0.9810  0.6815
  185MOL0     C24317   7.338  11.577   8.875 -0.5003 -0.4299  0.6263
  185MOL0     O24318   7.270  11.533   8.772  0.5426  0.2813  0.2967
  185MOL0     C24319   7.156  11.600   8.741  0.1818 -0.0601  1.2437
  185MOL0     C24320   7.120  11.593   8.602 -0.1479  0.1818 -0.3736
  185MOL0     C24321   7.005  11.664   8.555  0.0396  1.4820  0.1329
  185MOL0     C24322   6.909  11.713   8.644 -0.1292 -0.4436 -0.4686
  185MOL0     O24323   6.806  11.788   8.589 -0.1344  0.5257  0.1580
  185MOL0     C24324   6.724  11.862   8.676  0.0688  0.2005  0.5835
  185MOL0     C24325   6.652  11.968   8.587  0.4011 -0.2153 -0.6500
  185MOL0     C24326   6.546  11.916   8.488  0.5601  0.7631 -0.5751
  185MOL0     C24327   6.424  11.845   8.567  0.5431 -0.4355  0.4546
  185MOL0     C24328   6.304  11.814   8.468  0.3412 -0.0364 -0.4555
  185MOL0     C24329   6.334  11.707   8.366  0.1258  0.6022 -0.0108
  185MOL0     C24330   6.207  11.653   8.303  0.3720  0.2087 -0.0900
  185MOL0     C24331   6.193  11.713   8.167  0.3974  0.2961 -0.3982
  185MOL0    Cl24332   6.323  11.649   8.057  0.4134 -0.3269 -0.4531
  185MOL0     C24333   6.932  11.703   8.785 -0.7167  0.0036 -0.7319
  185MOL0     C24334   7.059  11.652   8.823  0.4498  0.3609  0.2953
  185MOL0     O24335   7.328  11.689   8.928 -0.3205 -0.4310  0.5292
  185MOL0     C24336   7.508  11.398   8.823 -0.2953  0.7786  0.4576
  185MOL0     C24337   7.623  11.328   8.865  0.6541  0.9357 -0.2964
  185MOL0     N24338   8.260  10.973   8.804  0.2813  0.2613  0.5634
  185MOL0     N24339   8.363  10.895   8.822  1.0924 -0.5623  0.3341
  185MOL0     C24340   9.721  11.001   9.192  0.5249  0.6180 -0.3089
  185MOL0     C24341   9.852  11.045   9.187 -0.2902  0.7427  0.3571
  185MOL0     C24342  10.252  11.224   9.021 -1.0231  0.5401 -1.3512
  185MOL0     C24343  10.380  11.183   8.978  0.3326 -0.7203  0.3636
  185MOL0     C24344  10.493  11.256   9.010  0.5707  0.0862 -0.4260
  185MOL0     C24345  10.491  11.368   9.086 -0.6807 -0.2827 -0.2980
  185MOL0     O24346  10.616  11.425   9.117  0.1229  0.2200  0.5517
  185MOL0     C24347  10.621  11.537   9.205  0.8365 -0.3991 -0.7488
  185MOL0     C24348  10.772  11.554   9.240  0.0721 -1.2613  1.0924
  185MOL0     C24349  10.828  11.665   9.152  0.2336  0.9106  0.5759
  185MOL0     C24350  10.878  11.609   9.010  0.7466 -0.1270 -0.2916
  185MOL0     C24351  10.965  11.703   8.945 -0.3144  0.3780  0.8019
  185MOL0     C24352  11.046  11.770   8.892 -0.5235  0.0925 -0.4215
  185MOL0     C24353  10.362  11.425   9.113 -0.6018  0.5136 -0.0324
  185MOL0     C24354  10.247  11.345   9.088 -0.6506 -0.5392  0.2211
  185MOL0     H24355   9.874  11.117   8.852  2.1662 -0.6692  0.8922
  185MOL0     H24356   9.644  11.041   8.861  1.0007  0.1454 -0.7860
  185MOL0     H24357   9.437  10.919   8.898 -2.4168  0.6012 -1.0070
  185MOL0     H24358   9.430  11.086   8.968 -2.5138 -0.2356 -1.8491
  185MOL0     H24359   9.272  10.986   9.147 -2.1982  1.6004 -1.7329
  185MOL0     H24360   9.299  10.830   9.054  2.1146 -0.9765 -0.6594
  185MOL0     H24361   9.196  10.954   8.857  1.1911 -0.8953  0.8720
  185MOL0     H24362   9.170  11.095   8.957  0.0819  0.3306 -1.8095
  185MOL0     H24363   9.044  10.803   9.003 -2.0697  0.9781  0.5832
  185MOL0     H24364   9.037  10.929   9.131  0.0247  1.5056 -0.1074
  185MOL0     H24365   8.936  10.921   8.839 -2.4315  1.3807 -1.1801
  185MOL0     H24366   8.929  11.071   8.940 -1.5396  0.5051  2.7585
  185MOL0     H24367   8.785  10.947   9.102  3.7945  0.1289  0.5392
  185MOL0     H24368   8.792  10.804   8.985 -0.1157 -1.3606  3.7710
  185MOL0     H24369   8.662  11.072   8.949  1.0344  0.3240 -3.0197
  185MOL0     H24370   8.682  10.950   8.818  1.5240  1.0660 -1.4819
  185MOL0     H24371   8.538  10.905   9.092  1.8467  0.2610  0.4475
  185MOL0     H24372   8.565  10.787   8.956 -1.5919 -0.0900 -1.8242
  185MOL0     H24373   8.404  11.109   9.070  2.2749 -2.0212 -0.0576
  185MOL0     H24374   8.113  11.204   8.818 -0.5257 -2.0901 -0.6663
  185MOL0     H24375   8.259  11.286   8.883 -1.5181  0.4748 -0.8886
  185MOL0     H24376   8.063  11.334   9.024  1.7325  0.7836 -0.3925
  185MOL0     H24377   8.163  11.232   9.116  0.4204  4.2560 -0.7041
  185MOL0     H24378   8.031  11.032   9.003 -0.7814  1.0395 -3.5200
  185MOL0     H24379   7.954  11.119   9.146  0.2329  0.3086 -0.0309
  185MOL0     H24380   7.782  11.098   8.974  0.8889 -0.6693 -0.5892
  185MOL0     H24381   7.875  11.207   8.872 -0.8649  0.1046  1.1168
  185MOL0     H24382   7.669  11.466   9.174 -2.6221 -1.7660  0.7693
  185MOL0     H24383   7.492  11.602   9.099  3.1772 -0.2375  1.5271
  185MOL0     H24384   7.195  11.539   8.544  1.7926  0.8382  1.4229
  185MOL0     H24385   6.981  11.668   8.450 -1.2983  0.6734  0.3840
  185MOL0     H24386   6.800  11.912   8.736  2.9045 -1.3346 -1.4466
  185MOL0     H24387   6.652  11.801   8.731 -0.6039 -1.0566 -1.5734
  185MOL0     H24388   6.729  12.022   8.530  0.1301  2.2070  1.1171
  185MOL0     H24389   6.611  12.046   8.651  0.2906  1.5300 -2.7287
  185MOL0     H24390   6.599  11.841   8.427  1.6291  0.8762  0.1933
  185MOL0     H24391   6.512  11.989   8.413 -0.0974  0.9508 -0.0944
  185MOL0     H24392   6.449  11.754   8.623 -0.8184  0.6797  3.0586
  185MOL0     H24393   6.382  11.915   8.640  0.0662  0.2336 -0.4523
  185MOL0     H24394   6.266  11.902   8.414 -1.4227  0.2442  1.1268
  185MOL0     H24395   6.213  11.793   8.524  1.3280  1.1773  1.7239
  185MOL0     H24396   6.375  11.618   8.415  1.8872  2.1807  1.5407
  185MOL0     H24397   6.405  11.743   8.291 -0.4965 -0.9800 -1.4209
  185MOL0     H24398   6.201  11.544   8.295 -5.9296  0.3023 -2.2190
  185MOL0     H24399   6.125  11.690   8.366 -0.1647  1.9408 -1.6905
  185MOL0     H24400   6.206  11.821   8.170 -0.0559  0.3183  1.3012
  185MOL0     H24401   6.093  11.684   8.135  0.0858 -0.4809  1.2042
  185MOL0     H24402   6.867  11.738   8.865  1.8178  0.9394  1.0195
  185MOL0     H24403   7.079  11.631   8.928  0.0344 -1.4335  0.0509
  185MOL0     H24404   7.460  11.380   8.728  1.7858  1.6834 -0.8305
  185MOL0     H24405   7.665  11.259   8.792  2.2756  2.8069 -1.2560
  185MOL0     H24406   9.682  10.957   9.283 -1.4997  0.7602 -1.0678
  185MOL0     H24407   9.914  11.054   9.276  1.3962  0.3722 -0.7397
  185MOL0     H24408  10.387  11.089   8.925  0.6087  1.0286 -2.9622
  185MOL0     H24409  10.589  11.212   8.986  0.5229  0.2521 -0.9407
  185MOL0     H24410  10.558  11.518   9.293  1.3155  1.0563 -0.0586
  185MOL0     H24411  10.579  11.623   9.151  3.7487 -0.3388 -3.2072
  185MOL0     H24412  10.779  11.596   9.341 -2.0328  0.6849  0.5039
  185MOL0     H24413  10.822  11.458   9.226 -0.8015 -1.3535 -2.3312
  185MOL0     H24414  10.915  11.709   9.201  0.0374 -0.0151  1.8347
  185MOL0     H24415  10.753  11.742   9.133 -0.5653 -0.1495 -0.7647
  185MOL0     H24416  10.929  11.514   9.029  0.4980 -0.3809 -0.8579
  185MOL0     H24417  10.789  11.583   8.952 -0.2955  3.0123 -0.2853
  185MOL0     H24418  11.110  11.839   8.841 -0.6670 -0.1589 -0.9603
  185MOL0     H24419  10.357  11.528   9.145  0.3853 -0.1023  2.3017
  185MOL0     H24420  10.146  11.375   9.115 -0.6947  0.5825 -1.0758
  186MOL0     O24421   5.179   5.115   9.530 -1.0081 -0.0567 -0.1697
  186MOL0     C24422   5.198   5.226   9.583  0.1912 -0.7022 -0.3109
  186MOL0     O24423   5.094   5.313   9.626  0.5603  0.1315  0.5086
  186MOL0     C24424   4.971   5.263   9.668 -0.2149  0.1420  0.0976
  186MOL0     C24425   4.965   5.214   9.797  0.0864  0.3723 -0.6044
  186MOL0     C24426   4.852   5.134   9.834 -0.4755 -0.3933  0.1586
  186MOL0     C24427   4.754   5.106   9.742 -0.2651 -0.6684  0.7914
  186MOL0     O24428   4.644   5.037   9.791  0.4514  0.2667  0.3719
  186MOL0     C24429   4.600   4.931   9.707  0.5145 -0.4276 -0.4262
  186MOL0     C24430   4.536   4.819   9.794 -0.1451 -0.1748  0.3126
  186MOL0     C24431   4.650   4.762   9.886  0.3483  0.1933  0.3505
  186MOL0     C24432   4.603   4.687  10.010  0.4505 -0.3970 -1.0204
  186MOL0     C24433   4.717   4.675  10.105  0.2146 -0.3343 -0.9226
  186MOL0     C24434   4.712   4.551  10.191  0.4300 -0.0709  0.3748
  186MOL0     C24435   4.833   4.542  10.293 -0.1612 -0.4231 -0.1741
  186MOL0     C24436   4.861   4.401  10.351 -0.3705  0.0781 -0.2932
  186MOL0     N24437   4.758   4.353  10.450 -0.3179  0.0505 -1.0087
  186MOL0     C24438   4.779   4.344  10.590 -0.1658 -0.1694 -0.1596
  186MOL0     C24439   4.668   4.271  10.633 -0.4721  0.0242  0.3516
  186MOL0     C24440   4.639   4.240  10.778 -0.1506 -0.2462  0.3163
  186MOL0     C24441   4.495   4.215  10.807  0.3302  0.8111  0.7048
  186MOL0     C24442   4.454   4.231  10.951  0.1545 -1.0402 -0.6179
  186MOL0     C24443   4.310   4.229  10.979  0.2518  0.0827 -0.0921
  186MOL0     O24444   4.247   4.105  10.941  0.0489 -0.1929  0.4080
  186MOL0     C24445   4.111   4.100  10.909 -0.0863 -1.0052 -0.7177
  186MOL0     C24446   4.026   4.216  10.910  0.3857 -0.1851  0.3454
  186MOL0     C24447   3.890   4.208  10.883 -0.4044  0.8650  0.4897
  186MOL0     C24448   3.826   4.087  10.854 -0.4660  0.2302  1.0242
  186MOL0     C24449   3.686   4.062  10.832 -0.3182  0.0054  0.2299
  186MOL0     O24450   3.634   3.935  10.806  0.1631 -0.5116 -0.0023
  186MOL0     C24451   3.498   3.918  10.805 -0.3157  0.3837 -0.1883
  186MOL0     C24452   3.415   3.966  10.911  1.0503  0.9181  0.0258
  186MOL0     C24453   3.279   3.927  10.915 -0.9155 -0.2793 -0.5803
  186MOL0     C24454   3.221   3.853  10.819 -0.4449 -0.2972  0.5454
  186MOL0     O24455   3.086   3.815  10.835 -0.7314 -0.2931  0.4025
  186MOL0     C24456   3.011   3.770  10.719 -0.1207 -0.1944 -0.2586
  186MOL0     C24457   2.990   3.620  10.723  0.1395  0.3277 -0.3632
  186MOL0     C24458   2.882   3.585  10.836 -0.1585  0.5074  0.0364
  186MOL0     C24459   2.910   3.442  10.876 -0.2168  0.1015  0.6778
  186MOL0     C24460   2.784   3.368  10.925  0.0524 -0.3587 -0.2564
  186MOL0     C24461   2.818   3.235  10.994  0.0540 -0.1384 -0.5209
  186MOL0     C24462   2.688   3.171  11.059  0.0028 -0.0043 -0.3461
  186MOL0     C24463   2.720   3.032  11.110  0.1703  0.8180  0.5797
  186MOL0    Cl24464   2.572   2.957  11.197 -0.2241 -0.0095 -0.0255
  186MOL0     C24465   3.311   3.807  10.711  0.5304 -0.8541  0.4669
  186MOL0     C24466   3.447   3.837  10.710  0.0158  0.7501 -0.4641
  186MOL0     O24467   3.619   4.162  10.839  1.2963 -0.0670  0.4253
  186MOL0     C24468   3.913   3.977  10.839  0.8894 -0.1197  0.9825
  186MOL0     C24469   4.045   3.979  10.870 -1.1541  0.8635  0.1045
  186MOL0     N24470   4.590   4.249  10.528  0.5034 -0.0132  0.2074
  186MOL0     N24471   4.650   4.284  10.417 -0.7230 -0.3266  0.3226
  186MOL0     C24472   4.762   5.161   9.607  0.4560 -0.3795  0.3943
  186MOL0     C24473   4.871   5.240   9.573 -0.5548  0.2783  0.4194
  186MOL0     C24474   5.337   5.276   9.603 -0.4459 -0.1567 -0.4162
  186MOL0     C24475   5.437   5.188   9.596 -0.6281 -0.1148  0.3274
  186MOL0     C24476   5.569   5.227   9.613  0.5068 -0.5475 -0.1724
  186MOL0     C24477   5.598   5.362   9.647 -0.2656 -0.6053 -0.4282
  186MOL0     O24478   5.728   5.409   9.672  0.5679  0.1682  0.1124
  186MOL0     C24479   5.834   5.312   9.670 -0.9003  0.1754 -0.0516
  186MOL0     C24480   5.844   5.222   9.797 -0.5184  0.7331  0.2453
  186MOL0     C24481   5.846   5.311   9.923  0.5235 -0.4989  0.5729
  186MOL0     C24482   5.978   5.390   9.945  0.1870 -0.1688 -0.4642
  186MOL0     C24483   6.069   5.306  10.008 -0.5044 -0.1922 -1.0026
  186MOL0     C24484   6.155   5.232  10.063  0.2822 -0.8469 -0.0903
  186MOL0     C24485   5.494   5.452   9.666 -0.0185  0.2698 -0.2682
  186MOL0     C24486   5.366   5.412   9.644  0.6247 -0.1798  0.5984
  186MOL0     H24487   5.041   5.221   9.875  0.5893 -1.4157 -0.8904
  186MOL0     H24488   4.841   5.109   9.939  0.5423  0.1789  0.4124
  186MOL0     H24489   4.675   4.891   9.639  0.1568 -1.3866 -0.2746
  186MOL0     H24490   4.514   4.963   9.647  0.1708  1.4560  0.9593
  186MOL0     H24491   4.497   4.743   9.726  1.0342  0.6556 -1.3592
  186MOL0     H24492   4.453   4.844   9.861 -0.7590  1.9293 -1.1291
  186MOL0     H24493   4.711   4.843   9.927  5.3769 -3.5993  1.4101
  186MOL0     H24494   4.713   4.697   9.825  0.9582  0.0107  1.1508
  186MOL0     H24495   4.520   4.741  10.056 -0.4635 -2.6903  0.1787
  186MOL0     H24496   4.554   4.591   9.994  0.4281 -1.0116  2.1198
  186MOL0     H24497   4.743   4.762  10.165  1.7803 -0.2239 -1.7311
  186MOL0     H24498   4.806   4.666  10.043 -0.8023 -1.1158 -2.3326
  186MOL0     H24499   4.712   4.458  10.133 -2.4896  0.1083 -0.0868
  186MOL0     H24500   4.615   4.557  10.241 -0.0462  0.7520 -0.6209
  186MOL0     H24501   4.925   4.570  10.240  1.0814 -1.3976  1.3808
  186MOL0     H24502   4.819   4.615  10.374  0.2240 -2.2090  1.5654
  186MOL0     H24503   4.960   4.391  10.397  0.1482 -2.4095 -1.7354
  186MOL0     H24504   4.873   4.336  10.264  3.8376 -0.0396  0.1679
  186MOL0     H24505   4.865   4.372  10.649 -0.8975 -0.3675  1.0320
  186MOL0     H24506   4.666   4.313  10.855 -3.9854  0.6308  1.0650
  186MOL0     H24507   4.701   4.153  10.803  0.2519 -0.0031  0.1576
  186MOL0     H24508   4.473   4.116  10.766 -1.5332  1.3716  0.2274
  186MOL0     H24509   4.432   4.283  10.749  2.2327  0.1219 -2.3992
  186MOL0     H24510   4.499   4.147  11.005  3.0624  0.7258 -0.0190
  186MOL0     H24511   4.499   4.323  10.990 -3.1534  0.3475  0.2703
  186MOL0     H24512   4.264   4.306  10.916 -4.0484 -0.7510  1.6359
  186MOL0     H24513   4.270   4.259  11.077 -0.1238  0.4041 -0.3381
  186MOL0     H24514   4.067   4.313  10.937 -0.7288  0.8386 -1.4468
  186MOL0     H24515   3.830   4.297  10.897  0.6495  1.3730  2.0472
  186MOL0     H24516   3.451   4.044  10.978  2.7478  1.9740 -1.9984
  186MOL0     H24517   3.212   3.967  10.990  2.2128  0.4321  2.0752
  186MOL0     H24518   3.059   3.798  10.624 -1.0257  0.6556 -0.4859
  186MOL0     H24519   2.911   3.815  10.719 -0.1679 -0.2997 -0.0208
  186MOL0     H24520   3.090   3.579  10.731  0.0465 -0.0702 -1.1202
  186MOL0     H24521   2.941   3.588  10.630 -1.9160 -0.9337  1.0423
  186MOL0     H24522   2.778   3.598  10.804 -0.9197  1.6465  2.7051
  186MOL0     H24523   2.899   3.650  10.923 -0.6415  1.1200 -0.3179
  186MOL0     H24524   2.950   3.376  10.799  4.4428  3.6490 -0.4205
  186MOL0     H24525   2.987   3.441  10.953 -0.5267  0.6712  1.0044
  186MOL0     H24526   2.711   3.362  10.844 -1.0772  4.1077  0.1531
  186MOL0     H24527   2.739   3.427  11.005  0.0781 -0.5738 -0.0828
  186MOL0     H24528   2.898   3.251  11.067  1.2523  2.5509 -2.2854
  186MOL0     H24529   2.863   3.164  10.924 -0.5524 -1.2736  0.1991
  186MOL0     H24530   2.658   3.239  11.140  0.8051  1.2886 -1.0882
  186MOL0     H24531   2.601   3.174  10.993  0.5718  0.5154 -1.0950
  186MOL0     H24532   2.806   3.030  11.177  0.9588 -1.7937 -0.3822
  186MOL0     H24533   2.745   2.964  11.028 -0.4946 -0.1021  1.1129
  186MOL0     H24534   3.261   3.738  10.644 -0.6472  1.0967 -0.7358
  186MOL0     H24535   3.514   3.787  10.641 -0.5674 -1.6924  0.6289
  186MOL0     H24536   3.879   3.879  10.809 -4.0085  0.5550  3.2874
  186MOL0     H24537   4.102   3.887  10.870 -1.0893  0.9011  0.3236
  186MOL0     H24538   4.687   5.158   9.528  0.2405  0.6121  0.5393
  186MOL0     H24539   4.886   5.303   9.485  0.1758 -0.9408 -0.3478
  186MOL0     H24540   5.419   5.086   9.566 -0.4169 -0.8743  2.6210
  186MOL0     H24541   5.638   5.145   9.595  0.6000 -0.5542  0.1988
  186MOL0     H24542   5.929   5.366   9.663 -0.1018 -1.3515 -1.6791
  186MOL0     H24543   5.829   5.248   9.582  1.1621 -0.3221  0.1518
  186MOL0     H24544   5.755   5.159   9.801 -0.1175  0.1020 -0.4054
  186MOL0     H24545   5.938   5.167   9.788  0.3407  2.3077 -0.9566
  186MOL0     H24546   5.816   5.250  10.008 -0.6509 -0.1942  0.3921
  186MOL0     H24547   5.768   5.388   9.915  1.6407  0.4870 -2.9284
  186MOL0     H24548   6.022   5.427   9.853 -0.1848 -1.0424 -1.0091
  186MOL0     H24549   5.961   5.476  10.010  3.7622  1.9990 -2.0920
  186MOL0     H24550   6.227   5.161  10.098  2.3432  1.6392  1.0880
  186MOL0     H24551   5.509   5.551   9.707  0.4919  0.5390 -1.0845
  186MOL0     H24552   5.283   5.481   9.643  0.5569 -0.1158 -2.8319
  187MOL0     O24553   7.560   4.509   8.017 -0.8971 -0.6074  0.1751
  187MOL0     C24554   7.596   4.615   7.966  0.4560  0.4384 -0.2109
  187MOL0     O24555   7.539   4.677   7.863  0.3749  0.1624  0.0518
  187MOL0     C24556   7.433   4.619   7.792  0.3746  0.1395 -0.4267
  187MOL0     C24557   7.322   4.563   7.858  0.2750 -0.4285  0.3749
  187MOL0     C24558   7.209   4.513   7.785  0.2475  0.4923  0.4292
  187MOL0     C24559   7.216   4.501   7.643  0.1641 -0.1745 -0.0002
  187MOL0     O24560   7.119   4.414   7.581 -0.2549 -0.9105  0.6443
  187MOL0     C24561   6.980   4.459   7.589 -0.0012 -0.0667 -0.5928
  187MOL0     C24562   6.893   4.368   7.507  0.8611  0.3519 -0.2602
  187MOL0     C24563   6.868   4.235   7.582 -0.3696  0.8472 -0.1101
  187MOL0     C24564   6.771   4.156   7.494 -0.6997 -0.1745  0.0233
  187MOL0     C24565   6.628   4.156   7.539  1.0996  0.1391 -0.2129
  187MOL0     C24566   6.552   4.064   7.443  0.8135  0.8136  0.1837
  187MOL0     C24567   6.401   4.073   7.466  0.1437 -0.3458 -0.0803
  187MOL0     C24568   6.327   4.199   7.395  0.6434  0.0069 -0.1782
  187MOL0     N24569   6.179   4.202   7.417 -0.4874 -0.1892  0.9528
  187MOL0     C24570   6.109   4.314   7.456 -0.1333 -0.7914 -0.5414
  187MOL0     C24571   5.976   4.274   7.463 -0.3130 -0.0371  0.3343
  187MOL0     C24572   5.850   4.355   7.488  0.3170  0.5247 -0.5319
  187MOL0     C24573   5.821   4.461   7.373 -0.0954  0.2291  0.0647
  187MOL0     C24574   5.728   4.572   7.419 -0.2610  0.6534 -0.2444
  187MOL0     C24575   5.576   4.545   7.401  0.1578  0.4489 -0.6528
  187MOL0     O24576   5.497   4.631   7.482 -0.4015  0.0182 -0.5955
  187MOL0     C24577   5.359   4.625   7.442 -0.3686  0.9872  0.6563
  187MOL0     C24578   5.291   4.508   7.401 -0.9789 -0.5520  0.5948
  187MOL0     C24579   5.160   4.522   7.356  0.0519  0.6523  0.2859
  187MOL0     C24580   5.087   4.644   7.358 -0.5948  0.5097 -0.4141
  187MOL0     C24581   4.946   4.661   7.312  0.2401 -0.3116  0.2680
  187MOL0     O24582   4.881   4.766   7.378 -0.3236 -0.0173 -0.3913
  187MOL0     C24583   4.753   4.803   7.345 -0.6580  0.6165 -0.5323
  187MOL0     C24584   4.704   4.792   7.215 -0.0518  0.0293  0.4313
  187MOL0     C24585   4.573   4.836   7.186  0.1335 -0.5056  0.1628
  187MOL0     C24586   4.498   4.896   7.290  0.1680  0.5566  0.7320
  187MOL0     O24587   4.367   4.949   7.275  0.3062  0.0022  0.3594
  187MOL0     C24588   4.328   5.021   7.163  0.6996  0.3487 -0.4734
  187MOL0     C24589   4.371   5.160   7.194 -0.1147  0.0071  0.1570
  187MOL0     C24590   4.256   5.250   7.214  0.6734  0.3556  0.0135
  187MOL0     C24591   4.309   5.373   7.291 -0.2588 -0.1966 -0.1245
  187MOL0     C24592   4.189   5.468   7.318 -0.2869 -0.4864  0.1091
  187MOL0     C24593   4.086   5.415   7.426 -0.4121 -0.2813 -0.0911
  187MOL0     C24594   3.966   5.500   7.441 -0.5349  0.6986  0.0450
  187MOL0     C24595   3.892   5.471   7.568  0.2942 -0.4187 -0.2370
  187MOL0    Cl24596   3.735   5.563   7.583 -0.0100 -0.1333  0.0532
  187MOL0     C24597   4.547   4.909   7.415  0.5453 -1.6017  0.1620
  187MOL0     C24598   4.675   4.859   7.446  0.5339 -0.3780  0.1503
  187MOL0     O24599   4.900   4.581   7.239  0.5624 -0.2452 -0.1197
  187MOL0     C24600   5.158   4.756   7.413 -0.5496 -0.1535 -0.0794
  187MOL0     C24601   5.290   4.742   7.458 -0.3982 -0.3281 -0.2773
  187MOL0     N24602   5.969   4.147   7.414 -0.3635  0.2366  0.7535
  187MOL0     N24603   6.091   4.104   7.388 -0.2043  0.0875  0.1157
  187MOL0     C24604   7.320   4.563   7.575 -0.8209  0.1835 -0.7294
  187MOL0     C24605   7.426   4.628   7.649  1.0581  0.0001  0.1705
  187MOL0     C24606   7.729   4.664   8.009  0.0086 -0.7614 -0.1910
  187MOL0     C24607   7.792   4.757   7.924  0.2536  0.1908  0.1757
  187MOL0     C24608   7.917   4.802   7.961 -0.1421  0.2792  0.2900
  187MOL0     C24609   7.986   4.757   8.077 -0.2895 -0.2284 -0.4063
  187MOL0     O24610   8.105   4.799   8.129  0.1138 -0.2686  0.3898
  187MOL0     C24611   8.185   4.884   8.049  0.4409 -0.2790  0.7115
  187MOL0     C24612   8.338   4.857   8.073  0.4403  0.0916 -0.5200
  187MOL0     C24613   8.386   4.863   8.226 -0.4271 -0.0355 -0.3567
  187MOL0     C24614   8.367   4.729   8.302  0.4905  0.3086 -0.1038
  187MOL0     C24615   8.466   4.628   8.267  1.2352 -0.1997 -0.2822
  187MOL0     C24616   8.544   4.543   8.242 -0.0607  0.3284 -0.3181
  187MOL0     C24617   7.932   4.650   8.153  0.6820  0.4570  0.0715
  187MOL0     C24618   7.799   4.608   8.117 -0.5665  0.8038 -0.3693
  187MOL0     H24619   7.307   4.568   7.966 -0.4707 -0.6778  0.2883
  187MOL0     H24620   7.124   4.460   7.829  2.0498 -2.1546  0.9603
  187MOL0     H24621   6.980   4.560   7.547 -2.2464  0.2581  0.0089
  187MOL0     H24622   6.942   4.463   7.692  1.0929 -0.4141 -0.1636
  187MOL0     H24623   6.939   4.350   7.409  0.7716 -1.2015 -0.0321
  187MOL0     H24624   6.802   4.428   7.493 -0.1096 -0.5891  1.7073
  187MOL0     H24625   6.826   4.236   7.683  0.2873 -4.2710  0.4912
  187MOL0     H24626   6.968   4.190   7.585 -0.3920  0.2592 -3.7370
  187MOL0     H24627   6.776   4.180   7.387  1.3309  0.0698  0.1269
  187MOL0     H24628   6.802   4.051   7.488  0.8003  0.2633 -0.4205
  187MOL0     H24629   6.590   4.258   7.543  1.1467  0.1286  1.6591
  187MOL0     H24630   6.631   4.119   7.642  1.5898  1.4756  0.2729
  187MOL0     H24631   6.586   3.962   7.463 -1.1559  0.0621 -0.1070
  187MOL0     H24632   6.574   4.088   7.339  0.1543  1.0848  0.1016
  187MOL0     H24633   6.363   3.979   7.426 -1.8187  0.0159  0.7980
  187MOL0     H24634   6.381   4.064   7.574 -1.1848 -4.2968 -0.5072
  187MOL0     H24635   6.359   4.203   7.291  0.5961 -1.9368 -0.3010
  187MOL0     H24636   6.372   4.288   7.440 -0.4546 -0.0167  1.0290
  187MOL0     H24637   6.148   4.412   7.481  0.3471 -0.4537 -2.4809
  187MOL0     H24638   5.866   4.394   7.589  1.2199 -2.9570  0.8038
  187MOL0     H24639   5.759   4.298   7.506  0.6420  0.1936  0.0697
  187MOL0     H24640   5.781   4.411   7.284  0.7422  1.2032 -0.8981
  187MOL0     H24641   5.912   4.519   7.354  0.6388 -0.6938  0.6823
  187MOL0     H24642   5.745   4.605   7.522 -0.0648 -0.7061  0.1879
  187MOL0     H24643   5.757   4.662   7.364  0.4920  1.0008  0.6867
  187MOL0     H24644   5.570   4.443   7.440  5.1858  0.4279  0.7592
  187MOL0     H24645   5.559   4.553   7.293  0.9779  1.1487 -0.7422
  187MOL0     H24646   5.353   4.420   7.388  0.7362  0.8513 -1.7638
  187MOL0     H24647   5.101   4.438   7.321  0.0078  0.7718  0.0729
  187MOL0     H24648   4.761   4.753   7.131  0.0680 -0.1597  0.6014
  187MOL0     H24649   4.539   4.825   7.083 -0.3101  2.6868 -0.1617
  187MOL0     H24650   4.220   5.014   7.147  0.5573 -1.5898  0.9530
  187MOL0     H24651   4.380   5.001   7.069  2.0264  3.3577 -0.4851
  187MOL0     H24652   4.424   5.194   7.105  0.0010  2.5725  1.1182
  187MOL0     H24653   4.443   5.154   7.276  0.2185 -1.9469 -0.2239
  187MOL0     H24654   4.178   5.197   7.269  1.8404  1.0357  2.4704
  187MOL0     H24655   4.216   5.281   7.117 -2.3506  3.2666  1.9691
  187MOL0     H24656   4.362   5.349   7.384 -0.3977 -1.8512 -0.4370
  187MOL0     H24657   4.373   5.425   7.219 -0.8917  0.7347 -0.0269
  187MOL0     H24658   4.139   5.488   7.223  1.9154  2.2333 -0.6295
  187MOL0     H24659   4.224   5.566   7.354  0.7165 -0.3317 -1.2324
  187MOL0     H24660   4.137   5.405   7.522 -2.1988 -3.6707  0.6818
  187MOL0     H24661   4.053   5.314   7.400 -1.4038 -0.1774  0.7092
  187MOL0     H24662   3.990   5.606   7.430 -1.0470  0.6529 -2.0083
  187MOL0     H24663   3.890   5.485   7.364  0.1192  1.8373 -0.8553
  187MOL0     H24664   3.954   5.491   7.655 -0.8468 -2.8104  1.2485
  187MOL0     H24665   3.865   5.365   7.579  0.9904 -0.3921  2.3251
  187MOL0     H24666   4.480   4.945   7.492 -0.6863 -1.9340 -0.7170
  187MOL0     H24667   4.717   4.867   7.546 -0.2966  1.3014  0.4021
  187MOL0     H24668   5.110   4.854   7.410 -0.3829 -0.0941 -2.6626
  187MOL0     H24669   5.346   4.823   7.503 -2.7245  0.8422  0.6513
  187MOL0     H24670   7.319   4.556   7.466  2.3163 -1.6195 -0.7553
  187MOL0     H24671   7.508   4.679   7.599  0.1134  0.3029 -1.0991
  187MOL0     H24672   7.741   4.797   7.837  2.7974 -0.6795 -1.8247
  187MOL0     H24673   7.964   4.879   7.901  0.3566  1.6942  2.3958
  187MOL0     H24674   8.153   4.988   8.063 -1.1815 -0.5394 -0.7978
  187MOL0     H24675   8.172   4.866   7.942 -1.7607 -0.1513  0.9226
  187MOL0     H24676   8.368   4.758   8.036 -0.4626 -0.0241 -0.9860
  187MOL0     H24677   8.387   4.930   8.009  0.1496 -0.5461 -1.4995
  187MOL0     H24678   8.338   4.950   8.272 -0.9422 -0.1121 -0.7482
  187MOL0     H24679   8.492   4.890   8.239 -0.9096  1.3203  1.1018
  187MOL0     H24680   8.363   4.747   8.410 -1.1186 -1.7627  0.2676
  187MOL0     H24681   8.274   4.677   8.276  0.7477  0.6486 -1.8664
  187MOL0     H24682   8.604   4.471   8.191 -0.0047  0.5834 -0.6206
  187MOL0     H24683   7.984   4.619   8.243 -1.3230 -1.7069  0.5750
  187MOL0     H24684   7.767   4.541   8.196  3.4209  0.3455  1.0620
  188MOL0     O24685   6.310   1.930   1.956 -0.4668  0.5424 -0.2045
  188MOL0     C24686   6.350   2.000   2.048  0.3343 -0.0241  0.3491
  188MOL0     O24687   6.275   2.056   2.141  0.2495 -0.3666 -0.1031
  188MOL0     C24688   6.141   2.036   2.142  0.0905 -0.1332 -0.4139
  188MOL0     C24689   6.100   1.941   2.234  0.0221  0.0528 -0.6955
  188MOL0     C24690   5.965   1.923   2.250  1.2907 -0.0002  0.1505
  188MOL0     C24691   5.863   2.003   2.191 -0.1309 -0.0804  0.2414
  188MOL0     O24692   5.733   1.988   2.229 -0.5162  0.1862 -0.3027
  188MOL0     C24693   5.630   2.085   2.185 -0.2070 -0.3082  0.6366
  188MOL0     C24694   5.494   2.047   2.253  0.2592 -0.0027  0.3925
  188MOL0     C24695   5.384   2.155   2.231 -0.0747  0.3015 -0.1317
  188MOL0     C24696   5.245   2.086   2.246 -0.6283  0.3576 -0.6210
  188MOL0     C24697   5.141   2.172   2.322 -0.0273 -0.1621  0.0832
  188MOL0     C24698   5.005   2.120   2.283 -0.8998 -0.7567  0.0875
  188MOL0     C24699   4.894   2.203   2.355 -0.0105 -0.0159  0.2263
  188MOL0     C24700   4.763   2.123   2.318 -0.6965  0.0501 -0.4735
  188MOL0     N24701   4.661   2.184   2.400  0.8815 -0.3494 -0.0491
  188MOL0     C24702   4.598   2.125   2.504 -0.1413  0.6623 -0.4179
  188MOL0     C24703   4.486   2.193   2.530 -0.6571 -0.4501  0.5715
  188MOL0     C24704   4.389   2.167   2.638  0.1425  0.1003 -0.7844
  188MOL0     C24705   4.289   2.056   2.599 -0.0441  0.1639 -0.6540
  188MOL0     C24706   4.168   2.114   2.526  0.2827 -0.4271  0.1842
  188MOL0     C24707   4.056   2.005   2.516  0.1090  0.0738 -0.2126
  188MOL0     O24708   3.967   2.010   2.630 -0.1138  0.2377 -0.1868
  188MOL0     C24709   3.841   2.049   2.608 -1.2192  0.0256  0.1627
  188MOL0     C24710   3.788   2.153   2.686  0.0729 -0.0108 -0.5452
  188MOL0     C24711   3.657   2.199   2.675  0.0136  0.1792  1.0858
  188MOL0     C24712   3.578   2.152   2.571  0.0280 -0.9572 -0.8191
  188MOL0     C24713   3.436   2.188   2.574  0.2893  0.1998  1.3924
  188MOL0     O24714   3.394   2.277   2.666  0.6142 -0.2244  0.0461
  188MOL0     C24715   3.258   2.288   2.677 -0.1119 -0.1942 -0.4428
  188MOL0     C24716   3.198   2.402   2.632  0.0206 -1.0472 -0.0932
  188MOL0     C24717   3.060   2.434   2.636  0.2365  0.1614  0.5291
  188MOL0     C24718   2.978   2.343   2.711 -0.0026 -0.1923 -0.0772
  188MOL0     O24719   2.850   2.362   2.759 -0.0173 -0.5521  0.7318
  188MOL0     C24720   2.797   2.495   2.749 -0.8843 -0.4229 -0.0216
  188MOL0     C24721   2.659   2.503   2.816 -0.2572  1.1263 -0.5136
  188MOL0     C24722   2.678   2.482   2.972 -0.3064 -0.3924  0.8354
  188MOL0     C24723   2.542   2.440   3.039 -0.0727 -0.1498  0.0456
  188MOL0     C24724   2.565   2.420   3.194 -0.0137  0.0077 -0.5542
  188MOL0     C24725   2.433   2.437   3.267  0.0152  0.5497  0.2676
  188MOL0     C24726   2.452   2.416   3.414 -0.4759  1.2792  0.2410
  188MOL0     C24727   2.347   2.488   3.498 -0.4893 -0.6516  0.0678
  188MOL0    Cl24728   2.189   2.405   3.494 -0.3072  0.0960  0.0247
  188MOL0     C24729   3.034   2.220   2.742 -0.3750  0.1012  0.0983
  188MOL0     C24730   3.174   2.188   2.728 -0.1382 -0.7570  0.5921
  188MOL0     O24731   3.366   2.123   2.498  0.1795 -0.7698  0.2115
  188MOL0     C24732   3.634   2.066   2.477 -0.0466  0.2526 -1.0906
  188MOL0     C24733   3.768   2.012   2.491 -0.3606 -0.0257 -0.0208
  188MOL0     N24734   4.479   2.302   2.443 -0.1320  0.2452 -0.1442
  188MOL0     N24735   4.577   2.291   2.364 -0.2232  0.1559  0.4523
  188MOL0     C24736   5.909   2.102   2.099 -0.4379  0.4617 -0.7546
  188MOL0     C24737   6.048   2.119   2.082  0.2866  1.0339  0.6459
  188MOL0     C24738   6.489   2.030   2.066 -0.6369 -0.9069  1.4545
  188MOL0     C24739   6.525   2.154   2.111 -0.3547 -0.3088 -0.0934
  188MOL0     C24740   6.669   2.184   2.107 -0.4011  0.4220  0.0893
  188MOL0     C24741   6.766   2.080   2.088 -0.3339  0.4363 -0.0587
  188MOL0     O24742   6.890   2.118   2.112  0.9620 -0.5948  0.1070
  188MOL0     C24743   6.994   2.020   2.093 -0.4987 -1.0239 -0.4761
  188MOL0     C24744   7.130   2.081   2.155 -0.6718 -0.0159 -0.3337
  188MOL0     C24745   7.179   2.038   2.298 -0.1489 -0.3755 -0.5233
  188MOL0     C24746   7.323   2.083   2.330  0.0473  0.4423  0.5386
  188MOL0     C24747   7.429   2.013   2.256 -0.0083 -0.2046  0.1542
  188MOL0     C24748   7.518   1.951   2.198  0.0423  0.3850  1.1696
  188MOL0     C24749   6.721   1.956   2.042  0.0910  0.9725  0.5789
  188MOL0     C24750   6.582   1.933   2.027  0.1552  0.9661 -0.2569
  188MOL0     H24751   6.187   1.907   2.289  1.2897  2.7614 -0.8273
  188MOL0     H24752   5.947   1.843   2.322 -0.7734 -0.4257 -0.7610
  188MOL0     H24753   5.615   2.084   2.076  0.1150 -0.8837  0.5914
  188MOL0     H24754   5.660   2.181   2.228  2.7309 -1.1634  0.7423
  188MOL0     H24755   5.510   2.045   2.362  3.1319  4.1239  0.2860
  188MOL0     H24756   5.473   1.948   2.214  0.0559  0.6064 -1.0966
  188MOL0     H24757   5.399   2.194   2.130 -2.7300 -2.1877 -1.6543
  188MOL0     H24758   5.392   2.240   2.300 -2.2277  0.7790 -0.3936
  188MOL0     H24759   5.213   2.057   2.145 -1.0805 -0.8120 -0.1596
  188MOL0     H24760   5.261   1.998   2.309 -1.7764 -0.0580 -0.8853
  188MOL0     H24761   5.155   2.277   2.296  2.9142 -0.0215  1.7563
  188MOL0     H24762   5.148   2.160   2.430 -3.1558  0.7445  0.4665
  188MOL0     H24763   4.991   2.018   2.321  0.7164 -0.0598  2.8606
  188MOL0     H24764   4.994   2.136   2.176 -0.5960  0.6471  0.2581
  188MOL0     H24765   4.908   2.187   2.462 -2.9782 -3.5020  0.2968
  188MOL0     H24766   4.896   2.308   2.324 -1.0075  0.6206  2.1507
  188MOL0     H24767   4.772   2.017   2.347 -2.2055  0.5071  1.9510
  188MOL0     H24768   4.741   2.128   2.211 -3.3315 -0.2070 -0.0079
  188MOL0     H24769   4.632   2.035   2.554 -0.3299 -0.2598 -1.8664
  188MOL0     H24770   4.340   2.251   2.688  0.3954 -1.6830  2.7465
  188MOL0     H24771   4.460   2.142   2.717 -1.1932 -0.1801  0.3560
  188MOL0     H24772   4.240   2.000   2.680 -1.0802  0.5344 -1.0074
  188MOL0     H24773   4.342   1.984   2.536 -0.3331 -2.2586  1.6839
  188MOL0     H24774   4.131   2.201   2.580 -0.2424  2.1311 -3.8853
  188MOL0     H24775   4.196   2.148   2.426 -0.4158  0.3116  0.2327
  188MOL0     H24776   4.116   1.914   2.524  1.7051  1.1913  1.5083
  188MOL0     H24777   4.004   2.005   2.419  2.0399  2.2123 -1.3512
  188MOL0     H24778   3.839   2.209   2.764 -1.1305 -3.4367  3.0327
  188MOL0     H24779   3.621   2.264   2.755 -2.2515 -0.5176  0.7152
  188MOL0     H24780   3.265   2.484   2.607  0.4200 -1.5433 -0.7016
  188MOL0     H24781   3.019   2.531   2.608 -1.7155 -0.5090  0.9247
  188MOL0     H24782   2.789   2.528   2.645 -0.3108 -0.1935  0.0058
  188MOL0     H24783   2.860   2.563   2.807  1.9515 -0.0238 -3.3045
  188MOL0     H24784   2.590   2.427   2.782  1.9324 -1.3293  0.1830
  188MOL0     H24785   2.617   2.597   2.779 -3.3508 -0.7118 -2.0333
  188MOL0     H24786   2.732   2.571   3.008  0.5224 -0.9424  0.9650
  188MOL0     H24787   2.733   2.388   2.980 -1.8402 -1.2426  1.9821
  188MOL0     H24788   2.476   2.525   3.020  0.2879 -0.1585 -1.3463
  188MOL0     H24789   2.502   2.352   2.988 -1.6503 -0.3049  1.4699
  188MOL0     H24790   2.629   2.499   3.234 -0.4172  0.4328 -0.7282
  188MOL0     H24791   2.620   2.329   3.218  0.9313  1.3693  2.9918
  188MOL0     H24792   2.367   2.360   3.224  0.9768  0.3887 -0.9921
  188MOL0     H24793   2.380   2.529   3.240 -2.2709 -1.1276 -1.4276
  188MOL0     H24794   2.451   2.312   3.445 -2.1085  1.1986  0.0379
  188MOL0     H24795   2.552   2.449   3.445  0.0419 -1.7958  2.2081
  188MOL0     H24796   2.321   2.587   3.457 -0.1781  0.2408  1.9282
  188MOL0     H24797   2.380   2.498   3.601  3.8645 -0.3739 -1.1669
  188MOL0     H24798   2.970   2.148   2.792  0.7922  0.8793  2.9469
  188MOL0     H24799   3.213   2.087   2.740  1.6605 -0.4875 -2.1829
  188MOL0     H24800   3.565   2.037   2.399 -3.8230  0.2289  1.9127
  188MOL0     H24801   3.797   1.929   2.428  0.3521 -1.2230  1.7915
  188MOL0     H24802   5.835   2.157   2.041  0.1158  0.3477 -1.5826
  188MOL0     H24803   6.089   2.198   2.020  1.7326  0.9886  1.5082
  188MOL0     H24804   6.452   2.234   2.118 -0.5363 -0.5116  0.3106
  188MOL0     H24805   6.700   2.283   2.141 -3.4819  0.8641  1.9646
  188MOL0     H24806   7.001   1.999   1.986 -0.9847 -3.7316 -0.0602
  188MOL0     H24807   6.977   1.928   2.151  1.6489 -0.3376  1.3994
  188MOL0     H24808   7.209   2.066   2.080 -0.8808  2.6260 -1.1971
  188MOL0     H24809   7.114   2.188   2.170 -1.6524 -0.3599  1.3156
  188MOL0     H24810   7.168   1.929   2.300 -0.8281 -0.3340 -1.4528
  188MOL0     H24811   7.118   2.079   2.379 -0.9212  0.7070 -1.6214
  188MOL0     H24812   7.338   2.189   2.306  3.0302  0.2090  0.9322
  188MOL0     H24813   7.338   2.063   2.437  0.5564 -1.9956  0.0715
  188MOL0     H24814   7.608   1.902   2.168  0.8877  2.6609 -0.1703
  188MOL0     H24815   6.776   1.866   2.019 -2.1934 -0.1573 -0.8558
  188MOL0     H24816   6.562   1.828   2.010  3.9456 -0.0360  0.5151
  189MOL0     O24817   7.422   8.201   6.792 -0.2138  0.3535 -0.2980
  189MOL0     C24818   7.434   8.296   6.713  0.1302 -0.0774 -0.5046
  189MOL0     O24819   7.326   8.357   6.655  0.1974 -0.3603 -0.1987
  189MOL0     C24820   7.205   8.316   6.702 -0.1987  0.1972  0.0643
  189MOL0     C24821   7.134   8.217   6.630  0.5414 -0.6518  0.0410
  189MOL0     C24822   7.002   8.189   6.682 -0.1290  0.1192 -0.0754
  189MOL0     C24823   6.950   8.244   6.802  0.2116 -0.0550 -0.8064
  189MOL0     O24824   6.823   8.228   6.861  0.8584  0.4075  0.4386
  189MOL0     C24825   6.725   8.136   6.801  0.5215 -0.0635 -0.3302
  189MOL0     C24826   6.581   8.148   6.873 -1.4601  0.4916  0.0851
  189MOL0     C24827   6.602   8.136   7.027  0.5609  0.1491  1.1195
  189MOL0     C24828   6.607   8.269   7.109 -0.8679  0.0746  0.7508
  189MOL0     C24829   6.468   8.300   7.165 -0.4443 -0.4723  0.3086
  189MOL0     C24830   6.474   8.397   7.280  0.4291 -0.5232 -0.3788
  189MOL0     C24831   6.329   8.435   7.326 -0.1101  0.3762 -0.1507
  189MOL0     C24832   6.247   8.336   7.413  0.0713 -0.2578  0.2038
  189MOL0     N24833   6.103   8.376   7.430  0.4050  0.2532  0.2198
  189MOL0     C24834   6.056   8.500   7.472  0.2655  0.2113  0.1645
  189MOL0     C24835   5.919   8.491   7.456  0.5197 -0.3504  0.0484
  189MOL0     C24836   5.816   8.601   7.469 -0.3426 -0.0685  0.1815
  189MOL0     C24837   5.869   8.730   7.536 -0.8968 -0.1602 -0.1331
  189MOL0     C24838   5.768   8.849   7.552 -0.7187  0.6111 -0.3097
  189MOL0     C24839   5.722   8.900   7.414  0.2458  0.5248 -0.3044
  189MOL0     O24840   5.657   9.025   7.454 -0.8375  0.0231  0.9755
  189MOL0     C24841   5.525   9.035   7.490  0.0765 -0.1145 -0.8320
  189MOL0     C24842   5.425   8.973   7.415  0.2987 -0.1048  0.4216
  189MOL0     C24843   5.294   8.997   7.446  0.1245 -0.2722  0.4088
  189MOL0     C24844   5.251   9.075   7.552 -0.6856  0.3007 -0.4617
  189MOL0     C24845   5.117   9.104   7.574  0.5185 -0.7655  0.3130
  189MOL0     O24846   5.089   9.192   7.675 -0.2497 -0.6885  0.7956
  189MOL0     C24847   4.959   9.240   7.704 -0.0314 -0.4979  0.8286
  189MOL0     C24848   4.943   9.301   7.827 -0.8444 -1.1150 -0.0279
  189MOL0     C24849   4.817   9.362   7.865  0.1062 -0.5602  0.9136
  189MOL0     C24850   4.712   9.373   7.773 -0.7776  0.3439 -0.8452
  189MOL0     O24851   4.604   9.445   7.813  0.5875  0.3227 -0.4393
  189MOL0     C24852   4.508   9.469   7.713 -0.7501 -0.9423  0.0791
  189MOL0     C24853   4.406   9.565   7.764  0.0910 -0.3854  0.0166
  189MOL0     C24854   4.443   9.709   7.727 -0.8612 -0.3320 -1.0033
  189MOL0     C24855   4.321   9.805   7.736 -0.1880  0.3645  0.3022
  189MOL0     C24856   4.206   9.774   7.644  0.5700  0.4432 -0.3864
  189MOL0     C24857   4.086   9.874   7.651 -0.1482 -0.5288  0.3432
  189MOL0     C24858   4.114  10.023   7.614 -0.0469  1.4044  0.6459
  189MOL0     C24859   3.991  10.104   7.587 -0.9215 -0.4261  1.2420
  189MOL0    Cl24860   3.885  10.031   7.473  0.2322 -0.2915 -0.1000
  189MOL0     C24861   4.729   9.315   7.649 -0.0596 -0.3228  0.4377
  189MOL0     C24862   4.841   9.238   7.618 -0.7920  0.2306 -0.0764
  189MOL0     O24863   5.036   9.055   7.498  0.5929  0.0046 -0.8615
  189MOL0     C24864   5.352   9.132   7.637 -0.5016  0.3564 -0.2698
  189MOL0     C24865   5.486   9.121   7.595  0.1811 -0.1367  0.0329
  189MOL0     N24866   5.887   8.362   7.425 -0.3957  0.3713 -1.0500
  189MOL0     N24867   5.990   8.292   7.411 -0.7764 -0.4254  0.4999
  189MOL0     C24868   7.032   8.328   6.879  0.2237  0.7507  0.4019
  189MOL0     C24869   7.154   8.366   6.822 -0.2326  0.3794  0.1722
  189MOL0     C24870   7.564   8.348   6.675 -0.3644 -0.1164  0.4497
  189MOL0     C24871   7.681   8.266   6.692  0.4624 -0.4040 -0.0719
  189MOL0     C24872   7.807   8.324   6.672 -0.5388  0.3766 -0.0042
  189MOL0     C24873   7.832   8.457   6.641  0.0515 -0.0771  0.4592
  189MOL0     O24874   7.954   8.517   6.626  0.2564  0.2069 -0.0835
  189MOL0     C24875   8.074   8.451   6.674  0.1504 -0.4273  0.4315
  189MOL0     C24876   8.202   8.534   6.693 -0.1572  0.3099 -0.4345
  189MOL0     C24877   8.267   8.581   6.558  0.0959 -1.2766  0.5923
  189MOL0     C24878   8.405   8.629   6.574 -0.3020  0.7239 -1.1527
  189MOL0     C24879   8.457   8.737   6.484  0.6473 -0.7294 -0.3222
  189MOL0     C24880   8.508   8.836   6.431  0.6844  0.5854 -0.8595
  189MOL0     C24881   7.714   8.533   6.626 -0.3189 -0.4119  0.2797
  189MOL0     C24882   7.587   8.484   6.650 -0.1230  0.5856  0.0829
  189MOL0     H24883   7.159   8.193   6.528  0.3710  1.8748 -0.6697
  189MOL0     H24884   6.932   8.139   6.615 -0.9781  1.6861 -0.4047
  189MOL0     H24885   6.756   8.033   6.817 -1.4414 -0.3200  2.4366
  189MOL0     H24886   6.703   8.160   6.696 -0.3690 -1.6347 -0.5213
  189MOL0     H24887   6.522   8.062   6.841  0.8522 -1.8900  1.8586
  189MOL0     H24888   6.530   8.239   6.838 -4.4094 -0.0278  2.5548
  189MOL0     H24889   6.692   8.078   7.050  0.7543  0.0505  0.1707
  189MOL0     H24890   6.515   8.084   7.068  0.4349 -1.2767 -0.8189
  189MOL0     H24891   6.685   8.254   7.185  0.6430  1.6983 -0.3988
  189MOL0     H24892   6.639   8.351   7.045  1.8705 -1.9989 -0.8024
  189MOL0     H24893   6.417   8.211   7.204 -1.9731  0.6114  0.8448
  189MOL0     H24894   6.409   8.337   7.081 -1.6461 -2.9145 -0.0257
  189MOL0     H24895   6.511   8.493   7.244 -1.2537  0.2769 -0.0668
  189MOL0     H24896   6.538   8.361   7.361 -0.5315 -0.6252  0.3580
  189MOL0     H24897   6.317   8.530   7.378 -1.1178  1.5621 -2.4136
  189MOL0     H24898   6.274   8.458   7.234 -0.2627  0.7034  0.0215
  189MOL0     H24899   6.295   8.322   7.510  2.2072 -1.6206 -0.9718
  189MOL0     H24900   6.245   8.237   7.367 -0.8052 -0.7523  1.2800
  189MOL0     H24901   6.115   8.589   7.495 -0.2762  0.6415 -0.0743
  189MOL0     H24902   5.734   8.564   7.532  0.8005 -1.3805  0.9541
  189MOL0     H24903   5.791   8.610   7.363 -0.8462  0.2731  0.3246
  189MOL0     H24904   5.950   8.779   7.482  0.0786 -1.4497  0.1207
  189MOL0     H24905   5.920   8.694   7.626 -1.4448  1.2113  0.7489
  189MOL0     H24906   5.684   8.812   7.612  1.0858 -0.3485  1.7420
  189MOL0     H24907   5.817   8.925   7.614 -3.9832  4.0709 -1.5747
  189MOL0     H24908   5.660   8.826   7.362  0.4483  0.8875 -1.0766
  189MOL0     H24909   5.809   8.925   7.352  1.1283  1.6944  1.3409
  189MOL0     H24910   5.460   8.920   7.327 -0.0602  0.2838  0.0338
  189MOL0     H24911   5.221   8.961   7.374 -0.9680  1.3007  0.6845
  189MOL0     H24912   5.024   9.308   7.898 -1.4271 -1.2916  0.6698
  189MOL0     H24913   4.803   9.416   7.958  0.1922  0.5214  0.3110
  189MOL0     H24914   4.464   9.369   7.702  2.8041 -2.5884 -0.9083
  189MOL0     H24915   4.553   9.505   7.620 -0.9561  1.2612  0.7925
  189MOL0     H24916   4.384   9.557   7.871  0.2345  1.7076  0.2525
  189MOL0     H24917   4.316   9.538   7.707  2.5408 -0.5879 -4.1094
  189MOL0     H24918   4.483   9.707   7.625 -1.8620  1.8480 -1.5071
  189MOL0     H24919   4.517   9.741   7.800 -3.1564  0.8902  0.9590
  189MOL0     H24920   4.281   9.800   7.838  1.5026  0.2357  0.9963
  189MOL0     H24921   4.365   9.905   7.735  0.9034 -0.0791  1.5236
  189MOL0     H24922   4.168   9.675   7.674  2.6774 -0.3529 -0.2114
  189MOL0     H24923   4.240   9.769   7.540  0.4282 -1.2438 -0.3827
  189MOL0     H24924   4.051   9.871   7.754 -2.0276  1.5239 -0.1728
  189MOL0     H24925   3.999   9.839   7.594 -1.9841 -2.3053  3.9155
  189MOL0     H24926   4.172  10.069   7.695  1.2589  1.2251 -0.1466
  189MOL0     H24927   4.176  10.025   7.524 -1.0781  0.6796 -0.0949
  189MOL0     H24928   4.024  10.201   7.550  2.1328 -1.1716  1.7996
  189MOL0     H24929   3.937  10.118   7.681 -1.2702 -1.1397  1.1601
  189MOL0     H24930   4.662   9.329   7.565  0.2250  2.7330  0.6180
  189MOL0     H24931   4.840   9.189   7.521 -0.1067 -1.0729  0.5464
  189MOL0     H24932   5.331   9.211   7.708  2.5706  2.9733 -2.0359
  189MOL0     H24933   5.560   9.179   7.649 -1.2775 -2.3987  5.0945
  189MOL0     H24934   6.996   8.369   6.973 -0.1956  1.8152 -0.2064
  189MOL0     H24935   7.209   8.442   6.878 -1.3814  1.5241 -0.1983
  189MOL0     H24936   7.681   8.160   6.719  2.3003 -0.9850 -2.0440
  189MOL0     H24937   7.898   8.264   6.671  1.9583  3.8712 -0.7316
  189MOL0     H24938   8.092   8.360   6.616  0.2595 -1.3054  1.7882
  189MOL0     H24939   8.050   8.413   6.774 -0.7396  0.6816  0.6650
  189MOL0     H24940   8.181   8.617   6.761 -2.3891 -0.1246 -0.5272
  189MOL0     H24941   8.273   8.463   6.735  0.4940  0.2891 -1.5138
  189MOL0     H24942   8.210   8.661   6.508  4.4018  0.3291 -2.4538
  189MOL0     H24943   8.262   8.511   6.474 -1.9285 -0.0540 -0.4076
  189MOL0     H24944   8.420   8.658   6.679  0.0882 -1.7946 -0.4343
  189MOL0     H24945   8.470   8.543   6.556 -2.0087 -0.9301  0.0858
  189MOL0     H24946   8.558   8.907   6.367  0.6187 -0.9996 -2.7858
  189MOL0     H24947   7.725   8.634   6.589 -0.8766 -1.3385 -2.6887
  189MOL0     H24948   7.506   8.557   6.651 -0.6203  0.0609  1.6800
  190MOL0     O24949   5.639   6.857   5.445 -0.6832 -0.2483 -0.7129
  190MOL0     C24950   5.699   6.832   5.550  0.9069 -0.1489 -0.0363
  190MOL0     O24951   5.651   6.865   5.679  0.2669  0.5918  0.5524
  190MOL0     C24952   5.529   6.926   5.702  0.0055 -0.8008  0.2380
  190MOL0     C24953   5.449   6.998   5.608  0.4709  0.0793 -0.1324
  190MOL0     C24954   5.333   7.058   5.645  0.1538 -1.4144  0.1516
  190MOL0     C24955   5.294   7.064   5.780  0.4458  0.1391 -0.4915
  190MOL0     O24956   5.186   7.141   5.809  0.0906  0.6202 -0.2630
  190MOL0     C24957   5.059   7.096   5.757  0.2102  0.7086  0.2331
  190MOL0     C24958   4.956   7.071   5.858  0.3121 -0.3241  0.0250
  190MOL0     C24959   4.884   7.200   5.906 -0.4139 -0.2635 -0.4744
  190MOL0     C24960   4.851   7.195   6.058  0.3032 -0.0751 -0.2708
  190MOL0     C24961   4.726   7.284   6.093 -0.4463 -0.4050 -0.1858
  190MOL0     C24962   4.742   7.331   6.235 -0.1938  0.0425  0.1171
  190MOL0     C24963   4.630   7.423   6.286  0.2197 -0.4922 -0.2001
  190MOL0     C24964   4.663   7.508   6.408  0.4420 -0.6741 -0.2743
  190MOL0     N24965   4.648   7.440   6.533 -0.6369 -0.0086 -0.1800
  190MOL0     C24966   4.528   7.415   6.590 -0.4160 -1.0982  0.7392
  190MOL0     C24967   4.562   7.351   6.703  0.2560 -0.7263  0.6286
  190MOL0     C24968   4.475   7.284   6.802  0.3238  0.4117 -0.1232
  190MOL0     C24969   4.336   7.232   6.746 -0.0068 -0.3778  0.3814
  190MOL0     C24970   4.258   7.173   6.868  0.3000 -0.6516 -0.2543
  190MOL0     C24971   4.308   7.029   6.905  0.4229 -0.6783  0.8761
  190MOL0     O24972   4.252   6.985   7.027 -0.5612  0.1434  0.1805
  190MOL0     C24973   4.133   6.919   7.038  0.7500  1.2979  0.5880
  190MOL0     C24974   4.038   6.907   6.938  0.5819 -0.8147  0.5368
  190MOL0     C24975   3.917   6.840   6.954 -0.2378 -0.2020  0.4481
  190MOL0     C24976   3.881   6.791   7.080 -0.1815 -0.5553  0.4001
  190MOL0     C24977   3.758   6.719   7.107 -0.7963 -0.7703 -0.4538
  190MOL0     O24978   3.685   6.701   6.991 -0.1354  0.1989 -0.3351
  190MOL0     C24979   3.562   6.633   7.014 -0.9522 -0.6343 -0.7122
  190MOL0     C24980   3.560   6.494   6.997 -0.8136 -0.2346 -0.6293
  190MOL0     C24981   3.444   6.418   7.008 -0.6342  0.7872  0.9353
  190MOL0     C24982   3.322   6.482   7.045  0.4449 -0.0347 -0.2664
  190MOL0     O24983   3.207   6.409   7.062  0.2522  0.1802  0.4869
  190MOL0     C24984   3.084   6.458   7.114 -0.6406 -0.5435 -0.3107
  190MOL0     C24985   3.005   6.335   7.169 -0.2403 -0.3408  0.1417
  190MOL0     C24986   2.868   6.386   7.216  0.3890  0.3609 -0.2571
  190MOL0     C24987   2.813   6.283   7.311 -0.2436 -0.2901  0.0847
  190MOL0     C24988   2.685   6.330   7.376 -0.0438 -1.0440 -0.6947
  190MOL0     C24989   2.610   6.232   7.455  0.0011  0.2151 -0.4273
  190MOL0     C24990   2.477   6.293   7.510 -0.2076 -0.7350 -0.1729
  190MOL0     C24991   2.402   6.170   7.554  0.4738 -0.1537 -0.1414
  190MOL0    Cl24992   2.240   6.229   7.559 -0.3864 -0.0487 -0.0542
  190MOL0     C24993   3.319   6.622   7.073 -0.4588  0.2229  0.3788
  190MOL0     C24994   3.437   6.697   7.053  0.0030 -0.2127  0.0148
  190MOL0     O24995   3.725   6.700   7.219  0.9355 -1.0565  0.1464
  190MOL0     C24996   3.980   6.795   7.179 -0.1299 -0.1692 -0.1405
  190MOL0     C24997   4.102   6.863   7.160  0.9943  0.7949  0.5197
  190MOL0     N24998   4.696   7.351   6.723 -0.4342  0.6997  0.7085
  190MOL0     N24999   4.752   7.413   6.616 -0.3620 -0.3017 -0.7261
  190MOL0     C25000   5.362   6.985   5.872  0.9240 -0.1291  0.5710
  190MOL0     C25001   5.487   6.927   5.835 -0.1355  0.7968  0.9677
  190MOL0     C25002   5.821   6.742   5.539 -0.8855  0.5757 -0.2838
  190MOL0     C25003   5.855   6.684   5.421 -0.2022 -0.4388 -0.3859
  190MOL0     C25004   5.981   6.612   5.409  0.2996 -0.0158  0.0426
  190MOL0     C25005   6.066   6.589   5.517  0.5692  0.0068  0.0730
  190MOL0     O25006   6.186   6.518   5.498 -0.1377  0.5464 -0.4808
  190MOL0     C25007   6.235   6.477   5.364 -0.5617 -0.2166  0.6581
  190MOL0     C25008   6.380   6.424   5.360  0.2453 -0.4862  0.1555
  190MOL0     C25009   6.423   6.388   5.215 -1.2916  0.3392 -0.1967
  190MOL0     C25010   6.552   6.302   5.221  1.3168 -0.1371 -0.0536
  190MOL0     C25011   6.596   6.272   5.086 -0.8918 -0.7600  0.3648
  190MOL0     C25012   6.594   6.267   4.965 -0.4650 -0.6937  0.0040
  190MOL0     C25013   6.034   6.642   5.642 -1.3194  0.3259 -0.0892
  190MOL0     C25014   5.905   6.720   5.649 -0.9336 -0.1641  0.3981
  190MOL0     H25015   5.462   7.009   5.501 -3.1408 -1.6389 -0.9093
  190MOL0     H25016   5.264   7.101   5.572 -2.2250 -2.3044  1.7280
  190MOL0     H25017   5.065   7.012   5.687  0.0553  1.9135 -1.2835
  190MOL0     H25018   5.021   7.178   5.696 -1.1454  1.9198  2.5488
  190MOL0     H25019   5.000   7.026   5.947  0.4242 -1.1167 -0.4220
  190MOL0     H25020   4.876   7.004   5.828  1.6275 -0.5555 -3.5245
  190MOL0     H25021   4.792   7.205   5.847  1.5481  0.1472 -3.7800
  190MOL0     H25022   4.937   7.294   5.890 -0.8101 -0.4071 -2.9928
  190MOL0     H25023   4.834   7.096   6.103  1.0248  1.4519  3.8233
  190MOL0     H25024   4.930   7.238   6.120 -1.4212  1.6857  0.8034
  190MOL0     H25025   4.634   7.229   6.074 -0.9446  0.9112 -1.7430
  190MOL0     H25026   4.725   7.363   6.018  0.5491  0.1552  0.3720
  190MOL0     H25027   4.834   7.390   6.239 -1.7373  2.5593  1.1988
  190MOL0     H25028   4.752   7.239   6.295  1.4737 -0.5354 -0.9652
  190MOL0     H25029   4.586   7.491   6.212 -0.3285  1.8731  2.1400
  190MOL0     H25030   4.550   7.358   6.323 -0.4558 -0.1304 -0.9816
  190MOL0     H25031   4.603   7.599   6.412  1.5916  0.1114 -0.4995
  190MOL0     H25032   4.768   7.538   6.408  0.4361 -0.4895  1.5801
  190MOL0     H25033   4.432   7.431   6.542  0.4011  1.3467 -0.2327
  190MOL0     H25034   4.458   7.360   6.879  0.1914  0.2565  0.0013
  190MOL0     H25035   4.531   7.204   6.850  0.5396  1.4663  1.4524
  190MOL0     H25036   4.363   7.160   6.668  2.0382  1.4754 -0.7368
  190MOL0     H25037   4.280   7.313   6.696  0.4786 -1.3960 -1.9473
  190MOL0     H25038   4.276   7.234   6.958  1.2061 -0.8456 -0.2934
  190MOL0     H25039   4.150   7.177   6.850  0.3815 -1.7582 -1.0606
  190MOL0     H25040   4.417   7.026   6.907  0.4521  0.2562  1.5598
  190MOL0     H25041   4.281   6.956   6.828 -2.9179  1.7971 -0.5780
  190MOL0     H25042   4.065   6.945   6.840  1.8935  1.0584  1.5625
  190MOL0     H25043   3.859   6.834   6.863 -0.6489  3.9637  0.2725
  190MOL0     H25044   3.650   6.439   6.973 -0.9412 -0.1855 -1.2374
  190MOL0     H25045   3.446   6.310   6.993  3.3435  0.8848 -0.2659
  190MOL0     H25046   3.025   6.508   7.037  1.5705  0.7882 -1.2364
  190MOL0     H25047   3.106   6.525   7.198 -0.1810 -2.9231  1.5527
  190MOL0     H25048   3.064   6.275   7.238  0.5038 -0.1454 -0.3056
  190MOL0     H25049   2.987   6.270   7.083  0.8107 -0.1834 -0.2091
  190MOL0     H25050   2.804   6.408   7.130  0.9332  1.6745 -0.3458
  190MOL0     H25051   2.886   6.478   7.273 -0.1383 -1.0611  2.3447
  190MOL0     H25052   2.800   6.187   7.259 -0.6889 -0.1407 -0.0848
  190MOL0     H25053   2.884   6.278   7.394 -1.3754  1.4988  1.2329
  190MOL0     H25054   2.613   6.371   7.306 -1.2345  1.3191  1.7069
  190MOL0     H25055   2.707   6.409   7.449 -0.3630 -2.3329  0.8691
  190MOL0     H25056   2.678   6.202   7.535  1.1915 -0.9955 -1.8307
  190MOL0     H25057   2.589   6.150   7.386 -0.8964 -0.2517  0.3629
  190MOL0     H25058   2.490   6.370   7.586  0.1024 -0.1293 -0.8266
  190MOL0     H25059   2.418   6.343   7.432 -0.4023 -1.7831 -0.7290
  190MOL0     H25060   2.423   6.139   7.657 -2.3361 -1.0207  0.2606
  190MOL0     H25061   2.412   6.094   7.477 -0.1015 -0.2792 -0.0976
  190MOL0     H25062   3.225   6.668   7.103  0.5257  1.5977  1.5104
  190MOL0     H25063   3.434   6.805   7.070  0.6591 -0.1694 -0.1100
  190MOL0     H25064   3.964   6.749   7.275  3.1892 -0.8203  0.2157
  190MOL0     H25065   4.168   6.867   7.247  0.0888  2.4180  1.1563
  190MOL0     H25066   5.342   7.000   5.978 -0.4845  1.6871  0.1006
  190MOL0     H25067   5.540   6.870   5.910  0.4316 -0.4002 -0.3067
  190MOL0     H25068   5.791   6.678   5.333 -0.7139 -2.8027  0.0685
  190MOL0     H25069   6.013   6.584   5.309 -0.4461 -0.5022 -0.0718
  190MOL0     H25070   6.225   6.557   5.290  0.8680 -2.0549 -1.6856
  190MOL0     H25071   6.177   6.393   5.325  0.7439 -0.4206 -0.9572
  190MOL0     H25072   6.439   6.508   5.397  0.5781 -0.6152 -0.0760
  190MOL0     H25073   6.379   6.337   5.426  1.0074 -1.1239 -0.6582
  190MOL0     H25074   6.445   6.479   5.159  1.3543 -0.4252 -0.5330
  190MOL0     H25075   6.346   6.327   5.168 -3.3555  2.7811 -0.2134
  190MOL0     H25076   6.639   6.343   5.274  1.4763 -1.6864  0.9450
  190MOL0     H25077   6.521   6.216   5.281 -2.5823  2.0838  1.5630
  190MOL0     H25078   6.596   6.243   4.860 -0.0357  2.5215 -0.8383
  190MOL0     H25079   6.105   6.639   5.724 -0.5254  1.1007 -0.7152
  190MOL0     H25080   5.873   6.761   5.744  2.0446 -2.2906  2.5271
  191MOL0     O25081   3.873  10.872  10.313 -0.3877  0.1674 -0.3284
  191MOL0     C25082   3.899  10.875  10.191  0.3711 -0.6002 -0.6766
  191MOL0     O25083   3.804  10.871  10.094 -0.7873  0.4539  0.0167
  191MOL0     C25084   3.678  10.844  10.118  0.6500 -0.5882  0.0539
  191MOL0     C25085   3.633  10.757  10.214 -0.1007  0.4077 -0.4364
  191MOL0     C25086   3.499  10.710  10.229 -0.8235 -0.8728 -0.7719
  191MOL0     C25087   3.408  10.756  10.138  0.6344  0.5891 -0.5128
  191MOL0     O25088   3.276  10.716  10.148  0.7961 -0.1040 -0.9395
  191MOL0     C25089   3.257  10.573  10.157  0.2391  0.8484  0.5086
  191MOL0     C25090   3.106  10.543  10.140 -0.5987 -0.0289 -0.0313
  191MOL0     C25091   3.008  10.637  10.215  1.0124 -0.2643  0.8792
  191MOL0     C25092   3.005  10.596  10.359  0.7377  0.2579 -0.0941
  191MOL0     C25093   2.923  10.695  10.446  0.1765 -0.2535  0.3806
  191MOL0     C25094   2.944  10.679  10.595 -0.6942 -0.0478 -0.3052
  191MOL0     C25095   2.920  10.536  10.645  0.4819 -0.8565 -0.1056
  191MOL0     C25096   2.777  10.480  10.618  0.4585 -0.1783  0.0632
  191MOL0     N25097   2.677  10.540  10.713 -1.6366  0.1116 -0.2988
  191MOL0     C25098   2.678  10.561  10.856  0.1189  0.6689  0.9598
  191MOL0     C25099   2.549  10.601  10.880  0.3636 -0.7897  0.1337
  191MOL0     C25100   2.503  10.664  11.008  0.5088 -0.1368 -0.4889
  191MOL0     C25101   2.353  10.661  11.032 -0.4472 -0.3318 -0.6419
  191MOL0     C25102   2.313  10.760  11.139  0.0370  0.5174 -0.1576
  191MOL0     C25103   2.163  10.778  11.151  0.4540 -0.0588 -0.0536
  191MOL0     O25104   2.105  10.872  11.242 -0.6797  0.6538  0.1578
  191MOL0     C25105   1.976  10.851  11.292 -0.0224  0.1080  0.1156
  191MOL0     C25106   1.940  10.951  11.385 -0.1112 -0.1897  0.6613
  191MOL0     C25107   1.810  10.949  11.437 -0.1166  0.4046  1.6139
  191MOL0     C25108   1.712  10.862  11.387 -0.0496  0.0067 -0.8331
  191MOL0     C25109   1.580  10.863  11.447  0.3513 -0.1413  0.1417
  191MOL0     O25110   1.565  10.939  11.555 -0.5061  0.4222 -0.2457
  191MOL0     C25111   1.446  10.937  11.635 -0.2899  0.2785  0.5903
  191MOL0     C25112   1.352  10.832  11.633  0.0272 -0.1990  0.5677
  191MOL0     C25113   1.250  10.842  11.717  0.4085 -0.1969  0.0411
  191MOL0     C25114   1.223  10.943  11.802  0.1333  0.3703 -0.3489
  191MOL0     O25115   1.116  10.927  11.890 -0.1227  0.1123 -0.1343
  191MOL0     C25116   1.076  11.028  11.980  0.7685 -0.1591 -0.1828
  191MOL0     C25117   0.928  11.011  12.005 -0.1718 -0.2978 -0.4909
  191MOL0     C25118   0.891  11.101  12.131  0.3467 -0.1366  0.3544
  191MOL0     C25119   0.745  11.079  12.176  0.9977  0.0169  0.6935
  191MOL0     C25120   0.725  10.929  12.202 -0.4204  0.1622 -0.1305
  191MOL0     C25121   0.613  10.908  12.300 -0.6412  0.2395 -0.9196
  191MOL0     C25122   0.574  10.763  12.316 -0.2360  0.2234 -0.1033
  191MOL0     C25123   0.426  10.773  12.375 -0.4180  0.6188 -1.3512
  191MOL0    Cl25124   0.382  10.603  12.419  0.5743 -0.1390  0.5268
  191MOL0     C25125   1.315  11.049  11.805  0.6055  0.0730  0.1450
  191MOL0     C25126   1.431  11.038  11.729 -0.8949 -0.5243 -0.7870
  191MOL0     O25127   1.494  10.803  11.380  0.6817 -0.0924  0.4569
  191MOL0     C25128   1.755  10.760  11.299  0.0319 -0.3958  0.0427
  191MOL0     C25129   1.889  10.753  11.259  0.6285  0.0549 -0.9098
  191MOL0     N25130   2.471  10.593  10.764  0.6031  0.2828 -0.1196
  191MOL0     N25131   2.551  10.559  10.672  0.4640 -0.2300  0.0851
  191MOL0     C25132   3.450  10.839  10.032  0.0488  1.4309  0.1498
  191MOL0     C25133   3.590  10.885  10.023  0.1439 -0.0568  0.4167
  191MOL0     C25134   4.044  10.879  10.139 -0.2283 -0.6069 -1.0168
  191MOL0     C25135   4.158  10.861  10.220 -0.0333  0.0220 -0.4012
  191MOL0     C25136   4.296  10.866  10.161 -0.0842 -0.2576  0.4599
  191MOL0     C25137   4.312  10.890  10.024 -0.6266 -0.0951  0.1006
  191MOL0     O25138   4.434  10.876   9.956  0.2458 -0.2531 -0.6378
  191MOL0     C25139   4.448  10.895   9.816 -0.2380 -0.7661 -0.2718
  191MOL0     C25140   4.579  10.837   9.766 -0.0357  0.3526 -0.3300
  191MOL0     C25141   4.700  10.924   9.810  0.1002  0.6432 -0.8983
  191MOL0     C25142   4.823  10.869   9.744 -0.3955 -0.9067  0.2396
  191MOL0     C25143   4.934  10.971   9.748 -0.8253 -0.1440 -0.3337
  191MOL0     C25144   5.040  11.042   9.753 -0.3393 -0.5305 -0.4739
  191MOL0     C25145   4.196  10.912   9.949 -0.0133  0.9871  0.3775
  191MOL0     C25146   4.073  10.918  10.005  1.3479  0.4978  1.1748
  191MOL0     H25147   3.703  10.709  10.282  0.3517  3.7478  1.7052
  191MOL0     H25148   3.467  10.646  10.311 -1.6955  0.3656 -0.1202
  191MOL0     H25149   3.293  10.521  10.247 -1.0980  1.4630  1.4331
  191MOL0     H25150   3.314  10.524  10.077  1.1317 -0.1238  1.7022
  191MOL0     H25151   3.090  10.438  10.169 -0.8467 -0.1012 -0.4261
  191MOL0     H25152   3.087  10.537  10.033  0.7112  0.5051 -0.3170
  191MOL0     H25153   2.910  10.635  10.167  2.2341  0.3775 -1.8395
  191MOL0     H25154   3.043  10.740  10.204 -0.9546  0.5307  1.5314
  191MOL0     H25155   2.958  10.499  10.374 -0.7525  1.0948  1.0157
  191MOL0     H25156   3.106  10.603  10.399  0.8207 -1.1952 -0.0094
  191MOL0     H25157   2.822  10.666  10.414  1.2409 -1.7396 -1.9008
  191MOL0     H25158   2.940  10.801  10.422 -1.0740  0.2021  1.3945
  191MOL0     H25159   2.858  10.734  10.636  0.9604  1.7288  0.9688
  191MOL0     H25160   3.041  10.715  10.631  0.3535 -4.4770  1.9297
  191MOL0     H25161   2.999  10.472  10.606  0.4727 -0.0061 -1.5809
  191MOL0     H25162   2.928  10.523  10.753  1.7153  0.7674  0.0268
  191MOL0     H25163   2.785  10.372  10.631  1.3583 -0.5826 -3.0515
  191MOL0     H25164   2.753  10.504  10.514 -4.2314  0.9142  1.1724
  191MOL0     H25165   2.764  10.564  10.922  1.6926 -0.4765 -0.9406
  191MOL0     H25166   2.547  10.765  11.008  2.8765 -1.1072 -0.3300
  191MOL0     H25167   2.554  10.613  11.090  0.7080  0.0710 -0.4790
  191MOL0     H25168   2.329  10.564  11.077  0.0404  1.6127  4.3983
  191MOL0     H25169   2.296  10.675  10.940 -1.1297  0.0071 -0.1699
  191MOL0     H25170   2.348  10.717  11.233  2.8903  0.0293 -1.3165
  191MOL0     H25171   2.366  10.855  11.130  0.5707  0.3526  1.1188
  191MOL0     H25172   2.131  10.677  11.177  1.5220 -1.4370 -3.5423
  191MOL0     H25173   2.124  10.797  11.050 -2.1086 -0.5533  0.7704
  191MOL0     H25174   2.010  11.025  11.421  0.6258 -1.1453  1.2279
  191MOL0     H25175   1.787  11.026  11.510 -0.6432  0.2945  1.5722
  191MOL0     H25176   1.360  10.744  11.570 -0.4678 -1.5158  2.2861
  191MOL0     H25177   1.186  10.754  11.724  4.1709 -3.2718 -0.9410
  191MOL0     H25178   1.079  11.125  11.930 -1.4278  0.4243  0.6644
  191MOL0     H25179   1.129  11.025  12.075  0.9989  2.8655 -0.0988
  191MOL0     H25180   0.925  10.906  12.035  1.2768  0.1374  1.3554
  191MOL0     H25181   0.862  11.019  11.918 -0.5817 -0.1157 -0.1647
  191MOL0     H25182   0.906  11.210  12.126  0.7082 -0.0064  2.8756
  191MOL0     H25183   0.952  11.056  12.210 -0.1832 -3.0068 -0.7910
  191MOL0     H25184   0.709  11.126  12.268  0.8971  0.7896  0.2662
  191MOL0     H25185   0.684  11.118  12.094 -0.1215 -2.7116  0.1238
  191MOL0     H25186   0.810  10.874  12.243 -2.0264 -2.3422  0.0785
  191MOL0     H25187   0.708  10.884  12.104  0.4922  1.5692 -0.9670
  191MOL0     H25188   0.526  10.967  12.269  0.1363  1.4819 -0.7973
  191MOL0     H25189   0.654  10.946  12.394 -2.5933  1.8874 -0.6493
  191MOL0     H25190   0.571  10.720  12.215 -0.3000  0.0511 -0.0283
  191MOL0     H25191   0.628  10.696  12.384 -1.0525 -0.0517  0.2904
  191MOL0     H25192   0.354  10.824  12.312 -0.7777 -0.2181 -1.6293
  191MOL0     H25193   0.420  10.825  12.471  1.2334 -0.1597 -0.7805
  191MOL0     H25194   1.301  11.127  11.879 -0.1780  0.1749 -0.1016
  191MOL0     H25195   1.511  11.112  11.730 -0.7917 -0.5869  1.4970
  191MOL0     H25196   1.692  10.678  11.264 -0.1454 -0.6938  1.0348
  191MOL0     H25197   1.912  10.679  11.182 -1.5149  0.4586 -2.0117
  191MOL0     H25198   3.386  10.860   9.947 -2.0348 -2.7045  0.4748
  191MOL0     H25199   3.628  10.955   9.949  3.5186 -0.9842  1.1347
  191MOL0     H25200   4.148  10.850  10.328  0.7870  1.4524 -0.1509
  191MOL0     H25201   4.391  10.853  10.212  0.7068 -1.8827 -1.2922
  191MOL0     H25202   4.438  11.002   9.796 -3.2382 -0.7550  0.7158
  191MOL0     H25203   4.369  10.842   9.762  0.2514 -0.1958 -1.5776
  191MOL0     H25204   4.579  10.738   9.813 -2.7682 -0.8872 -2.6378
  191MOL0     H25205   4.590  10.813   9.660  0.4268  4.2483 -1.3343
  191MOL0     H25206   4.706  10.899   9.916 -0.9207  1.0120 -0.7382
  191MOL0     H25207   4.692  11.033   9.796 -0.7678  0.4834 -1.7705
  191MOL0     H25208   4.856  10.782   9.803  0.2639 -1.1173 -0.4319
  191MOL0     H25209   4.813  10.829   9.643 -1.7044 -0.0205 -0.0076
  191MOL0     H25210   5.127  11.103   9.769 -0.3779 -0.8396  0.9716
  191MOL0     H25211   4.192  10.920   9.841 -0.5296  0.6500  0.3715
  191MOL0     H25212   3.988  10.923   9.938  1.2785 -0.3202  1.1880
  192MOL0     O25213   2.657   1.068   3.931  0.4285 -0.4022  0.4848
  192MOL0     C25214   2.708   1.173   3.891 -0.5646 -0.5586  0.7448
  192MOL0     O25215   2.648   1.282   3.840 -0.2202 -0.5336  0.2067
  192MOL0     C25216   2.511   1.293   3.845 -1.1792  0.0466 -0.6092
  192MOL0     C25217   2.440   1.258   3.965 -0.4105 -0.2734  0.5730
  192MOL0     C25218   2.300   1.262   3.973 -1.0538 -0.1954 -0.1840
  192MOL0     C25219   2.230   1.333   3.875 -0.5887  0.6307 -0.5360
  192MOL0     O25220   2.095   1.364   3.879 -0.0489  1.0543 -0.3575
  192MOL0     C25221   2.015   1.356   3.999  0.4366 -0.4498 -1.1459
  192MOL0     C25222   1.861   1.350   3.989 -0.3930 -0.3112 -0.1871
  192MOL0     C25223   1.813   1.480   3.924  0.3027 -0.5566 -0.4802
  192MOL0     C25224   1.659   1.464   3.887 -0.6052  0.1065  0.1349
  192MOL0     C25225   1.571   1.452   4.010 -0.4141  0.1056  0.4227
  192MOL0     C25226   1.429   1.441   3.968 -0.4565 -0.2919  0.0868
  192MOL0     C25227   1.344   1.388   4.079 -1.1208  0.3725 -0.7609
  192MOL0     C25228   1.201   1.368   4.032  0.1197  0.3041  0.1911
  192MOL0     N25229   1.120   1.346   4.153  0.4672 -0.3662  0.6236
  192MOL0     C25230   1.014   1.429   4.198  0.5511  0.0191 -0.5210
  192MOL0     C25231   0.963   1.373   4.315  0.6743  0.0936 -0.5694
  192MOL0     C25232   0.842   1.405   4.394 -0.0054  0.2184  0.1024
  192MOL0     C25233   0.766   1.534   4.372 -0.2871 -0.9633 -0.4425
  192MOL0     C25234   0.644   1.542   4.471 -0.1001 -0.0461  0.2731
  192MOL0     C25235   0.529   1.446   4.442 -0.0926  0.1323 -0.1433
  192MOL0     O25236   0.540   1.379   4.313 -0.0248  0.0318  0.5128
  192MOL0     C25237   0.446   1.283   4.303 -0.3826 -0.3401  0.6923
  192MOL0     C25238   0.483   1.150   4.339 -0.0710 -0.4949  0.0393
  192MOL0     C25239   0.385   1.045   4.332 -0.9261 -0.5674  0.3029
  192MOL0     C25240   0.251   1.080   4.294  0.6389 -0.9073 -0.0338
  192MOL0     C25241   0.136   0.990   4.331 -0.2822  0.1859  0.6582
  192MOL0     O25242   0.009   1.042   4.346  0.2394  0.3590  0.0326
  192MOL0     C25243  -0.085   0.942   4.353 -0.0931  0.0230  0.7092
  192MOL0     C25244  -0.174   0.927   4.241 -0.2005  0.4736  0.1695
  192MOL0     C25245  -0.271   0.830   4.242  0.3102 -0.3945  0.1095
  192MOL0     C25246  -0.283   0.748   4.350 -0.1376  0.2029  0.6750
  192MOL0     O25247  -0.369   0.647   4.363 -0.1570  0.0321  0.4366
  192MOL0     C25248  -0.491   0.655   4.280 -0.7989 -0.7602  0.6894
  192MOL0     C25249  -0.576   0.538   4.330 -0.2652 -0.5766  0.7842
  192MOL0     C25250  -0.696   0.540   4.237 -1.1160  0.9469  0.2075
  192MOL0     C25251  -0.790   0.430   4.282  0.4675  0.1032  0.0898
  192MOL0     C25252  -0.936   0.451   4.225 -0.7013  0.4423 -0.7536
  192MOL0     C25253  -1.031   0.330   4.246  0.0796 -0.0215 -0.2927
  192MOL0     C25254  -1.006   0.275   4.390  0.1583  0.2712 -0.2396
  192MOL0     C25255  -1.111   0.176   4.415 -0.6649 -0.5467  1.0048
  192MOL0    Cl25256  -1.107   0.132   4.588  0.5626  0.1827  0.1667
  192MOL0     C25257  -0.203   0.763   4.461  0.2221  0.1992  0.5154
  192MOL0     C25258  -0.104   0.858   4.461 -0.0457 -0.9127  0.1174
  192MOL0     O25259   0.177   0.870   4.349  0.1551  0.0434 -0.7438
  192MOL0     C25260   0.220   1.215   4.249  0.2288 -0.5457 -0.2495
  192MOL0     C25261   0.320   1.310   4.261 -0.3448  0.4244 -0.4446
  192MOL0     N25262   1.033   1.258   4.331 -0.3308  0.7162 -0.4484
  192MOL0     N25263   1.127   1.238   4.241 -0.3997 -0.4007 -0.6142
  192MOL0     C25264   2.295   1.364   3.757 -0.1045  0.9845  0.1089
  192MOL0     C25265   2.436   1.346   3.741 -0.4749  0.2506 -0.4229
  192MOL0     C25266   2.855   1.173   3.888  0.2742 -0.8032  0.9112
  192MOL0     C25267   2.939   1.062   3.892 -0.1103  0.6936 -0.5303
  192MOL0     C25268   3.085   1.073   3.885  0.6181 -0.4007 -0.1397
  192MOL0     C25269   3.145   1.200   3.878  0.3695  0.5215  0.1592
  192MOL0     O25270   3.280   1.221   3.880  0.4570 -0.5105 -0.3893
  192MOL0     C25271   3.362   1.114   3.939  0.5486 -0.1723  0.0622
  192MOL0     C25272   3.509   1.151   3.932 -1.0532  0.1823  0.4719
  192MOL0     C25273   3.600   1.031   3.960  0.1237  0.5570  0.2786
  192MOL0     C25274   3.627   1.010   4.113 -0.6496  0.2568 -0.0966
  192MOL0     C25275   3.733   0.908   4.124 -1.0249  0.0657 -0.5741
  192MOL0     C25276   3.806   0.815   4.138  0.1822 -0.0314 -0.2644
  192MOL0     C25277   3.056   1.310   3.889 -1.1915 -0.7449  0.3618
  192MOL0     C25278   2.916   1.296   3.896 -0.0845  0.1484  0.8266
  192MOL0     H25279   2.497   1.223   4.051  0.5587 -0.6597 -0.2141
  192MOL0     H25280   2.252   1.220   4.061  1.6120 -2.7729  0.2330
  192MOL0     H25281   2.039   1.443   4.060 -1.1076  0.2338 -1.4718
  192MOL0     H25282   2.046   1.263   4.048  0.8181  0.4888  0.4515
  192MOL0     H25283   1.824   1.351   4.092 -0.6466 -0.8624 -0.2717
  192MOL0     H25284   1.826   1.259   3.940 -2.5547  0.4664 -0.2484
  192MOL0     H25285   1.869   1.502   3.832  1.8962 -1.7979  0.1407
  192MOL0     H25286   1.828   1.565   3.991  0.0801 -1.2188  0.4111
  192MOL0     H25287   1.625   1.554   3.835 -1.0737 -0.3334 -0.3358
  192MOL0     H25288   1.644   1.377   3.823 -0.8754 -0.2999  0.7460
  192MOL0     H25289   1.586   1.531   4.084  0.4200 -0.0951  0.4796
  192MOL0     H25290   1.594   1.359   4.064  0.1071 -0.2797 -0.4237
  192MOL0     H25291   1.428   1.370   3.885  1.7910  1.6101 -1.7215
  192MOL0     H25292   1.392   1.535   3.925  1.1152 -1.0922 -3.3526
  192MOL0     H25293   1.380   1.296   4.125  0.3473  1.7995  1.1126
  192MOL0     H25294   1.354   1.459   4.162  0.8508 -0.4188 -0.2747
  192MOL0     H25295   1.192   1.286   3.960 -0.3218  1.5973 -1.2881
  192MOL0     H25296   1.168   1.464   3.991  0.7124  0.9563  1.2059
  192MOL0     H25297   0.970   1.520   4.156 -0.3629 -0.8946 -1.6403
  192MOL0     H25298   0.879   1.422   4.496  2.4014 -0.8963 -0.4959
  192MOL0     H25299   0.771   1.321   4.387  0.6791 -0.3055 -0.7498
  192MOL0     H25300   0.729   1.554   4.271 -0.6427 -1.6120 -0.4470
  192MOL0     H25301   0.832   1.619   4.391  0.7210 -1.8922  0.3679
  192MOL0     H25302   0.669   1.536   4.577 -1.3071  2.7305  0.7985
  192MOL0     H25303   0.602   1.643   4.462  0.1858  0.1158  0.7508
  192MOL0     H25304   0.435   1.503   4.447  0.0146  0.2466  0.7644
  192MOL0     H25305   0.534   1.367   4.517 -0.9764 -0.4052 -0.6339
  192MOL0     H25306   0.580   1.124   4.379  1.2636 -0.1885 -2.7810
  192MOL0     H25307   0.420   0.950   4.372  1.2102  0.6842  1.5580
  192MOL0     H25308  -0.167   0.989   4.152 -0.3587  0.7404  0.3418
  192MOL0     H25309  -0.327   0.820   4.149  0.2543  0.5219  0.0299
  192MOL0     H25310  -0.466   0.634   4.175 -1.1939 -2.1863  0.8533
  192MOL0     H25311  -0.545   0.750   4.279 -0.7390 -0.7120  1.5703
  192MOL0     H25312  -0.608   0.559   4.433 -0.9716 -2.7225  1.0359
  192MOL0     H25313  -0.523   0.443   4.320  0.1334 -0.3483  0.7081
  192MOL0     H25314  -0.670   0.511   4.135  0.1165  1.9499  0.2114
  192MOL0     H25315  -0.751   0.635   4.241 -0.9601  1.0536 -0.1921
  192MOL0     H25316  -0.747   0.340   4.237  0.8742  1.9507 -3.5549
  192MOL0     H25317  -0.787   0.416   4.391  0.9246 -1.1044 -0.0540
  192MOL0     H25318  -0.931   0.468   4.117 -0.2829  3.2696 -0.3610
  192MOL0     H25319  -0.986   0.540   4.264 -0.6414 -0.3025  1.1029
  192MOL0     H25320  -1.012   0.246   4.178 -2.3772 -2.4103  1.7344
  192MOL0     H25321  -1.135   0.364   4.239 -1.9204 -5.1573  0.3271
  192MOL0     H25322  -0.909   0.225   4.389  1.1581  2.1494 -0.6485
  192MOL0     H25323  -1.014   0.349   4.470  0.9448 -2.5010  2.6496
  192MOL0     H25324  -1.092   0.093   4.347  1.8281  0.0385  0.9178
  192MOL0     H25325  -1.209   0.221   4.395 -0.8312 -0.4921  1.8950
  192MOL0     H25326  -0.222   0.698   4.546  1.2084 -0.3768  0.3073
  192MOL0     H25327  -0.041   0.869   4.549 -0.0266 -0.5495  0.0593
  192MOL0     H25328   0.117   1.235   4.221  0.3206 -1.0462 -0.9696
  192MOL0     H25329   0.291   1.404   4.216  3.9848  1.0480 -2.4242
  192MOL0     H25330   2.233   1.403   3.678 -0.7477 -0.5470 -0.1798
  192MOL0     H25331   2.486   1.388   3.654 -2.4240  0.6323 -1.4044
  192MOL0     H25332   2.891   0.964   3.893 -0.0059  0.6404  0.9694
  192MOL0     H25333   3.137   0.978   3.890  0.0252 -0.6571  3.1287
  192MOL0     H25334   3.337   1.031   3.872 -0.2161 -1.0610  1.3943
  192MOL0     H25335   3.336   1.088   4.042  1.3924  0.1027  0.3584
  192MOL0     H25336   3.526   1.187   3.830 -1.5208 -1.7290 -0.3137
  192MOL0     H25337   3.533   1.237   3.997 -1.6755 -0.7735  2.0294
  192MOL0     H25338   3.701   1.052   3.922  0.7931 -2.5013  0.1500
  192MOL0     H25339   3.561   0.939   3.916  0.4141 -1.2495  3.4651
  192MOL0     H25340   3.660   1.101   4.163 -0.7850  0.6239 -0.6587
  192MOL0     H25341   3.531   0.981   4.155  1.4027 -0.6383  4.5065
  192MOL0     H25342   3.865   0.726   4.145  0.1200  0.0325  1.7383
  192MOL0     H25343   3.103   1.408   3.884  0.4939 -1.4999  0.5676
  192MOL0     H25344   2.864   1.389   3.921  0.5404  0.3440  1.4460
  193MOL0     O25345   4.070   2.153   7.799  0.1216  0.5145 -0.2623
  193MOL0     C25346   4.108   2.206   7.700  0.7770 -0.1643  1.3473
  193MOL0     O25347   4.030   2.266   7.603  0.3861  0.1276 -0.0270
  193MOL0     C25348   3.887   2.281   7.605 -0.2235  1.0083  0.2308
  193MOL0     C25349   3.805   2.291   7.713  0.4916 -0.8744 -0.0984
  193MOL0     C25350   3.674   2.321   7.703  0.0582 -1.0295  0.3595
  193MOL0     C25351   3.613   2.333   7.571  0.0240  0.9663 -0.6952
  193MOL0     O25352   3.483   2.339   7.565  0.3139  0.0778  0.5499
  193MOL0     C25353   3.418   2.264   7.464 -0.7072 -0.6530  0.5054
  193MOL0     C25354   3.279   2.324   7.469  0.7316  0.1279  0.0870
  193MOL0     C25355   3.266   2.471   7.412  0.9577  0.6631 -0.4835
  193MOL0     C25356   3.127   2.531   7.442 -0.5901 -0.0089 -0.4416
  193MOL0     C25357   3.101   2.682   7.397 -0.2972  0.3123  0.3366
  193MOL0     C25358   3.119   2.698   7.243 -0.7767 -0.1552 -0.1411
  193MOL0     C25359   3.069   2.834   7.208 -0.3339 -0.6561  0.5741
  193MOL0     C25360   3.075   2.862   7.047  0.2818  0.1223  0.2669
  193MOL0     N25361   2.957   2.818   6.979  0.8600  0.1647 -0.1701
  193MOL0     C25362   2.854   2.905   6.972 -0.4492  0.1957  0.3528
  193MOL0     C25363   2.760   2.841   6.908  0.3072  0.0750  0.2310
  193MOL0     C25364   2.628   2.904   6.869 -0.0394 -0.5554  0.9912
  193MOL0     C25365   2.631   2.994   6.740 -0.5988  1.0146  0.0173
  193MOL0     C25366   2.500   3.078   6.749  1.1012  0.4093 -0.3924
  193MOL0     C25367   2.491   3.156   6.625  0.5529 -0.2088  0.1113
  193MOL0     O25368   2.472   3.074   6.510  0.3149 -0.3584  0.4073
  193MOL0     C25369   2.345   3.031   6.479  0.1709  0.2797  0.7055
  193MOL0     C25370   2.328   2.947   6.368  0.2802  0.7033  0.5481
  193MOL0     C25371   2.206   2.921   6.314 -0.0693 -0.8022  1.1286
  193MOL0     C25372   2.084   2.956   6.374  0.1344  0.2194  0.3090
  193MOL0     C25373   1.952   2.925   6.311 -0.2146  0.8614 -0.7970
  193MOL0     O25374   1.844   2.983   6.364  0.0971  0.7386 -0.2621
  193MOL0     C25375   1.720   2.929   6.328  0.4600 -0.4757 -0.2825
  193MOL0     C25376   1.660   2.961   6.207 -1.0132 -0.2130  0.2361
  193MOL0     C25377   1.533   2.927   6.169  0.4307 -0.0657  1.5203
  193MOL0     C25378   1.454   2.857   6.258 -0.7387 -0.5105 -0.0265
  193MOL0     O25379   1.324   2.822   6.246  0.2063  0.3870  0.1535
  193MOL0     C25380   1.237   2.883   6.148  0.3185  0.3762  0.2779
  193MOL0     C25381   1.114   2.951   6.217 -0.4385  0.4140  0.3742
  193MOL0     C25382   1.002   2.845   6.266 -0.1380  0.5043 -0.0118
  193MOL0     C25383   0.902   2.904   6.354  0.5016 -0.0574 -0.1005
  193MOL0     C25384   0.808   2.803   6.417 -0.9010  0.1476  0.3413
  193MOL0     C25385   0.681   2.870   6.467 -1.4123  0.4487 -0.0783
  193MOL0     C25386   0.564   2.820   6.389  0.2608 -0.5713  0.1183
  193MOL0     C25387   0.432   2.877   6.455 -0.2314 -0.4137  0.2720
  193MOL0    Cl25388   0.394   2.827   6.624 -0.0622  0.1125 -0.2430
  193MOL0     C25389   1.517   2.802   6.374  0.3000 -0.2359 -0.4751
  193MOL0     C25390   1.647   2.848   6.419  0.0684 -0.7041 -0.3336
  193MOL0     O25391   1.953   2.833   6.227  0.0452 -0.0907  0.3120
  193MOL0     C25392   2.095   3.028   6.496 -0.5447 -0.0663 -0.5099
  193MOL0     C25393   2.219   3.060   6.547 -0.7483  0.4271 -0.1747
  193MOL0     N25394   2.797   2.707   6.893  0.2390 -0.2650  0.2829
  193MOL0     N25395   2.918   2.695   6.934 -0.0558  0.1720  0.0848
  193MOL0     C25396   3.702   2.333   7.464 -0.2458 -0.6588  0.8552
  193MOL0     C25397   3.829   2.308   7.479 -0.2534 -0.0875 -0.6927
  193MOL0     C25398   4.249   2.206   7.679 -0.4593  0.6083  0.5182
  193MOL0     C25399   4.333   2.229   7.786 -0.1770  0.1151  0.1484
  193MOL0     C25400   4.469   2.208   7.761 -0.0941  0.2461 -0.1720
  193MOL0     C25401   4.525   2.187   7.636 -0.0977 -0.4069 -0.2159
  193MOL0     O25402   4.662   2.171   7.612  0.3748 -0.6260 -0.4704
  193MOL0     C25403   4.742   2.131   7.724  0.3617 -0.3023 -0.3686
  193MOL0     C25404   4.891   2.119   7.690  0.2155 -0.8311 -0.6200
  193MOL0     C25405   4.956   2.242   7.632  0.0732 -0.1120  0.6864
  193MOL0     C25406   5.108   2.211   7.600  0.0736 -0.0233 -0.8301
  193MOL0     C25407   5.198   2.185   7.715  0.0686  0.2618 -0.6331
  193MOL0     C25408   5.274   2.160   7.802 -0.3820 -0.1340 -0.8019
  193MOL0     C25409   4.440   2.171   7.528 -0.0414 -0.3726  0.0303
  193MOL0     C25410   4.299   2.168   7.551 -0.4393 -0.4469 -0.8117
  193MOL0     H25411   3.850   2.275   7.811  2.2039  0.5803 -0.5918
  193MOL0     H25412   3.619   2.341   7.794  1.2734 -1.3579  1.1973
  193MOL0     H25413   3.420   2.156   7.481 -0.0480 -0.8420 -0.6883
  193MOL0     H25414   3.459   2.292   7.367 -1.1669 -0.5109  0.3504
  193MOL0     H25415   3.244   2.335   7.572 -0.8980  2.2519 -0.6255
  193MOL0     H25416   3.208   2.264   7.412 -0.0289  1.1146 -0.0232
  193MOL0     H25417   3.282   2.470   7.304  2.7387  2.2419 -0.2967
  193MOL0     H25418   3.347   2.537   7.445  3.5235 -2.2746 -0.5080
  193MOL0     H25419   3.052   2.469   7.391  1.5089 -2.2731 -0.9883
  193MOL0     H25420   3.101   2.523   7.548  2.2845 -1.0261  0.2674
  193MOL0     H25421   3.160   2.757   7.450 -0.0726 -0.2220  0.8565
  193MOL0     H25422   2.999   2.710   7.422  0.1766  0.7909  1.8649
  193MOL0     H25423   3.059   2.622   7.192  1.0449 -1.2056 -0.8077
  193MOL0     H25424   3.221   2.680   7.208 -0.9141  2.1766 -1.9401
  193MOL0     H25425   2.966   2.844   7.243  0.4826  0.2588  2.9156
  193MOL0     H25426   3.135   2.908   7.255 -1.9636  0.4204  1.2450
  193MOL0     H25427   3.165   2.820   7.002  0.3355  2.1248 -1.6337
  193MOL0     H25428   3.085   2.970   7.035  2.7463  0.0814  1.2936
  193MOL0     H25429   2.848   3.009   7.005  3.3140  1.0150 -0.9562
  193MOL0     H25430   2.586   2.961   6.953  0.1353 -1.5644  1.7784
  193MOL0     H25431   2.552   2.828   6.848  0.5988 -1.6189  2.3708
  193MOL0     H25432   2.644   2.939   6.646 -0.8529  1.1932 -0.1228
  193MOL0     H25433   2.726   3.047   6.748  0.1952 -0.4585  0.9370
  193MOL0     H25434   2.409   3.022   6.774  3.4128 -2.2180  3.1283
  193MOL0     H25435   2.506   3.152   6.829 -1.6805  0.3024  0.0171
  193MOL0     H25436   2.581   3.213   6.601  0.8539 -0.6445  0.2061
  193MOL0     H25437   2.405   3.221   6.647 -1.1350 -1.5287 -2.0685
  193MOL0     H25438   2.425   2.920   6.329 -0.5705 -1.9619  0.1160
  193MOL0     H25439   2.216   2.867   6.220  1.9095  2.5468 -0.7903
  193MOL0     H25440   1.730   3.007   6.138 -0.3051  1.8862  2.2187
  193MOL0     H25441   1.496   2.966   6.074  0.2185 -1.2685  1.0891
  193MOL0     H25442   1.187   2.813   6.082 -1.7379  2.7037 -0.7927
  193MOL0     H25443   1.277   2.964   6.087 -2.5695  2.2467  0.6675
  193MOL0     H25444   1.074   3.019   6.141  1.8024 -0.2765 -1.5131
  193MOL0     H25445   1.140   3.003   6.310  0.9525 -2.5680  1.8032
  193MOL0     H25446   1.055   2.767   6.321  1.5230  1.5602 -0.0173
  193MOL0     H25447   0.964   2.803   6.173  1.0795  0.3455 -0.4614
  193MOL0     H25448   0.957   2.964   6.427 -0.6255  1.7647 -0.6914
  193MOL0     H25449   0.850   2.978   6.292  4.9701  1.7340 -2.2317
  193MOL0     H25450   0.859   2.750   6.498  0.3177 -2.4347 -1.9272
  193MOL0     H25451   0.784   2.730   6.339 -0.7773  2.3171 -1.8811
  193MOL0     H25452   0.679   2.979   6.463 -0.4696  0.4983  0.5828
  193MOL0     H25453   0.668   2.839   6.571 -0.2015  0.6616  0.1486
  193MOL0     H25454   0.555   2.865   6.289 -2.4541  0.7447  0.8585
  193MOL0     H25455   0.569   2.711   6.384  0.9463 -0.5500  0.1945
  193MOL0     H25456   0.350   2.838   6.394  0.0479  1.1346 -1.1662
  193MOL0     H25457   0.432   2.986   6.442 -1.6332 -0.6627 -2.5354
  193MOL0     H25458   1.453   2.747   6.441  2.1591 -1.2857  0.5298
  193MOL0     H25459   1.681   2.807   6.514 -1.4571 -3.6129 -0.9220
  193MOL0     H25460   2.010   3.066   6.553  1.1772  0.9477  1.5174
  193MOL0     H25461   2.214   3.108   6.644  1.1681  0.6650 -0.1562
  193MOL0     H25462   3.664   2.339   7.362  1.0594 -0.9961  0.3217
  193MOL0     H25463   3.896   2.325   7.395  0.7774  0.7532  0.2635
  193MOL0     H25464   4.292   2.262   7.880 -0.2665  0.5891 -0.0531
  193MOL0     H25465   4.521   2.221   7.855 -0.0150  0.8353 -0.2911
  193MOL0     H25466   4.706   2.035   7.763 -0.9558  0.3509  0.1017
  193MOL0     H25467   4.732   2.205   7.805  2.6125 -0.9435  0.5603
  193MOL0     H25468   4.940   2.101   7.786 -1.3007 -0.0069  0.3605
  193MOL0     H25469   4.907   2.026   7.636  3.0153  0.3215 -1.9685
  193MOL0     H25470   4.945   2.323   7.706 -1.1119 -0.3562  0.8054
  193MOL0     H25471   4.914   2.265   7.534  2.5134 -1.8541 -0.8638
  193MOL0     H25472   5.118   2.125   7.533  0.7788 -2.6024  2.2966
  193MOL0     H25473   5.150   2.304   7.560  1.7956  0.5429  1.9757
  193MOL0     H25474   5.339   2.149   7.887  0.1073  1.6989 -0.8848
  193MOL0     H25475   4.480   2.157   7.428 -2.2003  0.6134 -1.0459
  193MOL0     H25476   4.231   2.140   7.472 -1.9139  0.9222 -0.1140
  194MOL0     O25477   4.505   8.700   3.036  0.4067 -0.0299 -0.0096
  194MOL0     C25478   4.602   8.762   2.988 -0.1964 -0.4134  0.0545
  194MOL0     O25479   4.599   8.854   2.882 -0.0248 -0.3236 -0.2747
  194MOL0     C25480   4.485   8.887   2.820 -0.2334 -0.4643  0.7193
  194MOL0     C25481   4.481   8.870   2.673 -0.1132  0.2273 -0.9236
  194MOL0     C25482   4.360   8.889   2.603 -0.2409 -0.3654  0.5618
  194MOL0     C25483   4.253   8.946   2.671  0.0005  0.4674 -0.5073
  194MOL0     O25484   4.129   8.973   2.612 -0.0234  0.1396 -0.4289
  194MOL0     C25485   4.093   8.906   2.493  0.4144 -0.4369  0.1946
  194MOL0     C25486   3.941   8.932   2.457 -0.6085  0.2576 -0.1416
  194MOL0     C25487   3.833   8.866   2.547 -0.5428  0.8864  0.1469
  194MOL0     C25488   3.698   8.913   2.500  0.1316 -0.7439 -0.5744
  194MOL0     C25489   3.588   8.819   2.536  0.5216  0.0466 -0.9172
  194MOL0     C25490   3.451   8.893   2.518 -0.0144  0.9339 -0.2781
  194MOL0     C25491   3.329   8.798   2.496 -0.7508  0.3971  0.3284
  194MOL0     C25492   3.282   8.738   2.628 -0.6325 -0.5753 -0.3444
  194MOL0     N25493   3.172   8.636   2.612 -0.3055 -0.0042  0.0963
  194MOL0     C25494   3.052   8.639   2.684  0.1312 -0.1593  0.2096
  194MOL0     C25495   2.995   8.518   2.672  0.4195 -0.3481 -1.1809
  194MOL0     C25496   2.858   8.465   2.724  0.5532 -0.2070 -0.5374
  194MOL0     C25497   2.795   8.559   2.835 -0.3152 -0.0635 -0.5078
  194MOL0     C25498   2.722   8.669   2.759 -0.4127  0.0602 -0.3362
  194MOL0     C25499   2.652   8.759   2.862 -0.8629 -0.6164  0.2897
  194MOL0     O25500   2.526   8.698   2.894 -0.6947 -0.6091 -0.3197
  194MOL0     C25501   2.422   8.782   2.940 -0.5270 -0.3786 -0.3555
  194MOL0     C25502   2.417   8.922   2.940 -0.4143 -0.1562 -0.0466
  194MOL0     C25503   2.310   8.995   2.992  0.4639 -0.3640 -0.5025
  194MOL0     C25504   2.195   8.923   3.039 -1.1746  0.4480  0.8696
  194MOL0     C25505   2.076   8.995   3.092  0.1664 -0.0298 -0.8497
  194MOL0     O25506   1.969   8.925   3.151 -0.3129  0.4556  0.4388
  194MOL0     C25507   1.853   8.992   3.178  0.1578 -0.1526  0.1014
  194MOL0     C25508   1.741   8.956   3.105 -0.1626 -0.4517  0.6581
  194MOL0     C25509   1.619   9.004   3.136 -0.1433  0.2303 -0.3437
  194MOL0     C25510   1.603   9.097   3.241  0.9580  0.1765  0.6507
  194MOL0     O25511   1.484   9.167   3.263 -0.1208  0.0156  0.2036
  194MOL0     C25512   1.364   9.094   3.250 -0.2645  0.2507 -0.1819
  194MOL0     C25513   1.241   9.170   3.290 -0.3120 -0.4342  0.4643
  194MOL0     C25514   1.211   9.304   3.216  0.5917 -0.0499  0.4706
  194MOL0     C25515   1.292   9.428   3.257  0.0425  0.0358  0.4269
  194MOL0     C25516   1.270   9.539   3.153  0.6379 -0.8367 -0.4693
  194MOL0     C25517   1.364   9.654   3.203  0.5747 -0.3027  0.3475
  194MOL0     C25518   1.383   9.750   3.087 -0.2426 -0.1283 -0.3042
  194MOL0     C25519   1.426   9.896   3.118  0.0936 -0.0577 -0.9729
  194MOL0    Cl25520   1.304   9.983   3.210 -0.1590  0.5697  0.1241
  194MOL0     C25521   1.716   9.148   3.304  0.4125  0.1269  0.7688
  194MOL0     C25522   1.839   9.094   3.276 -0.3282  0.0999 -1.0588
  194MOL0     O25523   2.094   9.114   3.095  0.3827  0.3438  0.1743
  194MOL0     C25524   2.198   8.779   3.040 -0.0331  0.0529 -0.5643
  194MOL0     C25525   2.319   8.710   2.992  0.2716 -0.4093  1.0586
  194MOL0     N25526   3.081   8.441   2.596  1.0311 -0.0275  0.5020
  194MOL0     N25527   3.182   8.510   2.560  0.4315 -0.2384  0.6242
  194MOL0     C25528   4.262   8.979   2.806  0.3095 -0.1169 -0.7348
  194MOL0     C25529   4.377   8.953   2.881  0.6098  0.4197  0.1411
  194MOL0     C25530   4.734   8.756   3.055  0.3695 -0.2805 -0.2169
  194MOL0     C25531   4.841   8.831   3.006 -0.3082 -0.3589 -0.2065
  194MOL0     C25532   4.958   8.845   3.076 -0.9602 -0.0908 -0.8845
  194MOL0     C25533   4.967   8.792   3.206  0.2256 -0.3115 -0.0229
  194MOL0     O25534   5.081   8.823   3.277  0.0847 -0.5768  0.0287
  194MOL0     C25535   5.135   8.712   3.351 -0.1820 -0.3755 -0.3869
  194MOL0     C25536   5.169   8.756   3.499  0.6871  0.5743 -0.5381
  194MOL0     C25537   5.318   8.803   3.501  0.0742  0.4947  0.0286
  194MOL0     C25538   5.368   8.857   3.632 -0.2956 -1.2888 -0.3334
  194MOL0     C25539   5.515   8.886   3.629 -0.0340  0.3630 -0.2945
  194MOL0     C25540   5.632   8.915   3.626 -0.0896 -0.0710  0.3930
  194MOL0     C25541   4.859   8.718   3.255  0.3066 -0.2921  0.4228
  194MOL0     C25542   4.745   8.697   3.178  0.5114 -0.0524  0.3138
  194MOL0     H25543   4.572   8.831   2.628 -0.0065 -1.9902  0.9722
  194MOL0     H25544   4.369   8.896   2.495  2.3990 -0.4094  0.7117
  194MOL0     H25545   4.104   8.798   2.505  0.1368 -1.1269 -4.0237
  194MOL0     H25546   4.150   8.944   2.407 -0.1144  0.6047  0.2813
  194MOL0     H25547   3.930   8.884   2.360  1.1989 -0.2482 -0.1405
  194MOL0     H25548   3.940   9.041   2.453 -0.0133  0.2751  0.0387
  194MOL0     H25549   3.852   8.891   2.652  1.8516  0.4364 -0.1227
  194MOL0     H25550   3.830   8.758   2.533  1.9656  0.9545 -1.7742
  194MOL0     H25551   3.679   9.015   2.534 -0.6911 -0.6167 -1.3844
  194MOL0     H25552   3.700   8.924   2.391  3.4384  1.4695 -0.4162
  194MOL0     H25553   3.594   8.793   2.642 -3.0988  0.2418 -0.5525
  194MOL0     H25554   3.595   8.730   2.472  1.9211 -0.7180  0.2244
  194MOL0     H25555   3.449   8.967   2.438 -2.5438  0.8576 -0.3677
  194MOL0     H25556   3.429   8.946   2.611 -0.2922 -1.8251  1.3330
  194MOL0     H25557   3.253   8.862   2.450  0.9666  1.4974 -1.1333
  194MOL0     H25558   3.357   8.721   2.424  2.1471 -0.1018  1.8462
  194MOL0     H25559   3.263   8.817   2.702  2.3718  1.1874 -1.2906
  194MOL0     H25560   3.362   8.681   2.675 -1.8111 -0.7847  1.5453
  194MOL0     H25561   3.003   8.715   2.745  1.1897  0.3170  0.4848
  194MOL0     H25562   2.869   8.364   2.762 -0.3271 -0.0322  0.1994
  194MOL0     H25563   2.794   8.452   2.636 -0.4237  3.0862 -0.4833
  194MOL0     H25564   2.871   8.589   2.907  0.6270 -0.0762 -1.4655
  194MOL0     H25565   2.717   8.506   2.889 -0.9978  3.2252  2.0190
  194MOL0     H25566   2.786   8.726   2.690 -0.6371  2.7103  1.5010
  194MOL0     H25567   2.649   8.614   2.699  0.2661 -0.4453 -0.7184
  194MOL0     H25568   2.634   8.855   2.813 -2.0938 -0.2014  1.4926
  194MOL0     H25569   2.712   8.771   2.952  2.1641 -1.3341 -1.4914
  194MOL0     H25570   2.498   8.985   2.903 -1.7278  2.4349  1.2039
  194MOL0     H25571   2.306   9.103   2.995 -0.2067 -0.3563  2.9707
  194MOL0     H25572   1.740   8.882   3.025  2.1858  0.7973 -0.6477
  194MOL0     H25573   1.532   8.977   3.076  0.0074  2.3784 -1.6313
  194MOL0     H25574   1.375   9.006   3.315 -0.5350  0.3316 -0.0213
  194MOL0     H25575   1.338   9.068   3.147  1.6024 -2.2807 -0.1087
  194MOL0     H25576   1.245   9.200   3.395  0.5671 -0.1763  0.3632
  194MOL0     H25577   1.160   9.096   3.286  1.0915 -2.0023 -0.2528
  194MOL0     H25578   1.106   9.330   3.232  1.2922  2.1555  1.9478
  194MOL0     H25579   1.224   9.289   3.108 -0.4320 -0.3336  0.3735
  194MOL0     H25580   1.253   9.453   3.357 -0.7166 -3.1985  1.0678
  194MOL0     H25581   1.399   9.411   3.273 -0.0536  0.2969  1.4081
  194MOL0     H25582   1.163   9.556   3.143  0.2773 -2.4351  0.4082
  194MOL0     H25583   1.315   9.497   3.062 -1.2248 -1.7772 -1.0011
  194MOL0     H25584   1.458   9.611   3.238 -0.6107 -1.3926  2.3493
  194MOL0     H25585   1.324   9.704   3.291 -0.3929 -1.2862  0.4902
  194MOL0     H25586   1.452   9.717   3.010  1.1731  0.2926  0.7351
  194MOL0     H25587   1.290   9.762   3.032  0.4398 -1.0673 -1.7005
  194MOL0     H25588   1.443   9.951   3.025 -0.5402  1.8342 -0.0105
  194MOL0     H25589   1.525   9.884   3.162 -0.6621 -3.6549  0.0923
  194MOL0     H25590   1.717   9.238   3.364  1.7406 -0.4618  1.6861
  194MOL0     H25591   1.924   9.136   3.329 -0.3904  0.2380 -1.0699
  194MOL0     H25592   2.125   8.718   3.090  1.9583 -2.6419 -0.6923
  194MOL0     H25593   2.327   8.602   2.996  0.3716 -0.3750  1.9133
  194MOL0     H25594   4.176   9.038   2.836  1.2873  1.2020 -0.3967
  194MOL0     H25595   4.383   8.976   2.987  2.5734 -1.5138  0.5271
  194MOL0     H25596   4.837   8.863   2.902 -1.9213 -0.7893 -0.3071
  194MOL0     H25597   5.037   8.901   3.027 -0.1801 -1.4755 -1.2346
  194MOL0     H25598   5.225   8.681   3.298  0.9600  1.3703  0.4434
  194MOL0     H25599   5.066   8.627   3.355 -4.3593  2.7048  0.7897
  194MOL0     H25600   5.105   8.836   3.538  0.1133 -0.4897  0.7657
  194MOL0     H25601   5.159   8.674   3.571  0.3118  1.5240  0.5202
  194MOL0     H25602   5.342   8.874   3.422  0.0359 -1.5499 -1.9491
  194MOL0     H25603   5.377   8.714   3.475 -1.1789  0.2322 -2.1571
  194MOL0     H25604   5.314   8.950   3.649  2.0736  0.6886 -2.7202
  194MOL0     H25605   5.331   8.795   3.714 -0.7391 -1.7607 -0.8747
  194MOL0     H25606   5.731   8.948   3.603 -1.0077  3.6012  1.0674
  194MOL0     H25607   4.850   8.666   3.350  0.9778 -0.9249  0.1504
  194MOL0     H25608   4.663   8.633   3.209  0.4935 -1.1104 -1.7975
  195MOL0     O25609  10.226   5.936  10.018  0.1121  0.3253  0.2752
  195MOL0     C25610  10.253   6.052  10.050  0.0400 -0.7969  0.1671
  195MOL0     O25611  10.179   6.170  10.028 -0.3001  0.0429  0.3777
  195MOL0     C25612  10.054   6.163   9.980 -0.2371  0.3381  0.2022
  195MOL0     C25613   9.985   6.280   9.933  0.0284  0.2205 -0.1524
  195MOL0     C25614   9.852   6.274   9.886  0.9202  0.1521  0.0403
  195MOL0     C25615   9.786   6.154   9.900  0.4662  0.6715 -0.3042
  195MOL0     O25616   9.659   6.145   9.852  0.1810  0.2203  0.3883
  195MOL0     C25617   9.563   6.122   9.953 -0.2685 -0.4531  0.3199
  195MOL0     C25618   9.432   6.115   9.879 -0.0874 -0.3962 -0.1222
  195MOL0     C25619   9.322   6.058   9.967  0.3585  0.0243 -0.4644
  195MOL0     C25620   9.185   6.070   9.887 -0.6975  0.6893 -0.2794
  195MOL0     C25621   9.064   6.075   9.977  0.7680  0.0685 -0.0656
  195MOL0     C25622   8.930   6.073   9.898 -0.0860 -0.5339 -0.8381
  195MOL0     C25623   8.815   6.047   9.998 -0.5988  0.4080  0.2098
  195MOL0     C25624   8.781   6.145  10.106  0.1595  0.5846 -0.0526
  195MOL0     N25625   8.647   6.140  10.160 -0.0337 -0.0078 -0.2814
  195MOL0     C25626   8.606   6.119  10.295  0.0134  0.6188 -0.0823
  195MOL0     C25627   8.474   6.132  10.293 -0.3206  0.0587  1.4230
  195MOL0     C25628   8.376   6.120  10.408 -0.1620  0.6830 -0.0572
  195MOL0     C25629   8.254   6.206  10.403 -0.4154 -0.0184  0.0681
  195MOL0     C25630   8.152   6.195  10.527  1.2179  1.0108 -0.4182
  195MOL0     C25631   8.006   6.237  10.487 -0.4020  0.5788 -0.5839
  195MOL0     O25632   7.908   6.211  10.588 -0.1470 -0.1756 -0.0913
  195MOL0     C25633   7.781   6.254  10.575  0.5066 -0.2138  0.0828
  195MOL0     C25634   7.720   6.311  10.462 -0.4176 -0.5848  0.0523
  195MOL0     C25635   7.582   6.336  10.453 -0.1285  0.2742 -0.3189
  195MOL0     C25636   7.497   6.304  10.567  0.5069  0.3532  0.2223
  195MOL0     C25637   7.354   6.319  10.572  0.7015  0.7096  0.2673
  195MOL0     O25638   7.290   6.277  10.687 -0.4587 -0.2246  0.2474
  195MOL0     C25639   7.158   6.269  10.682 -0.8475  0.9993  0.8009
  195MOL0     C25640   7.077   6.380  10.727 -0.5571 -0.6617  0.3276
  195MOL0     C25641   6.940   6.369  10.724  0.2027  0.2913 -0.8151
  195MOL0     C25642   6.879   6.255  10.676 -0.2989  0.3571 -0.8453
  195MOL0     O25643   6.743   6.247  10.671 -0.2198 -0.5496  0.1138
  195MOL0     C25644   6.668   6.134  10.702 -0.5664 -0.4674 -0.6084
  195MOL0     C25645   6.532   6.178  10.740 -0.1572  0.3693 -0.3677
  195MOL0     C25646   6.440   6.069  10.779  0.2796 -0.1908 -0.4424
  195MOL0     C25647   6.297   6.123  10.806  0.0673 -0.1280  0.4022
  195MOL0     C25648   6.211   6.016  10.869  0.1236 -0.0835  0.0417
  195MOL0     C25649   6.070   6.054  10.920  1.0448 -0.1757  0.1501
  195MOL0     C25650   6.004   5.926  10.996 -0.8221 -0.5170 -0.5235
  195MOL0     C25651   5.854   5.934  11.011  0.8240 -0.4035  0.1188
  195MOL0    Cl25652   5.777   6.077  11.106 -0.0736 -0.0266 -0.0992
  195MOL0     C25653   6.957   6.148  10.645  0.3004  0.3101  0.6066
  195MOL0     C25654   7.094   6.154  10.649 -0.3972  0.9601  0.0072
  195MOL0     O25655   7.304   6.389  10.479 -0.3871  0.4153  0.6719
  195MOL0     C25656   7.566   6.269  10.686  0.2618 -0.0490 -0.2906
  195MOL0     C25657   7.703   6.249  10.686  0.6558  1.2056 -0.0061
  195MOL0     N25658   8.425   6.157  10.163 -1.0702  0.1952 -0.0060
  195MOL0     N25659   8.538   6.167  10.085  0.4101  0.6758 -0.6986
  195MOL0     C25660   9.847   6.037   9.935 -0.1886 -0.7705 -0.0198
  195MOL0     C25661   9.981   6.040   9.973 -0.2079  0.3752 -0.0134
  195MOL0     C25662  10.382   6.074  10.116 -0.5457 -0.4913  0.4156
  195MOL0     C25663  10.458   6.175  10.057 -0.7999 -0.0415 -0.2683
  195MOL0     C25664  10.586   6.195  10.111 -0.5128  0.4969  0.5398
  195MOL0     C25665  10.646   6.110  10.204 -0.5736 -0.0428 -0.1601
  195MOL0     O25666  10.787   6.123  10.223 -0.4400 -0.1325 -0.1187
  195MOL0     C25667  10.833   6.121  10.356 -0.3695  0.0436 -0.6882
  195MOL0     C25668  10.968   6.203  10.354 -0.8483  0.2643 -0.0883
  195MOL0     C25669  10.940   6.343  10.316 -0.7351  0.4447 -0.4646
  195MOL0     C25670  10.852   6.423  10.420 -0.8532 -0.6243 -0.2867
  195MOL0     C25671  10.877   6.568  10.410 -0.1326 -0.2545 -0.4666
  195MOL0     C25672  10.890   6.687  10.399  0.4675 -0.1450 -0.7119
  195MOL0     C25673  10.568   6.010  10.261 -0.1999 -0.4164 -0.3083
  195MOL0     C25674  10.432   5.989  10.214 -0.0143  0.5041  0.0542
  195MOL0     H25675  10.042   6.372   9.936  0.3945 -0.0312  0.8671
  195MOL0     H25676   9.804   6.358   9.838  1.5063  1.4767  1.6439
  195MOL0     H25677   9.572   6.208  10.019  1.3262  0.5271 -1.1023
  195MOL0     H25678   9.584   6.031  10.010  1.3869  0.0718  0.5665
  195MOL0     H25679   9.438   6.053   9.789  1.1715 -1.5682  0.7284
  195MOL0     H25680   9.403   6.210   9.833  0.9866 -0.1407 -0.3013
  195MOL0     H25681   9.323   6.100  10.067 -0.3272 -0.6404 -0.1657
  195MOL0     H25682   9.353   5.954   9.985  0.0688 -0.1468 -0.9239
  195MOL0     H25683   9.171   6.155   9.819  0.1081  0.6166 -0.5498
  195MOL0     H25684   9.183   5.985   9.818  0.5878  0.6890 -0.3457
  195MOL0     H25685   9.071   6.168  10.035 -0.3525  1.8010 -2.5587
  195MOL0     H25686   9.076   5.985  10.037  1.6787 -0.4872 -1.0626
  195MOL0     H25687   8.927   5.987   9.831 -0.4870 -2.7720  1.8682
  195MOL0     H25688   8.910   6.157   9.831  0.3354 -0.3767 -0.7750
  195MOL0     H25689   8.734   6.041   9.925  0.8044  0.6658 -1.4201
  195MOL0     H25690   8.827   5.947  10.041 -0.8324  0.7725  1.1437
  195MOL0     H25691   8.782   6.244  10.060  0.5605  2.0040  2.7631
  195MOL0     H25692   8.853   6.137  10.188  0.6634  0.3320 -0.5147
  195MOL0     H25693   8.670   6.098  10.380  1.5366 -2.7613 -1.8919
  195MOL0     H25694   8.430   6.122  10.504 -2.8289 -0.2312  1.5853
  195MOL0     H25695   8.324   6.024  10.415  0.9299  0.1569  4.0781
  195MOL0     H25696   8.196   6.187  10.312 -2.3413 -2.6099  1.6567
  195MOL0     H25697   8.291   6.307  10.391  0.5454 -0.4346 -0.5619
  195MOL0     H25698   8.153   6.092  10.565  1.6847  1.2633  0.2843
  195MOL0     H25699   8.190   6.257  10.609  0.8109  0.3580  0.2845
  195MOL0     H25700   7.976   6.188  10.394 -0.4231 -2.9489  1.1120
  195MOL0     H25701   8.009   6.345  10.472 -0.4052  0.8173  0.9257
  195MOL0     H25702   7.780   6.327  10.374  1.4505 -0.7726  1.2376
  195MOL0     H25703   7.546   6.372  10.357  0.0091  1.7897  0.1623
  195MOL0     H25704   7.120   6.471  10.767 -1.7210 -0.1366  0.4247
  195MOL0     H25705   6.876   6.454  10.747 -1.8870 -1.5562  0.5252
  195MOL0     H25706   6.707   6.075  10.785  1.8562  2.5473  0.5893
  195MOL0     H25707   6.662   6.067  10.615 -1.2227 -1.1878 -0.0252
  195MOL0     H25708   6.487   6.237  10.660  0.5026  1.5222  0.0867
  195MOL0     H25709   6.525   6.236  10.833 -0.3153  1.3820 -1.0030
  195MOL0     H25710   6.477   6.023  10.871 -1.7606  0.5468  0.8162
  195MOL0     H25711   6.439   5.984  10.710 -0.9188 -0.4123 -0.1841
  195MOL0     H25712   6.289   6.210  10.872 -1.6326  0.7219 -0.8364
  195MOL0     H25713   6.248   6.152  10.712 -1.3903 -0.3030  1.0789
  195MOL0     H25714   6.261   5.972  10.956  0.4992  2.2048  1.0602
  195MOL0     H25715   6.201   5.941  10.791 -0.5808 -0.2516  0.2805
  195MOL0     H25716   6.007   6.104  10.846  3.0471  3.5630  0.7426
  195MOL0     H25717   6.081   6.127  11.000  1.0507  1.6237 -1.4261
  195MOL0     H25718   6.030   5.839  10.934 -0.3827 -0.0466 -1.0098
  195MOL0     H25719   6.059   5.920  11.091 -1.7573  0.4740  0.0985
  195MOL0     H25720   5.810   5.844  11.056  1.1053  0.0013  1.2285
  195MOL0     H25721   5.829   5.948  10.905  1.0173  0.5885  0.1965
  195MOL0     H25722   6.923   6.056  10.598 -0.7368 -0.8620  3.4389
  195MOL0     H25723   7.145   6.070  10.604 -0.5469 -0.4230  2.2387
  195MOL0     H25724   7.516   6.241  10.779  1.4182 -2.1533 -0.2469
  195MOL0     H25725   7.744   6.220  10.782  0.6694  0.7410 -0.1530
  195MOL0     H25726   9.784   5.949   9.938 -1.9476  0.3789  3.5151
  195MOL0     H25727  10.009   5.942  10.009  0.3287  0.2700 -0.7117
  195MOL0     H25728  10.424   6.234   9.972  0.0623  0.7780 -0.0572
  195MOL0     H25729  10.654   6.263  10.061 -0.7802 -1.0604 -2.1379
  195MOL0     H25730  10.861   6.018  10.382 -2.3083  0.0383  1.7310
  195MOL0     H25731  10.761   6.165  10.425  1.9443  4.1731 -0.5981
  195MOL0     H25732  11.007   6.204  10.456  1.0659  0.4154 -0.7891
  195MOL0     H25733  11.044   6.152  10.295 -0.3720 -0.4656  1.1252
  195MOL0     H25734  10.895   6.348  10.216  0.5184 -1.0956 -1.1588
  195MOL0     H25735  11.042   6.381  10.309 -0.4950  0.2113  1.4157
  195MOL0     H25736  10.749   6.408  10.388 -0.2404 -1.6788 -1.8632
  195MOL0     H25737  10.866   6.405  10.527 -1.5446 -0.9785 -0.2490
  195MOL0     H25738  10.896   6.794  10.388 -1.1316  0.2592  1.5624
  195MOL0     H25739  10.614   5.957  10.343 -1.0462  0.9628  1.1085
  195MOL0     H25740  10.370   5.918  10.268  1.1198  0.8321  1.8982
  196MOL0     O25741   1.418   0.769   7.466  0.0540  0.2077  0.9464
  196MOL0     C25742   1.297   0.795   7.450  0.1992 -0.1680  0.0410
  196MOL0     O25743   1.252   0.920   7.434 -0.1160 -0.2797  0.3788
  196MOL0     C25744   1.330   1.021   7.383  0.3023  0.1980 -0.4729
  196MOL0     C25745   1.363   1.131   7.457  0.1732 -0.0372 -0.9292
  196MOL0     C25746   1.432   1.240   7.402  0.8342 -0.0650  0.7077
  196MOL0     C25747   1.484   1.237   7.273 -0.4327  1.0252  0.3102
  196MOL0     O25748   1.563   1.345   7.238  0.4201  0.3710  0.5074
  196MOL0     C25749   1.618   1.366   7.103 -0.5425 -0.6611  1.0205
  196MOL0     C25750   1.635   1.519   7.103  0.0538  0.8264 -0.3493
  196MOL0     C25751   1.756   1.567   7.027  0.4311 -0.7204 -0.2421
  196MOL0     C25752   1.773   1.718   7.050  0.3258  0.3174 -0.1118
  196MOL0     C25753   1.822   1.798   6.933 -0.8138 -0.2899 -0.1174
  196MOL0     C25754   1.958   1.746   6.878 -0.4762  0.0563  0.6706
  196MOL0     C25755   1.999   1.847   6.779  0.1321  0.1967 -0.1864
  196MOL0     C25756   2.149   1.812   6.751  0.3508 -0.3867 -0.5703
  196MOL0     N25757   2.184   1.889   6.629 -0.3332 -0.2465  0.7668
  196MOL0     C25758   2.284   1.984   6.626 -0.4454 -0.6927 -0.1179
  196MOL0     C25759   2.265   2.037   6.500 -0.4236 -0.3810  0.2264
  196MOL0     C25760   2.312   2.170   6.445  0.7263 -0.1697 -0.8301
  196MOL0     C25761   2.359   2.156   6.302 -0.4936  0.1753  1.2146
  196MOL0     C25762   2.486   2.079   6.277  0.6607 -0.0283  0.4256
  196MOL0     C25763   2.548   2.077   6.143  0.1371  0.2940 -0.2116
  196MOL0     O25764   2.598   2.210   6.130  0.0186 -0.2316 -0.2418
  196MOL0     C25765   2.703   2.243   6.050 -0.6397  0.0718  0.0418
  196MOL0     C25766   2.764   2.157   5.955 -0.3537 -0.0444 -1.1016
  196MOL0     C25767   2.858   2.208   5.863  0.7288 -0.3930 -0.0402
  196MOL0     C25768   2.902   2.342   5.864  0.1342  0.4668  0.5573
  196MOL0     C25769   2.995   2.395   5.770 -0.1116  0.3687  0.3656
  196MOL0     O25770   3.075   2.300   5.707  0.1321 -0.2856 -0.7194
  196MOL0     C25771   3.173   2.340   5.622 -0.3150  0.7627  0.7496
  196MOL0     C25772   3.308   2.328   5.659 -0.1560  0.2734  0.9163
  196MOL0     C25773   3.406   2.362   5.566  0.4759  0.1345  0.2041
  196MOL0     C25774   3.375   2.416   5.443  0.5722 -0.2547 -0.9933
  196MOL0     O25775   3.483   2.435   5.360  0.5162 -0.1162  0.1456
  196MOL0     C25776   3.462   2.463   5.219 -0.8675 -0.9202 -1.2512
  196MOL0     C25777   3.593   2.465   5.143 -0.0654  0.3775  0.3642
  196MOL0     C25778   3.686   2.575   5.201  0.8494 -0.2025  0.2376
  196MOL0     C25779   3.818   2.563   5.138  0.0490  0.7811  0.0947
  196MOL0     C25780   3.901   2.685   5.155  0.0019 -0.2955  0.0134
  196MOL0     C25781   4.034   2.665   5.072  0.0986 -0.0407  0.4996
  196MOL0     C25782   4.144   2.770   5.101 -0.4285  0.2167 -0.8045
  196MOL0     C25783   4.278   2.727   5.043  0.2511  0.5439  0.9407
  196MOL0    Cl25784   4.392   2.856   5.054 -0.0477  0.1764  0.1798
  196MOL0     C25785   3.238   2.433   5.413 -0.3736 -0.0115 -0.4370
  196MOL0     C25786   3.139   2.396   5.501  0.0796 -0.3183 -0.0321
  196MOL0     O25787   3.003   2.515   5.753 -0.2155 -0.9224 -0.0762
  196MOL0     C25788   2.846   2.417   5.965 -0.5002 -0.1089  0.0431
  196MOL0     C25789   2.748   2.379   6.052 -0.1845  0.3551 -0.7729
  196MOL0     N25790   2.169   1.967   6.427  0.2838 -0.2177 -0.7033
  196MOL0     N25791   2.120   1.883   6.506 -0.2012 -0.1589 -0.5290
  196MOL0     C25792   1.455   1.116   7.198  0.1197  0.5723 -0.5489
  196MOL0     C25793   1.374   1.011   7.256 -1.2314  0.1638  0.2072
  196MOL0     C25794   1.195   0.697   7.461  0.4747  0.8968 -0.8972
  196MOL0     C25795   1.241   0.560   7.480  0.4353 -0.1751 -0.3476
  196MOL0     C25796   1.146   0.455   7.504  0.5668  0.1632  0.2174
  196MOL0     C25797   1.017   0.488   7.507  0.4529  0.0496 -0.3917
  196MOL0     O25798   0.938   0.373   7.535  0.2101  0.9958 -0.0023
  196MOL0     C25799   0.803   0.399   7.577 -0.0614 -0.3165 -0.2894
  196MOL0     C25800   0.692   0.398   7.468 -0.4991  0.1743 -0.0592
  196MOL0     C25801   0.691   0.267   7.383  0.5034 -0.4785  1.3849
  196MOL0     C25802   0.563   0.250   7.307 -0.6827  0.0722  0.1461
  196MOL0     C25803   0.530   0.351   7.204 -0.0688 -0.3536 -0.7566
  196MOL0     C25804   0.503   0.418   7.113  0.0912 -0.9967 -0.2116
  196MOL0     C25805   0.970   0.618   7.465  0.5677  0.4108  0.0787
  196MOL0     C25806   1.064   0.728   7.436  0.7776 -0.2177 -0.1336
  196MOL0     H25807   1.325   1.142   7.558 -1.1127 -1.9263 -1.1660
  196MOL0     H25808   1.458   1.323   7.466 -0.3959  2.2470 -1.5760
  196MOL0     H25809   1.560   1.317   7.024  2.0464 -3.0361  0.4715
  196MOL0     H25810   1.717   1.323   7.090  1.2410  3.3896 -0.6526
  196MOL0     H25811   1.656   1.558   7.203  1.2210  1.6871 -0.8964
  196MOL0     H25812   1.547   1.568   7.060 -2.5449 -1.4443  1.9526
  196MOL0     H25813   1.736   1.536   6.923  0.0978 -1.3151 -0.0090
  196MOL0     H25814   1.843   1.511   7.060 -0.8540 -2.3347  0.5420
  196MOL0     H25815   1.673   1.755   7.074 -0.5348 -3.1903  2.4313
  196MOL0     H25816   1.826   1.734   7.144 -4.5645  0.0847  3.0582
  196MOL0     H25817   1.839   1.904   6.953  0.0359 -0.1912 -1.2359
  196MOL0     H25818   1.751   1.780   6.852 -0.4457 -0.8600 -0.3249
  196MOL0     H25819   1.948   1.646   6.836 -1.0536  2.0590 -4.6345
  196MOL0     H25820   2.032   1.748   6.959 -0.1364 -2.5986  0.5295
  196MOL0     H25821   1.929   1.838   6.696 -3.0902  0.8413  2.2575
  196MOL0     H25822   1.997   1.951   6.813 -1.3959  0.4341 -0.9281
  196MOL0     H25823   2.155   1.703   6.741 -0.9477 -0.6438  1.0274
  196MOL0     H25824   2.205   1.841   6.840 -0.1592  0.1812 -0.4252
  196MOL0     H25825   2.337   2.023   6.712 -0.7369  0.0258 -0.2503
  196MOL0     H25826   2.393   2.208   6.509 -1.5947 -1.0973  3.0050
  196MOL0     H25827   2.230   2.242   6.444 -0.5473 -1.5005  0.8700
  196MOL0     H25828   2.373   2.249   6.246  0.4862 -1.2057 -0.9827
  196MOL0     H25829   2.279   2.101   6.251 -0.0904  0.5599  0.1235
  196MOL0     H25830   2.552   2.107   6.359  0.4374 -0.3056  0.6981
  196MOL0     H25831   2.458   1.975   6.297  0.3280  0.0269  0.2638
  196MOL0     H25832   2.482   2.058   6.058  0.1770  0.4606 -0.2796
  196MOL0     H25833   2.621   1.996   6.136 -1.7870 -1.4340 -1.2971
  196MOL0     H25834   2.744   2.050   5.951 -2.5216  0.2940 -0.5705
  196MOL0     H25835   2.898   2.139   5.789  1.8906  1.0277 -0.7962
  196MOL0     H25836   3.334   2.289   5.757 -0.6024 -1.4865  0.3569
  196MOL0     H25837   3.504   2.330   5.597 -0.2710 -3.0466 -0.3929
  196MOL0     H25838   3.414   2.561   5.220  2.1146  0.6798  0.4310
  196MOL0     H25839   3.398   2.393   5.165  0.8717 -2.1298 -1.8119
  196MOL0     H25840   3.579   2.473   5.035 -2.7981 -1.0862  0.5205
  196MOL0     H25841   3.648   2.371   5.154 -2.9695 -1.5435 -0.4334
  196MOL0     H25842   3.680   2.590   5.309 -0.8767 -1.1549  0.3206
  196MOL0     H25843   3.646   2.667   5.157 -1.6601 -1.1373  0.4177
  196MOL0     H25844   3.863   2.470   5.173 -3.5722 -1.1460  0.0372
  196MOL0     H25845   3.811   2.552   5.029 -0.6496  0.8523  0.1296
  196MOL0     H25846   3.925   2.702   5.261  0.0906  2.0724 -0.3227
  196MOL0     H25847   3.846   2.773   5.120 -1.7513 -1.4626 -0.2653
  196MOL0     H25848   4.005   2.653   4.967 -4.9009  2.7454  1.2190
  196MOL0     H25849   4.082   2.573   5.107  0.6203  0.0604  0.0626
  196MOL0     H25850   4.115   2.870   5.067  1.7687  0.6426 -1.5659
  196MOL0     H25851   4.165   2.775   5.208  1.4621  0.5502 -1.1602
  196MOL0     H25852   4.268   2.689   4.941  1.0165 -0.4968  1.2399
  196MOL0     H25853   4.318   2.645   5.103  2.7153  0.3417 -0.8695
  196MOL0     H25854   3.203   2.470   5.318 -0.2798 -0.4778 -0.6563
  196MOL0     H25855   3.037   2.416   5.468  0.3213 -1.4846 -1.5950
  196MOL0     H25856   2.888   2.513   5.994 -0.0887 -0.3657  0.3076
  196MOL0     H25857   2.718   2.449   6.129  1.7770 -0.2092  0.5818
  196MOL0     H25858   1.499   1.099   7.101  1.8714  0.7779  0.1819
  196MOL0     H25859   1.362   0.924   7.192 -0.6023 -1.3894  2.1112
  196MOL0     H25860   1.346   0.534   7.481  0.1956 -1.2894  2.1765
  196MOL0     H25861   1.171   0.351   7.526  0.8434  0.2741  0.4407
  196MOL0     H25862   0.800   0.493   7.632  1.1372 -0.1204 -0.5358
  196MOL0     H25863   0.776   0.318   7.645  1.9906 -0.3808  0.5071
  196MOL0     H25864   0.592   0.421   7.506 -1.8993  0.0526 -3.3442
  196MOL0     H25865   0.718   0.474   7.394 -1.9214  0.0562 -0.7235
  196MOL0     H25866   0.700   0.187   7.458  0.7116  1.2482  3.2847
  196MOL0     H25867   0.781   0.267   7.321 -0.9352  2.7115 -0.9632
  196MOL0     H25868   0.578   0.156   7.253 -0.8850 -0.2496  0.6480
  196MOL0     H25869   0.472   0.250   7.368 -1.7879 -0.2057 -1.4525
  196MOL0     H25870   0.477   0.496   7.045  1.4353  0.8660  1.3193
  196MOL0     H25871   0.864   0.640   7.463  0.1052 -1.6171 -0.2741
  196MOL0     H25872   1.019   0.822   7.406 -2.9311 -2.2738 -1.7202
  197MOL0     O25873   0.227   9.929   4.700 -0.1302 -0.0679 -0.0131
  197MOL0     C25874   0.245  10.001   4.607 -0.6915  0.4375  0.0222
  197MOL0     O25875   0.143  10.075   4.537 -0.0302  0.0241 -0.3605
  197MOL0     C25876   0.009  10.046   4.523  0.1651 -0.2583  0.5491
  197MOL0     C25877  -0.066  10.136   4.445 -0.6060 -0.2924 -0.3516
  197MOL0     C25878  -0.196  10.099   4.419 -0.2864 -0.2140 -0.0750
  197MOL0     C25879  -0.252   9.972   4.457  0.5617  0.8965 -0.5403
  197MOL0     O25880  -0.377   9.927   4.415 -0.3759 -0.6474 -0.6104
  197MOL0     C25881  -0.462  10.008   4.338  0.4104  0.1923 -0.2789
  197MOL0     C25882  -0.600   9.936   4.336  0.3930 -1.1336 -0.5446
  197MOL0     C25883  -0.598   9.805   4.254  0.4395 -0.4360 -0.4580
  197MOL0     C25884  -0.569   9.805   4.105  0.2349  0.5724  0.6932
  197MOL0     C25885  -0.654   9.908   4.031 -0.2774  1.0793 -0.7671
  197MOL0     C25886  -0.802   9.870   4.029  0.0869 -0.9199 -0.1316
  197MOL0     C25887  -0.884   9.951   3.917  0.1436  0.5392 -0.4318
  197MOL0     C25888  -1.035   9.947   3.934  0.0976  0.1370  0.0301
  197MOL0     N25889  -1.102   9.826   3.884  0.5779  0.1620  0.0894
  197MOL0     C25890  -1.205   9.824   3.797  0.1789 -0.9225  0.3145
  197MOL0     C25891  -1.219   9.691   3.776  0.4772  0.5157 -0.0826
  197MOL0     C25892  -1.314   9.626   3.680  0.2560  0.2799 -0.1624
  197MOL0     C25893  -1.453   9.593   3.714  0.2825  0.3704  0.7626
  197MOL0     C25894  -1.529   9.702   3.779  0.8478  0.4518 -0.9521
  197MOL0     C25895  -1.684   9.660   3.793 -0.4374 -0.3548 -0.2520
  197MOL0     O25896  -1.768   9.780   3.786 -0.1594  0.3306 -0.4865
  197MOL0     C25897  -1.902   9.764   3.829 -0.1308  0.9251  0.1571
  197MOL0     C25898  -1.959   9.652   3.894 -1.0032  0.4706 -0.3299
  197MOL0     C25899  -2.084   9.646   3.943  0.0039 -0.3034 -0.3951
  197MOL0     C25900  -2.177   9.751   3.907  0.5355  0.1057 -0.5781
  197MOL0     C25901  -2.316   9.751   3.955  0.1979  0.2178  0.0941
  197MOL0     O25902  -2.363   9.634   4.008  0.6643  0.5025  0.1364
  197MOL0     C25903  -2.498   9.637   4.046  0.0551 -0.6432 -0.6414
  197MOL0     C25904  -2.533   9.726   4.153 -0.6724  0.4686  0.5858
  197MOL0     C25905  -2.668   9.744   4.186  0.2694 -0.0897  0.6901
  197MOL0     C25906  -2.759   9.655   4.137 -0.0974  0.7889 -0.1828
  197MOL0     O25907  -2.889   9.664   4.187  0.0139 -0.6433  0.1679
  197MOL0     C25908  -2.986   9.593   4.101 -0.6538 -0.1769  0.3734
  197MOL0     C25909  -3.119   9.643   4.142  0.0805  0.1649 -0.1343
  197MOL0     C25910  -3.224   9.521   4.149  0.1634  0.6268  0.2715
  197MOL0     C25911  -3.348   9.593   4.188  0.4638  0.4470  0.1386
  197MOL0     C25912  -3.362   9.637   4.341 -0.1314  0.7435  0.1849
  197MOL0     C25913  -3.440   9.769   4.352 -0.0548  0.0362  0.9887
  197MOL0     C25914  -3.581   9.740   4.310  0.1956 -0.9203  0.3732
  197MOL0     C25915  -3.658   9.650   4.405 -0.1189 -0.0981  0.4092
  197MOL0    Cl25916  -3.770   9.751   4.511  0.1631  0.1447 -0.2604
  197MOL0     C25917  -2.722   9.559   4.029  0.3612 -0.7662  0.0415
  197MOL0     C25918  -2.592   9.558   3.981 -0.2177  0.4988 -0.0522
  197MOL0     O25919  -2.385   9.850   3.927  0.4898 -0.0516 -0.2807
  197MOL0     C25920  -2.127   9.867   3.848 -0.3115 -0.4886 -0.4040
  197MOL0     C25921  -1.986   9.872   3.822 -0.0260 -0.9656  0.7832
  197MOL0     N25922  -1.133   9.623   3.858 -0.4345  0.2283  0.3845
  197MOL0     N25923  -1.058   9.698   3.917  0.4063 -0.0355 -0.9020
  197MOL0     C25924  -0.173   9.885   4.533  0.3230 -0.5406  0.4089
  197MOL0     C25925  -0.044   9.928   4.569  0.1635  0.2684 -0.1010
  197MOL0     C25926   0.384  10.027   4.569  0.4831 -0.4880  0.1815
  197MOL0     C25927   0.406  10.117   4.468 -0.5986  0.1599  0.2799
  197MOL0     C25928   0.533  10.140   4.424  0.3703 -0.4808 -0.4316
  197MOL0     C25929   0.643  10.075   4.478  0.4684 -0.9923  0.1585
  197MOL0     O25930   0.757  10.101   4.405 -0.7898 -0.1251  0.0360
  197MOL0     C25931   0.883  10.042   4.453 -0.0459 -0.2922 -0.3212
  197MOL0     C25932   1.003  10.094   4.370 -0.3379  0.0675 -0.7784
  197MOL0     C25933   1.136  10.028   4.426  0.0783  0.2250 -0.0954
  197MOL0     C25934   1.267  10.101   4.401  0.3059  0.7825  0.2874
  197MOL0     C25935   1.269  10.245   4.445  0.3288  0.1020 -0.2784
  197MOL0     C25936   1.257  10.358   4.492  0.9349 -0.1899  0.2931
  197MOL0     C25937   0.626  10.007   4.600  1.2186  0.3166  0.5069
  197MOL0     C25938   0.491   9.982   4.640  0.5500  0.7156 -0.3282
  197MOL0     H25939  -0.017  10.231   4.428 -1.2408 -0.2748 -2.3737
  197MOL0     H25940  -0.248  10.155   4.342  0.7738 -1.6044 -1.8717
  197MOL0     H25941  -0.424  10.018   4.236 -2.5998 -1.9547 -1.7576
  197MOL0     H25942  -0.474  10.110   4.377 -1.4036  0.1948 -0.7234
  197MOL0     H25943  -0.680  10.000   4.296  0.9033 -0.1457 -0.0227
  197MOL0     H25944  -0.628   9.921   4.441 -0.4949  3.8568  0.2351
  197MOL0     H25945  -0.698   9.768   4.281  0.1231 -0.2126 -1.3199
  197MOL0     H25946  -0.513   9.742   4.285  0.8010  0.8561  1.3437
  197MOL0     H25947  -0.464   9.830   4.088  0.0228 -0.4730 -3.2894
  197MOL0     H25948  -0.579   9.705   4.062 -1.4107  0.3969  1.4445
  197MOL0     H25949  -0.614   9.920   3.930  3.2005 -0.7061  0.2352
  197MOL0     H25950  -0.653  10.003   4.085 -4.1567  1.4989 -1.1588
  197MOL0     H25951  -0.842   9.875   4.131 -2.1237 -1.5040 -0.9251
  197MOL0     H25952  -0.798   9.772   3.981  4.0842  0.2364 -2.6920
  197MOL0     H25953  -0.841  10.051   3.926  3.4519 -0.8161 -0.0189
  197MOL0     H25954  -0.869   9.915   3.814 -2.5968  2.2600 -1.5538
  197MOL0     H25955  -1.065  10.034   3.874  0.4181 -0.9586 -1.8070
  197MOL0     H25956  -1.068   9.971   4.035 -0.5597  0.3409 -0.2287
  197MOL0     H25957  -1.247   9.910   3.745  0.5489 -0.5935  0.5499
  197MOL0     H25958  -1.267   9.536   3.641 -2.5242 -1.8993  1.1359
  197MOL0     H25959  -1.319   9.699   3.599  1.8980 -0.4453 -0.9638
  197MOL0     H25960  -1.455   9.502   3.775 -2.1689  0.4037  0.8212
  197MOL0     H25961  -1.505   9.567   3.622  0.0697 -0.3371  1.0748
  197MOL0     H25962  -1.487   9.746   3.870  3.1265  1.3505 -2.3279
  197MOL0     H25963  -1.529   9.780   3.702 -3.1625  1.6913  0.0642
  197MOL0     H25964  -1.687   9.602   3.885  1.9386  0.3043  0.3179
  197MOL0     H25965  -1.713   9.601   3.705 -4.8654  1.5677 -0.3327
  197MOL0     H25966  -1.905   9.559   3.907  0.9300  1.4865 -0.5953
  197MOL0     H25967  -2.106   9.552   3.992  3.1706 -0.8925  0.0803
  197MOL0     H25968  -2.470   9.795   4.207  1.1460 -1.4688  1.0454
  197MOL0     H25969  -2.687   9.817   4.264 -0.2920 -1.0382  1.4661
  197MOL0     H25970  -2.974   9.485   4.099  0.3620 -0.0791 -0.7192
  197MOL0     H25971  -2.975   9.637   4.001  0.1049  0.5267  0.7506
  197MOL0     H25972  -3.146   9.723   4.073  3.9963  1.0149 -0.8921
  197MOL0     H25973  -3.112   9.678   4.246  1.8654 -1.1515  0.2376
  197MOL0     H25974  -3.198   9.443   4.222 -1.3855  1.2573  1.5515
  197MOL0     H25975  -3.228   9.477   4.049 -2.0668 -0.2249  0.6677
  197MOL0     H25976  -3.358   9.678   4.120  0.2733 -0.5430 -1.1061
  197MOL0     H25977  -3.436   9.529   4.176 -0.0471  1.2413 -0.5456
  197MOL0     H25978  -3.265   9.655   4.389 -0.7016 -0.1630  1.7367
  197MOL0     H25979  -3.407   9.552   4.394  2.5041 -0.7138  0.2622
  197MOL0     H25980  -3.405   9.840   4.276  0.1117  0.9703  1.9237
  197MOL0     H25981  -3.417   9.811   4.450  1.2303  1.3338  0.1741
  197MOL0     H25982  -3.621   9.840   4.332 -1.3334 -2.1233  3.8434
  197MOL0     H25983  -3.591   9.702   4.209  1.4101 -0.0778 -0.0889
  197MOL0     H25984  -3.593   9.585   4.464 -2.0506 -1.6793  0.8683
  197MOL0     H25985  -3.718   9.585   4.342  0.8185 -1.2040  0.6382
  197MOL0     H25986  -2.797   9.505   3.972 -0.9756  0.8178  0.2172
  197MOL0     H25987  -2.556   9.496   3.899  0.7791 -0.5573  1.1411
  197MOL0     H25988  -2.191   9.955   3.844  0.0336 -0.1823  0.5938
  197MOL0     H25989  -1.956   9.961   3.769 -0.5761 -0.3874  1.4134
  197MOL0     H25990  -0.217   9.793   4.571 -3.2260  0.5405 -0.6749
  197MOL0     H25991   0.013   9.852   4.623 -0.5419 -0.1989 -0.0043
  197MOL0     H25992   0.324  10.170   4.421  1.2493  2.7071 -0.2675
  197MOL0     H25993   0.547  10.222   4.354  0.5412 -0.2506 -0.1300
  197MOL0     H25994   0.879   9.933   4.456 -0.1547 -0.2757  0.2891
  197MOL0     H25995   0.897  10.075   4.556 -1.2178 -0.5132 -0.0708
  197MOL0     H25996   0.993  10.070   4.264 -2.0155 -0.4098 -0.5274
  197MOL0     H25997   1.004  10.202   4.386 -0.3242  0.1816 -1.5225
  197MOL0     H25998   1.139   9.926   4.385 -4.1853  0.6299 -1.9908
  197MOL0     H25999   1.111  10.013   4.531 -3.0692 -2.8725 -1.0950
  197MOL0     H26000   1.340  10.054   4.468 -2.6817 -1.8464  1.9366
  197MOL0     H26001   1.299  10.084   4.297 -1.8308 -1.4495 -0.0917
  197MOL0     H26002   1.217  10.441   4.548 -0.9223 -2.6468  2.9505
  197MOL0     H26003   0.712   9.966   4.652  1.9073  0.1418 -0.7456
  197MOL0     H26004   0.475   9.932   4.735 -2.7754  2.5049  0.1887
  198MOL0     O26005   3.345   4.760   9.895  0.3725  0.1482 -0.1936
  198MOL0     C26006   3.391   4.713   9.995 -0.3708  0.5556 -0.8432
  198MOL0     O26007   3.325   4.612  10.068  0.3882  0.2424 -0.4879
  198MOL0     C26008   3.191   4.571  10.039 -0.4563 -0.6675 -0.2318
  198MOL0     C26009   3.142   4.472  10.119  0.5302 -0.7282  0.2559
  198MOL0     C26010   3.019   4.415  10.104  0.4454  0.5281  0.7038
  198MOL0     C26011   2.932   4.454  10.009 -0.7612 -0.2246  0.3278
  198MOL0     O26012   2.809   4.398  10.019  0.4454  0.3252 -0.8143
  198MOL0     C26013   2.799   4.268   9.951  0.3624 -0.8300  0.1756
  198MOL0     C26014   2.672   4.258   9.872  0.2921 -0.1900 -0.6258
  198MOL0     C26015   2.550   4.262   9.952  0.3568  0.5208  0.0268
  198MOL0     C26016   2.429   4.277   9.860  1.3709 -0.0270 -0.4832
  198MOL0     C26017   2.299   4.248   9.936 -0.2204  0.0195 -0.2090
  198MOL0     C26018   2.176   4.267   9.848 -0.2721  0.4049  0.6225
  198MOL0     C26019   2.054   4.202   9.915  0.5864 -0.1318 -0.2377
  198MOL0     C26020   2.011   4.264  10.052  0.6949  0.0452  0.5413
  198MOL0     N26021   1.865   4.235  10.084 -0.4009 -0.7002 -0.0036
  198MOL0     C26022   1.806   4.113  10.099  0.1009  0.1624 -0.2361
  198MOL0     C26023   1.679   4.147  10.138 -0.8371  0.8285  0.3847
  198MOL0     C26024   1.589   4.034  10.159  0.4175  0.3373 -0.1205
  198MOL0     C26025   1.438   4.082  10.177  0.7810  0.3800 -0.9913
  198MOL0     C26026   1.354   3.959  10.225  0.6023  0.1349 -0.3004
  198MOL0     C26027   1.208   3.997  10.218 -0.0573  0.7254  0.5190
  198MOL0     O26028   1.182   4.111  10.300  0.1213  0.6186  0.0844
  198MOL0     C26029   1.048   4.126  10.336  0.0262  0.2490 -0.1282
  198MOL0     C26030   0.936   4.045  10.306  0.9909  0.1762 -0.2549
  198MOL0     C26031   0.811   4.096  10.345  0.0456  0.3033  0.2333
  198MOL0     C26032   0.787   4.214  10.409 -0.0746  0.8484  0.3589
  198MOL0     C26033   0.653   4.250  10.446  0.1629  1.0441  0.0040
  198MOL0     O26034   0.551   4.182  10.378 -0.3816 -0.0238  0.1972
  198MOL0     C26035   0.418   4.202  10.413  0.3228 -0.0966 -0.0382
  198MOL0     C26036   0.326   4.217  10.305  0.6795  0.3702  0.2701
  198MOL0     C26037   0.185   4.228  10.329 -0.3462 -0.5073 -0.5959
  198MOL0     C26038   0.136   4.227  10.460 -1.3027 -1.1367  0.4697
  198MOL0     O26039   0.004   4.215  10.490 -0.0686 -0.2189 -0.3642
  198MOL0     C26040  -0.072   4.142  10.392  0.4526  0.2359 -0.2239
  198MOL0     C26041  -0.195   4.076  10.459 -1.0214 -0.0723  0.0566
  198MOL0     C26042  -0.309   4.180  10.479 -0.1099  0.9263  0.6163
  198MOL0     C26043  -0.434   4.129  10.560 -0.8407 -0.0169  0.0839
  198MOL0     C26044  -0.507   4.254  10.603 -0.1356 -0.0663 -0.0878
  198MOL0     C26045  -0.642   4.204  10.655 -0.2164 -0.1007  0.0503
  198MOL0     C26046  -0.734   4.313  10.685  0.8647  0.1982  0.1639
  198MOL0     C26047  -0.849   4.266  10.777  0.1974 -0.0844  0.3491
  198MOL0    Cl26048  -0.946   4.148  10.687 -0.1542  0.0537 -0.2609
  198MOL0     C26049   0.226   4.229  10.565 -0.0450  0.5194 -0.8158
  198MOL0     C26050   0.367   4.215  10.542  0.0265 -0.5726 -0.2880
  198MOL0     O26051   0.641   4.314  10.550 -0.1414  0.3739 -0.0330
  198MOL0     C26052   0.898   4.284  10.449  0.0930 -0.6038  0.0195
  198MOL0     C26053   1.024   4.244  10.413 -0.7315  0.5752  0.4624
  198MOL0     N26054   1.667   4.290  10.142  0.7942  0.0440 -0.9727
  198MOL0     N26055   1.778   4.333  10.102 -0.1451 -0.6771 -0.6961
  198MOL0     C26056   2.975   4.554   9.925  0.0487  0.0168 -0.0753
  198MOL0     C26057   3.105   4.610   9.934  0.4745 -0.3721 -0.0266
  198MOL0     C26058   3.521   4.751  10.049  0.6230 -0.6011  0.1780
  198MOL0     C26059   3.595   4.848   9.983 -0.0313 -0.1112  0.7440
  198MOL0     C26060   3.723   4.893  10.033  0.1733 -0.0711 -0.1238
  198MOL0     C26061   3.771   4.831  10.147 -0.4740  0.5604 -1.5124
  198MOL0     O26062   3.881   4.875  10.224  0.0051 -0.9507 -0.8607
  198MOL0     C26063   3.957   4.989  10.191  0.4015 -0.1717  0.2454
  198MOL0     C26064   4.085   4.995  10.274 -0.1859 -0.5142  0.0579
  198MOL0     C26065   4.184   4.884  10.217  0.2650 -0.7168 -0.6061
  198MOL0     C26066   4.321   4.896  10.283 -0.0025 -0.0751  0.8285
  198MOL0     C26067   4.401   5.000  10.208 -0.3170 -0.6651  0.5486
  198MOL0     C26068   4.455   5.082  10.130 -0.9760  0.1298  0.0921
  198MOL0     C26069   3.692   4.734  10.208  0.9419  0.3580  0.2612
  198MOL0     C26070   3.571   4.694  10.162 -0.1803 -1.1841 -0.4905
  198MOL0     H26071   3.203   4.423  10.195 -0.9409  0.3222  2.1929
  198MOL0     H26072   2.975   4.333  10.160 -1.3967  1.2825  0.4564
  198MOL0     H26073   2.810   4.178  10.013 -0.4845 -0.9055  0.2312
  198MOL0     H26074   2.876   4.266   9.873 -1.3303  3.6942 -1.9244
  198MOL0     H26075   2.670   4.166   9.813  1.0997  0.6907 -2.0925
  198MOL0     H26076   2.672   4.342   9.803  1.4889  2.3791  2.2532
  198MOL0     H26077   2.547   4.349  10.019 -0.6630 -0.3408  1.1444
  198MOL0     H26078   2.536   4.176  10.018 -0.3982  1.2745  0.8757
  198MOL0     H26079   2.429   4.380   9.821 -2.1623  0.5192  0.6304
  198MOL0     H26080   2.432   4.207   9.776 -0.0220  0.9097 -1.3627
  198MOL0     H26081   2.290   4.319  10.019 -0.8711 -1.4354  0.9995
  198MOL0     H26082   2.293   4.146   9.973  0.3876  0.7158  1.9140
  198MOL0     H26083   2.202   4.217   9.754  3.1941  3.3813 -0.2298
  198MOL0     H26084   2.162   4.372   9.821 -0.1589  0.3812  0.4666
  198MOL0     H26085   1.976   4.230   9.843 -1.4092  0.1572  1.9169
  198MOL0     H26086   2.051   4.093   9.910  2.4611 -0.2472  0.2014
  198MOL0     H26087   2.023   4.372  10.047 -1.7511  0.3424 -0.0115
  198MOL0     H26088   2.073   4.235  10.138 -2.7435 -1.0096  2.8916
  198MOL0     H26089   1.862   4.021  10.083 -0.1786 -0.5732  2.4701
  198MOL0     H26090   1.624   3.968  10.239  0.4727 -0.3478 -0.6973
  198MOL0     H26091   1.590   3.961  10.077 -0.8756  0.4632 -0.2816
  198MOL0     H26092   1.401   4.104  10.076  0.1887  0.1293 -0.8343
  198MOL0     H26093   1.427   4.170  10.240 -2.1845  0.9387 -2.1099
  198MOL0     H26094   1.368   3.875  10.157 -3.0414  1.0535 -2.4744
  198MOL0     H26095   1.381   3.926  10.325  1.0698  0.6186 -0.2616
  198MOL0     H26096   1.147   3.911  10.246  1.4923  0.1342  2.2816
  198MOL0     H26097   1.186   4.041  10.121  0.8863  2.0443  0.8707
  198MOL0     H26098   0.946   3.960  10.240 -0.0712  0.9808 -1.5140
  198MOL0     H26099   0.726   4.030  10.334 -0.1723  0.5278  0.5441
  198MOL0     H26100   0.359   4.207  10.202 -0.1622  0.6467 -0.0333
  198MOL0     H26101   0.119   4.243  10.244  0.9560  0.9787 -1.4006
  198MOL0     H26102  -0.017   4.059  10.348 -0.6903 -0.5070 -0.3172
  198MOL0     H26103  -0.104   4.213  10.314 -1.7367  0.6970  0.9909
  198MOL0     H26104  -0.163   4.035  10.555  1.5152  1.5639  0.0107
  198MOL0     H26105  -0.229   3.999  10.389 -1.1674 -0.6699  0.7823
  198MOL0     H26106  -0.355   4.198  10.381 -0.5867 -0.1021  0.6355
  198MOL0     H26107  -0.271   4.271  10.525 -0.0347  2.2980 -1.9735
  198MOL0     H26108  -0.491   4.062  10.495 -1.7987  0.0294  0.8465
  198MOL0     H26109  -0.398   4.073  10.647 -0.8606 -0.3969 -0.1502
  198MOL0     H26110  -0.505   4.322  10.517  3.2007  0.8069  0.5151
  198MOL0     H26111  -0.454   4.305  10.684 -1.0666  1.4066 -0.3603
  198MOL0     H26112  -0.642   4.138  10.743 -1.4348  1.2080  1.0902
  198MOL0     H26113  -0.679   4.142  10.572  0.9843  0.2740 -0.7864
  198MOL0     H26114  -0.683   4.390  10.744  3.7720 -1.8821  0.5391
  198MOL0     H26115  -0.785   4.346  10.594 -0.0783  0.6394  0.8308
  198MOL0     H26116  -0.911   4.352  10.804 -1.2282 -0.3731 -1.7233
  198MOL0     H26117  -0.812   4.217  10.867  1.6737 -0.5077 -0.4679
  198MOL0     H26118   0.183   4.233  10.665 -0.3922  1.1464 -0.9826
  198MOL0     H26119   0.426   4.213  10.633 -0.0791  0.8083 -0.1668
  198MOL0     H26120   0.900   4.380  10.498 -1.2697 -0.9875  0.8633
  198MOL0     H26121   1.109   4.303  10.446 -0.6854  1.7699 -1.6071
  198MOL0     H26122   2.907   4.589   9.848 -3.5174 -1.5206  2.1316
  198MOL0     H26123   3.132   4.683   9.859  1.1426 -1.1011 -0.5207
  198MOL0     H26124   3.548   4.895   9.897 -0.4423  0.7442  1.4101
  198MOL0     H26125   3.790   4.959   9.979  0.1392  0.5831  0.6000
  198MOL0     H26126   3.891   5.070  10.223 -1.0073 -2.1526  2.8367
  198MOL0     H26127   3.961   4.993  10.082 -2.7970  1.2401  0.0706
  198MOL0     H26128   4.127   5.096  10.278  1.0459 -1.0538  1.1088
  198MOL0     H26129   4.058   4.981  10.379 -1.2972  0.3261 -0.1008
  198MOL0     H26130   4.178   4.903  10.109 -0.3275 -0.9417 -0.6186
  198MOL0     H26131   4.137   4.786  10.230  0.5023 -0.9082 -1.1710
  198MOL0     H26132   4.327   4.926  10.388 -1.8171  0.8751  0.6968
  198MOL0     H26133   4.363   4.796  10.266 -0.9019 -0.4127  0.4952
  198MOL0     H26134   4.505   5.140  10.055 -0.1224 -2.3680 -1.3981
  198MOL0     H26135   3.733   4.691  10.299 -0.1500  2.6831  1.9451
  198MOL0     H26136   3.521   4.609  10.207 -0.1065 -0.9442  0.0556
  199MOL0     O26137  10.437  10.205  10.634 -0.6236 -0.1909 -0.2048
  199MOL0     C26138  10.535  10.278  10.620  0.4275  0.4236  0.1745
  199MOL0     O26139  10.536  10.385  10.543  0.8090 -0.3646  0.3617
  199MOL0     C26140  10.421  10.430  10.463  0.3838  0.0032 -0.2240
  199MOL0     C26141  10.460  10.460  10.333  0.0969  0.8619  0.2045
  199MOL0     C26142  10.356  10.511  10.246 -0.1100  0.4373  0.1119
  199MOL0     C26143  10.225  10.534  10.286 -0.0163  0.6457 -0.1152
  199MOL0     O26144  10.134  10.598  10.206  0.0539 -0.0514 -0.0076
  199MOL0     C26145  10.136  10.571  10.069  0.4694 -0.9882  0.1414
  199MOL0     C26146  10.040  10.659   9.989 -0.3632  0.1790 -0.1912
  199MOL0     C26147   9.885  10.627  10.007  0.0405  0.1971 -0.2933
  199MOL0     C26148   9.791  10.720   9.933 -0.0318 -0.7233 -0.4290
  199MOL0     C26149   9.649  10.675   9.947  0.4351 -0.0781 -0.0002
  199MOL0     C26150   9.555  10.777   9.886  0.2631  0.0291  0.7446
  199MOL0     C26151   9.411  10.730   9.892 -0.4900  1.0927 -0.2950
  199MOL0     C26152   9.360  10.775  10.035 -0.8859  0.3750 -0.1079
  199MOL0     N26153   9.216  10.759  10.058  0.0500  0.3988 -0.3730
  199MOL0     C26154   9.148  10.646  10.100  0.7260 -0.8704 -0.6165
  199MOL0     C26155   9.018  10.694  10.099  0.0263 -0.1104  0.6309
  199MOL0     C26156   8.896  10.618  10.120  0.2160  0.5619  0.1173
  199MOL0     C26157   8.805  10.685  10.233 -0.2637 -0.6698  0.1920
  199MOL0     C26158   8.707  10.772  10.146 -1.0738 -0.3085 -0.2306
  199MOL0     C26159   8.593  10.820  10.237  0.2511 -0.7311 -0.5002
  199MOL0     O26160   8.536  10.938  10.176 -0.6659  0.4365 -0.3917
  199MOL0     C26161   8.414  10.976  10.205  0.5537 -0.1653 -0.5419
  199MOL0     C26162   8.367  11.078  10.128 -0.1500  0.2196  0.7663
  199MOL0     C26163   8.237  11.125  10.150 -0.2358 -0.6056  0.6369
  199MOL0     C26164   8.157  11.068  10.245  0.4741 -0.5816 -0.5016
  199MOL0     C26165   8.012  11.112  10.255 -0.3180  0.6771  0.2857
  199MOL0     O26166   7.959  11.129  10.378 -0.0255  0.7591 -0.3505
  199MOL0     C26167   7.831  11.169  10.387  0.2147 -0.3313 -0.6626
  199MOL0     C26168   7.802  11.312  10.381  0.3450  0.0530 -0.1531
  199MOL0     C26169   7.675  11.353  10.416 -1.1596 -0.5431  0.6099
  199MOL0     C26170   7.579  11.264  10.461 -0.1645  0.8457 -0.0251
  199MOL0     O26171   7.453  11.314  10.494  0.8055  0.1117  0.1195
  199MOL0     C26172   7.353  11.220  10.529  1.1218  0.4232  0.2235
  199MOL0     C26173   7.224  11.311  10.549 -0.0260  0.6422 -0.6396
  199MOL0     C26174   7.115  11.223  10.611 -0.0602 -0.3124 -0.0038
  199MOL0     C26175   6.982  11.298  10.589 -0.6079 -0.6857 -0.1146
  199MOL0     C26176   6.863  11.227  10.638  0.5554 -0.7123 -0.0402
  199MOL0     C26177   6.727  11.291  10.582  0.1679 -0.1606 -0.1064
  199MOL0     C26178   6.697  11.428  10.642 -0.0460 -0.5661 -0.3531
  199MOL0     C26179   6.561  11.473  10.592 -0.0546 -0.1484  0.2661
  199MOL0    Cl26180   6.439  11.392  10.682  0.1153 -0.2892 -0.2564
  199MOL0     C26181   7.610  11.124  10.472  0.2721 -0.1048  0.1440
  199MOL0     C26182   7.734  11.082  10.434 -0.5963 -0.1154  0.5747
  199MOL0     O26183   7.958  11.144  10.147 -0.2163  1.1978  0.0918
  199MOL0     C26184   8.212  10.962  10.325  0.3144  0.0358  0.2324
  199MOL0     C26185   8.343  10.923  10.310 -0.7690  0.1614  0.5947
  199MOL0     N26186   9.017  10.825  10.051 -0.3051 -0.5706  0.1369
  199MOL0     N26187   9.138  10.866  10.035  0.8042 -0.0106 -0.2898
  199MOL0     C26188  10.185  10.492  10.421 -0.4067  0.2906  0.2228
  199MOL0     C26189  10.290  10.442  10.505 -0.3589 -0.2714 -0.4559
  199MOL0     C26190  10.665  10.237  10.683  0.2270  0.0242 -0.0976
  199MOL0     C26191  10.767  10.338  10.685  0.7051  0.4795  0.9948
  199MOL0     C26192  10.890  10.300  10.727  1.1947 -0.6483 -0.1726
  199MOL0     C26193  10.916  10.173  10.770 -0.1836 -1.1264 -0.2656
  199MOL0     O26194  11.048  10.137  10.810  0.1446  0.2511 -0.1120
  199MOL0     C26195  11.158  10.173  10.720 -0.6728 -0.4489  0.8337
  199MOL0     C26196  11.289  10.137  10.788 -0.4723 -0.0305 -1.0417
  199MOL0     C26197  11.320   9.997  10.830 -0.2521  0.4158 -0.3892
  199MOL0     C26198  11.465   9.997  10.879  0.5097 -0.2243 -0.1787
  199MOL0     C26199  11.566   9.981  10.778  0.5442 -0.0627  1.4473
  199MOL0     C26200  11.637   9.962  10.684 -0.6547  0.1982 -0.0620
  199MOL0     C26201  10.820  10.070  10.766 -0.6103 -0.4348 -0.8494
  199MOL0     C26202  10.690  10.104  10.726  0.3532 -0.0974 -0.2429
  199MOL0     H26203  10.564  10.459  10.303  0.1464 -3.4088 -0.0503
  199MOL0     H26204  10.392  10.531  10.146  2.0066 -2.2493  0.2175
  199MOL0     H26205  10.103  10.469  10.047 -0.8393 -0.1562 -2.0878
  199MOL0     H26206  10.238  10.594  10.037  0.1466  0.4113  0.0474
  199MOL0     H26207  10.063  10.634   9.886 -2.4565  0.6997 -0.8352
  199MOL0     H26208  10.050  10.767  10.009  0.5354  0.6976 -3.0667
  199MOL0     H26209   9.865  10.613  10.114 -0.5849 -0.2709 -0.4619
  199MOL0     H26210   9.855  10.531   9.964 -3.8034  0.2096  1.9199
  199MOL0     H26211   9.794  10.819   9.978 -4.8257 -0.4090 -0.2770
  199MOL0     H26212   9.817  10.734   9.827 -0.0852  0.9672 -0.2466
  199MOL0     H26213   9.632  10.682  10.055  2.5724 -1.2524  0.4713
  199MOL0     H26214   9.632  10.574   9.909 -1.3075  1.1130 -2.6501
  199MOL0     H26215   9.570  10.791   9.778  2.4232 -2.9321  0.5416
  199MOL0     H26216   9.568  10.878   9.925  0.2220  0.9088 -1.3852
  199MOL0     H26217   9.350  10.770   9.811 -0.0767 -3.3737 -3.2048
  199MOL0     H26218   9.400  10.622   9.877 -0.6322  1.2571 -1.4756
  199MOL0     H26219   9.391  10.878  10.051 -1.7676  0.6987 -0.4461
  199MOL0     H26220   9.412  10.717  10.113  0.9539  1.5386 -0.4044
  199MOL0     H26221   9.186  10.548  10.124  2.5931 -0.1313 -0.3567
  199MOL0     H26222   8.926  10.517  10.149 -1.3012 -0.4844 -1.7400
  199MOL0     H26223   8.842  10.612  10.025  1.2797 -2.0571 -0.4258
  199MOL0     H26224   8.855  10.752  10.304  1.8706 -1.2288 -0.6837
  199MOL0     H26225   8.754  10.608  10.291  1.5698 -3.1682 -1.3079
  199MOL0     H26226   8.748  10.863  10.100  1.2249 -1.1109  0.1294
  199MOL0     H26227   8.660  10.716  10.065 -0.3355  2.0186 -2.3816
  199MOL0     H26228   8.626  10.852  10.336  0.0822  1.7078 -1.1621
  199MOL0     H26229   8.533  10.729  10.248  0.4915 -1.1152 -2.0517
  199MOL0     H26230   8.427  11.118  10.046 -1.7130  0.3980 -0.3389
  199MOL0     H26231   8.199  11.206  10.089  3.3089  0.3121 -0.6010
  199MOL0     H26232   7.886  11.374  10.351  1.2764 -0.7817  0.6619
  199MOL0     H26233   7.644  11.457  10.419  0.2241 -0.0926  0.1203
  199MOL0     H26234   7.376  11.165  10.620  0.9445  1.8627  1.1742
  199MOL0     H26235   7.326  11.151  10.449 -1.5027  1.2943  0.2714
  199MOL0     H26236   7.195  11.361  10.456  1.0812  1.1267 -0.7392
  199MOL0     H26237   7.243  11.388  10.624 -0.2231 -0.3943  0.5160
  199MOL0     H26238   7.121  11.197  10.717 -1.6623 -2.0282 -0.2852
  199MOL0     H26239   7.106  11.128  10.557 -0.6809 -0.9329  1.1584
  199MOL0     H26240   7.000  11.392  10.642 -2.5901 -0.2810 -0.0698
  199MOL0     H26241   6.976  11.329  10.484 -0.2545 -0.3033 -0.0291
  199MOL0     H26242   6.866  11.236  10.747  1.7311 -2.1359  0.0706
  199MOL0     H26243   6.874  11.121  10.613  0.2890 -0.6018 -0.6423
  199MOL0     H26244   6.650  11.217  10.605  0.2146  0.0133  0.6297
  199MOL0     H26245   6.731  11.291  10.472  0.3619  3.6620 -0.2011
  199MOL0     H26246   6.712  11.431  10.750  1.6923  2.1797 -0.5612
  199MOL0     H26247   6.773  11.503  10.618  1.4207 -1.5496  1.0393
  199MOL0     H26248   6.555  11.450  10.485  0.3342  0.8643  0.0103
  199MOL0     H26249   6.554  11.579  10.621 -2.2597 -1.0319  3.5216
  199MOL0     H26250   7.543  11.053  10.519  0.5355  0.0043  0.6840
  199MOL0     H26251   7.756  10.975  10.436 -2.5287 -0.5612 -0.0880
  199MOL0     H26252   8.158  10.906  10.400 -0.9423 -0.6448 -1.1254
  199MOL0     H26253   8.379  10.835  10.362  2.1165 -0.3938 -2.0342
  199MOL0     H26254  10.082  10.502  10.454 -0.0207 -1.3682  2.1300
  199MOL0     H26255  10.264  10.412  10.605 -0.9391  0.1399 -0.4794
  199MOL0     H26256  10.743  10.435  10.643  0.6614 -1.0042 -2.7974
  199MOL0     H26257  10.966  10.376  10.742  0.8613 -0.4548  0.5592
  199MOL0     H26258  11.153  10.279  10.693 -0.7919 -0.6610 -0.0271
  199MOL0     H26259  11.140  10.115  10.628  0.0430  2.0205 -0.9661
  199MOL0     H26260  11.368  10.170  10.720 -1.4430  0.0094 -2.1825
  199MOL0     H26261  11.294  10.201  10.877 -1.1700  0.4534 -1.3500
  199MOL0     H26262  11.309   9.923  10.750 -1.8532  0.0688  0.1118
  199MOL0     H26263  11.247   9.966  10.905  0.0865  1.6714  0.4964
  199MOL0     H26264  11.478  10.094  10.927  1.1048  0.0663 -0.8982
  199MOL0     H26265  11.478   9.919  10.955  1.1785  1.0247  1.0298
  199MOL0     H26266  11.701   9.960  10.598 -1.3895 -0.4891 -0.6085
  199MOL0     H26267  10.838   9.967  10.792 -0.7757  0.2163  2.1942
  199MOL0     H26268  10.613  10.028  10.724  0.5234 -0.2559 -0.9047
  200MOL0     O26269   5.735   7.238   4.519 -0.4518 -0.0993 -0.4900
  200MOL0     C26270   5.778   7.310   4.430 -1.1752  0.0954  0.0742
  200MOL0     O26271   5.707   7.370   4.335  1.0115  0.2502 -0.2066
  200MOL0     C26272   5.567   7.367   4.341  0.6251 -0.1102  0.0221
  200MOL0     C26273   5.492   7.346   4.217  0.4193  0.6211 -0.4215
  200MOL0     C26274   5.351   7.361   4.226  0.3025  0.0416  0.5526
  200MOL0     C26275   5.287   7.397   4.345  0.5561  0.4399 -0.4555
  200MOL0     O26276   5.151   7.419   4.359 -0.2585 -0.7235 -1.2892
  200MOL0     C26277   5.065   7.440   4.242 -0.2338 -0.2187 -1.1752
  200MOL0     C26278   4.936   7.516   4.283 -0.5303 -0.4375 -0.6970
  200MOL0     C26279   4.861   7.435   4.394 -0.1930 -0.1496 -0.0893
  200MOL0     C26280   4.713   7.446   4.366  1.2517 -0.0003  0.2785
  200MOL0     C26281   4.664   7.346   4.261 -0.1754  0.5534 -0.3083
  200MOL0     C26282   4.519   7.324   4.255 -0.0470 -0.5273  0.0484
  200MOL0     C26283   4.466   7.254   4.134  0.2516 -0.6582 -0.3416
  200MOL0     C26284   4.310   7.228   4.149  0.5385 -0.0822  0.3066
  200MOL0     N26285   4.252   7.168   4.026 -0.1010 -0.0879  0.7107
  200MOL0     C26286   4.272   7.037   3.986 -0.0589 -0.3735  0.8507
  200MOL0     C26287   4.200   7.024   3.874  0.4994 -0.1771  0.1293
  200MOL0     C26288   4.196   6.910   3.779 -0.0249  0.3752 -0.6431
  200MOL0     C26289   4.268   6.950   3.647 -0.0741  0.3849  0.4886
  200MOL0     C26290   4.199   7.061   3.562  0.1989  0.1056  0.0930
  200MOL0     C26291   4.043   7.037   3.544  0.2727 -0.4827  0.6666
  200MOL0     O26292   4.019   6.926   3.468  0.6951  0.5578  0.1028
  200MOL0     C26293   3.897   6.871   3.448  0.7191  0.2329 -0.2506
  200MOL0     C26294   3.891   6.749   3.365  0.8590  0.0653 -1.0491
  200MOL0     C26295   3.764   6.703   3.335  0.3456  0.3736 -0.0011
  200MOL0     C26296   3.645   6.751   3.393  0.1873  0.1157 -0.0610
  200MOL0     C26297   3.513   6.701   3.349  0.5380  0.2651 -0.1968
  200MOL0     O26298   3.411   6.785   3.378  0.0098  0.2669 -0.4413
  200MOL0     C26299   3.287   6.757   3.331 -0.0723  0.7539  0.3994
  200MOL0     C26300   3.177   6.801   3.410 -0.4419  0.7568 -0.3281
  200MOL0     C26301   3.045   6.781   3.373  0.8897  0.5128  0.2520
  200MOL0     C26302   3.019   6.723   3.244 -1.0059 -0.1455 -0.4542
  200MOL0     O26303   2.899   6.698   3.190 -0.1899 -0.1427 -0.2294
  200MOL0     C26304   2.780   6.690   3.275 -0.5270  0.4122 -0.6604
  200MOL0     C26305   2.665   6.639   3.188 -0.1763  0.0456  0.7071
  200MOL0     C26306   2.537   6.612   3.275  0.6132 -0.7054 -0.5691
  200MOL0     C26307   2.418   6.566   3.188  0.8058 -0.1748 -1.2849
  200MOL0     C26308   2.441   6.424   3.134  1.1153 -0.8631  0.3077
  200MOL0     C26309   2.298   6.376   3.089  0.6769 -0.1306  0.6469
  200MOL0     C26310   2.297   6.225   3.068 -0.6616  0.0097 -0.3149
  200MOL0     C26311   2.148   6.176   3.071 -0.3868 -0.1771  0.3263
  200MOL0    Cl26312   2.080   6.216   2.922  0.0986 -0.2549 -0.6085
  200MOL0     C26313   3.130   6.693   3.162  0.8238 -0.0423  0.3221
  200MOL0     C26314   3.259   6.715   3.203 -0.1885  0.0702  0.2514
  200MOL0     O26315   3.507   6.590   3.294 -0.2778  0.2482 -0.2071
  200MOL0     C26316   3.652   6.868   3.468 -0.2988  1.2250 -0.1831
  200MOL0     C26317   3.780   6.920   3.499 -0.6516  0.2696 -0.8782
  200MOL0     N26318   4.155   7.146   3.835 -0.2237 -0.5619 -1.2416
  200MOL0     N26319   4.176   7.236   3.934 -0.1621  0.6001 -0.3054
  200MOL0     C26320   5.362   7.417   4.464  0.0959  0.3324 -0.0684
  200MOL0     C26321   5.503   7.389   4.470 -0.2362  0.1656 -0.1169
  200MOL0     C26322   5.924   7.337   4.423 -0.5355  0.1973 -0.2873
  200MOL0     C26323   5.985   7.407   4.317  0.1610  0.7104  0.1107
  200MOL0     C26324   6.121   7.436   4.324  0.4190  0.5124  0.6844
  200MOL0     C26325   6.201   7.388   4.426 -0.3540  0.1639 -0.3755
  200MOL0     O26326   6.333   7.409   4.451 -0.6672 -1.3792  0.3392
  200MOL0     C26327   6.405   7.531   4.396  0.3518 -0.1227 -0.2692
  200MOL0     C26328   6.528   7.493   4.318 -0.1460  0.0436 -0.6912
  200MOL0     C26329   6.562   7.586   4.202 -0.4960  0.0484  0.2834
  200MOL0     C26330   6.633   7.717   4.239  0.6740  0.0117 -0.0181
  200MOL0     C26331   6.566   7.808   4.334 -0.2323  0.3446 -0.3785
  200MOL0     C26332   6.524   7.862   4.431  0.4230  0.0121  0.0108
  200MOL0     C26333   6.143   7.314   4.526  0.2786 -0.6192  0.5686
  200MOL0     C26334   6.005   7.290   4.530 -0.0659 -0.0116 -0.4595
  200MOL0     H26335   5.537   7.318   4.123 -0.9065 -1.0806 -0.6041
  200MOL0     H26336   5.298   7.351   4.132  0.1936 -1.0261  0.7084
  200MOL0     H26337   5.034   7.342   4.204  0.9738 -0.9013 -0.4577
  200MOL0     H26338   5.108   7.494   4.157 -1.6582  2.2520 -0.4412
  200MOL0     H26339   4.881   7.521   4.189 -2.3558  1.8752  0.3998
  200MOL0     H26340   4.949   7.613   4.331 -1.5663 -1.2376  1.3817
  200MOL0     H26341   4.898   7.478   4.488  1.4173 -1.4125 -0.0971
  200MOL0     H26342   4.882   7.328   4.386 -0.8612 -0.1192 -3.4511
  200MOL0     H26343   4.659   7.434   4.460  2.2704 -0.0242  0.8842
  200MOL0     H26344   4.687   7.545   4.328 -0.7459  0.4807  2.6246
  200MOL0     H26345   4.710   7.248   4.278 -0.7113  0.7257  2.5752
  200MOL0     H26346   4.695   7.383   4.163 -3.6880  1.0073 -1.3913
  200MOL0     H26347   4.471   7.422   4.266 -0.9407 -1.1883  2.8252
  200MOL0     H26348   4.501   7.255   4.338 -0.2514 -2.6286 -1.6605
  200MOL0     H26349   4.487   7.295   4.034 -0.7019 -2.6101 -1.3907
  200MOL0     H26350   4.521   7.159   4.137 -0.5276 -1.1588 -1.2729
  200MOL0     H26351   4.250   7.316   4.170  0.3055 -0.2384  0.3020
  200MOL0     H26352   4.292   7.154   4.229 -0.6308  0.0070  0.1368
  200MOL0     H26353   4.343   6.973   4.037  2.7073  1.2842 -0.7095
  200MOL0     H26354   4.090   6.886   3.772 -0.9908  0.9329  5.7277
  200MOL0     H26355   4.243   6.829   3.835 -0.0590  1.6191  1.2906
  200MOL0     H26356   4.277   6.856   3.592  1.8275 -0.8338  2.6829
  200MOL0     H26357   4.365   6.993   3.672  0.6977 -1.0286  0.0223
  200MOL0     H26358   4.219   7.163   3.599  0.8899  0.5085 -1.3162
  200MOL0     H26359   4.254   7.068   3.468  2.8218  1.7521  1.6364
  200MOL0     H26360   3.998   7.114   3.482 -0.1099 -1.7454 -0.6929
  200MOL0     H26361   3.990   7.036   3.640 -2.3963  2.1671 -0.6244
  200MOL0     H26362   3.984   6.701   3.336 -0.0894 -2.9699  0.4942
  200MOL0     H26363   3.762   6.615   3.271  0.5708  0.8504 -0.6692
  200MOL0     H26364   3.201   6.833   3.511 -3.2738 -1.5776  1.2480
  200MOL0     H26365   2.961   6.802   3.438  0.0734 -0.2901 -0.5134
  200MOL0     H26366   2.760   6.792   3.307 -0.0160  0.5317 -0.7141
  200MOL0     H26367   2.791   6.615   3.354  0.7193 -2.1321 -3.0504
  200MOL0     H26368   2.685   6.540   3.146 -2.0294  0.6738 -1.8842
  200MOL0     H26369   2.653   6.710   3.106 -1.1755  0.1364  0.9138
  200MOL0     H26370   2.512   6.703   3.330 -0.0492 -0.2614 -1.5744
  200MOL0     H26371   2.566   6.537   3.349 -0.9667  0.1011  0.9345
  200MOL0     H26372   2.331   6.565   3.253  2.3335 -3.1050  0.9267
  200MOL0     H26373   2.394   6.629   3.101 -0.9942 -0.4581 -1.0357
  200MOL0     H26374   2.489   6.355   3.204 -0.1118 -0.0264  2.0473
  200MOL0     H26375   2.505   6.416   3.046  0.1323  0.0092 -0.5104
  200MOL0     H26376   2.260   6.420   2.996  2.6454  0.9577  0.3162
  200MOL0     H26377   2.230   6.409   3.169  0.5171  1.7012 -0.2082
  200MOL0     H26378   2.338   6.211   2.967 -3.6266  1.4277 -1.8573
  200MOL0     H26379   2.356   6.168   3.140 -1.8742 -0.4198  0.3551
  200MOL0     H26380   2.095   6.239   3.142 -1.7917  0.8457 -1.5536
  200MOL0     H26381   2.140   6.068   3.086 -0.1098 -0.5851 -2.0763
  200MOL0     H26382   3.112   6.650   3.064  4.5192  3.0958 -2.0124
  200MOL0     H26383   3.335   6.700   3.127 -0.4385  1.1990 -0.2463
  200MOL0     H26384   3.557   6.907   3.504 -0.2027 -0.0895  1.6169
  200MOL0     H26385   3.790   7.012   3.556  1.1438 -0.8108  0.6654
  200MOL0     H26386   5.313   7.446   4.556  2.1010  2.2265  0.5148
  200MOL0     H26387   5.560   7.405   4.560 -2.3450  0.0255  1.3103
  200MOL0     H26388   5.932   7.418   4.224 -2.7943 -0.8140  1.4996
  200MOL0     H26389   6.160   7.515   4.261  0.6161 -0.5566 -0.5704
  200MOL0     H26390   6.433   7.592   4.483  1.4132 -1.5628  0.4518
  200MOL0     H26391   6.340   7.591   4.333 -2.6302 -3.2285 -0.4233
  200MOL0     H26392   6.613   7.482   4.387 -0.5176 -0.9380 -0.3658
  200MOL0     H26393   6.510   7.405   4.255  1.4491 -0.1110 -0.9690
  200MOL0     H26394   6.476   7.600   4.136  0.1536 -0.0803 -0.6093
  200MOL0     H26395   6.628   7.528   4.137 -0.1184  0.2221  0.5083
  200MOL0     H26396   6.736   7.698   4.267 -0.1345 -3.9036  0.8652
  200MOL0     H26397   6.636   7.774   4.145 -2.2459 -2.7282 -1.9978
  200MOL0     H26398   6.494   7.926   4.511 -0.3360 -1.1728  0.7043
  200MOL0     H26399   6.197   7.275   4.611 -0.3161 -1.1371  0.7136
  200MOL0     H26400   5.969   7.240   4.619  1.5088  1.1011  0.8583
  201MOL0     O26401  11.014   7.779   2.675 -0.2498  0.0090 -0.5918
  201MOL0     C26402  11.055   7.828   2.574 -0.5074 -0.5968  0.4857
  201MOL0     O26403  10.995   7.932   2.500  1.0444 -0.0425 -0.2496
  201MOL0     C26404  10.864   7.955   2.520  0.3516 -0.0593 -0.4645
  201MOL0     C26405  10.818   7.994   2.656 -0.2724  0.6675  0.0571
  201MOL0     C26406  10.682   8.022   2.668  0.2868 -0.1573 -0.0625
  201MOL0     C26407  10.595   8.023   2.558 -0.2219  0.3791 -0.1010
  201MOL0     O26408  10.465   8.064   2.572 -0.0811 -0.1323  0.4781
  201MOL0     C26409  10.462   8.204   2.617  0.8857  0.8373 -0.6402
  201MOL0     C26410  10.390   8.206   2.750  1.0621  0.7128  0.2716
  201MOL0     C26411  10.235   8.181   2.742  0.4366  0.1098  0.1763
  201MOL0     C26412  10.162   8.302   2.684 -0.1170  0.5092 -0.3673
  201MOL0     C26413  10.007   8.276   2.696 -0.4673 -0.5582  0.6849
  201MOL0     C26414   9.943   8.306   2.837  0.7875  0.2613  0.5510
  201MOL0     C26415   9.787   8.296   2.844  0.2794  0.1925  0.6260
  201MOL0     C26416   9.735   8.431   2.804  0.4342 -0.0715  0.3754
  201MOL0     N26417   9.587   8.421   2.796 -0.0811 -0.6799 -0.3403
  201MOL0     C26418   9.500   8.451   2.900  0.5775 -0.1625 -0.8468
  201MOL0     C26419   9.374   8.419   2.856 -0.4527  0.2165  0.2028
  201MOL0     C26420   9.257   8.395   2.954 -0.5542  0.0249 -1.0501
  201MOL0     C26421   9.111   8.446   2.924  0.9994  0.1218  0.1831
  201MOL0     C26422   9.036   8.344   2.829  0.2292 -0.7235 -0.2555
  201MOL0     C26423   8.916   8.413   2.773 -0.0838 -1.0632 -0.8696
  201MOL0     O26424   8.850   8.489   2.882  0.2424 -0.5412  0.8387
  201MOL0     C26425   8.743   8.569   2.843 -0.4413  0.1717 -0.0438
  201MOL0     C26426   8.667   8.626   2.947 -1.1992 -0.0088  0.2362
  201MOL0     C26427   8.549   8.707   2.915  0.2599 -0.1254  0.7646
  201MOL0     C26428   8.505   8.719   2.779 -0.5725  0.0236 -1.3431
  201MOL0     C26429   8.382   8.775   2.746 -0.7877 -0.0986 -0.5076
  201MOL0     O26430   8.302   8.797   2.846  0.3141  0.5427  0.6458
  201MOL0     C26431   8.165   8.829   2.834 -0.1963  0.3862 -0.6798
  201MOL0     C26432   8.093   8.862   2.718  0.0503  0.1315 -0.1910
  201MOL0     C26433   7.954   8.879   2.739 -0.1025 -0.6614  0.5931
  201MOL0     C26434   7.891   8.872   2.859 -0.1705  0.0541 -0.4681
  201MOL0     O26435   7.756   8.902   2.865 -0.9989 -0.3987 -0.4223
  201MOL0     C26436   7.679   8.890   2.990  0.3331  0.8875  0.3559
  201MOL0     C26437   7.529   8.901   2.973 -0.7700 -0.6869  0.1145
  201MOL0     C26438   7.441   8.937   3.088  0.4053  0.1665 -0.3935
  201MOL0     C26439   7.297   8.922   3.045  0.1550  0.2782 -0.0555
  201MOL0     C26440   7.204   8.982   3.148  0.0822 -0.0030 -1.2595
  201MOL0     C26441   7.066   8.939   3.127  1.6490  0.1987 -0.1483
  201MOL0     C26442   6.969   9.008   3.229  0.8910 -0.3475 -0.1031
  201MOL0     C26443   6.826   9.011   3.182 -1.2557  0.0969 -0.4750
  201MOL0    Cl26444   6.785   8.852   3.132  0.1218 -0.0691  0.0122
  201MOL0     C26445   7.966   8.835   2.974 -0.5610 -0.6690  0.0970
  201MOL0     C26446   8.109   8.818   2.962  0.5617 -0.1921  1.2801
  201MOL0     O26447   8.354   8.793   2.626 -0.2055 -0.0773  0.0969
  201MOL0     C26448   8.585   8.661   2.677 -1.1459  0.1554  0.3957
  201MOL0     C26449   8.704   8.594   2.712 -0.2303 -0.0322  0.5519
  201MOL0     N26450   9.393   8.381   2.718 -0.0371  0.5720 -0.5729
  201MOL0     N26451   9.524   8.385   2.682  0.5380 -0.4862  0.2816
  201MOL0     C26452  10.634   7.979   2.430 -1.2761  0.0779 -0.3333
  201MOL0     C26453  10.772   7.946   2.416 -0.1876  0.8884  0.2777
  201MOL0     C26454  11.192   7.786   2.518  0.3644 -0.6670 -0.4210
  201MOL0     C26455  11.247   7.836   2.395 -0.2953 -0.3239 -0.1758
  201MOL0     C26456  11.376   7.795   2.356  0.4161 -0.1581 -0.5089
  201MOL0     C26457  11.455   7.709   2.436 -0.0920  0.2959 -0.0556
  201MOL0     O26458  11.576   7.670   2.377 -0.3336 -0.2928  0.6877
  201MOL0     C26459  11.670   7.596   2.455  0.7357 -0.0135 -1.1387
  201MOL0     C26460  11.737   7.670   2.573 -0.3148  0.2712  0.5696
  201MOL0     C26461  11.835   7.771   2.515  0.3261  0.7225  0.2653
  201MOL0     C26462  11.920   7.858   2.609  0.9364  0.3969  0.2144
  201MOL0     C26463  12.065   7.837   2.607  0.7371  0.8719 -0.6531
  201MOL0     C26464  12.185   7.841   2.627  1.1645  0.6661 -0.0271
  201MOL0     C26465  11.408   7.667   2.554  0.1391  0.0245 -0.5053
  201MOL0     C26466  11.277   7.703   2.592 -0.2642  0.7554 -0.4377
  201MOL0     H26467  10.889   8.003   2.737 -2.3415  0.1895  2.0472
  201MOL0     H26468  10.638   8.064   2.758 -3.5457 -0.6205 -1.5169
  201MOL0     H26469  10.410   8.268   2.545 -0.4201 -0.1890 -0.6331
  201MOL0     H26470  10.566   8.240   2.617  0.3549  2.4907 -1.4168
  201MOL0     H26471  10.406   8.300   2.804 -0.7115 -0.1289  2.4091
  201MOL0     H26472  10.438   8.129   2.812 -2.5219 -2.3624 -0.4342
  201MOL0     H26473  10.193   8.142   2.836  0.7093 -2.0524 -0.5398
  201MOL0     H26474  10.214   8.100   2.671  1.4293 -1.3198  1.4319
  201MOL0     H26475  10.211   8.388   2.730  1.5657 -1.2210  1.2385
  201MOL0     H26476  10.179   8.302   2.575 -3.4430  0.4541 -0.9717
  201MOL0     H26477   9.974   8.179   2.659 -3.1202  0.1916  0.8918
  201MOL0     H26478   9.963   8.349   2.627 -0.4820  0.5763  1.8496
  201MOL0     H26479   9.965   8.408   2.869 -0.7915  0.2125  1.9427
  201MOL0     H26480   9.987   8.231   2.904  1.3515 -0.3863 -0.5150
  201MOL0     H26481   9.758   8.223   2.768 -3.4484  1.3652  0.7391
  201MOL0     H26482   9.756   8.274   2.946  0.5592  1.2825  0.9588
  201MOL0     H26483   9.775   8.463   2.707 -1.1442 -0.6710 -0.5181
  201MOL0     H26484   9.763   8.504   2.880 -1.9733  1.4947 -0.1077
  201MOL0     H26485   9.530   8.476   3.001  1.6554  1.4848 -1.5403
  201MOL0     H26486   9.284   8.452   3.043 -1.1437  1.0342 -1.4969
  201MOL0     H26487   9.254   8.290   2.986 -2.2277  0.5185  0.5379
  201MOL0     H26488   9.119   8.547   2.882 -0.8412  1.3215  2.4930
  201MOL0     H26489   9.053   8.457   3.016  0.1680  0.6507 -0.3963
  201MOL0     H26490   9.101   8.302   2.753  0.8034 -1.0581  0.4076
  201MOL0     H26491   9.003   8.261   2.893  1.3368 -1.2554 -0.3543
  201MOL0     H26492   8.844   8.340   2.735 -1.2197 -0.4715  0.0457
  201MOL0     H26493   8.950   8.476   2.691  0.9501 -0.2097  0.1645
  201MOL0     H26494   8.690   8.598   3.049 -0.4721 -3.8791 -0.7911
  201MOL0     H26495   8.491   8.739   3.001  1.2893  2.3093  0.6192
  201MOL0     H26496   8.136   8.892   2.623 -1.0362  0.1258 -0.7033
  201MOL0     H26497   7.893   8.896   2.651  0.3642 -0.6162  0.2723
  201MOL0     H26498   7.706   8.969   3.061 -0.2662 -0.8853  2.6539
  201MOL0     H26499   7.704   8.795   3.037  2.1769  1.6393  1.0182
  201MOL0     H26500   7.496   8.807   2.927  2.4294 -1.8455 -0.1273
  201MOL0     H26501   7.512   8.981   2.902 -0.0649  1.7714  2.5182
  201MOL0     H26502   7.465   9.040   3.114 -2.1622  0.5531  0.7282
  201MOL0     H26503   7.462   8.862   3.165  1.0512 -0.9537 -1.6064
  201MOL0     H26504   7.274   8.962   2.945 -2.8854  2.0651  1.2227
  201MOL0     H26505   7.282   8.814   3.034  2.1317  0.0145 -0.4349
  201MOL0     H26506   7.208   9.091   3.139  0.0034 -0.0475 -1.8371
  201MOL0     H26507   7.242   8.948   3.245 -2.1357  2.8616  0.8017
  201MOL0     H26508   7.058   8.830   3.130  1.2515  0.1958 -1.0352
  201MOL0     H26509   7.037   8.973   3.027  0.3581 -0.6047 -0.0585
  201MOL0     H26510   6.967   8.959   3.327 -0.5827  2.8002  1.6269
  201MOL0     H26511   7.005   9.111   3.238  1.8643 -0.6912  0.0985
  201MOL0     H26512   6.813   9.084   3.102  2.8272 -0.0132 -1.4602
  201MOL0     H26513   6.763   9.046   3.264  0.9656 -0.7034  1.7006
  201MOL0     H26514   7.910   8.813   3.064  0.1979  0.2535  0.8159
  201MOL0     H26515   8.168   8.792   3.049  1.1326 -1.7009  0.4734
  201MOL0     H26516   8.555   8.668   2.572  2.9903  2.0024 -0.8566
  201MOL0     H26517   8.764   8.564   2.627 -0.4660 -0.8252  0.6571
  201MOL0     H26518  10.568   7.977   2.344 -0.5074  2.6707 -1.0705
  201MOL0     H26519  10.810   7.895   2.328  1.4957  0.7391  1.0488
  201MOL0     H26520  11.205   7.919   2.340 -2.9477  0.0302  2.1278
  201MOL0     H26521  11.416   7.834   2.263  0.0135  0.6598 -0.3435
  201MOL0     H26522  11.757   7.568   2.394 -0.8065 -1.9259 -2.6000
  201MOL0     H26523  11.624   7.500   2.481  2.0875 -1.0262 -2.2813
  201MOL0     H26524  11.658   7.723   2.626 -0.4812  1.4891 -0.8100
  201MOL0     H26525  11.778   7.599   2.645 -2.1346 -0.6667  0.7405
  201MOL0     H26526  11.767   7.842   2.466  1.0210  1.8331  0.8588
  201MOL0     H26527  11.904   7.716   2.451  1.2418  0.6623  1.2864
  201MOL0     H26528  11.892   7.962   2.589  0.1710 -0.4575 -4.2090
  201MOL0     H26529  11.881   7.849   2.711  0.0104 -3.3042 -0.3017
  201MOL0     H26530  12.288   7.865   2.637  1.5069 -0.4788 -0.6595
  201MOL0     H26531  11.460   7.609   2.630 -1.3309  2.3596  2.5049
  201MOL0     H26532  11.242   7.683   2.692  2.6377  1.9386  0.9361
  202MOL0     O26533   6.878  10.122   1.077  0.0869 -0.1986  0.5237
  202MOL0     C26534   6.925  10.208   1.150 -0.9424 -0.0843  0.4618
  202MOL0     O26535   6.865  10.267   1.257  0.6328  0.7792 -0.4427
  202MOL0     C26536   6.740  10.226   1.309 -0.1729 -0.0662 -0.4713
  202MOL0     C26537   6.647  10.129   1.268 -0.8740  0.9139 -0.6106
  202MOL0     C26538   6.536  10.108   1.336 -0.0845 -0.4652  0.0854
  202MOL0     C26539   6.499  10.187   1.447  0.4135  0.0890  0.2903
  202MOL0     O26540   6.383  10.174   1.528  0.2640  0.0728  0.6391
  202MOL0     C26541   6.267  10.102   1.471  0.1806  0.0808 -0.0607
  202MOL0     C26542   6.182  10.040   1.584  0.4657 -1.2917 -0.1920
  202MOL0     C26543   6.255   9.924   1.643  0.1086  0.1265  0.1850
  202MOL0     C26544   6.176   9.848   1.756 -0.2577 -0.8053 -0.0144
  202MOL0     C26545   6.218   9.706   1.774  0.1136 -0.1535  0.1174
  202MOL0     C26546   6.369   9.679   1.810  0.6102  0.7207 -0.1618
  202MOL0     C26547   6.412   9.715   1.954 -0.4711  0.0467 -0.4990
  202MOL0     C26548   6.545   9.642   1.995  0.4232  0.2785 -0.0989
  202MOL0     N26549   6.665   9.699   1.942  0.6621 -0.2646  0.5072
  202MOL0     C26550   6.705   9.829   1.969  0.1755  0.0585  0.1462
  202MOL0     C26551   6.816   9.859   1.895  0.1499  0.4127  0.8980
  202MOL0     C26552   6.891   9.991   1.886 -0.3717  0.0821 -0.3926
  202MOL0     C26553   6.972  10.039   2.013 -0.2923  0.6343  0.6666
  202MOL0     C26554   7.008  10.192   2.023  0.4350  0.0706 -0.5941
  202MOL0     C26555   7.070  10.241   1.892 -0.6733 -0.0163 -1.1630
  202MOL0     O26556   7.111  10.384   1.895 -0.2907 -0.2764 -0.1395
  202MOL0     C26557   7.194  10.432   1.791 -0.8828  0.1087 -0.0765
  202MOL0     C26558   7.276  10.543   1.807 -0.0229 -0.3733  0.6971
  202MOL0     C26559   7.375  10.581   1.714 -0.3646 -1.1668  0.0182
  202MOL0     C26560   7.385  10.509   1.592  1.1767  0.7136 -0.2805
  202MOL0     C26561   7.502  10.525   1.506 -0.4757  0.3997  0.2006
  202MOL0     O26562   7.572  10.644   1.521  0.1982 -0.4257 -0.3808
  202MOL0     C26563   7.681  10.670   1.443  0.1961  0.5678 -0.4269
  202MOL0     C26564   7.814  10.686   1.490  0.2027 -0.2122  0.4244
  202MOL0     C26565   7.915  10.716   1.394 -0.3240  0.2142  0.2635
  202MOL0     C26566   7.891  10.744   1.262 -0.0248 -0.5845 -0.1125
  202MOL0     O26567   7.994  10.781   1.185 -0.4653  0.7302 -0.1737
  202MOL0     C26568   7.983  10.731   1.055  0.0511 -0.4774  0.4070
  202MOL0     C26569   8.092  10.801   0.966  0.3622  0.0971  0.0065
  202MOL0     C26570   8.229  10.745   0.992 -0.0583  0.1462  0.2554
  202MOL0     C26571   8.337  10.799   0.881  0.0285 -0.5649 -0.2881
  202MOL0     C26572   8.476  10.750   0.914 -0.6959 -0.6322  0.5225
  202MOL0     C26573   8.585  10.822   0.827  0.3147  0.3047 -0.2175
  202MOL0     C26574   8.719  10.770   0.871  0.0983 -0.2678  0.9237
  202MOL0     C26575   8.830  10.822   0.783 -0.5671  0.5475  0.4568
  202MOL0    Cl26576   8.978  10.763   0.847  0.1401  0.1139  0.6429
  202MOL0     C26577   7.762  10.739   1.220  0.4546  0.4236 -0.1154
  202MOL0     C26578   7.655  10.692   1.300  0.0631  0.6406 -0.1142
  202MOL0     O26579   7.525  10.448   1.411  0.3765 -0.0413  0.3120
  202MOL0     C26580   7.289  10.407   1.568 -0.5599 -0.5310 -0.1688
  202MOL0     C26581   7.195  10.369   1.671 -0.5644 -0.1584  0.3410
  202MOL0     N26582   6.837   9.746   1.818 -0.3312  0.0205  0.1740
  202MOL0     N26583   6.758   9.653   1.853 -0.7196  0.1885  0.8454
  202MOL0     C26584   6.586  10.284   1.489 -0.3838 -0.2246  0.5030
  202MOL0     C26585   6.715  10.300   1.426 -0.3270 -0.5082  0.4568
  202MOL0     C26586   7.067  10.242   1.113 -0.2954 -0.3040  0.5547
  202MOL0     C26587   7.147  10.321   1.197 -0.7648  0.0779 -0.7088
  202MOL0     C26588   7.283  10.337   1.173 -0.2167  1.2852 -0.2183
  202MOL0     C26589   7.339  10.294   1.044  0.6158  0.1851 -0.2754
  202MOL0     O26590   7.463  10.331   0.993  0.8573  0.1632  0.1782
  202MOL0     C26591   7.564  10.389   1.082 -0.1028  0.0554  0.3744
  202MOL0     C26592   7.698  10.408   1.001  0.1807 -1.3837 -0.3810
  202MOL0     C26593   7.783  10.283   1.011  0.7115  0.3849  0.2760
  202MOL0     C26594   7.891  10.304   0.905 -0.0085 -0.3922 -0.8001
  202MOL0     C26595   7.995  10.194   0.904  0.4941 -0.0787 -0.6120
  202MOL0     C26596   8.080  10.106   0.920  0.6883  0.0780 -0.2712
  202MOL0     C26597   7.259  10.206   0.968  0.0074  0.2295 -0.2739
  202MOL0     C26598   7.129  10.175   1.001 -1.1936 -0.4297  1.9188
  202MOL0     H26599   6.673  10.060   1.187 -2.0983  0.3834 -0.5744
  202MOL0     H26600   6.478  10.026   1.296 -1.3188 -1.9604  4.4577
  202MOL0     H26601   6.304  10.018   1.412  0.2637  1.8004 -2.5761
  202MOL0     H26602   6.214  10.172   1.406 -0.4117  0.3070  0.6431
  202MOL0     H26603   6.087  10.008   1.540 -0.8731  2.3547 -0.3488
  202MOL0     H26604   6.150  10.100   1.670  0.2987 -2.4508  0.5852
  202MOL0     H26605   6.355   9.949   1.681  0.5149  0.5858 -1.1016
  202MOL0     H26606   6.276   9.858   1.558  0.7360  0.6389 -0.0773
  202MOL0     H26607   6.200   9.897   1.851  1.1409  0.5825 -1.0445
  202MOL0     H26608   6.069   9.842   1.734 -0.2363 -0.9362 -0.0847
  202MOL0     H26609   6.177   9.652   1.688 -1.0834 -1.5331  1.5086
  202MOL0     H26610   6.162   9.667   1.859 -0.5868  1.5807  0.4938
  202MOL0     H26611   6.425   9.744   1.742 -1.2719  2.6966  0.0414
  202MOL0     H26612   6.389   9.572   1.799 -2.1589 -0.0279  1.1410
  202MOL0     H26613   6.427   9.823   1.966 -1.5030  0.0724  0.7755
  202MOL0     H26614   6.337   9.687   2.028  1.3252 -0.1677  1.3538
  202MOL0     H26615   6.541   9.537   1.967 -1.0270  0.2176  0.2716
  202MOL0     H26616   6.550   9.650   2.104 -1.6735  1.9333 -0.0568
  202MOL0     H26617   6.648   9.889   2.039  0.3011 -0.5756  0.8071
  202MOL0     H26618   6.815  10.068   1.870 -0.9360 -0.5297 -0.6809
  202MOL0     H26619   6.962   9.977   1.803  0.6344  0.3389  0.4130
  202MOL0     H26620   7.062   9.979   2.006  0.0855  1.4051 -3.2463
  202MOL0     H26621   6.911  10.014   2.100  2.8136 -2.2193  2.2577
  202MOL0     H26622   6.913  10.244   2.037  1.0054  1.1981 -0.8022
  202MOL0     H26623   7.083  10.216   2.099  0.4774 -1.7614  0.0023
  202MOL0     H26624   6.999  10.222   1.811 -2.2659  0.9467 -0.0377
  202MOL0     H26625   7.151  10.176   1.857 -3.0623 -4.5291  0.8755
  202MOL0     H26626   7.275  10.590   1.905 -1.6256  0.6447  0.2331
  202MOL0     H26627   7.451  10.657   1.728  1.5467 -2.4869 -2.3522
  202MOL0     H26628   7.837  10.677   1.596  0.2357 -0.0525  0.4312
  202MOL0     H26629   8.015  10.723   1.434 -0.2866  1.0433  0.0473
  202MOL0     H26630   7.894  10.756   0.997  1.4801 -1.9812 -2.7017
  202MOL0     H26631   7.999  10.622   1.050  0.4523 -0.4034 -0.0057
  202MOL0     H26632   8.099  10.906   0.995  0.5055 -0.5237  2.4209
  202MOL0     H26633   8.070  10.798   0.859  2.4349  1.7017 -0.5421
  202MOL0     H26634   8.234  10.636   0.984 -2.0810  0.1152 -1.3041
  202MOL0     H26635   8.254  10.765   1.097  2.7544 -3.0317  0.3675
  202MOL0     H26636   8.301  10.751   0.789 -1.5624 -1.6259  0.8334
  202MOL0     H26637   8.335  10.908   0.869 -0.4730 -0.7138 -1.7538
  202MOL0     H26638   8.488  10.646   0.880 -1.0089 -0.1322 -1.2169
  202MOL0     H26639   8.498  10.772   1.018 -1.0334  2.8763 -0.0399
  202MOL0     H26640   8.587  10.931   0.838  0.1659  0.2043  0.9436
  202MOL0     H26641   8.578  10.803   0.720  2.9470  1.1002 -0.6045
  202MOL0     H26642   8.737  10.801   0.975 -1.4494  0.1939  1.0804
  202MOL0     H26643   8.722  10.663   0.854 -0.0757  0.2709 -3.6588
  202MOL0     H26644   8.823  10.931   0.768 -1.9384  0.3995 -0.0774
  202MOL0     H26645   8.826  10.787   0.679 -1.1694  1.4947  0.1407
  202MOL0     H26646   7.730  10.756   1.117  0.3003  0.2585 -0.0961
  202MOL0     H26647   7.551  10.681   1.272  0.1786 -0.3825 -0.2081
  202MOL0     H26648   7.279  10.351   1.476  0.3322 -2.8527  1.0706
  202MOL0     H26649   7.127  10.290   1.641 -0.7019  0.0928 -0.0270
  202MOL0     H26650   6.565  10.353   1.571  0.1219  0.1246  0.3480
  202MOL0     H26651   6.789  10.371   1.462 -0.5803  0.8789 -1.5911
  202MOL0     H26652   7.098  10.362   1.284 -0.9919 -1.9545  0.1711
  202MOL0     H26653   7.349  10.381   1.248  0.2005 -0.2290  0.3453
  202MOL0     H26654   7.590  10.323   1.165  0.8709 -1.5437 -1.1159
  202MOL0     H26655   7.528  10.482   1.127 -1.5030 -0.9899  1.5396
  202MOL0     H26656   7.661  10.430   0.900 -0.3067  2.7492  0.4971
  202MOL0     H26657   7.740  10.504   1.033 -2.5061 -0.3847  0.3596
  202MOL0     H26658   7.719  10.199   0.984  0.0964 -0.0580  2.8168
  202MOL0     H26659   7.822  10.264   1.112 -0.6278 -1.4368  0.5052
  202MOL0     H26660   7.848  10.296   0.805  0.0064 -5.2076 -0.6168
  202MOL0     H26661   7.935  10.403   0.921  1.4759 -1.3654  1.8029
  202MOL0     H26662   8.159  10.036   0.942  1.4010  0.9065 -0.1436
  202MOL0     H26663   7.310  10.160   0.883  0.7675 -0.6665  0.6470
  202MOL0     H26664   7.076  10.102   0.940  0.4505 -0.2340  0.1494
  203MOL0     O26665   9.806   0.463   4.446  0.1440  0.2831  0.5110
  203MOL0     C26666   9.827   0.514   4.558 -0.3012 -0.2628 -0.4388
  203MOL0     O26667   9.741   0.516   4.660 -0.3716 -0.2540 -0.8678
  203MOL0     C26668   9.632   0.440   4.655 -0.8731  0.0844  0.4324
  203MOL0     C26669   9.609   0.343   4.755 -0.5880  0.0108  0.1819
  203MOL0     C26670   9.497   0.258   4.749 -0.1973  0.2896  0.3239
  203MOL0     C26671   9.406   0.271   4.643  0.3321 -0.6915  0.1692
  203MOL0     O26672   9.287   0.207   4.631 -0.0667  1.0784  0.5104
  203MOL0     C26673   9.275   0.094   4.715  0.5845 -0.0679  0.2261
  203MOL0     C26674   9.138   0.022   4.702 -0.3179 -0.1785  0.7898
  203MOL0     C26675   9.098  -0.003   4.557 -0.1015 -0.0444 -0.9118
  203MOL0     C26676   8.954  -0.059   4.553 -0.3072 -0.3888 -0.2872
  203MOL0     C26677   8.940  -0.141   4.423 -0.6293 -0.7430 -0.2205
  203MOL0     C26678   8.799  -0.188   4.385  0.1543  0.6809  0.1329
  203MOL0     C26679   8.759  -0.323   4.460  0.2293 -0.2999  0.7121
  203MOL0     C26680   8.630  -0.379   4.408 -0.0759  0.3304 -0.2137
  203MOL0     N26681   8.508  -0.300   4.417  0.4102 -0.9370  0.6140
  203MOL0     C26682   8.462  -0.259   4.539  0.5712 -0.3356 -0.3292
  203MOL0     C26683   8.365  -0.164   4.503 -0.2709  0.0425  0.0691
  203MOL0     C26684   8.293  -0.068   4.585 -0.3660 -0.3978  0.4293
  203MOL0     C26685   8.135  -0.094   4.584  0.8284 -0.1941 -0.0752
  203MOL0     C26686   8.062   0.031   4.629  1.2936  0.3225  0.5088
  203MOL0     C26687   7.914   0.023   4.582 -0.5681  0.1655  0.1972
  203MOL0     O26688   7.847  -0.095   4.638 -0.6107  0.6363  0.1191
  203MOL0     C26689   7.723  -0.117   4.594 -0.1518  0.0692 -0.2208
  203MOL0     C26690   7.647  -0.050   4.498 -0.4168  0.1839 -0.1960
  203MOL0     C26691   7.517  -0.093   4.466  0.3797 -0.5688 -0.3338
  203MOL0     C26692   7.456  -0.201   4.538 -0.0152  0.2677  0.8299
  203MOL0     C26693   7.325  -0.262   4.494 -0.8264 -0.2506 -0.5578
  203MOL0     O26694   7.280  -0.358   4.579  0.3943  0.2226  0.3288
  203MOL0     C26695   7.150  -0.408   4.577 -0.6329  0.1714 -0.9306
  203MOL0     C26696   7.100  -0.434   4.712  0.0297 -0.9673 -0.1797
  203MOL0     C26697   6.973  -0.481   4.726 -0.4460  0.3316 -0.8404
  203MOL0     C26698   6.894  -0.496   4.619  0.2492  0.2957  0.5661
  203MOL0     O26699   6.772  -0.557   4.633  0.0319  0.6229 -0.4771
  203MOL0     C26700   6.680  -0.460   4.667  0.6759  0.2402 -0.0108
  203MOL0     C26701   6.546  -0.536   4.674 -0.2050 -0.0210  0.0460
  203MOL0     C26702   6.551  -0.652   4.775  0.2239  0.3497 -0.6872
  203MOL0     C26703   6.406  -0.709   4.778  0.0570  0.6708 -0.0672
  203MOL0     C26704   6.380  -0.827   4.880  0.0187  0.0430  0.2548
  203MOL0     C26705   6.238  -0.896   4.842 -0.4430 -0.5042  0.1301
  203MOL0     C26706   6.200  -0.988   4.958 -0.0650 -0.6834 -0.1907
  203MOL0     C26707   6.064  -1.046   4.931  0.1209 -0.2885  0.3120
  203MOL0    Cl26708   5.994  -1.150   5.052 -0.0563 -0.2118 -0.3540
  203MOL0     C26709   6.942  -0.477   4.486  0.2868 -0.0247 -0.7070
  203MOL0     C26710   7.070  -0.444   4.464  0.6576  0.1060  0.4742
  203MOL0     O26711   7.261  -0.210   4.403  0.5611 -0.0775  0.1834
  203MOL0     C26712   7.538  -0.261   4.639  0.1734 -0.3687 -0.2875
  203MOL0     C26713   7.668  -0.223   4.663  0.5243  0.1513 -0.6394
  203MOL0     N26714   8.356  -0.153   4.362 -0.0062 -0.0132 -0.2513
  203MOL0     N26715   8.433  -0.249   4.314  0.1391 -0.1174 -0.9394
  203MOL0     C26716   9.429   0.363   4.541  0.1567  0.4209 -0.0846
  203MOL0     C26717   9.539   0.449   4.554  0.2119  0.8101  0.3080
  203MOL0     C26718   9.955   0.577   4.586 -1.0217  0.3900 -0.5962
  203MOL0     C26719  10.049   0.596   4.484 -0.2251  0.2312  0.3401
  203MOL0     C26720  10.171   0.657   4.507  0.4065 -0.1725  1.2024
  203MOL0     C26721  10.198   0.716   4.626  0.0054 -0.0741  0.0372
  203MOL0     O26722  10.318   0.769   4.640  0.5350  0.0490 -0.3914
  203MOL0     C26723  10.392   0.783   4.771  0.6055 -0.3026  0.3682
  203MOL0     C26724  10.547   0.771   4.764 -0.2779  0.0341  0.7236
  203MOL0     C26725  10.632   0.877   4.686  0.1882 -0.2166 -0.3636
  203MOL0     C26726  10.781   0.860   4.734 -0.7582  0.2631 -0.0422
  203MOL0     C26727  10.872   0.966   4.669  0.4545 -0.6561  0.0081
  203MOL0     C26728  10.929   1.055   4.613  0.0325  0.4166  0.4768
  203MOL0     C26729  10.102   0.705   4.734  0.1866 -0.7200 -0.4291
  203MOL0     C26730   9.986   0.639   4.717 -0.7569  0.5920 -0.6032
  203MOL0     H26731   9.680   0.338   4.838  2.6234 -0.0271 -2.3482
  203MOL0     H26732   9.483   0.184   4.828 -2.0877 -1.5068 -1.5343
  203MOL0     H26733   9.277   0.110   4.823 -1.1663 -4.5852  1.1787
  203MOL0     H26734   9.352   0.018   4.696  0.4917  0.6382 -3.8051
  203MOL0     H26735   9.055   0.074   4.753 -2.9287 -1.0629 -2.2406
  203MOL0     H26736   9.142  -0.077   4.746 -1.6948 -1.6847 -2.1882
  203MOL0     H26737   9.171  -0.080   4.529  0.6362  0.1931  0.2948
  203MOL0     H26738   9.114   0.089   4.499 -0.1653  1.9131  1.9279
  203MOL0     H26739   8.944  -0.120   4.643  3.7627 -0.6045  0.1981
  203MOL0     H26740   8.878   0.020   4.558 -0.5955 -0.7290  2.8850
  203MOL0     H26741   9.005  -0.229   4.427  0.1261 -0.2817 -1.5601
  203MOL0     H26742   8.988  -0.079   4.347 -0.7503 -0.7902 -0.3365
  203MOL0     H26743   8.793  -0.225   4.282 -1.7565 -2.4665  1.2298
  203MOL0     H26744   8.722  -0.112   4.395 -0.9226 -0.5647  1.9047
  203MOL0     H26745   8.843  -0.392   4.450  1.8690  1.7742 -0.6092
  203MOL0     H26746   8.753  -0.289   4.564 -3.7262  0.5182  0.3660
  203MOL0     H26747   8.611  -0.475   4.457 -1.5200  0.0566 -1.2517
  203MOL0     H26748   8.635  -0.415   4.305 -1.5750 -0.5363 -0.0171
  203MOL0     H26749   8.519  -0.273   4.631  2.0839  0.5334 -1.0999
  203MOL0     H26750   8.317   0.028   4.538 -0.4011 -0.5292  0.1398
  203MOL0     H26751   8.339  -0.059   4.684  0.3626 -1.7380  0.2371
  203MOL0     H26752   8.108  -0.178   4.648  2.3534 -0.6710 -0.0081
  203MOL0     H26753   8.111  -0.121   4.481  3.2142  0.1686 -0.7927
  203MOL0     H26754   8.066   0.046   4.737  0.4655 -2.4676  1.0240
  203MOL0     H26755   8.102   0.119   4.578 -1.1359  1.2087 -0.0450
  203MOL0     H26756   7.914   0.007   4.473 -4.4775  1.9105 -0.2147
  203MOL0     H26757   7.865   0.118   4.605 -0.0418  0.0816  1.7532
  203MOL0     H26758   7.685   0.033   4.439 -1.2136  0.0306 -0.9479
  203MOL0     H26759   7.461  -0.053   4.383 -1.1750 -1.4780  0.2291
  203MOL0     H26760   7.156  -0.422   4.804 -1.5022 -0.9847  0.7853
  203MOL0     H26761   6.934  -0.505   4.824 -2.3365 -2.9353 -2.2169
  203MOL0     H26762   6.678  -0.374   4.598 -1.8512  1.8836  1.9334
  203MOL0     H26763   6.692  -0.424   4.770  0.0961 -1.9852  0.8879
  203MOL0     H26764   6.532  -0.577   4.574  0.2241  1.6709 -0.7456
  203MOL0     H26765   6.462  -0.467   4.690  0.3757  1.5487 -2.9441
  203MOL0     H26766   6.580  -0.603   4.868  1.2811 -0.5850 -0.4949
  203MOL0     H26767   6.629  -0.727   4.757 -1.5768 -2.0249  0.7404
  203MOL0     H26768   6.343  -0.628   4.817 -3.0611 -1.4327 -0.4429
  203MOL0     H26769   6.355  -0.728   4.684 -4.1005 -0.3746  2.1482
  203MOL0     H26770   6.384  -0.795   4.984 -1.2356 -0.4265  0.4713
  203MOL0     H26771   6.453  -0.906   4.862  1.8691  1.7140  0.1816
  203MOL0     H26772   6.240  -0.952   4.748 -0.4456 -1.0602  0.4542
  203MOL0     H26773   6.158  -0.821   4.835 -1.1305 -1.2796 -0.5320
  203MOL0     H26774   6.275  -1.066   4.971  1.8498  1.1123  0.0595
  203MOL0     H26775   6.206  -0.926   5.048  0.1635  0.4588 -0.9670
  203MOL0     H26776   6.080  -1.093   4.834  0.2262 -0.3432  0.3555
  203MOL0     H26777   5.983  -0.973   4.917 -0.3063 -1.2325 -2.9662
  203MOL0     H26778   6.881  -0.520   4.407  1.8394  0.1273 -2.0391
  203MOL0     H26779   7.110  -0.438   4.364 -1.4495 -0.4728 -0.4412
  203MOL0     H26780   7.504  -0.356   4.677 -2.2097  1.2406  1.9285
  203MOL0     H26781   7.721  -0.288   4.731 -0.9533  0.6476  1.0483
  203MOL0     H26782   9.351   0.362   4.465 -0.1314  1.3479  0.1884
  203MOL0     H26783   9.538   0.528   4.480  0.0049  0.2690 -0.2813
  203MOL0     H26784  10.037   0.548   4.388  0.4817  1.6336 -0.4752
  203MOL0     H26785  10.243   0.664   4.426 -0.0767 -2.5094  0.4760
  203MOL0     H26786  10.348   0.715   4.845 -0.9398 -3.0850 -2.8389
  203MOL0     H26787  10.375   0.885   4.806  3.8046  0.6841 -0.6042
  203MOL0     H26788  10.591   0.782   4.864  3.8967 -0.7945 -0.8288
  203MOL0     H26789  10.568   0.672   4.723 -0.0942 -0.1070  1.1560
  203MOL0     H26790  10.590   0.973   4.716 -1.8304 -1.7913  2.4026
  203MOL0     H26791  10.619   0.867   4.578 -0.3998  2.0365 -0.5315
  203MOL0     H26792  10.794   0.864   4.842  2.4651 -2.3768 -0.1632
  203MOL0     H26793  10.825   0.766   4.698  1.8170  0.5665  2.0347
  203MOL0     H26794  10.982   1.130   4.559 -0.8011 -0.3110 -1.4354
  203MOL0     H26795  10.120   0.754   4.830  1.4732 -1.9925  0.0113
  203MOL0     H26796   9.909   0.646   4.793  0.9113  3.2294  1.0177
  204MOL0     O26797   5.753   1.842   5.926  0.2632 -0.1630 -0.5440
  204MOL0     C26798   5.852   1.904   5.911 -0.1636  0.1850  1.0261
  204MOL0     O26799   5.896   1.952   5.791 -0.3456  0.4458 -0.1752
  204MOL0     C26800   5.821   1.955   5.681 -0.3075 -0.0567 -0.0968
  204MOL0     C26801   5.774   1.836   5.623  0.3521  0.1528  0.6808
  204MOL0     C26802   5.682   1.837   5.514  0.1161  0.0748 -0.0065
  204MOL0     C26803   5.652   1.963   5.450  0.0160  0.2361  0.6052
  204MOL0     O26804   5.581   1.966   5.327  0.1331  0.2080 -0.7556
  204MOL0     C26805   5.584   2.083   5.243  0.5931 -1.1139 -0.3633
  204MOL0     C26806   5.458   2.177   5.277 -0.7258 -0.2235  0.2458
  204MOL0     C26807   5.328   2.130   5.194 -0.3995 -0.1215 -0.1525
  204MOL0     C26808   5.200   2.206   5.218 -0.0549 -0.0186  0.3538
  204MOL0     C26809   5.091   2.134   5.134 -0.1849 -1.2489 -0.3836
  204MOL0     C26810   4.958   2.209   5.143  0.2150  0.2863 -0.3219
  204MOL0     C26811   4.872   2.185   5.266  0.2648  0.7131  0.1139
  204MOL0     C26812   4.760   2.286   5.290 -1.4802 -0.0025  0.1011
  204MOL0     N26813   4.686   2.329   5.169 -0.9270 -0.6897 -0.1047
  204MOL0     C26814   4.733   2.417   5.081 -0.1093 -0.4242 -0.2056
  204MOL0     C26815   4.627   2.448   5.002  0.5784  0.2984 -0.2718
  204MOL0     C26816   4.610   2.538   4.886 -0.6855 -0.8346  0.1133
  204MOL0     C26817   4.477   2.502   4.806 -0.3321  1.0678  0.8536
  204MOL0     C26818   4.440   2.626   4.720  0.1302  0.5988  0.1281
  204MOL0     C26819   4.306   2.612   4.659  0.1303 -0.0245 -0.3669
  204MOL0     O26820   4.276   2.724   4.575  0.3168 -0.3189  0.3336
  204MOL0     C26821   4.148   2.751   4.529  0.0730  0.1625  0.2651
  204MOL0     C26822   4.124   2.858   4.440 -0.2765 -0.2920  0.6781
  204MOL0     C26823   3.998   2.884   4.388  0.3992 -0.2797  1.0196
  204MOL0     C26824   3.885   2.806   4.424 -0.5103  0.2073  1.3186
  204MOL0     C26825   3.740   2.840   4.385 -0.3214  0.9296  0.1660
  204MOL0     O26826   3.644   2.768   4.459  0.2230 -0.1454 -0.1106
  204MOL0     C26827   3.514   2.773   4.420 -0.7624  0.0020 -0.2692
  204MOL0     C26828   3.470   2.759   4.286 -1.0996  0.2609  0.5341
  204MOL0     C26829   3.336   2.759   4.250  0.4687 -0.5714  0.2252
  204MOL0     C26830   3.242   2.782   4.349  0.3536  0.7251 -0.5112
  204MOL0     O26831   3.111   2.790   4.315  0.4199 -0.3942  0.0748
  204MOL0     C26832   3.036   2.894   4.382 -0.9876 -0.5452 -0.1991
  204MOL0     C26833   2.901   2.913   4.324 -0.1298  1.1252 -0.6317
  204MOL0     C26834   2.823   3.000   4.417 -0.4908  0.3394 -0.1349
  204MOL0     C26835   2.678   3.009   4.394  0.1875 -0.2030  0.5052
  204MOL0     C26836   2.603   3.089   4.493  0.9619 -0.3580 -0.0766
  204MOL0     C26837   2.448   3.087   4.478 -0.4676 -1.0203  0.1615
  204MOL0     C26838   2.378   3.166   4.585 -0.0329 -0.4780 -0.2573
  204MOL0     C26839   2.355   3.069   4.710  0.7161 -0.7871  0.8286
  204MOL0    Cl26840   2.255   3.170   4.827 -0.5076  0.1380 -0.1396
  204MOL0     C26841   3.283   2.793   4.486 -0.0247 -0.7474  0.1371
  204MOL0     C26842   3.417   2.788   4.517 -0.2894 -0.0256 -0.1305
  204MOL0     O26843   3.725   2.923   4.296  0.4191  0.3804 -0.1863
  204MOL0     C26844   3.911   2.692   4.511 -0.1429  0.0465 -0.1682
  204MOL0     C26845   4.041   2.668   4.557  0.3619 -0.0624  0.4988
  204MOL0     N26846   4.528   2.354   5.032  0.5201  0.0664 -0.3687
  204MOL0     N26847   4.564   2.292   5.135 -0.3439 -0.0586 -0.4061
  204MOL0     C26848   5.689   2.076   5.518  0.0999 -0.1271  0.1878
  204MOL0     C26849   5.768   2.076   5.636  0.0627  0.1410  0.2746
  204MOL0     C26850   5.934   1.922   6.021 -0.3736  0.2282 -0.3226
  204MOL0     C26851   6.041   2.011   6.015 -0.6107 -0.3685  0.0863
  204MOL0     C26852   6.133   2.013   6.113 -1.3326  0.2121  0.1128
  204MOL0     C26853   6.111   1.951   6.237  1.2536 -0.6295 -0.6074
  204MOL0     O26854   6.206   1.951   6.337 -0.4990 -0.1400  0.0156
  204MOL0     C26855   6.341   2.000   6.318 -0.4567 -0.2428 -0.1780
  204MOL0     C26856   6.412   2.014   6.458  0.4905 -0.3159 -0.1517
  204MOL0     C26857   6.550   2.073   6.445  1.4799  0.4459 -1.0914
  204MOL0     C26858   6.646   1.999   6.341 -0.0801  0.2862  0.0919
  204MOL0     C26859   6.783   2.044   6.364 -0.1922 -0.8484 -0.6604
  204MOL0     C26860   6.902   2.085   6.389  0.3572 -0.2010  0.6853
  204MOL0     C26861   6.004   1.864   6.252  0.4211  0.4314  0.5066
  204MOL0     C26862   5.913   1.856   6.142  0.6975 -0.8531  0.2544
  204MOL0     H26863   5.788   1.736   5.662 -3.2120 -0.8867 -0.3514
  204MOL0     H26864   5.646   1.747   5.465  0.2653  0.7083 -1.3329
  204MOL0     H26865   5.578   2.048   5.140  3.5887 -1.1101 -0.6405
  204MOL0     H26866   5.677   2.141   5.247 -1.2795  2.0532  2.9474
  204MOL0     H26867   5.481   2.281   5.251 -1.5610 -0.1886 -0.3876
  204MOL0     H26868   5.444   2.175   5.385  1.7469  0.6803  0.6400
  204MOL0     H26869   5.310   2.027   5.226 -2.2370  0.5986  1.3540
  204MOL0     H26870   5.362   2.133   5.090 -0.6720 -4.0889 -0.5166
  204MOL0     H26871   5.176   2.211   5.325 -1.9764 -2.5498  0.1227
  204MOL0     H26872   5.212   2.310   5.185 -1.7414  0.4648  1.1441
  204MOL0     H26873   5.062   2.036   5.173 -0.0427 -1.1156  0.0637
  204MOL0     H26874   5.129   2.134   5.031 -1.8173  0.5629 -1.0512
  204MOL0     H26875   4.893   2.192   5.057 -1.5951 -0.7178  1.1587
  204MOL0     H26876   4.992   2.313   5.136 -0.6615  0.5550 -0.6962
  204MOL0     H26877   4.837   2.082   5.263 -0.1818  0.7442  2.3340
  204MOL0     H26878   4.936   2.190   5.354  1.2858  0.1660 -0.5855
  204MOL0     H26879   4.805   2.375   5.335  0.6249 -1.0220  0.1368
  204MOL0     H26880   4.691   2.239   5.361  0.4143 -1.3214  1.1633
  204MOL0     H26881   4.834   2.456   5.080 -0.1619  0.0597  3.2089
  204MOL0     H26882   4.701   2.541   4.824 -0.2730  1.5386  0.7169
  204MOL0     H26883   4.599   2.641   4.923  1.6074 -0.6571  0.4355
  204MOL0     H26884   4.390   2.482   4.869 -0.0807 -1.8424  0.3785
  204MOL0     H26885   4.477   2.406   4.753 -0.4513  0.5146  1.8400
  204MOL0     H26886   4.436   2.716   4.782  2.6231  1.0832 -0.2778
  204MOL0     H26887   4.508   2.648   4.637 -3.1522  0.3756 -2.8664
  204MOL0     H26888   4.233   2.603   4.740  1.9317 -3.0745  1.1023
  204MOL0     H26889   4.295   2.521   4.599 -3.7414 -0.4739  0.7109
  204MOL0     H26890   4.198   2.935   4.419 -0.7874  0.3700  1.2625
  204MOL0     H26891   4.003   2.951   4.303  0.5953 -1.3705  0.1479
  204MOL0     H26892   3.549   2.725   4.219 -0.5993  1.3003  0.5741
  204MOL0     H26893   3.308   2.728   4.150 -1.4122 -1.8794  1.1099
  204MOL0     H26894   3.089   2.986   4.357 -0.0428 -1.4411 -1.6858
  204MOL0     H26895   3.042   2.885   4.490 -1.5156  1.6308  0.0407
  204MOL0     H26896   2.847   2.819   4.311 -1.7985  2.1498 -1.5110
  204MOL0     H26897   2.916   2.967   4.229  1.7429 -0.2485 -1.1695
  204MOL0     H26898   2.871   3.098   4.410  0.1316  0.4755  3.7643
  204MOL0     H26899   2.842   2.978   4.523  2.4933 -0.1045 -0.6707
  204MOL0     H26900   2.662   3.057   4.297 -3.7577 -1.8121  0.1823
  204MOL0     H26901   2.636   2.909   4.381  2.5431 -1.0158 -1.8647
  204MOL0     H26902   2.640   3.191   4.486  0.1853  0.0077  0.9044
  204MOL0     H26903   2.628   3.059   4.595 -0.4483  4.3172  1.8740
  204MOL0     H26904   2.400   2.989   4.474 -2.9954 -0.0398  2.8049
  204MOL0     H26905   2.422   3.136   4.383  0.2167  1.2178  1.0708
  204MOL0     H26906   2.435   3.254   4.616  1.9264 -0.8678 -2.4787
  204MOL0     H26907   2.286   3.200   4.538 -1.2317  1.1182  2.9241
  204MOL0     H26908   2.448   3.035   4.756 -0.0172 -2.6837  0.9972
  204MOL0     H26909   2.312   2.973   4.679  1.6706 -0.7224 -0.8313
  204MOL0     H26910   3.206   2.791   4.563  0.6886 -1.0854  0.8641
  204MOL0     H26911   3.449   2.790   4.621 -3.3824 -0.9122  0.9681
  204MOL0     H26912   3.841   2.616   4.543  2.1386 -1.5718  1.3366
  204MOL0     H26913   4.060   2.578   4.616 -1.0215 -2.1463 -2.0031
  204MOL0     H26914   5.661   2.174   5.481  1.0389  0.0855  0.0274
  204MOL0     H26915   5.780   2.169   5.690 -0.9754 -0.1144  0.9844
  204MOL0     H26916   6.057   2.072   5.927 -0.2913 -0.9890 -0.2968
  204MOL0     H26917   6.225   2.071   6.105 -0.8513 -0.6606 -0.9084
  204MOL0     H26918   6.343   2.099   6.270  0.0416  0.3842  1.0796
  204MOL0     H26919   6.403   1.938   6.253 -1.2213  0.9130 -2.1082
  204MOL0     H26920   6.348   2.075   6.522 -2.3088  1.2302 -4.0472
  204MOL0     H26921   6.403   1.917   6.508  1.0885 -1.4416 -2.1083
  204MOL0     H26922   6.590   2.088   6.546  1.1442  0.6620 -0.9891
  204MOL0     H26923   6.541   2.176   6.409  0.1297  1.2469  1.3223
  204MOL0     H26924   6.656   1.895   6.371  2.8920  0.5690  0.4191
  204MOL0     H26925   6.608   2.008   6.239 -1.1603  0.1803  0.4747
  204MOL0     H26926   7.007   2.109   6.391  0.3323 -0.0328  0.0809
  204MOL0     H26927   5.996   1.802   6.341 -1.1591  2.1593  1.6567
  204MOL0     H26928   5.829   1.788   6.146 -1.4555  1.6054 -0.0996
  205MOL0     O26929   8.015   2.069   6.133 -0.1943  0.8820  0.2725
  205MOL0     C26930   8.053   2.038   6.243 -0.2323 -0.0861  0.0454
  205MOL0     O26931   7.993   2.077   6.358 -0.2692 -0.0234  0.5881
  205MOL0     C26932   7.882   2.149   6.354 -0.8079  1.4073  0.1105
  205MOL0     C26933   7.767   2.127   6.282 -0.1495 -0.6821  1.2731
  205MOL0     C26934   7.650   2.203   6.295 -0.1984 -1.4413  0.5197
  205MOL0     C26935   7.632   2.293   6.396  0.4039  0.2304  0.0130
  205MOL0     O26936   7.510   2.358   6.412 -0.0891 -0.1015  0.2202
  205MOL0     C26937   7.485   2.418   6.539 -0.1912  0.4999 -0.0042
  205MOL0     C26938   7.356   2.484   6.534  0.0508 -0.7681 -0.0179
  205MOL0     C26939   7.230   2.396   6.565  0.0676 -1.1504  0.1352
  205MOL0     C26940   7.107   2.492   6.585  0.6019 -0.1523 -0.0564
  205MOL0     C26941   6.979   2.419   6.634 -0.9272  0.4524  0.0419
  205MOL0     C26942   6.855   2.508   6.605 -0.4529  0.5230  0.7515
  205MOL0     C26943   6.726   2.461   6.669 -0.4979 -1.1351 -0.2545
  205MOL0     C26944   6.613   2.560   6.652  1.1102 -0.6186  0.7764
  205MOL0     N26945   6.502   2.540   6.747 -0.4117 -0.4124 -0.2766
  205MOL0     C26946   6.505   2.541   6.885  0.6046 -0.6146 -0.2192
  205MOL0     C26947   6.375   2.527   6.925  0.5477  0.1766  0.4655
  205MOL0     C26948   6.312   2.530   7.060  0.1246 -0.2105 -0.8663
  205MOL0     C26949   6.170   2.591   7.067  0.2844  0.2526 -0.6984
  205MOL0     C26950   6.147   2.655   7.209  0.1226  0.3601  0.1652
  205MOL0     C26951   6.008   2.717   7.241  0.2852 -0.2463 -0.4842
  205MOL0     O26952   5.974   2.813   7.143  0.0109 -0.4693 -0.9549
  205MOL0     C26953   5.845   2.835   7.134  0.1287 -0.0576 -0.0299
  205MOL0     C26954   5.801   2.918   7.030  0.3028  0.0699 -0.6308
  205MOL0     C26955   5.662   2.940   7.012 -0.0979  0.7792 -0.3113
  205MOL0     C26956   5.575   2.891   7.103  0.8929  0.1426  0.6714
  205MOL0     C26957   5.420   2.925   7.089 -0.0044  0.7822  0.0428
  205MOL0     O26958   5.330   2.839   7.143  0.0230 -0.3245 -0.1359
  205MOL0     C26959   5.204   2.846   7.097  0.0842  0.7567 -0.3372
  205MOL0     C26960   5.171   2.835   6.959 -0.7693 -0.6829  0.4019
  205MOL0     C26961   5.041   2.813   6.912  0.4478  0.0485 -0.3725
  205MOL0     C26962   4.936   2.807   7.002  0.6733 -0.6550 -0.2519
  205MOL0     O26963   4.808   2.784   6.958  0.4311  0.4857  0.3529
  205MOL0     C26964   4.775   2.783   6.817  0.5091 -0.1421  0.2438
  205MOL0     C26965   4.747   2.927   6.755 -0.1868  0.7253 -0.8634
  205MOL0     C26966   4.635   2.993   6.837  1.0661  0.2626 -0.0277
  205MOL0     C26967   4.622   3.139   6.781  0.7615  0.4152 -0.1905
  205MOL0     C26968   4.550   3.244   6.867  0.7766 -0.0164  0.1815
  205MOL0     C26969   4.532   3.378   6.789  0.7114  0.3600 -0.4478
  205MOL0     C26970   4.553   3.502   6.877  0.2599 -1.3369  0.7669
  205MOL0     C26971   4.487   3.630   6.810  0.3782  1.0068  0.7220
  205MOL0    Cl26972   4.511   3.770   6.920 -0.2356 -0.1577 -0.0554
  205MOL0     C26973   4.962   2.832   7.133 -0.1080 -0.1879  0.0732
  205MOL0     C26974   5.093   2.856   7.184  0.2421 -0.1048  0.7845
  205MOL0     O26975   5.396   3.026   7.026  0.2599 -0.0430  0.3955
  205MOL0     C26976   5.614   2.814   7.206  0.0009 -0.2797 -0.7097
  205MOL0     C26977   5.745   2.789   7.226 -0.6680 -1.2249  0.1269
  205MOL0     N26978   6.298   2.513   6.807 -0.8721  0.3379 -0.0864
  205MOL0     N26979   6.372   2.520   6.702  0.1297 -0.2532 -0.7282
  205MOL0     C26980   7.740   2.308   6.481  0.0104  0.0395  0.0987
  205MOL0     C26981   7.866   2.237   6.463 -0.3408  0.0616 -0.6612
  205MOL0     C26982   8.176   1.951   6.256 -0.2534 -0.9271 -0.6261
  205MOL0     C26983   8.254   1.928   6.148 -0.4369 -0.2217  0.2241
  205MOL0     C26984   8.364   1.845   6.157  0.3414  0.8768 -0.3343
  205MOL0     C26985   8.402   1.781   6.274 -0.3354 -0.6285  0.4640
  205MOL0     O26986   8.522   1.717   6.264 -0.3802 -0.1374  0.9387
  205MOL0     C26987   8.581   1.651   6.377  0.3033  0.0373 -0.0144
  205MOL0     C26988   8.510   1.523   6.415 -0.3091  0.2337 -0.0670
  205MOL0     C26989   8.559   1.476   6.551  0.2935 -0.0077 -0.0302
  205MOL0     C26990   8.509   1.345   6.597  0.7864  0.3194 -0.5031
  205MOL0     C26991   8.498   1.225   6.505 -0.1470 -0.3074  0.3919
  205MOL0     C26992   8.491   1.121   6.434  0.2689 -0.0539  0.6909
  205MOL0     C26993   8.330   1.800   6.385 -0.0017 -0.3244  0.4467
  205MOL0     C26994   8.218   1.889   6.378  0.0688 -1.0553 -0.6728
  205MOL0     H26995   7.758   2.065   6.193  0.6195 -0.7971  1.2708
  205MOL0     H26996   7.567   2.181   6.228 -0.8399  0.3277  0.6706
  205MOL0     H26997   7.563   2.486   6.575  0.4900  0.0036 -0.5098
  205MOL0     H26998   7.485   2.337   6.612  1.8555 -0.4278 -0.9676
  205MOL0     H26999   7.334   2.534   6.439 -1.5818 -0.9794  0.2214
  205MOL0     H27000   7.354   2.559   6.614 -0.8074 -1.0144  0.1925
  205MOL0     H27001   7.250   2.350   6.662  0.8405 -0.6567  0.2190
  205MOL0     H27002   7.212   2.319   6.490  1.0889  0.3648 -1.7608
  205MOL0     H27003   7.137   2.563   6.663 -1.0920 -0.0945  0.5785
  205MOL0     H27004   7.096   2.548   6.492  1.6299  0.6846  0.2950
  205MOL0     H27005   6.987   2.405   6.742 -1.5739 -0.0282  0.0305
  205MOL0     H27006   6.965   2.326   6.578  2.0996 -0.5731  0.8058
  205MOL0     H27007   6.826   2.511   6.500  0.4299 -2.1477  0.3581
  205MOL0     H27008   6.874   2.611   6.639  1.9669  0.2360  0.4699
  205MOL0     H27009   6.690   2.362   6.641 -3.1658 -0.4708  0.4972
  205MOL0     H27010   6.740   2.457   6.777 -2.9122  1.6300  0.3088
  205MOL0     H27011   6.581   2.559   6.548  1.2321  4.1304  0.4795
  205MOL0     H27012   6.647   2.661   6.679  0.8598 -0.8167  1.8766
  205MOL0     H27013   6.585   2.560   6.956 -1.0645  2.3263  1.0572
  205MOL0     H27014   6.376   2.595   7.120 -2.6886  2.6055 -0.5956
  205MOL0     H27015   6.312   2.429   7.101  1.4425  0.6254  1.4221
  205MOL0     H27016   6.095   2.512   7.056  0.5016  0.2994 -3.1596
  205MOL0     H27017   6.155   2.664   6.987 -0.7720  1.2156  0.3439
  205MOL0     H27018   6.179   2.589   7.290  3.4542 -0.3271 -1.5515
  205MOL0     H27019   6.218   2.738   7.213  0.0644  0.3503  2.1026
  205MOL0     H27020   6.011   2.767   7.339  2.4353 -1.2220  0.0242
  205MOL0     H27021   5.951   2.625   7.238  0.6545 -0.4760 -0.5246
  205MOL0     H27022   5.882   2.948   6.965  1.8965  3.4037  2.5462
  205MOL0     H27023   5.634   2.986   6.917  3.1526  2.4933 -0.5893
  205MOL0     H27024   5.247   2.829   6.881 -1.5438  0.7823 -0.5072
  205MOL0     H27025   5.031   2.783   6.808 -1.5325 -0.4535 -0.0913
  205MOL0     H27026   4.678   2.731   6.819 -0.7790  2.0891  2.7449
  205MOL0     H27027   4.854   2.725   6.769  0.8545 -1.1926  1.9775
  205MOL0     H27028   4.720   2.928   6.649 -2.7909  3.0937 -0.2838
  205MOL0     H27029   4.840   2.984   6.763  0.0301  0.3607 -0.7771
  205MOL0     H27030   4.650   3.005   6.945 -0.3412 -0.0185  0.2231
  205MOL0     H27031   4.541   2.939   6.822  0.2596  1.7458 -0.5233
  205MOL0     H27032   4.725   3.173   6.769  1.0242 -0.6442 -1.1561
  205MOL0     H27033   4.569   3.123   6.686 -1.6978 -3.1887  1.5685
  205MOL0     H27034   4.621   3.254   6.950  0.1566 -0.6782  0.8059
  205MOL0     H27035   4.457   3.205   6.908  0.2724  0.3882 -0.5674
  205MOL0     H27036   4.431   3.378   6.747  0.5183  0.9173  0.0057
  205MOL0     H27037   4.600   3.377   6.703 -0.8102 -0.4506 -1.7076
  205MOL0     H27038   4.508   3.493   6.976 -2.9437  2.8082 -0.0263
  205MOL0     H27039   4.658   3.531   6.886 -0.2681  2.1487 -2.1085
  205MOL0     H27040   4.378   3.624   6.801  0.5027 -0.7391  0.0979
  205MOL0     H27041   4.526   3.655   6.711  1.3410  0.7016  1.0139
  205MOL0     H27042   4.877   2.832   7.201  0.7248 -1.1823  1.1659
  205MOL0     H27043   5.126   2.863   7.287 -0.0701 -0.7405  0.9310
  205MOL0     H27044   5.546   2.775   7.281  0.4559  0.2417 -0.0139
  205MOL0     H27045   5.761   2.719   7.307 -0.1181  1.0149  2.0452
  205MOL0     H27046   7.749   2.366   6.571  0.5468 -1.9733  1.4018
  205MOL0     H27047   7.943   2.241   6.539 -2.5877 -0.8106  1.8397
  205MOL0     H27048   8.234   1.961   6.046 -0.7252 -3.0378 -0.7153
  205MOL0     H27049   8.423   1.832   6.067 -2.0289 -0.4688 -1.8029
  205MOL0     H27050   8.576   1.720   6.461 -1.5400  1.8063 -1.4511
  205MOL0     H27051   8.684   1.623   6.354  0.2215  1.5677 -2.6853
  205MOL0     H27052   8.403   1.539   6.424 -0.3045  0.2852 -0.0979
  205MOL0     H27053   8.529   1.445   6.340 -0.5207  1.8021 -1.8224
  205MOL0     H27054   8.532   1.545   6.631 -2.9506 -1.3093  0.1424
  205MOL0     H27055   8.668   1.481   6.542  0.2510 -1.9645 -4.3392
  205MOL0     H27056   8.569   1.313   6.682  0.3750  1.8472  0.3847
  205MOL0     H27057   8.412   1.363   6.644  1.6911 -0.0852  1.6204
  205MOL0     H27058   8.489   1.022   6.393 -2.5601 -1.1689  3.1273
  205MOL0     H27059   8.360   1.758   6.481 -0.9682 -1.6305  0.2009
  205MOL0     H27060   8.163   1.903   6.471 -1.4942 -3.7077 -1.1237
  206MOL0     O27061   7.183   0.831  10.735 -0.4341  0.8504 -0.1811
  206MOL0     C27062   7.236   0.941  10.758 -0.1772  0.6222 -0.4292
  206MOL0     O27063   7.169   1.043  10.816 -0.3995 -0.0354 -0.0346
  206MOL0     C27064   7.031   1.038  10.838  0.0333 -0.5629  0.6617
  206MOL0     C27065   6.982   1.086  10.963  0.3119 -0.3146  0.5114
  206MOL0     C27066   6.846   1.095  10.988  0.4679  0.4380  0.3900
  206MOL0     C27067   6.754   1.042  10.895  0.0067 -0.4378  0.2199
  206MOL0     O27068   6.619   1.031  10.916 -0.2225  0.6522  0.4003
  206MOL0     C27069   6.570   1.136  11.001  1.3133 -0.3550  0.7394
  206MOL0     C27070   6.431   1.179  10.958 -0.2062 -0.5410 -0.4787
  206MOL0     C27071   6.380   1.278  11.063  0.1273  0.6832  0.0447
  206MOL0     C27072   6.239   1.320  11.025  0.5878 -0.3334 -0.6755
  206MOL0     C27073   6.188   1.425  11.135 -0.2532  0.1961 -0.5696
  206MOL0     C27074   6.046   1.484  11.094 -0.1939  0.4694 -0.3718
  206MOL0     C27075   6.002   1.579  11.208  0.8466 -0.4452 -0.2443
  206MOL0     C27076   5.868   1.648  11.181  0.4729 -0.3018 -0.5185
  206MOL0     N27077   5.846   1.736  11.289  0.4504  0.5744 -0.0218
  206MOL0     C27078   5.760   1.718  11.400  0.6108  0.3408 -0.0169
  206MOL0     C27079   5.787   1.821  11.482  0.6723 -0.4240  0.1162
  206MOL0     C27080   5.738   1.832  11.625 -0.5604 -0.3651  1.4880
  206MOL0     C27081   5.594   1.882  11.655 -0.1449  0.1669 -0.0988
  206MOL0     C27082   5.576   2.025  11.601 -0.4860 -0.2569 -0.3644
  206MOL0     C27083   5.433   2.070  11.633  0.7552  0.6649  0.2034
  206MOL0     O27084   5.398   2.042  11.770  0.3757 -0.2194  0.1449
  206MOL0     C27085   5.265   2.069  11.812  0.5602  0.4178  1.1858
  206MOL0     C27086   5.168   2.140  11.735  0.5611 -0.4086 -0.4611
  206MOL0     C27087   5.033   2.161  11.780  0.1202  0.0919  0.3402
  206MOL0     C27088   4.998   2.101  11.900  0.6178 -0.4144 -0.7604
  206MOL0     C27089   4.858   2.104  11.958  0.0895  0.2285 -0.2298
  206MOL0     O27090   4.774   2.198  11.906 -0.0741 -0.3265  0.1570
  206MOL0     C27091   4.645   2.219  11.949 -0.1460  0.4883 -0.2551
  206MOL0     C27092   4.576   2.325  11.885 -0.0465  0.0706 -0.5620
  206MOL0     C27093   4.450   2.362  11.919  0.4882  0.4014 -0.1182
  206MOL0     C27094   4.375   2.298  12.019  1.1069 -0.6203 -0.5967
  206MOL0     O27095   4.252   2.345  12.053  0.3246  0.1429  0.4666
  206MOL0     C27096   4.182   2.273  12.163 -0.7484  0.3907 -0.2024
  206MOL0     C27097   4.048   2.342  12.171 -0.2467 -0.0204 -0.5675
  206MOL0     C27098   3.965   2.337  12.038 -0.8594  0.4329  0.9584
  206MOL0     C27099   3.825   2.398  12.049  0.0581  0.4696 -0.5753
  206MOL0     C27100   3.733   2.353  12.165  0.1142 -0.2973  0.2723
  206MOL0     C27101   3.591   2.423  12.169 -0.4379  0.0227 -0.1949
  206MOL0     C27102   3.510   2.399  12.043 -0.5065 -0.9500 -0.7224
  206MOL0     C27103   3.363   2.436  12.079  0.4331  0.0260  0.1755
  206MOL0    Cl27104   3.273   2.401  11.936 -0.3986  0.1246  0.2884
  206MOL0     C27105   4.436   2.183  12.069 -0.8294 -0.5453 -0.1310
  206MOL0     C27106   4.568   2.142  12.037  0.1474 -0.4596 -0.1898
  206MOL0     O27107   4.828   2.016  12.044 -0.2632  0.2716  0.4262
  206MOL0     C27108   5.095   2.033  11.985  0.3301 -0.5846  0.2311
  206MOL0     C27109   5.228   2.020  11.938 -0.4491  0.2626  0.3594
  206MOL0     N27110   5.879   1.902  11.421 -0.2760  0.1829 -0.4865
  206MOL0     N27111   5.911   1.851  11.303  0.1165  0.4908  0.4443
  206MOL0     C27112   6.807   0.991  10.766 -1.1421  0.0479 -0.1879
  206MOL0     C27113   6.940   0.992  10.742  0.5621 -0.4481 -0.1450
  206MOL0     C27114   7.380   0.961  10.728 -1.0233  0.6321 -0.0457
  206MOL0     C27115   7.453   1.067  10.782 -0.4713 -0.9830  0.0048
  206MOL0     C27116   7.591   1.077  10.746  0.5151 -0.4159 -0.3279
  206MOL0     C27117   7.658   0.994  10.651 -0.1834 -0.4511 -0.3170
  206MOL0     O27118   7.796   0.995  10.618  0.4320  0.0491  0.7875
  206MOL0     C27119   7.869   1.108  10.631 -0.2417  0.5978  0.9249
  206MOL0     C27120   7.997   1.075  10.548 -0.1117 -0.3953 -0.5747
  206MOL0     C27121   8.084   1.195  10.564 -0.2037 -1.2865 -0.7290
  206MOL0     C27122   8.236   1.160  10.529  0.1763  0.4512  1.0584
  206MOL0     C27123   8.332   1.264  10.555 -0.2211  0.9804  0.5070
  206MOL0     C27124   8.410   1.345  10.594 -0.5496 -0.6381 -0.9189
  206MOL0     C27125   7.573   0.887  10.601 -0.3173  0.2220 -0.6665
  206MOL0     C27126   7.444   0.877  10.639 -0.1044  0.1071  0.6546
  206MOL0     H27127   7.053   1.132  11.031 -0.1764 -1.5696  1.9476
  206MOL0     H27128   6.813   1.140  11.081  0.1141  0.3858  0.2940
  206MOL0     H27129   6.633   1.225  11.004  1.4771 -0.4710  0.7120
  206MOL0     H27130   6.560   1.094  11.101  1.4426  0.3383  1.0501
  206MOL0     H27131   6.363   1.094  10.958 -0.8253 -0.0588 -1.3360
  206MOL0     H27132   6.428   1.215  10.855  2.3650 -0.7206 -0.6942
  206MOL0     H27133   6.443   1.366  11.078  2.3762 -0.9958  1.0947
  206MOL0     H27134   6.389   1.228  11.161  1.4542 -0.5424 -0.6604
  206MOL0     H27135   6.239   1.371  10.928 -0.0031  1.5251  0.2553
  206MOL0     H27136   6.177   1.231  11.014  0.1552 -0.0677 -0.4087
  206MOL0     H27137   6.254   1.513  11.140 -1.3150  0.9588  1.1459
  206MOL0     H27138   6.173   1.386  11.236 -0.6447  2.3975  0.2680
  206MOL0     H27139   5.971   1.406  11.078 -1.9033  1.7188  0.9758
  206MOL0     H27140   6.055   1.537  10.999 -0.0187  1.4078  0.1564
  206MOL0     H27141   5.994   1.530  11.305 -2.7254  4.4817  2.4190
  206MOL0     H27142   6.079   1.656  11.212  0.9116 -0.4949 -0.5209
  206MOL0     H27143   5.784   1.579  11.169  0.1030  0.0485 -0.0217
  206MOL0     H27144   5.870   1.711  11.092  0.2967  1.4477  0.6655
  206MOL0     H27145   5.687   1.639  11.417 -1.0440  1.2605 -2.4035
  206MOL0     H27146   5.812   1.898  11.670  0.5272 -1.1772  0.9254
  206MOL0     H27147   5.745   1.731  11.666 -0.1842 -1.3080 -0.7474
  206MOL0     H27148   5.594   1.894  11.763  1.3811  0.1594 -0.0793
  206MOL0     H27149   5.520   1.818  11.607 -0.1435  0.6864 -0.8297
  206MOL0     H27150   5.646   2.088  11.657 -1.2295  1.4977 -1.3192
  206MOL0     H27151   5.603   2.030  11.495  0.5412  0.3240 -0.0890
  206MOL0     H27152   5.366   2.024  11.560  1.0513  2.8429 -1.5333
  206MOL0     H27153   5.423   2.178  11.617 -0.6713  0.8013  1.7342
  206MOL0     H27154   5.207   2.165  11.636  2.2787 -2.2414 -0.3142
  206MOL0     H27155   4.958   2.191  11.708 -1.6590 -3.0103  0.6836
  206MOL0     H27156   4.624   2.386  11.810 -2.7596  0.7491 -1.8374
  206MOL0     H27157   4.393   2.444  11.878 -1.2637 -1.1076 -0.8545
  206MOL0     H27158   4.245   2.293  12.250  1.0770  1.6116 -1.7431
  206MOL0     H27159   4.183   2.165  12.145  0.5642  0.0562  1.5611
  206MOL0     H27160   4.070   2.449  12.180 -0.6430 -0.1261  3.3984
  206MOL0     H27161   3.993   2.302  12.257  1.2758 -0.1144  0.3975
  206MOL0     H27162   3.953   2.232  12.013 -3.7605  0.1388  3.0338
  206MOL0     H27163   4.026   2.390  11.964 -1.7143  0.8583  0.5375
  206MOL0     H27164   3.842   2.505  12.066 -1.1406  0.7201 -0.9067
  206MOL0     H27165   3.770   2.381  11.956  1.5593 -2.4036 -1.0467
  206MOL0     H27166   3.785   2.372  12.259 -0.8083  1.1678  0.5225
  206MOL0     H27167   3.705   2.247  12.165 -1.5144  0.0821 -0.7289
  206MOL0     H27168   3.614   2.528  12.189 -0.6086 -0.1494  0.9622
  206MOL0     H27169   3.537   2.386  12.256 -3.1932  1.7316 -1.0507
  206MOL0     H27170   3.545   2.473  11.971 -0.5669  1.8342  1.9213
  206MOL0     H27171   3.524   2.293  12.020  1.7630 -0.5627 -1.3512
  206MOL0     H27172   3.345   2.537  12.118 -0.4223  0.3360 -0.9345
  206MOL0     H27173   3.325   2.364  12.152  1.6368  0.3961  1.1947
  206MOL0     H27174   4.384   2.117  12.137  0.5960 -3.0133 -1.3252
  206MOL0     H27175   4.601   2.048  12.078 -1.2600 -1.8391 -2.0648
  206MOL0     H27176   5.073   1.999  12.085  0.3861 -2.4996 -0.3606
  206MOL0     H27177   5.304   1.967  11.993 -0.3232 -0.5063 -0.5390
  206MOL0     H27178   6.747   0.947  10.687  1.6752 -0.6890 -2.0742
  206MOL0     H27179   6.981   0.943  10.654  0.9307 -2.4778  1.0742
  206MOL0     H27180   7.409   1.148  10.839  2.8853  1.4833 -0.5863
  206MOL0     H27181   7.654   1.155  10.787  0.9662 -1.6850  1.5415
  206MOL0     H27182   7.905   1.120  10.734  3.2378 -0.0135 -0.0751
  206MOL0     H27183   7.814   1.195  10.592  1.8148  0.3823 -3.0510
  206MOL0     H27184   8.059   0.993  10.585  2.1429  0.2764 -2.5808
  206MOL0     H27185   7.964   1.053  10.446 -4.2843 -0.1756  0.5278
  206MOL0     H27186   8.075   1.227  10.668  0.6669 -2.8164 -0.1529
  206MOL0     H27187   8.051   1.284  10.510 -0.8116 -0.5971  0.7308
  206MOL0     H27188   8.265   1.071  10.585  0.6397  0.0602  0.2126
  206MOL0     H27189   8.237   1.138  10.421 -0.3853  2.9719  0.4543
  206MOL0     H27190   8.467   1.428  10.631  1.1397 -0.6546 -3.2332
  206MOL0     H27191   7.618   0.825  10.525  0.5051  0.4167 -0.3502
  206MOL0     H27192   7.395   0.785  10.608 -3.5392  2.0125 -0.1710
  207MOL0     O27193   0.264   8.870   3.294 -0.0907  0.4103 -0.1366
  207MOL0     C27194   0.268   8.916   3.406 -0.8770 -0.7853 -1.0094
  207MOL0     O27195   0.182   8.893   3.513  0.2772 -0.6483  0.4209
  207MOL0     C27196   0.052   8.844   3.496 -0.3791  0.1328 -0.2068
  207MOL0     C27197  -0.015   8.769   3.593  0.5615  0.7888 -0.8755
  207MOL0     C27198  -0.147   8.730   3.586  0.0411 -0.5860  0.1379
  207MOL0     C27199  -0.222   8.748   3.473 -0.5657 -0.5215 -0.1247
  207MOL0     O27200  -0.346   8.701   3.465  0.0049  0.6277 -0.0126
  207MOL0     C27201  -0.411   8.685   3.343 -0.6965  0.7385 -0.0219
  207MOL0     C27202  -0.526   8.588   3.361 -1.2770  0.3556  0.3086
  207MOL0     C27203  -0.643   8.657   3.437  0.0089  0.1888  0.0352
  207MOL0     C27204  -0.743   8.555   3.500  0.7571 -0.1241 -0.5039
  207MOL0     C27205  -0.861   8.626   3.564 -0.5602 -0.5044  0.3705
  207MOL0     C27206  -0.952   8.696   3.463  0.0047 -0.5996  0.3532
  207MOL0     C27207  -1.067   8.783   3.526 -0.3873  0.3275  0.5728
  207MOL0     C27208  -1.154   8.857   3.427 -0.3483 -0.5057 -0.5621
  207MOL0     N27209  -1.292   8.887   3.477  0.0865  1.0758 -0.3336
  207MOL0     C27210  -1.381   8.788   3.510 -0.5399 -0.3151  0.6079
  207MOL0     C27211  -1.490   8.840   3.572  0.4787 -0.3056 -0.3597
  207MOL0     C27212  -1.601   8.761   3.643 -0.7618 -0.3395 -0.8967
  207MOL0     C27213  -1.731   8.788   3.571  0.7578 -0.0955  0.2443
  207MOL0     C27214  -1.857   8.734   3.649 -0.6244 -0.2262  0.4729
  207MOL0     C27215  -1.972   8.742   3.551 -0.5752  0.1832  0.4820
  207MOL0     O27216  -2.090   8.700   3.615  0.3173 -0.2464 -1.1955
  207MOL0     C27217  -2.210   8.669   3.554 -0.1054 -0.6467  0.1254
  207MOL0     C27218  -2.318   8.623   3.634 -0.0951  0.0913  1.2197
  207MOL0     C27219  -2.447   8.593   3.580 -0.3591  0.8317  0.3370
  207MOL0     C27220  -2.471   8.614   3.445 -0.4477 -0.1989  0.0171
  207MOL0     C27221  -2.599   8.586   3.383 -0.0967  0.2226 -1.0687
  207MOL0     O27222  -2.697   8.531   3.459 -0.5046  0.3394  0.3608
  207MOL0     C27223  -2.812   8.476   3.407 -0.2948  0.2362 -1.1677
  207MOL0     C27224  -2.881   8.518   3.288 -0.4012 -0.3500  0.0340
  207MOL0     C27225  -2.992   8.450   3.244  0.1655 -0.0794  0.6344
  207MOL0     C27226  -3.045   8.342   3.318 -0.6139 -0.1236 -0.7210
  207MOL0     O27227  -3.153   8.268   3.270  0.3676 -0.5849  0.0220
  207MOL0     C27228  -3.120   8.209   3.140 -0.1913 -0.2122  0.7349
  207MOL0     C27229  -3.198   8.078   3.119  0.0792 -0.3692 -0.3189
  207MOL0     C27230  -3.353   8.110   3.111 -0.1248 -0.4551 -0.1906
  207MOL0     C27231  -3.444   7.986   3.093  0.8967  0.4137  0.2429
  207MOL0     C27232  -3.583   8.021   3.052  0.6939  0.4689 -0.1136
  207MOL0     C27233  -3.598   8.100   2.923  0.8026  0.9053 -0.4140
  207MOL0     C27234  -3.735   8.103   2.859  0.4251  0.2745 -0.2548
  207MOL0     C27235  -3.854   8.113   2.956  0.3138 -0.2966 -0.3500
  207MOL0    Cl27236  -3.992   8.183   2.873  0.2501  0.1855  0.4300
  207MOL0     C27237  -2.984   8.303   3.444  0.9205 -0.1044 -0.2763
  207MOL0     C27238  -2.871   8.375   3.489 -0.4877  0.0944 -0.2138
  207MOL0     O27239  -2.611   8.601   3.266 -0.5592 -0.3639 -0.2102
  207MOL0     C27240  -2.364   8.650   3.362  0.5814 -0.3050 -0.2291
  207MOL0     C27241  -2.238   8.684   3.420  0.2874 -0.0733  0.0225
  207MOL0     N27242  -1.452   8.975   3.580 -1.0808 -0.3132 -0.8263
  207MOL0     N27243  -1.331   9.002   3.531 -0.5983 -0.2670 -0.3520
  207MOL0     C27244  -0.158   8.810   3.359 -0.4392 -0.4244  0.0166
  207MOL0     C27245  -0.027   8.868   3.382 -0.2368 -0.0268 -0.0203
  207MOL0     C27246   0.397   8.991   3.442  0.1172 -0.2603  0.7925
  207MOL0     C27247   0.410   9.058   3.569  0.8917  0.6820 -0.0266
  207MOL0     C27248   0.526   9.122   3.611  0.8118 -0.0898  0.2576
  207MOL0     C27249   0.636   9.126   3.518  0.6051  0.2726  0.4633
  207MOL0     O27250   0.763   9.173   3.545  0.3723  0.6691  0.2306
  207MOL0     C27251   0.792   9.272   3.638 -0.5677 -0.4454 -0.1717
  207MOL0     C27252   0.943   9.272   3.639 -0.5281 -0.0256 -0.4229
  207MOL0     C27253   1.023   9.353   3.745 -0.3138  0.4832  0.0685
  207MOL0     C27254   1.149   9.407   3.676 -0.0689  0.4195 -0.5832
  207MOL0     C27255   1.253   9.464   3.770  0.2240  0.5934  0.5625
  207MOL0     C27256   1.326   9.508   3.859 -0.8093  0.2152  0.0848
  207MOL0     C27257   0.626   9.057   3.388 -0.1745  0.1060  0.0060
  207MOL0     C27258   0.505   8.996   3.352 -0.4609 -0.5650 -0.9072
  207MOL0     H27259   0.037   8.752   3.687  1.4210  0.2837 -1.4220
  207MOL0     H27260  -0.193   8.672   3.666 -1.9955 -0.3586 -0.8051
  207MOL0     H27261  -0.340   8.651   3.267 -0.0452  1.9989 -0.0095
  207MOL0     H27262  -0.453   8.781   3.310  0.4403  0.8832 -1.1066
  207MOL0     H27263  -0.500   8.500   3.421 -3.1305  0.7486  1.7733
  207MOL0     H27264  -0.555   8.551   3.263 -0.1344  0.0099  0.0797
  207MOL0     H27265  -0.687   8.732   3.370 -0.7259  0.5250  0.8732
  207MOL0     H27266  -0.597   8.711   3.520  0.6382 -1.4452  0.7831
  207MOL0     H27267  -0.769   8.484   3.421  0.9737 -0.2925 -0.4237
  207MOL0     H27268  -0.692   8.504   3.582  1.5112  0.5832 -0.5209
  207MOL0     H27269  -0.826   8.695   3.641 -0.9001 -2.1798  2.1071
  207MOL0     H27270  -0.924   8.557   3.620 -0.7180  0.8840  1.9546
  207MOL0     H27271  -0.999   8.625   3.395  0.2973 -1.5392  1.0937
  207MOL0     H27272  -0.885   8.765   3.411  2.1740 -0.8638  2.5535
  207MOL0     H27273  -1.132   8.710   3.577 -0.4283 -1.1747 -1.5170
  207MOL0     H27274  -1.020   8.853   3.596  3.2473 -1.5111  0.1861
  207MOL0     H27275  -1.167   8.799   3.336 -4.9892 -0.2352 -0.3064
  207MOL0     H27276  -1.109   8.951   3.394  0.8011 -1.4855 -1.9078
  207MOL0     H27277  -1.356   8.683   3.502 -0.3042 -0.1112 -4.0969
  207MOL0     H27278  -1.608   8.794   3.747  0.5587 -0.7120 -0.6663
  207MOL0     H27279  -1.575   8.655   3.637 -1.7642 -0.7469  1.1248
  207MOL0     H27280  -1.733   8.738   3.473  1.1641  0.5466 -0.0960
  207MOL0     H27281  -1.730   8.896   3.555  2.8094  0.0572  1.0612
  207MOL0     H27282  -1.827   8.637   3.688  0.7110 -0.2925 -0.6225
  207MOL0     H27283  -1.874   8.795   3.738  1.0206 -1.4004  1.6557
  207MOL0     H27284  -1.956   8.681   3.462 -0.5746  0.5468  0.2307
  207MOL0     H27285  -1.975   8.844   3.511 -1.9082 -0.8250 -2.2375
  207MOL0     H27286  -2.312   8.612   3.741  2.5376  0.2641  1.1456
  207MOL0     H27287  -2.536   8.562   3.634 -1.1372 -1.7232 -2.1862
  207MOL0     H27288  -2.851   8.604   3.228 -0.0047 -0.1493  0.5123
  207MOL0     H27289  -3.035   8.476   3.148  1.3542  0.0526  0.1244
  207MOL0     H27290  -3.014   8.185   3.138 -0.2945 -1.1201 -3.6164
  207MOL0     H27291  -3.146   8.289   3.070 -2.4542  0.7262  2.5069
  207MOL0     H27292  -3.183   8.006   3.200 -2.4331 -1.6942 -0.9216
  207MOL0     H27293  -3.168   8.042   3.020  1.6220 -0.9261  0.3246
  207MOL0     H27294  -3.362   8.183   3.030 -1.5193 -0.6634 -0.2494
  207MOL0     H27295  -3.381   8.160   3.204 -0.5138  2.1558 -1.6187
  207MOL0     H27296  -3.396   7.930   3.012 -1.0721 -0.9038 -0.0849
  207MOL0     H27297  -3.454   7.923   3.181 -1.2509  2.5393  1.6423
  207MOL0     H27298  -3.633   8.079   3.129 -2.6128 -1.3728 -0.6919
  207MOL0     H27299  -3.645   7.932   3.042 -1.4755  1.7080  1.6630
  207MOL0     H27300  -3.530   8.059   2.848 -0.0033  2.1209 -1.8485
  207MOL0     H27301  -3.589   8.207   2.944  0.6987  1.0478 -1.0819
  207MOL0     H27302  -3.745   8.189   2.792 -1.5950  1.3291  1.3032
  207MOL0     H27303  -3.758   8.013   2.802 -3.0147  0.5591  0.4604
  207MOL0     H27304  -3.827   8.188   3.030 -1.7670 -0.0063  0.1695
  207MOL0     H27305  -3.879   8.019   3.007 -3.3766 -0.5475 -2.2443
  207MOL0     H27306  -3.022   8.219   3.502 -1.0211 -1.1122 -2.8354
  207MOL0     H27307  -2.813   8.350   3.577 -2.1668  1.1361  1.2546
  207MOL0     H27308  -2.379   8.666   3.255  2.7787 -3.1367 -1.0924
  207MOL0     H27309  -2.160   8.715   3.352  0.5913 -1.8571 -0.4994
  207MOL0     H27310  -0.221   8.836   3.275  0.7260 -2.0602 -1.4116
  207MOL0     H27311   0.007   8.937   3.306 -0.0155  3.1071  2.6908
  207MOL0     H27312   0.323   9.052   3.633 -0.3644  1.1437 -1.6400
  207MOL0     H27313   0.540   9.178   3.703  2.8702 -0.6709  0.3428
  207MOL0     H27314   0.750   9.238   3.733  0.9478  0.7229  0.9821
  207MOL0     H27315   0.750   9.371   3.616  0.4113 -0.4028 -2.0275
  207MOL0     H27316   0.979   9.169   3.644  0.7582  0.3085 -1.8224
  207MOL0     H27317   0.966   9.315   3.541 -1.0151  1.0478 -0.0779
  207MOL0     H27318   1.055   9.285   3.824  2.8325  2.4021  0.6234
  207MOL0     H27319   0.954   9.421   3.796 -1.1635 -0.9238  0.8596
  207MOL0     H27320   1.193   9.318   3.630  0.3471  0.3940 -0.1400
  207MOL0     H27321   1.127   9.480   3.597  0.7334  0.5819 -0.6622
  207MOL0     H27322   1.410   9.533   3.921  0.6293 -1.8280 -0.9326
  207MOL0     H27323   0.714   9.056   3.325  0.6829  0.6397  1.1551
  207MOL0     H27324   0.499   8.951   3.254  1.1975  1.9698 -2.3082
  208MOL0     O27325   2.236   5.432   0.188  0.4425 -0.7178 -0.0565
  208MOL0     C27326   2.262   5.550   0.204 -0.5188 -0.1773  0.5844
  208MOL0     O27327   2.166   5.644   0.234 -0.2417  0.8095 -0.2703
  208MOL0     C27328   2.035   5.605   0.240  0.3641  0.0812 -0.0019
  208MOL0     C27329   1.949   5.623   0.130  0.3233  0.2901  0.3527
  208MOL0     C27330   1.813   5.563   0.134 -0.5333  0.0923 -0.0837
  208MOL0     C27331   1.768   5.515   0.254 -0.4085  0.1399 -0.5083
  208MOL0     O27332   1.634   5.487   0.278 -0.3094 -0.0486  0.1330
  208MOL0     C27333   1.547   5.453   0.173  0.3093 -0.7089 -0.2121
  208MOL0     C27334   1.446   5.349   0.228 -1.1084 -0.6319  0.0769
  208MOL0     C27335   1.318   5.413   0.273  0.0130  0.8562 -0.2384
  208MOL0     C27336   1.214   5.299   0.300 -0.8822  0.3694 -0.0195
  208MOL0     C27337   1.076   5.347   0.280 -0.2050 -0.7198 -0.7732
  208MOL0     C27338   0.966   5.239   0.297 -0.7973 -0.4337 -0.2647
  208MOL0     C27339   0.836   5.280   0.223  0.0542 -0.6319  0.3303
  208MOL0     C27340   0.735   5.171   0.254 -0.4480 -0.6568  0.2804
  208MOL0     N27341   0.605   5.200   0.193  0.3163  0.5421 -0.4871
  208MOL0     C27342   0.552   5.152   0.070 -0.3382  0.2548  0.6674
  208MOL0     C27343   0.431   5.203   0.064 -0.3741 -0.1329  0.0593
  208MOL0     C27344   0.337   5.183  -0.050  0.3438  0.5477  0.6321
  208MOL0     C27345   0.225   5.288  -0.053  0.4287  0.4035  0.5659
  208MOL0     C27346   0.140   5.244  -0.173 -0.2273  0.0160 -0.5941
  208MOL0     C27347   0.023   5.341  -0.204 -0.3051  0.3012  0.5162
  208MOL0     O27348  -0.072   5.279  -0.280  0.1362  0.6288 -0.0243
  208MOL0     C27349  -0.198   5.314  -0.267  0.1549 -0.3140 -0.0059
  208MOL0     C27350  -0.277   5.341  -0.381 -0.6355  1.4683  0.7662
  208MOL0     C27351  -0.416   5.339  -0.370  0.0916 -0.2333 -0.1460
  208MOL0     C27352  -0.479   5.293  -0.247 -0.1154  0.2758  0.4634
  208MOL0     C27353  -0.626   5.293  -0.245 -0.5704 -0.2306 -0.6555
  208MOL0     O27354  -0.688   5.341  -0.358  0.4793  0.3722 -0.6257
  208MOL0     C27355  -0.828   5.332  -0.353  1.3355 -0.6508 -0.0461
  208MOL0     C27356  -0.899   5.454  -0.323  0.5611 -0.1856 -0.3504
  208MOL0     C27357  -1.040   5.457  -0.328  0.0676 -0.1862 -0.9580
  208MOL0     C27358  -1.111   5.340  -0.366  0.1445  0.2622 -0.4139
  208MOL0     O27359  -1.247   5.354  -0.372 -0.1677 -0.8247 -0.9555
  208MOL0     C27360  -1.324   5.243  -0.419 -0.2773  0.7589  0.0138
  208MOL0     C27361  -1.466   5.283  -0.439 -1.1678 -0.1227  0.1987
  208MOL0     C27362  -1.497   5.408  -0.524  0.3603 -0.7306 -0.8303
  208MOL0     C27363  -1.636   5.415  -0.584  0.7734 -0.3864  0.4544
  208MOL0     C27364  -1.752   5.387  -0.482 -0.0714  0.2006 -0.2958
  208MOL0     C27365  -1.895   5.405  -0.540 -0.8982 -0.0964 -0.0375
  208MOL0     C27366  -1.924   5.541  -0.591  0.7655 -0.2532 -0.2331
  208MOL0     C27367  -2.073   5.568  -0.600  0.0115  0.2847 -0.1847
  208MOL0    Cl27368  -2.159   5.458  -0.715  0.0077 -0.3943  0.0657
  208MOL0     C27369  -1.042   5.220  -0.391 -0.2007 -0.3775  0.2992
  208MOL0     C27370  -0.902   5.214  -0.383  0.7958  0.0118 -0.0541
  208MOL0     O27371  -0.678   5.242  -0.151  0.0096  0.9912 -0.3090
  208MOL0     C27372  -0.405   5.274  -0.136 -0.3696  0.3016  0.5081
  208MOL0     C27373  -0.261   5.274  -0.146  0.2968  0.6412 -0.6585
  208MOL0     N27374   0.399   5.273   0.182  0.5121 -0.1381 -0.6185
  208MOL0     N27375   0.501   5.259   0.258  0.6943  0.7269  0.2206
  208MOL0     C27376   1.860   5.509   0.361 -0.3208 -0.2760  0.5110
  208MOL0     C27377   1.994   5.542   0.351  0.9134 -0.4197 -0.2946
  208MOL0     C27378   2.403   5.591   0.186 -0.1369  0.0390  0.7009
  208MOL0     C27379   2.425   5.731   0.168  0.2259 -0.1943  0.7116
  208MOL0     C27380   2.557   5.770   0.160  1.1074 -0.7134  0.2659
  208MOL0     C27381   2.662   5.680   0.181 -0.4467 -0.6127  0.0718
  208MOL0     O27382   2.791   5.737   0.179 -0.3862  0.1012 -0.0029
  208MOL0     C27383   2.906   5.657   0.219 -0.0361  0.4612  0.5131
  208MOL0     C27384   3.033   5.748   0.223  0.1588 -0.2916  0.0732
  208MOL0     C27385   3.167   5.678   0.209 -0.7668 -0.3846  0.0069
  208MOL0     C27386   3.195   5.569   0.313 -0.4523  0.1607  0.3426
  208MOL0     C27387   3.146   5.598   0.449  0.1814  0.7930 -0.2400
  208MOL0     C27388   3.097   5.632   0.558 -0.1003  0.6013  0.5057
  208MOL0     C27389   2.634   5.547   0.205  0.4111  0.2108  0.5294
  208MOL0     C27390   2.506   5.496   0.205 -0.3482 -0.6403 -0.1512
  208MOL0     H27391   1.999   5.670   0.045  0.1568 -1.8187 -1.0039
  208MOL0     H27392   1.748   5.584   0.049  1.2547  1.3264 -1.2281
  208MOL0     H27393   1.612   5.410   0.097  0.8762 -0.6791  0.2431
  208MOL0     H27394   1.495   5.537   0.126 -3.9443 -2.3543  1.0297
  208MOL0     H27395   1.486   5.286   0.308 -1.8644 -0.4609  0.5917
  208MOL0     H27396   1.432   5.281   0.144  3.4892 -3.6468  1.3563
  208MOL0     H27397   1.282   5.480   0.194 -1.6310  1.2383  0.7805
  208MOL0     H27398   1.323   5.470   0.366  1.5908  0.9869 -0.3844
  208MOL0     H27399   1.222   5.220   0.225 -1.5602  0.1411  0.1449
  208MOL0     H27400   1.224   5.261   0.402  0.8243 -0.4035 -0.4439
  208MOL0     H27401   1.067   5.383   0.177 -1.6833 -0.0570 -0.4387
  208MOL0     H27402   1.043   5.430   0.344  0.4720 -0.7155 -0.4266
  208MOL0     H27403   0.961   5.221   0.404  0.3981  1.6698  0.2056
  208MOL0     H27404   0.999   5.143   0.255  1.2716  0.1478 -0.0786
  208MOL0     H27405   0.797   5.378   0.254 -0.2119 -1.0421  1.3457
  208MOL0     H27406   0.851   5.285   0.115 -0.6096  1.8522  0.3012
  208MOL0     H27407   0.709   5.161   0.360 -2.4711 -2.3762 -0.3086
  208MOL0     H27408   0.786   5.078   0.229  3.7989  1.4008  0.4720
  208MOL0     H27409   0.604   5.093  -0.005 -2.8083 -2.3643  0.8437
  208MOL0     H27410   0.299   5.080  -0.050  0.9854  0.3052  1.0659
  208MOL0     H27411   0.388   5.202  -0.145 -1.3187  0.2225 -0.3556
  208MOL0     H27412   0.278   5.381  -0.074  1.1828  0.0725  0.9340
  208MOL0     H27413   0.170   5.291   0.041 -0.8408 -0.0505 -0.1450
  208MOL0     H27414   0.197   5.231  -0.265  1.8523 -1.2338  0.8183
  208MOL0     H27415   0.095   5.149  -0.145  0.5378 -0.1461  0.1059
  208MOL0     H27416   0.071   5.426  -0.254 -3.4078  1.5256 -0.5703
  208MOL0     H27417  -0.020   5.378  -0.111 -0.9701 -0.0982  0.3692
  208MOL0     H27418  -0.231   5.375  -0.473 -0.3960  0.6125  0.5537
  208MOL0     H27419  -0.472   5.344  -0.463  0.1520 -1.0783 -0.2339
  208MOL0     H27420  -0.840   5.540  -0.293  3.4361 -1.2455 -2.5011
  208MOL0     H27421  -1.096   5.550  -0.319 -2.2503 -1.6475  0.4415
  208MOL0     H27422  -1.320   5.165  -0.342  0.0937 -1.6671 -2.3185
  208MOL0     H27423  -1.281   5.207  -0.512  0.5326  0.6128  0.4286
  208MOL0     H27424  -1.508   5.295  -0.338  0.2692  0.2468  0.7680
  208MOL0     H27425  -1.500   5.197  -0.497  1.1460 -0.8888 -0.1107
  208MOL0     H27426  -1.420   5.416  -0.601  2.0801 -1.8768  0.6854
  208MOL0     H27427  -1.483   5.494  -0.457 -1.8177  0.5740 -1.9231
  208MOL0     H27428  -1.647   5.517  -0.622  1.6148  0.5280  2.4896
  208MOL0     H27429  -1.641   5.349  -0.671  2.3267  1.0052 -0.7516
  208MOL0     H27430  -1.726   5.453  -0.399 -2.0345  0.3873  0.2036
  208MOL0     H27431  -1.739   5.280  -0.463  0.3202  0.4167  0.6878
  208MOL0     H27432  -1.962   5.389  -0.455  0.0677 -0.9888  0.5784
  208MOL0     H27433  -1.917   5.329  -0.616 -1.8750 -2.6815  2.6545
  208MOL0     H27434  -1.878   5.615  -0.524  2.2142 -0.5886 -0.8167
  208MOL0     H27435  -1.886   5.557  -0.692  2.2288  0.7318  0.4426
  208MOL0     H27436  -2.092   5.673  -0.623 -1.9569  0.1151  0.4416
  208MOL0     H27437  -2.121   5.553  -0.503  0.8569 -1.7033 -0.0418
  208MOL0     H27438  -1.100   5.130  -0.411 -0.5513 -0.1443  0.2479
  208MOL0     H27439  -0.849   5.122  -0.405  0.5435 -1.1762  3.5540
  208MOL0     H27440  -0.446   5.237  -0.042 -1.1687  1.1464  0.5014
  208MOL0     H27441  -0.196   5.255  -0.061 -1.2119  0.8005  0.5799
  208MOL0     H27442   1.835   5.470   0.459 -0.4530 -0.8976  0.2329
  208MOL0     H27443   2.064   5.523   0.432  1.1877  0.1604 -0.3848
  208MOL0     H27444   2.335   5.791   0.155 -1.2035 -1.9856  1.8393
  208MOL0     H27445   2.587   5.871   0.132  1.6022 -1.4504 -2.1501
  208MOL0     H27446   2.922   5.581   0.143  0.0470 -0.1065  1.0940
  208MOL0     H27447   2.883   5.605   0.312 -1.0120 -1.5687 -0.8148
  208MOL0     H27448   3.026   5.827   0.149 -0.1224  0.4156  0.8404
  208MOL0     H27449   3.024   5.811   0.312 -2.5481  1.8107 -1.5359
  208MOL0     H27450   3.248   5.750   0.218  2.6145 -3.4538 -2.7083
  208MOL0     H27451   3.177   5.638   0.108 -1.2925  1.1994 -0.6929
  208MOL0     H27452   3.154   5.471   0.288  0.2711  0.1922 -1.0857
  208MOL0     H27453   3.303   5.554   0.317 -0.1214  2.4452  2.2274
  208MOL0     H27454   3.060   5.681   0.646  0.5425  0.1704  1.0307
  208MOL0     H27455   2.713   5.475   0.228  1.9792  1.5133 -0.5344
  208MOL0     H27456   2.491   5.395   0.242  2.8541 -1.4926 -0.8058
  209MOL0     O27457   8.118   4.123   3.819 -0.1801  0.1657 -0.4072
  209MOL0     C27458   8.164   4.241   3.832  0.6820  0.8340 -0.8431
  209MOL0     O27459   8.096   4.346   3.876  0.5365 -0.2891 -0.3858
  209MOL0     C27460   7.971   4.316   3.926  0.1356 -0.1424  0.1256
  209MOL0     C27461   7.861   4.273   3.848 -0.2047  0.0256 -0.9249
  209MOL0     C27462   7.737   4.255   3.913 -0.0391  1.2628  0.0822
  209MOL0     C27463   7.726   4.285   4.050 -0.2744  0.6231  0.2949
  209MOL0     O27464   7.605   4.271   4.110 -0.0236 -0.2816  0.0111
  209MOL0     C27465   7.488   4.340   4.051 -0.1927 -0.6506 -0.6678
  209MOL0     C27466   7.384   4.247   3.994 -0.0133  0.3300  0.1966
  209MOL0     C27467   7.287   4.323   3.895  0.7734 -0.0857 -0.0826
  209MOL0     C27468   7.163   4.387   3.965 -0.3132 -0.0899 -0.2003
  209MOL0     C27469   7.049   4.398   3.864  0.1938  0.8029 -0.3609
  209MOL0     C27470   6.941   4.509   3.897  0.2368 -0.3857 -1.1614
  209MOL0     C27471   6.847   4.449   4.006 -0.5742 -0.0563  0.1443
  209MOL0     C27472   6.719   4.530   4.025 -0.9168  0.0490 -0.3806
  209MOL0     N27473   6.746   4.653   4.103 -0.1415  0.2094  0.0045
  209MOL0     C27474   6.737   4.671   4.238 -0.5768 -0.6452  0.6191
  209MOL0     C27475   6.758   4.801   4.265 -0.2151 -0.5121  0.4080
  209MOL0     C27476   6.776   4.861   4.397  0.0932 -0.2278  0.0781
  209MOL0     C27477   6.640   4.874   4.471 -0.6099 -0.1956 -0.2320
  209MOL0     C27478   6.588   4.732   4.520  0.2707  0.5275 -0.3239
  209MOL0     C27479   6.478   4.745   4.614 -0.1848  1.0564  0.0233
  209MOL0     O27480   6.528   4.783   4.742  0.2286  0.2402  0.7426
  209MOL0     C27481   6.439   4.850   4.825 -0.6139 -0.1086  0.4899
  209MOL0     C27482   6.296   4.868   4.808 -0.8129  0.2907 -0.3609
  209MOL0     C27483   6.219   4.931   4.901 -0.3039 -0.9716 -0.1775
  209MOL0     C27484   6.269   4.963   5.026 -0.1839  0.1579 -0.2205
  209MOL0     C27485   6.190   5.019   5.134  0.0892  0.4401  0.0552
  209MOL0     O27486   6.062   5.057   5.101  0.5522  0.2925  0.6930
  209MOL0     C27487   5.974   5.104   5.196  1.0421  0.2691  0.5655
  209MOL0     C27488   6.001   5.205   5.285  0.5228 -0.5825 -0.2436
  209MOL0     C27489   5.922   5.241   5.388  0.5427  0.9769  0.0369
  209MOL0     C27490   5.786   5.188   5.390  0.4626 -0.6401  0.3152
  209MOL0     O27491   5.701   5.213   5.494 -0.0792 -0.8689 -0.4857
  209MOL0     C27492   5.690   5.359   5.515 -0.1063 -0.6874 -0.5591
  209MOL0     C27493   5.579   5.411   5.417 -0.0824 -0.0220 -1.2250
  209MOL0     C27494   5.557   5.562   5.428  0.0603  0.3347  0.8455
  209MOL0     C27495   5.474   5.603   5.547  0.3235  0.7053 -0.0872
  209MOL0     C27496   5.437   5.754   5.538  0.6619 -0.3790  0.2076
  209MOL0     C27497   5.387   5.808   5.676  0.1669 -0.3002  0.4552
  209MOL0     C27498   5.379   5.963   5.663  0.7533 -0.2537  0.3476
  209MOL0     C27499   5.332   6.019   5.799  0.3694 -0.7239 -0.0190
  209MOL0    Cl27500   5.158   5.970   5.816 -0.2156 -0.0033 -0.2394
  209MOL0     C27501   5.745   5.094   5.288 -0.3760  0.0889  0.0519
  209MOL0     C27502   5.843   5.053   5.198 -0.1430 -0.0460  0.1212
  209MOL0     O27503   6.241   5.033   5.240 -0.2120 -0.0816 -0.1997
  209MOL0     C27504   6.401   4.937   5.045 -0.1121 -0.5239 -0.4067
  209MOL0     C27505   6.490   4.893   4.947 -0.0691  0.4382 -0.2866
  209MOL0     N27506   6.767   4.865   4.145  0.0888 -0.4921  0.5313
  209MOL0     N27507   6.767   4.779   4.049  0.4733 -0.3976 -0.6662
  209MOL0     C27508   7.831   4.330   4.119  0.3838  0.1347 -0.0803
  209MOL0     C27509   7.954   4.351   4.057 -0.6683  0.3123  0.0757
  209MOL0     C27510   8.297   4.265   3.786  1.5670  0.7099 -0.4934
  209MOL0     C27511   8.362   4.169   3.715 -0.3602 -0.4111 -0.2281
  209MOL0     C27512   8.488   4.195   3.664  0.4255 -0.1083  0.2143
  209MOL0     C27513   8.557   4.321   3.688  0.0125 -0.2808  0.1774
  209MOL0     O27514   8.696   4.335   3.653 -0.2433  0.7557  0.3514
  209MOL0     C27515   8.759   4.216   3.593  0.1011  0.3483 -0.0125
  209MOL0     C27516   8.896   4.250   3.551 -0.3612  0.3799  0.2039
  209MOL0     C27517   8.987   4.305   3.661  0.5683  0.1044 -0.2548
  209MOL0     C27518   9.114   4.373   3.609 -0.1101 -0.4453  0.2507
  209MOL0     C27519   9.177   4.425   3.731  0.2558  0.0224 -0.1511
  209MOL0     C27520   9.242   4.474   3.813 -0.1664  0.4239 -0.3412
  209MOL0     C27521   8.491   4.423   3.741 -0.8739 -0.9906 -0.4217
  209MOL0     C27522   8.358   4.393   3.790  0.3254  0.2866  0.0672
  209MOL0     H27523   7.881   4.244   3.745 -2.6400  1.7626 -2.0111
  209MOL0     H27524   7.640   4.226   3.872 -1.7393 -0.3345  4.6189
  209MOL0     H27525   7.525   4.403   3.970 -1.6444  1.3417  0.1100
  209MOL0     H27526   7.442   4.404   4.128 -0.0138 -2.1470  0.7497
  209MOL0     H27527   7.330   4.203   4.078 -0.9583  1.6427  0.3098
  209MOL0     H27528   7.430   4.164   3.939  2.1066  2.9110 -2.1871
  209MOL0     H27529   7.237   4.262   3.819 -1.8646  0.4618  1.1400
  209MOL0     H27530   7.331   4.403   3.835  1.2289 -1.2472 -1.3658
  209MOL0     H27531   7.127   4.334   4.054 -0.4135  1.5840  0.7963
  209MOL0     H27532   7.196   4.488   3.992 -2.6128  1.2553 -2.0631
  209MOL0     H27533   7.006   4.302   3.833  3.0140 -0.5444 -0.4405
  209MOL0     H27534   7.080   4.436   3.766 -0.5945  3.4147  0.3284
  209MOL0     H27535   6.884   4.529   3.805  0.2114 -1.8813 -1.4943
  209MOL0     H27536   6.973   4.605   3.937 -2.5666  0.6997 -1.2821
  209MOL0     H27537   6.814   4.348   3.977  1.2507 -0.7809  0.4307
  209MOL0     H27538   6.903   4.436   4.100  0.9278 -1.1872 -0.8583
  209MOL0     H27539   6.648   4.471   4.084 -0.1673 -0.4984 -0.0063
  209MOL0     H27540   6.677   4.568   3.932  1.5410  1.8506 -0.8720
  209MOL0     H27541   6.737   4.588   4.309 -2.5948 -1.2311 -0.0194
  209MOL0     H27542   6.814   4.962   4.381  1.7779 -0.9070 -0.4782
  209MOL0     H27543   6.858   4.815   4.452  0.0487  0.6964  0.9469
  209MOL0     H27544   6.566   4.917   4.402 -0.4664  2.1852  0.9840
  209MOL0     H27545   6.654   4.937   4.559  0.3153  1.7923 -1.7011
  209MOL0     H27546   6.564   4.670   4.433 -0.6186  2.2263 -1.3290
  209MOL0     H27547   6.659   4.669   4.576 -1.4378  1.1548  2.7858
  209MOL0     H27548   6.434   4.652   4.652  0.5896  0.4419 -0.5504
  209MOL0     H27549   6.399   4.805   4.567 -0.5279 -1.3071 -2.6925
  209MOL0     H27550   6.246   4.831   4.719 -0.0720 -1.1559 -0.2195
  209MOL0     H27551   6.117   4.945   4.868 -0.0753  1.0439 -0.1694
  209MOL0     H27552   6.099   5.246   5.303 -1.5999  4.6432  1.2247
  209MOL0     H27553   5.956   5.295   5.476  2.1722  1.9114 -1.1203
  209MOL0     H27554   5.779   5.419   5.494 -0.9227  1.0353  0.7189
  209MOL0     H27555   5.663   5.362   5.621  3.5286 -5.1636  0.8387
  209MOL0     H27556   5.486   5.356   5.438  0.7621 -0.7013  0.9880
  209MOL0     H27557   5.612   5.389   5.315  5.2642  2.1259 -0.2598
  209MOL0     H27558   5.506   5.596   5.337 -0.2005  1.0177  1.2361
  209MOL0     H27559   5.659   5.600   5.432  1.3144 -2.8578  2.3060
  209MOL0     H27560   5.383   5.544   5.535  1.9751 -2.4869  1.7558
  209MOL0     H27561   5.530   5.570   5.635  3.4581  2.4313 -1.2575
  209MOL0     H27562   5.360   5.770   5.461  1.1655  1.1240 -0.0083
  209MOL0     H27563   5.526   5.810   5.507  1.7129 -1.3580  1.3844
  209MOL0     H27564   5.458   5.786   5.757  0.5482  0.5948  0.3721
  209MOL0     H27565   5.287   5.774   5.703 -0.0719 -0.0249 -0.0780
  209MOL0     H27566   5.477   5.999   5.631  1.2488  0.4646  2.5698
  209MOL0     H27567   5.298   5.992   5.595  0.2530  1.0544  1.4755
  209MOL0     H27568   5.341   6.127   5.808  1.0913 -0.3208 -3.8765
  209MOL0     H27569   5.379   5.976   5.888 -0.9991 -0.3587  0.9223
  209MOL0     H27570   5.643   5.058   5.282  0.5508 -2.5758 -1.8537
  209MOL0     H27571   5.822   4.996   5.108  0.2484  2.1746 -1.4559
  209MOL0     H27572   6.435   4.960   5.146 -0.7975  1.5859 -0.5972
  209MOL0     H27573   6.592   4.866   4.973 -0.5920 -2.6748 -1.1154
  209MOL0     H27574   7.808   4.352   4.222 -0.5090  0.9979 -0.4454
  209MOL0     H27575   8.037   4.389   4.115 -0.0906 -4.3943  2.8517
  209MOL0     H27576   8.318   4.074   3.683  1.6137 -1.0834 -1.1167
  209MOL0     H27577   8.540   4.109   3.621  2.1946  0.3127  1.3972
  209MOL0     H27578   8.700   4.195   3.504 -0.9584  2.2377  0.1830
  209MOL0     H27579   8.758   4.137   3.668 -0.0954 -0.2126 -0.5961
  209MOL0     H27580   8.946   4.186   3.477 -0.6725 -0.0837  0.3916
  209MOL0     H27581   8.879   4.342   3.494  1.5992  0.7615  0.1621
  209MOL0     H27582   9.010   4.221   3.727  1.0575 -0.8318 -1.5788
  209MOL0     H27583   8.936   4.381   3.722  2.2044  0.6450  0.4876
  209MOL0     H27584   9.186   4.307   3.559  0.2279  1.4213 -1.9325
  209MOL0     H27585   9.090   4.459   3.545 -1.5709  0.1029  1.4761
  209MOL0     H27586   9.312   4.524   3.877 -0.7481  1.9970 -0.8747
  209MOL0     H27587   8.541   4.518   3.757 -4.2991  0.9761 -0.2346
  209MOL0     H27588   8.296   4.468   3.838 -0.4889 -0.6020  0.4310
  210MOL0     O27589   3.571   9.564   2.853 -0.0896 -0.2981 -0.6418
  210MOL0     C27590   3.497   9.470   2.881 -0.9424 -0.1433  0.6645
  210MOL0     O27591   3.504   9.349   2.818 -0.2403  0.6168 -0.3061
  210MOL0     C27592   3.622   9.329   2.747 -0.2184  0.5406 -0.0788
  210MOL0     C27593   3.745   9.310   2.809 -0.1812 -0.0774  0.0341
  210MOL0     C27594   3.861   9.310   2.736 -0.5940 -0.2604  0.6969
  210MOL0     C27595   3.856   9.314   2.595 -0.5782  0.1988 -0.7312
  210MOL0     O27596   3.969   9.299   2.520 -0.4789  0.0477 -0.0523
  210MOL0     C27597   4.100   9.316   2.589 -0.6316 -0.0328  0.7347
  210MOL0     C27598   4.212   9.283   2.486  0.2010  0.0240  0.1665
  210MOL0     C27599   4.350   9.286   2.561  0.8738  0.2280 -0.8004
  210MOL0     C27600   4.389   9.436   2.571  0.1666  0.7254 -0.7785
  210MOL0     C27601   4.528   9.459   2.641  1.1487  0.0450 -0.0253
  210MOL0     C27602   4.629   9.359   2.596  0.9258  0.1302 -0.4243
  210MOL0     C27603   4.755   9.391   2.676 -0.1260 -0.1003 -0.4952
  210MOL0     C27604   4.836   9.257   2.691  1.4004 -0.4388 -0.6260
  210MOL0     N27605   4.867   9.179   2.572 -0.6492 -0.3427 -0.4566
  210MOL0     C27606   4.949   9.215   2.463  0.9230  0.4746 -0.2960
  210MOL0     C27607   4.919   9.127   2.368 -0.0068 -0.2611  0.0640
  210MOL0     C27608   4.970   9.122   2.228  0.2511  0.6449 -0.5487
  210MOL0     C27609   4.863   9.071   2.132 -0.0666 -0.6148 -0.0021
  210MOL0     C27610   4.748   9.178   2.122 -0.0866 -0.4608  0.6967
  210MOL0     C27611   4.617   9.119   2.126 -0.7448  0.2111 -0.1860
  210MOL0     O27612   4.521   9.226   2.109  0.2541 -0.4937 -0.5068
  210MOL0     C27613   4.386   9.183   2.113  0.0130  0.2381 -0.2020
  210MOL0     C27614   4.288   9.276   2.079 -0.2433 -0.0957  0.9228
  210MOL0     C27615   4.152   9.244   2.070  0.0782  0.3729 -0.5074
  210MOL0     C27616   4.110   9.121   2.115  0.7532  0.0593 -1.6526
  210MOL0     C27617   3.962   9.079   2.120 -0.6634  0.2554  0.0570
  210MOL0     O27618   3.930   8.954   2.082 -0.4157  0.5288 -0.0555
  210MOL0     C27619   3.795   8.926   2.075  0.4453 -0.1330 -0.6308
  210MOL0     C27620   3.720   8.985   1.971  0.3838 -0.2782 -0.3240
  210MOL0     C27621   3.586   8.947   1.947 -0.0125 -0.2622 -0.9088
  210MOL0     C27622   3.530   8.852   2.037 -0.5128 -0.2563  0.0287
  210MOL0     O27623   3.400   8.821   2.030  0.2383  0.8905 -0.6683
  210MOL0     C27624   3.315   8.939   2.015  0.4466  0.0849  1.0291
  210MOL0     C27625   3.180   8.887   2.036  0.9950  0.5397  0.1462
  210MOL0     C27626   3.157   8.828   2.171 -0.5187  0.5137 -0.3838
  210MOL0     C27627   3.017   8.762   2.169  0.2283 -0.6141 -0.1051
  210MOL0     C27628   2.964   8.746   2.310  0.7453 -0.0320 -0.4780
  210MOL0     C27629   2.817   8.682   2.319  0.2261  0.7521  0.3049
  210MOL0     C27630   2.798   8.526   2.305 -0.0316 -0.4543 -0.2506
  210MOL0     C27631   2.655   8.491   2.301  0.5339  0.0867 -0.4261
  210MOL0    Cl27632   2.573   8.529   2.456 -0.4741 -0.7238  0.2979
  210MOL0     C27633   3.609   8.786   2.137 -0.7630  0.4365  0.5424
  210MOL0     C27634   3.748   8.818   2.147 -0.2603 -0.2696  0.4111
  210MOL0     O27635   3.885   9.177   2.144 -0.3304  0.3063 -0.6942
  210MOL0     C27636   4.208   9.027   2.159 -0.0361 -0.3315 -0.2966
  210MOL0     C27637   4.344   9.056   2.157 -0.6638  0.2431  0.1178
  210MOL0     N27638   4.836   9.025   2.419 -0.2731 -0.8840  0.1318
  210MOL0     N27639   4.812   9.061   2.539  0.3787  0.7648 -0.5295
  210MOL0     C27640   3.732   9.315   2.531 -0.0730  0.3978 -0.5914
  210MOL0     C27641   3.612   9.326   2.604  0.1663 -0.7411  0.5056
  210MOL0     C27642   3.381   9.490   2.976 -0.0503 -0.4021  0.4081
  210MOL0     C27643   3.356   9.621   3.012 -0.5331 -0.9616 -0.4682
  210MOL0     C27644   3.253   9.650   3.106 -0.2825 -0.3199  0.4596
  210MOL0     C27645   3.176   9.550   3.158  0.2649  0.4442  0.3293
  210MOL0     O27646   3.087   9.594   3.258  0.3594 -0.3047 -0.8958
  210MOL0     C27647   3.056   9.498   3.364 -0.7541  0.4235 -0.2915
  210MOL0     C27648   3.016   9.587   3.494  0.6347  0.2010 -0.1880
  210MOL0     C27649   3.032   9.493   3.624 -0.1356 -0.3512 -0.0414
  210MOL0     C27650   2.993   9.558   3.749  0.5869 -0.3554 -0.3153
  210MOL0     C27651   3.073   9.670   3.794  0.1957  1.0744  0.8642
  210MOL0     C27652   3.150   9.763   3.824  0.7944 -0.4786 -0.3258
  210MOL0     C27653   3.210   9.418   3.126  0.5645  0.0378 -0.2980
  210MOL0     C27654   3.308   9.388   3.037 -0.6644 -0.5098  0.9311
  210MOL0     H27655   3.733   9.307   2.917  0.5238  2.3729  0.2470
  210MOL0     H27656   3.957   9.313   2.786 -0.6937  3.3546  0.9170
  210MOL0     H27657   4.113   9.241   2.668 -1.7829 -1.6666 -0.5360
  210MOL0     H27658   4.115   9.419   2.621  0.4956  0.9279 -2.5018
  210MOL0     H27659   4.213   9.362   2.410  3.8889 -1.0404 -1.1025
  210MOL0     H27660   4.202   9.186   2.438 -0.6372 -0.0300  0.4412
  210MOL0     H27661   4.425   9.226   2.508  0.9486 -0.0445 -0.3892
  210MOL0     H27662   4.347   9.246   2.663  1.3509  0.0397 -0.8595
  210MOL0     H27663   4.386   9.479   2.470 -0.4572 -1.2993 -1.6686
  210MOL0     H27664   4.317   9.492   2.632  1.2502  0.2042  1.0435
  210MOL0     H27665   4.508   9.435   2.746  2.0063 -2.2623 -0.3263
  210MOL0     H27666   4.556   9.564   2.629  1.1757  0.0758  0.3024
  210MOL0     H27667   4.649   9.368   2.489 -1.2116  0.6489 -0.8303
  210MOL0     H27668   4.592   9.261   2.628 -2.5432  1.1696 -0.8957
  210MOL0     H27669   4.816   9.458   2.615  1.2292 -2.5492 -1.9746
  210MOL0     H27670   4.727   9.433   2.773 -1.4073  1.1856 -1.3815
  210MOL0     H27671   4.791   9.190   2.765  1.8011  0.1885  0.2094
  210MOL0     H27672   4.930   9.297   2.730  0.9213  1.1699 -1.0348
  210MOL0     H27673   5.020   9.296   2.463  0.4683  0.8838 -1.6702
  210MOL0     H27674   5.059   9.059   2.222 -2.0702 -2.8781 -1.2051
  210MOL0     H27675   4.994   9.227   2.210 -1.1972  2.0123  4.0564
  210MOL0     H27676   4.830   8.968   2.148 -1.3971 -0.0009  1.4875
  210MOL0     H27677   4.918   9.060   2.039 -0.8844  2.5162 -0.9565
  210MOL0     H27678   4.752   9.246   2.209 -2.0750  0.2326  0.2978
  210MOL0     H27679   4.758   9.240   2.033 -0.5107 -0.6913  0.4904
  210MOL0     H27680   4.611   9.070   2.223 -0.9930  0.0805 -0.2639
  210MOL0     H27681   4.607   9.059   2.035 -1.1289 -0.0885  0.0489
  210MOL0     H27682   4.316   9.379   2.062 -3.1875  1.7548  5.2165
  210MOL0     H27683   4.071   9.313   2.048  0.1667  0.2175 -1.3487
  210MOL0     H27684   3.759   9.069   1.913 -0.8693  0.8109  0.3566
  210MOL0     H27685   3.523   8.989   1.870  1.1538 -0.8652 -2.2477
  210MOL0     H27686   3.323   8.983   1.915 -0.3605 -2.6879 -0.3635
  210MOL0     H27687   3.338   9.019   2.086  0.0212  1.6571 -0.5346
  210MOL0     H27688   3.160   8.801   1.971 -1.4445 -2.2505  4.1757
  210MOL0     H27689   3.108   8.968   2.025  0.9273  1.1954  4.2248
  210MOL0     H27690   3.157   8.902   2.251  0.8251 -0.6084  0.7073
  210MOL0     H27691   3.228   8.748   2.193 -0.3517  1.1019  1.3279
  210MOL0     H27692   2.948   8.817   2.105 -0.8145 -1.4594  0.2672
  210MOL0     H27693   3.028   8.660   2.133 -1.9023 -0.3277 -1.7535
  210MOL0     H27694   2.964   8.844   2.359  0.0070 -0.7854  1.1136
  210MOL0     H27695   3.037   8.694   2.373  2.0053  0.2007 -1.7059
  210MOL0     H27696   2.745   8.727   2.251 -1.0729 -0.6832  0.6818
  210MOL0     H27697   2.780   8.709   2.418 -1.5229 -4.3484  1.3497
  210MOL0     H27698   2.848   8.491   2.214  1.9556  2.0008 -0.2093
  210MOL0     H27699   2.854   8.475   2.383  0.3954  0.2423 -0.0953
  210MOL0     H27700   2.644   8.385   2.275  1.5807 -0.0445 -0.4007
  210MOL0     H27701   2.605   8.551   2.224 -2.8923 -0.8674  0.8653
  210MOL0     H27702   3.570   8.703   2.197 -1.5933  1.5006  1.5276
  210MOL0     H27703   3.807   8.768   2.224 -1.1458 -1.5264  0.2896
  210MOL0     H27704   4.185   8.931   2.204  1.2351 -1.0007 -0.9990
  210MOL0     H27705   4.412   8.973   2.169  1.6206  1.4890 -2.8827
  210MOL0     H27706   3.719   9.290   2.427 -4.2177 -0.6455 -0.0127
  210MOL0     H27707   3.517   9.327   2.552  0.2768  0.9224  0.2955
  210MOL0     H27708   3.412   9.705   2.973 -1.7932 -0.4918 -1.3122
  210MOL0     H27709   3.248   9.751   3.144 -1.3488 -0.1592 -0.0765
  210MOL0     H27710   3.140   9.431   3.386 -0.3636  1.0679  0.2099
  210MOL0     H27711   2.966   9.444   3.332  0.4139 -0.8477 -1.5922
  210MOL0     H27712   3.083   9.672   3.500  0.3634  0.3752  0.5088
  210MOL0     H27713   2.911   9.618   3.484  0.0546 -1.3427  0.6416
  210MOL0     H27714   3.138   9.469   3.633  0.6252  1.8496 -2.0932
  210MOL0     H27715   2.966   9.407   3.610 -0.9750  0.3908 -0.7303
  210MOL0     H27716   2.887   9.585   3.751  0.6106 -0.1488 -1.3000
  210MOL0     H27717   3.010   9.487   3.830 -2.3074 -1.3961 -0.5069
  210MOL0     H27718   3.227   9.832   3.851  0.0170 -1.3262  5.3630
  210MOL0     H27719   3.141   9.337   3.146 -0.4851  0.5576 -1.6514
  210MOL0     H27720   3.324   9.288   3.000  1.8536  0.5697 -1.2423
  211MOL0     O27721   1.051  11.008   5.617  0.0291 -0.2949 -0.4582
  211MOL0     C27722   1.057  11.089   5.713 -0.2910 -0.9407  0.6356
  211MOL0     O27723   0.953  11.123   5.799  0.1270  0.5723 -0.1823
  211MOL0     C27724   0.827  11.066   5.775 -0.2948 -0.3396 -0.3175
  211MOL0     C27725   0.781  10.942   5.824  0.5131 -0.1411 -0.2203
  211MOL0     C27726   0.649  10.900   5.801 -0.3007  0.0378  0.0666
  211MOL0     C27727   0.560  10.990   5.741 -0.2012 -0.3667  0.4469
  211MOL0     O27728   0.434  10.965   5.700  0.0742 -0.4114  0.5047
  211MOL0     C27729   0.353  10.888   5.792 -0.4953 -0.0858 -0.5224
  211MOL0     C27730   0.216  10.865   5.716 -0.6460 -0.2445  0.5526
  211MOL0     C27731   0.103  10.820   5.809 -0.1116 -0.0581 -0.3180
  211MOL0     C27732  -0.023  10.774   5.738 -0.2681  0.0870  0.0403
  211MOL0     C27733  -0.134  10.744   5.850  0.7177  0.0028 -0.1694
  211MOL0     C27734  -0.177  10.863   5.936  0.7242 -0.0809  0.1095
  211MOL0     C27735  -0.193  10.998   5.869 -0.2379  0.7887  0.1748
  211MOL0     C27736  -0.308  11.006   5.767 -0.1059  0.3984 -0.1128
  211MOL0     N27737  -0.441  10.973   5.835 -1.3216  0.0702 -0.4575
  211MOL0     C27738  -0.489  11.037   5.955 -0.2533 -0.3272 -0.1318
  211MOL0     C27739  -0.613  10.977   5.982  0.0067  0.2385  0.0642
  211MOL0     C27740  -0.713  11.006   6.088 -0.4849 -0.0338  0.8048
  211MOL0     C27741  -0.809  11.124   6.057 -0.8744 -0.0236 -0.3199
  211MOL0     C27742  -0.936  11.112   6.153 -0.0182  0.3608  0.7285
  211MOL0     C27743  -0.918  11.154   6.305  0.2541  0.3223 -0.5416
  211MOL0     O27744  -1.048  11.171   6.366  0.3888  0.3792 -0.3644
  211MOL0     C27745  -1.107  11.290   6.346  0.3869  0.2660 -0.3349
  211MOL0     C27746  -1.234  11.301   6.391  1.6310  0.1976 -0.0525
  211MOL0     C27747  -1.321  11.407   6.360 -0.0793 -0.6690  0.3905
  211MOL0     C27748  -1.272  11.524   6.301 -0.2300 -0.4823  0.1097
  211MOL0     C27749  -1.357  11.635   6.271  0.4761 -0.3970 -0.8880
  211MOL0     O27750  -1.489  11.619   6.301  0.7885  0.1082 -0.4545
  211MOL0     C27751  -1.587  11.713   6.290  0.0789 -0.3636  0.4512
  211MOL0     C27752  -1.578  11.843   6.352 -0.4390  0.1161 -0.2368
  211MOL0     C27753  -1.669  11.940   6.322 -0.4586 -1.1419 -0.9595
  211MOL0     C27754  -1.775  11.920   6.237 -0.0107 -0.1488  0.8703
  211MOL0     O27755  -1.862  12.018   6.213 -0.6692 -0.8500  0.5384
  211MOL0     C27756  -1.957  12.005   6.105  0.1670  0.9406 -0.1463
  211MOL0     C27757  -2.029  12.140   6.088  0.2053  0.0232 -0.2861
  211MOL0     C27758  -2.122  12.164   6.211 -1.1264 -0.6169  0.3492
  211MOL0     C27759  -2.200  12.297   6.209 -0.8507 -0.0971 -0.1069
  211MOL0     C27760  -2.110  12.415   6.242 -0.0417  0.0696  0.0505
  211MOL0     C27761  -2.182  12.545   6.257  0.6420  0.5280 -0.1384
  211MOL0     C27762  -2.102  12.650   6.342  0.1762  0.3279 -0.2270
  211MOL0     C27763  -2.156  12.793   6.329 -0.2548 -0.7098  0.5467
  211MOL0    Cl27764  -2.136  12.866   6.490 -0.0731 -0.3169  0.3138
  211MOL0     C27765  -1.790  11.791   6.186  0.3829 -0.3291  0.1633
  211MOL0     C27766  -1.697  11.686   6.213  0.7615  0.2780  0.3834
  211MOL0     O27767  -1.309  11.738   6.239 -0.7492  0.1458 -0.5462
  211MOL0     C27768  -1.133  11.522   6.266  0.5434 -0.4877 -0.9219
  211MOL0     C27769  -1.055  11.408   6.284 -0.4071  0.2380  0.9548
  211MOL0     N27770  -0.629  10.880   5.886 -0.2188 -0.5122  0.6486
  211MOL0     N27771  -0.540  10.882   5.788 -0.5366 -0.2766 -0.2538
  211MOL0     C27772   0.609  11.113   5.695  1.2706  0.2085  0.6622
  211MOL0     C27773   0.734  11.155   5.714  0.5173  0.2659 -0.5534
  211MOL0     C27774   1.180  11.167   5.720  0.0553 -0.2797 -0.0091
  211MOL0     C27775   1.185  11.285   5.791  0.0832 -0.6703 -1.4185
  211MOL0     C27776   1.306  11.348   5.805 -0.3861 -0.9296  0.9209
  211MOL0     C27777   1.425  11.289   5.765 -0.5185  0.5403  0.3166
  211MOL0     O27778   1.541  11.335   5.824  0.0080 -0.1340 -0.0971
  211MOL0     C27779   1.660  11.269   5.774 -0.3801  0.1838 -0.3445
  211MOL0     C27780   1.767  11.319   5.872 -0.3552  0.1164 -0.5715
  211MOL0     C27781   1.890  11.233   5.831 -0.4836  0.7593 -0.1588
  211MOL0     C27782   2.026  11.283   5.881 -0.4331  0.2679 -0.1110
  211MOL0     C27783   2.124  11.191   5.817 -0.4569  0.2584 -0.5833
  211MOL0     C27784   2.204  11.123   5.761 -0.1197  0.3251  0.0912
  211MOL0     C27785   1.416  11.181   5.676  0.2242 -0.3027  0.7078
  211MOL0     C27786   1.293  11.119   5.666  0.0056  0.3438  0.1980
  211MOL0     H27787   0.843  10.879   5.887 -0.1629 -1.1622 -0.5391
  211MOL0     H27788   0.625  10.801   5.839  4.3935 -0.7389  1.7440
  211MOL0     H27789   0.338  10.946   5.883 -0.8284 -2.8349  1.2690
  211MOL0     H27790   0.410  10.798   5.815 -2.2858 -0.8777  1.0828
  211MOL0     H27791   0.238  10.789   5.640  3.4151  2.3646 -1.2665
  211MOL0     H27792   0.187  10.953   5.657 -1.7685 -0.6018  0.5564
  211MOL0     H27793   0.079  10.896   5.884  4.8119  0.4087  1.1579
  211MOL0     H27794   0.139  10.730   5.861 -1.4455 -0.0974  0.5764
  211MOL0     H27795  -0.051  10.842   5.656  1.2888 -1.7754 -2.1473
  211MOL0     H27796  -0.001  10.677   5.693 -1.1966  0.3278 -0.9630
  211MOL0     H27797  -0.094  10.667   5.916 -1.2765 -1.9302 -1.0736
  211MOL0     H27798  -0.220  10.708   5.792  1.1501  0.7675 -1.3210
  211MOL0     H27799  -0.101  10.881   6.012  0.0047 -0.2458  0.8844
  211MOL0     H27800  -0.264  10.824   5.989 -0.0135  1.5298  0.1375
  211MOL0     H27801  -0.214  11.069   5.949 -0.7571 -1.3598  2.0772
  211MOL0     H27802  -0.095  11.009   5.822 -0.4542 -4.7926 -2.4100
  211MOL0     H27803  -0.297  10.934   5.686 -0.5427 -0.4371  0.5479
  211MOL0     H27804  -0.306  11.109   5.732  0.6835 -0.3613 -2.5097
  211MOL0     H27805  -0.445  11.121   6.008  1.6427 -1.1456 -0.3460
  211MOL0     H27806  -0.664  11.045   6.177  0.2138  2.6772 -0.6698
  211MOL0     H27807  -0.774  10.916   6.103  1.1375 -1.2292  0.4974
  211MOL0     H27808  -0.832  11.122   5.950  3.4541 -1.1559 -1.4097
  211MOL0     H27809  -0.759  11.220   6.078 -0.5633 -0.0699 -0.8382
  211MOL0     H27810  -1.010  11.178   6.107  0.6317  0.8341  0.3346
  211MOL0     H27811  -0.972  11.009   6.151  1.4495 -0.1927  1.4187
  211MOL0     H27812  -0.856  11.244   6.301 -0.4839  0.8548 -0.1827
  211MOL0     H27813  -0.857  11.084   6.362  2.9967  2.5102 -0.6138
  211MOL0     H27814  -1.287  11.213   6.428  1.7049 -1.0149 -2.6136
  211MOL0     H27815  -1.424  11.394   6.391 -0.0236  0.8263  1.3148
  211MOL0     H27816  -1.493  11.865   6.417 -1.4077  0.2204  1.0349
  211MOL0     H27817  -1.658  12.040   6.362 -1.6438 -0.2418 -2.7639
  211MOL0     H27818  -2.034  11.929   6.125 -2.0562  2.6531 -1.7042
  211MOL0     H27819  -1.913  11.977   6.009  1.2704  2.0447  0.0141
  211MOL0     H27820  -2.090  12.139   5.997  1.5032 -3.5434 -1.2926
  211MOL0     H27821  -1.958  12.224   6.087 -0.2720  0.4234 -1.3890
  211MOL0     H27822  -2.071  12.163   6.308 -0.0237 -1.1964 -0.2183
  211MOL0     H27823  -2.193  12.081   6.222 -1.1283 -0.4972  1.3563
  211MOL0     H27824  -2.265  12.322   6.125 -2.5790  0.9704  1.4700
  211MOL0     H27825  -2.268  12.289   6.294 -2.4398 -4.1053 -1.4765
  211MOL0     H27826  -2.022  12.412   6.176  0.9365  0.4423  1.2908
  211MOL0     H27827  -2.086  12.397   6.347 -0.6019 -1.3754 -0.0414
  211MOL0     H27828  -2.274  12.523   6.312  2.5752 -1.5605  2.5747
  211MOL0     H27829  -2.208  12.587   6.160 -1.4186 -0.8139 -0.2084
  211MOL0     H27830  -2.119  12.619   6.445 -0.7140  3.3808  0.6411
  211MOL0     H27831  -1.998  12.659   6.308  0.1878  3.7552  0.3964
  211MOL0     H27832  -2.263  12.800   6.307  0.3236  2.9954 -2.1211
  211MOL0     H27833  -2.106  12.848   6.249  1.0998 -1.4483  0.8567
  211MOL0     H27834  -1.880  11.769   6.128  1.0092 -2.7110 -0.0340
  211MOL0     H27835  -1.710  11.588   6.167 -0.9750  1.0997 -0.9612
  211MOL0     H27836  -1.084  11.611   6.229 -0.6843 -0.3451 -2.2891
  211MOL0     H27837  -0.950  11.409   6.256 -0.5040 -2.4384  0.2250
  211MOL0     H27838   0.529  11.174   5.654 -0.0517 -2.2205 -0.5868
  211MOL0     H27839   0.759  11.258   5.692  1.4240 -0.0573 -1.1120
  211MOL0     H27840   1.101  11.337   5.837  0.8380  0.0327 -0.8066
  211MOL0     H27841   1.303  11.437   5.867 -2.0435 -0.5982  0.4356
  211MOL0     H27842   1.679  11.297   5.670 -1.0657 -0.5092 -0.6595
  211MOL0     H27843   1.654  11.161   5.788  2.2213 -0.0262 -0.2788
  211MOL0     H27844   1.801  11.423   5.866 -1.8050  0.9549  2.9942
  211MOL0     H27845   1.734  11.308   5.976  0.4735 -1.7523 -0.4669
  211MOL0     H27846   1.889  11.244   5.722 -3.9901  3.7917  0.0053
  211MOL0     H27847   1.883  11.128   5.861 -0.7853  1.0592  0.8566
  211MOL0     H27848   2.041  11.388   5.856 -0.8298  1.2294  3.2123
  211MOL0     H27849   2.026  11.271   5.989 -0.1913 -0.7205 -0.2082
  211MOL0     H27850   2.277  11.056   5.720  0.2963  0.4406  0.6218
  211MOL0     H27851   1.499  11.125   5.636  0.9192 -0.9241  2.8739
  211MOL0     H27852   1.286  11.026   5.611 -0.3136 -0.5974  1.7574
  212MOL0     O27853   5.014   7.873   1.838 -0.1053  0.2489 -0.8325
  212MOL0     C27854   5.076   7.820   1.933 -0.2548 -0.3323  0.9306
  212MOL0     O27855   5.029   7.731   2.023 -0.0206 -0.3252  0.0156
  212MOL0     C27856   4.897   7.703   2.017  1.0557 -0.8371 -0.6740
  212MOL0     C27857   4.810   7.781   2.089 -0.5051 -0.3399 -0.0126
  212MOL0     C27858   4.675   7.753   2.092  0.6451 -0.2511 -0.3311
  212MOL0     C27859   4.615   7.655   2.012  0.0825  0.3976 -0.3147
  212MOL0     O27860   4.473   7.635   2.000 -0.3440  0.4043 -0.5706
  212MOL0     C27861   4.387   7.683   2.105 -0.6900 -0.0747 -0.3031
  212MOL0     C27862   4.265   7.598   2.100  0.6223 -0.6811  0.1610
  212MOL0     C27863   4.159   7.648   2.200 -0.0256  0.4133 -0.4249
  212MOL0     C27864   4.041   7.556   2.211  0.1298 -0.8014  0.5601
  212MOL0     C27865   3.920   7.619   2.293  1.2046  0.5568 -0.1278
  212MOL0     C27866   3.802   7.520   2.326  0.2461  0.0895  0.4531
  212MOL0     C27867   3.673   7.580   2.387 -0.0630 -1.2776 -0.0721
  212MOL0     C27868   3.545   7.481   2.381  0.3077  0.3676  0.4389
  212MOL0     N27869   3.420   7.553   2.391 -0.2534 -0.0296  0.4140
  212MOL0     C27870   3.354   7.582   2.511  0.6227  0.1167 -0.1861
  212MOL0     C27871   3.279   7.691   2.480 -0.0648  0.2420 -1.4379
  212MOL0     C27872   3.192   7.766   2.578  0.1237  0.1813 -0.3852
  212MOL0     C27873   3.041   7.758   2.543 -0.3528  0.4895 -0.1181
  212MOL0     C27874   2.983   7.625   2.602 -0.8158 -0.3909  0.1847
  212MOL0     C27875   2.832   7.631   2.619 -0.5119  0.5569  0.8061
  212MOL0     O27876   2.782   7.490   2.642 -0.2611 -0.5800  0.1182
  212MOL0     C27877   2.649   7.468   2.671  0.5596  0.2274  0.2112
  212MOL0     C27878   2.618   7.340   2.698  0.1663  0.2154 -0.9219
  212MOL0     C27879   2.493   7.299   2.733  0.0218  0.5861 -0.2305
  212MOL0     C27880   2.382   7.382   2.702 -0.1435 -0.6393  0.5536
  212MOL0     C27881   2.251   7.336   2.720  0.3231 -0.1865 -0.5283
  212MOL0     O27882   2.161   7.437   2.741  0.7361 -0.4327  0.7091
  212MOL0     C27883   2.023   7.419   2.733  0.0306 -0.1184  0.2700
  212MOL0     C27884   1.969   7.382   2.607  0.1453 -0.2728  0.3792
  212MOL0     C27885   1.829   7.370   2.592 -0.2449  0.4804  0.2816
  212MOL0     C27886   1.742   7.393   2.702  0.6181 -1.0669 -0.3355
  212MOL0     O27887   1.601   7.390   2.698 -0.2229  0.1818  0.3455
  212MOL0     C27888   1.540   7.460   2.589 -0.2622  0.2878  1.0747
  212MOL0     C27889   1.436   7.563   2.627 -0.2186  0.2717 -0.2562
  212MOL0     C27890   1.308   7.501   2.682 -0.3702 -0.6028  0.1382
  212MOL0     C27891   1.206   7.614   2.696 -0.5891  0.2741 -0.2089
  212MOL0     C27892   1.072   7.562   2.760 -0.0017  0.2179  0.7955
  212MOL0     C27893   0.980   7.490   2.654 -0.0995 -0.2699  1.1772
  212MOL0     C27894   0.832   7.465   2.708 -0.2176 -0.0101 -0.1347
  212MOL0     C27895   0.743   7.401   2.612 -0.2338  0.1119  0.7761
  212MOL0    Cl27896   0.615   7.326   2.710  0.5745 -0.4004 -0.2517
  212MOL0     C27897   1.807   7.420   2.826 -0.1052  0.4752 -0.1080
  212MOL0     C27898   1.943   7.424   2.841 -0.0591  0.9353 -0.2621
  212MOL0     O27899   2.225   7.214   2.727 -0.3718 -0.6037 -0.6128
  212MOL0     C27900   2.414   7.513   2.662  1.0522  0.8585 -0.3165
  212MOL0     C27901   2.546   7.562   2.658 -0.7978 -0.0320  0.3488
  212MOL0     N27902   3.303   7.726   2.355 -1.0123 -0.8981  0.6189
  212MOL0     N27903   3.373   7.635   2.290 -0.2358 -0.6824 -0.2640
  212MOL0     C27904   4.702   7.581   1.933 -0.5853  0.1245 -0.0773
  212MOL0     C27905   4.840   7.600   1.944  0.0194 -0.0304 -0.1176
  212MOL0     C27906   5.217   7.852   1.941 -0.7714  0.9842 -0.6014
  212MOL0     C27907   5.295   7.903   1.828 -0.0843  0.4350 -0.0060
  212MOL0     C27908   5.435   7.911   1.844  0.3533 -0.4104  0.4840
  212MOL0     C27909   5.510   7.874   1.960  0.2589 -0.1582  0.3082
  212MOL0     O27910   5.646   7.872   1.964 -0.0310  0.4894 -0.2204
  212MOL0     C27911   5.731   7.948   1.873  0.0075 -0.1074 -0.0605
  212MOL0     C27912   5.837   8.023   1.954 -0.4925  0.3052 -0.4927
  212MOL0     C27913   5.925   7.935   2.052  0.3581 -0.1580 -0.2054
  212MOL0     C27914   6.034   8.021   2.116 -1.3254 -0.2451 -0.2467
  212MOL0     C27915   6.159   8.039   2.031  1.0350  1.0292 -0.7488
  212MOL0     C27916   6.244   8.058   1.948  0.4522  0.3955  0.4700
  212MOL0     C27917   5.432   7.825   2.064 -0.2482  0.1295  0.8343
  212MOL0     C27918   5.293   7.809   2.059  0.0360  0.1436  0.0190
  212MOL0     H27919   4.841   7.863   2.154  0.3438  0.3645 -1.2746
  212MOL0     H27920   4.604   7.818   2.143 -0.8483  0.3260 -2.9367
  212MOL0     H27921   4.379   7.789   2.078 -0.8327 -0.8640 -3.8989
  212MOL0     H27922   4.442   7.674   2.199  0.7440 -0.2488 -1.1155
  212MOL0     H27923   4.305   7.501   2.133 -0.0823 -1.8030 -2.0829
  212MOL0     H27924   4.237   7.586   1.995 -0.6709 -0.4167  0.4629
  212MOL0     H27925   4.118   7.747   2.178 -0.4543  0.1658 -0.7614
  212MOL0     H27926   4.187   7.654   2.305 -1.8816  2.9388  0.0211
  212MOL0     H27927   4.003   7.516   2.117 -2.9202  3.7930 -0.4999
  212MOL0     H27928   4.082   7.472   2.267 -0.3687 -0.5687  1.3003
  212MOL0     H27929   3.882   7.709   2.243 -0.1012 -0.3076 -0.7385
  212MOL0     H27930   3.959   7.660   2.386 -1.6952  6.4678 -1.0349
  212MOL0     H27931   3.835   7.435   2.387 -1.0855 -1.5766 -1.0326
  212MOL0     H27932   3.775   7.481   2.227 -0.5392 -0.7535  0.9869
  212MOL0     H27933   3.693   7.601   2.493 -0.3563 -2.6426  0.2676
  212MOL0     H27934   3.640   7.664   2.326 -3.5936 -1.2109  1.6588
  212MOL0     H27935   3.543   7.413   2.466  2.8155  1.1717  1.2602
  212MOL0     H27936   3.559   7.426   2.287  3.3518  0.6225  0.6327
  212MOL0     H27937   3.359   7.538   2.610 -0.3211  0.5569  0.0687
  212MOL0     H27938   3.228   7.870   2.577  0.8147 -0.0322  0.8398
  212MOL0     H27939   3.213   7.725   2.677  2.2848  0.3761 -0.6963
  212MOL0     H27940   3.025   7.770   2.435  0.4217  0.4374 -0.2421
  212MOL0     H27941   2.981   7.837   2.588 -0.5648 -0.4450  1.3114
  212MOL0     H27942   2.998   7.546   2.528  0.8990 -1.1376  1.2621
  212MOL0     H27943   3.024   7.596   2.699 -2.4428 -1.7418  0.5016
  212MOL0     H27944   2.794   7.679   2.528  0.2603 -1.3364 -0.5679
  212MOL0     H27945   2.799   7.693   2.703 -1.8611 -0.0794  0.7632
  212MOL0     H27946   2.699   7.269   2.712  0.0819 -0.1318 -2.1015
  212MOL0     H27947   2.471   7.195   2.756 -0.9388  0.5923 -1.0287
  212MOL0     H27948   2.040   7.373   2.525  0.6100 -2.2712  0.9618
  212MOL0     H27949   1.798   7.346   2.491  0.6344  0.2660  0.0616
  212MOL0     H27950   1.499   7.380   2.526  5.4194 -1.3935 -1.1569
  212MOL0     H27951   1.618   7.495   2.520  1.1779 -2.3448  1.2326
  212MOL0     H27952   1.401   7.619   2.539 -2.4603 -0.6350 -0.0210
  212MOL0     H27953   1.477   7.635   2.699 -1.1591  0.7689 -0.1932
  212MOL0     H27954   1.329   7.456   2.779  0.3498  1.0431  0.7828
  212MOL0     H27955   1.262   7.419   2.627 -0.6865 -4.1248  4.9913
  212MOL0     H27956   1.247   7.693   2.760 -0.3370  1.5232 -1.8411
  212MOL0     H27957   1.194   7.653   2.594  0.6504 -1.0180 -0.8940
  212MOL0     H27958   1.021   7.650   2.802  0.7030  0.8430  0.3724
  212MOL0     H27959   1.096   7.501   2.848  2.2354  0.6735  0.5632
  212MOL0     H27960   1.015   7.392   2.619 -0.9632  0.2973 -1.4815
  212MOL0     H27961   0.957   7.554   2.568 -0.4502 -1.3013  0.4817
  212MOL0     H27962   0.841   7.399   2.794 -3.5677  0.3870  0.6391
  212MOL0     H27963   0.790   7.557   2.748  1.0237  1.3613 -1.7898
  212MOL0     H27964   0.787   7.325   2.547 -1.2345 -0.7339  1.0745
  212MOL0     H27965   0.705   7.477   2.542 -1.5425 -1.5784 -0.4261
  212MOL0     H27966   1.750   7.435   2.917 -0.0137 -0.9281  0.1990
  212MOL0     H27967   1.987   7.451   2.937 -5.8247  0.4773  3.0115
  212MOL0     H27968   2.335   7.582   2.635 -1.1438 -1.6257 -0.6831
  212MOL0     H27969   2.561   7.667   2.635 -0.0198  0.2587  2.0691
  212MOL0     H27970   4.671   7.494   1.876  1.3497  0.6958 -2.1426
  212MOL0     H27971   4.915   7.540   1.895  0.7724  1.0367 -0.3091
  212MOL0     H27972   5.251   7.931   1.733  0.5302 -1.7919 -0.9940
  212MOL0     H27973   5.486   7.957   1.760  2.0914 -2.2952  0.4277
  212MOL0     H27974   5.681   8.021   1.809  0.4964 -1.2711 -1.8490
  212MOL0     H27975   5.781   7.884   1.800 -1.6905 -1.4295 -0.1433
  212MOL0     H27976   5.910   8.082   1.898  1.7480 -0.4860  1.4420
  212MOL0     H27977   5.788   8.098   2.017 -2.7901 -1.8991  0.5466
  212MOL0     H27978   5.970   7.847   2.003 -0.6751 -0.3140 -0.9136
  212MOL0     H27979   5.866   7.904   2.138 -0.9074  1.0794 -0.5995
  212MOL0     H27980   5.978   8.114   2.128 -1.1545 -0.3387  1.4474
  212MOL0     H27981   6.065   7.984   2.214 -1.2057  0.9952  0.1987
  212MOL0     H27982   6.314   8.093   1.875 -1.0921 -1.5475 -2.1167
  212MOL0     H27983   5.484   7.778   2.147  1.4749 -0.1752 -0.3619
  212MOL0     H27984   5.245   7.750   2.136  0.5180  0.1312  0.3154
  213MOL0     O27985   7.357   9.883   5.531  0.5546  0.1223  0.1642
  213MOL0     C27986   7.464   9.940   5.540  1.1397 -0.0335 -0.5492
  213MOL0     O27987   7.495  10.015   5.645 -1.0083  0.0132 -0.3937
  213MOL0     C27988   7.426  10.031   5.760 -0.1539  0.9309 -0.0420
  213MOL0     C27989   7.483  10.119   5.858  0.9263  1.5032 -0.3951
  213MOL0     C27990   7.434  10.132   5.991  0.0906 -0.8022 -0.0117
  213MOL0     C27991   7.320  10.069   6.033 -0.0334 -0.2574 -0.0906
  213MOL0     O27992   7.277  10.088   6.165 -0.1207  0.3181 -0.5845
  213MOL0     C27993   7.159  10.025   6.214 -0.2847 -0.0306 -0.1955
  213MOL0     C27994   7.125  10.077   6.352  0.0207  0.4163 -0.1515
  213MOL0     C27995   7.097   9.970   6.459 -0.3039  0.0474 -0.3876
  213MOL0     C27996   6.961   9.896   6.428  0.0823 -0.8590 -0.3927
  213MOL0     C27997   6.911   9.802   6.544 -0.2055 -0.1023  0.1268
  213MOL0     C27998   7.005   9.698   6.597 -0.5206  0.2292  0.0305
  213MOL0     C27999   6.928   9.612   6.695 -0.1987 -0.3301  0.4868
  213MOL0     C28000   6.842   9.511   6.633  0.2331  0.3006 -0.6179
  213MOL0     N28001   6.766   9.422   6.725 -0.1051 -0.0651  0.0841
  213MOL0     C28002   6.665   9.461   6.808 -0.7350 -0.3064 -0.5399
  213MOL0     C28003   6.617   9.350   6.862  1.2835  0.5753  0.3768
  213MOL0     C28004   6.518   9.349   6.982  0.0791  1.0314  0.4384
  213MOL0     C28005   6.389   9.275   6.922 -0.0571 -0.4861  0.1933
  213MOL0     C28006   6.278   9.250   7.025 -0.2249 -0.3843  0.2689
  213MOL0     C28007   6.149   9.189   6.973 -0.2112  0.5452  0.4067
  213MOL0     O28008   6.048   9.201   7.073 -0.3814 -0.0249  0.3218
  213MOL0     C28009   5.927   9.143   7.044 -0.5043 -0.5870  0.9853
  213MOL0     C28010   5.839   9.127   7.151  0.4931 -0.2802 -0.7692
  213MOL0     C28011   5.701   9.098   7.125  0.2292 -0.6548  0.0421
  213MOL0     C28012   5.659   9.062   6.995 -1.0279  0.3560  0.6226
  213MOL0     C28013   5.524   9.000   6.980  0.3241 -0.4838 -0.9563
  213MOL0     O28014   5.443   9.035   7.081 -0.2814  0.3536 -0.1403
  213MOL0     C28015   5.306   9.008   7.081 -0.6051  0.3333 -0.0798
  213MOL0     C28016   5.243   8.889   7.039 -0.9576  0.2138  0.2024
  213MOL0     C28017   5.105   8.883   7.039  0.1581  0.3377  1.0366
  213MOL0     C28018   5.031   8.980   7.104  0.0104 -0.4486 -0.4793
  213MOL0     O28019   4.896   8.954   7.120  0.7099  0.2404 -0.0044
  213MOL0     C28020   4.808   9.058   7.165 -0.4619  0.2981 -0.4538
  213MOL0     C28021   4.662   9.009   7.154  0.7667 -0.9232 -0.0360
  213MOL0     C28022   4.559   9.110   7.186  1.4151 -0.7839  0.0086
  213MOL0     C28023   4.458   9.134   7.075  0.1692  0.3048 -0.1432
  213MOL0     C28024   4.356   9.019   7.057  0.0741  0.4993  0.5185
  213MOL0     C28025   4.270   9.037   7.177  1.0200  0.1024  0.0637
  213MOL0     C28026   4.133   8.976   7.161 -0.2691  0.5475  0.3333
  213MOL0     C28027   4.072   8.949   7.296 -0.0705  0.4347 -1.5211
  213MOL0    Cl28028   3.931   8.845   7.271 -0.1541  0.1256 -0.2987
  213MOL0     C28029   5.094   9.086   7.160 -0.4402 -0.3063 -0.9259
  213MOL0     C28030   5.228   9.109   7.136 -1.4719 -0.0942  0.1652
  213MOL0     O28031   5.494   8.926   6.892 -0.1953  0.1720 -0.1618
  213MOL0     C28032   5.756   9.062   6.893  0.0890  0.5874 -0.0377
  213MOL0     C28033   5.885   9.112   6.912  0.7993 -0.4059 -0.3530
  213MOL0     N28034   6.700   9.248   6.820 -0.2270  0.4244 -0.3480
  213MOL0     N28035   6.789   9.293   6.735 -0.4346  0.1312 -0.6706
  213MOL0     C28036   7.257   9.987   5.939 -0.4053  0.5934  0.3363
  213MOL0     C28037   7.310   9.960   5.806 -0.7353 -0.0806 -0.3987
  213MOL0     C28038   7.559   9.921   5.429  0.3255 -0.4707  0.6810
  213MOL0     C28039   7.522   9.844   5.311 -0.2859  0.7639  0.1121
  213MOL0     C28040   7.616   9.813   5.213 -0.3257 -0.9002  0.2847
  213MOL0     C28041   7.746   9.867   5.225 -0.2934  0.2249  0.4859
  213MOL0     O28042   7.828   9.839   5.114 -0.2959  0.0692  0.4133
  213MOL0     C28043   7.941   9.925   5.084 -0.0525 -0.4239  0.4367
  213MOL0     C28044   7.969   9.928   4.937  0.3484  0.3438 -0.1474
  213MOL0     C28045   8.055   9.801   4.907  0.1901 -0.4112 -0.4397
  213MOL0     C28046   8.087   9.794   4.758 -0.2632 -0.4163  0.5094
  213MOL0     C28047   8.209   9.867   4.728 -0.5411  0.3000 -0.1724
  213MOL0     C28048   8.318   9.919   4.706 -0.3320 -0.1976  0.5563
  213MOL0     C28049   7.789   9.944   5.334  0.5711  0.2404  0.6987
  213MOL0     C28050   7.697   9.969   5.437  0.9428  0.5538  0.0813
  213MOL0     H28051   7.575  10.169   5.833  2.8600 -1.1758  0.8029
  213MOL0     H28052   7.482  10.198   6.062  1.0508 -1.7422  0.2438
  213MOL0     H28053   7.186   9.919   6.224 -0.3371 -0.0226  0.0561
  213MOL0     H28054   7.067  10.032   6.154 -0.3068 -0.4808 -0.2212
  213MOL0     H28055   7.043  10.150   6.345  0.3541  0.9023  0.7890
  213MOL0     H28056   7.210  10.128   6.399  0.9916  0.5886 -1.9915
  213MOL0     H28057   7.087  10.029   6.551 -0.9703  2.7985 -2.1115
  213MOL0     H28058   7.183   9.904   6.478  0.5428  1.2214 -0.0499
  213MOL0     H28059   6.884   9.966   6.395  1.3144  0.8255  0.1223
  213MOL0     H28060   6.984   9.831   6.343  0.8166 -1.9091  0.5817
  213MOL0     H28061   6.823   9.751   6.504 -0.5451  0.3425  0.3007
  213MOL0     H28062   6.877   9.856   6.633 -1.0711  3.5461 -2.2023
  213MOL0     H28063   7.088   9.740   6.653 -0.9104 -0.1702  0.9195
  213MOL0     H28064   7.052   9.639   6.517 -1.2583  0.3544 -0.5066
  213MOL0     H28065   6.990   9.575   6.778 -1.1688  1.4155  2.0534
  213MOL0     H28066   6.862   9.679   6.750 -1.2856 -1.2059  0.3004
  213MOL0     H28067   6.894   9.452   6.558  0.1587  2.0553 -2.1281
  213MOL0     H28068   6.769   9.565   6.572 -2.5018 -0.9897  1.3247
  213MOL0     H28069   6.623   9.560   6.824 -0.6932 -0.2625 -0.6938
  213MOL0     H28070   6.499   9.451   7.015 -1.8075  0.5956  0.8399
  213MOL0     H28071   6.551   9.289   7.068  0.1521  1.3411  0.6263
  213MOL0     H28072   6.420   9.178   6.882  3.8832  0.4379  0.5527
  213MOL0     H28073   6.354   9.331   6.836 -1.6929 -0.7744  0.6474
  213MOL0     H28074   6.309   9.172   7.096 -2.5499  0.2232  2.0688
  213MOL0     H28075   6.258   9.340   7.083 -1.8866  1.2177 -2.5843
  213MOL0     H28076   6.169   9.088   6.936 -1.4941 -0.1164  1.4233
  213MOL0     H28077   6.109   9.253   6.894  0.1192 -0.2652 -0.4431
  213MOL0     H28078   5.870   9.149   7.253 -1.5552 -2.7011  0.4899
  213MOL0     H28079   5.638   9.117   7.212 -0.6697 -0.0196 -0.7345
  213MOL0     H28080   5.306   8.812   6.996 -0.0177  0.9314  0.2560
  213MOL0     H28081   5.059   8.792   7.002  1.1707  0.1386  0.2212
  213MOL0     H28082   4.821   9.136   7.089  0.6550 -0.1949 -0.7892
  213MOL0     H28083   4.830   9.094   7.266 -3.0753 -1.4189  0.8403
  213MOL0     H28084   4.652   8.928   7.227  0.7627  0.8404  2.0194
  213MOL0     H28085   4.647   8.968   7.053  2.8903  0.1843 -0.8790
  213MOL0     H28086   4.596   9.209   7.213 -0.7165 -0.2983  1.3116
  213MOL0     H28087   4.511   9.080   7.279  1.8890  1.1736  0.9280
  213MOL0     H28088   4.415   9.231   7.105  0.4391  0.8463 -1.4455
  213MOL0     H28089   4.519   9.140   6.984  0.5924 -1.8969 -0.0633
  213MOL0     H28090   4.408   8.923   7.058  1.4136  0.9616 -3.7984
  213MOL0     H28091   4.306   9.032   6.961  0.8819  2.8527  0.3546
  213MOL0     H28092   4.255   9.141   7.208 -0.0275 -0.1501  0.4567
  213MOL0     H28093   4.314   8.983   7.262  0.2277 -0.0203  0.4031
  213MOL0     H28094   4.067   9.041   7.103 -2.1964 -1.1083  0.5357
  213MOL0     H28095   4.135   8.877   7.114  0.4446 -0.2065  1.8796
  213MOL0     H28096   4.022   9.034   7.343 -1.0856 -2.0327  2.3496
  213MOL0     H28097   4.147   8.910   7.366 -1.0001 -0.4222 -0.9691
  213MOL0     H28098   5.043   9.161   7.219  1.9856 -0.4323  1.5373
  213MOL0     H28099   5.283   9.196   7.172 -3.5869  1.4690 -0.2229
  213MOL0     H28100   5.740   9.014   6.797  3.6069  1.6912 -1.3534
  213MOL0     H28101   5.946   9.120   6.823  0.8842 -3.2567 -0.6351
  213MOL0     H28102   7.176   9.927   5.980  0.5118  0.4835  2.0645
  213MOL0     H28103   7.268   9.878   5.749  0.0539 -1.4952  0.9975
  213MOL0     H28104   7.419   9.818   5.287  0.1111  0.6432 -1.5953
  213MOL0     H28105   7.587   9.762   5.121 -0.4651  4.7028 -3.3050
  213MOL0     H28106   8.026   9.879   5.137 -0.5031 -1.0593  0.6300
  213MOL0     H28107   7.926  10.024   5.129  1.0273 -1.2254  2.7557
  213MOL0     H28108   7.876   9.921   4.880  0.9169  1.9316 -1.3589
  213MOL0     H28109   8.023  10.018   4.905  1.4184 -0.8274 -1.8664
  213MOL0     H28110   7.996   9.714   4.939  1.3749 -0.8378  0.6861
  213MOL0     H28111   8.142   9.784   4.971  1.3206  0.0888 -1.7883
  213MOL0     H28112   8.092   9.686   4.740  1.7358 -0.5310  1.5763
  213MOL0     H28113   8.005   9.834   4.697  0.9576 -1.3504 -1.9075
  213MOL0     H28114   8.402   9.976   4.673 -3.1121  4.2034  0.2815
  213MOL0     H28115   7.892   9.975   5.347  0.4828  0.9065 -0.1761
  213MOL0     H28116   7.723  10.029   5.524  1.3427 -2.2201  1.9803
  214MOL0     O28117   4.864   1.298   2.778  0.6321 -0.3737  0.4131
  214MOL0     C28118   4.940   1.244   2.863 -0.0150  0.4485  0.1285
  214MOL0     O28119   4.903   1.199   2.986 -0.3138  0.3519  0.3413
  214MOL0     C28120   4.785   1.223   3.044  0.0163 -0.0049  0.2103
  214MOL0     C28121   4.712   1.348   3.025  0.4455 -0.0896  0.1727
  214MOL0     C28122   4.588   1.377   3.101 -0.2746  0.0283  1.0963
  214MOL0     C28123   4.550   1.294   3.197 -0.3727 -0.6166  0.2956
  214MOL0     O28124   4.453   1.329   3.278 -0.0648  0.1912  0.3605
  214MOL0     C28125   4.321   1.289   3.225 -0.4904  0.3221  0.1663
  214MOL0     C28126   4.219   1.299   3.325 -0.2879  0.3581 -0.1538
  214MOL0     C28127   4.199   1.450   3.364  0.1837  0.6123 -0.7740
  214MOL0     C28128   4.105   1.451   3.489 -0.0604  1.5031  0.3452
  214MOL0     C28129   4.096   1.594   3.547  0.3892  0.9572  0.6159
  214MOL0     C28130   3.978   1.605   3.648  0.3396  0.3171  0.3618
  214MOL0     C28131   3.987   1.745   3.702 -0.2069 -0.0941  0.8649
  214MOL0     C28132   3.885   1.770   3.813 -0.0959 -0.4803 -0.2326
  214MOL0     N28133   3.875   1.917   3.836 -0.3314  0.9563 -1.0838
  214MOL0     C28134   3.763   1.984   3.798 -0.4522 -0.3052  0.1922
  214MOL0     C28135   3.764   2.107   3.864  0.4782 -0.1635 -0.8435
  214MOL0     C28136   3.670   2.225   3.844 -0.2681 -0.4960  0.1297
  214MOL0     C28137   3.522   2.182   3.849 -0.4692 -0.5943  0.1404
  214MOL0     C28138   3.434   2.298   3.809  0.1349 -0.1104 -0.2386
  214MOL0     C28139   3.292   2.242   3.789 -0.2712 -0.5068  0.1140
  214MOL0     O28140   3.204   2.339   3.736 -0.1806  0.4214 -0.8878
  214MOL0     C28141   3.070   2.304   3.751 -0.0403 -0.0341 -0.6006
  214MOL0     C28142   2.988   2.399   3.694 -0.4300  0.2562  0.2261
  214MOL0     C28143   2.850   2.381   3.685  0.2034  0.4608 -0.4834
  214MOL0     C28144   2.790   2.260   3.743 -0.9587 -0.7557 -0.5257
  214MOL0     C28145   2.649   2.231   3.736  0.2380  0.1279 -0.0307
  214MOL0     O28146   2.603   2.103   3.784  0.3886  0.1098 -0.4896
  214MOL0     C28147   2.466   2.090   3.793  0.6128 -0.4190  0.9946
  214MOL0     C28148   2.378   2.051   3.685  0.2153  0.1694 -0.8699
  214MOL0     C28149   2.236   2.033   3.706  0.4138 -0.0878 -0.8126
  214MOL0     C28150   2.181   2.059   3.835  0.3699 -0.2975  0.2901
  214MOL0     O28151   2.045   2.054   3.856 -0.4254  0.5849 -0.7810
  214MOL0     C28152   1.974   1.964   3.779  1.2569  0.3580  0.7094
  214MOL0     C28153   1.834   1.933   3.836 -0.4531  0.0927 -0.1304
  214MOL0     C28154   1.749   2.058   3.876  0.6340 -0.1807 -0.1401
  214MOL0     C28155   1.629   2.008   3.950  0.3779 -0.5410 -0.3940
  214MOL0     C28156   1.526   2.103   4.009 -0.0537 -0.6184  0.2232
  214MOL0     C28157   1.455   2.197   3.917  0.5998  0.2680 -0.2130
  214MOL0     C28158   1.326   2.254   3.969  0.3144 -0.3106 -0.7642
  214MOL0     C28159   1.256   2.338   3.867  0.6127 -0.0479  0.1727
  214MOL0    Cl28160   1.114   2.427   3.956  0.5584  0.1225  0.2624
  214MOL0     C28161   2.272   2.102   3.937  0.2333  0.3717 -0.3797
  214MOL0     C28162   2.403   2.118   3.913  0.2231 -0.3132 -0.7767
  214MOL0     O28163   2.577   2.322   3.695  0.7704 -0.4665  0.0318
  214MOL0     C28164   2.882   2.166   3.806  0.1167  0.5189 -0.0641
  214MOL0     C28165   3.020   2.185   3.807 -0.0413  0.2632  0.2266
  214MOL0     N28166   3.865   2.086   3.960 -0.1552 -0.5543 -0.2368
  214MOL0     N28167   3.927   1.977   3.942 -0.3799  1.0360 -0.2142
  214MOL0     C28168   4.608   1.174   3.210 -0.1864 -0.6538 -0.0037
  214MOL0     C28169   4.725   1.139   3.135 -0.2592 -0.5431 -0.9886
  214MOL0     C28170   5.077   1.216   2.822 -0.1180 -0.1369  0.4979
  214MOL0     C28171   5.127   1.287   2.707  0.3370 -0.7509 -0.4589
  214MOL0     C28172   5.253   1.263   2.649  0.3275 -0.2868  0.0426
  214MOL0     C28173   5.333   1.167   2.705 -0.5669  0.1712  0.3226
  214MOL0     O28174   5.462   1.148   2.656 -0.5007  0.6370 -0.2767
  214MOL0     C28175   5.511   1.208   2.540 -0.6237 -0.1311  0.3419
  214MOL0     C28176   5.647   1.160   2.494 -0.0283  0.3237 -0.4725
  214MOL0     C28177   5.758   1.188   2.596 -0.1827 -0.6171 -0.0956
  214MOL0     C28178   5.895   1.134   2.544 -0.5547  0.5250  0.2740
  214MOL0     C28179   5.997   1.146   2.647 -0.4191 -0.4729 -0.1948
  214MOL0     C28180   6.081   1.144   2.737  0.4880 -1.0290  0.8601
  214MOL0     C28181   5.284   1.093   2.819 -0.3817 -0.6985 -0.7709
  214MOL0     C28182   5.164   1.125   2.881 -0.1369  0.1889  0.1625
  214MOL0     H28183   4.743   1.430   2.960 -2.9990  1.4193  0.2492
  214MOL0     H28184   4.525   1.464   3.085  0.5748  1.0384  2.9226
  214MOL0     H28185   4.333   1.190   3.179 -0.5478 -1.6780  4.0690
  214MOL0     H28186   4.290   1.355   3.143 -0.1885  0.4595  0.1607
  214MOL0     H28187   4.264   1.252   3.413  1.2164 -1.6780 -1.9113
  214MOL0     H28188   4.125   1.250   3.296  0.2940  1.1678 -3.9349
  214MOL0     H28189   4.149   1.508   3.287  1.5679  4.0245  0.7151
  214MOL0     H28190   4.297   1.490   3.394 -0.1095  0.0465  1.0931
  214MOL0     H28191   4.004   1.429   3.454 -0.6133  2.0137  1.5341
  214MOL0     H28192   4.140   1.380   3.565  1.3464 -0.2296 -1.8094
  214MOL0     H28193   4.087   1.667   3.466  1.5604  0.4184 -0.0184
  214MOL0     H28194   4.188   1.624   3.598  0.8899  1.2401 -0.4388
  214MOL0     H28195   3.992   1.533   3.730  2.5728 -2.3516 -2.1524
  214MOL0     H28196   3.878   1.584   3.607  0.3780  0.7420  0.0467
  214MOL0     H28197   4.086   1.764   3.743  1.4363  1.4268 -3.3220
  214MOL0     H28198   3.976   1.810   3.615 -0.0076  0.1950  1.0538
  214MOL0     H28199   3.922   1.724   3.905 -0.2460  2.6266  1.5276
  214MOL0     H28200   3.785   1.732   3.789 -0.8589  1.4420 -0.3714
  214MOL0     H28201   3.690   1.953   3.724  0.6560  0.4451 -1.2772
  214MOL0     H28202   3.690   2.281   3.752 -1.8222 -2.5029 -1.5412
  214MOL0     H28203   3.688   2.311   3.909  0.3035 -1.0156  0.6758
  214MOL0     H28204   3.502   2.156   3.954  0.3790  0.7556  0.6728
  214MOL0     H28205   3.497   2.100   3.781  0.1053  0.0262 -0.8358
  214MOL0     H28206   3.434   2.374   3.889 -2.9215 -2.6741  2.4694
  214MOL0     H28207   3.462   2.337   3.711 -2.4210  2.4402 -0.0666
  214MOL0     H28208   3.258   2.202   3.884  0.5315 -0.3620  0.4770
  214MOL0     H28209   3.299   2.166   3.711 -0.6937  0.8972 -1.3601
  214MOL0     H28210   3.033   2.488   3.651  2.8229 -2.7155 -3.3551
  214MOL0     H28211   2.782   2.453   3.642 -1.7623 -0.0949  1.5046
  214MOL0     H28212   2.416   2.049   3.583 -1.0746  1.0401 -1.3905
  214MOL0     H28213   2.172   2.026   3.618  0.3920  2.2113 -1.0482
  214MOL0     H28214   2.029   1.871   3.760  1.5223  0.6927 -0.2113
  214MOL0     H28215   1.952   2.005   3.680  1.0278  1.6084  1.2549
  214MOL0     H28216   1.861   1.869   3.921  1.8891  1.1435 -0.0116
  214MOL0     H28217   1.790   1.866   3.761  0.8763 -0.4257 -0.4909
  214MOL0     H28218   1.722   2.120   3.790  2.0663 -0.7603 -1.0491
  214MOL0     H28219   1.816   2.114   3.942  1.2563  1.2794 -1.9313
  214MOL0     H28220   1.576   1.944   3.879 -0.1265  0.1585 -0.6600
  214MOL0     H28221   1.666   1.940   4.028  0.3544 -0.6440 -0.4736
  214MOL0     H28222   1.572   2.161   4.090 -0.4597 -0.3271  0.2493
  214MOL0     H28223   1.450   2.031   4.042  0.4307 -1.2253  0.0343
  214MOL0     H28224   1.424   2.146   3.825  0.7712  0.7400 -0.5394
  214MOL0     H28225   1.521   2.274   3.875 -0.7985  2.4861  1.4994
  214MOL0     H28226   1.259   2.172   3.996 -0.1240  0.9938  2.5207
  214MOL0     H28227   1.345   2.316   4.056 -1.1058 -3.9601  2.4497
  214MOL0     H28228   1.207   2.281   3.788 -0.7084 -1.8064  2.1383
  214MOL0     H28229   1.326   2.409   3.823  0.9876 -0.2562  0.4334
  214MOL0     H28230   2.221   2.103   4.033 -2.5108 -1.8995 -1.6604
  214MOL0     H28231   2.475   2.133   3.993 -1.3801 -1.2901  0.9124
  214MOL0     H28232   2.836   2.079   3.853  0.9502 -0.2350 -0.6206
  214MOL0     H28233   3.081   2.114   3.862 -0.9625  0.2954  1.3484
  214MOL0     H28234   4.575   1.103   3.284 -2.0745  1.2860  1.1086
  214MOL0     H28235   4.771   1.042   3.155 -3.1373 -1.3380  3.1324
  214MOL0     H28236   5.066   1.362   2.657  2.2575  0.4199 -1.1405
  214MOL0     H28237   5.269   1.317   2.556 -2.9177  0.5513 -0.1470
  214MOL0     H28238   5.500   1.317   2.544  0.9755  0.0668 -0.0623
  214MOL0     H28239   5.448   1.181   2.455  1.2926  0.8764 -1.4974
  214MOL0     H28240   5.635   1.053   2.471 -5.2566  0.8039 -1.1801
  214MOL0     H28241   5.688   1.208   2.404  1.7958  0.3817  0.3571
  214MOL0     H28242   5.737   1.155   2.698  1.8786  1.2533  1.0188
  214MOL0     H28243   5.761   1.297   2.602  1.2922 -0.5764 -1.1266
  214MOL0     H28244   5.881   1.026   2.534  0.1510  0.2617  1.8079
  214MOL0     H28245   5.918   1.194   2.456 -2.3271 -0.0263 -0.6193
  214MOL0     H28246   6.154   1.151   2.815  0.6061  2.9338  0.6011
  214MOL0     H28247   5.349   1.026   2.875  0.0613  1.0824  0.9490
  214MOL0     H28248   5.133   1.071   2.969 -1.3190 -0.2793 -0.5201
  215MOL0     O28249   5.822   3.271   7.614  0.0275 -0.5712 -0.2748
  215MOL0     C28250   5.858   3.160   7.569 -0.7743  0.3830  0.3290
  215MOL0     O28251   5.777   3.069   7.502 -0.0347  0.3089  0.0060
  215MOL0     C28252   5.643   3.108   7.480 -0.3228  0.2082 -0.0876
  215MOL0     C28253   5.552   3.115   7.585  0.3648  1.1926  0.6828
  215MOL0     C28254   5.416   3.133   7.551 -0.0307 -0.2170 -0.2461
  215MOL0     C28255   5.372   3.162   7.423 -0.3672  0.3876 -0.2785
  215MOL0     O28256   5.237   3.169   7.412  0.0363  0.5795 -0.5374
  215MOL0     C28257   5.197   3.249   7.300 -0.2548 -0.3304 -0.7380
  215MOL0     C28258   5.047   3.214   7.280  0.2101  0.0041 -0.3730
  215MOL0     C28259   4.977   3.279   7.160  1.5727  0.2414  0.3614
  215MOL0     C28260   5.006   3.215   7.022 -0.2516 -0.3243 -0.4400
  215MOL0     C28261   4.949   3.287   6.896 -0.2356 -0.5660  0.3900
  215MOL0     C28262   5.021   3.417   6.860 -0.4269 -0.3209  0.0040
  215MOL0     C28263   5.175   3.411   6.858 -0.1323  0.4726 -0.6506
  215MOL0     C28264   5.226   3.306   6.759 -0.0682 -0.0252 -0.2074
  215MOL0     N28265   5.367   3.331   6.732  0.2241 -0.2767  0.1923
  215MOL0     C28266   5.464   3.281   6.820 -0.4994  0.0041  0.2000
  215MOL0     C28267   5.582   3.306   6.747  0.4108  0.2307  0.2856
  215MOL0     C28268   5.717   3.267   6.800  0.5051  0.9636  0.9744
  215MOL0     C28269   5.822   3.241   6.684  0.0426  0.1161  0.6531
  215MOL0     C28270   5.959   3.235   6.750 -0.6608 -0.0594  0.0499
  215MOL0     C28271   6.060   3.211   6.636 -0.0133  0.7418 -0.5063
  215MOL0     O28272   6.097   3.333   6.572  1.1010  0.0315  0.3777
  215MOL0     C28273   6.231   3.364   6.549 -0.2245 -0.5150 -0.3349
  215MOL0     C28274   6.328   3.269   6.533 -0.4647 -0.0318  0.6661
  215MOL0     C28275   6.456   3.319   6.515 -0.3971 -0.2621  0.1675
  215MOL0     C28276   6.492   3.460   6.524 -0.2015 -0.1712  0.0229
  215MOL0     C28277   6.629   3.511   6.544 -0.2143  0.3105 -0.4665
  215MOL0     O28278   6.656   3.638   6.600 -0.5526 -0.5840  0.4883
  215MOL0     C28279   6.781   3.698   6.608  0.0104  0.1744 -0.4893
  215MOL0     C28280   6.782   3.809   6.696 -1.0291  0.2816  0.5868
  215MOL0     C28281   6.905   3.867   6.727 -0.0060  0.3246 -1.3986
  215MOL0     C28282   7.022   3.817   6.668  0.6151 -0.8038 -0.3431
  215MOL0     O28283   7.134   3.896   6.688  0.4429  0.5797 -0.4909
  215MOL0     C28284   7.262   3.830   6.685 -0.7466  0.3494  0.2270
  215MOL0     C28285   7.362   3.922   6.754  0.6789 -0.1796 -0.5737
  215MOL0     C28286   7.501   3.890   6.733 -0.9081 -0.2157  0.3789
  215MOL0     C28287   7.587   3.995   6.812  0.3245 -0.6162  0.1645
  215MOL0     C28288   7.739   3.983   6.787 -0.7074  1.0287  0.0953
  215MOL0     C28289   7.783   3.995   6.642  0.4956 -0.0118 -0.9922
  215MOL0     C28290   7.929   4.039   6.630 -0.1602 -0.4023  0.8463
  215MOL0     C28291   7.994   4.020   6.489 -1.4225 -0.2331 -0.1577
  215MOL0    Cl28292   7.903   4.119   6.370 -0.0097  0.0940  0.1893
  215MOL0     C28293   7.017   3.704   6.584 -0.6816 -0.5487 -0.0344
  215MOL0     C28294   6.897   3.650   6.551 -0.1823  0.1100 -0.0472
  215MOL0     O28295   6.709   3.428   6.524 -0.0969  0.0617  0.0844
  215MOL0     C28296   6.392   3.550   6.526 -0.2038 -0.3470 -0.2557
  215MOL0     C28297   6.260   3.507   6.537 -0.0997  1.2373 -0.2629
  215MOL0     N28298   5.551   3.364   6.626 -0.0599  0.5211  0.2251
  215MOL0     N28299   5.422   3.381   6.625  0.1146  0.0336 -0.0569
  215MOL0     C28300   5.468   3.155   7.320 -0.6390 -0.4633  0.0882
  215MOL0     C28301   5.600   3.119   7.351  0.6692  0.2748  0.9213
  215MOL0     C28302   5.989   3.107   7.600 -0.3138 -0.8481  0.0392
  215MOL0     C28303   6.084   3.187   7.657 -0.2039 -0.1199  0.1623
  215MOL0     C28304   6.211   3.130   7.699  0.0343  1.2773 -0.5375
  215MOL0     C28305   6.229   2.989   7.686  0.1209 -0.6181 -0.4764
  215MOL0     O28306   6.357   2.947   7.726 -0.0981 -0.3148 -0.0059
  215MOL0     C28307   6.380   2.804   7.737 -0.7217 -0.4277  0.4228
  215MOL0     C28308   6.433   2.762   7.599  0.1491 -0.3223  0.7287
  215MOL0     C28309   6.427   2.605   7.600  0.6127 -0.0716  0.7059
  215MOL0     C28310   6.477   2.554   7.465  0.5241  0.7438 -0.3403
  215MOL0     C28311   6.404   2.433   7.419  1.1063  0.7373  0.0514
  215MOL0     C28312   6.353   2.331   7.379 -0.5879 -0.1971 -0.2705
  215MOL0     C28313   6.130   2.914   7.618 -0.0093  1.0930  0.0072
  215MOL0     C28314   6.018   2.975   7.571 -0.2124  0.5664 -0.2856
  215MOL0     H28315   5.578   3.095   7.688  0.4329 -3.2598  0.0027
  215MOL0     H28316   5.341   3.124   7.628 -0.6109 -0.1592 -0.7997
  215MOL0     H28317   5.243   3.221   7.206 -0.5461 -1.9484 -0.4286
  215MOL0     H28318   5.213   3.357   7.305  1.0532 -0.5506  0.1343
  215MOL0     H28319   4.989   3.243   7.368 -0.7553 -1.0965 -0.6223
  215MOL0     H28320   5.042   3.105   7.275  1.2935 -0.0847  0.2443
  215MOL0     H28321   5.005   3.384   7.147  1.0690 -0.0610 -5.7991
  215MOL0     H28322   4.869   3.284   7.174  1.1055 -0.2874 -2.4707
  215MOL0     H28323   5.114   3.203   7.011 -0.1722  0.9258 -1.1574
  215MOL0     H28324   4.960   3.116   7.028 -1.5726  0.2987  0.1959
  215MOL0     H28325   4.843   3.311   6.911 -0.5244  0.8245 -3.1133
  215MOL0     H28326   4.958   3.224   6.808  0.3136 -1.5895  1.1573
  215MOL0     H28327   4.995   3.493   6.934  0.3980 -0.7535  0.7597
  215MOL0     H28328   4.985   3.457   6.765 -0.3751  1.4337  0.6811
  215MOL0     H28329   5.216   3.507   6.825  0.5120  0.5271  0.2686
  215MOL0     H28330   5.219   3.394   6.957  1.3015  0.8672 -1.1968
  215MOL0     H28331   5.183   3.317   6.659 -1.2110 -0.5124  0.2165
  215MOL0     H28332   5.203   3.210   6.806  1.5619  0.8990  2.7722
  215MOL0     H28333   5.460   3.222   6.910 -0.2474 -1.9277 -0.9934
  215MOL0     H28334   5.712   3.183   6.870  1.4334 -0.2531 -0.3518
  215MOL0     H28335   5.749   3.358   6.852  0.8299  1.0046  0.7089
  215MOL0     H28336   5.828   3.322   6.610  0.9057 -0.7287 -0.2352
  215MOL0     H28337   5.803   3.144   6.636 -1.7893  1.6076 -1.9088
  215MOL0     H28338   5.974   3.329   6.804 -0.8464 -0.1382  0.2386
  215MOL0     H28339   5.965   3.150   6.819  3.1398 -0.5926 -0.6814
  215MOL0     H28340   6.011   3.156   6.555  2.5711 -0.9829 -1.0055
  215MOL0     H28341   6.140   3.151   6.679 -1.6790  0.0312  1.8066
  215MOL0     H28342   6.311   3.163   6.549 -0.2778 -0.1531  0.0605
  215MOL0     H28343   6.530   3.243   6.492 -0.7328 -0.8651  1.0601
  215MOL0     H28344   6.686   3.831   6.742  0.0643 -0.6110  3.5344
  215MOL0     H28345   6.908   3.953   6.793  1.9898 -0.7862  0.0683
  215MOL0     H28346   7.296   3.819   6.581  0.7262  1.9445  0.4917
  215MOL0     H28347   7.250   3.735   6.738 -0.9533  0.6922  0.8004
  215MOL0     H28348   7.335   3.913   6.859  0.0246 -1.1232 -0.8173
  215MOL0     H28349   7.339   4.025   6.723 -3.1155 -1.2788 -1.9706
  215MOL0     H28350   7.518   3.905   6.626 -2.5436 -1.1437 -0.0376
  215MOL0     H28351   7.531   3.785   6.734 -0.4493 -0.0876  1.3297
  215MOL0     H28352   7.572   4.100   6.788  1.3938 -0.3637  0.5418
  215MOL0     H28353   7.561   3.994   6.919  2.7733 -1.9463  0.8188
  215MOL0     H28354   7.767   3.889   6.835 -3.4241  0.5635  0.9010
  215MOL0     H28355   7.791   4.056   6.851 -0.8096  1.0773  0.1244
  215MOL0     H28356   7.726   4.081   6.606  3.2862  2.6916  0.5392
  215MOL0     H28357   7.763   3.902   6.587 -2.9411  0.2530 -0.3867
  215MOL0     H28358   7.945   4.144   6.656 -0.5350  0.3717 -1.7016
  215MOL0     H28359   7.992   3.983   6.700  1.8106 -1.8085 -1.8537
  215MOL0     H28360   7.994   3.913   6.466  5.3747 -1.1430  2.0921
  215MOL0     H28361   8.099   4.049   6.497 -1.2107 -0.8517 -0.6304
  215MOL0     H28362   7.104   3.657   6.539  0.5124  0.0748  1.5362
  215MOL0     H28363   6.889   3.562   6.488 -0.0751  0.1531 -0.1208
  215MOL0     H28364   6.412   3.656   6.522 -0.1159 -0.3818 -0.8109
  215MOL0     H28365   6.171   3.567   6.555 -1.8242 -1.8389  2.8211
  215MOL0     H28366   5.456   3.183   7.216  1.7728  2.2445  0.3949
  215MOL0     H28367   5.675   3.111   7.273 -0.2226 -1.6154  0.1725
  215MOL0     H28368   6.069   3.291   7.685 -1.2893 -0.4902  1.0768
  215MOL0     H28369   6.276   3.201   7.749 -0.9484  1.4682  0.5058
  215MOL0     H28370   6.296   2.747   7.775  0.9897 -1.9050  2.1819
  215MOL0     H28371   6.462   2.788   7.808 -2.0263 -1.1181  1.8225
  215MOL0     H28372   6.366   2.801   7.522  1.4795 -0.1993 -0.4209
  215MOL0     H28373   6.531   2.800   7.569  0.0003  1.1315  1.9534
  215MOL0     H28374   6.324   2.572   7.615  1.0117 -0.9090  1.7811
  215MOL0     H28375   6.479   2.563   7.687  0.2815 -2.0635 -0.0296
  215MOL0     H28376   6.453   2.627   7.387  1.0395 -0.0091 -1.2251
  215MOL0     H28377   6.585   2.540   7.474  0.3377  0.2380  1.6682
  215MOL0     H28378   6.308   2.245   7.333  0.0306  0.0510 -1.3565
  215MOL0     H28379   6.149   2.812   7.587 -2.1943  1.3374 -2.5152
  215MOL0     H28380   5.951   2.908   7.518  0.4351 -0.7113  0.4799
  216MOL0     O28381  10.771   0.530   3.691  0.8660 -0.2065 -0.2460
  216MOL0     C28382  10.804   0.544   3.809 -0.1347  0.2066 -0.9957
  216MOL0     O28383  10.725   0.528   3.921  0.2386  0.5172  0.2076
  216MOL0     C28384  10.595   0.513   3.876  0.1860  0.3416  0.0443
  216MOL0     C28385  10.553   0.393   3.815  0.1417 -0.0116  0.2517
  216MOL0     C28386  10.413   0.363   3.806 -0.5317 -0.2018 -0.2458
  216MOL0     C28387  10.317   0.468   3.822 -0.0853 -0.5725  0.2034
  216MOL0     O28388  10.188   0.424   3.808 -1.0870  0.6094  0.0967
  216MOL0     C28389  10.087   0.527   3.828  0.5789  0.9127  0.3049
  216MOL0     C28390   9.949   0.457   3.834  0.2660 -0.7222 -0.3436
  216MOL0     C28391   9.938   0.361   3.954 -1.0281  0.5186 -0.0279
  216MOL0     C28392   9.802   0.288   3.939  0.7068  0.8411 -0.1713
  216MOL0     C28393   9.673   0.380   3.965 -0.4660  0.4417  0.0688
  216MOL0     C28394   9.687   0.457   4.102  0.3053  0.7426  0.0022
  216MOL0     C28395   9.560   0.535   4.135  0.4536  0.8614 -0.2995
  216MOL0     C28396   9.441   0.457   4.183 -0.2729  0.0154 -0.1647
  216MOL0     N28397   9.327   0.540   4.228  0.3036  0.1997  0.0204
  216MOL0     C28398   9.201   0.484   4.243 -0.4966  0.6937 -0.0659
  216MOL0     C28399   9.132   0.581   4.290  0.0686 -0.0250  0.2533
  216MOL0     C28400   8.983   0.572   4.306  0.2557 -0.7311 -0.3985
  216MOL0     C28401   8.934   0.524   4.442  0.1400  0.5188 -0.8998
  216MOL0     C28402   8.918   0.371   4.454 -0.6950 -0.0913  0.5603
  216MOL0     C28403   8.790   0.320   4.392 -0.9626  1.0208 -0.3257
  216MOL0     O28404   8.672   0.383   4.447  0.1560 -0.1330 -0.5317
  216MOL0     C28405   8.546   0.336   4.426  0.5172 -0.5989  0.7619
  216MOL0     C28406   8.431   0.407   4.461 -0.0446 -0.3023  0.2917
  216MOL0     C28407   8.302   0.359   4.431  0.3793 -0.5524  0.8846
  216MOL0     C28408   8.274   0.247   4.350  0.1656 -0.5568 -0.8778
  216MOL0     C28409   8.143   0.204   4.311  0.1721  0.7656  0.3359
  216MOL0     O28410   8.132   0.082   4.244  0.0770  0.3512 -0.0940
  216MOL0     C28411   8.008   0.021   4.212  0.8613  0.3460 -0.5501
  216MOL0     C28412   7.894   0.090   4.177 -0.2321  0.1618 -0.5421
  216MOL0     C28413   7.778   0.010   4.136 -0.3569 -0.3183  0.0023
  216MOL0     C28414   7.779  -0.127   4.141  0.2652  0.7568  1.2486
  216MOL0     O28415   7.665  -0.193   4.099  0.7119  0.2776  0.2410
  216MOL0     C28416   7.671  -0.338   4.086 -0.5846 -0.9748  0.2131
  216MOL0     C28417   7.545  -0.386   4.034  1.2579 -1.4179  0.9206
  216MOL0     C28418   7.441  -0.428   4.141  0.2686 -0.8688 -0.2667
  216MOL0     C28419   7.314  -0.458   4.073  0.2887  0.1984 -0.4175
  216MOL0     C28420   7.302  -0.600   3.999  0.0859 -0.0489  0.3146
  216MOL0     C28421   7.184  -0.668   4.052 -0.2281  0.0375 -0.1917
  216MOL0     C28422   7.159  -0.786   3.958  0.5277  0.4211 -1.2933
  216MOL0     C28423   7.064  -0.894   4.011 -0.8587 -0.2112  0.4395
  216MOL0    Cl28424   6.909  -0.827   4.061  0.1682  0.1262  0.0216
  216MOL0     C28425   7.895  -0.191   4.179 -0.6097  0.3737 -0.0621
  216MOL0     C28426   8.002  -0.115   4.212 -0.7599 -1.0797 -0.0028
  216MOL0     O28427   8.044   0.276   4.333  0.0524 -0.7700  0.5534
  216MOL0     C28428   8.390   0.179   4.317  1.2399  0.4778  0.1685
  216MOL0     C28429   8.518   0.222   4.356  0.2038  0.7389  0.7132
  216MOL0     N28430   9.210   0.697   4.301 -0.3245  0.8333  0.3435
  216MOL0     N28431   9.335   0.661   4.279  0.3771 -0.2394 -0.3187
  216MOL0     C28432  10.366   0.591   3.863  0.5049 -0.4512  0.6932
  216MOL0     C28433  10.500   0.614   3.891 -0.3027  0.4955  0.6518
  216MOL0     C28434  10.945   0.566   3.843 -0.4513  0.6658  1.0500
  216MOL0     C28435  10.987   0.544   3.972 -0.6522  0.9249 -0.0078
  216MOL0     C28436  11.116   0.584   4.005 -0.6657  0.0685  0.1059
  216MOL0     C28437  11.203   0.631   3.905  0.3458  0.7559 -0.5039
  216MOL0     O28438  11.328   0.675   3.936 -0.0763  0.5734  0.5948
  216MOL0     C28439  11.398   0.663   4.063  0.1344 -0.3966  0.4804
  216MOL0     C28440  11.533   0.732   4.047  1.0648  0.5374  0.5940
  216MOL0     C28441  11.529   0.878   3.999  0.4507  0.3102  0.1317
  216MOL0     C28442  11.666   0.946   4.006  0.1786 -0.1156  0.0072
  216MOL0     C28443  11.759   0.891   3.903  0.2744 -0.5144  0.3602
  216MOL0     C28444  11.823   0.842   3.808 -0.0564 -0.5894 -0.4016
  216MOL0     C28445  11.164   0.650   3.775  0.2880  0.2447  0.2865
  216MOL0     C28446  11.033   0.610   3.743 -0.4469 -0.5086 -0.0170
  216MOL0     H28447  10.621   0.313   3.788  1.9869  1.1123  1.3067
  216MOL0     H28448  10.394   0.257   3.793  1.9329 -0.6799 -0.5646
  216MOL0     H28449  10.108   0.605   3.755  0.5879  0.0969 -0.5787
  216MOL0     H28450  10.101   0.573   3.926 -1.4261 -0.0978  1.1178
  216MOL0     H28451   9.935   0.419   3.732  2.8898  2.0792 -1.9247
  216MOL0     H28452   9.874   0.537   3.841  0.5273 -0.5354  0.4179
  216MOL0     H28453   9.961   0.419   4.045  0.8503  1.5186 -1.0729
  216MOL0     H28454  10.018   0.291   3.930 -1.3107  0.6379 -1.3979
  216MOL0     H28455   9.787   0.242   3.841 -0.3279  0.2950  0.2361
  216MOL0     H28456   9.790   0.204   4.007  1.1786  0.4885 -0.5226
  216MOL0     H28457   9.580   0.322   3.964 -0.3680  0.2961 -0.6240
  216MOL0     H28458   9.670   0.451   3.882 -0.3375 -2.3132 -2.4709
  216MOL0     H28459   9.770   0.527   4.095  0.7732  0.1994  0.0664
  216MOL0     H28460   9.715   0.384   4.178 -1.5484 -1.7853 -1.5598
  216MOL0     H28461   9.595   0.590   4.223  0.8017  0.3365 -0.1034
  216MOL0     H28462   9.525   0.589   4.047  2.3169  0.4529 -1.3435
  216MOL0     H28463   9.474   0.393   4.266 -0.8201 -1.7751 -1.2740
  216MOL0     H28464   9.421   0.392   4.097  2.7212 -2.6315  0.9402
  216MOL0     H28465   9.164   0.388   4.207  0.8598 -1.0056  2.7290
  216MOL0     H28466   8.941   0.515   4.223  0.5257  1.1147 -1.8740
  216MOL0     H28467   8.934   0.669   4.296 -0.3975 -1.1228 -1.1041
  216MOL0     H28468   8.836   0.571   4.456 -0.1992  0.4137 -2.6628
  216MOL0     H28469   9.004   0.558   4.519 -1.8023 -1.3320  1.9189
  216MOL0     H28470   9.004   0.324   4.406 -1.3720 -2.7512  1.7849
  216MOL0     H28471   8.930   0.332   4.555  0.3290 -0.9025  0.1354
  216MOL0     H28472   8.794   0.213   4.414  2.9042  1.0885 -0.0488
  216MOL0     H28473   8.799   0.332   4.284  0.1917 -2.1370 -0.6602
  216MOL0     H28474   8.444   0.503   4.509 -2.4612  0.5925 -0.6777
  216MOL0     H28475   8.223   0.425   4.467  0.3541  0.2557 -0.5708
  216MOL0     H28476   7.867   0.194   4.167  0.2850  0.0529 -5.1736
  216MOL0     H28477   7.691   0.067   4.104 -0.3983  2.5937  4.3608
  216MOL0     H28478   7.689  -0.382   4.185 -1.3039  1.0701  1.3283
  216MOL0     H28479   7.751  -0.371   4.019 -0.7270  1.3283 -1.1909
  216MOL0     H28480   7.562  -0.478   3.978 -1.4828 -0.2078 -2.2458
  216MOL0     H28481   7.503  -0.318   3.960  1.2412 -2.8493 -0.4408
  216MOL0     H28482   7.429  -0.349   4.217 -0.8030 -0.4551 -0.8375
  216MOL0     H28483   7.485  -0.510   4.199  0.6900 -1.5962 -1.5946
  216MOL0     H28484   7.238  -0.457   4.151 -0.1861  0.2739 -0.8768
  216MOL0     H28485   7.287  -0.380   4.001  0.4160 -1.4675 -2.3845
  216MOL0     H28486   7.393  -0.656   4.020  2.2608  2.3348 -1.9402
  216MOL0     H28487   7.300  -0.591   3.890 -1.9031 -0.0770  0.3030
  216MOL0     H28488   7.095  -0.604   4.047 -1.6817 -1.8083  0.7740
  216MOL0     H28489   7.198  -0.699   4.156 -0.2742  0.0613 -0.1782
  216MOL0     H28490   7.124  -0.737   3.867  0.5291  2.6603 -0.1664
  216MOL0     H28491   7.252  -0.838   3.932  1.1584  0.1540  1.2107
  216MOL0     H28492   7.106  -0.952   4.094  0.7112  0.5026  0.1806
  216MOL0     H28493   7.049  -0.957   3.924  1.1665  0.4353 -0.4442
  216MOL0     H28494   7.900  -0.299   4.170  1.6659  0.5850 -2.6231
  216MOL0     H28495   8.095  -0.168   4.230 -0.1736 -0.0992 -0.0410
  216MOL0     H28496   8.382   0.085   4.263 -1.9790  1.3268 -0.9947
  216MOL0     H28497   8.600   0.154   4.333 -0.6327  0.1054 -0.4821
  216MOL0     H28498  10.295   0.673   3.871 -1.8748 -2.4889  1.8390
  216MOL0     H28499  10.531   0.709   3.934  0.3796  0.1935  0.8328
  216MOL0     H28500  10.923   0.502   4.049 -1.3633  1.5886 -0.2255
  216MOL0     H28501  11.150   0.581   4.108  1.9152 -3.2172 -0.6831
  216MOL0     H28502  11.407   0.558   4.094 -0.9825 -0.9780 -1.0111
  216MOL0     H28503  11.345   0.717   4.142  0.7663 -0.2727  0.8264
  216MOL0     H28504  11.589   0.728   4.142  0.1040  0.0078  1.1505
  216MOL0     H28505  11.590   0.679   3.970 -1.3576 -0.3165 -0.6895
  216MOL0     H28506  11.460   0.931   4.066  0.6432  0.0384  0.5518
  216MOL0     H28507  11.480   0.886   3.901 -0.2452 -1.0064  0.3497
  216MOL0     H28508  11.657   1.054   4.002  1.2779  0.3862  4.8487
  216MOL0     H28509  11.711   0.917   4.102 -0.3442 -0.7286  0.0701
  216MOL0     H28510  11.889   0.799   3.736  0.5363  1.0963 -0.9275
  216MOL0     H28511  11.218   0.676   3.684 -5.0274 -1.0673 -3.8007
  216MOL0     H28512  10.995   0.633   3.644 -3.5403  1.3688  1.4401
  217MOL0     O28513   8.495   0.491   2.525 -0.0324  0.5594  0.4277
  217MOL0     C28514   8.522   0.464   2.646 -0.0977  0.0112  0.2902
  217MOL0     O28515   8.454   0.378   2.724  0.7704  0.2945 -0.6366
  217MOL0     C28516   8.320   0.348   2.703  0.0851 -0.3685 -0.2657
  217MOL0     C28517   8.222   0.424   2.635  0.6822 -1.0114 -0.3882
  217MOL0     C28518   8.091   0.384   2.640  0.0431 -0.2416  0.9712
  217MOL0     C28519   8.052   0.271   2.704 -0.3697 -0.0381 -0.4685
  217MOL0     O28520   7.917   0.239   2.709 -0.6940  0.2363  0.7372
  217MOL0     C28521   7.846   0.236   2.582 -0.8100  0.1234  0.4832
  217MOL0     C28522   7.739   0.136   2.601  0.1353 -0.2735 -0.0832
  217MOL0     C28523   7.615   0.205   2.653 -0.1566  0.3371 -0.7651
  217MOL0     C28524   7.515   0.089   2.672  0.8003 -1.5734  0.1020
  217MOL0     C28525   7.383   0.132   2.745  0.1490  0.4519 -0.3499
  217MOL0     C28526   7.311   0.006   2.788  0.5610  0.0957  0.3779
  217MOL0     C28527   7.170   0.044   2.846 -0.5251 -0.3070 -0.4848
  217MOL0     C28528   7.093  -0.088   2.888 -0.4057 -0.4258  0.1490
  217MOL0     N28529   6.952  -0.056   2.922  0.0511  1.0376  0.5334
  217MOL0     C28530   6.839  -0.061   2.834 -0.1743 -0.0689 -0.3514
  217MOL0     C28531   6.732  -0.049   2.912  0.1719  0.6233 -0.1605
  217MOL0     C28532   6.578  -0.056   2.877 -0.2571  0.1554 -0.3719
  217MOL0     C28533   6.484   0.016   2.979  0.1242  0.3492  0.0219
  217MOL0     C28534   6.450  -0.082   3.090  0.5708 -0.1690  0.2212
  217MOL0     C28535   6.317  -0.037   3.159 -0.6744 -0.5976 -0.3209
  217MOL0     O28536   6.261  -0.136   3.251 -0.4572  0.7305 -0.3300
  217MOL0     C28537   6.129  -0.115   3.296  0.3969  0.9327  0.2372
  217MOL0     C28538   6.068  -0.223   3.350  0.9515  0.6450  0.1695
  217MOL0     C28539   5.930  -0.222   3.392  1.6711  0.0267 -1.1163
  217MOL0     C28540   5.854  -0.101   3.391 -0.6801 -0.5468  0.2067
  217MOL0     C28541   5.716  -0.075   3.429 -0.2266 -0.8812 -0.4742
  217MOL0     O28542   5.663   0.054   3.417 -0.6788 -0.0362 -0.2799
  217MOL0     C28543   5.531   0.069   3.453 -0.6438 -0.4878 -0.2710
  217MOL0     C28544   5.498   0.100   3.585  0.4460 -0.4177  0.0889
  217MOL0     C28545   5.360   0.118   3.620  0.1507 -0.0113 -0.3978
  217MOL0     C28546   5.262   0.099   3.520  0.0065 -0.1510  0.3627
  217MOL0     O28547   5.135   0.114   3.560 -0.3196  0.7422  0.7551
  217MOL0     C28548   5.044   0.182   3.475  0.2667  0.2768 -0.4346
  217MOL0     C28549   4.910   0.173   3.550 -0.1204 -0.3692  0.4299
  217MOL0     C28550   4.794   0.220   3.465 -0.2730 -0.1048  0.1673
  217MOL0     C28551   4.684   0.270   3.550  1.0689  0.0497  0.4296
  217MOL0     C28552   4.563   0.318   3.465 -0.2354 -0.5108  0.0217
  217MOL0     C28553   4.463   0.389   3.558  0.4413 -0.1697 -0.3817
  217MOL0     C28554   4.359   0.471   3.489 -1.7078  0.1861 -0.6022
  217MOL0     C28555   4.266   0.376   3.422  0.0389 -0.1154 -0.0502
  217MOL0    Cl28556   4.132   0.476   3.358  0.1803  0.2739  0.6210
  217MOL0     C28557   5.300   0.057   3.395 -1.4804  0.0571 -0.2425
  217MOL0     C28558   5.433   0.055   3.361  1.2401  0.1488  0.2467
  217MOL0     O28559   5.651  -0.172   3.463  0.5257  0.3782 -0.1459
  217MOL0     C28560   5.924   0.014   3.349  0.3731  0.6144 -0.6283
  217MOL0     C28561   6.053   0.003   3.295  0.3214  0.7875  0.4080
  217MOL0     N28562   6.784  -0.036   3.041  0.2563 -0.0421  0.1627
  217MOL0     N28563   6.915  -0.023   3.049  0.2824 -0.4307  0.0653
  217MOL0     C28564   8.152   0.190   2.760 -0.5574  0.2107  0.2858
  217MOL0     C28565   8.280   0.231   2.763 -0.7349  0.5558  0.0586
  217MOL0     C28566   8.647   0.535   2.710 -0.2531  0.4485  0.5898
  217MOL0     C28567   8.718   0.626   2.623 -0.5734 -0.1834 -0.6594
  217MOL0     C28568   8.845   0.659   2.659  0.6809 -0.4907  0.3339
  217MOL0     C28569   8.900   0.614   2.780  0.2487  0.9982 -0.0078
  217MOL0     O28570   9.015   0.665   2.830  0.1002  0.4048 -0.3510
  217MOL0     C28571   9.132   0.577   2.845  0.0047 -0.3756 -0.0219
  217MOL0     C28572   9.240   0.633   2.764 -0.5716  0.1569 -0.3223
  217MOL0     C28573   9.359   0.534   2.750 -0.8343 -0.6463 -0.0532
  217MOL0     C28574   9.403   0.487   2.888  0.1058  0.6141  0.3115
  217MOL0     C28575   9.452   0.588   2.978 -0.5256  0.4909 -0.3287
  217MOL0     C28576   9.493   0.643   3.071 -0.8368  0.2327  0.1079
  217MOL0     C28577   8.823   0.526   2.865  0.1045  0.1208 -0.3998
  217MOL0     C28578   8.700   0.488   2.834  0.4580 -0.2070 -0.8249
  217MOL0     H28579   8.256   0.518   2.592  2.7078 -0.6198  1.7840
  217MOL0     H28580   8.017   0.458   2.610  2.2471  0.9149 -2.2144
  217MOL0     H28581   7.906   0.210   2.495  0.8176 -0.8639  1.8412
  217MOL0     H28582   7.796   0.331   2.561  1.0807  1.2314  0.7158
  217MOL0     H28583   7.775   0.045   2.649  0.2836 -0.5779 -0.7523
  217MOL0     H28584   7.711   0.096   2.503  1.6237 -2.3144  0.2534
  217MOL0     H28585   7.583   0.275   2.575  0.7179 -0.3429 -1.7498
  217MOL0     H28586   7.639   0.260   2.745  1.9469  0.2833 -1.2182
  217MOL0     H28587   7.484   0.049   2.575  0.9638  0.1152 -0.6920
  217MOL0     H28588   7.565   0.015   2.735 -0.9830 -2.3293  0.6916
  217MOL0     H28589   7.321   0.187   2.673  1.3995  1.4204 -0.7179
  217MOL0     H28590   7.391   0.200   2.830 -0.9977  3.2816 -2.3394
  217MOL0     H28591   7.380  -0.041   2.859 -0.1968  2.0725  2.5504
  217MOL0     H28592   7.300  -0.068   2.708  3.6060 -1.4885  1.2426
  217MOL0     H28593   7.166   0.112   2.931 -0.5969 -1.2122  0.2556
  217MOL0     H28594   7.118   0.094   2.764 -0.7965 -1.2910 -0.9235
  217MOL0     H28595   7.144  -0.121   2.978  0.7940  1.3070  0.1647
  217MOL0     H28596   7.109  -0.156   2.804  2.1207  0.6635 -0.3502
  217MOL0     H28597   6.847  -0.071   2.726  7.9955 -1.1643 -0.3016
  217MOL0     H28598   6.549  -0.160   2.859  3.7370 -0.9862 -1.2774
  217MOL0     H28599   6.567   0.006   2.788  1.9170 -1.1534 -1.6365
  217MOL0     H28600   6.397   0.039   2.917  0.0190  0.9101  0.3611
  217MOL0     H28601   6.533   0.102   3.026  1.8083 -0.0931 -0.8715
  217MOL0     H28602   6.446  -0.185   3.054 -1.4499  0.0826 -0.3878
  217MOL0     H28603   6.528  -0.085   3.167  0.8707  0.8880 -0.0276
  217MOL0     H28604   6.246  -0.031   3.077 -2.4822  1.3694  1.2831
  217MOL0     H28605   6.346   0.054   3.213 -1.1738 -0.7527  0.2172
  217MOL0     H28606   6.132  -0.310   3.358  1.1744  0.9365  2.2551
  217MOL0     H28607   5.894  -0.319   3.426 -1.3061  1.3288 -0.2522
  217MOL0     H28608   5.575   0.100   3.662  0.3811 -0.6295  0.1547
  217MOL0     H28609   5.332   0.150   3.720 -0.5792  1.3421 -1.0109
  217MOL0     H28610   5.037   0.128   3.380  1.6035 -0.3137 -0.2270
  217MOL0     H28611   5.070   0.289   3.468 -1.6368  0.8081  0.1670
  217MOL0     H28612   4.917   0.239   3.638  0.0900 -1.5143  1.2968
  217MOL0     H28613   4.889   0.072   3.585 -5.5724 -0.2593 -1.6943
  217MOL0     H28614   4.765   0.147   3.389 -0.9750  1.9749 -1.6410
  217MOL0     H28615   4.830   0.302   3.402 -0.2385 -1.7543 -2.0769
  217MOL0     H28616   4.671   0.202   3.636 -0.2894  3.3304  3.0560
  217MOL0     H28617   4.719   0.360   3.601  1.6964 -0.0051  0.0994
  217MOL0     H28618   4.512   0.234   3.417  1.1371 -0.6980 -1.1801
  217MOL0     H28619   4.597   0.396   3.396  0.9974 -0.4486  0.6900
  217MOL0     H28620   4.511   0.455   3.631 -1.2094  0.7382 -0.0787
  217MOL0     H28621   4.410   0.312   3.613  0.3379 -0.2617 -0.6073
  217MOL0     H28622   4.314   0.522   3.575 -0.3031 -2.3231  1.7673
  217MOL0     H28623   4.404   0.535   3.412  0.8738 -1.6674 -0.7631
  217MOL0     H28624   4.234   0.306   3.500 -3.3625  1.1811 -0.1469
  217MOL0     H28625   4.310   0.323   3.337  0.1334 -0.6296  0.3070
  217MOL0     H28626   5.225   0.036   3.319 -1.0632  3.6869 -1.8860
  217MOL0     H28627   5.464   0.036   3.259  0.8727  1.4060 -0.1124
  217MOL0     H28628   5.875   0.111   3.349 -2.7878 -0.8548  0.7654
  217MOL0     H28629   6.102   0.085   3.244 -1.9330  1.4212 -0.8648
  217MOL0     H28630   8.137   0.091   2.802  1.5495 -0.8157 -1.1725
  217MOL0     H28631   8.362   0.182   2.815 -0.2343  2.5399  1.2519
  217MOL0     H28632   8.683   0.660   2.526  2.0133  0.1572 -1.5762
  217MOL0     H28633   8.899   0.734   2.603 -1.6943  1.8144  0.9640
  217MOL0     H28634   9.105   0.473   2.825 -1.1941  0.3632 -2.5495
  217MOL0     H28635   9.158   0.578   2.952 -0.7382 -0.8663  0.1688
  217MOL0     H28636   9.200   0.652   2.664 -2.0210 -1.0526 -0.0256
  217MOL0     H28637   9.278   0.729   2.799  1.8829 -1.2973  1.2290
  217MOL0     H28638   9.447   0.586   2.709  0.1520 -2.2910 -0.1195
  217MOL0     H28639   9.339   0.446   2.689  1.9114 -2.3970  1.3255
  217MOL0     H28640   9.324   0.429   2.935 -0.0873  0.9101  0.3547
  217MOL0     H28641   9.485   0.418   2.865 -0.2288  0.5371 -0.6867
  217MOL0     H28642   9.538   0.690   3.157  0.9002  0.1160 -0.6822
  217MOL0     H28643   8.868   0.487   2.955  0.6987  0.2049 -0.6529
  217MOL0     H28644   8.642   0.414   2.887 -0.1840 -1.8168 -3.5782
  218MOL0     O28645   0.637   1.711  10.869 -0.6241 -0.4297  0.3260
  218MOL0     C28646   0.735   1.767  10.809  1.0663  1.3384 -1.0134
  218MOL0     O28647   0.761   1.898  10.815  0.4391  0.0898 -0.2827
  218MOL0     C28648   0.685   1.968  10.902  0.2538 -0.1511 -0.1944
  218MOL0     C28649   0.606   2.063  10.847  0.3964 -0.1235 -0.4041
  218MOL0     C28650   0.526   2.152  10.923 -1.0060  0.3116  0.0966
  218MOL0     C28651   0.545   2.155  11.061  0.0011 -0.6547 -0.0208
  218MOL0     O28652   0.469   2.242  11.143 -0.0368 -0.0173  0.7368
  218MOL0     C28653   0.511   2.281  11.271  0.0249  0.1678 -0.5906
  218MOL0     C28654   0.405   2.239  11.376 -0.3723 -0.7619 -0.3031
  218MOL0     C28655   0.320   2.356  11.424 -0.0684 -0.2218 -0.1116
  218MOL0     C28656   0.256   2.305  11.547 -0.0591  0.2330 -0.5198
  218MOL0     C28657   0.127   2.379  11.580 -0.4770 -0.1488  0.3037
  218MOL0     C28658   0.057   2.336  11.706 -0.9679 -0.1387  0.2752
  218MOL0     C28659  -0.067   2.427  11.728  0.1904 -0.5315 -0.1722
  218MOL0     C28660  -0.031   2.582  11.747  1.0284 -0.1011 -0.3163
  218MOL0     N28661  -0.151   2.656  11.810  0.1602 -0.2240  0.4444
  218MOL0     C28662  -0.168   2.737  11.925 -0.2313  0.8954  0.3034
  218MOL0     C28663  -0.299   2.774  11.923  0.4664  0.3050  0.1446
  218MOL0     C28664  -0.369   2.845  12.038  0.3859 -0.1843  0.1935
  218MOL0     C28665  -0.425   2.738  12.124 -0.3862  0.2577 -0.6048
  218MOL0     C28666  -0.491   2.800  12.243 -0.3249  0.7143 -0.3084
  218MOL0     C28667  -0.634   2.844  12.211 -1.2725  0.6126 -0.2055
  218MOL0     O28668  -0.707   2.726  12.194 -0.4066  0.3995 -0.1547
  218MOL0     C28669  -0.842   2.753  12.211  0.1638  0.6113  0.2599
  218MOL0     C28670  -0.921   2.669  12.284  0.1929 -0.9672 -0.0587
  218MOL0     C28671  -1.055   2.694  12.314 -0.2988 -0.0342  0.1823
  218MOL0     C28672  -1.118   2.808  12.259  0.7110 -0.1516 -0.3238
  218MOL0     C28673  -1.269   2.807  12.283 -0.1727  1.0034  0.6605
  218MOL0     O28674  -1.326   2.698  12.343  0.5829  0.4682 -0.3121
  218MOL0     C28675  -1.455   2.681  12.374 -0.1643 -0.1494  0.1627
  218MOL0     C28676  -1.477   2.588  12.482 -0.4347 -1.0712 -0.0356
  218MOL0     C28677  -1.609   2.570  12.519 -0.8951 -0.5914  0.1506
  218MOL0     C28678  -1.717   2.633  12.459 -0.4409  0.0828 -0.3255
  218MOL0     O28679  -1.852   2.625  12.489 -0.1687 -0.0813 -0.6697
  218MOL0     C28680  -1.898   2.567  12.615  0.5231 -0.1207 -0.2105
  218MOL0     C28681  -1.942   2.422  12.591  0.9498 -0.6987 -1.0847
  218MOL0     C28682  -2.033   2.415  12.469 -0.3604 -0.5997  0.2244
  218MOL0     C28683  -2.071   2.265  12.457  0.1508 -0.1927 -0.3979
  218MOL0     C28684  -2.179   2.239  12.340 -0.7687 -0.3092  0.6959
  218MOL0     C28685  -2.151   2.295  12.204 -0.3267  0.6413  0.8991
  218MOL0     C28686  -2.037   2.213  12.141  0.3976 -0.2389 -0.9475
  218MOL0     C28687  -2.006   2.261  11.995 -0.5670 -0.3235  0.1741
  218MOL0    Cl28688  -1.894   2.136  11.911  0.1825  0.0841  0.1804
  218MOL0     C28689  -1.697   2.728  12.363 -0.5016  0.0083 -0.2413
  218MOL0     C28690  -1.563   2.755  12.318  0.0621  0.1241 -1.1395
  218MOL0     O28691  -1.321   2.916  12.261 -0.0992  0.0983 -0.5066
  218MOL0     C28692  -1.043   2.887  12.170 -0.3211  0.4184  0.2273
  218MOL0     C28693  -0.905   2.863  12.154  0.5044  0.5124 -0.0653
  218MOL0     N28694  -0.352   2.731  11.799 -0.5099  0.4426  0.0806
  218MOL0     N28695  -0.269   2.651  11.738 -0.0610 -0.0106  0.9027
  218MOL0     C28696   0.623   2.055  11.125 -0.5850  0.3746  0.3844
  218MOL0     C28697   0.697   1.960  11.042  0.4879  0.5727  0.9656
  218MOL0     C28698   0.817   1.679  10.729  0.2904  0.3414 -0.0727
  218MOL0     C28699   0.947   1.719  10.682  0.0707 -0.1325  0.4239
  218MOL0     C28700   1.033   1.628  10.618 -0.4982 -0.1061  0.5271
  218MOL0     C28701   0.992   1.504  10.579  0.3892 -0.5630 -0.1289
  218MOL0     O28702   1.069   1.419  10.502 -0.0571  0.3397  0.0148
  218MOL0     C28703   1.040   1.447  10.372  0.3071  0.1899  0.3633
  218MOL0     C28704   1.039   1.323  10.286 -0.0284  0.3211 -0.2309
  218MOL0     C28705   1.184   1.290  10.227 -0.3324  0.0812  0.7064
  218MOL0     C28706   1.259   1.171  10.292 -0.1261  0.3205  0.0586
  218MOL0     C28707   1.360   1.103  10.202 -0.2734 -0.1140  0.3772
  218MOL0     C28708   1.450   1.054  10.135  0.6009 -0.3148 -0.3143
  218MOL0     C28709   0.864   1.458  10.628 -0.4305 -0.0995 -0.0803
  218MOL0     C28710   0.782   1.546  10.699  0.5372 -0.1177 -0.2836
  218MOL0     H28711   0.594   2.059  10.739  1.1424  0.1722 -0.5023
  218MOL0     H28712   0.457   2.225  10.881 -2.4260 -0.8206  0.3686
  218MOL0     H28713   0.531   2.386  11.292 -0.4578  0.1148  0.1763
  218MOL0     H28714   0.606   2.231  11.290  1.0432  2.3861  0.4903
  218MOL0     H28715   0.448   2.189  11.463  2.7153  0.3448 -1.0614
  218MOL0     H28716   0.340   2.164  11.330 -0.2611 -1.3622  0.5022
  218MOL0     H28717   0.255   2.398  11.346  0.9695  1.5106 -0.1012
  218MOL0     H28718   0.382   2.436  11.468 -0.0585 -1.2579  1.8630
  218MOL0     H28719   0.234   2.198  11.536  2.5036 -0.1023 -4.0366
  218MOL0     H28720   0.325   2.306  11.631  0.4141  2.8244 -0.8595
  218MOL0     H28721   0.053   2.368  11.500 -0.2742 -0.4927  0.1618
  218MOL0     H28722   0.171   2.479  11.572  3.8039 -1.9386 -1.6381
  218MOL0     H28723   0.125   2.337  11.791 -1.9331 -0.7647  1.0682
  218MOL0     H28724   0.028   2.231  11.696  0.4257 -0.3624 -2.3084
  218MOL0     H28725  -0.132   2.416  11.641 -2.1699  1.6824  1.1857
  218MOL0     H28726  -0.128   2.386  11.808  0.4222 -0.8110 -0.1364
  218MOL0     H28727  -0.014   2.615  11.644  0.1055 -0.2553 -0.5282
  218MOL0     H28728   0.049   2.576  11.821 -1.0425 -0.0685  2.0489
  218MOL0     H28729  -0.088   2.758  11.996 -0.3132 -2.0821  1.4011
  218MOL0     H28730  -0.446   2.908  11.994  1.1758  0.0913 -0.8356
  218MOL0     H28731  -0.295   2.914  12.080 -2.3338  2.2311  1.2948
  218MOL0     H28732  -0.342   2.684  12.172 -0.7702  0.0760 -0.1336
  218MOL0     H28733  -0.491   2.668  12.074  0.6435 -0.4658 -0.9803
  218MOL0     H28734  -0.489   2.740  12.335 -2.8384  2.8246  1.2389
  218MOL0     H28735  -0.419   2.876  12.277  1.7424 -1.5247  0.6452
  218MOL0     H28736  -0.631   2.900  12.117  0.0539  1.0841  0.0932
  218MOL0     H28737  -0.669   2.902  12.297 -0.2117 -1.2838  1.5898
  218MOL0     H28738  -0.880   2.582  12.335 -1.1961 -0.5995  1.8267
  218MOL0     H28739  -1.119   2.621  12.362 -0.5740  1.0545  1.5573
  218MOL0     H28740  -1.402   2.533  12.538  1.5438  2.2211  0.8772
  218MOL0     H28741  -1.637   2.510  12.605  1.1461 -0.2919  1.0818
  218MOL0     H28742  -1.993   2.610  12.649 -0.1382 -1.1224 -0.7199
  218MOL0     H28743  -1.824   2.575  12.695  0.8929 -0.6438 -0.4962
  218MOL0     H28744  -1.998   2.381  12.675 -0.8643 -0.5670 -2.1705
  218MOL0     H28745  -1.854   2.359  12.576 -0.1578 -2.6914  0.2551
  218MOL0     H28746  -1.977   2.444  12.380  0.2194  2.0660  1.3403
  218MOL0     H28747  -2.122   2.473  12.494 -0.2390 -1.2339  2.4023
  218MOL0     H28748  -1.981   2.203  12.457 -1.2318 -2.3340  0.8786
  218MOL0     H28749  -2.110   2.235  12.555 -1.0248  0.3437 -0.6893
  218MOL0     H28750  -2.269   2.283  12.384 -0.2842 -1.2551  2.7556
  218MOL0     H28751  -2.199   2.132  12.326 -0.9044 -0.0508 -1.4375
  218MOL0     H28752  -2.116   2.398  12.217  4.2249 -0.8712  2.3859
  218MOL0     H28753  -2.229   2.282  12.127  0.7495 -4.0007  0.2774
  218MOL0     H28754  -1.938   2.227  12.186  0.5773 -0.7816 -1.1712
  218MOL0     H28755  -2.072   2.109  12.145 -0.5457  0.0819 -0.3900
  218MOL0     H28756  -1.959   2.360  11.996 -1.5313  0.1611  1.5632
  218MOL0     H28757  -2.098   2.266  11.936  1.0436  0.2076 -2.4278
  218MOL0     H28758  -1.783   2.770  12.312  0.3754  0.1679 -1.6394
  218MOL0     H28759  -1.544   2.846  12.261 -0.8523  0.6667 -0.6094
  218MOL0     H28760  -1.067   2.981  12.120  0.6482  1.1053  1.0126
  218MOL0     H28761  -0.839   2.935  12.106  0.0971  0.6798 -0.3860
  218MOL0     H28762   0.643   2.048  11.231 -0.4691  1.7828  0.4752
  218MOL0     H28763   0.764   1.888  11.088 -1.9259 -2.6646 -0.2006
  218MOL0     H28764   0.987   1.818  10.702  0.6111 -0.3572  0.4758
  218MOL0     H28765   1.134   1.653  10.589  0.4292 -1.5406  2.3745
  218MOL0     H28766   1.108   1.519  10.325  1.1188  0.7395  2.2817
  218MOL0     H28767   0.939   1.487  10.361 -0.8659 -2.7331 -0.6725
  218MOL0     H28768   1.002   1.243  10.351 -0.3987  1.0276  0.4277
  218MOL0     H28769   0.974   1.338  10.199 -2.6673 -0.1642  1.5423
  218MOL0     H28770   1.238   1.382  10.250  0.2365 -0.8113  3.1852
  218MOL0     H28771   1.174   1.271  10.119 -3.0166 -1.2082  1.1044
  218MOL0     H28772   1.317   1.212  10.375  1.2135 -0.2477 -0.5537
  218MOL0     H28773   1.191   1.090  10.318  1.7263 -1.7025 -1.0103
  218MOL0     H28774   1.533   1.028  10.072 -0.2027 -0.7240 -1.2299
  218MOL0     H28775   0.825   1.361  10.600  0.9567 -0.2816 -1.4853
  218MOL0     H28776   0.680   1.516  10.722  1.4742 -4.6183 -1.0822
  219MOL0     O28777   7.604   5.079   7.058 -0.0401 -0.1852  0.2496
  219MOL0     C28778   7.589   5.024   6.949 -0.1373 -0.4481  0.1607
  219MOL0     O28779   7.487   5.053   6.865  0.4420 -0.3835 -0.2101
  219MOL0     C28780   7.398   5.149   6.907  0.5361  0.4675 -0.6436
  219MOL0     C28781   7.380   5.269   6.855 -0.2713  0.1297 -0.1765
  219MOL0     C28782   7.275   5.353   6.894  0.1144 -0.2453  0.3328
  219MOL0     C28783   7.193   5.319   7.001 -0.0129  0.3012 -0.7003
  219MOL0     O28784   7.093   5.397   7.050  0.0490  0.2781  0.6119
  219MOL0     C28785   7.097   5.541   7.042 -0.4428 -0.0330  0.1726
  219MOL0     C28786   7.000   5.611   7.141 -0.1355 -0.3727 -0.0748
  219MOL0     C28787   6.918   5.729   7.088 -0.5669  1.0649 -0.1467
  219MOL0     C28788   6.864   5.809   7.214  0.0479 -0.4270  0.6495
  219MOL0     C28789   6.774   5.926   7.173 -0.5094  0.0359  0.2222
  219MOL0     C28790   6.737   6.011   7.297 -0.2519  0.2069  0.0473
  219MOL0     C28791   6.730   6.164   7.256 -1.0478  0.3951  0.3859
  219MOL0     C28792   6.659   6.259   7.353 -0.7444 -0.4784  0.6691
  219MOL0     N28793   6.514   6.281   7.322 -0.3811 -0.2013 -0.2844
  219MOL0     C28794   6.432   6.366   7.388 -0.0112 -0.5104 -0.3784
  219MOL0     C28795   6.304   6.327   7.357 -0.5641 -1.0511  1.0897
  219MOL0     C28796   6.184   6.410   7.394 -0.7507 -0.0689  0.3373
  219MOL0     C28797   6.116   6.478   7.278 -0.7377 -0.3404 -0.4152
  219MOL0     C28798   6.000   6.560   7.321  0.4930 -0.3374 -0.4412
  219MOL0     C28799   6.053   6.699   7.352 -0.1585  0.5521  0.3283
  219MOL0     O28800   5.973   6.749   7.456 -0.3495 -0.2118  0.0432
  219MOL0     C28801   5.844   6.770   7.420 -0.0900  0.0621  0.1857
  219MOL0     C28802   5.805   6.817   7.295  0.1296 -0.6214  0.8370
  219MOL0     C28803   5.669   6.844   7.268 -0.8099  0.2637  0.1158
  219MOL0     C28804   5.573   6.822   7.366  0.5817  0.1605  0.3673
  219MOL0     C28805   5.428   6.841   7.340 -0.2379  0.1458 -0.0590
  219MOL0     O28806   5.345   6.841   7.446  0.2665 -0.2698 -0.2907
  219MOL0     C28807   5.207   6.856   7.420  1.0572 -1.0651 -0.7113
  219MOL0     C28808   5.119   6.753   7.395 -0.7965  0.2370  0.2555
  219MOL0     C28809   4.984   6.765   7.389 -0.2135  0.4877  0.1838
  219MOL0     C28810   4.918   6.889   7.412  0.6584  0.0890  0.2617
  219MOL0     O28811   4.780   6.917   7.412  0.0811 -0.3454 -0.1334
  219MOL0     C28812   4.695   6.800   7.403  0.6168 -0.1773  0.4105
  219MOL0     C28813   4.557   6.849   7.358 -0.3624 -0.3801  0.4188
  219MOL0     C28814   4.554   6.869   7.207  0.0510 -0.4821 -0.1780
  219MOL0     C28815   4.594   6.750   7.124  0.0994  0.2205 -0.4619
  219MOL0     C28816   4.517   6.625   7.165  0.8778 -0.3226 -0.5199
  219MOL0     C28817   4.364   6.623   7.122  0.1392 -0.0378 -0.7692
  219MOL0     C28818   4.351   6.618   6.970  0.1930  0.0021 -0.2774
  219MOL0     C28819   4.209   6.583   6.928 -0.3955 -0.2125  0.2427
  219MOL0    Cl28820   4.208   6.593   6.744  0.1293  0.0245  0.1276
  219MOL0     C28821   5.003   6.999   7.431  0.0067  0.2455 -0.1161
  219MOL0     C28822   5.145   6.981   7.442  0.1843  0.1271  0.2253
  219MOL0     O28823   5.391   6.859   7.221 -0.9317  0.1933  0.1648
  219MOL0     C28824   5.614   6.775   7.490 -0.8165  0.0144  0.0173
  219MOL0     C28825   5.744   6.750   7.517  0.0550 -0.4372  0.6327
  219MOL0     N28826   6.317   6.221   7.267 -0.1956 -0.9773  0.6515
  219MOL0     N28827   6.438   6.192   7.258 -0.1939 -0.1818  0.0550
  219MOL0     C28828   7.223   5.200   7.068  0.3610 -0.3495  0.1796
  219MOL0     C28829   7.315   5.110   7.014  0.0627  0.0292 -0.1427
  219MOL0     C28830   7.689   4.921   6.912  0.6964 -0.1459 -0.0703
  219MOL0     C28831   7.755   4.835   7.006  0.3617  0.0584  0.0514
  219MOL0     C28832   7.849   4.736   6.967 -0.2859  0.7447 -0.0013
  219MOL0     C28833   7.882   4.718   6.830  0.4007 -0.3157 -0.6923
  219MOL0     O28834   7.983   4.639   6.798 -0.6383  0.0252 -0.3066
  219MOL0     C28835   7.997   4.603   6.665  0.1719  0.6658 -0.2576
  219MOL0     C28836   8.081   4.480   6.669  0.5253  0.3304  0.7705
  219MOL0     C28837   8.131   4.454   6.526  0.1889 -0.3663  0.0421
  219MOL0     C28838   8.230   4.348   6.518 -0.9165 -0.0726  0.3541
  219MOL0     C28839   8.287   4.335   6.379 -0.0566 -0.0070  0.5196
  219MOL0     C28840   8.322   4.344   6.265 -0.6075 -0.6258 -0.0388
  219MOL0     C28841   7.819   4.807   6.738 -0.4438 -0.4165  0.0832
  219MOL0     C28842   7.729   4.908   6.775 -0.0854 -0.4895  0.0275
  219MOL0     H28843   7.427   5.284   6.758  3.0629 -2.6797  0.8037
  219MOL0     H28844   7.255   5.438   6.829 -1.6322 -0.5882  0.3551
  219MOL0     H28845   7.070   5.567   6.939  0.6019 -1.5611 -0.5201
  219MOL0     H28846   7.196   5.582   7.060 -0.4505  1.4203 -2.6473
  219MOL0     H28847   7.060   5.646   7.225 -1.9636 -1.4095  1.7381
  219MOL0     H28848   6.931   5.532   7.173 -0.7836  0.6397  1.0937
  219MOL0     H28849   6.829   5.694   7.035 -0.1197 -0.5083  0.0969
  219MOL0     H28850   6.979   5.786   7.018  1.8287  0.7711  1.5521
  219MOL0     H28851   6.796   5.737   7.260  0.3384 -1.7376 -0.8951
  219MOL0     H28852   6.943   5.844   7.281  1.2544  0.4435 -1.1572
  219MOL0     H28853   6.686   5.895   7.117 -0.1002  3.1414 -2.5024
  219MOL0     H28854   6.826   5.990   7.100 -0.1561  1.5920  1.7613
  219MOL0     H28855   6.800   6.012   7.387 -1.6502 -2.2228  1.1551
  219MOL0     H28856   6.644   5.971   7.338 -0.3588  1.5867  1.2395
  219MOL0     H28857   6.836   6.190   7.244  0.6168 -4.7034  1.5163
  219MOL0     H28858   6.693   6.175   7.153 -1.9660  1.0057  0.7706
  219MOL0     H28859   6.710   6.356   7.341 -1.6495  0.0422  0.9446
  219MOL0     H28860   6.675   6.231   7.458 -2.4047 -2.6917  0.3962
  219MOL0     H28861   6.465   6.452   7.445  0.1897 -0.9972  0.2518
  219MOL0     H28862   6.219   6.486   7.465 -3.0416  0.9870  0.4454
  219MOL0     H28863   6.116   6.339   7.442  2.1013 -3.2385  0.0688
  219MOL0     H28864   6.087   6.394   7.214 -1.0962 -0.1234 -0.5454
  219MOL0     H28865   6.188   6.534   7.217 -2.4230  2.8002  0.2366
  219MOL0     H28866   5.930   6.565   7.237  0.1653 -1.4302 -0.2391
  219MOL0     H28867   5.948   6.512   7.404 -1.8127  0.1881 -1.4927
  219MOL0     H28868   6.056   6.757   7.260  2.1492  1.1999  0.7554
  219MOL0     H28869   6.155   6.690   7.389  0.8095  1.4562 -1.9764
  219MOL0     H28870   5.868   6.821   7.207 -0.6562 -1.1384  0.2364
  219MOL0     H28871   5.635   6.859   7.166 -0.3816 -0.5168 -0.1486
  219MOL0     H28872   5.176   6.663   7.373 -0.6565  1.1390 -3.9551
  219MOL0     H28873   4.937   6.674   7.354  0.5607  0.5185 -0.9970
  219MOL0     H28874   4.688   6.761   7.505 -0.4421  2.5325  1.4451
  219MOL0     H28875   4.731   6.711   7.349  2.4762 -2.3245  4.6880
  219MOL0     H28876   4.537   6.944   7.408 -1.8592 -0.8293  0.7239
  219MOL0     H28877   4.477   6.781   7.388 -2.4971  1.2559 -1.2393
  219MOL0     H28878   4.623   6.948   7.178 -1.1029  1.3900  1.7910
  219MOL0     H28879   4.451   6.895   7.180  0.6095  0.5988 -1.3432
  219MOL0     H28880   4.567   6.765   7.019 -3.5013  1.1230  0.4637
  219MOL0     H28881   4.701   6.728   7.132  0.3861  1.7373  0.0697
  219MOL0     H28882   4.521   6.612   7.273 -1.3349 -1.6805 -0.5441
  219MOL0     H28883   4.571   6.539   7.125 -0.3724 -1.3817  0.0200
  219MOL0     H28884   4.326   6.721   7.153 -0.2062  0.0892 -1.5682
  219MOL0     H28885   4.319   6.533   7.164 -0.5506  1.2894  1.5182
  219MOL0     H28886   4.364   6.718   6.928 -0.9387  0.5344  0.5940
  219MOL0     H28887   4.421   6.543   6.932 -0.3222 -2.0062  2.3696
  219MOL0     H28888   4.132   6.649   6.970 -2.9302 -1.2956 -2.3475
  219MOL0     H28889   4.192   6.478   6.954 -1.9504 -0.0699 -0.0942
  219MOL0     H28890   4.963   7.100   7.434  1.9715  1.0854 -0.2656
  219MOL0     H28891   5.206   7.067   7.469  1.6274 -0.9432  0.5036
  219MOL0     H28892   5.543   6.754   7.570 -0.2258  0.0469  0.5541
  219MOL0     H28893   5.774   6.700   7.608  2.9220 -1.8182 -0.9357
  219MOL0     H28894   7.163   5.166   7.152  1.7148 -0.1089  1.2804
  219MOL0     H28895   7.321   5.015   7.066  2.5351  0.5446  0.6461
  219MOL0     H28896   7.739   4.861   7.110  2.4474 -0.0433  0.4391
  219MOL0     H28897   7.894   4.669   7.039 -0.2002  0.8701  0.0626
  219MOL0     H28898   8.043   4.684   6.607  0.6819  0.6692  0.1485
  219MOL0     H28899   7.902   4.581   6.614 -0.9435  1.8228  1.2183
  219MOL0     H28900   8.169   4.485   6.733  0.1333 -2.0863  1.6352
  219MOL0     H28901   8.019   4.393   6.695  1.3054 -0.5209 -0.0968
  219MOL0     H28902   8.172   4.551   6.495  0.5368 -0.5708 -0.1401
  219MOL0     H28903   8.048   4.430   6.458  0.9144 -0.8291 -0.6969
  219MOL0     H28904   8.310   4.364   6.591 -0.2950  0.6566 -0.4499
  219MOL0     H28905   8.185   4.251   6.541  0.6239 -0.4967  1.8125
  219MOL0     H28906   8.354   4.323   6.165  2.8794  1.0902  0.5379
  219MOL0     H28907   7.856   4.800   6.636 -0.1261  1.1905  0.0617
  219MOL0     H28908   7.682   4.963   6.694  2.7562 -0.7201 -1.9149
  220MOL0     O28909   8.163   9.845   5.547  0.0545 -0.6048  0.1576
  220MOL0     C28910   8.132   9.745   5.474 -0.2205 -0.1778 -0.4520
  220MOL0     O28911   8.198   9.704   5.365  0.2650  0.1445 -0.0809
  220MOL0     C28912   8.329   9.741   5.345 -0.1663 -0.1685 -0.5248
  220MOL0     C28913   8.427   9.713   5.441  0.5268 -0.8652  0.3781
  220MOL0     C28914   8.550   9.763   5.422 -0.7670 -0.4162 -0.0149
  220MOL0     C28915   8.592   9.831   5.308 -0.0630 -0.1342 -0.9948
  220MOL0     O28916   8.710   9.904   5.298 -0.3353  0.4712 -0.3820
  220MOL0     C28917   8.801   9.878   5.412 -0.0669 -0.6024  0.7823
  220MOL0     C28918   8.943   9.908   5.374 -0.1354 -0.2959  0.0791
  220MOL0     C28919   8.976   9.832   5.249  0.0667 -0.2153 -0.4056
  220MOL0     C28920   9.122   9.826   5.231 -0.7826 -0.1661  0.1034
  220MOL0     C28921   9.180   9.768   5.101 -0.0549  0.6625  0.1765
  220MOL0     C28922   9.308   9.831   5.072  0.0158 -0.2479 -0.0548
  220MOL0     C28923   9.378   9.750   4.955 -0.0683  0.0281 -0.3375
  220MOL0     C28924   9.525   9.786   4.928  0.1278 -0.0973  0.2705
  220MOL0     N28925   9.544   9.914   4.858  0.0269 -0.8432  0.2393
  220MOL0     C28926   9.524   9.943   4.727 -0.0296  0.4900  0.0597
  220MOL0     C28927   9.541  10.077   4.705 -0.4779 -0.0855  0.0615
  220MOL0     C28928   9.548  10.150   4.572 -0.4889 -0.6400  0.2431
  220MOL0     C28929   9.447  10.120   4.468  0.2282  0.5336  0.0283
  220MOL0     C28930   9.330  10.211   4.473  0.0956  0.5399 -0.0938
  220MOL0     C28931   9.233  10.180   4.583 -0.1255  0.0774 -0.9351
  220MOL0     O28932   9.185  10.043   4.579  0.4255 -0.2652  0.7074
  220MOL0     C28933   9.078  10.000   4.652 -0.0731 -0.2621 -0.7127
  220MOL0     C28934   9.061   9.856   4.667  0.7066 -0.9566  0.2640
  220MOL0     C28935   8.941   9.803   4.723  0.0127 -0.4772 -0.3995
  220MOL0     C28936   8.842   9.887   4.776  0.1496 -0.0412  0.1114
  220MOL0     C28937   8.724   9.829   4.828  0.3639  0.6053  0.2580
  220MOL0     O28938   8.713   9.695   4.846 -0.3566  0.0554 -0.1215
  220MOL0     C28939   8.593   9.642   4.888  0.4581  0.1772 -0.1407
  220MOL0     C28940   8.570   9.602   5.020  0.2974  0.9619  0.0506
  220MOL0     C28941   8.449   9.543   5.059  0.1035  0.4420  0.8226
  220MOL0     C28942   8.342   9.533   4.965 -0.8628  0.1733  0.2618
  220MOL0     O28943   8.218   9.490   4.990  0.0711 -0.2528  0.9134
  220MOL0     C28944   8.181   9.405   5.096 -0.3845  0.1009 -0.2002
  220MOL0     C28945   8.035   9.387   5.082 -0.3988 -0.1005  0.4471
  220MOL0     C28946   8.001   9.314   4.947 -0.1839 -0.3275  0.0679
  220MOL0     C28947   7.853   9.277   4.946 -0.6567  0.4344  0.6258
  220MOL0     C28948   7.764   9.400   4.962 -0.2031 -0.1285  0.5679
  220MOL0     C28949   7.769   9.493   4.838 -0.7598  0.5309 -0.3258
  220MOL0     C28950   7.676   9.619   4.855 -0.0868  0.3665  0.2475
  220MOL0     C28951   7.532   9.591   4.828  0.5313  0.1876  0.2263
  220MOL0    Cl28952   7.426   9.737   4.847  0.5856 -0.0167  0.0312
  220MOL0     C28953   8.369   9.569   4.832 -0.9591 -0.2008 -0.8909
  220MOL0     C28954   8.496   9.624   4.796  0.2551 -0.3696 -0.5154
  220MOL0     O28955   8.630   9.908   4.851 -0.2521 -0.1324  1.0978
  220MOL0     C28956   8.861  10.028   4.771 -0.6519 -1.1479  0.5957
  220MOL0     C28957   8.976  10.081   4.704 -0.2352  0.0948  0.5435
  220MOL0     N28958   9.579  10.133   4.827 -0.5352 -0.0361  0.0497
  220MOL0     N28959   9.584  10.034   4.922 -0.7650 -0.3202  0.4678
  220MOL0     C28960   8.501   9.845   5.207  0.5844 -0.3638 -0.5897
  220MOL0     C28961   8.369   9.792   5.228  0.1835 -0.5181 -0.4398
  220MOL0     C28962   8.018   9.661   5.511  1.2560  0.6868 -0.3447
  220MOL0     C28963   8.000   9.530   5.473 -0.7645 -0.3967 -0.7298
  220MOL0     C28964   7.895   9.456   5.514  0.0241  0.8703  0.6620
  220MOL0     C28965   7.785   9.511   5.582  0.1578  0.3667  0.2276
  220MOL0     O28966   7.677   9.432   5.621 -0.4107 -0.2546 -0.0969
  220MOL0     C28967   7.558   9.483   5.674  1.1302  0.0762  0.5665
  220MOL0     C28968   7.445   9.433   5.583 -0.5572 -0.4388 -0.5579
  220MOL0     C28969   7.470   9.421   5.435  0.3738 -0.6663  0.2550
  220MOL0     C28970   7.347   9.364   5.355 -0.0732  0.1030  0.8960
  220MOL0     C28971   7.336   9.396   5.208  0.3004 -0.1617  0.6696
  220MOL0     C28972   7.318   9.440   5.093  0.5004  0.5910  0.8247
  220MOL0     C28973   7.793   9.647   5.614  0.2427  0.1314 -0.5021
  220MOL0     C28974   7.910   9.724   5.583 -0.1928  0.5636 -0.3030
  220MOL0     H28975   8.400   9.661   5.532 -5.1439  1.9289  0.7339
  220MOL0     H28976   8.604   9.738   5.513 -0.2420 -0.4650 -0.3370
  220MOL0     H28977   8.794   9.775   5.448  2.3586 -0.8421  0.7006
  220MOL0     H28978   8.773   9.949   5.489  0.5396 -0.6425  1.0446
  220MOL0     H28979   9.003   9.872   5.458  1.1268  0.4194 -0.4877
  220MOL0     H28980   8.948  10.017   5.376 -0.3788 -0.2533 -1.1985
  220MOL0     H28981   8.924   9.874   5.163 -1.4812  2.3969  1.6750
  220MOL0     H28982   8.945   9.727   5.261 -1.5227  0.3259  0.6083
  220MOL0     H28983   9.157   9.929   5.242 -1.0424  0.1438 -1.6526
  220MOL0     H28984   9.154   9.764   5.315 -1.8534  0.7005  1.1822
  220MOL0     H28985   9.100   9.793   5.031 -2.1901  2.0941  2.9031
  220MOL0     H28986   9.193   9.661   5.114 -1.5099  0.3442 -0.7487
  220MOL0     H28987   9.362   9.842   5.166 -0.2116  3.6759 -0.2187
  220MOL0     H28988   9.284   9.931   5.036  2.6973  1.0957  1.5980
  220MOL0     H28989   9.370   9.643   4.979  0.7549  0.4653  2.2921
  220MOL0     H28990   9.324   9.777   4.865 -1.6689 -0.4525  0.4412
  220MOL0     H28991   9.582   9.711   4.873 -0.9200 -0.8708  0.2067
  220MOL0     H28992   9.562   9.800   5.030 -2.1732 -0.7530  1.2643
  220MOL0     H28993   9.502   9.863   4.657 -0.5040 -0.7036  1.5406
  220MOL0     H28994   9.640  10.108   4.530 -1.0578 -0.1362 -1.5883
  220MOL0     H28995   9.562  10.258   4.578 -1.3135 -0.1283 -4.1015
  220MOL0     H28996   9.407  10.019   4.477 -0.6782  0.9619  0.9570
  220MOL0     H28997   9.508  10.132   4.378  1.3486  0.1268  0.7105
  220MOL0     H28998   9.364  10.312   4.496 -0.2613  0.0076  3.3809
  220MOL0     H28999   9.280  10.208   4.376  0.9331  0.2885 -0.5189
  220MOL0     H29000   9.140  10.234   4.560 -1.6268 -2.0372 -0.1399
  220MOL0     H29001   9.270  10.206   4.682  0.8662 -0.8856 -1.0409
  220MOL0     H29002   9.134   9.786   4.627  0.4506 -1.5163  0.7683
  220MOL0     H29003   8.916   9.697   4.727 -2.1538 -0.0119  3.6273
  220MOL0     H29004   8.650   9.602   5.094 -1.4963 -0.2193  2.1015
  220MOL0     H29005   8.442   9.516   5.164  0.1183  0.3029  0.7880
  220MOL0     H29006   8.201   9.448   5.195 -0.7533 -2.9340  1.3155
  220MOL0     H29007   8.228   9.307   5.082 -1.2868 -0.1653 -1.5536
  220MOL0     H29008   7.987   9.485   5.079  1.9261  1.0904 -0.1423
  220MOL0     H29009   8.002   9.328   5.169  0.4865 -2.8500 -0.9594
  220MOL0     H29010   8.059   9.221   4.942 -0.4714 -0.4505 -1.1008
  220MOL0     H29011   8.022   9.372   4.858  2.0655  0.5675  1.1102
  220MOL0     H29012   7.829   9.237   4.847  0.5734  1.9931 -0.3577
  220MOL0     H29013   7.846   9.203   5.026  3.6268 -1.8230 -0.7953
  220MOL0     H29014   7.786   9.449   5.058  1.3705 -2.1629  1.3266
  220MOL0     H29015   7.665   9.355   4.968 -1.1219  1.3242 -2.1457
  220MOL0     H29016   7.757   9.422   4.755  1.8308 -1.7128  1.0432
  220MOL0     H29017   7.861   9.549   4.819 -0.5670  0.2932 -0.0931
  220MOL0     H29018   7.658   9.646   4.960 -2.1338 -1.0424  0.3058
  220MOL0     H29019   7.712   9.697   4.787 -0.6879 -1.6265 -2.4915
  220MOL0     H29020   7.501   9.509   4.893  2.3294 -1.0394 -0.3976
  220MOL0     H29021   7.521   9.559   4.725 -0.0092  0.7682  0.0970
  220MOL0     H29022   8.286   9.574   4.762 -2.1660 -0.9379  0.4544
  220MOL0     H29023   8.512   9.669   4.699  0.9304 -0.1223 -0.2934
  220MOL0     H29024   8.779  10.087   4.810 -2.0941 -1.6634 -1.5211
  220MOL0     H29025   8.989  10.189   4.707  0.5409 -0.0091  1.9938
  220MOL0     H29026   8.525   9.890   5.111 -0.8951  1.4231 -0.1846
  220MOL0     H29027   8.289   9.795   5.156  2.3098 -3.7281 -3.2404
  220MOL0     H29028   8.068   9.486   5.402  0.1040  1.3928 -1.0614
  220MOL0     H29029   7.870   9.354   5.485  1.1080  1.2135 -1.7231
  220MOL0     H29030   7.553   9.592   5.685 -0.8362 -0.1518  2.6061
  220MOL0     H29031   7.537   9.442   5.774 -0.3208  0.9631  0.6529
  220MOL0     H29032   7.431   9.333   5.624 -0.1862 -0.7027 -1.0684
  220MOL0     H29033   7.364   9.503   5.605  0.0643 -0.1166  0.8199
  220MOL0     H29034   7.563   9.366   5.421  1.3195  0.1758  2.7587
  220MOL0     H29035   7.498   9.515   5.387 -1.4002 -1.8240 -3.4584
  220MOL0     H29036   7.336   9.256   5.363 -3.3646 -0.3714 -4.7602
  220MOL0     H29037   7.254   9.402   5.398 -1.9691 -3.1598  0.0214
  220MOL0     H29038   7.279   9.465   4.996 -0.0121 -0.3742  0.7684
  220MOL0     H29039   7.716   9.703   5.666 -0.8572 -0.1482 -1.7908
  220MOL0     H29040   7.915   9.827   5.620  0.5726  0.7287 -0.8413
  221MOL0     O29041   4.904  10.260   4.568 -1.0003 -0.0486 -0.2396
  221MOL0     C29042   4.916  10.177   4.481  0.1343  0.8561  0.0580
  221MOL0     O29043   4.819  10.090   4.432 -0.2465  0.5596 -0.2739
  221MOL0     C29044   4.685  10.108   4.476  0.1897 -0.5171  0.4328
  221MOL0     C29045   4.581  10.120   4.385 -0.2373  0.5736  0.1133
  221MOL0     C29046   4.450  10.138   4.419  0.5645  0.1457 -0.4231
  221MOL0     C29047   4.420  10.135   4.558  0.0399  0.4950  0.4768
  221MOL0     O29048   4.304  10.151   4.622 -0.3373 -0.1564 -0.3332
  221MOL0     C29049   4.185  10.191   4.539 -0.3543 -0.8304 -0.1141
  221MOL0     C29050   4.128  10.057   4.514 -0.1159  0.2504 -0.0996
  221MOL0     C29051   3.984  10.079   4.474  0.7591  0.4627  0.1626
  221MOL0     C29052   3.923   9.936   4.446 -0.8872 -0.2441 -0.8894
  221MOL0     C29053   3.775   9.950   4.387 -0.9765  0.0536 -0.6275
  221MOL0     C29054   3.676  10.026   4.475 -0.0968  1.0680 -0.6936
  221MOL0     C29055   3.528   9.975   4.458 -0.0953 -0.3717 -0.6934
  221MOL0     C29056   3.440  10.061   4.556 -0.4711  0.2525  0.3413
  221MOL0     N29057   3.307  10.014   4.548 -0.1183 -0.2893 -0.6677
  221MOL0     C29058   3.220  10.040   4.657  0.6676 -0.4183 -0.0694
  221MOL0     C29059   3.109   9.971   4.622  0.0413  0.7242 -1.1992
  221MOL0     C29060   2.977   9.963   4.709 -0.2383  0.0620 -0.7507
  221MOL0     C29061   2.895   9.826   4.706 -0.3985  0.9045 -0.5001
  221MOL0     C29062   2.743   9.840   4.733  0.7839 -0.1132 -0.7014
  221MOL0     C29063   2.664   9.707   4.762  0.3395  0.4985  0.1147
  221MOL0     O29064   2.535   9.751   4.805 -0.0029 -0.3195 -1.4134
  221MOL0     C29065   2.497   9.729   4.934 -0.0927 -0.1536 -0.3677
  221MOL0     C29066   2.585   9.717   5.044  0.9173 -0.6395  0.1429
  221MOL0     C29067   2.534   9.712   5.172  0.3156 -0.3896  0.1180
  221MOL0     C29068   2.393   9.717   5.193 -0.3088 -0.5735 -0.1607
  221MOL0     C29069   2.334   9.716   5.331 -0.5882 -0.3349  0.4650
  221MOL0     O29070   2.200   9.768   5.349 -0.4843 -0.9849 -0.1141
  221MOL0     C29071   2.135   9.742   5.472 -0.5313 -0.0404  0.3624
  221MOL0     C29072   2.121   9.853   5.559  0.3521 -0.0972  0.0005
  221MOL0     C29073   2.046   9.837   5.677  0.4496 -0.3732 -0.0413
  221MOL0     C29074   1.981   9.717   5.705  0.8675 -0.5832 -0.2339
  221MOL0     O29075   1.906   9.724   5.820  0.4590  1.0401  0.2266
  221MOL0     C29076   1.802   9.634   5.848  0.3500  0.0982  0.7887
  221MOL0     C29077   1.669   9.690   5.799 -0.3390  0.5823  1.5132
  221MOL0     C29078   1.548   9.615   5.863  0.8200 -0.0920 -0.3013
  221MOL0     C29079   1.508   9.665   6.009  0.1045 -0.1979  0.6614
  221MOL0     C29080   1.358   9.652   6.036  0.6127  0.1129  0.1252
  221MOL0     C29081   1.319   9.666   6.179 -0.4372 -0.0012 -0.4373
  221MOL0     C29082   1.169   9.671   6.190 -0.1202 -0.3437 -0.5868
  221MOL0     C29083   1.119   9.671   6.336  0.8920 -0.0489  0.0007
  221MOL0    Cl29084   1.184   9.524   6.426 -0.0527 -0.0478  0.3271
  221MOL0     C29085   1.994   9.613   5.621 -0.7467 -0.2053 -0.3488
  221MOL0     C29086   2.074   9.622   5.506 -0.5368  0.1590  0.3156
  221MOL0     O29087   2.404   9.658   5.415 -0.1587  0.7884 -0.3963
  221MOL0     C29088   2.303   9.717   5.084 -0.8668  0.5095  0.0551
  221MOL0     C29089   2.358   9.723   4.954  0.0133  0.9355 -0.2284
  221MOL0     N29090   3.126   9.912   4.505  0.2584  0.6056 -0.3362
  221MOL0     N29091   3.244   9.937   4.464 -0.1757 -0.1812  0.2706
  221MOL0     C29092   4.524  10.120   4.650 -0.1137 -0.4959  0.4537
  221MOL0     C29093   4.655  10.101   4.610 -0.0595 -0.0501 -0.3954
  221MOL0     C29094   5.045  10.166   4.404  0.5695 -0.1046  0.7412
  221MOL0     C29095   5.162  10.226   4.452 -0.0840  0.6340 -0.7240
  221MOL0     C29096   5.287  10.178   4.403  0.9355 -0.4738 -1.1985
  221MOL0     C29097   5.296  10.091   4.299  0.4792  0.0034 -1.1310
  221MOL0     O29098   5.420  10.059   4.265 -0.3772  0.5002  0.5095
  221MOL0     C29099   5.448   9.915   4.231  0.0924 -0.1837  0.3074
  221MOL0     C29100   5.580   9.876   4.301 -0.1315 -0.2488 -0.1045
  221MOL0     C29101   5.588   9.933   4.439 -0.2075 -0.8820 -0.3669
  221MOL0     C29102   5.716   9.888   4.518 -0.8253 -1.0570 -0.5766
  221MOL0     C29103   5.711   9.929   4.661  0.9357  0.5726 -0.4934
  221MOL0     C29104   5.704   9.964   4.778 -0.0485  0.2855 -0.1485
  221MOL0     C29105   5.185  10.044   4.238 -0.1530 -0.1640 -0.1521
  221MOL0     C29106   5.060  10.082   4.293  0.4441  0.2594  0.4879
  221MOL0     H29107   4.605  10.118   4.279 -1.8604  3.0790 -0.3727
  221MOL0     H29108   4.379  10.151   4.338 -0.0839 -0.8247 -0.0396
  221MOL0     H29109   4.202  10.250   4.448  1.6834 -1.2776 -0.0844
  221MOL0     H29110   4.117  10.247   4.604 -0.2133 -0.0574 -0.6202
  221MOL0     H29111   4.133   9.999   4.606 -0.0470 -1.3985 -1.1113
  221MOL0     H29112   4.177  10.007   4.430 -1.4675  0.9411 -1.3521
  221MOL0     H29113   3.988  10.142   4.384  0.5330 -1.3483 -1.1725
  221MOL0     H29114   3.922  10.113   4.557 -0.0579 -0.7974  0.0838
  221MOL0     H29115   3.988   9.881   4.378  2.5394  1.8831  0.4346
  221MOL0     H29116   3.919   9.883   4.541  1.3430 -0.3254 -0.7997
  221MOL0     H29117   3.737   9.850   4.365  0.6310 -0.1461 -2.8122
  221MOL0     H29118   3.775   9.996   4.288 -1.2287 -3.4292 -2.3962
  221MOL0     H29119   3.689  10.133   4.460  1.0924  0.7619 -2.0800
  221MOL0     H29120   3.697  10.011   4.581 -0.7144 -1.1178 -0.8336
  221MOL0     H29121   3.491   9.985   4.356 -0.4809 -2.3705 -0.7823
  221MOL0     H29122   3.527   9.867   4.475 -3.0434 -0.4325 -0.7694
  221MOL0     H29123   3.447  10.163   4.516  0.0027 -0.1945 -0.7418
  221MOL0     H29124   3.481  10.065   4.658  2.4260  0.5423 -0.7540
  221MOL0     H29125   3.233  10.098   4.748 -0.6931 -0.7611  0.3651
  221MOL0     H29126   2.915  10.043   4.667  0.3044  0.3916 -0.9307
  221MOL0     H29127   3.003   9.978   4.814 -0.8746 -1.5421 -0.3359
  221MOL0     H29128   2.936   9.751   4.776 -0.5226 -0.3553 -1.7351
  221MOL0     H29129   2.905   9.776   4.609  3.0375 -3.7763  1.8170
  221MOL0     H29130   2.723   9.918   4.808  0.0464 -0.9208 -0.0362
  221MOL0     H29131   2.693   9.873   4.642  0.6749 -0.5989 -0.8199
  221MOL0     H29132   2.718   9.640   4.831 -1.6674  0.3776  1.6784
  221MOL0     H29133   2.663   9.652   4.668  1.2679 -1.6433  1.2865
  221MOL0     H29134   2.693   9.726   5.034  0.9504  3.0514  2.1017
  221MOL0     H29135   2.593   9.688   5.260 -1.8777  0.5512  1.9666
  221MOL0     H29136   2.163   9.950   5.534 -2.0765  0.7878 -0.8688
  221MOL0     H29137   2.034   9.922   5.744  1.8470 -0.0500 -0.1643
  221MOL0     H29138   1.802   9.623   5.957  0.7434 -1.5191  0.6398
  221MOL0     H29139   1.818   9.534   5.807 -1.7336 -0.0462  0.2287
  221MOL0     H29140   1.666   9.665   5.692 -0.6196 -2.9086  2.2303
  221MOL0     H29141   1.666   9.800   5.803  1.3796  0.7655 -0.2661
  221MOL0     H29142   1.571   9.508   5.871 -0.2885 -0.4806 -1.8562
  221MOL0     H29143   1.460   9.636   5.801  0.7991  1.5512  0.2423
  221MOL0     H29144   1.553   9.600   6.085 -0.5432 -0.6636  0.6522
  221MOL0     H29145   1.549   9.765   6.026  0.1877 -0.0529 -0.3482
  221MOL0     H29146   1.327   9.555   5.996  3.7864  0.1883 -3.1169
  221MOL0     H29147   1.308   9.733   5.981  1.3792 -0.6950 -1.8577
  221MOL0     H29148   1.366   9.757   6.219 -0.5510 -0.4353  0.7242
  221MOL0     H29149   1.368   9.582   6.229 -0.9633 -0.0979 -0.0821
  221MOL0     H29150   1.136   9.762   6.139  1.2306 -0.1776 -1.2095
  221MOL0     H29151   1.125   9.578   6.153  0.2905 -1.4288  1.4685
  221MOL0     H29152   1.010   9.678   6.340  0.9719  4.0315 -0.5914
  221MOL0     H29153   1.166   9.759   6.379  2.2170 -0.0192 -1.4100
  221MOL0     H29154   1.951   9.516   5.645  2.7350 -1.6205  0.8346
  221MOL0     H29155   2.078   9.539   5.437  0.0706 -0.2660  0.8457
  221MOL0     H29156   2.199   9.723   5.113 -0.8925 -0.7846  0.2734
  221MOL0     H29157   2.286   9.729   4.874 -2.0304 -1.4585  1.2869
  221MOL0     H29158   4.509  10.118   4.757 -2.5001 -1.0412  0.1685
  221MOL0     H29159   4.725  10.085   4.691 -1.1683 -1.6694  0.3015
  221MOL0     H29160   5.168  10.287   4.542  1.3467 -1.2439  0.5370
  221MOL0     H29161   5.380  10.203   4.452  0.0202 -1.8251  1.4471
  221MOL0     H29162   5.465   9.904   4.124  1.2418 -4.5618  0.7324
  221MOL0     H29163   5.366   9.848   4.257  0.1939 -0.7737 -0.8210
  221MOL0     H29164   5.573   9.767   4.307  3.1248 -0.7135 -2.0827
  221MOL0     H29165   5.667   9.908   4.242 -0.7890  1.2971 -0.2686
  221MOL0     H29166   5.499   9.910   4.499  1.3349 -1.4298  1.8488
  221MOL0     H29167   5.594  10.042   4.435  0.7397 -0.9525 -1.0641
  221MOL0     H29168   5.735   9.782   4.502  0.1947 -0.6406 -2.3630
  221MOL0     H29169   5.800   9.940   4.471  0.9965 -2.2107  1.2543
  221MOL0     H29170   5.693  10.005   4.876  0.6246 -3.0052  1.4355
  221MOL0     H29171   5.197   9.973   4.157  1.5149 -0.9749  0.7737
  221MOL0     H29172   4.968  10.043   4.251  0.2223  0.2407  0.9819
  222MOL0     O29173  11.027   5.111   3.400  0.2688 -0.3738  0.4947
  222MOL0     C29174  11.085   5.016   3.457  0.1854  0.0492 -0.6532
  222MOL0     O29175  11.025   4.932   3.544  0.1997 -0.1812 -0.2892
  222MOL0     C29176  10.888   4.935   3.554  0.1464  0.1631  0.3947
  222MOL0     C29177  10.802   4.903   3.447 -0.5413  0.1656  0.5303
  222MOL0     C29178  10.668   4.897   3.461 -0.1471  0.2756 -0.3963
  222MOL0     C29179  10.605   4.940   3.578 -0.9839 -0.7154  0.5757
  222MOL0     O29180  10.472   4.936   3.586  0.2543  0.5523  0.6576
  222MOL0     C29181  10.417   4.881   3.710  0.3451  0.5098 -0.0874
  222MOL0     C29182  10.271   4.863   3.719  0.5797 -0.2800  0.0271
  222MOL0     C29183  10.222   4.753   3.624  1.0815  0.6477  0.4843
  222MOL0     C29184  10.066   4.745   3.634  0.2266  0.6946  0.6873
  222MOL0     C29185  10.010   4.659   3.756  0.2505  0.2292 -0.3741
  222MOL0     C29186   9.864   4.613   3.733  0.4504  1.0798 -0.6802
  222MOL0     C29187   9.770   4.730   3.695 -0.2772 -0.3948  0.6861
  222MOL0     C29188   9.623   4.692   3.678 -0.2395  0.6985  0.3585
  222MOL0     N29189   9.536   4.801   3.620  0.3452  0.0477 -0.8578
  222MOL0     C29190   9.522   4.929   3.665  0.0213  0.2255 -0.2820
  222MOL0     C29191   9.435   4.996   3.582 -0.1327 -0.5305 -0.3805
  222MOL0     C29192   9.420   5.147   3.576  0.0815  0.1135  0.2285
  222MOL0     C29193   9.289   5.194   3.630  0.3305 -0.7913  0.4193
  222MOL0     C29194   9.271   5.186   3.775 -0.0173 -1.0944 -0.4621
  222MOL0     C29195   9.133   5.238   3.820  1.0388  0.7432  0.1540
  222MOL0     O29196   9.115   5.370   3.769 -0.1474  0.2352 -0.3942
  222MOL0     C29197   9.003   5.453   3.797  0.5910  0.3491 -0.3460
  222MOL0     C29198   9.019   5.588   3.769 -0.2150 -0.5997  0.0711
  222MOL0     C29199   8.915   5.670   3.812  0.6079  0.1508  0.1135
  222MOL0     C29200   8.791   5.626   3.863 -0.7365  0.5288  0.3969
  222MOL0     C29201   8.679   5.710   3.890  0.7124  0.0707  0.2710
  222MOL0     O29202   8.564   5.652   3.932  0.2650 -0.3004  0.0229
  222MOL0     C29203   8.457   5.726   3.970 -0.0308 -0.5368  0.2630
  222MOL0     C29204   8.331   5.667   3.943 -0.0916 -0.0138 -0.4089
  222MOL0     C29205   8.209   5.717   3.982 -0.3402 -0.2116  0.4100
  222MOL0     C29206   8.209   5.833   4.052  0.0304  0.7805 -0.5874
  222MOL0     O29207   8.091   5.892   4.093  0.1800  0.1377 -0.7765
  222MOL0     C29208   8.085   5.972   4.209 -0.4525  0.2433  0.1499
  222MOL0     C29209   7.940   6.019   4.210  0.0419 -0.0350  0.2158
  222MOL0     C29210   7.841   5.912   4.243  0.0620  0.1639 -0.6316
  222MOL0     C29211   7.699   5.962   4.212 -0.7654  0.2143  0.7386
  222MOL0     C29212   7.592   5.869   4.270 -0.6896  0.2592  0.1986
  222MOL0     C29213   7.454   5.922   4.258 -0.3442  0.4002 -0.0161
  222MOL0     C29214   7.360   5.826   4.330 -0.7879 -0.4823  0.2004
  222MOL0     C29215   7.220   5.885   4.357 -0.1774  0.2510 -0.5645
  222MOL0    Cl29216   7.104   5.921   4.225  0.2146 -0.1142  0.1993
  222MOL0     C29217   8.330   5.891   4.096 -1.0514 -0.6072 -0.3985
  222MOL0     C29218   8.457   5.841   4.051  0.0379 -0.3058  0.0334
  222MOL0     O29219   8.696   5.834   3.885 -0.3866 -0.5823 -0.3541
  222MOL0     C29220   8.780   5.490   3.890  0.2595  0.3504  0.4454
  222MOL0     C29221   8.890   5.409   3.865 -0.1933 -0.0982  0.0666
  222MOL0     N29222   9.390   4.906   3.483 -0.0516  0.6597  0.1327
  222MOL0     N29223   9.456   4.795   3.506  0.5019 -0.2114  0.3502
  222MOL0     C29224  10.691   4.982   3.686 -0.1612 -0.2512 -0.4586
  222MOL0     C29225  10.835   4.973   3.676  0.4650 -0.4151  0.0480
  222MOL0     C29226  11.225   5.000   3.430 -0.5188 -0.5531  0.2629
  222MOL0     C29227  11.292   4.885   3.465  0.3430 -0.6444  0.7722
  222MOL0     C29228  11.428   4.878   3.457 -0.0514  0.0689  0.3378
  222MOL0     C29229  11.502   4.988   3.411 -0.3812  0.2127 -0.4646
  222MOL0     O29230  11.641   4.958   3.391  0.4580 -0.5129 -0.2476
  222MOL0     C29231  11.718   5.065   3.335 -1.5352  0.4799 -0.3648
  222MOL0     C29232  11.871   5.041   3.359 -0.1696  0.0093  0.6067
  222MOL0     C29233  11.956   5.136   3.282  0.3800  0.4943  0.0237
  222MOL0     C29234  12.098   5.110   3.301  0.2237 -0.7993 -0.1915
  222MOL0     C29235  12.143   4.980   3.248  0.7266 -0.6456  1.0458
  222MOL0     C29236  12.167   4.865   3.218 -1.0182 -0.4734  0.5958
  222MOL0     C29237  11.435   5.106   3.372  0.1056 -0.3872 -0.2021
  222MOL0     C29238  11.296   5.110   3.387 -0.0152  0.3189  0.0365
  222MOL0     H29239  10.846   4.866   3.354 -0.2411  0.8693  0.3810
  222MOL0     H29240  10.612   4.868   3.372 -0.4243 -1.5446  0.3369
  222MOL0     H29241  10.450   4.954   3.785 -0.4006  0.5966  0.1580
  222MOL0     H29242  10.452   4.778   3.721 -2.9521 -1.3451 -4.2661
  222MOL0     H29243  10.217   4.954   3.691 -1.3530 -1.9618 -2.1602
  222MOL0     H29244  10.249   4.843   3.824 -2.1165  0.8175 -0.2425
  222MOL0     H29245  10.267   4.656   3.649 -1.0792 -0.9420 -1.3283
  222MOL0     H29246  10.243   4.774   3.519  3.2904  2.5484  1.2070
  222MOL0     H29247  10.022   4.845   3.628  0.3391  0.6610 -1.5720
  222MOL0     H29248  10.027   4.685   3.552  1.3848 -2.2245  2.1303
  222MOL0     H29249  10.007   4.726   3.842 -1.7625 -1.0279  0.6131
  222MOL0     H29250  10.076   4.573   3.777  2.2366  1.2385 -2.1035
  222MOL0     H29251   9.830   4.569   3.827  2.4512  2.8789  1.0037
  222MOL0     H29252   9.857   4.531   3.661 -1.0551  0.8401 -0.2940
  222MOL0     H29253   9.767   4.791   3.786  0.2929  1.0451 -0.2272
  222MOL0     H29254   9.810   4.785   3.609  0.5657 -2.2523 -0.1645
  222MOL0     H29255   9.578   4.661   3.773 -0.9086  1.6261  0.3580
  222MOL0     H29256   9.625   4.606   3.610 -0.4884  1.0842 -0.1417
  222MOL0     H29257   9.572   4.982   3.745  1.5158  0.6768 -1.4591
  222MOL0     H29258   9.429   5.189   3.475  0.5873 -0.1446  0.1666
  222MOL0     H29259   9.490   5.194   3.645  1.0326 -1.2264  0.1967
  222MOL0     H29260   9.210   5.140   3.577 -0.0654  2.1947 -2.3638
  222MOL0     H29261   9.273   5.298   3.601 -0.9508 -1.1954 -0.3833
  222MOL0     H29262   9.277   5.079   3.797 -3.4816 -1.3869 -0.4715
  222MOL0     H29263   9.347   5.237   3.835 -2.6795  2.0701  0.5170
  222MOL0     H29264   9.120   5.238   3.928 -1.3379  2.0960 -0.0732
  222MOL0     H29265   9.054   5.169   3.788  1.6467 -0.1340  0.5070
  222MOL0     H29266   9.111   5.634   3.735  0.2528  0.8913  3.0607
  222MOL0     H29267   8.919   5.776   3.786 -1.6373  0.3514  0.4161
  222MOL0     H29268   8.348   5.593   3.866  1.9935  2.1025 -2.1287
  222MOL0     H29269   8.119   5.663   3.956  1.4041 -1.3578 -4.2919
  222MOL0     H29270   8.151   6.060   4.217  0.4655 -0.5481  2.0012
  222MOL0     H29271   8.106   5.911   4.297 -0.2017 -0.6198 -0.4992
  222MOL0     H29272   7.935   6.067   4.111  2.0966  2.4323  1.1773
  222MOL0     H29273   7.931   6.104   4.279  0.7371  0.8128 -0.6936
  222MOL0     H29274   7.861   5.895   4.349  0.5595  5.0808  0.3197
  222MOL0     H29275   7.865   5.821   4.187 -1.4577 -0.2030 -0.7125
  222MOL0     H29276   7.684   6.061   4.256 -1.8811  0.9583 -1.1549
  222MOL0     H29277   7.679   5.977   4.105  1.4357  0.2213  0.2739
  222MOL0     H29278   7.611   5.860   4.378 -0.8934  1.2905  0.3275
  222MOL0     H29279   7.603   5.770   4.225 -1.7401  0.7592 -1.2154
  222MOL0     H29280   7.424   5.923   4.153 -0.5604  0.3985  0.0448
  222MOL0     H29281   7.448   6.025   4.291  0.7068  0.8481 -1.1483
  222MOL0     H29282   7.357   5.734   4.272 -1.2970 -0.0541 -0.4776
  222MOL0     H29283   7.400   5.799   4.428  1.3463 -3.5391 -1.3557
  222MOL0     H29284   7.240   5.983   4.400  1.1629 -1.0719  2.1145
  222MOL0     H29285   7.165   5.827   4.432  0.4856 -1.3520 -1.2536
  222MOL0     H29286   8.342   5.975   4.164  3.8284 -0.9285 -0.5020
  222MOL0     H29287   8.555   5.879   4.077  0.1621  1.1018 -2.1650
  222MOL0     H29288   8.686   5.452   3.930  0.6146  0.8493  1.7984
  222MOL0     H29289   8.889   5.304   3.893  1.1712 -0.1562 -0.0668
  222MOL0     H29290  10.649   5.004   3.783 -1.6142  1.0652 -1.3517
  222MOL0     H29291  10.899   5.001   3.759 -0.3401 -1.5020  1.0748
  222MOL0     H29292  11.235   4.795   3.488 -0.2525  0.1732  2.6749
  222MOL0     H29293  11.468   4.783   3.491 -2.1300 -0.6808  0.8295
  222MOL0     H29294  11.701   5.167   3.371  0.4411  0.4936  0.7138
  222MOL0     H29295  11.696   5.062   3.228 -0.4624 -0.1809 -0.5835
  222MOL0     H29296  11.880   5.046   3.468 -0.8682 -2.2798  0.8377
  222MOL0     H29297  11.894   4.939   3.326  0.5610  0.5054 -0.4486
  222MOL0     H29298  11.931   5.237   3.317 -0.1932  0.6827 -0.8956
  222MOL0     H29299  11.936   5.130   3.174 -1.9250  0.3217  0.4123
  222MOL0     H29300  12.155   5.197   3.268 -0.4597  0.6098  2.1128
  222MOL0     H29301  12.123   5.105   3.407  0.2165 -0.3657 -0.1658
  222MOL0     H29302  12.222   4.778   3.186  2.7823  2.1665 -0.7709
  222MOL0     H29303  11.479   5.195   3.328 -0.4310 -0.6150 -1.2178
  222MOL0     H29304  11.238   5.198   3.360  0.7063  0.0874 -2.5202
  223MOL0     O29305   2.304   5.177   9.874  0.0708 -0.1806 -0.1494
  223MOL0     C29306   2.275   5.262   9.786  0.0452  0.1170  0.6243
  223MOL0     O29307   2.155   5.313   9.756  0.2578  0.1215  0.1716
  223MOL0     C29308   2.044   5.273   9.827 -1.0659  0.8762  0.0446
  223MOL0     C29309   2.048   5.286   9.965 -0.1780  0.0210  0.5371
  223MOL0     C29310   1.942   5.252  10.048 -0.0939 -0.0716 -0.4858
  223MOL0     C29311   1.828   5.207   9.991 -0.2760 -0.0643  0.7714
  223MOL0     O29312   1.720   5.187  10.073 -0.1516 -0.0631 -0.1712
  223MOL0     C29313   1.596   5.153  10.019 -0.0015  0.3839  0.4805
  223MOL0     C29314   1.491   5.136  10.139 -0.8972 -0.9113  0.6811
  223MOL0     C29315   1.347   5.158  10.100 -0.0823 -1.1146  0.1600
  223MOL0     C29316   1.307   5.065   9.979 -0.7269 -0.3021 -1.6033
  223MOL0     C29317   1.151   5.079   9.946 -0.2692 -0.1401 -0.0493
  223MOL0     C29318   1.048   5.008  10.034  0.3183  0.6069 -0.5003
  223MOL0     C29319   0.897   5.030   9.991  0.5484  0.0167 -1.0878
  223MOL0     C29320   0.826   4.894   9.997  0.6650 -0.5282 -0.6128
  223MOL0     N29321   0.687   4.896   9.963  0.1186  0.3165 -0.1323
  223MOL0     C29322   0.646   4.838   9.847  0.7732  0.0521  0.1668
  223MOL0     C29323   0.506   4.852   9.854 -0.7015  0.6884  0.2077
  223MOL0     C29324   0.433   4.836   9.725  0.6703  0.1075 -1.0065
  223MOL0     C29325   0.288   4.808   9.762  0.3177  0.1791  0.4729
  223MOL0     C29326   0.204   4.933   9.765  0.3560  0.5150 -0.0014
  223MOL0     C29327   0.049   4.899   9.770 -0.3652 -0.3736  1.2903
  223MOL0     O29328  -0.023   5.027   9.759 -0.2927  0.2357  0.6351
  223MOL0     C29329  -0.145   5.025   9.712  0.3067  0.3347 -0.3360
  223MOL0     C29330  -0.229   4.917   9.703 -0.7680 -0.1172 -0.1435
  223MOL0     C29331  -0.357   4.930   9.646 -0.0944  0.3404 -0.3329
  223MOL0     C29332  -0.401   5.058   9.593 -0.4170 -0.0443 -1.3964
  223MOL0     C29333  -0.527   5.081   9.533 -0.1245 -0.3654 -0.1613
  223MOL0     O29334  -0.597   4.957   9.493  1.1193 -0.4436 -0.5152
  223MOL0     C29335  -0.714   4.962   9.430 -0.3765  0.4252  0.4496
  223MOL0     C29336  -0.838   4.955   9.494 -0.4976  0.1058  0.0537
  223MOL0     C29337  -0.955   4.953   9.413  0.0081  0.4143 -0.4597
  223MOL0     C29338  -0.944   4.968   9.273  0.9193 -0.2005  0.2017
  223MOL0     O29339  -1.043   4.953   9.179 -0.0611 -0.0555  0.3892
  223MOL0     C29340  -1.175   4.950   9.227 -0.4421 -0.3042  0.8970
  223MOL0     C29341  -1.284   4.958   9.122  0.2489 -0.8378  0.3977
  223MOL0     C29342  -1.298   5.090   9.042 -0.8715 -0.2649 -0.0003
  223MOL0     C29343  -1.433   5.109   8.987  0.0083  0.3369  0.3690
  223MOL0     C29344  -1.454   5.234   8.899  0.3659  0.7919 -1.0030
  223MOL0     C29345  -1.552   5.193   8.783  0.3392 -0.2226  0.1988
  223MOL0     C29346  -1.628   5.303   8.718 -0.2183 -0.9938 -0.3642
  223MOL0     C29347  -1.698   5.405   8.801 -0.1303  1.1800  0.0283
  223MOL0    Cl29348  -1.830   5.336   8.908 -0.2377  0.2364  0.0800
  223MOL0     C29349  -0.813   4.979   9.219  0.2538 -1.0165 -0.2316
  223MOL0     C29350  -0.703   4.972   9.298 -0.4309 -0.5498  0.2004
  223MOL0     O29351  -0.562   5.192   9.498  0.9406  0.8496 -0.3438
  223MOL0     C29352  -0.320   5.167   9.614  0.2546 -0.7204 -0.1240
  223MOL0     C29353  -0.204   5.150   9.686  0.0295  0.4028  0.1361
  223MOL0     N29354   0.471   4.899   9.973 -0.1275 -0.5442  0.1556
  223MOL0     N29355   0.577   4.933  10.037 -0.4663 -0.8343 -0.3357
  223MOL0     C29356   1.825   5.192   9.854 -0.3589 -0.9653 -0.6507
  223MOL0     C29357   1.929   5.229   9.777 -0.2071  0.6180 -0.3209
  223MOL0     C29358   2.389   5.294   9.698 -0.2618  0.4707  0.6227
  223MOL0     C29359   2.498   5.211   9.668 -0.1739  0.4719 -0.4878
  223MOL0     C29360   2.613   5.257   9.610 -0.2435 -0.2039 -0.0860
  223MOL0     C29361   2.621   5.389   9.559 -0.2116  0.3663 -0.8343
  223MOL0     O29362   2.729   5.436   9.495 -0.4304 -0.0147 -0.1556
  223MOL0     C29363   2.854   5.366   9.460  0.8896 -0.2061  0.6987
  223MOL0     C29364   2.947   5.466   9.397  0.2030 -1.1142  0.9461
  223MOL0     C29365   3.097   5.417   9.404  0.6023  0.3850 -0.0123
  223MOL0     C29366   3.184   5.511   9.321  0.0915 -0.4228 -0.5041
  223MOL0     C29367   3.315   5.511   9.392 -0.4735 -0.2200 -0.0134
  223MOL0     C29368   3.422   5.484   9.445 -0.2370 -0.5930 -0.5935
  223MOL0     C29369   2.515   5.475   9.586  0.7339  0.1675  0.3217
  223MOL0     C29370   2.391   5.429   9.645 -0.4411  0.5175  0.8674
  223MOL0     H29371   2.133   5.336  10.010  0.9456 -3.6059  2.9134
  223MOL0     H29372   1.930   5.286  10.150  1.1726 -0.0576 -0.3299
  223MOL0     H29373   1.611   5.063   9.958  1.4185  1.9242 -1.5844
  223MOL0     H29374   1.547   5.226   9.954  0.4284 -1.3866 -1.9541
  223MOL0     H29375   1.515   5.211  10.215  1.2207 -1.9058  1.0539
  223MOL0     H29376   1.501   5.036  10.183 -4.1546 -1.4067  0.5661
  223MOL0     H29377   1.339   5.257  10.054  0.1524 -2.5407 -3.3370
  223MOL0     H29378   1.275   5.153  10.181 -0.5762 -1.8783 -0.3155
  223MOL0     H29379   1.371   5.078   9.891  0.5914 -1.9622 -0.9526
  223MOL0     H29380   1.316   4.961  10.009  0.2498  0.1041 -0.4019
  223MOL0     H29381   1.131   5.061   9.840  0.2955  0.8349 -0.3348
  223MOL0     H29382   1.131   5.185   9.964 -1.9151 -0.6203  1.1458
  223MOL0     H29383   1.069   5.028  10.140 -0.9393 -0.2328 -0.0703
  223MOL0     H29384   1.075   4.903  10.020  2.6587  1.3287 -2.0694
  223MOL0     H29385   0.851   5.097  10.064 -2.2575 -0.8822 -1.8979
  223MOL0     H29386   0.889   5.058   9.885 -0.7892  0.8996 -0.7727
  223MOL0     H29387   0.826   4.862  10.101 -0.7977  3.1546  0.6813
  223MOL0     H29388   0.888   4.820   9.946  4.1749  0.1077  2.2932
  223MOL0     H29389   0.708   4.805   9.764 -1.8619 -2.1453 -1.0992
  223MOL0     H29390   0.464   4.752   9.662 -0.8322 -1.3761  0.1676
  223MOL0     H29391   0.445   4.934   9.678  0.8128 -0.0073 -1.2141
  223MOL0     H29392   0.289   4.755   9.858  0.2095 -1.3084 -0.3264
  223MOL0     H29393   0.245   4.742   9.687 -0.6071  0.4698  0.7391
  223MOL0     H29394   0.221   4.984   9.860  1.3543 -2.8467  1.7819
  223MOL0     H29395   0.220   4.994   9.675 -0.5123 -1.3760 -1.4906
  223MOL0     H29396   0.017   4.857   9.866 -0.6967  1.4928  2.0418
  223MOL0     H29397   0.032   4.835   9.683  4.5414 -1.7872  1.0774
  223MOL0     H29398  -0.194   4.817   9.725  0.6777 -0.3199 -2.8439
  223MOL0     H29399  -0.423   4.847   9.623 -1.2538  0.5252  1.9902
  223MOL0     H29400  -0.845   4.948   9.602 -1.2588 -0.4544 -0.0162
  223MOL0     H29401  -1.052   4.932   9.457  0.6016 -4.4000 -0.8909
  223MOL0     H29402  -1.190   5.030   9.300 -0.6107  0.5013 -0.0014
  223MOL0     H29403  -1.179   4.856   9.282 -0.3306  0.5854  2.5092
  223MOL0     H29404  -1.378   4.949   9.176  0.8596  0.6388  1.7799
  223MOL0     H29405  -1.272   4.873   9.054  1.5742 -0.5412  0.2449
  223MOL0     H29406  -1.223   5.102   8.964  0.4505  2.7548  1.5490
  223MOL0     H29407  -1.281   5.177   9.106  0.3374  0.8063 -1.7204
  223MOL0     H29408  -1.455   5.019   8.930 -1.7867  1.0770 -0.1644
  223MOL0     H29409  -1.508   5.107   9.067  0.2784 -0.0873  0.6180
  223MOL0     H29410  -1.356   5.260   8.858 -0.5845  3.0582 -2.0473
  223MOL0     H29411  -1.488   5.320   8.958  1.3998  0.2657  0.4085
  223MOL0     H29412  -1.636   5.130   8.813 -1.6542  1.7032 -1.0411
  223MOL0     H29413  -1.501   5.140   8.702 -0.2100  2.5202 -2.0916
  223MOL0     H29414  -1.561   5.353   8.647  1.6617 -1.4380  1.0059
  223MOL0     H29415  -1.707   5.256   8.660 -0.5723 -0.8407 -0.0167
  223MOL0     H29416  -1.758   5.468   8.735 -1.3697 -3.5932 -4.0403
  223MOL0     H29417  -1.624   5.464   8.855  0.8796 -2.3234  2.9560
  223MOL0     H29418  -0.808   4.992   9.112 -0.2017  1.8040  0.0175
  223MOL0     H29419  -0.612   4.998   9.244 -1.8174  0.1860 -1.9209
  223MOL0     H29420  -0.357   5.263   9.579 -1.5763 -1.6609 -0.9417
  223MOL0     H29421  -0.144   5.239   9.702  1.2983 -0.2615 -0.7978
  223MOL0     H29422   1.735   5.157   9.806 -0.1986 -2.3754  0.0138
  223MOL0     H29423   1.924   5.225   9.669  1.3843  1.5148 -0.4610
  223MOL0     H29424   2.503   5.107   9.699  2.3663  0.4321 -0.7931
  223MOL0     H29425   2.698   5.190   9.596 -0.3296 -0.4604  0.5862
  223MOL0     H29426   2.828   5.287   9.389  0.9508 -0.0062  0.4554
  223MOL0     H29427   2.897   5.326   9.553 -1.5300 -2.3737  1.0131
  223MOL0     H29428   2.922   5.484   9.293  2.6836 -1.7917  0.1544
  223MOL0     H29429   2.932   5.563   9.445 -0.4656  0.6250 -2.4844
  223MOL0     H29430   3.106   5.314   9.370  0.7754 -0.2611  1.8617
  223MOL0     H29431   3.128   5.413   9.509 -0.0211 -0.4051  0.1534
  223MOL0     H29432   3.206   5.471   9.221  0.8512 -0.2891 -0.3985
  223MOL0     H29433   3.136   5.608   9.306 -3.6182 -2.0151 -0.1369
  223MOL0     H29434   3.521   5.472   9.483 -0.0686  1.9045 -0.0242
  223MOL0     H29435   2.532   5.577   9.551  0.2178  0.2967  0.4336
  223MOL0     H29436   2.312   5.501   9.664 -0.3238  0.6122  0.9977
  224MOL0     O29437   3.881   4.997  10.814  0.1455 -0.3896 -0.2851
  224MOL0     C29438   3.847   5.114  10.830  0.8865  0.1232  0.0540
  224MOL0     O29439   3.717   5.153  10.810 -0.0975 -0.3969  0.0790
  224MOL0     C29440   3.630   5.060  10.758 -0.5383  0.4421  0.3343
  224MOL0     C29441   3.609   5.060  10.622  1.2463 -0.3355  0.2108
  224MOL0     C29442   3.528   4.955  10.566 -0.1431  0.5894  0.7969
  224MOL0     C29443   3.477   4.841  10.639 -0.3525 -0.3818 -1.6102
  224MOL0     O29444   3.397   4.742  10.590  0.2753 -0.3028 -0.4628
  224MOL0     C29445   3.347   4.766  10.462  0.6703 -0.3182 -0.7321
  224MOL0     C29446   3.240   4.661  10.434 -0.8786  0.3112  0.3345
  224MOL0     C29447   3.116   4.681  10.521  0.3475  0.2259 -0.0625
  224MOL0     C29448   3.008   4.570  10.500 -0.2758  0.4075 -1.1017
  224MOL0     C29449   2.915   4.613  10.387  0.5382  0.2863  0.7032
  224MOL0     C29450   2.800   4.515  10.367 -0.1434 -0.7146 -0.7564
  224MOL0     C29451   2.694   4.582  10.278  0.0864 -0.1128  0.5199
  224MOL0     C29452   2.557   4.530  10.301  0.3064 -0.0879 -0.2279
  224MOL0     N29453   2.488   4.612  10.404 -0.4189  0.5255  0.3006
  224MOL0     C29454   2.427   4.726  10.380 -0.3077 -0.6346  0.3894
  224MOL0     C29455   2.365   4.757  10.492  0.1706 -0.4985  0.5968
  224MOL0     C29456   2.271   4.874  10.509  0.7786 -0.2961 -0.3749
  224MOL0     C29457   2.164   4.849  10.617 -0.5727 -0.1381 -0.9575
  224MOL0     C29458   2.084   4.975  10.618  0.3574  0.4503 -0.0095
  224MOL0     C29459   2.011   4.985  10.749  0.8277 -0.0521  0.7931
  224MOL0     O29460   1.937   4.862  10.775 -1.1542 -0.0153 -0.2817
  224MOL0     C29461   1.806   4.867  10.790 -0.0612 -0.3420 -0.6155
  224MOL0     C29462   1.732   4.779  10.719  0.3972  1.3608  0.1310
  224MOL0     C29463   1.594   4.764  10.745  0.1162  0.2498  1.4775
  224MOL0     C29464   1.535   4.840  10.850  0.1838  0.1932 -0.0482
  224MOL0     C29465   1.387   4.847  10.878 -0.7326  0.3809 -0.4018
  224MOL0     O29466   1.314   4.783  10.782  0.4196  0.4033 -0.3733
  224MOL0     C29467   1.180   4.753  10.796  0.3086  0.8016 -0.1749
  224MOL0     C29468   1.122   4.688  10.685  0.1142 -0.1211 -0.7035
  224MOL0     C29469   0.982   4.670  10.675  0.4371  0.3800 -0.1493
  224MOL0     C29470   0.895   4.717  10.773 -0.0542 -0.4945 -0.3207
  224MOL0     O29471   0.758   4.725  10.767  0.6737 -0.0110 -0.4647
  224MOL0     C29472   0.683   4.628  10.688 -0.4752  0.4067  0.5261
  224MOL0     C29473   0.549   4.611  10.763  0.3542  0.3644 -0.6161
  224MOL0     C29474   0.456   4.736  10.727 -0.3378  0.2264 -0.5860
  224MOL0     C29475   0.334   4.737  10.819 -0.1567 -0.0931 -0.3116
  224MOL0     C29476   0.239   4.851  10.773  0.2925  0.2851 -0.7737
  224MOL0     C29477   0.095   4.838  10.830 -0.3565 -0.4620 -0.7174
  224MOL0     C29478  -0.011   4.954  10.790 -0.1339  0.2516  0.3148
  224MOL0     C29479  -0.146   4.934  10.858  0.1274  0.7804 -0.0749
  224MOL0    Cl29480  -0.227   4.775  10.817 -0.4669 -0.3775 -0.2414
  224MOL0     C29481   0.953   4.782  10.880  0.9274 -0.0081 -0.2150
  224MOL0     C29482   1.089   4.799  10.897 -0.3581  0.1349 -0.5224
  224MOL0     O29483   1.345   4.912  10.971 -0.6113 -0.1524 -0.5498
  224MOL0     C29484   1.619   4.915  10.939  0.1719  0.0250 -1.1496
  224MOL0     C29485   1.752   4.935  10.903 -0.1043 -0.0502  0.0524
  224MOL0     N29486   2.401   4.666  10.595 -0.4811  0.1682  0.2284
  224MOL0     N29487   2.471   4.577  10.534  0.7031 -0.1137 -0.2976
  224MOL0     C29488   3.500   4.845  10.781  0.3051 -0.1415  0.1204
  224MOL0     C29489   3.573   4.951  10.837 -0.0101 -0.2670 -0.5107
  224MOL0     C29490   3.940   5.214  10.880 -0.2364 -0.0529  0.6704
  224MOL0     C29491   4.062   5.182  10.941 -1.2854 -0.0238  0.0900
  224MOL0     C29492   4.152   5.288  10.983  0.1678 -0.4406  0.7843
  224MOL0     C29493   4.124   5.421  10.956  0.4907  0.1535  0.5907
  224MOL0     O29494   4.214   5.519  10.981  0.0258 -0.8371 -0.9489
  224MOL0     C29495   4.249   5.609  10.870  0.6057  0.1980 -0.1247
  224MOL0     C29496   4.379   5.681  10.889 -0.5921  0.3319  0.1029
  224MOL0     C29497   4.378   5.769  11.016 -0.5315 -0.6225 -0.9398
  224MOL0     C29498   4.493   5.867  11.044  0.2205 -0.8139  0.4861
  224MOL0     C29499   4.606   5.786  11.104  0.0325 -0.5665  0.6606
  224MOL0     C29500   4.685   5.724  11.164 -0.0509  0.0861 -0.1127
  224MOL0     C29501   4.002   5.448  10.893  0.4232 -0.3831 -0.4659
  224MOL0     C29502   3.910   5.349  10.854 -0.4226 -0.0523  0.0479
  224MOL0     H29503   3.651   5.142  10.564 -0.6035  1.3615  1.1194
  224MOL0     H29504   3.519   4.964  10.458 -2.5903  1.4874  1.0238
  224MOL0     H29505   3.431   4.770  10.392  0.8242  1.2780 -0.5059
  224MOL0     H29506   3.308   4.868  10.456  0.9967 -0.2691 -2.9725
  224MOL0     H29507   3.290   4.566  10.454 -0.9831 -0.3360 -2.1747
  224MOL0     H29508   3.216   4.654  10.328 -2.1576 -2.8599  0.7302
  224MOL0     H29509   3.078   4.783  10.526 -0.3046  0.1757 -2.6319
  224MOL0     H29510   3.154   4.660  10.621  1.5173 -1.4768 -0.8042
  224MOL0     H29511   3.052   4.473  10.474 -0.7499 -0.0118 -0.3713
  224MOL0     H29512   2.960   4.545  10.595  1.6248 -0.9889 -0.4481
  224MOL0     H29513   2.971   4.637  10.297 -0.7019  4.0240  0.7621
  224MOL0     H29514   2.873   4.702  10.435 -1.5339  0.2838 -0.9574
  224MOL0     H29515   2.752   4.494  10.463 -1.4290 -0.1139 -1.2371
  224MOL0     H29516   2.841   4.423  10.325  2.6454 -0.6647  1.5340
  224MOL0     H29517   2.696   4.691  10.268 -0.6697 -0.0755  0.7085
  224MOL0     H29518   2.720   4.547  10.177 -2.9135 -0.8493 -0.1074
  224MOL0     H29519   2.563   4.427  10.336  0.0427  0.3393  1.1470
  224MOL0     H29520   2.505   4.532  10.205 -1.2265  0.4008  0.5809
  224MOL0     H29521   2.406   4.777  10.286 -0.9807  1.2092  1.4802
  224MOL0     H29522   2.229   4.895  10.410 -2.5973 -1.5301  0.6830
  224MOL0     H29523   2.338   4.955  10.539  1.5936 -0.3345 -1.9385
  224MOL0     H29524   2.207   4.828  10.716 -1.5887  0.3168 -0.3983
  224MOL0     H29525   2.104   4.760  10.595  0.4714 -0.9357 -0.6579
  224MOL0     H29526   2.131   5.073  10.607  0.1374  0.3126 -2.8693
  224MOL0     H29527   2.017   4.971  10.532 -1.2620 -0.9076  1.2481
  224MOL0     H29528   1.942   5.069  10.743  1.6646  0.5365 -2.3646
  224MOL0     H29529   2.074   4.997  10.838 -0.9569  0.9324  1.9663
  224MOL0     H29530   1.778   4.705  10.654 -0.6856 -0.2309  1.0975
  224MOL0     H29531   1.545   4.699  10.674  1.2263  1.2902 -0.3093
  224MOL0     H29532   1.195   4.646  10.617  2.0588  0.7090  0.7795
  224MOL0     H29533   0.942   4.635  10.580  2.8163  1.8082 -1.7959
  224MOL0     H29534   0.727   4.527  10.692 -3.2180 -0.8822  0.5997
  224MOL0     H29535   0.683   4.655  10.582  3.8424 -1.4605 -0.1516
  224MOL0     H29536   0.568   4.599  10.870  1.6863 -0.8270 -0.9503
  224MOL0     H29537   0.517   4.512  10.729 -0.1962  0.2504  0.2113
  224MOL0     H29538   0.418   4.731  10.625 -2.7243  2.8454  0.0281
  224MOL0     H29539   0.512   4.830  10.729 -0.1397  0.1840 -2.6237
  224MOL0     H29540   0.289   4.638  10.810 -2.2829  0.7112  0.8024
  224MOL0     H29541   0.372   4.756  10.920  2.3392 -0.5759 -1.0857
  224MOL0     H29542   0.238   4.860  10.664  3.1573  4.6385 -0.7005
  224MOL0     H29543   0.277   4.948  10.807 -1.3340  1.3122 -1.7354
  224MOL0     H29544   0.091   4.834  10.940  2.3298 -0.5871 -0.5646
  224MOL0     H29545   0.056   4.745  10.788  0.3427 -1.6366  1.1050
  224MOL0     H29546   0.034   5.050  10.818  1.6829 -0.4043 -0.2168
  224MOL0     H29547  -0.031   4.945  10.683 -1.0052 -3.1214  0.6541
  224MOL0     H29548  -0.213   5.011  10.818  0.4134  1.2129  0.2633
  224MOL0     H29549  -0.137   4.949  10.966  1.4810  0.3297 -0.1006
  224MOL0     H29550   0.879   4.817  10.952  1.2925 -0.8573  0.5897
  224MOL0     H29551   1.123   4.854  10.984 -0.1044 -2.6086  1.2415
  224MOL0     H29552   1.576   4.977  11.018  0.1265 -1.7778  0.3140
  224MOL0     H29553   1.825   4.986  10.966 -1.6547  1.3802  0.7844
  224MOL0     H29554   3.473   4.764  10.848  0.3007 -0.4685 -0.2746
  224MOL0     H29555   3.583   4.953  10.946  4.0514  1.3123 -0.7231
  224MOL0     H29556   4.101   5.083  10.959 -0.6628  0.1264 -0.3826
  224MOL0     H29557   4.247   5.271  11.034 -0.5246 -0.0699  2.2328
  224MOL0     H29558   4.174   5.682  10.839  1.5840  0.1530 -2.9665
  224MOL0     H29559   4.255   5.543  10.783  2.2279 -0.2210  0.2603
  224MOL0     H29560   4.458   5.606  10.903  0.1568  1.4620  2.6652
  224MOL0     H29561   4.393   5.749  10.805 -1.5268  1.0327  0.4978
  224MOL0     H29562   4.367   5.710  11.108 -0.1053 -0.1444 -0.5764
  224MOL0     H29563   4.283   5.824  11.006  0.2231  0.3647 -3.3106
  224MOL0     H29564   4.529   5.919  10.954 -1.4569  2.3481  1.4979
  224MOL0     H29565   4.461   5.947  11.111 -2.8441 -1.0047 -0.6224
  224MOL0     H29566   4.747   5.675  11.236 -1.1670 -3.0155 -1.1263
  224MOL0     H29567   3.972   5.550  10.871  0.9881  0.6639  3.0565
  224MOL0     H29568   3.818   5.375  10.803 -0.9409 -1.5623  0.1559
  225MOL0     O29569   3.768   7.054   1.548 -0.3125 -0.2870  0.2877
  225MOL0     C29570   3.775   7.146   1.634  0.8987  0.3314  0.5292
  225MOL0     O29571   3.674   7.173   1.721 -0.2924 -0.1840 -0.7387
  225MOL0     C29572   3.547   7.135   1.688  0.0225 -0.0199 -0.7709
  225MOL0     C29573   3.503   7.001   1.690 -0.2400  0.6183  0.1812
  225MOL0     C29574   3.370   6.979   1.655  0.2785  0.9452 -0.0631
  225MOL0     C29575   3.281   7.080   1.623  0.3611  0.2650  0.4066
  225MOL0     O29576   3.156   7.027   1.613  0.3212  0.0844  0.0154
  225MOL0     C29577   3.052   7.116   1.671 -0.5909  0.2679 -0.2024
  225MOL0     C29578   2.925   7.036   1.656 -0.2304 -0.1636 -0.1977
  225MOL0     C29579   2.906   6.923   1.772  0.2942 -0.4214  0.6886
  225MOL0     C29580   2.791   6.826   1.734  0.3244  0.7388  0.2146
  225MOL0     C29581   2.768   6.718   1.845  0.2432  0.3238 -0.2925
  225MOL0     C29582   2.727   6.580   1.790 -0.1224 -0.3408 -0.6630
  225MOL0     C29583   2.604   6.580   1.701  0.0644  0.3681 -0.3760
  225MOL0     C29584   2.607   6.457   1.616  0.6994  0.7937 -0.1331
  225MOL0     N29585   2.484   6.449   1.537  0.2742 -0.2854  0.0092
  225MOL0     C29586   2.442   6.343   1.457 -0.4008 -1.0010 -0.5902
  225MOL0     C29587   2.329   6.383   1.395 -0.7957 -0.3543  0.4404
  225MOL0     C29588   2.248   6.298   1.296 -0.3057  0.3680 -0.2815
  225MOL0     C29589   2.123   6.238   1.364  0.0730 -0.3474  0.1705
  225MOL0     C29590   2.058   6.133   1.279  0.8514 -0.5257 -0.1994
  225MOL0     C29591   1.934   6.073   1.344  0.2807 -0.5503 -0.5461
  225MOL0     O29592   1.833   6.175   1.330  0.0307  0.1941  0.4581
  225MOL0     C29593   1.718   6.149   1.405  0.7290  0.5302 -0.0046
  225MOL0     C29594   1.703   6.084   1.527 -0.3900  0.0388 -0.2782
  225MOL0     C29595   1.582   6.081   1.599 -0.9244  0.0807 -0.5881
  225MOL0     C29596   1.473   6.161   1.550 -0.2346  0.0630  0.2138
  225MOL0     C29597   1.356   6.182   1.633  0.2857  0.3913 -0.0783
  225MOL0     O29598   1.247   6.249   1.579  0.8441 -0.0855  0.5817
  225MOL0     C29599   1.115   6.262   1.633  0.1991  1.1627  0.0675
  225MOL0     C29600   1.051   6.157   1.707 -0.0629  0.1665 -0.5841
  225MOL0     C29601   0.919   6.165   1.746  0.1611 -0.0964 -0.2799
  225MOL0     C29602   0.846   6.285   1.720  0.7400  1.7618  0.9693
  225MOL0     O29603   0.712   6.302   1.765  0.2927  0.4611  0.5796
  225MOL0     C29604   0.638   6.189   1.807 -0.2422  0.0824  0.5258
  225MOL0     C29605   0.495   6.237   1.836  0.4611  0.6243  0.1474
  225MOL0     C29606   0.480   6.340   1.951  0.1835 -0.2246  0.3830
  225MOL0     C29607   0.330   6.359   1.969 -0.3429  0.1255 -0.0623
  225MOL0     C29608   0.296   6.436   2.094  0.0400 -0.0389  0.2153
  225MOL0     C29609   0.143   6.461   2.094 -0.2363 -1.0076 -0.9182
  225MOL0     C29610   0.099   6.531   2.228 -0.5198 -0.1108  0.2463
  225MOL0     C29611  -0.044   6.577   2.209 -0.5965  0.2936  0.1457
  225MOL0    Cl29612  -0.160   6.438   2.179  0.2325 -0.7755 -0.1697
  225MOL0     C29613   0.907   6.378   1.641 -0.7666  0.0524  0.5699
  225MOL0     C29614   1.038   6.371   1.603  0.4922  0.3898  1.4791
  225MOL0     O29615   1.360   6.141   1.751  0.4630 -0.0800 -0.0986
  225MOL0     C29616   1.485   6.220   1.427 -0.3477 -0.4984 -0.5532
  225MOL0     C29617   1.606   6.215   1.354 -0.4926 -0.2664 -0.4764
  225MOL0     N29618   2.291   6.502   1.444 -0.9190 -0.4248  0.5593
  225MOL0     N29619   2.386   6.544   1.523  0.1898 -0.2711  0.5333
  225MOL0     C29620   3.323   7.211   1.625 -0.2914 -0.2613 -0.1358
  225MOL0     C29621   3.452   7.234   1.659 -0.0072  0.0370  0.7702
  225MOL0     C29622   3.905   7.219   1.650 -0.3838 -0.5384 -0.3222
  225MOL0     C29623   4.018   7.193   1.569  0.0205 -0.2336 -0.1035
  225MOL0     C29624   4.151   7.249   1.594  0.4051  0.2098  1.3856
  225MOL0     C29625   4.170   7.333   1.711  0.5788  0.4264  0.4035
  225MOL0     O29626   4.289   7.401   1.732 -0.4581 -0.3774  0.0492
  225MOL0     C29627   4.400   7.379   1.647  0.2626  0.6543 -0.1644
  225MOL0     C29628   4.468   7.248   1.665 -0.0063  0.0657  0.2503
  225MOL0     C29629   4.574   7.218   1.552  0.1067  0.0614  0.4349
  225MOL0     C29630   4.591   7.069   1.529 -0.3069  0.3626  0.6586
  225MOL0     C29631   4.470   7.018   1.459 -0.1819 -0.0665 -0.0559
  225MOL0     C29632   4.367   6.974   1.405 -0.0998 -0.4003 -0.2906
  225MOL0     C29633   4.050   7.358   1.794 -0.7465  0.2038 -0.5646
  225MOL0     C29634   3.924   7.305   1.768 -0.1694 -0.1323 -0.4337
  225MOL0     H29635   3.578   6.930   1.722  0.0801  0.1890 -1.4303
  225MOL0     H29636   3.337   6.876   1.652  0.2095  0.9649 -0.0039
  225MOL0     H29637   3.047   7.208   1.612 -5.1168  0.1277 -0.4031
  225MOL0     H29638   3.068   7.151   1.773 -4.5790  2.5767 -0.1847
  225MOL0     H29639   2.931   6.984   1.560  1.2080 -3.0410  1.3214
  225MOL0     H29640   2.839   7.103   1.650 -0.6458 -0.6293  0.3307
  225MOL0     H29641   2.874   6.974   1.863  0.1266  2.4058 -0.8453
  225MOL0     H29642   2.999   6.868   1.789  1.7108  2.2934  2.6207
  225MOL0     H29643   2.697   6.881   1.724  0.5874  1.0182 -0.7407
  225MOL0     H29644   2.816   6.781   1.637 -0.7308  0.3665  0.0960
  225MOL0     H29645   2.689   6.751   1.913  0.4031  0.8984 -0.3817
  225MOL0     H29646   2.865   6.702   1.892  0.7152 -1.6580 -1.7649
  225MOL0     H29647   2.711   6.509   1.872  0.4444  2.2744  1.8703
  225MOL0     H29648   2.807   6.542   1.726 -1.1939 -1.8566 -1.1619
  225MOL0     H29649   2.528   6.584   1.779 -0.5345 -1.0672 -0.8700
  225MOL0     H29650   2.593   6.672   1.643 -3.9796  0.9397  1.0109
  225MOL0     H29651   2.604   6.367   1.678  0.6923  1.2945  0.6041
  225MOL0     H29652   2.697   6.462   1.554 -0.4558 -0.1837 -1.9844
  225MOL0     H29653   2.476   6.241   1.444  1.2127 -0.4867 -0.6573
  225MOL0     H29654   2.316   6.220   1.261  0.3865 -0.9001  3.3976
  225MOL0     H29655   2.218   6.354   1.207 -3.6263 -0.5429  0.1367
  225MOL0     H29656   2.049   6.319   1.366 -0.8478 -1.0041 -2.6718
  225MOL0     H29657   2.139   6.194   1.463  3.3075  1.9318  0.8248
  225MOL0     H29658   2.036   6.184   1.185 -2.1746 -2.1776 -0.5313
  225MOL0     H29659   2.131   6.055   1.255  2.5400  1.1752 -0.7893
  225MOL0     H29660   1.962   6.038   1.444  0.9032 -0.4478 -0.6759
  225MOL0     H29661   1.886   5.991   1.290 -2.1252  1.1956 -1.2328
  225MOL0     H29662   1.784   6.032   1.577 -0.2149 -0.2132 -0.8196
  225MOL0     H29663   1.565   6.024   1.689 -2.6203  1.6760  0.1818
  225MOL0     H29664   1.105   6.066   1.733  1.1943  1.3158  1.0087
  225MOL0     H29665   0.869   6.076   1.782 -3.4506  2.2883  1.1948
  225MOL0     H29666   0.681   6.140   1.895 -3.1356  2.1047  3.3066
  225MOL0     H29667   0.635   6.121   1.721 -3.2213  2.3036 -1.3628
  225MOL0     H29668   0.444   6.145   1.864  1.9502 -0.2018  0.2424
  225MOL0     H29669   0.447   6.272   1.744  3.1338  0.4354 -1.4314
  225MOL0     H29670   0.531   6.433   1.927  0.6208 -0.6007 -0.1636
  225MOL0     H29671   0.527   6.303   2.042  1.5227 -0.9355 -0.5694
  225MOL0     H29672   0.301   6.405   1.874  0.6853 -1.5411 -1.2319
  225MOL0     H29673   0.291   6.258   1.984 -0.6516  0.5158  2.1707
  225MOL0     H29674   0.347   6.532   2.107  0.3734 -0.2315  0.3311
  225MOL0     H29675   0.332   6.383   2.182 -1.1537  2.9194  2.6956
  225MOL0     H29676   0.087   6.367   2.089  0.5620 -1.4874 -1.0211
  225MOL0     H29677   0.124   6.524   2.007 -0.2868 -0.1094 -0.2714
  225MOL0     H29678   0.105   6.452   2.303 -0.3097 -1.2015 -0.8910
  225MOL0     H29679   0.176   6.606   2.248 -0.8839  0.2498  0.3057
  225MOL0     H29680  -0.037   6.646   2.124  0.0909  1.9548  1.4950
  225MOL0     H29681  -0.076   6.639   2.293  0.2949 -0.7798  1.3221
  225MOL0     H29682   0.852   6.470   1.622  0.2282  0.2567 -1.7293
  225MOL0     H29683   1.070   6.457   1.545 -4.3415  0.9940 -0.7686
  225MOL0     H29684   1.408   6.286   1.387  0.4305  1.9337  1.6910
  225MOL0     H29685   1.612   6.260   1.256  3.8993 -2.1300 -1.2888
  225MOL0     H29686   3.254   7.293   1.608 -1.1313 -0.7624  0.7542
  225MOL0     H29687   3.481   7.339   1.663 -0.5605  0.1792  4.4132
  225MOL0     H29688   4.012   7.127   1.483 -0.4255  0.6126 -0.7389
  225MOL0     H29689   4.233   7.223   1.528 -1.3357  0.0088 -0.8302
  225MOL0     H29690   4.475   7.456   1.668  0.6843 -0.1335  1.3516
  225MOL0     H29691   4.379   7.400   1.542 -1.2179  0.2372  0.0341
  225MOL0     H29692   4.504   7.227   1.766  1.7923  0.8136 -0.2055
  225MOL0     H29693   4.386   7.175   1.667  0.8165 -0.9403 -1.1983
  225MOL0     H29694   4.664   7.271   1.582 -0.4365  1.1165  0.2418
  225MOL0     H29695   4.551   7.263   1.455  1.6950 -1.2612 -0.6162
  225MOL0     H29696   4.675   7.046   1.463 -1.4253 -2.1863 -0.0253
  225MOL0     H29697   4.600   7.008   1.620  1.4956 -1.9217 -0.9283
  225MOL0     H29698   4.278   6.947   1.353  1.8659  0.8125 -4.8011
  225MOL0     H29699   4.071   7.421   1.880  0.0082 -0.4873 -0.2344
  225MOL0     H29700   3.842   7.309   1.840  1.2595 -1.0768  1.3348
  226MOL0     O29701   1.991   0.723   5.480  0.3125  0.3653  0.7273
  226MOL0     C29702   2.043   0.710   5.367 -0.5681  0.1478  0.0062
  226MOL0     O29703   1.972   0.730   5.254 -0.3851 -0.1339  0.2294
  226MOL0     C29704   1.836   0.750   5.249  0.3858  0.0216 -0.1510
  226MOL0     C29705   1.788   0.743   5.119 -0.3991 -0.3095  0.0557
  226MOL0     C29706   1.652   0.725   5.085  0.2773 -0.2685  0.4201
  226MOL0     C29707   1.555   0.743   5.191  0.4379  0.7643  0.2590
  226MOL0     O29708   1.423   0.749   5.175  0.3869  0.5732  0.3068
  226MOL0     C29709   1.352   0.769   5.049 -0.5555 -0.1623  0.2634
  226MOL0     C29710   1.200   0.761   5.074  0.7426  0.4663 -0.4281
  226MOL0     C29711   1.110   0.770   4.948  0.0652 -0.6492  0.1570
  226MOL0     C29712   0.961   0.769   4.984  0.0763 -0.8945 -0.0534
  226MOL0     C29713   0.860   0.795   4.872 -0.4775  0.2139 -0.1938
  226MOL0     C29714   0.718   0.771   4.885 -0.1503 -0.2076 -0.0901
  226MOL0     C29715   0.664   0.681   4.768  0.9036  0.8572  0.5012
  226MOL0     C29716   0.683   0.747   4.633  0.6928 -0.5529 -0.1649
  226MOL0     N29717   0.621   0.882   4.630 -0.1219 -0.0229 -0.3268
  226MOL0     C29718   0.498   0.917   4.679  0.3700 -0.1544 -0.7648
  226MOL0     C29719   0.498   1.049   4.688 -0.4795 -0.4107 -1.0409
  226MOL0     C29720   0.389   1.137   4.743  0.1944  0.0941 -0.3663
  226MOL0     C29721   0.281   1.185   4.640 -0.6542 -0.4818  0.5262
  226MOL0     C29722   0.170   1.279   4.694  0.3481  0.0354  0.1548
  226MOL0     C29723   0.056   1.205   4.745  0.0106  0.3016 -0.1968
  226MOL0     O29724   0.084   1.127   4.859 -0.6780 -0.2453 -0.1055
  226MOL0     C29725  -0.022   1.094   4.945  0.6918 -0.0820  0.8528
  226MOL0     C29726   0.006   1.014   5.055  0.0609  0.1502  0.0856
  226MOL0     C29727  -0.096   0.943   5.129  0.0830 -0.2678  0.3027
  226MOL0     C29728  -0.226   0.965   5.107 -0.1560  0.0989 -0.0837
  226MOL0     C29729  -0.335   0.896   5.185 -1.2532  0.3949 -0.1741
  226MOL0     O29730  -0.465   0.933   5.158 -1.1985  0.1310 -0.3168
  226MOL0     C29731  -0.554   0.874   5.246  0.1777 -0.2966  0.2837
  226MOL0     C29732  -0.601   0.744   5.213  0.1067 -0.2855 -0.1989
  226MOL0     C29733  -0.690   0.675   5.299  0.3592 -0.0961  0.5989
  226MOL0     C29734  -0.750   0.743   5.406 -0.1300 -0.3919 -0.7984
  226MOL0     O29735  -0.840   0.675   5.482  1.1560 -0.0135 -0.4480
  226MOL0     C29736  -0.901   0.734   5.597  1.5855  0.4082 -0.5206
  226MOL0     C29737  -1.023   0.646   5.640 -0.6921 -0.3258 -0.3107
  226MOL0     C29738  -1.107   0.706   5.747 -0.0392 -0.2388  0.3763
  226MOL0     C29739  -1.226   0.617   5.774  0.0467 -0.5772 -0.5334
  226MOL0     C29740  -1.324   0.664   5.891 -0.3634 -0.0926 -0.3921
  226MOL0     C29741  -1.386   0.803   5.865  0.2844  0.2441  0.1414
  226MOL0     C29742  -1.479   0.831   5.987 -0.4498 -0.5733  0.6499
  226MOL0     C29743  -1.515   0.970   5.997  0.4572  0.0406  0.7997
  226MOL0    Cl29744  -1.601   1.026   5.844  0.0440 -0.2833  0.5159
  226MOL0     C29745  -0.707   0.880   5.428 -0.6858 -0.0907  0.2594
  226MOL0     C29746  -0.612   0.943   5.343 -0.1808  0.1816 -0.0685
  226MOL0     O29747  -0.306   0.822   5.280 -0.0463 -0.6423 -0.1223
  226MOL0     C29748  -0.256   1.061   5.013  0.1905  0.2986  0.7305
  226MOL0     C29749  -0.157   1.123   4.929 -0.6169 -0.5446 -0.4473
  226MOL0     N29750   0.622   1.098   4.649 -0.0959  0.2339  0.1498
  226MOL0     N29751   0.697   0.994   4.618  0.0083  0.2407 -0.0723
  226MOL0     C29752   1.605   0.768   5.319  0.4394  0.9455  0.0964
  226MOL0     C29753   1.739   0.762   5.353 -0.3650 -0.3063  0.6259
  226MOL0     C29754   2.183   0.669   5.347  0.1495  0.3770  0.5935
  226MOL0     C29755   2.269   0.649   5.456 -0.3726  0.0010 -0.6380
  226MOL0     C29756   2.403   0.612   5.439 -0.0209  0.4382 -0.6049
  226MOL0     C29757   2.461   0.591   5.315 -0.2527  0.5652  0.3258
  226MOL0     O29758   2.591   0.551   5.310 -0.0389  0.6009  0.1056
  226MOL0     C29759   2.654   0.529   5.189 -0.8124  0.6631  0.6031
  226MOL0     C29760   2.777   0.435   5.221 -0.6807  1.0395  0.0336
  226MOL0     C29761   2.902   0.518   5.264  0.3520 -0.3064  0.4282
  226MOL0     C29762   3.037   0.447   5.268 -0.9877 -0.8512  0.3703
  226MOL0     C29763   3.155   0.529   5.281  0.6771 -0.4199  0.6968
  226MOL0     C29764   3.257   0.591   5.294  0.2388 -1.0746  0.3064
  226MOL0     C29765   2.377   0.606   5.207 -0.1839  0.8160 -0.6240
  226MOL0     C29766   2.242   0.643   5.221 -0.0489 -0.6824  1.0355
  226MOL0     H29767   1.858   0.739   5.036 -1.6420  2.7638 -1.3271
  226MOL0     H29768   1.614   0.712   4.985 -0.4444 -0.8806  0.7670
  226MOL0     H29769   1.386   0.702   4.969 -1.6786 -1.1234  0.5638
  226MOL0     H29770   1.380   0.866   5.009  0.5299 -1.2432 -1.7643
  226MOL0     H29771   1.180   0.845   5.141  0.0626  1.3765 -1.7096
  226MOL0     H29772   1.183   0.670   5.131  1.2184  1.2204  0.9745
  226MOL0     H29773   1.140   0.697   4.872  0.1782 -1.5916  1.0747
  226MOL0     H29774   1.130   0.868   4.904  0.8804 -0.7388  0.3001
  226MOL0     H29775   0.937   0.672   5.030 -0.2120  0.1111  2.0622
  226MOL0     H29776   0.930   0.840   5.061 -1.7340 -0.6353 -0.9804
  226MOL0     H29777   0.892   0.729   4.792  0.6631  2.3067 -1.5514
  226MOL0     H29778   0.879   0.897   4.837  0.5978 -0.4489 -1.6460
  226MOL0     H29779   0.672   0.870   4.893  0.0809 -0.0146 -1.0814
  226MOL0     H29780   0.703   0.715   4.978 -0.0030 -0.5183 -0.2533
  226MOL0     H29781   0.705   0.579   4.765 -0.6918  0.1817  0.4302
  226MOL0     H29782   0.556   0.670   4.777  0.1914  1.4027 -4.6856
  226MOL0     H29783   0.622   0.683   4.568 -1.8943  0.1928  1.3752
  226MOL0     H29784   0.784   0.750   4.593  0.0893 -0.3997 -1.7787
  226MOL0     H29785   0.420   0.847   4.709  2.7850 -2.0452  1.5073
  226MOL0     H29786   0.431   1.227   4.791 -0.6358 -0.1697  0.9183
  226MOL0     H29787   0.341   1.090   4.829  0.9462  1.4777  0.8639
  226MOL0     H29788   0.232   1.096   4.599 -1.6682 -0.7822  2.2967
  226MOL0     H29789   0.338   1.229   4.558 -0.1782 -1.6563  0.2084
  226MOL0     H29790   0.199   1.355   4.767 -0.8373 -0.9078  1.6774
  226MOL0     H29791   0.135   1.339   4.609  4.5845  0.2442 -1.7063
  226MOL0     H29792   0.024   1.134   4.669 -1.9132  0.3165  0.5331
  226MOL0     H29793  -0.015   1.286   4.765 -1.1272 -0.4191 -1.1734
  226MOL0     H29794   0.107   0.974   5.068 -0.2663  0.0205  3.0167
  226MOL0     H29795  -0.059   0.866   5.197 -1.4732  1.2039  2.9726
  226MOL0     H29796  -0.566   0.700   5.120 -0.3310  1.5601 -1.2837
  226MOL0     H29797  -0.734   0.578   5.277  0.1064 -0.8541  3.9503
  226MOL0     H29798  -0.938   0.834   5.573  2.4388  1.1100  0.9444
  226MOL0     H29799  -0.826   0.737   5.678  2.3047 -3.4669 -0.8417
  226MOL0     H29800  -0.991   0.547   5.674 -0.6874  0.0048  0.6768
  226MOL0     H29801  -1.083   0.632   5.549 -0.2283 -0.2130 -0.6380
  226MOL0     H29802  -1.144   0.798   5.699  3.0835 -0.1721 -2.2312
  226MOL0     H29803  -1.056   0.738   5.838  0.3844  0.3798 -0.0720
  226MOL0     H29804  -1.283   0.616   5.681 -0.5177 -1.4756 -0.1934
  226MOL0     H29805  -1.196   0.518   5.808  1.2152 -0.3795 -0.9701
  226MOL0     H29806  -1.276   0.662   5.989  0.3794 -2.7421 -0.7444
  226MOL0     H29807  -1.401   0.589   5.909 -0.9521  0.4917 -0.4396
  226MOL0     H29808  -1.446   0.799   5.774  0.0541  1.6542  0.2075
  226MOL0     H29809  -1.313   0.883   5.849 -0.4391  0.9715  0.3848
  226MOL0     H29810  -1.570   0.773   5.969 -2.7742  3.1996 -0.9337
  226MOL0     H29811  -1.425   0.804   6.078 -1.1662  2.7363  2.1950
  226MOL0     H29812  -1.425   1.033   5.991 -1.6435  3.1455 -1.3557
  226MOL0     H29813  -1.560   0.990   6.095 -0.0871 -1.5553  0.9004
  226MOL0     H29814  -0.748   0.944   5.506 -0.7568  0.5494 -0.2953
  226MOL0     H29815  -0.596   1.044   5.379 -1.7416 -0.5108  2.9655
  226MOL0     H29816  -0.363   1.079   5.003 -0.5111 -3.2150  0.4405
  226MOL0     H29817  -0.202   1.188   4.854  1.7977 -1.5900 -2.9976
  226MOL0     H29818   1.537   0.793   5.400 -1.8813 -2.4323 -0.5906
  226MOL0     H29819   1.764   0.777   5.457 -1.5447 -0.2442  0.9050
  226MOL0     H29820   2.231   0.648   5.557 -0.9403  0.3281 -0.8438
  226MOL0     H29821   2.455   0.616   5.534 -1.0952  2.5580 -0.0327
  226MOL0     H29822   2.683   0.623   5.139 -0.1753  1.6452  2.6999
  226MOL0     H29823   2.586   0.473   5.125 -0.2579 -1.3148  1.6714
  226MOL0     H29824   2.747   0.381   5.311  2.9965 -1.1466  0.1725
  226MOL0     H29825   2.794   0.361   5.141 -0.7780  1.3187 -0.2471
  226MOL0     H29826   2.880   0.565   5.360  1.1299  0.2111  0.3636
  226MOL0     H29827   2.905   0.593   5.184 -0.9340 -0.5125  0.1505
  226MOL0     H29828   3.037   0.391   5.362 -1.5888 -0.4428  0.6180
  226MOL0     H29829   3.041   0.381   5.181 -1.1336 -0.6031  0.1738
  226MOL0     H29830   3.344   0.652   5.303  0.4935 -1.2812 -0.6780
  226MOL0     H29831   2.425   0.599   5.110  1.0055 -0.9802  0.0483
  226MOL0     H29832   2.196   0.646   5.122 -0.4441  1.3784  1.2394
  227MOL0     O29833   6.734   3.669   4.666 -0.0668  0.2354 -0.6724
  227MOL0     C29834   6.754   3.776   4.605  0.0148  0.1157 -0.9344
  227MOL0     O29835   6.664   3.867   4.566  1.0422 -0.4574  0.4910
  227MOL0     C29836   6.528   3.854   4.567  0.7813 -0.6239  0.5688
  227MOL0     C29837   6.461   3.960   4.501 -0.2705 -0.4212  0.0013
  227MOL0     C29838   6.319   3.958   4.487 -0.2635  0.2292 -0.2104
  227MOL0     C29839   6.249   3.859   4.546 -0.4751  0.3374  0.5631
  227MOL0     O29840   6.118   3.863   4.515 -0.2526 -0.4626 -0.3095
  227MOL0     C29841   6.027   3.845   4.621 -0.3623 -0.3338  0.1684
  227MOL0     C29842   5.886   3.865   4.574 -0.8318  0.5174  0.4338
  227MOL0     C29843   5.785   3.809   4.678  0.0253 -0.0091  0.5648
  227MOL0     C29844   5.645   3.798   4.608  0.1302 -0.1783 -0.4188
  227MOL0     C29845   5.518   3.783   4.702  0.4671 -0.3392 -0.0316
  227MOL0     C29846   5.502   3.642   4.761 -0.7544  0.3188 -0.1250
  227MOL0     C29847   5.358   3.617   4.824  0.5460  0.1867  0.0949
  227MOL0     C29848   5.340   3.463   4.827  0.3285  0.4427 -0.8481
  227MOL0     N29849   5.199   3.433   4.868 -0.0603  1.0099 -0.3027
  227MOL0     C29850   5.158   3.386   4.995  0.3697 -0.1541  0.2887
  227MOL0     C29851   5.046   3.321   4.968  0.0572  0.1904 -0.2913
  227MOL0     C29852   4.966   3.252   5.074  0.6251 -1.1268 -0.3550
  227MOL0     C29853   4.821   3.306   5.067  0.0758  0.3714 -0.9039
  227MOL0     C29854   4.721   3.209   5.142  0.4755  0.7511 -0.2850
  227MOL0     C29855   4.566   3.215   5.105 -0.3938 -0.6075 -0.4020
  227MOL0     O29856   4.504   3.167   5.226 -0.1672  0.0013  0.2616
  227MOL0     C29857   4.370   3.148   5.237  0.7565  0.5014 -0.3055
  227MOL0     C29858   4.276   3.205   5.162  0.3016 -0.1429  0.7205
  227MOL0     C29859   4.138   3.182   5.189  0.7971  0.1442  0.6055
  227MOL0     C29860   4.103   3.091   5.289 -0.7986 -0.1657 -0.4170
  227MOL0     C29861   3.962   3.054   5.318 -0.7987  0.2849 -0.4866
  227MOL0     O29862   3.928   2.952   5.411 -0.0857 -0.1487 -0.1200
  227MOL0     C29863   3.796   2.928   5.441  0.1017  0.3173  0.2747
  227MOL0     C29864   3.685   3.012   5.437  0.2347  0.5504 -0.0194
  227MOL0     C29865   3.558   2.964   5.469  0.2955 -0.5713 -0.1230
  227MOL0     C29866   3.541   2.837   5.519 -0.6591  0.4945  0.9791
  227MOL0     O29867   3.417   2.808   5.570 -0.5480  0.1157 -0.0490
  227MOL0     C29868   3.425   2.710   5.677  0.2720  0.5476  0.3020
  227MOL0     C29869   3.310   2.741   5.766  1.0120  0.1728 -0.5700
  227MOL0     C29870   3.305   2.637   5.874  0.3133 -0.3594  0.2929
  227MOL0     C29871   3.190   2.650   5.983  0.0600  0.6510  0.5768
  227MOL0     C29872   3.180   2.535   6.080 -0.3245 -0.2415 -0.7908
  227MOL0     C29873   3.101   2.573   6.214  0.2499 -0.1137  0.2469
  227MOL0     C29874   3.072   2.457   6.307  0.2446 -0.8941 -0.1306
  227MOL0     C29875   3.194   2.374   6.343  0.3688  0.1219 -0.0337
  227MOL0    Cl29876   3.144   2.280   6.489  0.2097  0.0123 -0.4880
  227MOL0     C29877   3.649   2.748   5.516 -0.2500  0.0560  0.2127
  227MOL0     C29878   3.772   2.801   5.481  0.7548 -0.2303 -1.2976
  227MOL0     O29879   3.879   3.117   5.241 -0.2406  0.1984 -0.6351
  227MOL0     C29880   4.205   3.026   5.364  0.3737  0.1564  0.9412
  227MOL0     C29881   4.339   3.060   5.336  0.2477 -0.0106 -0.0587
  227MOL0     N29882   5.010   3.334   4.833 -0.1793  0.5346 -0.4782
  227MOL0     N29883   5.100   3.400   4.774 -0.2653  0.0572 -0.9947
  227MOL0     C29884   6.315   3.759   4.616 -0.7746 -0.5269  0.4893
  227MOL0     C29885   6.456   3.756   4.627  0.7184 -0.0145 -0.1479
  227MOL0     C29886   6.893   3.810   4.594 -0.2147 -0.1784 -0.3455
  227MOL0     C29887   6.941   3.904   4.512  0.0876 -0.4480 -0.4208
  227MOL0     C29888   7.075   3.936   4.500  0.1789  0.1332  0.1104
  227MOL0     C29889   7.175   3.879   4.573  0.2694 -0.0515 -0.5979
  227MOL0     O29890   7.296   3.936   4.570 -0.1591  0.2920 -0.6953
  227MOL0     C29891   7.405   3.848   4.586  0.0138  0.3358 -0.3324
  227MOL0     C29892   7.534   3.927   4.542  0.0999  0.3105 -0.4853
  227MOL0     C29893   7.665   3.851   4.556 -0.3710  0.0423  0.4664
  227MOL0     C29894   7.780   3.948   4.529 -0.6176 -0.0278 -0.7352
  227MOL0     C29895   7.821   3.977   4.388 -0.8660 -0.0276 -0.4475
  227MOL0     C29896   7.859   4.017   4.283 -0.4468 -0.3640  0.9022
  227MOL0     C29897   7.136   3.768   4.663  0.1672 -1.0224  0.5020
  227MOL0     C29898   6.990   3.739   4.677 -0.2827  0.3549  1.0624
  227MOL0     H29899   6.530   4.030   4.455 -0.3703  0.8181  1.6237
  227MOL0     H29900   6.263   4.033   4.433 -0.6982 -0.9053 -1.3928
  227MOL0     H29901   6.042   3.923   4.696 -1.2911  3.7084 -3.4261
  227MOL0     H29902   6.055   3.745   4.654 -0.5009 -0.7499 -0.9348
  227MOL0     H29903   5.875   3.798   4.489 -1.0313 -2.4601  2.6364
  227MOL0     H29904   5.860   3.965   4.537  0.9887  0.4032 -1.3369
  227MOL0     H29905   5.779   3.875   4.765 -0.6097 -0.8368  1.1703
  227MOL0     H29906   5.816   3.711   4.714  0.2191 -0.6449 -1.2383
  227MOL0     H29907   5.642   3.892   4.551  1.8071 -0.1539 -0.5236
  227MOL0     H29908   5.645   3.715   4.537  0.4036 -0.9161  0.4280
  227MOL0     H29909   5.430   3.807   4.641  1.8438 -1.9501 -2.8497
  227MOL0     H29910   5.505   3.856   4.783  1.0594  2.0646 -1.9602
  227MOL0     H29911   5.580   3.611   4.831 -2.0603 -2.2591  0.3030
  227MOL0     H29912   5.510   3.575   4.674 -0.0478 -1.7185  1.4290
  227MOL0     H29913   5.340   3.662   4.922  2.5774  0.6153  0.3085
  227MOL0     H29914   5.284   3.661   4.756  0.7351  0.3690  0.0066
  227MOL0     H29915   5.396   3.422   4.912 -3.0914 -1.1483  0.8333
  227MOL0     H29916   5.359   3.416   4.730  1.6951  0.7236 -0.7277
  227MOL0     H29917   5.210   3.399   5.090 -0.6630  2.3904  0.5873
  227MOL0     H29918   5.014   3.258   5.172  0.4705  2.1488 -0.3758
  227MOL0     H29919   4.963   3.147   5.044  0.9243 -1.2876  0.1581
  227MOL0     H29920   4.784   3.300   4.964 -3.8099 -0.6545  0.3723
  227MOL0     H29921   4.812   3.407   5.108  0.0817  1.7165 -3.9785
  227MOL0     H29922   4.752   3.108   5.114  2.4698  0.3453  2.8816
  227MOL0     H29923   4.742   3.206   5.250  0.1056 -0.2942 -0.2232
  227MOL0     H29924   4.529   3.161   5.017 -3.8847  0.8441  0.0019
  227MOL0     H29925   4.539   3.319   5.087  0.5227 -0.1256  0.8833
  227MOL0     H29926   4.313   3.274   5.087 -0.5288 -0.0613  0.3690
  227MOL0     H29927   4.066   3.240   5.132  0.4549 -1.3765 -0.6054
  227MOL0     H29928   3.689   3.119   5.419 -0.5858  0.9971  2.1609
  227MOL0     H29929   3.469   3.026   5.482  0.0201 -1.1352  0.7811
  227MOL0     H29930   3.513   2.712   5.741  0.1742  0.7840  0.4314
  227MOL0     H29931   3.429   2.606   5.642  3.0067  0.5651  0.3704
  227MOL0     H29932   3.216   2.743   5.710  0.6818  2.1737 -0.0122
  227MOL0     H29933   3.325   2.838   5.814  1.3667  0.6841 -1.6710
  227MOL0     H29934   3.401   2.632   5.927 -0.8330 -0.2377  2.5104
  227MOL0     H29935   3.303   2.539   5.826  1.4890  0.5513 -1.6946
  227MOL0     H29936   3.201   2.745   6.036  1.8768  0.7184  0.1371
  227MOL0     H29937   3.100   2.649   5.922  1.1002  0.3415 -1.0308
  227MOL0     H29938   3.281   2.514   6.116 -0.9411 -1.4321  0.3734
  227MOL0     H29939   3.155   2.443   6.026  0.5246 -0.0874 -1.4535
  227MOL0     H29940   3.006   2.626   6.199  0.8729  0.5393 -1.5977
  227MOL0     H29941   3.167   2.644   6.265  2.2901 -0.6474 -1.5379
  227MOL0     H29942   3.032   2.505   6.397  1.2672 -0.9943  0.3847
  227MOL0     H29943   2.995   2.391   6.267 -1.0463 -0.1384  0.9881
  227MOL0     H29944   3.279   2.434   6.377 -0.1163  1.5294 -1.2262
  227MOL0     H29945   3.217   2.309   6.258 -3.5721 -0.6692 -0.7080
  227MOL0     H29946   3.633   2.643   5.541 -0.3091  0.1567  0.6020
  227MOL0     H29947   3.856   2.732   5.484 -0.5461 -1.8724  2.0283
  227MOL0     H29948   4.183   2.945   5.433 -0.9907 -0.7188 -0.4593
  227MOL0     H29949   4.422   3.016   5.390 -2.9615 -4.8589  1.5605
  227MOL0     H29950   6.263   3.671   4.650 -1.6788  0.8567  2.9580
  227MOL0     H29951   6.492   3.674   4.688 -2.3790 -2.0760 -0.8677
  227MOL0     H29952   6.876   3.968   4.453  0.4184  0.5280  0.2487
  227MOL0     H29953   7.098   4.023   4.438 -0.2991  0.2478  0.0893
  227MOL0     H29954   7.391   3.761   4.521  0.8837 -1.5231  1.8369
  227MOL0     H29955   7.404   3.810   4.688 -2.7783  1.9275  0.3483
  227MOL0     H29956   7.521   3.947   4.435  1.1778 -0.0882 -0.6983
  227MOL0     H29957   7.535   4.021   4.597 -0.0713  0.8899 -1.4392
  227MOL0     H29958   7.681   3.763   4.493  1.8262  0.6615  0.0543
  227MOL0     H29959   7.681   3.829   4.662 -1.1099 -0.1682  0.5405
  227MOL0     H29960   7.756   4.042   4.578 -0.4803  0.3339 -1.3442
  227MOL0     H29961   7.869   3.910   4.579 -0.6054  0.3502 -0.4663
  227MOL0     H29962   7.899   4.029   4.184 -1.4644 -3.4158 -0.0022
  227MOL0     H29963   7.216   3.718   4.717  1.1630 -1.0637 -0.9627
  227MOL0     H29964   6.957   3.673   4.757  1.2207  0.6755  1.9908
  228MOL0     O29965   1.551  10.639   5.400 -1.1114  0.2331 -0.0553
  228MOL0     C29966   1.569  10.550   5.309 -0.2459  0.3255 -0.3052
  228MOL0     O29967   1.479  10.457   5.270 -0.0702 -0.8390  0.0900
  228MOL0     C29968   1.369  10.426   5.353 -0.1336 -0.8972  0.5005
  228MOL0     C29969   1.232  10.453   5.312 -0.3436 -0.2373 -0.7657
  228MOL0     C29970   1.124  10.400   5.377  0.1094 -0.6766 -0.2835
  228MOL0     C29971   1.139  10.325   5.493 -0.2457  0.3589 -0.9043
  228MOL0     O29972   1.015  10.282   5.538  0.3997  0.0908  0.0307
  228MOL0     C29973   1.012  10.201   5.660  0.3892  0.1742 -0.1132
  228MOL0     C29974   0.866  10.169   5.704 -0.1561 -0.9547 -0.4155
  228MOL0     C29975   0.790  10.093   5.596 -0.0995 -0.3171 -0.1720
  228MOL0     C29976   0.637  10.072   5.634 -0.2617 -0.6262  0.1625
  228MOL0     C29977   0.556  10.022   5.511 -1.1701  0.3685 -0.4343
  228MOL0     C29978   0.416   9.963   5.527 -0.1802 -0.1221 -0.5543
  228MOL0     C29979   0.317  10.076   5.565  0.8764 -0.1989  0.6810
  228MOL0     C29980   0.171  10.040   5.545 -0.2434  0.1748  0.1087
  228MOL0     N29981   0.122   9.905   5.578 -0.1095  0.5313 -0.3090
  228MOL0     C29982   0.138   9.796   5.498 -0.0922 -0.1972  0.1298
  228MOL0     C29983   0.066   9.709   5.570  0.9323  0.3684 -0.9248
  228MOL0     C29984   0.048   9.565   5.524 -0.3809 -0.1509  0.6940
  228MOL0     C29985  -0.095   9.533   5.495  0.7436  0.4578  0.2067
  228MOL0     C29986  -0.176   9.496   5.628  0.4071  0.2437  0.3047
  228MOL0     C29987  -0.326   9.525   5.612 -0.3103  0.1634 -0.0629
  228MOL0     O29988  -0.370   9.510   5.472  0.9671 -0.4423 -0.7966
  228MOL0     C29989  -0.505   9.485   5.441  0.4246  0.4115  0.2117
  228MOL0     C29990  -0.542   9.500   5.305 -0.4888  0.5534  0.3747
  228MOL0     C29991  -0.673   9.477   5.252  0.1511 -0.1357 -0.2407
  228MOL0     C29992  -0.776   9.442   5.343  0.2569  0.1038  0.0104
  228MOL0     C29993  -0.919   9.427   5.296 -0.2879  0.0106 -0.1927
  228MOL0     O29994  -0.936   9.443   5.164 -0.4010 -0.0024  0.1657
  228MOL0     C29995  -1.065   9.448   5.116  0.7935 -0.6735  0.0770
  228MOL0     C29996  -1.167   9.530   5.169  0.6056  0.4406 -0.5513
  228MOL0     C29997  -1.294   9.519   5.121 -0.9131 -0.9108 -0.6386
  228MOL0     C29998  -1.323   9.434   5.017  0.3455 -0.0829 -0.5206
  228MOL0     O29999  -1.450   9.437   4.970  0.5844 -0.3112  0.0884
  228MOL0     C30000  -1.504   9.327   4.901 -0.3079  0.7620 -0.8050
  228MOL0     C30001  -1.655   9.349   4.869 -0.0519 -0.0408  1.3012
  228MOL0     C30002  -1.752   9.292   4.977 -0.1710 -0.0894 -0.2311
  228MOL0     C30003  -1.904   9.290   4.946  0.6256  0.4579  0.4772
  228MOL0     C30004  -1.986   9.296   5.075 -0.0754 -0.2308 -0.3859
  228MOL0     C30005  -2.135   9.278   5.029  0.1965  0.1698 -0.2367
  228MOL0     C30006  -2.201   9.412   5.018  0.3614 -0.7297 -0.9855
  228MOL0     C30007  -2.345   9.412   4.970 -0.0662 -0.1001 -0.2458
  228MOL0    Cl30008  -2.351   9.324   4.813  0.4717 -0.3558  0.0842
  228MOL0     C30009  -1.211   9.366   4.953 -1.1160 -0.0331 -0.5189
  228MOL0     C30010  -1.083   9.387   4.991 -0.3336  0.7346 -0.3708
  228MOL0     O30011  -1.008   9.409   5.378  0.3141  0.9500  0.6012
  228MOL0     C30012  -0.739   9.429   5.480 -0.0062 -0.6058  0.2507
  228MOL0     C30013  -0.611   9.443   5.522 -0.0630 -0.7839 -0.2108
  228MOL0     N30014   0.006   9.756   5.682  0.6638 -0.8513  0.4077
  228MOL0     N30015   0.048   9.873   5.690  0.0041 -0.3424 -0.9034
  228MOL0     C30016   1.269  10.299   5.541  0.2839 -0.1737  0.0249
  228MOL0     C30017   1.378  10.343   5.467 -0.3320 -0.5816 -0.3010
  228MOL0     C30018   1.686  10.563   5.224 -0.6278 -0.0445  0.4151
  228MOL0     C30019   1.724  10.454   5.136  0.2906 -0.2400 -1.4317
  228MOL0     C30020   1.831  10.467   5.046  0.2077 -0.1850 -0.2666
  228MOL0     C30021   1.914  10.583   5.050  0.1377  0.1388 -1.4122
  228MOL0     O30022   2.031  10.601   4.981  0.1673  0.5035  0.0540
  228MOL0     C30023   2.081  10.498   4.896  0.0531 -0.3143 -0.1197
  228MOL0     C30024   2.202  10.553   4.824  0.4646 -0.3621  0.0088
  228MOL0     C30025   2.173  10.662   4.722 -0.4631  0.4198  0.3488
  228MOL0     C30026   2.089  10.614   4.603 -0.7122  0.4607  0.0950
  228MOL0     C30027   2.152  10.522   4.504  0.2522  0.2336  0.0236
  228MOL0     C30028   2.209  10.456   4.425 -0.0446 -0.0130 -0.0754
  228MOL0     C30029   1.878  10.694   5.132 -0.1955 -0.0873 -0.2471
  228MOL0     C30030   1.771  10.678   5.227  0.9991 -0.1746  0.3420
  228MOL0     H30031   1.207  10.513   5.225 -0.8467  2.0738  0.9016
  228MOL0     H30032   1.022  10.412   5.340  0.6407  1.7530 -1.1344
  228MOL0     H30033   1.049  10.272   5.734 -2.0377 -0.9081  2.2751
  228MOL0     H30034   1.071  10.110   5.642  1.4560  1.1358 -1.9107
  228MOL0     H30035   0.802  10.255   5.727 -0.8910 -1.8338  0.9646
  228MOL0     H30036   0.865  10.112   5.797 -0.5193 -1.4725 -0.7308
  228MOL0     H30037   0.848  10.002   5.581 -1.2569 -1.0282 -0.4929
  228MOL0     H30038   0.802  10.151   5.504  0.4521  0.2909  0.2814
  228MOL0     H30039   0.636   9.996   5.713 -0.8995 -0.6029  0.1787
  228MOL0     H30040   0.588  10.163   5.670  2.9970  0.9476  1.0387
  228MOL0     H30041   0.615   9.940   5.469 -0.0125  1.0519 -0.1986
  228MOL0     H30042   0.555  10.109   5.443 -0.1145  1.7256  1.2068
  228MOL0     H30043   0.421   9.882   5.600  3.5875 -0.3487 -0.8616
  228MOL0     H30044   0.379   9.911   5.438 -0.8756 -2.5191  1.0359
  228MOL0     H30045   0.334  10.126   5.661  0.3729  2.6311 -0.6046
  228MOL0     H30046   0.325  10.152   5.487 -1.0126 -2.0752 -1.4766
  228MOL0     H30047   0.142  10.065   5.443  1.0149  0.4736 -0.2016
  228MOL0     H30048   0.118  10.112   5.606  0.6710  1.2951 -0.3832
  228MOL0     H30049   0.193   9.790   5.405  2.4468  1.2578  1.4294
  228MOL0     H30050   0.088   9.499   5.601  1.9727 -0.1768 -0.4756
  228MOL0     H30051   0.116   9.551   5.440  1.2968  1.8069  1.6243
  228MOL0     H30052  -0.100   9.449   5.425 -2.9156  0.9112 -0.2244
  228MOL0     H30053  -0.137   9.623   5.452  0.4125  0.8060  1.2207
  228MOL0     H30054  -0.162   9.389   5.644 -1.4039 -0.2035 -0.7904
  228MOL0     H30055  -0.137   9.555   5.711 -0.0674 -0.2802  0.9014
  228MOL0     H30056  -0.346   9.630   5.631  0.8454  0.6006 -1.1223
  228MOL0     H30057  -0.379   9.468   5.689 -0.8056  3.1876  2.0091
  228MOL0     H30058  -0.473   9.530   5.227 -0.8925 -0.7736 -0.5147
  228MOL0     H30059  -0.693   9.496   5.147  3.1128  3.0647 -0.3914
  228MOL0     H30060  -1.141   9.590   5.255 -2.4854 -0.1375  0.9171
  228MOL0     H30061  -1.373   9.582   5.161 -1.6830 -1.5325 -1.1450
  228MOL0     H30062  -1.491   9.241   4.966  0.2851  1.0958 -0.4769
  228MOL0     H30063  -1.455   9.299   4.807 -1.1315  0.7980 -1.2599
  228MOL0     H30064  -1.673   9.302   4.772 -1.3024  3.5893 -0.3957
  228MOL0     H30065  -1.667   9.457   4.856  2.3918  0.0476 -1.2173
  228MOL0     H30066  -1.736   9.348   5.070 -2.4645  0.4230 -0.0869
  228MOL0     H30067  -1.712   9.193   4.997  3.0983  1.2639  0.5404
  228MOL0     H30068  -1.931   9.362   4.868  0.9528  0.4551  0.3582
  228MOL0     H30069  -1.922   9.191   4.902 -2.5935  0.6529  1.1320
  228MOL0     H30070  -1.971   9.394   5.121 -1.3184  1.0090 -2.4748
  228MOL0     H30071  -1.963   9.227   5.156 -1.7507  0.9487  1.1707
  228MOL0     H30072  -2.188   9.221   5.106 -0.3614  1.0085  0.0115
  228MOL0     H30073  -2.139   9.229   4.931 -1.0969 -0.4683  0.1068
  228MOL0     H30074  -2.196   9.466   5.112  1.7192 -1.0308 -0.8674
  228MOL0     H30075  -2.133   9.465   4.951  0.1846  1.0506  0.1920
  228MOL0     H30076  -2.380   9.514   4.953 -0.6637 -0.1262  0.7664
  228MOL0     H30077  -2.417   9.366   5.039 -1.9384  1.3553 -1.1826
  228MOL0     H30078  -1.220   9.290   4.876  0.9526 -2.9132  1.8462
  228MOL0     H30079  -1.001   9.340   4.937  0.3389  1.9949 -0.4686
  228MOL0     H30080  -0.812   9.396   5.553 -1.1300 -1.0709 -1.0343
  228MOL0     H30081  -0.589   9.424   5.627 -1.8026 -3.2062 -0.1921
  228MOL0     H30082   1.267  10.237   5.630 -0.8740 -0.3500 -0.0982
  228MOL0     H30083   1.468  10.286   5.486 -1.1458 -2.0346 -0.6463
  228MOL0     H30084   1.663  10.364   5.135  1.2324 -0.8943 -1.7585
  228MOL0     H30085   1.855  10.379   4.988  1.4973 -0.2396  0.3184
  228MOL0     H30086   1.998  10.464   4.833  0.2571 -0.7127 -0.1746
  228MOL0     H30087   2.125  10.421   4.960  1.2880  0.0402 -0.5217
  228MOL0     H30088   2.262  10.595   4.905  1.0812  0.1525 -0.7059
  228MOL0     H30089   2.261  10.476   4.774  0.0493 -0.0260 -1.0356
  228MOL0     H30090   2.270  10.697   4.687  0.0101 -0.5711  0.6194
  228MOL0     H30091   2.124  10.754   4.753  0.3465  1.0951 -0.3114
  228MOL0     H30092   1.993  10.569   4.628 -1.2300  0.5742 -1.5255
  228MOL0     H30093   2.076  10.703   4.540  2.4922  0.6734 -0.4545
  228MOL0     H30094   2.258  10.383   4.363  1.8011  0.5307  0.6696
  228MOL0     H30095   1.934  10.786   5.135  1.6017 -1.1375  2.2879
  228MOL0     H30096   1.747  10.753   5.301 -1.7440 -1.2727  0.6771
  229MOL0     O30097   5.038   6.863  10.758 -0.8280  0.8359  0.3220
  229MOL0     C30098   5.138   6.816  10.823  0.0200  0.2888  0.5550
  229MOL0     O30099   5.132   6.759  10.945  0.0347  0.5959  0.0874
  229MOL0     C30100   5.010   6.724  11.002 -0.0990 -0.2396  0.8638
  229MOL0     C30101   4.910   6.811  11.033 -0.1207 -0.3232 -0.1784
  229MOL0     C30102   4.791   6.769  11.109  0.0578  0.2736  0.6174
  229MOL0     C30103   4.780   6.639  11.150 -0.1983  0.5376  0.0087
  229MOL0     O30104   4.676   6.585  11.226 -0.6548 -0.3488  0.2570
  229MOL0     C30105   4.540   6.624  11.200 -0.9080 -0.1411  0.2956
  229MOL0     C30106   4.489   6.747  11.277 -0.2205  0.7958  0.4673
  229MOL0     C30107   4.338   6.734  11.307 -0.4147 -0.0569 -0.3072
  229MOL0     C30108   4.249   6.718  11.179  0.0582  0.3601  0.5551
  229MOL0     C30109   4.098   6.709  11.211  0.9793  0.0759 -0.2674
  229MOL0     C30110   4.015   6.637  11.096 -0.3212  0.2010  0.3384
  229MOL0     C30111   3.867   6.602  11.131 -0.3222 -0.4636 -0.0546
  229MOL0     C30112   3.775   6.723  11.095  1.3555 -0.3504  0.2458
  229MOL0     N30113   3.630   6.701  11.139 -0.2993 -0.6112 -0.4867
  229MOL0     C30114   3.543   6.800  11.131  0.1689 -0.3764  1.3903
  229MOL0     C30115   3.427   6.739  11.133  0.8744 -0.0771  0.1704
  229MOL0     C30116   3.299   6.811  11.111 -0.5516  0.0712  0.3899
  229MOL0     C30117   3.177   6.720  11.106  0.2691  0.3629  0.2059
  229MOL0     C30118   3.046   6.805  11.087 -0.3969  0.3067  1.2103
  229MOL0     C30119   2.930   6.700  11.090  0.4527  0.2805  1.1086
  229MOL0     O30120   2.899   6.657  11.219  0.2210 -0.0799 -0.0793
  229MOL0     C30121   2.772   6.623  11.252  0.0726 -0.1883  1.1517
  229MOL0     C30122   2.758   6.537  11.361 -0.1377 -0.0415 -0.7341
  229MOL0     C30123   2.629   6.501  11.401 -0.0140  0.6230  1.0017
  229MOL0     C30124   2.513   6.538  11.333 -0.2740  0.0043  0.6217
  229MOL0     C30125   2.372   6.497  11.363  0.2311 -0.2610 -0.1774
  229MOL0     O30126   2.277   6.534  11.269  0.5282 -0.7125 -0.2042
  229MOL0     C30127   2.140   6.512  11.284  0.1498 -0.5268  0.2593
  229MOL0     C30128   2.077   6.390  11.305 -0.1324  0.5819  0.2938
  229MOL0     C30129   1.935   6.389  11.315 -0.2377  0.2472  0.3266
  229MOL0     C30130   1.852   6.494  11.299  0.5550  0.8273  0.4354
  229MOL0     O30131   1.717   6.503  11.313  0.4315  0.4932 -0.0070
  229MOL0     C30132   1.633   6.394  11.349  0.2791  0.1278 -0.2638
  229MOL0     C30133   1.486   6.447  11.344  0.0463  0.7868 -1.5109
  229MOL0     C30134   1.379   6.345  11.380  0.7693  0.5596  0.0353
  229MOL0     C30135   1.367   6.343  11.530  0.6194  0.1636 -0.1933
  229MOL0     C30136   1.249   6.258  11.575 -0.3922  0.7870  0.1123
  229MOL0     C30137   1.102   6.288  11.534 -1.0948  0.3743 -0.6770
  229MOL0     C30138   1.068   6.423  11.585  0.3160 -0.4426 -0.2713
  229MOL0     C30139   0.913   6.434  11.601  0.0352  0.3956 -0.6310
  229MOL0    Cl30140   0.817   6.414  11.445 -0.3155 -0.2569  0.1364
  229MOL0     C30141   1.918   6.612  11.255  1.2665  0.1668 -0.2127
  229MOL0     C30142   2.061   6.625  11.256 -0.6073 -0.0851  0.5202
  229MOL0     O30143   2.347   6.448  11.475  0.7073 -0.3835  0.6012
  229MOL0     C30144   2.532   6.635  11.228  0.0460 -0.3065 -0.6836
  229MOL0     C30145   2.657   6.688  11.200  1.0395  0.1766  0.3787
  229MOL0     N30146   3.442   6.602  11.142  0.3442 -0.0572  0.9070
  229MOL0     N30147   3.568   6.581  11.151 -0.5687 -0.3831 -0.3459
  229MOL0     C30148   4.889   6.552  11.124 -0.4279  0.4170 -0.3416
  229MOL0     C30149   4.997   6.595  11.043  0.0462  0.1865 -0.0234
  229MOL0     C30150   5.275   6.827  10.763 -0.3461 -0.6580 -0.6869
  229MOL0     C30151   5.392   6.770  10.813  0.3038  0.2489 -0.1222
  229MOL0     C30152   5.503   6.769  10.728  0.5234 -0.6753  0.2995
  229MOL0     C30153   5.503   6.826  10.606 -0.5528 -0.3077 -0.2330
  229MOL0     O30154   5.627   6.832  10.540  0.6114 -0.3248  0.2125
  229MOL0     C30155   5.610   6.784  10.403 -0.7590  0.5366  0.4948
  229MOL0     C30156   5.754   6.767  10.339  0.1690 -0.7199  0.1829
  229MOL0     C30157   5.825   6.635  10.364 -0.0891 -0.2880 -0.4093
  229MOL0     C30158   5.967   6.614  10.320 -0.1434 -0.8985  0.9027
  229MOL0     C30159   6.053   6.717  10.394  0.2872 -0.1831  0.4994
  229MOL0     C30160   6.108   6.805  10.450 -0.2478  0.7366 -0.4184
  229MOL0     C30161   5.397   6.903  10.561  0.1661 -0.1985  0.8823
  229MOL0     C30162   5.285   6.910  10.642  0.7899  0.0083 -0.0368
  229MOL0     H30163   4.910   6.909  10.985  0.3237 -0.8390 -1.2772
  229MOL0     H30164   4.708   6.838  11.119 -1.1220 -0.7835 -1.2492
  229MOL0     H30165   4.484   6.540  11.241  0.8627 -1.2460  0.5247
  229MOL0     H30166   4.518   6.631  11.093  0.7852  0.7894 -0.0359
  229MOL0     H30167   4.491   6.837  11.214 -0.1215 -0.4406 -1.3609
  229MOL0     H30168   4.552   6.768  11.364 -0.6508  5.0115 -0.0057
  229MOL0     H30169   4.297   6.821  11.360  0.0600  0.0804 -0.1609
  229MOL0     H30170   4.323   6.646  11.371  0.3726 -0.5138 -0.7384
  229MOL0     H30171   4.270   6.792  11.101 -4.8038 -0.4992 -1.9479
  229MOL0     H30172   4.271   6.622  11.132 -0.9185 -0.0755  0.9493
  229MOL0     H30173   4.058   6.808  11.232 -0.2101 -0.6389  1.0596
  229MOL0     H30174   4.075   6.659  11.306  0.5304  0.0376 -0.3962
  229MOL0     H30175   4.079   6.555  11.065 -0.0109  1.2999 -2.2129
  229MOL0     H30176   4.019   6.701  11.007  0.9292 -0.4012 -0.0565
  229MOL0     H30177   3.829   6.519  11.072 -1.6602  0.4290 -0.4855
  229MOL0     H30178   3.860   6.575  11.237 -3.8744  2.7792  0.7649
  229MOL0     H30179   3.786   6.734  10.987  0.0592 -1.0099  0.0272
  229MOL0     H30180   3.804   6.820  11.137  0.2476 -1.1608  3.0819
  229MOL0     H30181   3.558   6.907  11.115 -1.7105 -0.3561 -0.8769
  229MOL0     H30182   3.301   6.854  11.010 -1.0369  0.6356  0.6107
  229MOL0     H30183   3.291   6.891  11.186  0.0959  1.9857 -1.4530
  229MOL0     H30184   3.169   6.668  11.202  0.9335 -0.4598 -0.1722
  229MOL0     H30185   3.185   6.650  11.022 -2.3115 -0.7111  0.7633
  229MOL0     H30186   3.032   6.886  11.159 -1.5022  3.4146 -2.2045
  229MOL0     H30187   3.052   6.851  10.988  0.9908 -0.5162  0.8760
  229MOL0     H30188   2.960   6.617  11.025 -1.4033 -0.6771  1.4026
  229MOL0     H30189   2.848   6.751  11.039 -0.1367 -0.9126  0.8277
  229MOL0     H30190   2.846   6.492  11.407 -0.4640 -0.8441 -0.8797
  229MOL0     H30191   2.611   6.442  11.491  1.2814  1.8261  2.1123
  229MOL0     H30192   2.129   6.295  11.305 -0.9983  0.0970  0.1652
  229MOL0     H30193   1.896   6.292  11.345  1.3073 -0.3483  0.4936
  229MOL0     H30194   1.660   6.373  11.453 -0.1528  1.3520  0.1181
  229MOL0     H30195   1.653   6.306  11.288 -2.1846 -2.2241  2.0583
  229MOL0     H30196   1.466   6.484  11.243 -0.1663 -0.0166 -1.7725
  229MOL0     H30197   1.477   6.536  11.407  0.4989  0.0412 -0.3584
  229MOL0     H30198   1.413   6.247  11.346 -1.7640  0.1746 -1.6294
  229MOL0     H30199   1.284   6.369  11.332  0.0163  0.6243  1.4875
  229MOL0     H30200   1.460   6.304  11.571 -0.1231  0.3678  1.8254
  229MOL0     H30201   1.337   6.445  11.558  0.7856  0.0279  0.5050
  229MOL0     H30202   1.251   6.263  11.684  0.9586 -0.8791  0.2020
  229MOL0     H30203   1.264   6.151  11.556 -3.8307  0.1331  0.4536
  229MOL0     H30204   1.049   6.206  11.582 -0.0795 -0.5114 -1.0358
  229MOL0     H30205   1.080   6.282  11.427 -0.5893 -1.5001 -0.7123
  229MOL0     H30206   1.097   6.434  11.690 -1.0586 -2.5788  0.4028
  229MOL0     H30207   1.110   6.502  11.522 -0.2108 -2.3971 -3.3111
  229MOL0     H30208   0.894   6.530  11.650 -0.4355 -0.3945  0.8020
  229MOL0     H30209   0.886   6.349  11.664  2.0452 -2.6627 -3.5458
  229MOL0     H30210   1.852   6.697  11.239 -1.6344 -1.9471 -0.1226
  229MOL0     H30211   2.106   6.717  11.224  0.7032 -0.5000  1.0972
  229MOL0     H30212   2.445   6.691  11.194 -0.9486  0.4887  2.7315
  229MOL0     H30213   2.654   6.770  11.130  0.3687  1.0582  1.4072
  229MOL0     H30214   4.873   6.450  11.159  0.2480 -0.6555 -2.8996
  229MOL0     H30215   5.073   6.522  11.017 -0.8761 -1.2971  1.2674
  229MOL0     H30216   5.402   6.721  10.909 -2.2062 -1.0719 -0.4603
  229MOL0     H30217   5.582   6.708  10.770  0.5115 -0.5378  0.5222
  229MOL0     H30218   5.551   6.855  10.344 -0.7971 -0.5269 -0.7858
  229MOL0     H30219   5.545   6.697  10.398  0.0850 -0.1375  0.9033
  229MOL0     H30220   5.746   6.772  10.230  0.9950  0.9550  0.1657
  229MOL0     H30221   5.817   6.849  10.373  1.4760 -2.3838  1.9603
  229MOL0     H30222   5.763   6.557  10.320 -0.9926  1.0863 -1.6636
  229MOL0     H30223   5.824   6.631  10.473 -1.9643  3.6030 -0.0963
  229MOL0     H30224   5.998   6.510  10.337 -1.6838 -2.1896 -2.9736
  229MOL0     H30225   5.969   6.639  10.213  0.8477  0.5066  1.2223
  229MOL0     H30226   6.152   6.881  10.511  0.0238 -0.3005  0.7235
  229MOL0     H30227   5.406   6.959  10.468  1.2308 -1.2080  0.3565
  229MOL0     H30228   5.211   6.987  10.623  1.5701  0.3677 -1.8094
  230MOL0     O30229   0.363   8.917   8.785  0.2409  1.0015  0.3823
  230MOL0     C30230   0.302   8.992   8.706 -0.5163 -0.1360 -0.6817
  230MOL0     O30231   0.219   8.944   8.602 -0.7982 -0.0529  0.4091
  230MOL0     C30232   0.213   8.820   8.558 -0.8535 -0.2023  0.5718
  230MOL0     C30233   0.331   8.742   8.537  0.2688  0.6166 -1.5822
  230MOL0     C30234   0.323   8.601   8.492  0.5405  0.8875 -0.6210
  230MOL0     C30235   0.194   8.543   8.467 -0.0579 -1.0618 -1.7778
  230MOL0     O30236   0.164   8.418   8.425 -1.0223  0.1664  0.4470
  230MOL0     C30237   0.269   8.333   8.381  0.0917 -0.3547  0.2704
  230MOL0     C30238   0.212   8.200   8.319 -0.6283 -0.1029 -0.0948
  230MOL0     C30239   0.124   8.119   8.415  0.2460 -0.3952  0.1726
  230MOL0     C30240   0.098   7.986   8.338 -0.3911 -0.1093 -0.4004
  230MOL0     C30241  -0.023   7.910   8.402  0.5742  0.3895 -0.5650
  230MOL0     C30242  -0.006   7.851   8.546  0.4160  1.0038 -0.7959
  230MOL0     C30243  -0.118   7.763   8.597  0.4664 -0.5048  0.5353
  230MOL0     C30244  -0.094   7.678   8.730 -0.3867 -0.1224  0.5608
  230MOL0     N30245   0.003   7.564   8.721 -0.3414 -0.6122  0.1251
  230MOL0     C30246  -0.033   7.451   8.658  0.9219 -0.7576 -0.2764
  230MOL0     C30247   0.076   7.375   8.655  0.0563  0.3286  0.0568
  230MOL0     C30248   0.095   7.241   8.582  0.1790 -0.0768 -0.5787
  230MOL0     C30249   0.183   7.136   8.651 -0.5528  0.0204 -0.9225
  230MOL0     C30250   0.162   6.991   8.602 -0.1206  0.1205 -0.6170
  230MOL0     C30251   0.021   6.928   8.625 -0.9639 -0.1345  0.4672
  230MOL0     O30252   0.026   6.786   8.601 -0.1086  0.2496  0.3785
  230MOL0     C30253  -0.093   6.716   8.572 -0.3182  0.0636  0.1752
  230MOL0     C30254  -0.221   6.770   8.596 -0.3273  0.5372  0.0775
  230MOL0     C30255  -0.342   6.695   8.557 -0.7067  0.0761 -0.3990
  230MOL0     C30256  -0.324   6.565   8.503  0.2815  0.5943  0.7054
  230MOL0     C30257  -0.436   6.474   8.458  0.0057 -0.7211  0.4307
  230MOL0     O30258  -0.555   6.536   8.473  0.4249 -0.3268 -0.6486
  230MOL0     C30259  -0.655   6.467   8.408 -0.0082  0.3900  0.2871
  230MOL0     C30260  -0.785   6.469   8.470 -0.5567 -0.7841  0.6856
  230MOL0     C30261  -0.894   6.404   8.408 -0.2192  0.7779  0.3918
  230MOL0     C30262  -0.881   6.336   8.281  0.3680  0.2228  0.1491
  230MOL0     O30263  -0.992   6.277   8.223 -0.2491 -0.1550  0.2383
  230MOL0     C30264  -0.972   6.173   8.121 -0.4929 -0.1648 -0.1787
  230MOL0     C30265  -1.104   6.144   8.059 -0.4178  0.3070 -0.8065
  230MOL0     C30266  -1.094   6.035   7.960  0.3381  0.9873 -0.3486
  230MOL0     C30267  -1.228   6.003   7.906 -0.1683 -0.1393 -0.6205
  230MOL0     C30268  -1.218   5.892   7.802 -0.3394  0.2116 -0.0865
  230MOL0     C30269  -1.353   5.850   7.756  0.2454  0.1472 -0.0718
  230MOL0     C30270  -1.338   5.733   7.654 -0.1080  0.9505  0.2217
  230MOL0     C30271  -1.314   5.609   7.731  0.0609  0.2622 -0.0725
  230MOL0    Cl30272  -1.372   5.477   7.625 -0.2226  0.1992  0.1053
  230MOL0     C30273  -0.754   6.344   8.212 -0.3752 -0.0250 -0.5742
  230MOL0     C30274  -0.642   6.404   8.278 -0.3378 -0.1271 -0.0281
  230MOL0     O30275  -0.410   6.352   8.421  0.8906 -0.5246  0.3478
  230MOL0     C30276  -0.200   6.507   8.486 -0.6190 -0.0989 -0.2702
  230MOL0     C30277  -0.088   6.586   8.520  0.3993 -0.0521  0.6156
  230MOL0     N30278   0.179   7.441   8.722  0.1615  0.1494  0.3645
  230MOL0     N30279   0.137   7.558   8.753 -1.2444  0.4191 -0.4916
  230MOL0     C30280   0.081   8.619   8.487  0.1941  0.4430 -0.3591
  230MOL0     C30281   0.095   8.755   8.520  0.4444  0.1547 -0.5890
  230MOL0     C30282   0.315   9.130   8.745  0.8671 -0.0483 -0.0681
  230MOL0     C30283   0.195   9.212   8.730 -0.0246  0.0009  0.0679
  230MOL0     C30284   0.197   9.344   8.770  0.5892 -0.0627 -1.0701
  230MOL0     C30285   0.312   9.400   8.826 -0.4700  0.5861 -0.0168
  230MOL0     O30286   0.305   9.531   8.855  0.1791  0.2797 -0.0601
  230MOL0     C30287   0.209   9.570   8.958  0.0890  0.7952  0.0970
  230MOL0     C30288   0.288   9.557   9.090  0.1918 -0.2296  0.2541
  230MOL0     C30289   0.395   9.657   9.110 -0.4099 -0.3681  0.5918
  230MOL0     C30290   0.447   9.667   9.248  0.1523 -0.5430 -0.3942
  230MOL0     C30291   0.352   9.730   9.344  0.1750  0.2830  0.2487
  230MOL0     C30292   0.281   9.790   9.427  0.0431  0.2396  0.7917
  230MOL0     C30293   0.427   9.323   8.839 -0.1230  0.9226  0.6147
  230MOL0     C30294   0.429   9.189   8.801 -0.7057 -0.1447 -0.8215
  230MOL0     H30295   0.428   8.775   8.571 -0.0859 -1.0772  1.4440
  230MOL0     H30296   0.406   8.532   8.482 -1.6261 -2.1924  1.1825
  230MOL0     H30297   0.345   8.328   8.459  0.2827  0.2831  0.1401
  230MOL0     H30298   0.325   8.381   8.300  2.5901 -1.1166  1.4600
  230MOL0     H30299   0.296   8.136   8.290  1.9240  2.2419  1.5944
  230MOL0     H30300   0.152   8.225   8.231  0.2567  0.2240 -0.6110
  230MOL0     H30301   0.028   8.170   8.429 -0.5897 -1.6535 -0.8159
  230MOL0     H30302   0.172   8.105   8.512 -1.2769 -0.3920  0.9509
  230MOL0     H30303   0.071   8.014   8.236  2.1895  2.4795 -0.5202
  230MOL0     H30304   0.194   7.932   8.342 -0.7346 -0.6978  0.0452
  230MOL0     H30305  -0.046   7.825   8.337  1.2380 -1.1012  1.0486
  230MOL0     H30306  -0.110   7.975   8.401  0.0100 -0.3340  0.2149
  230MOL0     H30307  -0.006   7.931   8.621  0.3151  3.3169 -3.1168
  230MOL0     H30308   0.089   7.797   8.546 -0.3420 -0.4102 -2.2840
  230MOL0     H30309  -0.207   7.826   8.606 -0.0460 -1.3034  1.2577
  230MOL0     H30310  -0.134   7.690   8.517 -0.5060 -0.4695  0.6868
  230MOL0     H30311  -0.190   7.629   8.746  0.1863 -1.3853  0.3098
  230MOL0     H30312  -0.060   7.746   8.809 -0.5795  2.5053 -1.4719
  230MOL0     H30313  -0.127   7.414   8.620  0.1289 -2.3924  2.9561
  230MOL0     H30314   0.152   7.254   8.490  1.9990 -0.3296  0.4518
  230MOL0     H30315   0.001   7.189   8.564  0.4135 -1.3799  1.6288
  230MOL0     H30316   0.161   7.140   8.758 -1.0296  2.3672 -1.0520
  230MOL0     H30317   0.290   7.159   8.649 -0.1214 -1.5903  1.0098
  230MOL0     H30318   0.190   6.971   8.498  0.2743  0.5258 -0.5962
  230MOL0     H30319   0.236   6.930   8.654 -0.1381  1.5986  1.2645
  230MOL0     H30320  -0.042   6.987   8.557  0.3171  0.2602 -0.4185
  230MOL0     H30321  -0.003   6.950   8.729  1.7926 -0.2931  1.2145
  230MOL0     H30322  -0.225   6.864   8.649 -1.0958  2.0062 -2.4084
  230MOL0     H30323  -0.438   6.730   8.594 -0.5115  0.3870 -0.1760
  230MOL0     H30324  -0.807   6.511   8.568  0.6601  1.4353  0.0713
  230MOL0     H30325  -0.985   6.390   8.464  0.5611  1.4177  1.8861
  230MOL0     H30326  -0.943   6.081   8.172 -0.7208  1.2006  2.6001
  230MOL0     H30327  -0.897   6.197   8.046  0.5582 -1.6297  0.3508
  230MOL0     H30328  -1.140   6.238   8.018  1.1713  0.8855 -0.9524
  230MOL0     H30329  -1.168   6.108   8.140 -0.4755 -0.5760 -1.2325
  230MOL0     H30330  -1.049   5.952   8.016  1.4286  0.8264 -1.4258
  230MOL0     H30331  -1.025   6.070   7.883 -0.1197 -1.9722 -2.2293
  230MOL0     H30332  -1.292   5.973   7.990 -0.2540  1.0276 -0.2458
  230MOL0     H30333  -1.270   6.092   7.859  1.5800  1.1891  0.2132
  230MOL0     H30334  -1.164   5.807   7.844  2.1846  1.2058 -1.1475
  230MOL0     H30335  -1.164   5.936   7.718  3.4496 -2.9095  0.4365
  230MOL0     H30336  -1.401   5.940   7.716 -0.9575  0.1397  1.2583
  230MOL0     H30337  -1.409   5.828   7.847  0.9900  0.1369  0.3959
  230MOL0     H30338  -1.430   5.732   7.594  0.9515  0.2173 -1.4540
  230MOL0     H30339  -1.264   5.742   7.575 -0.3387  2.7354  0.1583
  230MOL0     H30340  -1.365   5.621   7.827 -3.7461 -1.2757 -1.7291
  230MOL0     H30341  -1.208   5.597   7.755 -0.3788 -1.4832  1.1772
  230MOL0     H30342  -0.745   6.311   8.110  1.1772  0.7979 -0.7386
  230MOL0     H30343  -0.553   6.417   8.217 -0.0780 -2.1487 -0.1385
  230MOL0     H30344  -0.178   6.410   8.444  0.4991 -0.3662  0.8537
  230MOL0     H30345   0.009   6.546   8.494  0.1310 -0.6288  0.4975
  230MOL0     H30346  -0.012   8.568   8.465  1.8640 -1.8296 -2.7489
  230MOL0     H30347   0.006   8.812   8.544  0.2153 -0.0154 -1.0340
  230MOL0     H30348   0.113   9.176   8.669 -0.4870  0.9088  0.1251
  230MOL0     H30349   0.119   9.412   8.741  0.8354  1.0273  0.6928
  230MOL0     H30350   0.126   9.499   8.955  1.5211 -0.9216 -1.8736
  230MOL0     H30351   0.170   9.671   8.939 -1.8627  0.2570  1.0463
  230MOL0     H30352   0.212   9.596   9.159  1.6771  1.8771  0.7729
  230MOL0     H30353   0.318   9.453   9.111 -1.7559 -0.9800 -0.4250
  230MOL0     H30354   0.368   9.753   9.065  0.8057  0.6123  1.8685
  230MOL0     H30355   0.471   9.608   9.049  1.1555  1.6593  0.8407
  230MOL0     H30356   0.467   9.565   9.285 -1.1516 -0.5385  0.3783
  230MOL0     H30357   0.544   9.718   9.249  0.9277 -1.9137 -1.6025
  230MOL0     H30358   0.214   9.841   9.494  1.5349  1.2692  1.5658
  230MOL0     H30359   0.514   9.378   8.873  2.7728 -2.0116 -1.3950
  230MOL0     H30360   0.520   9.130   8.812 -2.3254 -3.2911 -2.6160
  231MOL0     O30361   1.482   3.495   3.730  0.1155  0.0803  0.7297
  231MOL0     C30362   1.448   3.604   3.685 -0.2805  0.8107  0.3896
  231MOL0     O30363   1.321   3.633   3.647  0.4188 -0.1201  0.4072
  231MOL0     C30364   1.212   3.570   3.701 -0.0100 -0.3262  0.5916
  231MOL0     C30365   1.159   3.617   3.812 -0.6199  0.3364 -0.3652
  231MOL0     C30366   1.051   3.541   3.873  0.2135 -0.8145 -0.7559
  231MOL0     C30367   0.996   3.435   3.808  0.1659  0.6164 -0.2767
  231MOL0     O30368   0.890   3.355   3.849  0.0205 -0.1262 -0.1766
  231MOL0     C30369   0.817   3.399   3.968 -0.7315  0.3905  0.7282
  231MOL0     C30370   0.679   3.338   4.006 -0.3625 -0.1257 -0.6031
  231MOL0     C30371   0.586   3.379   3.886  0.1736 -0.0330  0.3884
  231MOL0     C30372   0.435   3.363   3.909  0.3150  0.5805  0.1768
  231MOL0     C30373   0.364   3.368   3.783  1.6533 -0.1696  0.3442
  231MOL0     C30374   0.211   3.318   3.795  0.5723 -0.0461 -0.5049
  231MOL0     C30375   0.210   3.165   3.786 -0.0220  0.0834 -0.1959
  231MOL0     C30376   0.075   3.098   3.807 -0.3243  0.4885  1.1440
  231MOL0     N30377   0.077   2.946   3.793  0.2675 -0.4924 -0.2693
  231MOL0     C30378   0.096   2.866   3.901  0.7954  0.3905 -0.9222
  231MOL0     C30379   0.089   2.744   3.853 -0.4083 -0.5272 -0.0633
  231MOL0     C30380   0.104   2.620   3.930  0.0620  0.2778 -0.0407
  231MOL0     C30381   0.106   2.489   3.857 -1.4183  0.0565  0.0804
  231MOL0     C30382  -0.035   2.452   3.804 -0.7182  0.5508  0.6409
  231MOL0     C30383  -0.023   2.313   3.738  0.4223  0.1989 -0.1413
  231MOL0     O30384  -0.136   2.288   3.652 -0.1456  0.0321 -0.0869
  231MOL0     C30385  -0.253   2.235   3.708 -1.0037 -1.0805  0.5348
  231MOL0     C30386  -0.269   2.189   3.838 -0.2111  0.6653 -0.3531
  231MOL0     C30387  -0.395   2.141   3.886  0.1925  0.6575  0.5942
  231MOL0     C30388  -0.499   2.129   3.796  0.2065  0.7842 -0.7552
  231MOL0     C30389  -0.615   2.050   3.828  0.0371 -1.1529 -0.0350
  231MOL0     O30390  -0.629   2.007   3.956  0.1543  0.1480 -0.8862
  231MOL0     C30391  -0.735   1.931   3.992  0.0671  0.5062 -0.4486
  231MOL0     C30392  -0.828   1.980   4.089  0.1396 -0.2979 -0.6510
  231MOL0     C30393  -0.945   1.920   4.113 -0.5800  0.7366 -0.1154
  231MOL0     C30394  -0.965   1.788   4.062 -0.3404  0.2141  1.2041
  231MOL0     O30395  -1.079   1.717   4.099  0.3080 -0.0394  0.2917
  231MOL0     C30396  -1.205   1.786   4.091  0.2635  1.0102 -0.2439
  231MOL0     C30397  -1.281   1.787   4.221 -0.5046 -0.0486 -0.4508
  231MOL0     C30398  -1.428   1.838   4.215 -0.1915 -0.0574 -0.5604
  231MOL0     C30399  -1.485   1.849   4.366  0.5653 -0.1981 -0.0035
  231MOL0     C30400  -1.529   1.996   4.385  0.3343 -0.5789  0.5165
  231MOL0     C30401  -1.623   2.002   4.509  0.1360  0.1045 -0.4480
  231MOL0     C30402  -1.643   2.147   4.554  0.0973  0.4358 -0.4991
  231MOL0     C30403  -1.716   2.162   4.685  0.8678  0.1267 -0.3052
  231MOL0    Cl30404  -1.890   2.213   4.656  0.4299  0.1002 -0.2735
  231MOL0     C30405  -0.874   1.735   3.971 -0.1345 -0.2665 -0.4572
  231MOL0     C30406  -0.767   1.810   3.930 -0.2092 -0.0498  0.1780
  231MOL0     O30407  -0.696   2.039   3.740  0.3464  0.1144 -0.1136
  231MOL0     C30408  -0.472   2.165   3.659 -0.0824 -0.0337 -0.0570
  231MOL0     C30409  -0.353   2.222   3.619  0.7675 -0.6975 -0.5061
  231MOL0     N30410   0.082   2.749   3.715 -0.4979  1.0092  0.5270
  231MOL0     N30411   0.070   2.872   3.681 -0.6725 -0.1780 -0.0019
  231MOL0     C30412   1.053   3.392   3.684  0.7389 -0.1054 -0.3872
  231MOL0     C30413   1.155   3.466   3.627 -0.2701  0.2683  0.5976
  231MOL0     C30414   1.553   3.701   3.659 -0.7241  0.0854  0.2923
  231MOL0     C30415   1.691   3.671   3.645 -1.1686 -0.1628 -0.1477
  231MOL0     C30416   1.783   3.766   3.606 -0.0832  0.5022 -0.3878
  231MOL0     C30417   1.750   3.902   3.590 -0.7141 -0.0354  0.0417
  231MOL0     O30418   1.827   4.009   3.564  0.1836  0.2524 -0.5175
  231MOL0     C30419   1.966   4.001   3.581 -0.1773 -0.2181  0.0506
  231MOL0     C30420   2.022   4.094   3.475 -0.6790 -1.0085  0.0891
  231MOL0     C30421   2.166   4.066   3.432  0.6354  0.4057  0.1734
  231MOL0     C30422   2.265   4.083   3.542 -0.5576  0.1188 -0.7655
  231MOL0     C30423   2.400   4.077   3.487 -0.1638 -0.0878 -0.4633
  231MOL0     C30424   2.518   4.068   3.457  0.3039  0.1946  0.9487
  231MOL0     C30425   1.615   3.941   3.608 -0.2830 -0.0504  0.9215
  231MOL0     C30426   1.523   3.842   3.645 -0.5804  0.4999  0.2034
  231MOL0     H30427   1.197   3.705   3.861 -0.1477 -0.0544 -0.0147
  231MOL0     H30428   1.020   3.566   3.974 -3.1703 -2.2219 -1.3040
  231MOL0     H30429   0.799   3.506   3.953  0.2011  0.3571 -0.9808
  231MOL0     H30430   0.882   3.397   4.056  1.4628 -0.0513 -0.8076
  231MOL0     H30431   0.650   3.381   4.102  1.5499  0.7656 -0.3710
  231MOL0     H30432   0.693   3.230   4.018 -0.2927 -0.1943 -1.2910
  231MOL0     H30433   0.614   3.317   3.801 -2.3143  0.7615 -1.1248
  231MOL0     H30434   0.595   3.485   3.860  0.3955 -0.1546 -0.0285
  231MOL0     H30435   0.419   3.270   3.965  0.5177  1.4204  1.6722
  231MOL0     H30436   0.392   3.438   3.976 -0.7858 -1.0623  1.3958
  231MOL0     H30437   0.418   3.321   3.700  1.3919  0.7115 -0.3367
  231MOL0     H30438   0.354   3.474   3.755  0.8804 -0.5295 -0.8375
  231MOL0     H30439   0.152   3.354   3.710  0.6619 -0.7757 -0.8781
  231MOL0     H30440   0.159   3.344   3.887 -1.9350  0.0320 -1.8760
  231MOL0     H30441   0.255   3.131   3.693  1.4114  0.3767  0.3654
  231MOL0     H30442   0.272   3.122   3.866  0.1127 -0.5253 -0.6222
  231MOL0     H30443   0.005   3.136   3.733  1.2899 -0.1860 -0.8180
  231MOL0     H30444   0.030   3.128   3.903 -0.1521  0.3565  1.2672
  231MOL0     H30445   0.105   2.902   4.003  3.0495 -0.7238 -0.6478
  231MOL0     H30446   0.028   2.610   4.008  0.3737 -0.3023  0.1947
  231MOL0     H30447   0.204   2.622   3.974  1.1161 -1.6503 -2.1262
  231MOL0     H30448   0.143   2.407   3.919  0.9054  0.0677 -1.2041
  231MOL0     H30449   0.171   2.491   3.769  0.2266 -2.5469  1.1215
  231MOL0     H30450  -0.116   2.451   3.877 -1.4744  1.1016 -0.1688
  231MOL0     H30451  -0.063   2.524   3.726 -1.1415 -0.4851 -0.1926
  231MOL0     H30452  -0.003   2.242   3.819  1.5221  1.0431  0.3518
  231MOL0     H30453   0.068   2.312   3.677  1.3581 -1.8406  1.1715
  231MOL0     H30454  -0.188   2.188   3.910  1.1775 -1.0623 -1.8462
  231MOL0     H30455  -0.404   2.102   3.987 -0.4579 -1.9570 -0.4064
  231MOL0     H30456  -0.793   2.066   4.145 -1.4203  0.2658 -0.5077
  231MOL0     H30457  -1.022   1.964   4.176 -0.8854  0.6139 -0.4017
  231MOL0     H30458  -1.267   1.719   4.032 -0.0883  0.8870  0.2574
  231MOL0     H30459  -1.197   1.890   4.059 -1.1466  1.9335  2.0992
  231MOL0     H30460  -1.235   1.851   4.297  0.6995 -0.1918 -1.0319
  231MOL0     H30461  -1.288   1.683   4.253  3.0876 -1.0369 -2.2522
  231MOL0     H30462  -1.489   1.772   4.152 -0.9654  2.9300 -3.1822
  231MOL0     H30463  -1.424   1.930   4.156  0.8146  0.3526  0.1135
  231MOL0     H30464  -1.565   1.777   4.388  0.2642 -0.3309 -1.4034
  231MOL0     H30465  -1.408   1.830   4.441 -0.3691 -0.6465  0.8673
  231MOL0     H30466  -1.587   2.030   4.299 -0.9355  0.5850  1.7757
  231MOL0     H30467  -1.439   2.059   4.388  1.1009 -1.5962 -0.3932
  231MOL0     H30468  -1.579   1.953   4.596  0.0868 -0.3212 -0.6595
  231MOL0     H30469  -1.721   1.955   4.491  0.1629  0.2790 -1.0832
  231MOL0     H30470  -1.542   2.187   4.572  0.1040 -0.3596  1.4856
  231MOL0     H30471  -1.696   2.202   4.475  2.2486  0.0516 -2.3232
  231MOL0     H30472  -1.681   2.252   4.737 -1.9110  0.6884  0.7655
  231MOL0     H30473  -1.706   2.076   4.752  0.2961 -1.0131 -1.6298
  231MOL0     H30474  -0.892   1.633   3.936 -4.1104 -0.6537  2.0603
  231MOL0     H30475  -0.701   1.769   3.854 -0.2539 -0.0011  0.1129
  231MOL0     H30476  -0.551   2.157   3.585  0.2858 -1.7991 -0.2910
  231MOL0     H30477  -0.345   2.248   3.514  2.6569  0.6428 -0.0780
  231MOL0     H30478   1.007   3.312   3.628  2.0768 -1.1024 -0.1333
  231MOL0     H30479   1.188   3.450   3.525  2.0130  0.8066  1.1812
  231MOL0     H30480   1.720   3.567   3.656  0.7857  0.5026  1.6491
  231MOL0     H30481   1.885   3.731   3.603 -0.1216  0.0203  1.9689
  231MOL0     H30482   2.004   3.898   3.578  0.8652  0.1628 -2.1162
  231MOL0     H30483   1.982   4.033   3.684  4.3905 -1.0606 -0.1671
  231MOL0     H30484   1.960   4.081   3.386  1.4638 -3.8965 -1.1359
  231MOL0     H30485   2.023   4.198   3.506  0.2775 -1.2859  1.0355
  231MOL0     H30486   2.189   4.144   3.359  1.7837 -0.2625 -0.2126
  231MOL0     H30487   2.180   3.970   3.380  2.6245 -0.1027  1.4917
  231MOL0     H30488   2.258   4.182   3.587 -1.2395 -0.7255  1.0973
  231MOL0     H30489   2.248   4.012   3.624  1.7909 -0.5407 -0.7819
  231MOL0     H30490   2.622   4.072   3.431  0.7203  0.2325  2.5497
  231MOL0     H30491   1.589   4.045   3.594 -0.5768 -0.0772  1.2331
  231MOL0     H30492   1.424   3.884   3.658 -0.0599  1.3872  1.6412
  232MOL0     O30493   4.906   1.977   9.663  0.2752  0.0069  0.6150
  232MOL0     C30494   4.880   1.985   9.785  0.0693  0.1605 -1.2691
  232MOL0     O30495   4.761   1.972   9.837  0.3542 -0.2345  0.0921
  232MOL0     C30496   4.653   1.967   9.751 -0.7712 -0.5302  0.3526
  232MOL0     C30497   4.571   1.854   9.756 -0.0631  0.6668 -0.3106
  232MOL0     C30498   4.461   1.836   9.675  0.2885 -0.1823  0.4070
  232MOL0     C30499   4.420   1.944   9.590  0.5233  1.2276  0.3941
  232MOL0     O30500   4.305   1.938   9.513  0.5722  0.3527 -0.3457
  232MOL0     C30501   4.195   1.849   9.532  0.7875 -0.2625  0.2862
  232MOL0     C30502   4.065   1.917   9.495  0.8884  0.3666 -0.0629
  232MOL0     C30503   3.948   1.814   9.505  0.4527 -0.5825  0.0045
  232MOL0     C30504   3.810   1.874   9.478 -0.1578  0.0122  0.7725
  232MOL0     C30505   3.705   1.755   9.476 -0.6120 -0.3560 -0.3031
  232MOL0     C30506   3.567   1.810   9.438  0.1619  0.0472 -0.6483
  232MOL0     C30507   3.463   1.698   9.478 -0.1108 -0.2949 -0.7520
  232MOL0     C30508   3.320   1.726   9.457  0.2940 -0.4396  0.1789
  232MOL0     N30509   3.236   1.616   9.502  0.2473  0.8473 -0.5904
  232MOL0     C30510   3.190   1.591   9.624  0.7671  0.0534 -0.3448
  232MOL0     C30511   3.119   1.477   9.620 -0.1202  0.7299  0.2381
  232MOL0     C30512   3.040   1.415   9.732 -0.0256 -0.0766 -0.0004
  232MOL0     C30513   2.989   1.513   9.837 -0.2964 -1.6240  0.5475
  232MOL0     C30514   2.934   1.458   9.961  0.2277  0.1087  0.4904
  232MOL0     C30515   2.810   1.371   9.928 -0.4238 -0.9032  0.6000
  232MOL0     O30516   2.755   1.311  10.045 -0.2096  0.5818  0.1954
  232MOL0     C30517   2.649   1.224  10.031  0.7979  0.9300  0.9779
  232MOL0     C30518   2.596   1.149  10.146 -0.2333 -0.2575 -0.1238
  232MOL0     C30519   2.493   1.062  10.135 -0.2562 -0.0075  0.3223
  232MOL0     C30520   2.428   1.034  10.006 -0.4810  0.0312  0.0996
  232MOL0     C30521   2.324   0.931  10.000  0.2265  0.1489 -0.6368
  232MOL0     O30522   2.319   0.823  10.091 -0.2600 -0.1193  1.2827
  232MOL0     C30523   2.207   0.753  10.085  0.3815 -0.0223 -0.6248
  232MOL0     C30524   2.101   0.782  10.172  0.6342 -0.7311  0.8860
  232MOL0     C30525   1.978   0.714  10.161  0.3568 -0.1043 -0.0098
  232MOL0     C30526   1.966   0.617  10.056  0.1371 -0.0932 -1.0951
  232MOL0     O30527   1.841   0.561  10.034  0.5694 -0.4277 -0.3157
  232MOL0     C30528   1.719   0.624  10.075  0.1289  0.7197  0.5472
  232MOL0     C30529   1.660   0.577  10.211 -0.1936 -0.6951 -0.7755
  232MOL0     C30530   1.517   0.636  10.243 -0.8151 -0.5843 -0.2451
  232MOL0     C30531   1.407   0.581  10.160 -0.0457  0.4297 -0.2088
  232MOL0     C30532   1.268   0.651  10.207 -0.3481  0.4816  0.3203
  232MOL0     C30533   1.204   0.579  10.328 -0.4519 -0.1205  0.2817
  232MOL0     C30534   1.062   0.627  10.357  0.4107 -0.6902  0.0851
  232MOL0     C30535   1.018   0.555  10.486 -0.0173  0.1249 -0.5374
  232MOL0    Cl30536   1.117   0.616  10.629  0.3431  0.2276  0.2692
  232MOL0     C30537   2.069   0.581   9.969 -1.1057 -0.3105  0.4020
  232MOL0     C30538   2.199   0.655   9.979  0.6584 -0.1249  0.0865
  232MOL0     O30539   2.237   0.965   9.914 -0.1142  0.2382 -1.0058
  232MOL0     C30540   2.475   1.118   9.895  0.2697 -0.2881  0.2325
  232MOL0     C30541   2.576   1.209   9.912  0.2549  0.3916 -0.7382
  232MOL0     N30542   3.131   1.420   9.499  1.0481 -0.7779 -0.7422
  232MOL0     N30543   3.189   1.513   9.426  0.1416 -0.0535  0.7789
  232MOL0     C30544   4.507   2.045   9.570 -0.7506  0.1574 -0.8122
  232MOL0     C30545   4.620   2.067   9.658  1.1470  0.4874  0.3837
  232MOL0     C30546   4.996   2.018   9.877  0.6656  0.3420  0.3772
  232MOL0     C30547   5.132   2.012   9.832 -0.4575  0.1108  0.2790
  232MOL0     C30548   5.238   2.041   9.920 -0.7220  0.2044  0.3435
  232MOL0     C30549   5.206   2.095  10.044  0.0008  0.1090 -0.7992
  232MOL0     O30550   5.313   2.147  10.114 -0.9193  0.5314  0.1535
  232MOL0     C30551   5.285   2.214  10.237  0.3927  0.1912 -0.3574
  232MOL0     C30552   5.209   2.350  10.219  0.6034  0.1614  0.4317
  232MOL0     C30553   5.215   2.425  10.354 -0.2656 -0.4224 -0.1355
  232MOL0     C30554   5.356   2.467  10.403 -0.1895  0.6824  0.0030
  232MOL0     C30555   5.337   2.560  10.516  0.3699 -0.0970  0.1104
  232MOL0     C30556   5.326   2.649  10.601  0.0599 -1.3496 -0.2412
  232MOL0     C30557   5.072   2.091  10.089  0.1837  0.3084  0.1228
  232MOL0     C30558   4.972   2.054  10.013  0.8487 -0.4630  1.6273
  232MOL0     H30559   4.579   1.785   9.840 -2.2134 -1.6674 -1.8690
  232MOL0     H30560   4.403   1.745   9.688 -1.5462  0.8782  0.0381
  232MOL0     H30561   4.201   1.834   9.640  1.8360  1.7971  0.5720
  232MOL0     H30562   4.211   1.753   9.481 -0.3070 -0.0977 -0.4010
  232MOL0     H30563   4.058   1.944   9.389 -3.0827 -0.4039 -0.1730
  232MOL0     H30564   4.052   2.013   9.545  1.1294  0.4639 -0.1859
  232MOL0     H30565   3.952   1.761   9.601 -1.0757 -1.5670 -0.4454
  232MOL0     H30566   3.965   1.741   9.427  0.4046 -1.5044  0.8404
  232MOL0     H30567   3.794   1.949   9.557  0.3187  0.8880  0.0630
  232MOL0     H30568   3.801   1.935   9.388 -1.4319  0.2778  1.0604
  232MOL0     H30569   3.715   1.712   9.576  2.1899 -0.6163 -0.6330
  232MOL0     H30570   3.740   1.682   9.402  0.3830  0.5947 -0.8060
  232MOL0     H30571   3.566   1.833   9.331  0.2632 -1.9010 -1.1070
  232MOL0     H30572   3.541   1.900   9.494  3.3447  1.1147 -0.6663
  232MOL0     H30573   3.495   1.601   9.438 -2.4401 -0.2725 -2.9633
  232MOL0     H30574   3.463   1.688   9.587 -0.8760  0.9883 -0.6183
  232MOL0     H30575   3.305   1.737   9.349  0.2936 -0.1946  0.2036
  232MOL0     H30576   3.298   1.820   9.508  2.4334  0.8098 -1.0758
  232MOL0     H30577   3.190   1.653   9.713  1.7519  0.1302 -0.3858
  232MOL0     H30578   3.101   1.342   9.786 -2.0253 -1.3301  0.6993
  232MOL0     H30579   2.956   1.358   9.693  1.1683 -2.9603  1.3745
  232MOL0     H30580   2.915   1.581   9.795 -1.6355 -2.4109  1.5334
  232MOL0     H30581   3.077   1.569   9.868  0.8800 -1.9469 -1.9346
  232MOL0     H30582   3.002   1.388  10.010 -0.6598 -1.3176 -0.2388
  232MOL0     H30583   2.900   1.536  10.029 -0.2996  2.4548 -2.2542
  232MOL0     H30584   2.833   1.297   9.851  1.2470 -0.4338  0.6253
  232MOL0     H30585   2.735   1.438   9.884  1.8466  0.9129 -0.6751
  232MOL0     H30586   2.635   1.166  10.245  0.7584  0.6843 -0.6547
  232MOL0     H30587   2.454   1.005  10.219 -1.3735  2.7591  1.8283
  232MOL0     H30588   2.119   0.856  10.250 -1.2848  0.4626  0.2836
  232MOL0     H30589   1.889   0.736  10.219  1.3061 -0.6359  1.7006
  232MOL0     H30590   1.647   0.592  10.000  0.9279 -0.8035  0.3970
  232MOL0     H30591   1.717   0.733  10.065  2.1630  0.6192 -1.8409
  232MOL0     H30592   1.728   0.607  10.291 -1.2165  1.1237 -0.5426
  232MOL0     H30593   1.654   0.467  10.209  1.4109 -0.7981 -2.0989
  232MOL0     H30594   1.523   0.745  10.244 -1.7309 -0.5145 -0.7701
  232MOL0     H30595   1.497   0.604  10.346 -3.7932  0.4304 -0.3986
  232MOL0     H30596   1.431   0.619  10.060  0.6085  0.2929 -0.1083
  232MOL0     H30597   1.396   0.472  10.163  1.9770  0.1441  4.2839
  232MOL0     H30598   1.209   0.658  10.116  0.1526 -1.0687 -0.1540
  232MOL0     H30599   1.288   0.756  10.232 -0.0941  0.2671  1.0453
  232MOL0     H30600   1.262   0.601  10.418  0.0959  0.4368 -0.1996
  232MOL0     H30601   1.191   0.475  10.297 -0.1568  0.1770 -0.8910
  232MOL0     H30602   1.070   0.735  10.368 -0.4855 -0.6339  0.2202
  232MOL0     H30603   0.992   0.608  10.276 -0.4608  2.2000  0.0569
  232MOL0     H30604   1.023   0.447  10.470 -1.3033  0.2021 -1.5738
  232MOL0     H30605   0.915   0.583  10.511  0.4015  0.1009  1.3846
  232MOL0     H30606   2.060   0.518   9.881 -0.2371  0.6879 -0.4297
  232MOL0     H30607   2.277   0.639   9.905 -1.3512 -1.6285 -1.8418
  232MOL0     H30608   2.432   1.110   9.795 -0.3066 -2.5831  0.6013
  232MOL0     H30609   2.597   1.263   9.820 -0.5986 -1.4965 -2.1051
  232MOL0     H30610   4.500   2.119   9.492  2.7515 -0.3020 -1.7063
  232MOL0     H30611   4.694   2.145   9.643  2.5575 -1.0267 -0.9736
  232MOL0     H30612   5.152   1.983   9.729  2.0962  0.7482  0.5097
  232MOL0     H30613   5.340   2.031   9.885 -1.7663 -0.8560 -2.7676
  232MOL0     H30614   5.382   2.233  10.282  0.2348  0.0483  0.0507
  232MOL0     H30615   5.234   2.140  10.300 -1.2759 -2.0382 -4.0159
  232MOL0     H30616   5.257   2.403  10.136  2.2692 -0.9633  0.6099
  232MOL0     H30617   5.106   2.342  10.185  0.6712  0.7547  0.0686
  232MOL0     H30618   5.167   2.360  10.427  0.6119 -1.7272 -0.6756
  232MOL0     H30619   5.148   2.511  10.348  0.7776  0.5267  1.1201
  232MOL0     H30620   5.408   2.386  10.454  1.4065 -1.1173 -4.0530
  232MOL0     H30621   5.428   2.504  10.330  1.5542  0.2544  1.4442
  232MOL0     H30622   5.316   2.742  10.654  2.4547  0.5218 -2.7830
  232MOL0     H30623   5.042   2.130  10.186  1.9029  0.8225  0.4846
  232MOL0     H30624   4.872   2.053  10.056  0.6175 -0.8011  1.1007
  233MOL0     O30625   3.557  10.974   1.652  0.0148 -0.7072 -0.1991
  233MOL0     C30626   3.525  10.897   1.561  0.1261 -0.4928  0.1407
  233MOL0     O30627   3.412  10.816   1.558 -0.6124 -0.2697  0.0638
  233MOL0     C30628   3.318  10.825   1.661  0.3616 -0.3139  0.4230
  233MOL0     C30629   3.354  10.789   1.793  0.5838 -0.6715 -0.4515
  233MOL0     C30630   3.263  10.809   1.894 -0.1538 -0.5733 -0.5806
  233MOL0     C30631   3.137  10.865   1.870  0.1355 -0.7058 -0.4861
  233MOL0     O30632   3.058  10.897   1.980  0.6050  0.0902  0.0755
  233MOL0     C30633   2.928  10.960   1.954 -0.8493  0.6720  0.1214
  233MOL0     C30634   2.839  10.957   2.085  0.0399  0.0343  0.7532
  233MOL0     C30635   2.713  11.035   2.074  1.1446 -0.7123 -0.3462
  233MOL0     C30636   2.629  11.013   2.202 -0.1469  0.6079  0.6009
  233MOL0     C30637   2.484  11.050   2.179  0.4431 -0.5624 -0.3054
  233MOL0     C30638   2.398  11.005   2.295  0.1104  0.3111  1.1823
  233MOL0     C30639   2.245  10.996   2.252 -0.2142 -0.1371  0.4890
  233MOL0     C30640   2.143  10.978   2.367 -0.0602  0.0224  0.8133
  233MOL0     N30641   2.134  10.842   2.424 -0.1710  0.0870 -0.2687
  233MOL0     C30642   2.034  10.757   2.386 -0.6603  0.8265  0.3953
  233MOL0     C30643   2.058  10.645   2.454  0.4837  1.0221 -0.8352
  233MOL0     C30644   1.954  10.527   2.453  0.5112  0.7030 -0.1829
  233MOL0     C30645   2.002  10.414   2.358  0.0300 -0.3176  0.1949
  233MOL0     C30646   1.904  10.298   2.362 -0.2333  0.7404  0.3963
  233MOL0     C30647   1.860  10.226   2.489 -0.1542 -0.7653 -0.4680
  233MOL0     O30648   1.746  10.294   2.545 -0.2972 -0.6672  0.0947
  233MOL0     C30649   1.638  10.229   2.585  0.8116  0.3025 -0.1273
  233MOL0     C30650   1.551  10.161   2.500 -0.1046  0.3538  0.1099
  233MOL0     C30651   1.438  10.098   2.549 -0.0420  0.6009 -0.1661
  233MOL0     C30652   1.409  10.095   2.686 -0.3858  0.6670 -0.1564
  233MOL0     C30653   1.280  10.040   2.734 -0.5383 -0.2926  0.8355
  233MOL0     O30654   1.240  10.063   2.861 -0.2113  0.1466 -0.3864
  233MOL0     C30655   1.105  10.041   2.880  0.4761 -0.4001  0.0736
  233MOL0     C30656   1.006  10.100   2.797  0.3418 -0.9419 -0.4598
  233MOL0     C30657   0.873  10.080   2.822  0.5151  0.1969  0.1699
  233MOL0     C30658   0.836   9.980   2.917 -0.8839 -0.2451 -0.0335
  233MOL0     O30659   0.699   9.961   2.925  0.4599 -0.4907  0.5225
  233MOL0     C30660   0.635   9.897   3.040 -0.4785  0.3402  0.1002
  233MOL0     C30661   0.486   9.869   3.000  0.4526 -0.9336 -0.8264
  233MOL0     C30662   0.476   9.798   2.858 -0.2199  0.5546 -0.0872
  233MOL0     C30663   0.523   9.650   2.874 -0.1009  0.3149  0.3254
  233MOL0     C30664   0.502   9.569   2.751 -0.0589  0.2993  0.2202
  233MOL0     C30665   0.546   9.426   2.778 -0.3605  0.3202 -0.1062
  233MOL0     C30666   0.548   9.340   2.654  0.6502  0.4280  0.0189
  233MOL0     C30667   0.409   9.293   2.622 -0.3493  0.2202 -0.9789
  233MOL0    Cl30668   0.402   9.155   2.506 -0.5334  0.2277  0.1890
  233MOL0     C30669   0.934   9.914   2.991 -0.0052 -0.3686  0.6528
  233MOL0     C30670   1.067   9.950   2.972  0.0148 -0.2500 -0.6122
  233MOL0     O30671   1.216   9.978   2.649 -0.8347  0.1430 -0.1560
  233MOL0     C30672   1.499  10.160   2.776 -0.3706  0.5335 -0.2985
  233MOL0     C30673   1.608  10.231   2.720 -0.2002 -0.0083 -0.6930
  233MOL0     N30674   2.166  10.663   2.534  0.8200  0.1042 -1.0989
  233MOL0     N30675   2.215  10.782   2.516 -0.2377  0.2973  0.2107
  233MOL0     C30676   3.094  10.896   1.739  0.7734  0.5705  0.6148
  233MOL0     C30677   3.188  10.872   1.635  1.1449  0.0838 -0.2391
  233MOL0     C30678   3.613  10.897   1.437 -0.3604  0.7297 -0.1597
  233MOL0     C30679   3.717  10.994   1.423  0.5182  0.2078 -0.7735
  233MOL0     C30680   3.799  10.966   1.317  0.3284 -0.0086  0.0730
  233MOL0     C30681   3.780  10.862   1.230  0.7652  0.6416  0.5073
  233MOL0     O30682   3.869  10.847   1.117  1.0726  0.3705  0.3394
  233MOL0     C30683   3.980  10.766   1.155  0.3408 -0.5037 -0.3358
  233MOL0     C30684   3.972  10.617   1.124  0.9927 -0.3222  0.2189
  233MOL0     C30685   3.948  10.601   0.969 -1.0593 -0.3458 -0.1333
  233MOL0     C30686   3.992  10.460   0.940 -0.4449 -0.0004  0.2232
  233MOL0     C30687   4.035  10.470   0.800  0.3580  0.6870  0.3124
  233MOL0     C30688   4.085  10.487   0.693  0.6389 -0.4863 -0.5572
  233MOL0     C30689   3.673  10.768   1.247  0.2002 -0.5789  0.1017
  233MOL0     C30690   3.597  10.783   1.355  0.1415 -0.3125 -0.4169
  233MOL0     H30691   3.451  10.746   1.813  0.2811  0.0674  3.3812
  233MOL0     H30692   3.281  10.794   2.000 -2.0317  1.5010  0.1159
  233MOL0     H30693   2.876  10.888   1.890  0.8355 -1.7158  1.2646
  233MOL0     H30694   2.935  11.059   1.910 -0.9339  0.4271 -0.4427
  233MOL0     H30695   2.904  10.998   2.162  2.7358 -1.4930 -0.5746
  233MOL0     H30696   2.824  10.850   2.103  0.1107 -0.2572 -0.7676
  233MOL0     H30697   2.653  11.006   1.987  1.1617  0.5763 -0.8192
  233MOL0     H30698   2.744  11.138   2.050  1.3269 -0.5194  0.6886
  233MOL0     H30699   2.630  10.905   2.221  0.9824  1.0345  3.3054
  233MOL0     H30700   2.672  11.062   2.290  0.0987  2.6663 -0.5925
  233MOL0     H30701   2.444  11.000   2.090 -0.5105 -0.7791  0.2361
  233MOL0     H30702   2.468  11.158   2.167  3.9663  0.3309  1.4899
  233MOL0     H30703   2.399  11.078   2.376 -1.2493  2.3379 -0.4885
  233MOL0     H30704   2.437  10.911   2.335 -1.0218 -0.5918  0.2701
  233MOL0     H30705   2.221  11.087   2.196  1.9980  0.5175  0.5137
  233MOL0     H30706   2.234  10.909   2.186 -1.5817  0.8620 -0.6581
  233MOL0     H30707   2.043  11.006   2.335  0.1270 -0.7826 -0.5652
  233MOL0     H30708   2.174  11.043   2.449 -0.3021  1.1350  0.0434
  233MOL0     H30709   1.959  10.778   2.311 -0.4309 -0.9944 -0.3804
  233MOL0     H30710   1.865  10.561   2.400  0.1364 -3.2338 -2.4138
  233MOL0     H30711   1.921  10.486   2.550 -3.6016  0.4152 -1.5060
  233MOL0     H30712   2.095  10.380   2.405 -0.6076  1.1244  2.7159
  233MOL0     H30713   2.013  10.463   2.261  0.0856  1.2873  0.9848
  233MOL0     H30714   1.811  10.332   2.316 -0.5893  0.2597  0.7512
  233MOL0     H30715   1.943  10.209   2.311 -2.4122 -0.2149  0.2761
  233MOL0     H30716   1.942  10.240   2.561 -1.2048  1.6147  0.3885
  233MOL0     H30717   1.836  10.119   2.483  0.5020 -0.8241 -3.3152
  233MOL0     H30718   1.571  10.162   2.393  0.9616  1.9553  0.2846
  233MOL0     H30719   1.381  10.035   2.482  1.8150  0.8237 -2.0899
  233MOL0     H30720   1.028  10.170   2.717 -1.8257  0.1287 -0.2150
  233MOL0     H30721   0.796  10.134   2.768 -0.5659 -0.9732  0.4957
  233MOL0     H30722   0.626   9.964   3.126  2.0221  0.8886  0.0175
  233MOL0     H30723   0.687   9.808   3.077  1.2141  0.7099 -1.2342
  233MOL0     H30724   0.436   9.966   2.998 -2.2642 -2.2262 -0.3585
  233MOL0     H30725   0.442   9.800   3.073  0.0313 -0.5854 -0.7497
  233MOL0     H30726   0.537   9.859   2.791  0.0478  2.6712  1.9860
  233MOL0     H30727   0.370   9.794   2.828 -1.3695  3.5502  2.9628
  233MOL0     H30728   0.628   9.642   2.903 -0.1805  0.4413  0.6577
  233MOL0     H30729   0.478   9.600   2.960  1.0505 -2.4907 -0.6115
  233MOL0     H30730   0.556   9.612   2.667  2.3910  0.3405  1.7189
  233MOL0     H30731   0.397   9.572   2.719  0.2985  1.3296 -0.9081
  233MOL0     H30732   0.475   9.383   2.850 -1.9610  0.1447 -1.7295
  233MOL0     H30733   0.641   9.439   2.832 -1.4685  1.8102  1.6141
  233MOL0     H30734   0.598   9.388   2.570  1.3033  1.2442  0.8627
  233MOL0     H30735   0.607   9.249   2.669 -0.8967 -0.9463 -1.6632
  233MOL0     H30736   0.361   9.377   2.572  0.8197  0.2184 -2.1862
  233MOL0     H30737   0.346   9.264   2.707 -1.0333  0.6127 -1.3481
  233MOL0     H30738   0.912   9.840   3.068  1.1636 -0.5466  0.8455
  233MOL0     H30739   1.142   9.891   3.023 -0.9119  0.3698  1.5629
  233MOL0     H30740   1.470  10.177   2.879  0.1854 -0.1012 -0.0337
  233MOL0     H30741   1.664  10.296   2.786 -1.0920 -0.3437  0.4357
  233MOL0     H30742   3.001  10.944   1.710  1.2925  0.1126 -2.0123
  233MOL0     H30743   3.162  10.902   1.534 -2.4594 -0.4056  0.3983
  233MOL0     H30744   3.739  11.072   1.496 -1.4303  0.6312 -0.5988
  233MOL0     H30745   3.870  11.038   1.277 -0.2176 -0.9950 -2.9340
  233MOL0     H30746   4.019  10.785   1.255  1.5839  1.9695 -1.1904
  233MOL0     H30747   4.063  10.795   1.089 -0.6125 -0.3251 -1.4839
  233MOL0     H30748   4.065  10.566   1.151  1.3926 -0.3204 -1.0782
  233MOL0     H30749   3.890  10.573   1.181  1.1844  0.2165  0.9292
  233MOL0     H30750   4.001  10.686   0.926 -0.9849 -0.2567  0.1361
  233MOL0     H30751   3.843  10.609   0.941 -0.7987  0.7926 -0.8417
  233MOL0     H30752   4.071  10.421   1.005 -0.7716 -0.8541  0.1201
  233MOL0     H30753   3.910  10.389   0.951 -1.0848  0.7479  0.3807
  233MOL0     H30754   4.144  10.501   0.605  1.0028 -0.3133 -0.2841
  233MOL0     H30755   3.661  10.681   1.183 -1.6352 -0.6644  0.4852
  233MOL0     H30756   3.525  10.703   1.369  1.1806 -1.7617 -2.8216
  234MOL0     O30757   6.582   8.458   9.987 -0.1494  0.1301  0.3840
  234MOL0     C30758   6.616   8.514  10.090 -0.3122 -0.1293  0.7930
  234MOL0     O30759   6.540   8.570  10.187 -0.4839  0.1224  0.6491
  234MOL0     C30760   6.404   8.565  10.170 -0.4971 -0.7527 -0.0849
  234MOL0     C30761   6.329   8.454  10.123  0.4237 -0.1696 -0.6016
  234MOL0     C30762   6.186   8.466  10.104  0.0556  0.0700  0.6806
  234MOL0     C30763   6.118   8.583  10.139 -0.1583  0.2848 -0.2356
  234MOL0     O30764   5.982   8.598  10.141 -0.3669 -0.6243  0.7337
  234MOL0     C30765   5.932   8.580  10.013 -0.4058  0.9707  0.7097
  234MOL0     C30766   5.779   8.566  10.021 -0.5522 -0.6530 -0.1416
  234MOL0     C30767   5.707   8.704  10.020  0.7125  0.2343  0.8853
  234MOL0     C30768   5.550   8.680  10.026  0.4609 -0.5916  0.3784
  234MOL0     C30769   5.483   8.819  10.024 -0.9233 -0.2064  0.5171
  234MOL0     C30770   5.333   8.810  10.015 -0.0712 -0.4596 -0.4051
  234MOL0     C30771   5.295   8.942   9.946 -0.0113  0.0843  0.0345
  234MOL0     C30772   5.146   8.966   9.960  0.7179 -0.4346  0.0237
  234MOL0     N30773   5.094   9.072   9.873 -0.0426  0.6027  0.7649
  234MOL0     C30774   5.080   9.063   9.734  0.4318  0.5280  0.8969
  234MOL0     C30775   4.987   9.159   9.701 -0.7109  0.4194  1.0042
  234MOL0     C30776   4.946   9.189   9.554 -0.7711 -0.4596 -0.2292
  234MOL0     C30777   4.807   9.238   9.568  0.0823 -0.2376 -0.7847
  234MOL0     C30778   4.710   9.129   9.589  0.6001  0.0335  0.2066
  234MOL0     C30779   4.562   9.178   9.612 -0.5796  0.2339  0.3498
  234MOL0     O30780   4.525   9.255   9.503  1.0956  0.3004 -0.2624
  234MOL0     C30781   4.389   9.272   9.489  0.3813  0.0317 -0.3531
  234MOL0     C30782   4.340   9.303   9.365 -0.3979 -0.2559  1.0961
  234MOL0     C30783   4.203   9.324   9.350 -0.5563 -0.0251 -0.3322
  234MOL0     C30784   4.109   9.315   9.456  0.0175 -0.6250 -0.6198
  234MOL0     C30785   3.968   9.354   9.429 -1.1518 -0.5196  0.4961
  234MOL0     O30786   3.886   9.316   9.526 -0.3129 -0.4462 -0.4109
  234MOL0     C30787   3.752   9.346   9.512  0.2145  0.0043  0.1420
  234MOL0     C30788   3.699   9.448   9.587  0.6016  0.3610 -0.6385
  234MOL0     C30789   3.573   9.502   9.566 -0.3248  0.1070  0.5882
  234MOL0     C30790   3.487   9.439   9.471  0.8743  0.5757 -0.6828
  234MOL0     O30791   3.363   9.473   9.461 -0.0549 -0.9467 -0.0221
  234MOL0     C30792   3.277   9.420   9.566 -0.8389 -0.2043  0.8385
  234MOL0     C30793   3.172   9.522   9.591  0.3240  0.3221 -0.5461
  234MOL0     C30794   3.224   9.653   9.651 -0.7529  0.0132 -0.2234
  234MOL0     C30795   3.117   9.766   9.656  0.2383 -0.0773  0.9932
  234MOL0     C30796   3.174   9.898   9.707  0.5768 -0.2807  0.0148
  234MOL0     C30797   3.053   9.986   9.750 -0.0507 -0.6977 -0.2730
  234MOL0     C30798   2.960  10.019   9.626  0.9342 -0.0955  0.4766
  234MOL0     C30799   2.849  10.115   9.670 -0.8582  0.2443 -0.5458
  234MOL0    Cl30800   2.748  10.057   9.814 -0.1171  0.1328 -0.2174
  234MOL0     C30801   3.534   9.330   9.388 -0.7838  0.0349  0.7790
  234MOL0     C30802   3.669   9.287   9.407 -0.4927  0.4343  0.6995
  234MOL0     O30803   3.928   9.427   9.340 -0.1093  0.1286 -0.2932
  234MOL0     C30804   4.162   9.294   9.581  0.2831 -0.3354 -0.1718
  234MOL0     C30805   4.295   9.267   9.596  0.6658 -0.1028  0.0034
  234MOL0     N30806   4.957   9.229   9.823  0.2094 -0.0106 -0.0219
  234MOL0     N30807   5.017   9.167   9.921 -1.3585 -0.3128  0.3144
  234MOL0     C30808   6.198   8.695  10.190  1.2205  0.2749  0.4541
  234MOL0     C30809   6.336   8.685  10.207  0.8111  0.0194 -1.2406
  234MOL0     C30810   6.762   8.502  10.111 -0.0178 -0.2483  0.1274
  234MOL0     C30811   6.821   8.580  10.212 -0.5424 -0.4989  0.0262
  234MOL0     C30812   6.959   8.596  10.217 -0.1787 -0.6219  0.2443
  234MOL0     C30813   7.043   8.525  10.136  0.0305 -0.4331  0.5285
  234MOL0     O30814   7.176   8.532  10.138  0.0294  0.0361  0.1462
  234MOL0     C30815   7.244   8.602  10.238  0.0196  0.9584 -0.2693
  234MOL0     C30816   7.392   8.571  10.231 -0.6649  0.4383  0.2981
  234MOL0     C30817   7.420   8.427  10.257  0.7357  0.5279  0.3032
  234MOL0     C30818   7.572   8.395  10.260 -0.2384  0.4511 -0.7388
  234MOL0     C30819   7.605   8.258  10.305  0.2032  1.0068 -0.0459
  234MOL0     C30820   7.664   8.152  10.335 -0.4990 -0.3574  0.0102
  234MOL0     C30821   6.989   8.441  10.037  0.3082  0.0643 -0.0670
  234MOL0     C30822   6.848   8.429  10.021 -0.3829  0.4084  0.1921
  234MOL0     H30823   6.375   8.357  10.107  0.1108 -0.1154 -1.9529
  234MOL0     H30824   6.142   8.378  10.059  1.8899 -0.2495 -0.6644
  234MOL0     H30825   5.967   8.482   9.978  1.0476  1.1704  1.4970
  234MOL0     H30826   5.951   8.661   9.941 -0.6536  0.0590 -0.4158
  234MOL0     H30827   5.749   8.505  10.107 -0.5939 -0.3072  0.0883
  234MOL0     H30828   5.745   8.520   9.927 -0.7331  0.6333 -0.7243
  234MOL0     H30829   5.721   8.765   9.930  0.1892 -0.1331  0.5531
  234MOL0     H30830   5.733   8.758  10.111  0.7160 -0.2807  1.1928
  234MOL0     H30831   5.526   8.608   9.947 -0.4120 -1.0998  1.0811
  234MOL0     H30832   5.534   8.632  10.123 -1.2987 -2.2855 -0.6682
  234MOL0     H30833   5.515   8.867   9.930  1.2247 -0.4030  1.0855
  234MOL0     H30834   5.514   8.878  10.111 -2.8146  0.2349  0.9306
  234MOL0     H30835   5.288   8.794  10.113  0.8339 -0.5847 -0.0033
  234MOL0     H30836   5.311   8.732   9.941  0.4791  1.8100 -3.1551
  234MOL0     H30837   5.343   9.023  10.002  0.0668  1.9136 -2.5424
  234MOL0     H30838   5.327   8.947   9.842  0.6987  0.6445  0.2735
  234MOL0     H30839   5.128   8.998  10.062 -0.8894 -1.0373 -0.0478
  234MOL0     H30840   5.081   8.881   9.940  1.7102 -1.2025 -0.0483
  234MOL0     H30841   5.137   9.002   9.664 -0.8866 -0.6494  0.8004
  234MOL0     H30842   4.953   9.103   9.487 -0.5209  0.0192 -0.8258
  234MOL0     H30843   5.011   9.269   9.519 -2.8079  1.9480  1.1185
  234MOL0     H30844   4.776   9.307   9.489  1.9605  1.3919 -0.1759
  234MOL0     H30845   4.796   9.304   9.655 -1.3488  0.8222 -1.7402
  234MOL0     H30846   4.706   9.067   9.499  0.0872  1.7447 -0.9951
  234MOL0     H30847   4.744   9.065   9.672  0.4458  0.7909  0.8612
  234MOL0     H30848   4.558   9.235   9.705  0.5707  1.1192 -0.1318
  234MOL0     H30849   4.495   9.092   9.628 -0.7709  0.3476  0.1518
  234MOL0     H30850   4.407   9.310   9.280 -4.6936 -0.3148 -2.6387
  234MOL0     H30851   4.163   9.349   9.252 -0.5730 -1.6018 -0.7544
  234MOL0     H30852   3.767   9.496   9.658 -0.5067  0.4960  0.3596
  234MOL0     H30853   3.534   9.584   9.626 -0.2192 -1.0569  2.3545
  234MOL0     H30854   3.329   9.411   9.662 -3.2215 -2.1955  2.0630
  234MOL0     H30855   3.234   9.324   9.538 -1.9835  0.8559 -1.2757
  234MOL0     H30856   3.097   9.477   9.656 -1.2023 -0.7506 -2.8776
  234MOL0     H30857   3.140   9.546   9.489 -3.1838  1.0166  0.5957
  234MOL0     H30858   3.303   9.693   9.588  1.0687  0.6313  2.3180
  234MOL0     H30859   3.265   9.637   9.751 -0.2783  1.1755 -0.2220
  234MOL0     H30860   3.093   9.794   9.553  5.0454  3.8958  0.5727
  234MOL0     H30861   3.038   9.741   9.726  1.5031  0.4858  2.6892
  234MOL0     H30862   3.233   9.951   9.631  0.0242 -0.4219 -0.5181
  234MOL0     H30863   3.240   9.883   9.793  1.6892  0.6528 -0.6416
  234MOL0     H30864   3.092  10.078   9.794 -2.6179  0.2465  0.2135
  234MOL0     H30865   3.008   9.935   9.835 -0.2053 -0.5027 -0.2360
  234MOL0     H30866   3.018  10.055   9.540  0.7051  2.4385  1.2983
  234MOL0     H30867   2.898   9.936   9.592  0.4398  0.1392  0.8056
  234MOL0     H30868   2.785  10.133   9.582 -0.2050  0.7895 -0.9158
  234MOL0     H30869   2.894  10.213   9.689  0.4965 -0.6768  1.2307
  234MOL0     H30870   3.476   9.278   9.313 -0.4292  1.3481 -0.4568
  234MOL0     H30871   3.708   9.208   9.343 -1.6565  2.1830 -2.4287
  234MOL0     H30872   4.090   9.297   9.662  0.4037  1.7602 -0.0814
  234MOL0     H30873   4.334   9.251   9.696  0.3054 -1.1564 -0.0110
  234MOL0     H30874   6.162   8.795  10.213  1.3104  0.4740 -0.2612
  234MOL0     H30875   6.400   8.771  10.225  1.1278 -0.6462  1.2030
  234MOL0     H30876   6.749   8.623  10.282 -2.3450 -0.6900 -1.6214
  234MOL0     H30877   7.003   8.664  10.290  1.1759  1.4655 -2.3414
  234MOL0     H30878   7.208   8.564  10.334  0.0998  2.1360  0.2445
  234MOL0     H30879   7.224   8.709  10.228 -2.9666  0.3247 -2.7145
  234MOL0     H30880   7.427   8.578  10.127 -2.4144 -1.3125 -0.4609
  234MOL0     H30881   7.454   8.631  10.298 -0.5755  1.0127 -0.2830
  234MOL0     H30882   7.368   8.365  10.184  3.7059 -2.9892  0.8614
  234MOL0     H30883   7.377   8.387  10.350 -3.0716  0.5357 -1.2677
  234MOL0     H30884   7.610   8.407  10.158  0.3333  0.0590 -0.5771
  234MOL0     H30885   7.630   8.456  10.330  2.6203 -2.0457 -0.7229
  234MOL0     H30886   7.720   8.064  10.359  3.4220  0.9559 -3.1691
  234MOL0     H30887   7.049   8.397   9.958 -1.0525  2.7163 -2.7411
  234MOL0     H30888   6.803   8.381   9.935 -2.7321 -1.2240  2.1707
  235MOL0     O30889   5.907   2.247   8.811  0.2407  0.4002 -1.1350
  235MOL0     C30890   5.891   2.327   8.911  0.5682  0.7431  0.4220
  235MOL0     O30891   5.773   2.360   8.967 -0.1072  0.2608  0.6145
  235MOL0     C30892   5.655   2.338   8.902  0.3590  0.4915  0.2947
  235MOL0     C30893   5.558   2.257   8.961 -0.2828 -0.0140 -0.5120
  235MOL0     C30894   5.443   2.224   8.895  0.6825  0.2014 -0.0665
  235MOL0     C30895   5.407   2.279   8.769 -0.1478 -0.6251 -0.8739
  235MOL0     O30896   5.297   2.241   8.697 -1.0765  0.8737  0.4642
  235MOL0     C30897   5.177   2.199   8.767 -0.4481  0.3370  0.6881
  235MOL0     C30898   5.095   2.330   8.810 -0.1688  0.5829 -0.6334
  235MOL0     C30899   5.050   2.402   8.679 -0.4791 -0.1400 -0.7922
  235MOL0     C30900   4.966   2.526   8.704  0.3058 -0.0598 -0.3494
  235MOL0     C30901   4.933   2.594   8.575  0.0584 -1.0419 -0.4912
  235MOL0     C30902   4.848   2.725   8.612 -0.5562  0.9566  0.0412
  235MOL0     C30903   4.821   2.824   8.497 -0.3784 -0.0381  0.1424
  235MOL0     C30904   4.696   2.789   8.409  0.0501  0.2979  0.6225
  235MOL0     N30905   4.667   2.889   8.303  0.0680  0.1334 -0.0598
  235MOL0     C30906   4.564   2.877   8.216 -0.1190 -0.0404 -0.2804
  235MOL0     C30907   4.568   2.995   8.144  0.2810  0.4359 -0.0057
  235MOL0     C30908   4.478   3.017   8.027  0.0540 -0.6880  0.2304
  235MOL0     C30909   4.326   3.041   8.071  0.3933 -0.1555 -0.1041
  235MOL0     C30910   4.243   3.074   7.945  0.4998 -0.7992 -0.5793
  235MOL0     C30911   4.096   3.091   7.973 -0.1632  0.2874 -0.4566
  235MOL0     O30912   4.050   2.966   8.026 -0.2396  0.5855  0.4110
  235MOL0     C30913   3.930   2.929   8.002  0.0429 -0.5261 -0.5119
  235MOL0     C30914   3.901   2.790   8.014 -0.5868  0.0279  0.5266
  235MOL0     C30915   3.783   2.731   7.983  0.0432 -0.4550  0.1486
  235MOL0     C30916   3.683   2.818   7.928  1.2924  0.4154  0.0008
  235MOL0     C30917   3.547   2.773   7.879 -0.5077  0.7904  0.5554
  235MOL0     O30918   3.518   2.642   7.906 -0.2431 -0.5882 -1.1971
  235MOL0     C30919   3.379   2.622   7.923 -0.2542 -0.0248 -0.5024
  235MOL0     C30920   3.283   2.617   7.823  0.2608 -0.0722  0.9720
  235MOL0     C30921   3.142   2.607   7.840 -0.1162 -0.5485  0.2278
  235MOL0     C30922   3.092   2.598   7.976  0.1935  0.1091  0.6509
  235MOL0     O30923   2.955   2.589   7.983  0.3227  0.7028  0.0312
  235MOL0     C30924   2.892   2.593   8.112 -0.6645  0.1433 -0.3244
  235MOL0     C30925   2.747   2.578   8.089 -0.0888 -0.3591 -0.1841
  235MOL0     C30926   2.663   2.602   8.218 -0.0731  0.1531  0.2085
  235MOL0     C30927   2.526   2.569   8.169  1.6213  0.6831  0.6363
  235MOL0     C30928   2.419   2.596   8.268 -0.6848 -0.3687  0.2115
  235MOL0     C30929   2.285   2.563   8.214 -0.5508  0.3457  0.4293
  235MOL0     C30930   2.186   2.566   8.328  0.3832 -0.0207 -0.1222
  235MOL0     C30931   2.043   2.555   8.290  0.4473  0.2028 -1.0397
  235MOL0    Cl30932   1.949   2.531   8.442  0.1662 -0.4667  0.3800
  235MOL0     C30933   3.185   2.599   8.081 -0.6845  1.1864  0.1203
  235MOL0     C30934   3.323   2.599   8.053 -0.1521  0.7671 -0.6663
  235MOL0     O30935   3.471   2.852   7.831 -0.0475  0.1360 -0.0269
  235MOL0     C30936   3.708   2.958   7.922 -0.0722  0.1060  0.1276
  235MOL0     C30937   3.830   3.013   7.954 -0.2703  0.3916 -0.1454
  235MOL0     N30938   4.678   3.069   8.197  0.6508  0.1329 -0.3828
  235MOL0     N30939   4.725   3.011   8.302  0.1434 -0.1937 -0.0617
  235MOL0     C30940   5.503   2.358   8.713 -0.7084  0.2567 -0.1364
  235MOL0     C30941   5.626   2.389   8.780 -0.1677  0.1092 -0.2378
  235MOL0     C30942   6.008   2.395   8.970  0.0631 -0.0210 -0.1912
  235MOL0     C30943   5.999   2.479   9.087  0.4762  0.1729 -0.5084
  235MOL0     C30944   6.108   2.541   9.136 -0.0092 -0.3502  0.3810
  235MOL0     C30945   6.234   2.527   9.077  0.1547 -0.4619  0.5750
  235MOL0     O30946   6.338   2.599   9.133 -0.3915  0.7081  0.6944
  235MOL0     C30947   6.474   2.549   9.102 -0.1673 -0.2486 -0.3643
  235MOL0     C30948   6.569   2.594   9.219  0.4616 -0.8385  0.5104
  235MOL0     C30949   6.514   2.566   9.355  0.7786  0.0811  0.4427
  235MOL0     C30950   6.629   2.613   9.445  0.6053  0.6803  0.5231
  235MOL0     C30951   6.587   2.616   9.590 -0.0310 -0.0803  0.5675
  235MOL0     C30952   6.559   2.627   9.704  0.3995 -1.1113 -0.0591
  235MOL0     C30953   6.250   2.430   8.972  0.7539 -0.2499  0.4998
  235MOL0     C30954   6.135   2.372   8.918 -0.2158  0.2229 -0.6498
  235MOL0     H30955   5.581   2.218   9.059  0.0636  0.0290 -0.5776
  235MOL0     H30956   5.378   2.144   8.928  1.8829 -0.6093  0.4268
  235MOL0     H30957   5.191   2.127   8.848 -0.5749 -1.7517 -1.0776
  235MOL0     H30958   5.116   2.141   8.698 -0.7876 -0.3781  1.5660
  235MOL0     H30959   5.153   2.389   8.882  4.5727 -2.1351 -1.8230
  235MOL0     H30960   5.005   2.292   8.859  0.9186  0.4459  1.3577
  235MOL0     H30961   4.988   2.332   8.622 -1.5873 -0.4365  0.7324
  235MOL0     H30962   5.137   2.434   8.620 -1.6007  0.6802 -2.0489
  235MOL0     H30963   4.875   2.493   8.755 -0.6013 -0.6532 -2.2360
  235MOL0     H30964   5.017   2.594   8.772 -4.8556  1.6095  2.4033
  235MOL0     H30965   4.884   2.535   8.497 -3.6129  3.4854 -2.0248
  235MOL0     H30966   5.020   2.642   8.532  0.6018 -1.3916  0.1945
  235MOL0     H30967   4.910   2.778   8.684  1.1518  0.6018 -1.0985
  235MOL0     H30968   4.761   2.686   8.665  1.9561 -2.8186  1.8405
  235MOL0     H30969   4.803   2.927   8.529  3.7543  0.8466  0.1907
  235MOL0     H30970   4.912   2.837   8.438  0.5993 -0.9074  1.3981
  235MOL0     H30971   4.609   2.804   8.473  1.0338  0.0467  2.0717
  235MOL0     H30972   4.694   2.686   8.372 -0.6201  1.6683 -3.8089
  235MOL0     H30973   4.483   2.805   8.199 -0.4439  0.3686 -0.4834
  235MOL0     H30974   4.476   2.928   7.963 -0.5864 -1.1705  0.8971
  235MOL0     H30975   4.519   3.100   7.969  0.2072 -1.1125 -0.2735
  235MOL0     H30976   4.322   3.127   8.139 -0.2544  2.0491 -2.7653
  235MOL0     H30977   4.280   2.950   8.110  0.8903 -1.7056 -2.8783
  235MOL0     H30978   4.276   3.168   7.899 -1.0880  2.0781  3.5711
  235MOL0     H30979   4.254   2.990   7.876  0.7159 -0.4854 -0.9380
  235MOL0     H30980   4.046   3.118   7.880  0.4346 -1.8733 -1.4581
  235MOL0     H30981   4.080   3.175   8.041  0.1868  0.1801 -0.2419
  235MOL0     H30982   3.984   2.723   8.036  0.9377  1.3034 -1.0591
  235MOL0     H30983   3.766   2.626   8.000 -4.2491  0.2695  1.4564
  235MOL0     H30984   3.305   2.638   7.719 -0.8071  0.3329  0.8077
  235MOL0     H30985   3.071   2.594   7.759  3.0667 -2.9012 -2.4928
  235MOL0     H30986   2.914   2.688   8.160 -0.9148 -0.6779  1.5002
  235MOL0     H30987   2.935   2.521   8.183 -0.6409  2.7390  2.4543
  235MOL0     H30988   2.735   2.471   8.066  0.6180 -0.6396  0.6799
  235MOL0     H30989   2.715   2.649   8.013 -1.0203 -1.2380 -0.6368
  235MOL0     H30990   2.650   2.706   8.249  0.5501 -0.1334  1.4889
  235MOL0     H30991   2.697   2.542   8.302  0.8817 -2.4824 -1.9162
  235MOL0     H30992   2.488   2.604   8.073 -0.4624 -2.3653  0.2150
  235MOL0     H30993   2.532   2.461   8.150  5.0121  0.7490  0.5649
  235MOL0     H30994   2.418   2.700   8.301  2.5814 -0.7848  1.9945
  235MOL0     H30995   2.437   2.538   8.359 -2.1456  0.5413  1.1230
  235MOL0     H30996   2.293   2.466   8.164  1.6180 -0.0123  1.3427
  235MOL0     H30997   2.254   2.638   8.141 -2.8699 -1.8737 -1.0153
  235MOL0     H30998   2.216   2.486   8.397  1.0873  2.8470  3.2186
  235MOL0     H30999   2.202   2.656   8.388 -0.1779 -0.7400  1.1460
  235MOL0     H31000   2.034   2.467   8.225  0.5397  0.0211 -0.8088
  235MOL0     H31001   2.005   2.641   8.234  1.4073  0.7709 -0.8401
  235MOL0     H31002   3.148   2.594   8.183 -0.8484 -1.6516  0.0220
  235MOL0     H31003   3.386   2.582   8.140 -0.4067  1.9423 -0.2332
  235MOL0     H31004   3.633   3.028   7.885  1.1631  2.5943  2.0436
  235MOL0     H31005   3.841   3.121   7.945  0.6104  0.2902 -0.3706
  235MOL0     H31006   5.476   2.404   8.618  0.0358  0.0280 -0.4635
  235MOL0     H31007   5.709   2.442   8.733  1.0838 -1.3074  0.2649
  235MOL0     H31008   5.900   2.504   9.124  0.8982 -0.8670  1.4739
  235MOL0     H31009   6.096   2.616   9.215  0.6185 -0.3647  0.4950
  235MOL0     H31010   6.518   2.584   9.008  0.5726  0.3594  0.1952
  235MOL0     H31011   6.472   2.439   9.101 -0.6692 -0.2399 -1.3051
  235MOL0     H31012   6.660   2.536   9.199  0.1250 -0.5832 -2.2839
  235MOL0     H31013   6.575   2.703   9.217 -0.1560 -0.7945 -1.1270
  235MOL0     H31014   6.504   2.458   9.364  3.4670 -0.6104 -2.7763
  235MOL0     H31015   6.417   2.612   9.375  1.0575  1.7577 -1.6971
  235MOL0     H31016   6.724   2.562   9.427  1.5767  1.6290  2.6283
  235MOL0     H31017   6.640   2.718   9.416  0.7311  0.0761 -1.8845
  235MOL0     H31018   6.540   2.641   9.809  1.0995 -0.7656  0.0278
  235MOL0     H31019   6.344   2.408   8.923 -0.2627 -2.2542 -0.6810
  235MOL0     H31020   6.142   2.296   8.841 -0.7257  1.0825 -1.5706
  236MOL0     O31021   1.461   6.736   0.772 -0.0019 -0.2196  0.8388
  236MOL0     C31022   1.494   6.695   0.664  0.3342  0.1085 -0.9965
  236MOL0     O31023   1.409   6.654   0.562  0.3875 -0.7947 -0.1426
  236MOL0     C31024   1.275   6.677   0.592  0.2555 -0.7458  0.0176
  236MOL0     C31025   1.209   6.790   0.535  0.8067 -0.3451  0.2792
  236MOL0     C31026   1.081   6.813   0.557 -0.5210 -0.1903  0.2125
  236MOL0     C31027   1.009   6.729   0.633  0.5094 -0.6673  0.1634
  236MOL0     O31028   0.872   6.743   0.623 -0.2927  0.3830 -0.6617
  236MOL0     C31029   0.800   6.656   0.703  0.1244  0.6672 -0.7441
  236MOL0     C31030   0.650   6.699   0.727 -1.1235  0.5125  0.6481
  236MOL0     C31031   0.583   6.672   0.599  0.5144  0.1526 -0.1335
  236MOL0     C31032   0.431   6.702   0.609  0.4263 -0.4258 -0.1870
  236MOL0     C31033   0.370   6.683   0.467 -1.0640  0.7462 -0.1029
  236MOL0     C31034   0.228   6.650   0.486  0.7371  0.6686  0.4957
  236MOL0     C31035   0.159   6.613   0.351  0.0302 -0.3755 -0.4221
  236MOL0     C31036   0.009   6.649   0.348 -0.4184  1.1116 -0.2409
  236MOL0     N31037  -0.066   6.573   0.448 -0.1540 -0.1677  0.3727
  236MOL0     C31038  -0.129   6.638   0.566 -0.3560  1.0308  0.3159
  236MOL0     C31039  -0.188   6.525   0.622  0.8454 -0.1526  0.0945
  236MOL0     C31040  -0.257   6.533   0.759  0.4484  0.0844 -0.4538
  236MOL0     C31041  -0.408   6.536   0.740 -0.0649  1.0354 -0.8547
  236MOL0     C31042  -0.462   6.399   0.689  0.5408 -0.0832  0.2633
  236MOL0     C31043  -0.611   6.396   0.681 -0.5969  0.5962  0.0667
  236MOL0     O31044  -0.677   6.387   0.805 -0.4465  0.1259 -0.4550
  236MOL0     C31045  -0.812   6.388   0.799 -0.4409  1.2260  0.8282
  236MOL0     C31046  -0.892   6.374   0.683  0.6844  0.3877  0.1319
  236MOL0     C31047  -1.028   6.355   0.686  0.7131  0.2392 -0.7258
  236MOL0     C31048  -1.096   6.355   0.814 -0.7914  0.2721  0.3092
  236MOL0     C31049  -1.244   6.329   0.835  0.4626 -0.4015  0.0645
  236MOL0     O31050  -1.301   6.393   0.938 -0.1329  0.0291 -0.1121
  236MOL0     C31051  -1.429   6.375   0.983  0.0669 -0.7388 -0.8088
  236MOL0     C31052  -1.441   6.411   1.122  0.0151 -0.1115  0.1890
  236MOL0     C31053  -1.563   6.428   1.180  0.4482 -0.0438 -0.3441
  236MOL0     C31054  -1.681   6.404   1.107  0.4512  0.2778 -0.0014
  236MOL0     O31055  -1.809   6.402   1.157  0.4281 -0.0324  0.1616
  236MOL0     C31056  -1.816   6.425   1.304  0.5964  0.5712 -0.5693
  236MOL0     C31057  -1.965   6.394   1.333 -0.2431 -0.3148  0.4997
  236MOL0     C31058  -2.066   6.493   1.266  0.8328  0.1142  0.1879
  236MOL0     C31059  -2.201   6.466   1.340  0.2868  0.7701 -0.1808
  236MOL0     C31060  -2.326   6.536   1.272 -0.5575  0.1906 -0.6561
  236MOL0     C31061  -2.356   6.492   1.130  0.0885 -0.9868 -0.8159
  236MOL0     C31062  -2.504   6.505   1.094 -2.0032  0.2677  0.7129
  236MOL0     C31063  -2.531   6.459   0.950 -0.1197 -0.3733  0.0818
  236MOL0    Cl31064  -2.491   6.290   0.937 -0.2963 -0.0997  0.1671
  236MOL0     C31065  -1.666   6.378   0.968 -0.3842 -0.5407 -1.0165
  236MOL0     C31066  -1.543   6.356   0.910  0.4831 -0.4547 -0.0166
  236MOL0     O31067  -1.297   6.246   0.764 -0.5323  0.4715  0.2439
  236MOL0     C31068  -1.022   6.380   0.933 -0.3983 -0.3889  0.3026
  236MOL0     C31069  -0.881   6.388   0.926  0.8109  0.0167  0.3923
  236MOL0     N31070  -0.180   6.414   0.538  0.3887 -0.5129 -0.8963
  236MOL0     N31071  -0.112   6.444   0.429 -0.6022  0.6216 -0.1694
  236MOL0     C31072   1.073   6.618   0.692  0.2805  0.0408 -0.6246
  236MOL0     C31073   1.214   6.593   0.682  1.2211 -0.0402  0.7420
  236MOL0     C31074   1.638   6.670   0.647 -0.3554 -0.3888 -0.5063
  236MOL0     C31075   1.739   6.703   0.747  0.6398 -0.1816  0.2873
  236MOL0     C31076   1.875   6.662   0.728 -0.1368 -0.1349 -0.1802
  236MOL0     C31077   1.916   6.595   0.603  1.1167  0.1130 -0.5207
  236MOL0     O31078   2.036   6.556   0.571 -0.4551 -0.2163  0.2465
  236MOL0     C31079   2.147   6.577   0.660 -1.3517 -0.1640 -0.3035
  236MOL0     C31080   2.264   6.504   0.602  1.5585 -0.4947  0.0223
  236MOL0     C31081   2.388   6.577   0.634 -0.9051 -0.2564 -0.0349
  236MOL0     C31082   2.515   6.532   0.555  0.3870 -0.3796 -0.5956
  236MOL0     C31083   2.621   6.611   0.609 -0.3613 -0.4035  0.0649
  236MOL0     C31084   2.711   6.672   0.657 -0.3287 -0.5672 -0.3945
  236MOL0     C31085   1.816   6.580   0.504  0.3148  0.4406 -0.6511
  236MOL0     C31086   1.684   6.619   0.527  0.5923  0.5557  0.3059
  236MOL0     H31087   1.264   6.859   0.472  1.4793  0.2022  1.4154
  236MOL0     H31088   1.044   6.903   0.510  2.5201  0.7163 -0.6406
  236MOL0     H31089   0.843   6.663   0.804  0.1476  1.4057 -0.7994
  236MOL0     H31090   0.806   6.553   0.667  1.1832 -0.7388  2.9674
  236MOL0     H31091   0.653   6.808   0.742  0.5955  0.7623 -1.1602
  236MOL0     H31092   0.603   6.652   0.814 -2.6111 -1.4447 -1.1425
  236MOL0     H31093   0.596   6.565   0.580  1.4646  0.4713 -1.3841
  236MOL0     H31094   0.632   6.727   0.519  0.7243  0.3249  0.1120
  236MOL0     H31095   0.381   6.651   0.691  1.6227 -2.1738 -0.4984
  236MOL0     H31096   0.412   6.804   0.644  0.9913 -1.8780  5.1524
  236MOL0     H31097   0.410   6.598   0.412  0.8211  2.8998 -2.3173
  236MOL0     H31098   0.387   6.767   0.399 -1.0076  1.4702  0.7865
  236MOL0     H31099   0.175   6.736   0.527 -0.1009 -0.4457  1.8227
  236MOL0     H31100   0.220   6.566   0.556  1.3598  0.4392  0.2982
  236MOL0     H31101   0.213   6.657   0.266  0.6671  1.1891  0.7231
  236MOL0     H31102   0.162   6.504   0.341 -4.1236 -0.5230 -1.8212
  236MOL0     H31103  -0.027   6.639   0.246 -1.1047 -0.1904  0.1020
  236MOL0     H31104   0.006   6.754   0.379 -1.6277  0.3097  2.7235
  236MOL0     H31105  -0.117   6.736   0.611 -1.4942  1.1579  0.3580
  236MOL0     H31106  -0.227   6.617   0.823 -3.1277  0.3691  1.0985
  236MOL0     H31107  -0.218   6.441   0.803  2.4802  1.2839  0.4008
  236MOL0     H31108  -0.430   6.614   0.666  0.3143 -0.7653 -2.9701
  236MOL0     H31109  -0.454   6.549   0.838  0.1241 -2.3159 -0.1891
  236MOL0     H31110  -0.416   6.390   0.589 -0.6507  1.5648 -0.4748
  236MOL0     H31111  -0.425   6.312   0.744 -2.4736 -1.0409  0.9727
  236MOL0     H31112  -0.626   6.307   0.620  0.6921  0.1614  0.3683
  236MOL0     H31113  -0.647   6.479   0.619 -0.2286  1.6599  1.2171
  236MOL0     H31114  -0.856   6.359   0.582  3.3413  0.3774  1.0197
  236MOL0     H31115  -1.096   6.346   0.602 -1.0441  2.9708  0.2729
  236MOL0     H31116  -1.353   6.441   1.177  0.6936  1.1096 -1.4514
  236MOL0     H31117  -1.573   6.441   1.287  0.0308 -1.8960 -0.1411
  236MOL0     H31118  -1.777   6.522   1.335 -0.1850 -0.1725  3.3033
  236MOL0     H31119  -1.752   6.346   1.346  0.3842  0.7212  0.0385
  236MOL0     H31120  -1.982   6.400   1.441 -3.8002  0.3207  0.0210
  236MOL0     H31121  -1.988   6.293   1.300  1.0775 -0.7954  0.9841
  236MOL0     H31122  -2.073   6.485   1.157  1.7185 -1.9970  0.2269
  236MOL0     H31123  -2.024   6.591   1.292  2.9656 -1.0312  1.4474
  236MOL0     H31124  -2.228   6.361   1.325 -0.7044  1.0713 -0.5452
  236MOL0     H31125  -2.190   6.497   1.444 -0.2483  1.0498 -0.2087
  236MOL0     H31126  -2.306   6.643   1.263  0.2910 -0.1174 -3.8527
  236MOL0     H31127  -2.418   6.507   1.323 -0.1883 -1.1085 -0.7096
  236MOL0     H31128  -2.336   6.385   1.125 -1.0479 -1.2793  0.3393
  236MOL0     H31129  -2.297   6.547   1.056  2.2912  2.2962  2.9636
  236MOL0     H31130  -2.559   6.450   1.170 -1.1575 -0.5430  0.7654
  236MOL0     H31131  -2.536   6.610   1.095 -1.8681  0.3737 -1.3841
  236MOL0     H31132  -2.468   6.512   0.878 -1.3106  2.4643  0.9797
  236MOL0     H31133  -2.638   6.476   0.937 -0.6969 -2.3572  1.6779
  236MOL0     H31134  -1.762   6.383   0.917 -0.5287  1.3235 -0.6538
  236MOL0     H31135  -1.534   6.340   0.803 -0.6131  1.7091 -0.4920
  236MOL0     H31136  -1.078   6.383   1.026 -0.2883  0.9657  0.3436
  236MOL0     H31137  -0.822   6.404   1.015 -0.6982 -0.0786  1.4491
  236MOL0     H31138   1.024   6.537   0.745  1.2309 -2.3815 -3.1517
  236MOL0     H31139   1.266   6.509   0.726  0.5621 -1.2886 -0.7989
  236MOL0     H31140   1.716   6.756   0.839 -1.1029  0.2149 -0.3310
  236MOL0     H31141   1.956   6.694   0.792  1.5282 -0.7512 -1.8954
  236MOL0     H31142   2.132   6.537   0.760 -0.4574  1.0587  0.3431
  236MOL0     H31143   2.168   6.681   0.685  0.4228 -0.9289  1.6425
  236MOL0     H31144   2.267   6.399   0.631 -2.1068 -0.7909 -0.2453
  236MOL0     H31145   2.260   6.508   0.493  2.5708  0.4625 -0.0065
  236MOL0     H31146   2.404   6.597   0.741  0.0190 -0.2495 -0.1608
  236MOL0     H31147   2.373   6.679   0.598  2.2245  0.7143  1.0606
  236MOL0     H31148   2.545   6.433   0.589  1.1565  0.0558  0.0197
  236MOL0     H31149   2.517   6.538   0.446  2.3267  0.3958 -0.5660
  236MOL0     H31150   2.792   6.731   0.693  0.2439 -2.3393  1.3961
  236MOL0     H31151   1.859   6.543   0.411  2.9286 -0.3446  0.7688
  236MOL0     H31152   1.605   6.599   0.455 -0.4072 -1.6761  1.8902
  237MOL0     O31153   9.991   7.381   4.996 -0.5515  0.6767  0.2464
  237MOL0     C31154   9.946   7.379   4.876 -0.0233  0.1710 -1.0110
  237MOL0     O31155   9.816   7.382   4.847  0.0040  0.9553  0.5513
  237MOL0     C31156   9.722   7.319   4.922  0.6695 -0.3359  0.2835
  237MOL0     C31157   9.749   7.224   5.021 -0.2147 -0.2711  0.7244
  237MOL0     C31158   9.646   7.166   5.090 -0.0929 -0.1212 -0.4627
  237MOL0     C31159   9.519   7.194   5.051 -0.1204 -0.5916 -1.1064
  237MOL0     O31160   9.414   7.129   5.110  0.4869 -0.4980  1.0231
  237MOL0     C31161   9.412   7.119   5.248 -0.0991  0.8207  0.8026
  237MOL0     C31162   9.279   7.173   5.301  0.3459 -0.0093 -0.1282
  237MOL0     C31163   9.154   7.124   5.231  0.5482  0.3470 -0.3747
  237MOL0     C31164   9.115   6.987   5.262  0.1995  0.2186  0.1065
  237MOL0     C31165   8.981   6.935   5.195 -0.6481 -0.4187 -0.0628
  237MOL0     C31166   8.857   7.017   5.221  0.9402  0.2715  0.1587
  237MOL0     C31167   8.739   6.947   5.145  0.2105  0.1574  0.1936
  237MOL0     C31168   8.608   6.978   5.206  0.2114  0.1762 -0.1037
  237MOL0     N31169   8.487   6.916   5.139 -0.1674 -0.1927 -0.3556
  237MOL0     C31170   8.455   6.926   5.003 -0.2384  0.8200  0.9996
  237MOL0     C31171   8.340   6.850   4.998 -0.5956 -0.5477 -0.0452
  237MOL0     C31172   8.245   6.862   4.881 -0.5017  0.3474 -0.3241
  237MOL0     C31173   8.096   6.861   4.937 -0.1036 -0.2836  0.4984
  237MOL0     C31174   7.996   6.827   4.826 -0.3839  0.8469  0.3917
  237MOL0     C31175   7.858   6.879   4.847 -0.2511 -0.2633  0.0668
  237MOL0     O31176   7.792   6.878   4.720 -0.0133  0.6922  0.2408
  237MOL0     C31177   7.667   6.923   4.718 -0.8742  0.5716 -0.3964
  237MOL0     C31178   7.584   6.975   4.828  0.3751 -0.4778 -0.5258
  237MOL0     C31179   7.451   6.996   4.803 -0.0035 -0.9697 -0.1753
  237MOL0     C31180   7.402   7.001   4.674 -0.2777  0.2586  0.6743
  237MOL0     C31181   7.266   7.058   4.649 -1.2042  0.5049  0.2986
  237MOL0     O31182   7.216   7.120   4.762 -0.0886  0.0776  0.0028
  237MOL0     C31183   7.086   7.162   4.748  0.0489  0.7454  0.3153
  237MOL0     C31184   6.989   7.096   4.821 -0.2105  0.7046 -0.1101
  237MOL0     C31185   6.854   7.132   4.810  1.1561  0.4874  0.0014
  237MOL0     C31186   6.813   7.237   4.725  0.4247 -0.6009  0.0507
  237MOL0     O31187   6.687   7.276   4.712  0.0863 -0.5417  0.2794
  237MOL0     C31188   6.584   7.223   4.795  0.8223  0.1381 -0.1152
  237MOL0     C31189   6.465   7.308   4.786  1.3676  0.6818  0.2694
  237MOL0     C31190   6.370   7.269   4.903  0.2802 -0.4064  0.2199
  237MOL0     C31191   6.259   7.368   4.912  0.6173  0.0429 -0.0767
  237MOL0     C31192   6.165   7.350   5.037  0.1733 -0.8185  0.3130
  237MOL0     C31193   6.038   7.430   5.013  0.0040 -0.5253  0.3028
  237MOL0     C31194   5.937   7.399   5.125  0.7884  0.0460 -0.0960
  237MOL0     C31195   5.836   7.515   5.130 -0.1760  0.1220 -0.1952
  237MOL0    Cl31196   5.714   7.530   4.999  0.1567 -0.3448 -0.4021
  237MOL0     C31197   6.902   7.289   4.644 -0.7590 -0.0590  0.8937
  237MOL0     C31198   7.042   7.264   4.664  0.0302 -0.8716  0.7887
  237MOL0     O31199   7.217   7.057   4.540  0.5239  0.0116  0.2239
  237MOL0     C31200   7.484   6.968   4.569 -0.6021  0.3703 -0.2179
  237MOL0     C31201   7.615   6.922   4.596 -0.4765 -0.1799 -0.0364
  237MOL0     N31202   8.328   6.790   5.127 -0.3063 -0.1680 -0.0816
  237MOL0     N31203   8.410   6.832   5.210  1.3272  0.5033  0.5051
  237MOL0     C31204   9.494   7.271   4.940 -0.5955 -0.0099 -0.7138
  237MOL0     C31205   9.589   7.328   4.878 -0.3521 -0.9788 -0.6593
  237MOL0     C31206  10.035   7.375   4.770 -0.8589 -0.8672  0.7630
  237MOL0     C31207   9.995   7.401   4.637  0.3172 -0.3229 -0.4617
  237MOL0     C31208  10.093   7.412   4.542  0.3584 -0.3566  0.1216
  237MOL0     C31209  10.236   7.398   4.569 -0.0235 -0.6383  0.3890
  237MOL0     O31210  10.334   7.420   4.480  0.3578 -0.3249 -0.2954
  237MOL0     C31211  10.306   7.445   4.345 -0.0063 -0.2146  0.3293
  237MOL0     C31212  10.431   7.491   4.275  1.1218 -0.3348  0.1815
  237MOL0     C31213  10.551   7.391   4.281 -0.1738  0.2740  0.7696
  237MOL0     C31214  10.674   7.435   4.206 -0.8191  0.1536 -0.0634
  237MOL0     C31215  10.765   7.522   4.291  0.5309 -0.0542  0.2162
  237MOL0     C31216  10.833   7.604   4.349  0.7718  0.0878  0.2981
  237MOL0     C31217  10.271   7.379   4.696 -1.5193  0.1304  0.2819
  237MOL0     C31218  10.174   7.365   4.800 -0.5115 -1.0112 -0.1423
  237MOL0     H31219   9.855   7.202   5.034  0.8861  3.4266 -0.8851
  237MOL0     H31220   9.662   7.097   5.172 -0.8772 -0.6885 -0.7709
  237MOL0     H31221   9.495   7.168   5.300 -0.7392 -0.9471  3.7046
  237MOL0     H31222   9.418   7.012   5.268 -2.2099  0.0718 -1.9392
  237MOL0     H31223   9.271   7.282   5.292  0.0878 -0.0338 -0.2302
  237MOL0     H31224   9.276   7.155   5.409  0.6140 -1.0655 -0.2864
  237MOL0     H31225   9.160   7.145   5.124 -2.6744  1.3040 -0.4944
  237MOL0     H31226   9.067   7.174   5.275  0.5233 -2.2057  2.8840
  237MOL0     H31227   9.200   6.927   5.229  1.1679 -0.7885  3.8759
  237MOL0     H31228   9.112   6.971   5.371  2.2079 -1.0599  0.0272
  237MOL0     H31229   8.966   6.833   5.231  0.8245 -0.2152  1.2564
  237MOL0     H31230   9.002   6.925   5.088  0.6443  0.3506  0.1053
  237MOL0     H31231   8.857   7.124   5.200 -1.4009  0.2455 -0.2694
  237MOL0     H31232   8.846   7.020   5.330 -2.3288 -0.4731 -0.0253
  237MOL0     H31233   8.736   6.975   5.039 -0.8360 -0.8433 -0.0692
  237MOL0     H31234   8.752   6.838   5.150  1.4408  0.3347  3.6666
  237MOL0     H31235   8.609   7.087   5.194  2.6192  0.2187  0.1095
  237MOL0     H31236   8.605   6.957   5.313 -0.6789 -1.3710 -0.4026
  237MOL0     H31237   8.491   6.993   4.926  0.7263  1.3763  1.9155
  237MOL0     H31238   8.261   6.779   4.812 -1.0156  0.1958 -0.2677
  237MOL0     H31239   8.266   6.957   4.831  0.1952  1.6209  2.2325
  237MOL0     H31240   8.080   6.962   4.976  0.9913  0.5105 -1.0300
  237MOL0     H31241   8.085   6.787   5.017  2.8251 -2.3637 -0.8083
  237MOL0     H31242   8.045   6.848   4.731  0.6547  1.2432  0.9973
  237MOL0     H31243   7.984   6.718   4.827 -0.9294  0.8922 -0.6048
  237MOL0     H31244   7.854   6.973   4.905 -4.3923 -0.3740  0.2122
  237MOL0     H31245   7.805   6.804   4.906  0.0120 -0.3553  0.1917
  237MOL0     H31246   7.622   6.989   4.928  0.8210 -0.3367 -0.7128
  237MOL0     H31247   7.397   7.035   4.889  3.7315  2.5829  0.8466
  237MOL0     H31248   7.031   7.022   4.888  0.5821  1.4038  0.1904
  237MOL0     H31249   6.780   7.069   4.859  1.4934 -2.1415 -2.5979
  237MOL0     H31250   6.616   7.224   4.900 -4.4834  0.4705  1.8194
  237MOL0     H31251   6.564   7.120   4.765  0.7968  0.4025 -1.0242
  237MOL0     H31252   6.418   7.303   4.688 -0.2680 -1.9159  1.0957
  237MOL0     H31253   6.503   7.410   4.802  2.5126  0.1548  1.0750
  237MOL0     H31254   6.429   7.273   4.995  0.5784 -1.0218  0.0627
  237MOL0     H31255   6.330   7.169   4.883  2.6064 -1.0101 -1.9007
  237MOL0     H31256   6.311   7.465   4.915 -2.4870  1.8912 -0.9642
  237MOL0     H31257   6.198   7.354   4.823  2.1865  0.3409 -1.2392
  237MOL0     H31258   6.215   7.367   5.132 -0.2572 -1.7266  0.7102
  237MOL0     H31259   6.138   7.244   5.035  3.2312 -1.7130  0.6978
  237MOL0     H31260   5.994   7.417   4.915  2.4647  1.1752 -1.1574
  237MOL0     H31261   6.068   7.536   5.011  2.5949 -1.1987 -0.0241
  237MOL0     H31262   5.892   7.301   5.110  2.8442 -0.8540 -0.8534
  237MOL0     H31263   5.990   7.378   5.218 -1.4234 -0.5644  1.0837
  237MOL0     H31264   5.900   7.603   5.141 -0.2739  0.2830 -0.8777
  237MOL0     H31265   5.765   7.501   5.212 -1.0412 -0.4909 -1.0222
  237MOL0     H31266   6.868   7.367   4.577  0.5676  0.6713  1.0379
  237MOL0     H31267   7.115   7.318   4.604 -0.7842 -2.0593 -1.4021
  237MOL0     H31268   7.452   6.979   4.466 -1.0303 -1.4419 -0.3105
  237MOL0     H31269   7.674   6.894   4.509  0.9049  0.2870  0.7141
  237MOL0     H31270   9.391   7.296   4.918 -0.6188 -0.3833 -1.0503
  237MOL0     H31271   9.580   7.393   4.792  1.3150  1.9975  1.2287
  237MOL0     H31272   9.891   7.418   4.612  0.9700 -1.6045 -4.9103
  237MOL0     H31273  10.049   7.418   4.442  2.8663 -1.6893 -1.1552
  237MOL0     H31274  10.233   7.526   4.330 -0.8119 -0.7084  1.4125
  237MOL0     H31275  10.260   7.360   4.293  0.3513  1.5828 -3.2810
  237MOL0     H31276  10.409   7.514   4.170  1.8723  2.8375  0.6376
  237MOL0     H31277  10.460   7.587   4.319 -0.2298  0.1300  0.1165
  237MOL0     H31278  10.517   7.301   4.228  3.5886 -0.6998 -0.2829
  237MOL0     H31279  10.580   7.371   4.385  1.1019 -0.4542  0.2941
  237MOL0     H31280  10.728   7.344   4.178 -0.6817  1.0749 -3.1093
  237MOL0     H31281  10.652   7.500   4.121  1.1257 -0.3136 -0.9758
  237MOL0     H31282  10.909   7.663   4.396  0.6453  0.1550  0.4182
  237MOL0     H31283  10.378   7.381   4.712 -1.8383  1.1081  2.9011
  237MOL0     H31284  10.216   7.355   4.900  0.1633  1.5041 -0.0960
  238MOL0     O31285   4.795   3.745   9.715  0.0401 -0.1185 -0.2127
  238MOL0     C31286   4.744   3.674   9.793  0.0759  0.0628 -0.2356
  238MOL0     O31287   4.614   3.645   9.804  0.0691 -0.2130 -0.2644
  238MOL0     C31288   4.527   3.717   9.722  0.2463  0.0806  0.6964
  238MOL0     C31289   4.517   3.689   9.588  1.0051  0.1552 -0.0841
  238MOL0     C31290   4.426   3.755   9.506 -0.1032 -0.2298  0.5367
  238MOL0     C31291   4.354   3.864   9.556 -0.2277 -0.2701  0.1389
  238MOL0     O31292   4.274   3.950   9.484 -0.6771  0.0760 -0.1183
  238MOL0     C31293   4.156   3.894   9.430 -0.0028  0.1854 -0.7867
  238MOL0     C31294   4.050   3.891   9.539  0.3648  0.7657  0.3477
  238MOL0     C31295   3.914   3.875   9.479 -0.3081 -0.1650  0.3039
  238MOL0     C31296   3.799   3.877   9.581  0.6277 -0.2667 -0.2256
  238MOL0     C31297   3.663   3.879   9.516 -0.4966  0.7659 -1.0986
  238MOL0     C31298   3.546   3.825   9.596  0.1998  0.3907  0.3800
  238MOL0     C31299   3.411   3.823   9.521  0.2901  0.1417  0.5717
  238MOL0     C31300   3.303   3.783   9.619  0.3445  0.4106 -0.2638
  238MOL0     N31301   3.166   3.802   9.558 -1.4911 -0.1545 -0.1847
  238MOL0     C31302   3.077   3.895   9.596  1.2514 -0.0721 -0.1017
  238MOL0     C31303   2.979   3.896   9.504 -0.2290  0.1624  0.1119
  238MOL0     C31304   2.859   3.991   9.496 -1.4871  0.3893 -1.0593
  238MOL0     C31305   2.762   3.985   9.613 -0.1306  0.0944 -0.5642
  238MOL0     C31306   2.704   3.839   9.642  0.2091 -0.3292  0.7080
  238MOL0     C31307   2.598   3.847   9.752 -0.7971 -0.2830  0.2233
  238MOL0     O31308   2.505   3.944   9.701  0.7142  0.3133  0.3579
  238MOL0     C31309   2.365   3.919   9.697 -0.4980 -0.4276 -0.4175
  238MOL0     C31310   2.279   4.011   9.642 -0.5671 -1.1214  0.1494
  238MOL0     C31311   2.146   4.001   9.649 -0.8020 -0.4036 -0.0604
  238MOL0     C31312   2.078   3.891   9.699  0.4640 -0.9588 -1.2758
  238MOL0     C31313   1.929   3.889   9.691 -0.1196  0.0323  0.0001
  238MOL0     O31314   1.862   3.990   9.626  0.6386  0.2058  0.0310
  238MOL0     C31315   1.728   3.977   9.633  0.6390  0.6266  0.7011
  238MOL0     C31316   1.653   3.968   9.753  1.0837 -0.5018 -0.3680
  238MOL0     C31317   1.508   3.945   9.751 -0.5849 -0.3227 -0.6458
  238MOL0     C31318   1.447   3.955   9.630 -0.8651 -0.0393  1.1379
  238MOL0     O31319   1.312   3.957   9.610 -0.0656  0.2086 -0.0900
  238MOL0     C31320   1.223   3.978   9.721 -1.1693  0.1660  0.7394
  238MOL0     C31321   1.082   3.956   9.662 -0.3249  0.0528 -0.6929
  238MOL0     C31322   0.983   3.953   9.782 -0.3072  0.2554  0.1049
  238MOL0     C31323   0.837   3.937   9.733  0.8142  1.4397  0.3705
  238MOL0     C31324   0.749   3.934   9.854  0.0929  0.3226 -0.6697
  238MOL0     C31325   0.718   4.073   9.912 -0.9831  0.4929  0.3220
  238MOL0     C31326   0.670   4.066  10.052  0.3323  0.5095  0.5022
  238MOL0     C31327   0.528   4.004  10.078 -0.4285  0.2969 -0.1948
  238MOL0    Cl31328   0.407   4.051   9.959 -0.6090  0.2601  0.4202
  238MOL0     C31329   1.519   3.974   9.511 -0.2873  0.7435  0.3832
  238MOL0     C31330   1.657   3.993   9.509  0.5744  0.8203 -1.0807
  238MOL0     O31331   1.882   3.792   9.751  0.2651 -0.7387 -0.0235
  238MOL0     C31332   2.154   3.797   9.762 -0.8115  0.2633 -1.3189
  238MOL0     C31333   2.298   3.813   9.762 -0.3944  0.3185 -0.3052
  238MOL0     N31334   3.018   3.815   9.400  0.2741 -0.3002 -0.6326
  238MOL0     N31335   3.118   3.751   9.438 -0.0371 -0.9419  0.1522
  238MOL0     C31336   4.373   3.898   9.688  0.6970 -0.2253 -0.2011
  238MOL0     C31337   4.456   3.825   9.775  0.5517  0.2355 -0.6857
  238MOL0     C31338   4.830   3.600   9.892 -0.5135 -0.3040 -0.6083
  238MOL0     C31339   4.761   3.547  10.006 -0.1294 -0.5376  0.1753
  238MOL0     C31340   4.831   3.482  10.108  0.0508  0.1771  0.8532
  238MOL0     C31341   4.977   3.468  10.093 -0.0211 -0.5878 -0.3836
  238MOL0     O31342   5.053   3.417  10.190 -0.1061 -0.0744  0.0228
  238MOL0     C31343   4.993   3.346  10.303  0.2036 -0.3371  0.2901
  238MOL0     C31344   5.094   3.286  10.399 -0.6211  0.2714 -0.1082
  238MOL0     C31345   5.136   3.155  10.342 -0.5144 -0.2982  0.8388
  238MOL0     C31346   5.251   3.092  10.425  0.8184 -0.0216  0.8235
  238MOL0     C31347   5.193   3.023  10.540  0.4932  0.1189 -0.1080
  238MOL0     C31348   5.152   2.991  10.649  0.1904  0.7068 -0.5300
  238MOL0     C31349   5.040   3.522   9.978 -0.2507  0.3584  0.3957
  238MOL0     C31350   4.971   3.587   9.878 -1.0382 -1.5374  0.0868
  238MOL0     H31351   4.572   3.608   9.542 -0.1087 -0.1313 -0.9489
  238MOL0     H31352   4.428   3.725   9.402  1.3786 -0.2711  0.5624
  238MOL0     H31353   4.166   3.795   9.383 -0.5832 -0.0643 -0.3846
  238MOL0     H31354   4.116   3.952   9.346 -0.5069 -2.2340 -2.3401
  238MOL0     H31355   4.048   3.987   9.591  1.5845  0.0326  1.8437
  238MOL0     H31356   4.077   3.815   9.613 -1.2238  0.5918  0.8068
  238MOL0     H31357   3.904   3.778   9.431 -4.2872  0.8064 -1.2066
  238MOL0     H31358   3.897   3.951   9.402 -0.5753 -0.6964 -0.1688
  238MOL0     H31359   3.815   3.792   9.648 -0.9717  0.4581  1.1532
  238MOL0     H31360   3.805   3.967   9.643  0.7952  0.3951 -1.1794
  238MOL0     H31361   3.666   3.818   9.425  0.5729  0.9354 -1.1888
  238MOL0     H31362   3.639   3.983   9.494 -1.6732  0.8539  0.4245
  238MOL0     H31363   3.522   3.887   9.683 -2.5432 -0.2066  0.1414
  238MOL0     H31364   3.567   3.720   9.622 -0.4473  0.0089 -0.6005
  238MOL0     H31365   3.381   3.925   9.493 -1.7736 -0.2680  1.0827
  238MOL0     H31366   3.417   3.766   9.428  2.2373  2.8309 -1.0968
  238MOL0     H31367   3.296   3.839   9.714  1.3318 -2.9098  1.9341
  238MOL0     H31368   3.313   3.677   9.644  1.7336  0.0397 -2.2175
  238MOL0     H31369   3.078   3.956   9.686 -0.6043 -0.8947  0.5307
  238MOL0     H31370   2.809   3.949   9.408 -2.9047 -1.8243  0.6832
  238MOL0     H31371   2.888   4.095   9.478 -1.4344  0.4175 -0.8064
  238MOL0     H31372   2.681   4.058   9.604  0.5448  0.9822  0.3245
  238MOL0     H31373   2.809   4.025   9.703 -3.1697 -1.2404  1.8062
  238MOL0     H31374   2.666   3.790   9.552  0.4347 -0.6171  0.7694
  238MOL0     H31375   2.778   3.772   9.686  0.9583 -1.1520 -1.6374
  238MOL0     H31376   2.640   3.876   9.849 -1.2181  1.0247  0.0291
  238MOL0     H31377   2.561   3.744   9.761  0.2756 -0.5167  3.3089
  238MOL0     H31378   2.331   4.103   9.617  0.8602 -1.9357 -0.0031
  238MOL0     H31379   2.086   4.085   9.614 -0.1407  0.8697  1.6800
  238MOL0     H31380   1.706   3.972   9.848  1.4808  0.1339 -0.6103
  238MOL0     H31381   1.458   3.911   9.841 -0.6616 -1.3965 -1.0767
  238MOL0     H31382   1.232   4.083   9.749 -0.8558  1.9527 -4.8523
  238MOL0     H31383   1.247   3.906   9.800  1.1113 -0.1012 -0.1358
  238MOL0     H31384   1.073   3.859   9.612 -1.0043 -0.5107  0.4678
  238MOL0     H31385   1.052   4.032   9.590  1.1266  1.7391  0.3971
  238MOL0     H31386   0.994   4.041   9.845 -1.4342  0.9376 -0.6131
  238MOL0     H31387   1.008   3.868   9.846  2.3178 -0.5237 -1.7869
  238MOL0     H31388   0.808   4.025   9.675 -1.7541 -0.6510 -1.8083
  238MOL0     H31389   0.818   3.841   9.684  0.1000 -1.4441  5.6143
  238MOL0     H31390   0.797   3.860   9.920  3.0967  1.3743 -1.5177
  238MOL0     H31391   0.649   3.891   9.843 -1.5148  2.7382  2.7264
  238MOL0     H31392   0.654   4.121   9.837 -0.9484 -0.2300 -0.1911
  238MOL0     H31393   0.805   4.139   9.906 -2.0675  2.1618  1.9502
  238MOL0     H31394   0.743   4.005  10.107 -1.1638 -3.8237 -1.8099
  238MOL0     H31395   0.664   4.164  10.100 -0.7312  0.8399 -0.2679
  238MOL0     H31396   0.487   4.025  10.177  0.2173  2.2070 -0.2953
  238MOL0     H31397   0.528   3.895  10.066  0.3408  0.2120  0.5147
  238MOL0     H31398   1.465   3.987   9.418 -0.1660  0.5590  0.2867
  238MOL0     H31399   1.718   4.002   9.419  0.5736  2.2957 -0.9571
  238MOL0     H31400   2.112   3.704   9.799  3.3330 -1.2705  0.1939
  238MOL0     H31401   2.351   3.730   9.808 -3.2838 -0.3862  2.1203
  238MOL0     H31402   4.310   3.981   9.719  1.5738  1.0983 -1.8214
  238MOL0     H31403   4.470   3.835   9.882  1.0173  0.2557 -0.7480
  238MOL0     H31404   4.653   3.557  10.020 -0.0766  0.7142 -0.1592
  238MOL0     H31405   4.773   3.451  10.195  1.3873 -0.9920  1.3830
  238MOL0     H31406   4.925   3.270  10.264  1.5983 -0.3725 -2.2982
  238MOL0     H31407   4.941   3.422  10.362  1.5731  0.1701  0.8792
  238MOL0     H31408   5.182   3.350  10.407  1.0936 -1.7894 -1.5317
  238MOL0     H31409   5.055   3.272  10.500  1.6265 -3.4141  0.4046
  238MOL0     H31410   5.184   3.181  10.247 -2.6208  0.4498 -0.0718
  238MOL0     H31411   5.052   3.088  10.322 -1.0496  0.8120 -0.7904
  238MOL0     H31412   5.314   3.023  10.368  3.1493  0.6475  2.4278
  238MOL0     H31413   5.320   3.172  10.455  2.2939 -1.2557  0.8666
  238MOL0     H31414   5.111   2.967  10.745  2.8382 -1.1651  0.2610
  238MOL0     H31415   5.148   3.512   9.983 -0.3231 -1.9029 -1.0887
  238MOL0     H31416   5.036   3.634   9.804  1.2424 -3.1451  0.9256
  239MOL0     O31417   6.960   4.656   4.642 -0.7307  0.1606  0.2776
  239MOL0     C31418   7.045   4.686   4.720 -0.2279  0.1613 -0.8746
  239MOL0     O31419   7.034   4.703   4.862 -0.3600  0.3241  0.0448
  239MOL0     C31420   6.913   4.687   4.930 -0.3269  1.0321 -1.0922
  239MOL0     C31421   6.894   4.756   5.048 -0.3864 -0.8589 -0.5587
  239MOL0     C31422   6.793   4.735   5.137  0.0094  0.4870 -0.5020
  239MOL0     C31423   6.712   4.624   5.111  0.2766  0.2835  0.0526
  239MOL0     O31424   6.613   4.588   5.201  0.1776 -0.1673 -0.1014
  239MOL0     C31425   6.500   4.504   5.186  0.6036 -0.1260 -0.0153
  239MOL0     C31426   6.380   4.578   5.138  0.1041 -0.3366  0.0518
  239MOL0     C31427   6.246   4.521   5.181  1.0538  0.3680 -0.1099
  239MOL0     C31428   6.135   4.635   5.154 -0.8076  0.6117 -0.3645
  239MOL0     C31429   5.996   4.594   5.205 -0.5146 -0.7266  0.1610
  239MOL0     C31430   5.887   4.608   5.095  0.1880 -0.2680  0.0417
  239MOL0     C31431   5.751   4.548   5.153 -0.5729 -0.1840 -0.3097
  239MOL0     C31432   5.685   4.643   5.256 -0.0466 -0.1835  0.6392
  239MOL0     N31433   5.553   4.581   5.303 -0.5967 -0.4498 -0.0403
  239MOL0     C31434   5.518   4.567   5.438 -0.2429  0.4724 -0.2343
  239MOL0     C31435   5.388   4.525   5.430 -0.0407  0.5675  0.9010
  239MOL0     C31436   5.307   4.485   5.557 -0.4580 -0.0921  0.2663
  239MOL0     C31437   5.162   4.526   5.557  0.0189  0.2240 -0.3836
  239MOL0     C31438   5.150   4.675   5.577 -0.4601 -0.2715 -0.3649
  239MOL0     C31439   5.013   4.738   5.598  0.2355 -0.7500 -0.0922
  239MOL0     O31440   4.958   4.770   5.467 -0.3054  0.9932  0.1144
  239MOL0     C31441   4.824   4.808   5.471 -0.1197 -0.4146 -0.5382
  239MOL0     C31442   4.736   4.791   5.582 -0.5718 -0.1910 -0.4489
  239MOL0     C31443   4.608   4.846   5.580  0.4281 -0.0630 -0.6960
  239MOL0     C31444   4.561   4.905   5.462  0.6233 -0.0436  0.6913
  239MOL0     C31445   4.419   4.945   5.452 -1.2170 -0.1331  0.1863
  239MOL0     O31446   4.363   4.934   5.332 -0.5562  0.5010 -0.1136
  239MOL0     C31447   4.236   4.995   5.326  0.2399 -0.7629 -0.2673
  239MOL0     C31448   4.136   4.951   5.410  0.6765  0.0626 -0.9027
  239MOL0     C31449   4.003   4.981   5.378  0.0535 -0.5490 -1.3956
  239MOL0     C31450   3.972   5.066   5.269  0.8268  0.3903  0.4439
  239MOL0     O31451   3.835   5.086   5.247 -0.1603 -0.6121  0.3073
  239MOL0     C31452   3.802   5.154   5.125  0.5327 -0.1953 -0.3236
  239MOL0     C31453   3.644   5.136   5.117  0.2066 -0.3474  0.0551
  239MOL0     C31454   3.574   5.206   4.996 -0.4820 -0.1301  0.0806
  239MOL0     C31455   3.432   5.162   4.984  0.2193 -1.1713  0.3430
  239MOL0     C31456   3.360   5.259   4.886  0.3848 -0.0239 -0.1860
  239MOL0     C31457   3.210   5.245   4.900 -0.2068  0.3886 -0.3118
  239MOL0     C31458   3.142   5.321   4.790 -0.0319  0.3697  0.6736
  239MOL0     C31459   3.098   5.210   4.687 -0.4086 -0.4375  0.5284
  239MOL0    Cl31460   3.017   5.288   4.545  0.4288 -0.0487 -0.0625
  239MOL0     C31461   4.082   5.113   5.186 -0.2937 -0.5005 -0.3570
  239MOL0     C31462   4.211   5.083   5.215  0.0890  0.4133 -0.1644
  239MOL0     O31463   4.370   4.991   5.554  0.0977 -0.1244 -0.0310
  239MOL0     C31464   4.640   4.917   5.344  0.1720  0.6815 -0.8316
  239MOL0     C31465   4.766   4.860   5.354 -0.2532 -1.1221  0.6617
  239MOL0     N31466   5.351   4.508   5.295  0.1889  1.0089 -0.6316
  239MOL0     N31467   5.452   4.545   5.226 -0.2081  0.5325 -0.0708
  239MOL0     C31468   6.714   4.563   4.984  0.3584 -0.8722  0.4517
  239MOL0     C31469   6.822   4.586   4.894  0.0343  0.4851  0.2435
  239MOL0     C31470   7.182   4.699   4.668  0.6501 -1.0254 -0.2856
  239MOL0     C31471   7.290   4.682   4.743 -0.5229  0.6246 -0.1378
  239MOL0     C31472   7.416   4.677   4.686 -0.1119  0.0774 -0.0892
  239MOL0     C31473   7.438   4.706   4.549  0.5316  0.1127 -0.1508
  239MOL0     O31474   7.565   4.693   4.495 -0.0447  0.1154 -0.0746
  239MOL0     C31475   7.591   4.707   4.352 -0.4655 -0.5235  0.2007
  239MOL0     C31476   7.743   4.725   4.343  0.7816 -0.5082  0.3586
  239MOL0     C31477   7.830   4.608   4.385  0.6155 -0.3197 -0.0388
  239MOL0     C31478   7.978   4.630   4.384  0.1103 -0.2194 -0.2970
  239MOL0     C31479   8.039   4.654   4.250  0.6878 -0.2620  0.5650
  239MOL0     C31480   8.064   4.691   4.139 -0.1210 -0.2056  0.5191
  239MOL0     C31481   7.318   4.720   4.471 -0.3933 -0.5227 -0.3902
  239MOL0     C31482   7.197   4.720   4.530  0.8347 -0.7479  0.4818
  239MOL0     H31483   6.965   4.838   5.059 -0.9905 -0.4324  0.2773
  239MOL0     H31484   6.779   4.796   5.226 -0.7884 -1.5257  0.8357
  239MOL0     H31485   6.491   4.456   5.284  0.2729 -0.2574 -0.1098
  239MOL0     H31486   6.518   4.423   5.115  0.7861  1.2504 -1.6022
  239MOL0     H31487   6.380   4.586   5.029 -1.8658 -1.4945 -0.0928
  239MOL0     H31488   6.382   4.684   5.165  2.6861 -0.3254  0.0116
  239MOL0     H31489   6.248   4.502   5.288 -1.6511  0.3744  0.0139
  239MOL0     H31490   6.232   4.424   5.132 -1.9920  0.6540  0.0354
  239MOL0     H31491   6.168   4.732   5.192 -1.0215  0.9813 -1.1035
  239MOL0     H31492   6.123   4.644   5.045 -0.5622  0.4879 -0.4045
  239MOL0     H31493   5.979   4.664   5.287  0.8530  0.4333 -0.5030
  239MOL0     H31494   5.995   4.492   5.247  2.9225 -1.6581 -1.6375
  239MOL0     H31495   5.912   4.561   4.999 -0.1348 -2.5589  1.0212
  239MOL0     H31496   5.878   4.714   5.071 -0.0628 -0.6975 -1.9418
  239MOL0     H31497   5.687   4.527   5.067  0.0213  1.8246 -1.3241
  239MOL0     H31498   5.776   4.462   5.216 -2.2298  1.8813  3.5541
  239MOL0     H31499   5.667   4.740   5.209 -3.3388 -0.7229  0.5712
  239MOL0     H31500   5.753   4.651   5.342 -1.7278  0.9548  1.9280
  239MOL0     H31501   5.578   4.597   5.524  0.6531  1.6088 -1.2323
  239MOL0     H31502   5.369   4.520   5.640  2.4932 -3.1986 -0.3840
  239MOL0     H31503   5.308   4.377   5.575  0.5003  0.4690  4.6994
  239MOL0     H31504   5.116   4.469   5.638  0.6116 -3.1948 -2.2412
  239MOL0     H31505   5.106   4.493   5.469  2.2702 -0.3832 -1.6807
  239MOL0     H31506   5.206   4.694   5.668 -1.9250 -0.8349  0.6922
  239MOL0     H31507   5.204   4.725   5.496  0.0721  2.0409  1.3274
  239MOL0     H31508   5.007   4.827   5.662  0.9945  0.4541 -1.6204
  239MOL0     H31509   4.949   4.668   5.652 -0.2682 -1.0105 -1.0136
  239MOL0     H31510   4.776   4.757   5.676 -0.9332  0.8652  0.1030
  239MOL0     H31511   4.549   4.847   5.671  1.0327 -1.3851 -0.2664
  239MOL0     H31512   4.143   4.891   5.500 -0.2260  0.2745 -0.6795
  239MOL0     H31513   3.920   4.934   5.429 -0.1700  0.4726 -0.7711
  239MOL0     H31514   3.851   5.122   5.032  3.1339  1.9600  0.1956
  239MOL0     H31515   3.828   5.260   5.124  2.7987 -0.6956  0.4687
  239MOL0     H31516   3.607   5.181   5.209  2.6879  2.3481 -0.1241
  239MOL0     H31517   3.623   5.029   5.120 -0.4077 -0.2849 -1.3845
  239MOL0     H31518   3.620   5.173   4.903 -2.2442 -1.3248 -0.4250
  239MOL0     H31519   3.584   5.313   5.015  1.7377 -0.6541  2.5676
  239MOL0     H31520   3.413   5.061   4.947  0.0518  0.2685 -4.0763
  239MOL0     H31521   3.386   5.163   5.083  0.6244 -1.6897  0.5406
  239MOL0     H31522   3.398   5.234   4.787  0.7486 -0.4823  0.0635
  239MOL0     H31523   3.387   5.363   4.903  0.0877 -0.2635  2.1269
  239MOL0     H31524   3.181   5.288   4.996 -0.4509 -2.3545  0.9130
  239MOL0     H31525   3.187   5.138   4.903  3.2197 -0.4691 -0.7033
  239MOL0     H31526   3.041   5.354   4.817 -1.8598 -3.2174 -1.1710
  239MOL0     H31527   3.186   5.401   4.730 -2.3332 -0.7762 -2.8317
  239MOL0     H31528   3.030   5.144   4.743 -2.0259  0.9380  0.2823
  239MOL0     H31529   3.181   5.148   4.654 -0.8284 -1.5114  1.4100
  239MOL0     H31530   4.059   5.176   5.101  0.9066 -1.0259 -1.1065
  239MOL0     H31531   4.290   5.100   5.142  1.3120 -2.5078  0.3165
  239MOL0     H31532   4.607   4.956   5.248 -1.5241  4.5369  1.1385
  239MOL0     H31533   4.826   4.863   5.264 -0.4617 -0.9501  0.5268
  239MOL0     H31534   6.634   4.499   4.948  0.4479 -0.9452  0.3835
  239MOL0     H31535   6.830   4.531   4.800  0.1768  2.4114 -0.9229
  239MOL0     H31536   7.284   4.675   4.851  0.1222  0.6049 -0.0998
  239MOL0     H31537   7.501   4.654   4.750 -0.5055 -1.7068 -0.1373
  239MOL0     H31538   7.528   4.788   4.314  1.2134  1.5712  1.6389
  239MOL0     H31539   7.574   4.618   4.291 -0.1473  0.1599 -0.9148
  239MOL0     H31540   7.767   4.757   4.241  0.0391 -2.2997 -0.4323
  239MOL0     H31541   7.758   4.808   4.413 -5.4193  0.7230  0.8425
  239MOL0     H31542   7.808   4.519   4.326  1.8547  0.1877 -1.3127
  239MOL0     H31543   7.810   4.593   4.492  1.0387  1.7693  0.3787
  239MOL0     H31544   8.002   4.709   4.456  0.3875 -1.1262  0.6282
  239MOL0     H31545   8.021   4.537   4.424  0.8085 -0.0017 -0.5179
  239MOL0     H31546   8.100   4.718   4.042 -0.2086 -0.9023  0.2860
  239MOL0     H31547   7.323   4.719   4.362 -0.2503  0.7188 -0.4062
  239MOL0     H31548   7.110   4.726   4.464  0.0551 -1.1514  1.4571
  240MOL0     O31549   3.812   5.136   3.481 -0.7805 -0.0253  0.1533
  240MOL0     C31550   3.878   5.202   3.566  0.1067 -0.9763 -0.6894
  240MOL0     O31551   3.814   5.283   3.662  0.6519 -0.4442  0.5533
  240MOL0     C31552   3.673   5.274   3.669 -0.8191  0.1987 -0.3484
  240MOL0     C31553   3.593   5.383   3.631 -0.2246 -0.3298  0.2118
  240MOL0     C31554   3.453   5.367   3.633  0.2816  0.0653 -0.0743
  240MOL0     C31555   3.388   5.242   3.663 -0.7261  1.0570 -0.9623
  240MOL0     O31556   3.259   5.212   3.673 -0.2645 -0.5730 -0.2139
  240MOL0     C31557   3.175   5.318   3.627 -0.2458  0.5902  0.3855
  240MOL0     C31558   3.031   5.273   3.637  0.0184  0.6628  0.8569
  240MOL0     C31559   2.939   5.372   3.563 -0.2356  0.2435  0.4195
  240MOL0     C31560   2.792   5.335   3.596 -0.0770 -0.3478  0.3751
  240MOL0     C31561   2.696   5.422   3.509 -1.0146 -0.1555  0.0070
  240MOL0     C31562   2.554   5.367   3.548 -0.0902 -0.2618 -0.6281
  240MOL0     C31563   2.457   5.458   3.481 -0.0664 -0.1753 -0.2235
  240MOL0     C31564   2.312   5.410   3.514  0.2787 -0.8464 -0.2342
  240MOL0     N31565   2.215   5.516   3.476 -0.1586  0.8167 -0.5442
  240MOL0     C31566   2.206   5.570   3.350  0.6776  1.1025  0.6514
  240MOL0     C31567   2.110   5.663   3.369  0.8951 -0.2305 -0.2187
  240MOL0     C31568   2.063   5.759   3.254  0.0085  0.7255 -0.5289
  240MOL0     C31569   1.913   5.779   3.248  0.1299 -0.5846  0.6021
  240MOL0     C31570   1.872   5.859   3.119 -0.1216 -0.2214  0.0969
  240MOL0     C31571   1.724   5.883   3.108  0.6649  0.6066 -0.3082
  240MOL0     O31572   1.675   5.743   3.094 -0.1891 -0.2341  0.6022
  240MOL0     C31573   1.538   5.734   3.106 -0.9583  0.1086 -0.1121
  240MOL0     C31574   1.475   5.778   3.225  0.8762  0.8148 -0.3937
  240MOL0     C31575   1.331   5.787   3.231  0.4866  0.0394  0.2031
  240MOL0     C31576   1.271   5.743   3.110  0.6432 -0.5375  0.2459
  240MOL0     C31577   1.124   5.753   3.104  0.3413 -0.5190  1.3797
  240MOL0     O31578   1.060   5.642   3.058 -0.4634  0.4390 -0.5189
  240MOL0     C31579   0.933   5.604   3.081  0.8592 -0.2749 -0.4844
  240MOL0     C31580   0.886   5.492   3.012 -0.4469 -0.4487  0.4133
  240MOL0     C31581   0.757   5.443   3.037  0.5994 -0.0261 -0.3439
  240MOL0     C31582   0.659   5.515   3.119 -0.2238 -0.3604 -0.2647
  240MOL0     O31583   0.540   5.461   3.148 -0.1037 -1.2612  0.0054
  240MOL0     C31584   0.424   5.545   3.156 -0.8865  0.6736 -0.3657
  240MOL0     C31585   0.320   5.442   3.126  0.7002 -0.0596 -0.4377
  240MOL0     C31586   0.188   5.525   3.141  0.5258  0.0805 -0.0753
  240MOL0     C31587   0.069   5.433   3.112  0.6432 -0.1880 -0.6226
  240MOL0     C31588  -0.066   5.509   3.133  1.1101  0.7038 -0.0923
  240MOL0     C31589  -0.172   5.428   3.209  0.0941 -0.5441  0.2116
  240MOL0     C31590  -0.304   5.490   3.165  0.6108  0.8270  0.0285
  240MOL0     C31591  -0.416   5.386   3.195 -0.3791  0.5323  0.1040
  240MOL0    Cl31592  -0.576   5.445   3.161  0.0116  0.2482  0.3271
  240MOL0     C31593   0.705   5.634   3.175 -0.0234 -0.4365  0.0992
  240MOL0     C31594   0.836   5.679   3.155 -0.3870  0.1838 -1.1124
  240MOL0     O31595   1.069   5.856   3.141  0.8812  0.4919  0.0357
  240MOL0     C31596   1.332   5.689   2.998  0.0547 -0.0021  0.3015
  240MOL0     C31597   1.469   5.696   2.986  0.4037 -0.1804 -0.3858
  240MOL0     N31598   2.076   5.674   3.505  0.6520 -0.1804  0.5384
  240MOL0     N31599   2.131   5.576   3.565  0.0976 -0.4879  0.2473
  240MOL0     C31600   3.472   5.131   3.695  0.7247 -0.3398  0.2395
  240MOL0     C31601   3.617   5.148   3.705  0.2169 -0.1463  0.1266
  240MOL0     C31602   4.024   5.199   3.570  1.0144 -0.5731  0.4000
  240MOL0     C31603   4.093   5.281   3.659 -0.5997 -0.3721  0.1491
  240MOL0     C31604   4.230   5.292   3.658 -0.6868 -0.8991  0.1252
  240MOL0     C31605   4.314   5.223   3.576 -0.4905 -0.3602  0.5881
  240MOL0     O31606   4.449   5.239   3.586  0.1290 -0.3258 -0.5172
  240MOL0     C31607   4.538   5.202   3.480  0.6463 -0.0686  0.0449
  240MOL0     C31608   4.687   5.184   3.524 -0.2304 -0.8849  0.8041
  240MOL0     C31609   4.728   5.335   3.545 -0.2793  0.5911 -0.0388
  240MOL0     C31610   4.875   5.352   3.577  1.2655  0.2629  0.4889
  240MOL0     C31611   4.910   5.286   3.705 -0.3104  1.4164 -0.1443
  240MOL0     C31612   4.931   5.206   3.794 -0.6949  0.6262  0.9013
  240MOL0     C31613   4.243   5.148   3.478  0.1397  0.3680  0.5674
  240MOL0     C31614   4.106   5.133   3.478  0.0510  0.2907  0.5037
  240MOL0     H31615   3.632   5.483   3.615 -1.2552 -0.0787 -0.8825
  240MOL0     H31616   3.396   5.456   3.610  1.5649  1.8321  2.8933
  240MOL0     H31617   3.196   5.345   3.523 -1.9082  0.8936  0.1040
  240MOL0     H31618   3.189   5.403   3.695  2.6785  0.1535  0.4376
  240MOL0     H31619   3.000   5.264   3.741 -1.1194 -0.2111  0.4575
  240MOL0     H31620   3.017   5.174   3.593  0.3260  0.1570  1.8765
  240MOL0     H31621   2.956   5.362   3.455  3.3343  0.3046  0.8581
  240MOL0     H31622   2.966   5.474   3.592  0.8270 -0.5397  2.3774
  240MOL0     H31623   2.786   5.229   3.569 -0.2521  0.0500 -1.2830
  240MOL0     H31624   2.774   5.359   3.701  1.7297 -2.6864  1.3083
  240MOL0     H31625   2.709   5.408   3.401  2.1778  1.7236  0.0490
  240MOL0     H31626   2.709   5.528   3.530  0.1086 -0.1292 -0.7293
  240MOL0     H31627   2.537   5.378   3.655 -2.3857  1.6473 -1.0947
  240MOL0     H31628   2.541   5.260   3.527  1.1613 -1.1291  2.5093
  240MOL0     H31629   2.477   5.558   3.522  1.8163 -0.5419 -0.1590
  240MOL0     H31630   2.481   5.455   3.374 -0.7887 -2.4695 -0.3776
  240MOL0     H31631   2.312   5.398   3.623  0.4985  0.6040 -0.0535
  240MOL0     H31632   2.287   5.307   3.485  2.1351 -1.4571  0.1831
  240MOL0     H31633   2.261   5.554   3.259  3.0587  0.1717  2.1687
  240MOL0     H31634   2.106   5.718   3.163  1.8476  2.2305 -0.3923
  240MOL0     H31635   2.122   5.851   3.254  1.8680 -0.4062  0.6864
  240MOL0     H31636   1.883   5.844   3.331 -0.6680 -0.7496  0.4526
  240MOL0     H31637   1.864   5.681   3.249  1.1246 -1.0883  1.0232
  240MOL0     H31638   1.927   5.954   3.125  1.3107 -1.0890  1.6150
  240MOL0     H31639   1.917   5.825   3.025  1.6537 -0.1836  0.8830
  240MOL0     H31640   1.701   5.945   3.021  1.1318 -0.7454 -1.4253
  240MOL0     H31641   1.685   5.936   3.196  2.6415  1.1705  0.2759
  240MOL0     H31642   1.537   5.824   3.301  0.8501  0.7028 -0.3049
  240MOL0     H31643   1.283   5.828   3.319  1.0450  0.2620  0.4083
  240MOL0     H31644   0.956   5.422   2.967  1.3503 -1.1223  3.9128
  240MOL0     H31645   0.726   5.347   2.996 -0.3174 -0.1601  0.6232
  240MOL0     H31646   0.420   5.631   3.089 -0.1307  1.7306  0.8893
  240MOL0     H31647   0.419   5.578   3.260  0.0981 -0.8862  0.2213
  240MOL0     H31648   0.325   5.345   3.176 -2.1300 -0.8991 -1.5564
  240MOL0     H31649   0.324   5.416   3.019 -0.3722  0.6188 -0.6653
  240MOL0     H31650   0.176   5.614   3.079 -0.5954 -1.0120 -1.4866
  240MOL0     H31651   0.187   5.566   3.243  3.1638  1.0510 -0.3773
  240MOL0     H31652   0.067   5.399   3.008 -1.4317 -0.1762 -0.6313
  240MOL0     H31653   0.076   5.343   3.174 -1.0443 -0.0857 -0.2344
  240MOL0     H31654  -0.103   5.555   3.040  0.5606  4.2322  1.7057
  240MOL0     H31655  -0.052   5.596   3.197 -0.0250  0.8218  0.0314
  240MOL0     H31656  -0.173   5.452   3.316  1.7271  0.3173  0.0620
  240MOL0     H31657  -0.153   5.324   3.182 -0.7111 -0.1409 -2.1924
  240MOL0     H31658  -0.335   5.583   3.213 -2.9661  1.3042 -2.7119
  240MOL0     H31659  -0.310   5.497   3.056 -3.8410 -2.3924 -0.1973
  240MOL0     H31660  -0.416   5.367   3.302 -0.3021  0.9655  0.1827
  240MOL0     H31661  -0.408   5.289   3.144 -2.3634 -0.3071  1.2770
  240MOL0     H31662   0.647   5.692   3.246  0.5685 -0.7562  0.8522
  240MOL0     H31663   0.862   5.768   3.213 -1.0513 -0.2087 -0.2013
  240MOL0     H31664   1.278   5.647   2.913  0.2476 -2.0970  1.1339
  240MOL0     H31665   1.518   5.663   2.895 -1.4868 -2.1311 -0.8024
  240MOL0     H31666   3.414   5.045   3.727 -0.4059  0.8311  1.4659
  240MOL0     H31667   3.675   5.061   3.734  0.7944  0.0724 -0.3559
  240MOL0     H31668   4.040   5.342   3.732 -0.5921 -0.1176 -0.0577
  240MOL0     H31669   4.270   5.356   3.736 -0.2748 -2.8307  1.5905
  240MOL0     H31670   4.534   5.282   3.407  0.0268 -0.9445 -0.9142
  240MOL0     H31671   4.506   5.106   3.436 -0.8009  0.3453  0.1386
  240MOL0     H31672   4.686   5.123   3.615 -1.5188 -0.5976  1.0011
  240MOL0     H31673   4.741   5.133   3.444  0.3340 -0.3038  0.8033
  240MOL0     H31674   4.673   5.370   3.632 -0.2542  0.3890  0.0574
  240MOL0     H31675   4.705   5.396   3.457 -0.1150 -0.9048 -1.1683
  240MOL0     H31676   4.936   5.317   3.494 -2.1453 -2.1806 -1.2141
  240MOL0     H31677   4.899   5.458   3.592  0.4260  0.9810 -2.6534
  240MOL0     H31678   4.946   5.125   3.863 -2.3570 -2.2877 -1.9074
  240MOL0     H31679   4.296   5.098   3.397  0.6557 -0.2940  1.3008
  240MOL0     H31680   4.053   5.076   3.402 -1.5595 -0.8802  2.3861
  241MOL0     O31681   0.107   8.809   2.388  0.2752 -0.1099  0.1558
  241MOL0     C31682   0.151   8.699   2.404  0.2918 -0.0687 -0.5221
  241MOL0     O31683   0.094   8.582   2.351 -0.1559 -0.1679 -0.2649
  241MOL0     C31684  -0.016   8.598   2.268 -1.4945 -0.5009 -0.0255
  241MOL0     C31685  -0.141   8.555   2.300  0.5417 -0.6821 -0.4828
  241MOL0     C31686  -0.251   8.573   2.214  1.0553 -0.0174 -0.5233
  241MOL0     C31687  -0.230   8.639   2.089  0.1401 -0.2358  0.6275
  241MOL0     O31688  -0.343   8.661   2.022  0.4749 -0.3329 -0.0136
  241MOL0     C31689  -0.328   8.712   1.890 -0.3579  0.2772  0.0851
  241MOL0     C31690  -0.450   8.712   1.794 -0.2910  0.1698  1.0110
  241MOL0     C31691  -0.529   8.840   1.808 -0.3714  0.1165  0.2367
  241MOL0     C31692  -0.587   8.882   1.950 -0.5428  0.4126 -0.2252
  241MOL0     C31693  -0.706   8.970   1.929 -0.4926  0.3614 -0.1522
  241MOL0     C31694  -0.671   9.101   1.846  0.6093 -0.1591 -0.3667
  241MOL0     C31695  -0.790   9.166   1.766 -0.9683 -0.4686  0.1301
  241MOL0     C31696  -0.913   9.186   1.849 -0.0712 -0.0232 -0.2460
  241MOL0     N31697  -1.026   9.221   1.764 -0.6519 -0.1004  0.3940
  241MOL0     C31698  -1.016   9.320   1.671 -0.0650 -0.0876  1.4252
  241MOL0     C31699  -1.128   9.296   1.596  0.2069  1.0048  0.1314
  241MOL0     C31700  -1.164   9.358   1.463 -0.5421  0.0468 -0.0897
  241MOL0     C31701  -1.311   9.371   1.440 -0.1330  0.2014  0.5689
  241MOL0     C31702  -1.392   9.448   1.547 -0.5516 -0.7388  0.0911
  241MOL0     C31703  -1.379   9.602   1.548  0.3361  0.5119 -0.2162
  241MOL0     O31704  -1.445   9.670   1.438 -0.1014 -0.2345 -0.0607
  241MOL0     C31705  -1.582   9.703   1.428 -1.1395  0.2126  0.8061
  241MOL0     C31706  -1.670   9.712   1.534  0.0545 -0.1184 -0.1832
  241MOL0     C31707  -1.802   9.755   1.517  0.3010  0.8880  0.1032
  241MOL0     C31708  -1.854   9.775   1.386  0.3451 -0.7456 -0.1596
  241MOL0     C31709  -1.984   9.841   1.368  0.2495  0.3441 -0.1333
  241MOL0     O31710  -2.072   9.834   1.482 -0.1980  0.6630  0.7799
  241MOL0     C31711  -2.204   9.859   1.452 -0.1475 -0.7465 -0.4176
  241MOL0     C31712  -2.293   9.763   1.398  0.8754  0.4100  0.0174
  241MOL0     C31713  -2.417   9.790   1.347 -0.3839 -0.5874  1.1294
  241MOL0     C31714  -2.464   9.928   1.347  0.3677  0.0745 -0.9614
  241MOL0     O31715  -2.592   9.944   1.305 -0.6853  0.2232 -0.0217
  241MOL0     C31716  -2.652  10.067   1.351 -0.3571 -0.6140 -0.5005
  241MOL0     C31717  -2.796  10.069   1.312 -0.0631  1.3523  0.5253
  241MOL0     C31718  -2.887   9.982   1.394 -0.2936 -0.9011 -0.3626
  241MOL0     C31719  -3.018   9.972   1.332  0.9415  0.1858 -0.8252
  241MOL0     C31720  -3.113   9.883   1.413  0.4206 -0.4170 -0.4928
  241MOL0     C31721  -3.235   9.840   1.333 -0.2150  0.3861 -0.0211
  241MOL0     C31722  -3.331   9.751   1.420  0.5171 -0.2857 -0.9266
  241MOL0     C31723  -3.453   9.713   1.345  0.7846  0.5352 -0.3756
  241MOL0    Cl31724  -3.584   9.614   1.427  0.1869 -0.1161  0.1190
  241MOL0     C31725  -2.378  10.029   1.396 -1.3002  0.1637  0.5200
  241MOL0     C31726  -2.250   9.996   1.451 -0.6582  0.5259  0.3910
  241MOL0     O31727  -2.015   9.865   1.248  0.3714  0.7537  0.1139
  241MOL0     C31728  -1.770   9.755   1.279  0.1510  0.4225 -0.0127
  241MOL0     C31729  -1.633   9.731   1.303 -1.0684 -0.1192 -0.0014
  241MOL0     N31730  -1.199   9.187   1.642 -0.4069  0.1892 -0.1565
  241MOL0     N31731  -1.140   9.146   1.748  0.2830 -0.3544 -0.5587
  241MOL0     C31732  -0.096   8.681   2.058  0.1184  0.4370 -0.3003
  241MOL0     C31733   0.010   8.655   2.145 -0.3572  0.5458  0.0542
  241MOL0     C31734   0.285   8.691   2.462  0.1440  0.1332 -0.1724
  241MOL0     C31735   0.344   8.810   2.499 -0.7909  1.0964  0.2173
  241MOL0     C31736   0.477   8.809   2.535 -0.0605  0.3445  0.0089
  241MOL0     C31737   0.560   8.692   2.541  0.0093 -0.5749 -0.7554
  241MOL0     O31738   0.695   8.687   2.575  0.6444 -0.1466 -0.4109
  241MOL0     C31739   0.772   8.579   2.525  0.0588  0.6010 -0.2277
  241MOL0     C31740   0.916   8.623   2.518  0.5059 -0.0149  0.3943
  241MOL0     C31741   0.973   8.641   2.658  0.4372 -0.2725  0.4703
  241MOL0     C31742   1.113   8.693   2.645 -0.2800  0.2066  0.9925
  241MOL0     C31743   1.192   8.658   2.760  0.3490 -0.4065  0.5662
  241MOL0     C31744   1.255   8.620   2.860  0.0499 -1.0238 -0.1023
  241MOL0     C31745   0.490   8.573   2.501 -0.1658  0.2505  0.3129
  241MOL0     C31746   0.356   8.569   2.468  0.1893  0.5591  0.4553
  241MOL0     H31747  -0.153   8.509   2.397  0.1330  1.2788  0.4500
  241MOL0     H31748  -0.354   8.541   2.228  1.1881 -0.2085  0.0402
  241MOL0     H31749  -0.250   8.657   1.835 -1.0679  0.2975 -0.9692
  241MOL0     H31750  -0.299   8.816   1.912  1.5149 -0.0167 -0.8112
  241MOL0     H31751  -0.502   8.619   1.823  1.2339 -0.5790  1.4893
  241MOL0     H31752  -0.419   8.690   1.692 -3.6385 -0.2442 -0.0435
  241MOL0     H31753  -0.617   8.840   1.742 -0.7874  0.5786  0.7748
  241MOL0     H31754  -0.458   8.919   1.782 -1.1381  0.1411 -2.0078
  241MOL0     H31755  -0.621   8.787   1.993 -0.0156  0.5679  0.5483
  241MOL0     H31756  -0.514   8.923   2.020  0.0909 -0.2091 -0.5046
  241MOL0     H31757  -0.762   8.996   2.019  2.8460  0.3918  2.1064
  241MOL0     H31758  -0.782   8.908   1.881 -1.5366  0.7915  0.9039
  241MOL0     H31759  -0.592   9.090   1.771  2.1812  0.8281  1.0715
  241MOL0     H31760  -0.626   9.172   1.916  0.0250 -0.1465 -0.0003
  241MOL0     H31761  -0.753   9.263   1.732  0.1839 -0.0632  2.3800
  241MOL0     H31762  -0.816   9.103   1.680 -0.2190 -3.0818  1.6968
  241MOL0     H31763  -0.894   9.273   1.913 -2.0601 -0.7083  1.3796
  241MOL0     H31764  -0.936   9.101   1.913 -1.4999  0.8171  0.4025
  241MOL0     H31765  -0.936   9.392   1.658 -0.4805  0.1657  0.1680
  241MOL0     H31766  -1.114   9.300   1.385 -1.5824  0.5048 -1.1327
  241MOL0     H31767  -1.125   9.460   1.464 -2.6499  0.9253 -0.6963
  241MOL0     H31768  -1.356   9.273   1.419 -0.1254  0.4833 -0.8465
  241MOL0     H31769  -1.319   9.426   1.346  3.1930 -0.4880 -0.2339
  241MOL0     H31770  -1.500   9.435   1.533 -0.7872  0.7694  0.3478
  241MOL0     H31771  -1.378   9.401   1.645 -0.5942 -0.3281  0.2967
  241MOL0     H31772  -1.275   9.632   1.528  0.9806 -1.2988  0.2425
  241MOL0     H31773  -1.412   9.647   1.642 -1.4966  0.6586 -0.9018
  241MOL0     H31774  -1.639   9.689   1.636  0.2052  1.1312  0.0693
  241MOL0     H31775  -1.873   9.762   1.600 -0.3398 -2.7716  0.0204
  241MOL0     H31776  -2.264   9.659   1.405 -1.0201 -0.1151  0.7201
  241MOL0     H31777  -2.478   9.704   1.323 -0.3702 -0.6431  1.2897
  241MOL0     H31778  -2.599  10.161   1.331  2.1865 -1.6666  0.8448
  241MOL0     H31779  -2.643  10.054   1.460  1.1872 -0.0660 -0.5292
  241MOL0     H31780  -2.803  10.039   1.207  1.0495 -1.8483  1.2435
  241MOL0     H31781  -2.824  10.175   1.309 -0.7771  1.1681  0.4598
  241MOL0     H31782  -2.894  10.038   1.488  2.1410 -1.6947  0.3718
  241MOL0     H31783  -2.844   9.883   1.412 -0.5773 -0.7853  1.0926
  241MOL0     H31784  -3.076  10.064   1.324 -3.9135 -2.2326  2.1483
  241MOL0     H31785  -3.022   9.938   1.228 -1.0299 -3.0668  0.1785
  241MOL0     H31786  -3.144   9.939   1.502  1.3294 -0.0762 -0.3784
  241MOL0     H31787  -3.071   9.791   1.453  5.0203  0.5102 -2.4676
  241MOL0     H31788  -3.204   9.790   1.240 -0.4945 -1.2034  0.7030
  241MOL0     H31789  -3.277   9.938   1.312 -0.3327  0.4290  0.4128
  241MOL0     H31790  -3.282   9.658   1.449 -0.9110 -0.4968  1.0178
  241MOL0     H31791  -3.363   9.807   1.509  1.1843  1.3024 -1.6355
  241MOL0     H31792  -3.424   9.673   1.247 -1.8686 -0.7128 -0.7402
  241MOL0     H31793  -3.508   9.803   1.315 -1.6337 -0.7332  0.0387
  241MOL0     H31794  -2.399  10.135   1.407  1.2979  0.7741  0.4263
  241MOL0     H31795  -2.204  10.087   1.487 -1.6026  1.1655  0.0074
  241MOL0     H31796  -1.804   9.757   1.176 -1.2360 -2.3709  0.3002
  241MOL0     H31797  -1.572   9.721   1.214 -0.7684 -0.6797  0.2619
  241MOL0     H31798  -0.068   8.729   1.965 -3.2079  0.7374 -1.2477
  241MOL0     H31799   0.105   8.701   2.119 -0.4530  0.8656  0.2727
  241MOL0     H31800   0.289   8.903   2.490 -0.8950  0.8319 -3.0691
  241MOL0     H31801   0.526   8.903   2.556 -0.5287  0.6403 -0.1940
  241MOL0     H31802   0.740   8.566   2.422 -1.8165 -1.7600  0.5758
  241MOL0     H31803   0.758   8.494   2.593  1.3865  2.9369  3.2752
  241MOL0     H31804   0.974   8.541   2.474  1.5043 -1.6444  4.2909
  241MOL0     H31805   0.918   8.717   2.463  0.1057 -0.7793 -0.9664
  241MOL0     H31806   0.976   8.542   2.703 -0.2896 -0.1128  0.8813
  241MOL0     H31807   0.913   8.712   2.715  0.0514  0.1916 -0.4839
  241MOL0     H31808   1.166   8.653   2.558 -0.8930  2.5001 -0.5118
  241MOL0     H31809   1.112   8.802   2.634 -2.2514  0.1483  0.2827
  241MOL0     H31810   1.306   8.589   2.950 -1.8131 -0.3132  1.2630
  241MOL0     H31811   0.522   8.469   2.504  1.6851  0.7555 -0.8284
  241MOL0     H31812   0.305   8.477   2.441  1.7054 -1.1795  2.9901
  242MOL0     O31813   7.027   1.722   8.251 -0.1832  0.2980 -0.4263
  242MOL0     C31814   7.025   1.841   8.261 -0.3529  0.1104 -0.8963
  242MOL0     O31815   6.908   1.910   8.281 -0.3836 -0.1890  0.6669
  242MOL0     C31816   6.794   1.847   8.323  0.2997 -0.7413  0.5350
  242MOL0     C31817   6.743   1.862   8.458  0.2595 -0.4495  0.4971
  242MOL0     C31818   6.628   1.794   8.499 -0.0673 -0.7912  0.0468
  242MOL0     C31819   6.557   1.714   8.412  0.1316 -0.0461  0.1706
  242MOL0     O31820   6.447   1.649   8.462 -0.3431 -0.0602 -0.2870
  242MOL0     C31821   6.350   1.591   8.369  0.2946 -0.3158 -0.4197
  242MOL0     C31822   6.219   1.560   8.445 -0.8355  0.5291  0.4036
  242MOL0     C31823   6.129   1.467   8.357 -1.0740 -0.8390  0.4676
  242MOL0     C31824   6.102   1.522   8.218 -0.5228  0.2042  0.2536
  242MOL0     C31825   5.976   1.459   8.157 -0.3083  1.1440  0.1012
  242MOL0     C31826   5.992   1.305   8.129  0.9486  0.2283  0.8179
  242MOL0     C31827   5.876   1.242   8.047  0.2269  0.2264 -0.5772
  242MOL0     C31828   5.729   1.260   8.088  0.1836  0.2910 -0.4872
  242MOL0     N31829   5.724   1.205   8.228  0.9853  0.3882  0.0259
  242MOL0     C31830   5.734   1.272   8.347  0.6767  0.5568  0.5982
  242MOL0     C31831   5.702   1.182   8.440  0.5475 -0.0153  0.1586
  242MOL0     C31832   5.685   1.208   8.585 -0.5469  0.1897  0.9387
  242MOL0     C31833   5.812   1.179   8.659  0.5118 -0.3962 -0.0167
  242MOL0     C31834   5.936   1.256   8.592 -0.0689  0.4315 -0.1040
  242MOL0     C31835   6.060   1.221   8.669  0.1332 -0.0513 -0.2476
  242MOL0     O31836   6.169   1.277   8.602 -0.3331 -0.2685  0.2261
  242MOL0     C31837   6.296   1.251   8.657 -0.5675  0.0701 -0.2628
  242MOL0     C31838   6.403   1.273   8.574 -0.6141 -0.2445 -0.3142
  242MOL0     C31839   6.536   1.256   8.607 -0.2323 -0.1901 -0.3711
  242MOL0     C31840   6.563   1.206   8.735 -0.1120 -0.6433 -0.5215
  242MOL0     C31841   6.701   1.165   8.769  0.0081 -0.1254  0.2986
  242MOL0     O31842   6.796   1.165   8.674  0.5958 -0.7943 -0.0858
  242MOL0     C31843   6.921   1.121   8.702  0.2650 -0.0461 -0.5628
  242MOL0     C31844   7.028   1.195   8.645 -0.3457  0.1495  0.7438
  242MOL0     C31845   7.161   1.153   8.665 -0.6974  0.0366 -0.3670
  242MOL0     C31846   7.197   1.037   8.733  0.6631 -0.8282  0.5731
  242MOL0     O31847   7.325   0.993   8.744 -0.5799 -0.1939  0.0473
  242MOL0     C31848   7.364   0.870   8.806  0.5532  0.0810 -0.0867
  242MOL0     C31849   7.509   0.849   8.775 -0.9170 -0.4451 -0.8263
  242MOL0     C31850   7.557   0.716   8.830  0.3652 -0.6841 -0.2635
  242MOL0     C31851   7.702   0.674   8.798  0.5506  0.1566 -0.2033
  242MOL0     C31852   7.731   0.542   8.878  0.3496 -0.9710  0.3505
  242MOL0     C31853   7.864   0.487   8.839 -0.1626 -0.5585 -0.7216
  242MOL0     C31854   7.877   0.428   8.707 -0.3730 -0.1473 -0.2070
  242MOL0     C31855   7.993   0.320   8.707  0.8813  0.0553  0.7021
  242MOL0    Cl31856   8.145   0.392   8.770 -0.0913 -0.2555 -0.2961
  242MOL0     C31857   7.085   0.972   8.800 -0.2277  0.4368  0.9303
  242MOL0     C31858   6.952   1.008   8.782 -0.2240 -0.6330  0.2207
  242MOL0     O31859   6.711   1.118   8.885  0.2359 -0.0269 -0.1283
  242MOL0     C31860   6.453   1.180   8.825  0.0623 -0.2021  0.6070
  242MOL0     C31861   6.316   1.196   8.785  0.0632 -0.7152 -0.2660
  242MOL0     N31862   5.691   1.057   8.380  0.1697  0.0754  0.5814
  242MOL0     N31863   5.699   1.071   8.253 -0.3795 -0.0376  0.5333
  242MOL0     C31864   6.601   1.707   8.274  0.3685 -0.3352  0.7121
  242MOL0     C31865   6.718   1.767   8.235  0.2152 -0.2326  0.5425
  242MOL0     C31866   7.153   1.911   8.248  0.0539 -0.1603  0.0783
  242MOL0     C31867   7.154   2.054   8.280 -0.3046 -0.3768 -0.0835
  242MOL0     C31868   7.277   2.115   8.303 -0.4515  1.2701  0.6496
  242MOL0     C31869   7.394   2.046   8.288 -1.1270 -0.1780 -0.8266
  242MOL0     O31870   7.509   2.109   8.318 -0.1147  0.4664 -0.0963
  242MOL0     C31871   7.642   2.056   8.275  0.2686 -0.3340 -0.3260
  242MOL0     C31872   7.746   2.100   8.383  0.1018  0.1076 -0.5026
  242MOL0     C31873   7.750   2.256   8.399  0.1721 -0.8172  1.3595
  242MOL0     C31874   7.868   2.307   8.492 -0.1911 -0.0246  1.1637
  242MOL0     C31875   7.816   2.285   8.620  0.3474 -0.5804 -0.3465
  242MOL0     C31876   7.790   2.271   8.740 -0.5975 -0.2230  0.2527
  242MOL0     C31877   7.389   1.906   8.264  0.2396 -0.0116  0.5939
  242MOL0     C31878   7.271   1.839   8.237 -0.3462  0.5684 -0.2584
  242MOL0     H31879   6.794   1.936   8.518  0.2470  0.8504 -1.0367
  242MOL0     H31880   6.589   1.808   8.599 -2.9483 -1.3392 -0.9265
  242MOL0     H31881   6.389   1.494   8.336  3.2315 -0.1413  2.0823
  242MOL0     H31882   6.338   1.666   8.290 -0.6042  2.0132  1.7978
  242MOL0     H31883   6.165   1.655   8.457 -5.4239 -1.7937  0.5081
  242MOL0     H31884   6.240   1.504   8.536 -1.7184  1.0623  0.9483
  242MOL0     H31885   6.032   1.471   8.407 -1.7430 -0.3472 -0.7920
  242MOL0     H31886   6.165   1.365   8.345 -1.4822 -0.8585 -0.8985
  242MOL0     H31887   6.090   1.631   8.227 -2.8024  0.0689 -0.6947
  242MOL0     H31888   6.187   1.500   8.152  0.7133  0.6718  1.6371
  242MOL0     H31889   5.962   1.504   8.058  2.8025 -0.5371 -1.2689
  242MOL0     H31890   5.887   1.471   8.220  1.3187  2.9614  2.2251
  242MOL0     H31891   5.992   1.250   8.223  1.1912 -2.0032 -0.4355
  242MOL0     H31892   6.087   1.285   8.079 -0.7093 -0.2008 -2.4606
  242MOL0     H31893   5.891   1.278   7.945 -2.3222 -0.5023 -1.2871
  242MOL0     H31894   5.891   1.133   8.054 -0.8225  0.1889  2.7649
  242MOL0     H31895   5.668   1.210   8.012  1.8231  2.0098 -3.1229
  242MOL0     H31896   5.699   1.366   8.089  1.5383  0.6814  0.0880
  242MOL0     H31897   5.756   1.376   8.370  2.5781 -0.0467  1.7807
  242MOL0     H31898   5.604   1.145   8.621 -0.8878 -0.7576 -1.3359
  242MOL0     H31899   5.655   1.312   8.604 -0.0602  0.3105  1.0763
  242MOL0     H31900   5.840   1.073   8.650  1.4257 -0.1073 -0.7629
  242MOL0     H31901   5.794   1.223   8.758 -1.4110  1.7542 -1.2621
  242MOL0     H31902   5.961   1.241   8.486  2.3874 -2.1132  0.7118
  242MOL0     H31903   5.923   1.361   8.616 -1.5935  0.5114 -1.0906
  242MOL0     H31904   6.065   1.113   8.684  0.4848 -0.0560 -0.3950
  242MOL0     H31905   6.042   1.269   8.766 -2.1136 -1.6601  0.2083
  242MOL0     H31906   6.384   1.314   8.475  0.6098 -2.5413 -1.6032
  242MOL0     H31907   6.610   1.283   8.532  0.4706 -1.1400 -0.0395
  242MOL0     H31908   6.999   1.275   8.578 -1.0326  0.3777  1.3061
  242MOL0     H31909   7.234   1.218   8.617 -1.6644  0.7432 -0.9289
  242MOL0     H31910   7.306   0.785   8.770  0.9439  0.1585 -0.9269
  242MOL0     H31911   7.353   0.884   8.914  0.7113  0.0416 -0.0648
  242MOL0     H31912   7.572   0.927   8.817  1.3518 -1.8933 -1.3581
  242MOL0     H31913   7.523   0.849   8.667  3.4688 -0.6853 -0.4291
  242MOL0     H31914   7.488   0.651   8.775 -0.3905  0.0842 -0.2511
  242MOL0     H31915   7.539   0.712   8.938  3.3174 -2.5530  0.2594
  242MOL0     H31916   7.720   0.665   8.690  1.5466  1.2062 -0.1460
  242MOL0     H31917   7.778   0.745   8.831  2.0585 -1.7065  0.4914
  242MOL0     H31918   7.651   0.470   8.861 -0.8778 -0.6077  3.8648
  242MOL0     H31919   7.729   0.555   8.986  1.5622  3.7752  0.0145
  242MOL0     H31920   7.894   0.413   8.914  2.6416 -1.5129 -2.6072
  242MOL0     H31921   7.929   0.574   8.848 -1.2655  0.1844  0.3981
  242MOL0     H31922   7.779   0.386   8.684 -1.5072  1.9944  0.4101
  242MOL0     H31923   7.898   0.504   8.631 -1.5469  0.7779  0.3611
  242MOL0     H31924   8.012   0.281   8.607  1.1309 -0.6070  0.9996
  242MOL0     H31925   7.959   0.236   8.769  0.0875 -1.6666 -1.8893
  242MOL0     H31926   7.102   0.879   8.854  0.1444 -1.3263 -1.9646
  242MOL0     H31927   6.867   0.961   8.830 -4.6137  2.9024 -3.2310
  242MOL0     H31928   6.477   1.121   8.913  1.1731 -2.8529 -1.3090
  242MOL0     H31929   6.232   1.157   8.841 -0.7940 -1.2402 -1.8360
  242MOL0     H31930   6.546   1.650   8.200  0.2090  1.6164 -0.7761
  242MOL0     H31931   6.751   1.747   8.134 -2.0690 -1.8428  0.0487
  242MOL0     H31932   7.069   2.122   8.281  2.5519  3.8911 -4.0211
  242MOL0     H31933   7.285   2.220   8.328  1.7540  1.9571 -2.4094
  242MOL0     H31934   7.662   2.093   8.174 -1.1797 -0.7116 -0.7815
  242MOL0     H31935   7.647   1.947   8.272 -1.1684 -0.4068 -1.1465
  242MOL0     H31936   7.720   2.057   8.480  0.8457  4.0706  1.6520
  242MOL0     H31937   7.842   2.052   8.361  0.1813 -0.3842  0.8233
  242MOL0     H31938   7.657   2.297   8.439  0.0854  1.4448 -0.9674
  242MOL0     H31939   7.757   2.303   8.301  0.8659  1.0698  2.2596
  242MOL0     H31940   7.960   2.252   8.471  0.1762  0.8521  0.4089
  242MOL0     H31941   7.891   2.413   8.473  0.8190 -0.6460 -1.5564
  242MOL0     H31942   7.760   2.266   8.843  1.5066  0.0735  0.9311
  242MOL0     H31943   7.482   1.850   8.265 -1.2849 -2.8761 -2.1444
  242MOL0     H31944   7.266   1.731   8.232  1.9324  0.4115 -0.1427
  243MOL0     O31945   3.652   2.215   1.307 -0.0285  0.4235 -0.2305
  243MOL0     C31946   3.647   2.135   1.217  0.8394 -0.3717  0.0032
  243MOL0     O31947   3.751   2.060   1.166  0.5215 -0.8178 -0.5038
  243MOL0     C31948   3.884   2.075   1.193 -0.0145 -0.2377  0.1865
  243MOL0     C31949   3.941   2.130   1.306  0.0287 -0.1939  0.3592
  243MOL0     C31950   4.081   2.130   1.332 -0.1737  0.8900  0.5622
  243MOL0     C31951   4.168   2.076   1.231  0.2700 -0.0033  0.1997
  243MOL0     O31952   4.305   2.089   1.250  0.5719  0.1638 -0.1949
  243MOL0     C31953   4.390   1.980   1.213  1.0711  0.5523 -0.2354
  243MOL0     C31954   4.535   2.027   1.229 -0.9852 -0.5960 -0.5175
  243MOL0     C31955   4.642   1.912   1.191 -0.4980 -0.5371  0.9671
  243MOL0     C31956   4.787   1.958   1.215  0.2900  0.0987 -0.0579
  243MOL0     C31957   4.890   1.849   1.184  0.8471  0.1247 -0.3403
  243MOL0     C31958   5.026   1.896   1.227  0.6909  0.6443  0.2761
  243MOL0     C31959   5.124   1.778   1.234 -0.3041 -0.2396  0.8060
  243MOL0     C31960   5.262   1.821   1.231 -0.4177  0.0994 -0.1740
  243MOL0     N31961   5.294   1.892   1.354  0.7494 -0.1645  0.4121
  243MOL0     C31962   5.282   2.027   1.370 -0.5231  0.2417 -0.4673
  243MOL0     C31963   5.328   2.056   1.496  0.2832  0.4516  0.3604
  243MOL0     C31964   5.329   2.200   1.552  0.5232 -0.1909 -0.3548
  243MOL0     C31965   5.222   2.215   1.662  0.2055  0.2548  0.4661
  243MOL0     C31966   5.087   2.136   1.642 -0.5093 -0.2024 -0.2375
  243MOL0     C31967   4.989   2.165   1.745 -0.6228 -1.0523  0.2479
  243MOL0     O31968   4.874   2.078   1.725  0.5043  0.3012 -0.1485
  243MOL0     C31969   4.752   2.128   1.766  1.0397  0.9775 -0.2795
  243MOL0     C31970   4.667   2.185   1.670  0.1693 -0.4255 -0.3896
  243MOL0     C31971   4.544   2.234   1.706  0.6551  0.4130  0.1317
  243MOL0     C31972   4.510   2.228   1.844  0.8178 -0.1124 -0.3727
  243MOL0     C31973   4.369   2.252   1.884 -0.2320  0.9163 -0.6294
  243MOL0     O31974   4.312   2.181   1.985  0.3924 -0.0098 -0.4610
  243MOL0     C31975   4.179   2.202   2.025 -0.5561 -0.2566  0.0448
  243MOL0     C31976   4.152   2.257   2.150  0.6385 -0.8810 -0.4533
  243MOL0     C31977   4.020   2.276   2.189  0.4925 -0.0355  0.3775
  243MOL0     C31978   3.910   2.247   2.108  0.1524 -0.5757  0.2629
  243MOL0     O31979   3.771   2.265   2.140 -0.3662  0.6185  0.0466
  243MOL0     C31980   3.737   2.388   2.214  0.0221  0.4540 -0.2743
  243MOL0     C31981   3.596   2.435   2.185 -0.3121 -0.0465  0.1361
  243MOL0     C31982   3.497   2.331   2.225 -0.1020  0.1416  0.2436
  243MOL0     C31983   3.364   2.356   2.150  0.0287 -0.7555  0.2080
  243MOL0     C31984   3.256   2.265   2.193  0.9445 -0.1685 -1.3446
  243MOL0     C31985   3.115   2.319   2.176 -0.3024  0.4958  0.4153
  243MOL0     C31986   3.077   2.440   2.261 -0.3694 -0.1720 -0.1196
  243MOL0     C31987   2.926   2.436   2.304  0.3364 -0.4462  0.4937
  243MOL0    Cl31988   2.819   2.388   2.170  0.1954  0.2960  0.1737
  243MOL0     C31989   3.936   2.201   1.976  0.2651  0.4400 -0.4230
  243MOL0     C31990   4.070   2.171   1.941 -0.2067 -0.1191 -0.2374
  243MOL0     O31991   4.318   2.342   1.822 -0.2489 -0.0128 -0.9512
  243MOL0     C31992   4.598   2.172   1.945  0.6331  0.3059 -0.1532
  243MOL0     C31993   4.721   2.119   1.897  0.2507  0.3658 -0.2868
  243MOL0     N31994   5.375   1.938   1.553 -0.7005 -0.2082  0.3900
  243MOL0     N31995   5.349   1.840   1.472 -0.2307 -0.1068  0.4878
  243MOL0     C31996   4.110   2.019   1.116  0.1875  0.7049  0.2666
  243MOL0     C31997   3.970   2.013   1.106 -0.6101 -0.2844  0.9442
  243MOL0     C31998   3.503   2.123   1.152 -1.5189 -0.0299 -0.2184
  243MOL0     C31999   3.491   2.071   1.021  0.3353  0.1651  0.0976
  243MOL0     C32000   3.364   2.061   0.961 -0.7057  0.5278  0.4706
  243MOL0     C32001   3.246   2.105   1.026 -0.1152 -0.2153 -0.3209
  243MOL0     O32002   3.127   2.103   0.967  0.1314  0.2487  0.5928
  243MOL0     C32003   3.007   2.137   1.047 -0.1847  0.0749 -0.2221
  243MOL0     C32004   2.890   2.088   0.970  0.1852 -0.1995  0.1717
  243MOL0     C32005   2.833   2.182   0.869  0.1477 -0.1709 -0.0234
  243MOL0     C32006   2.900   2.206   0.726 -0.2717  0.1040 -0.2516
  243MOL0     C32007   2.829   2.144   0.620 -1.1805 -0.1796  1.1889
  243MOL0     C32008   2.781   2.122   0.515 -0.9275 -0.0188  0.3858
  243MOL0     C32009   3.267   2.161   1.153  0.9996 -0.6343  0.6047
  243MOL0     C32010   3.388   2.174   1.212 -0.8894 -0.3852  0.7201
  243MOL0     H32011   3.872   2.161   1.384 -0.7095 -2.0257  0.4790
  243MOL0     H32012   4.100   2.192   1.419  0.1990 -0.3180  1.3702
  243MOL0     H32013   4.371   1.961   1.107  2.8014  2.7757 -1.0549
  243MOL0     H32014   4.373   1.892   1.275 -0.3069 -0.4419 -1.9165
  243MOL0     H32015   4.557   2.049   1.334  0.4168 -0.5963 -0.7849
  243MOL0     H32016   4.559   2.112   1.164  0.8514 -1.3300 -0.8700
  243MOL0     H32017   4.632   1.888   1.085  0.2974 -0.8332  0.9564
  243MOL0     H32018   4.614   1.825   1.251  1.5048 -3.6859 -2.3108
  243MOL0     H32019   4.802   2.048   1.156 -0.4495 -1.2050 -2.3551
  243MOL0     H32020   4.789   1.975   1.323 -2.0379  1.0377 -0.1139
  243MOL0     H32021   4.865   1.809   1.085 -0.9851 -0.1471  0.1968
  243MOL0     H32022   4.862   1.766   1.250  0.5231  0.5884  0.1085
  243MOL0     H32023   5.027   1.939   1.328  0.2839 -1.1476  1.0802
  243MOL0     H32024   5.069   1.968   1.156 -1.4624  2.6005  0.8276
  243MOL0     H32025   5.099   1.700   1.306  0.4352 -2.2588 -1.0346
  243MOL0     H32026   5.114   1.732   1.136  2.1127  0.6190  0.0786
  243MOL0     H32027   5.303   1.881   1.149 -0.4183  1.5496  0.8600
  243MOL0     H32028   5.318   1.727   1.231 -0.9241 -0.2071 -0.9842
  243MOL0     H32029   5.237   2.107   1.311 -0.9461  0.8820  0.7022
  243MOL0     H32030   5.305   2.268   1.469 -0.9987 -1.1271 -0.7299
  243MOL0     H32031   5.429   2.223   1.589 -0.4062  1.4210  1.2625
  243MOL0     H32032   5.207   2.323   1.663  0.7270  0.3423 -0.3183
  243MOL0     H32033   5.258   2.186   1.761 -4.6744 -1.6472  1.9586
  243MOL0     H32034   5.061   2.151   1.536  1.4872 -1.6868 -0.9996
  243MOL0     H32035   5.107   2.030   1.657  0.0623  0.3319  3.6343
  243MOL0     H32036   4.972   2.270   1.723 -0.0241 -0.7299  1.2722
  243MOL0     H32037   5.016   2.144   1.849 -1.9875  0.2896  0.9124
  243MOL0     H32038   4.702   2.187   1.567 -3.2605 -0.2421 -1.6953
  243MOL0     H32039   4.488   2.275   1.623 -1.2839 -2.2619 -0.0019
  243MOL0     H32040   4.233   2.286   2.217  0.5146  0.4971 -0.8733
  243MOL0     H32041   3.994   2.314   2.287 -4.2307  0.5021 -0.8273
  243MOL0     H32042   3.803   2.470   2.188 -1.3128  1.0811 -1.8156
  243MOL0     H32043   3.746   2.362   2.320  0.6977  3.0868  0.3894
  243MOL0     H32044   3.591   2.453   2.077  4.5302  0.6070 -0.2222
  243MOL0     H32045   3.571   2.528   2.238 -3.2848 -0.7508  0.0885
  243MOL0     H32046   3.492   2.327   2.334 -1.6786  1.3205  0.2428
  243MOL0     H32047   3.532   2.231   2.197 -0.4771  0.2710 -0.7403
  243MOL0     H32048   3.332   2.458   2.170  0.0577 -0.2744 -1.9131
  243MOL0     H32049   3.374   2.337   2.043 -1.2461 -4.0055  0.5529
  243MOL0     H32050   3.260   2.244   2.301 -0.8768  0.2962 -1.1639
  243MOL0     H32051   3.263   2.174   2.133  0.5886 -0.4443 -0.9719
  243MOL0     H32052   3.045   2.236   2.186  0.4830 -0.2093  0.1746
  243MOL0     H32053   3.099   2.354   2.074 -4.7017  1.3597  1.1943
  243MOL0     H32054   3.144   2.457   2.347  1.0511  0.4476 -1.3077
  243MOL0     H32055   3.094   2.534   2.208  1.7545 -0.9824 -0.9874
  243MOL0     H32056   2.897   2.535   2.341 -0.2942 -0.7770  0.8999
  243MOL0     H32057   2.916   2.359   2.382 -1.3078 -2.9208 -1.9819
  243MOL0     H32058   3.848   2.196   1.913  0.6015  1.5031 -0.9910
  243MOL0     H32059   4.090   2.124   1.845 -0.1000 -0.5755  0.0051
  243MOL0     H32060   4.559   2.174   2.046 -2.6444 -0.4604 -1.2553
  243MOL0     H32061   4.790   2.079   1.970 -0.5048  1.0121  0.8031
  243MOL0     H32062   4.176   1.968   1.046  0.2428  0.6106  0.3851
  243MOL0     H32063   3.927   1.978   1.012  0.7482  1.5803 -0.4591
  243MOL0     H32064   3.578   2.038   0.966  0.6481  0.5791  0.3416
  243MOL0     H32065   3.360   2.010   0.865  0.3866 -0.3970  0.8854
  243MOL0     H32066   2.993   2.244   1.061  0.5139  0.6052 -2.9266
  243MOL0     H32067   3.008   2.082   1.142  0.1947  2.5902  1.3029
  243MOL0     H32068   2.909   1.990   0.927  2.5793 -0.2127  1.1010
  243MOL0     H32069   2.814   2.066   1.046  2.7924  0.3960  3.1530
  243MOL0     H32070   2.828   2.282   0.913  0.3786 -1.0006  1.9761
  243MOL0     H32071   2.730   2.145   0.862 -0.3165  0.4461  2.5669
  243MOL0     H32072   2.924   2.313   0.717 -0.5395  0.1717 -0.1723
  243MOL0     H32073   2.995   2.151   0.730 -1.8665 -2.9004 -0.8227
  243MOL0     H32074   2.742   2.104   0.416 -0.6843  0.1600  0.2548
  243MOL0     H32075   3.186   2.201   1.213 -0.8387 -0.2189 -2.0134
  243MOL0     H32076   3.385   2.217   1.312 -0.8048 -1.0152  1.0001
  244MOL0     O32077  10.249   0.731   2.713 -0.1507  0.3037  0.1179
  244MOL0     C32078  10.262   0.817   2.799 -0.1758 -0.9746  0.5641
  244MOL0     O32079  10.161   0.908   2.838  0.2980 -0.1313  0.0966
  244MOL0     C32080  10.052   0.946   2.761  0.4664  0.5603  1.2637
  244MOL0     C32081   9.991   1.071   2.793  0.9535  0.9193  0.1967
  244MOL0     C32082   9.891   1.120   2.712  0.8496 -0.4784 -0.3735
  244MOL0     C32083   9.841   1.052   2.604  0.1810  0.4132  0.3914
  244MOL0     O32084   9.741   1.122   2.529  0.7682 -0.6183  0.9274
  244MOL0     C32085   9.622   1.049   2.492 -0.0453  0.2213 -0.6391
  244MOL0     C32086   9.526   1.031   2.604 -0.2296 -0.1303  0.6204
  244MOL0     C32087   9.407   0.938   2.581  0.7103 -0.0049  0.7204
  244MOL0     C32088   9.312   0.989   2.477  1.0140 -0.1019 -0.9152
  244MOL0     C32089   9.179   0.927   2.514  0.4491  0.6382  0.9143
  244MOL0     C32090   9.085   0.955   2.390 -0.7247  0.7173  0.4235
  244MOL0     C32091   9.050   1.101   2.385 -0.0305  0.0091 -0.4594
  244MOL0     C32092   8.935   1.129   2.295  0.3301  0.3640 -0.2731
  244MOL0     N32093   8.803   1.067   2.328 -0.1759  1.1888 -0.6287
  244MOL0     C32094   8.746   1.060   2.451  0.5380  0.9827 -0.7157
  244MOL0     C32095   8.630   0.989   2.433  0.2207 -0.0829  0.0247
  244MOL0     C32096   8.525   0.948   2.536  0.2355 -0.3502  0.8133
  244MOL0     C32097   8.383   0.978   2.500 -0.3529 -0.8783 -0.1271
  244MOL0     C32098   8.307   0.840   2.476  0.0845 -0.7168  0.2166
  244MOL0     C32099   8.148   0.861   2.464 -0.9745 -0.7118 -0.3849
  244MOL0     O32100   8.081   0.740   2.442 -0.7824  0.3837 -0.1949
  244MOL0     C32101   7.947   0.730   2.425  0.2657  0.9473  0.6417
  244MOL0     C32102   7.896   0.604   2.378 -0.0853 -0.6145  0.2809
  244MOL0     C32103   7.765   0.572   2.376  0.2705 -0.0335 -0.4671
  244MOL0     C32104   7.675   0.678   2.399  0.6166 -0.3591  0.6952
  244MOL0     C32105   7.527   0.655   2.389  0.0042  0.4102 -0.0507
  244MOL0     O32106   7.453   0.766   2.406  0.9845  0.3688  0.2072
  244MOL0     C32107   7.313   0.765   2.417  0.0302  0.3632  0.2875
  244MOL0     C32108   7.256   0.895   2.402 -0.4735 -0.3741 -0.6266
  244MOL0     C32109   7.119   0.916   2.423  0.7651  0.2176  0.9235
  244MOL0     C32110   7.045   0.798   2.455 -0.4562 -0.1155 -0.0200
  244MOL0     O32111   6.913   0.833   2.475 -0.2377 -0.1272  0.4203
  244MOL0     C32112   6.876   0.819   2.611  0.2051 -0.2346  0.4929
  244MOL0     C32113   6.732   0.870   2.621  0.1387  0.2332  0.2534
  244MOL0     C32114   6.681   0.852   2.768 -0.4324 -0.4256 -0.4854
  244MOL0     C32115   6.547   0.923   2.801 -0.8454  0.8116  0.3012
  244MOL0     C32116   6.511   0.916   2.956  0.1823 -0.0340 -0.0095
  244MOL0     C32117   6.371   0.958   2.978 -0.2424 -0.8709  0.3684
  244MOL0     C32118   6.278   0.842   2.951  0.1926  0.6498  0.1338
  244MOL0     C32119   6.134   0.875   3.000  0.5990  0.5903  0.2631
  244MOL0    Cl32120   6.032   0.735   2.963  0.3018 -0.3100 -0.1613
  244MOL0     C32121   7.095   0.672   2.476 -0.6713  0.3016  0.5206
  244MOL0     C32122   7.236   0.659   2.461  0.6705  0.0347 -1.0572
  244MOL0     O32123   7.493   0.542   2.356 -0.0789 -0.1467  0.1820
  244MOL0     C32124   7.721   0.805   2.435 -0.0820  0.1153 -0.1026
  244MOL0     C32125   7.855   0.831   2.456  0.5541 -0.6397  0.6967
  244MOL0     N32126   8.624   0.952   2.306  0.1595  0.8482  0.1723
  244MOL0     N32127   8.725   1.001   2.239  0.0798  0.6527 -0.5719
  244MOL0     C32128   9.899   0.926   2.569  0.2740 -0.0601  0.7040
  244MOL0     C32129  10.004   0.876   2.647  0.4642  0.0317 -0.2207
  244MOL0     C32130  10.382   0.809   2.883 -0.2313 -0.0238 -0.3915
  244MOL0     C32131  10.406   0.901   2.986  0.2281  0.4819  0.5720
  244MOL0     C32132  10.526   0.900   3.062  0.2322  0.2422 -0.1417
  244MOL0     C32133  10.617   0.802   3.036  0.1426 -0.8272 -0.3554
  244MOL0     O32134  10.747   0.790   3.096  0.1152 -0.0178 -0.1471
  244MOL0     C32135  10.788   0.902   3.180 -0.2818  0.6600  0.2812
  244MOL0     C32136  10.931   0.882   3.245  0.4760  0.2414  0.2520
  244MOL0     C32137  10.967   0.997   3.344  0.2084 -0.9606 -0.1677
  244MOL0     C32138  11.090   0.955   3.422  0.2391  0.3658 -0.4628
  244MOL0     C32139  11.205   0.944   3.339 -0.6976 -0.5934  0.4573
  244MOL0     C32140  11.312   0.947   3.270 -0.7991 -0.6708 -0.3483
  244MOL0     C32141  10.596   0.704   2.949  0.4950 -0.2286  0.1453
  244MOL0     C32142  10.477   0.705   2.869 -0.6221 -0.7002 -0.7612
  244MOL0     H32143  10.036   1.136   2.868  1.6561  1.9585 -1.0894
  244MOL0     H32144   9.836   1.209   2.740 -4.7307 -2.7712 -2.6987
  244MOL0     H32145   9.663   0.957   2.449  3.1774  0.7496  1.0079
  244MOL0     H32146   9.575   1.101   2.408  1.9448  0.9899 -1.3305
  244MOL0     H32147   9.491   1.126   2.645 -2.2308 -0.8357  0.6273
  244MOL0     H32148   9.580   0.980   2.685 -2.0148 -0.4444  1.6629
  244MOL0     H32149   9.351   0.923   2.674 -1.3835  1.7309 -0.1786
  244MOL0     H32150   9.434   0.839   2.543 -1.7594 -1.0049  1.3678
  244MOL0     H32151   9.301   1.097   2.485  0.6841 -0.2459  1.1539
  244MOL0     H32152   9.339   0.945   2.380 -1.4122 -3.3000 -0.3221
  244MOL0     H32153   9.137   0.958   2.610 -0.0438 -1.1225  1.3063
  244MOL0     H32154   9.205   0.821   2.527  2.9851  1.3621  2.7144
  244MOL0     H32155   8.997   0.891   2.404 -1.1199  1.6592  2.9508
  244MOL0     H32156   9.139   0.930   2.299  0.8364  1.5166  1.0919
  244MOL0     H32157   9.024   1.119   2.489 -0.8713 -2.8391 -0.0916
  244MOL0     H32158   9.143   1.152   2.357  0.3436 -2.3684 -4.2995
  244MOL0     H32159   8.953   1.087   2.196 -1.1285 -1.0014 -0.0037
  244MOL0     H32160   8.923   1.237   2.289  0.3633  0.3597 -0.4195
  244MOL0     H32161   8.782   1.104   2.543 -0.1574 -1.6772  0.9422
  244MOL0     H32162   8.536   1.016   2.621 -0.1112  2.4181 -1.2207
  244MOL0     H32163   8.540   0.846   2.574 -2.3230 -0.9556  0.4326
  244MOL0     H32164   8.363   1.048   2.418  0.7788 -1.1408 -0.6567
  244MOL0     H32165   8.344   1.031   2.586 -1.0210 -0.1430 -0.8732
  244MOL0     H32166   8.329   0.795   2.379  0.3846 -1.3246  0.5607
  244MOL0     H32167   8.329   0.773   2.560 -0.2993 -0.5184  0.4779
  244MOL0     H32168   8.125   0.928   2.381  0.3070  0.0370 -0.1622
  244MOL0     H32169   8.111   0.913   2.553  1.4573  1.3888 -0.5097
  244MOL0     H32170   7.964   0.521   2.361 -2.7548 -2.5165 -2.0520
  244MOL0     H32171   7.745   0.470   2.347  2.1560 -0.9329  1.1427
  244MOL0     H32172   7.323   0.970   2.361 -1.8826 -0.6981 -3.8105
  244MOL0     H32173   7.073   1.014   2.409 -0.6749 -0.7942 -2.2752
  244MOL0     H32174   6.944   0.881   2.670  1.3827 -0.3859 -0.6478
  244MOL0     H32175   6.887   0.716   2.645  0.6558  0.0431  1.2081
  244MOL0     H32176   6.671   0.811   2.552 -1.4935  2.4739 -0.3072
  244MOL0     H32177   6.724   0.971   2.582  0.7528 -0.4193 -1.6560
  244MOL0     H32178   6.745   0.900   2.843 -1.2096  0.7043 -0.5226
  244MOL0     H32179   6.681   0.747   2.799 -1.8555  0.1301  1.6296
  244MOL0     H32180   6.552   1.027   2.766 -1.6317  0.4621 -0.8780
  244MOL0     H32181   6.471   0.872   2.742 -0.9217 -0.1239  1.1857
  244MOL0     H32182   6.572   0.988   3.010  0.6871  0.1469 -0.8059
  244MOL0     H32183   6.527   0.813   2.991 -3.1647 -0.4478  0.5926
  244MOL0     H32184   6.348   1.042   2.912  0.4515 -1.3243 -0.4691
  244MOL0     H32185   6.363   1.003   3.077  3.3666  0.0995  0.3634
  244MOL0     H32186   6.283   0.820   2.844  0.0857  0.1894  0.2213
  244MOL0     H32187   6.318   0.756   3.004 -1.8709  0.1023  0.9106
  244MOL0     H32188   6.094   0.959   2.943 -2.5682 -1.8928 -1.4906
  244MOL0     H32189   6.140   0.905   3.105  2.5068 -0.6308  0.5561
  244MOL0     H32190   7.034   0.584   2.496 -0.1357  0.0934  1.2639
  244MOL0     H32191   7.278   0.564   2.493  0.8530  1.3392  3.2704
  244MOL0     H32192   7.657   0.892   2.449 -0.1223 -0.0861  1.0134
  244MOL0     H32193   7.891   0.932   2.465 -0.2545 -0.3235  0.4371
  244MOL0     H32194   9.859   0.862   2.492  0.6514  1.2412 -0.6151
  244MOL0     H32195  10.036   0.775   2.626 -0.1367 -0.2125  0.0101
  244MOL0     H32196  10.332   0.980   2.992  0.4132  0.9337 -1.8533
  244MOL0     H32197  10.545   0.981   3.132 -1.3448  0.6698 -0.1663
  244MOL0     H32198  10.715   0.915   3.261  0.3998 -1.1584  1.2297
  244MOL0     H32199  10.804   0.993   3.121  1.3935 -0.2597 -0.7594
  244MOL0     H32200  10.931   0.787   3.299 -1.1970  0.4649  0.7106
  244MOL0     H32201  11.011   0.886   3.171 -0.0897 -1.1120 -0.4657
  244MOL0     H32202  10.888   1.002   3.420  1.1260 -0.2885  0.7620
  244MOL0     H32203  10.977   1.091   3.289 -1.3760 -0.4392  0.3590
  244MOL0     H32204  11.110   1.025   3.504 -0.1451 -1.5730  1.3618
  244MOL0     H32205  11.077   0.861   3.476  1.9072  1.6526  2.3837
  244MOL0     H32206  11.408   0.921   3.229 -0.2352  0.5487  0.1521
  244MOL0     H32207  10.666   0.622   2.954  0.1603 -0.6387 -1.3982
  244MOL0     H32208  10.465   0.641   2.781 -1.9323 -1.1279 -0.2915
  245MOL0     O32209   5.347  10.929   5.025  0.4694  0.2726 -0.4565
  245MOL0     C32210   5.341  10.932   5.149  0.4789  1.0130  0.2802
  245MOL0     O32211   5.443  10.969   5.227  0.6434  0.6451  0.8161
  245MOL0     C32212   5.567  11.002   5.171  0.6060  0.0676  0.3708
  245MOL0     C32213   5.673  10.921   5.165 -0.1648  0.4189  0.0736
  245MOL0     C32214   5.794  10.977   5.126 -0.4017  0.5319 -0.1659
  245MOL0     C32215   5.816  11.100   5.072  0.7388 -0.7787 -0.0675
  245MOL0     O32216   5.946  11.138   5.056 -0.1038  0.2629  0.0134
  245MOL0     C32217   5.988  11.227   4.946  1.2726  0.1275  0.3765
  245MOL0     C32218   6.140  11.259   4.962 -0.5134  0.5368 -0.2136
  245MOL0     C32219   6.200  11.342   4.857  0.2064 -0.8300  0.6170
  245MOL0     C32220   6.361  11.352   4.859 -0.3047 -0.2796 -0.1377
  245MOL0     C32221   6.404  11.455   4.960  0.5771 -0.0801  0.2750
  245MOL0     C32222   6.558  11.478   4.948  1.2301 -0.0046 -0.0988
  245MOL0     C32223   6.617  11.569   5.053  0.3457 -0.1807  1.1468
  245MOL0     C32224   6.765  11.603   5.019  0.6354  0.5818  0.1131
  245MOL0     N32225   6.817  11.682   5.130 -0.3880 -0.3387  0.6644
  245MOL0     C32226   6.852  11.653   5.266 -0.2014 -0.7574  0.5210
  245MOL0     C32227   6.932  11.749   5.321  0.4756 -0.3970  1.2652
  245MOL0     C32228   6.986  11.773   5.458  0.9773  0.8482  0.3305
  245MOL0     C32229   6.871  11.777   5.563 -0.6493 -0.6012  0.5978
  245MOL0     C32230   6.809  11.911   5.581 -0.1344  0.2368  0.0848
  245MOL0     C32231   6.732  11.923   5.713 -0.8963  0.1158 -1.3265
  245MOL0     O32232   6.656  12.043   5.732  0.1502  0.1127  0.2226
  245MOL0     C32233   6.546  12.065   5.661 -0.1328 -0.3876  0.1781
  245MOL0     C32234   6.488  11.977   5.578  0.1416  0.2545 -0.1217
  245MOL0     C32235   6.372  12.008   5.514 -0.1760 -0.2166 -0.7548
  245MOL0     C32236   6.315  12.134   5.531  0.2297  0.8761  0.6043
  245MOL0     C32237   6.174  12.163   5.481 -0.6436 -0.2745  0.2889
  245MOL0     O32238   6.130  12.088   5.380  0.9862 -0.0957  0.9775
  245MOL0     C32239   6.010  12.127   5.319 -0.2554 -0.0495  0.5703
  245MOL0     C32240   5.986  12.253   5.263 -1.0571 -0.1035 -0.5041
  245MOL0     C32241   5.868  12.291   5.202 -0.1558 -0.3132  0.0395
  245MOL0     C32242   5.771  12.190   5.183  0.1845 -0.0384 -0.3699
  245MOL0     O32243   5.643  12.217   5.137  1.3875  0.4589 -0.1714
  245MOL0     C32244   5.562  12.322   5.194 -0.4840  0.6004  0.5072
  245MOL0     C32245   5.540  12.298   5.348 -0.0236 -1.3218  0.5524
  245MOL0     C32246   5.429  12.194   5.375 -0.1614  0.1194 -0.0572
  245MOL0     C32247   5.283  12.248   5.363 -0.7060 -0.3660 -0.2821
  245MOL0     C32248   5.264  12.387   5.423  0.2608  1.2831  0.2230
  245MOL0     C32249   5.303  12.389   5.573 -0.5089 -0.2001 -0.0160
  245MOL0     C32250   5.289  12.528   5.639 -0.0097  0.3476  0.3739
  245MOL0     C32251   5.377  12.639   5.568 -0.3867 -0.2004 -0.3504
  245MOL0    Cl32252   5.397  12.774   5.679 -0.4469 -0.2282  0.1001
  245MOL0     C32253   5.798  12.060   5.229 -0.4518 -0.7788 -0.2991
  245MOL0     C32254   5.916  12.032   5.295 -0.7245  0.4885  0.5022
  245MOL0     O32255   6.114  12.261   5.523  0.3046 -1.0720  0.0342
  245MOL0     C32256   6.375  12.227   5.614 -0.1828  0.2677 -0.3695
  245MOL0     C32257   6.492  12.194   5.675 -0.2230  0.6247 -0.3232
  245MOL0     N32258   6.934  11.845   5.220 -0.7007  1.1717  0.5927
  245MOL0     N32259   6.866  11.811   5.113  0.3443 -0.7766 -0.1922
  245MOL0     C32260   5.697  11.180   5.059  0.2233  0.4815  0.4037
  245MOL0     C32261   5.577  11.129   5.106 -0.3314  0.2678 -0.2389
  245MOL0     C32262   5.212  10.901   5.222  0.0341  0.0678 -0.2297
  245MOL0     C32263   5.101  10.850   5.162  0.0624  0.0339 -0.6796
  245MOL0     C32264   4.969  10.847   5.220  0.3820 -0.1228 -1.1011
  245MOL0     C32265   4.961  10.885   5.359  0.0001 -0.8372 -0.9697
  245MOL0     O32266   4.834  10.888   5.419 -0.5297 -0.4278  0.2916
  245MOL0     C32267   4.709  10.881   5.337  0.3196 -0.7612 -0.3513
  245MOL0     C32268   4.662  10.744   5.296 -0.2417  0.8467  0.1977
  245MOL0     C32269   4.534  10.732   5.219 -0.4103  0.5443  0.4464
  245MOL0     C32270   4.479  10.588   5.216 -0.0686  0.2835 -0.1375
  245MOL0     C32271   4.367  10.573   5.118 -0.1611 -0.3358 -0.4436
  245MOL0     C32272   4.267  10.562   5.049  0.4493  0.4522  0.2889
  245MOL0     C32273   5.077  10.912   5.431 -0.5939 -0.7724 -0.8098
  245MOL0     C32274   5.200  10.932   5.366 -0.2159  0.2598 -0.3770
  245MOL0     H32275   5.658  10.819   5.200 -0.1538  0.6278  0.7006
  245MOL0     H32276   5.879  10.910   5.136 -1.5753 -0.9981  0.0242
  245MOL0     H32277   5.930  11.318   4.959 -1.3205 -1.3973  0.1839
  245MOL0     H32278   5.959  11.175   4.854 -0.3260 -2.2710  2.1083
  245MOL0     H32279   6.183  11.160   4.980  0.9477  1.4905  1.9386
  245MOL0     H32280   6.145  11.313   5.057  0.8260  1.6225 -0.8713
  245MOL0     H32281   6.156  11.442   4.849  2.5151  0.2244  0.3128
  245MOL0     H32282   6.170  11.302   4.760 -3.1006 -1.9204  1.9611
  245MOL0     H32283   6.397  11.252   4.884 -1.3727 -0.9642 -1.2084
  245MOL0     H32284   6.396  11.378   4.758 -0.0968 -0.5189 -0.1293
  245MOL0     H32285   6.378  11.421   5.061  0.3479 -0.8669 -0.0419
  245MOL0     H32286   6.358  11.548   4.924  0.3027  0.7396  2.5609
  245MOL0     H32287   6.565  11.533   4.855 -2.5571  3.1020  1.1709
  245MOL0     H32288   6.604  11.378   4.944  1.3116  0.0391 -4.2861
  245MOL0     H32289   6.557  11.660   5.052 -0.1885 -0.5300  0.9369
  245MOL0     H32290   6.624  11.520   5.150  0.7208  2.4490  2.5366
  245MOL0     H32291   6.777  11.650   4.921  1.8262 -1.0268 -0.5534
  245MOL0     H32292   6.830  11.516   5.010 -1.6158 -1.3393  1.5759
  245MOL0     H32293   6.824  11.568   5.328 -2.1645  0.4949  1.4487
  245MOL0     H32294   7.057  11.856   5.450 -0.7399  2.6536  2.4324
  245MOL0     H32295   7.050  11.688   5.483 -0.6527 -0.0224  1.7441
  245MOL0     H32296   6.930  11.761   5.655  0.5678  4.3176  1.0019
  245MOL0     H32297   6.798  11.699   5.545 -1.5094  0.7424 -2.1966
  245MOL0     H32298   6.894  11.978   5.573  0.3818 -0.6280 -3.0580
  245MOL0     H32299   6.735  11.920   5.501  0.5981 -1.3447 -0.8102
  245MOL0     H32300   6.814  11.929   5.786 -0.9318 -2.4890 -0.9717
  245MOL0     H32301   6.675  11.834   5.740  1.6291 -0.6555  2.2689
  245MOL0     H32302   6.519  11.875   5.562 -3.5147 -1.0125 -0.0348
  245MOL0     H32303   6.329  11.936   5.445  2.0344  0.0011 -2.4622
  245MOL0     H32304   6.067  12.325   5.268 -1.8606  0.8128 -0.4269
  245MOL0     H32305   5.856  12.395   5.172  0.2139 -0.1232  0.5400
  245MOL0     H32306   5.466  12.325   5.141 -0.1198  1.0451 -0.1402
  245MOL0     H32307   5.620  12.414   5.182  1.6460 -0.7294  0.1910
  245MOL0     H32308   5.525  12.394   5.398 -0.6893 -1.0241 -0.2023
  245MOL0     H32309   5.623  12.252   5.404  0.7084 -0.9621 -0.2140
  245MOL0     H32310   5.440  12.153   5.476 -2.1144  1.1064  0.6179
  245MOL0     H32311   5.440  12.108   5.308  0.0831 -0.6196  0.9021
  245MOL0     H32312   5.255  12.226   5.260 -0.0066 -1.6214 -0.2275
  245MOL0     H32313   5.220  12.175   5.415 -0.4765 -2.0115 -2.2096
  245MOL0     H32314   5.157  12.412   5.419  0.6605  3.3267  1.1979
  245MOL0     H32315   5.309  12.460   5.356  0.2180 -1.8142 -3.4911
  245MOL0     H32316   5.405  12.356   5.594 -0.3568  1.5753  2.5134
  245MOL0     H32317   5.231  12.319   5.617 -0.7796 -0.6628 -1.1712
  245MOL0     H32318   5.186  12.564   5.647 -0.9025 -1.8383 -0.4744
  245MOL0     H32319   5.317  12.520   5.745 -1.9527 -0.3475  0.8610
  245MOL0     H32320   5.323  12.683   5.484 -0.3914  4.0147  1.6209
  245MOL0     H32321   5.477  12.606   5.535 -0.9492 -1.6768 -0.6701
  245MOL0     H32322   5.734  11.973   5.220 -2.1453  0.3979 -0.1388
  245MOL0     H32323   5.932  11.929   5.324 -0.3753 -0.8648 -3.8015
  245MOL0     H32324   6.319  12.319   5.629 -0.6510 -0.1106  0.2123
  245MOL0     H32325   6.529  12.273   5.740 -2.7860  2.8771 -1.3901
  245MOL0     H32326   5.692  11.286   5.041  0.4232  0.5626  0.8118
  245MOL0     H32327   5.479  11.175   5.098 -0.0578  0.8453 -0.3491
  245MOL0     H32328   5.103  10.817   5.059  2.9133  3.2516 -1.8402
  245MOL0     H32329   4.880  10.828   5.161 -0.2219  0.8377 -0.5200
  245MOL0     H32330   4.724  10.945   5.250  1.9409  1.1903  1.2585
  245MOL0     H32331   4.623  10.911   5.398 -1.1021 -2.4517 -1.4124
  245MOL0     H32332   4.743  10.689   5.249 -0.5566  0.0720  0.5375
  245MOL0     H32333   4.635  10.691   5.388 -1.3776 -1.1412 -1.1992
  245MOL0     H32334   4.550  10.759   5.114  1.7987 -2.1976 -0.0471
  245MOL0     H32335   4.461  10.799   5.266  1.3291  2.2740  0.8112
  245MOL0     H32336   4.561  10.520   5.189 -0.6376 -0.5002  0.0918
  245MOL0     H32337   4.446  10.564   5.317  1.6927  0.4792  0.5177
  245MOL0     H32338   4.186  10.534   4.984  1.4899 -0.4002 -0.6856
  245MOL0     H32339   5.064  10.933   5.537 -0.7271 -0.5513 -0.8697
  245MOL0     H32340   5.272  10.985   5.427 -0.9015 -1.8931  2.4886
  246MOL0     O32341   0.755   7.735   0.613  0.2728  0.3547  0.2701
  246MOL0     C32342   0.773   7.623   0.652 -0.3211 -0.0976 -0.0950
  246MOL0     O32343   0.684   7.519   0.645  0.3478  0.4197  0.0616
  246MOL0     C32344   0.562   7.541   0.590  0.4702 -0.0666  0.2202
  246MOL0     C32345   0.449   7.570   0.680  0.0630 -0.2746  0.9114
  246MOL0     C32346   0.325   7.596   0.626  0.0998  0.4531  0.1330
  246MOL0     C32347   0.300   7.591   0.493  0.4094  0.0238  0.4088
  246MOL0     O32348   0.168   7.608   0.446 -0.3616  0.3265  0.3849
  246MOL0     C32349   0.148   7.691   0.326  0.3274  0.7623 -0.8239
  246MOL0     C32350   0.121   7.601   0.208 -0.3666 -0.7410 -0.0745
  246MOL0     C32351  -0.017   7.542   0.231  0.1389 -0.1559  0.4742
  246MOL0     C32352  -0.066   7.454   0.116 -0.0917  0.4467  0.6435
  246MOL0     C32353  -0.209   7.499   0.058  0.2247  0.0003  0.0016
  246MOL0     C32354  -0.261   7.405  -0.044  0.0263  0.4398  0.7674
  246MOL0     C32355  -0.415   7.385  -0.045 -0.8815  0.1512  0.2296
  246MOL0     C32356  -0.498   7.492  -0.113  0.1699  0.5624  0.2969
  246MOL0     N32357  -0.530   7.618  -0.046 -0.2372 -0.2766  0.2460
  246MOL0     C32358  -0.469   7.743  -0.062  0.2215  0.3235 -0.2833
  246MOL0     C32359  -0.529   7.814   0.033  0.1647 -0.4546  0.3461
  246MOL0     C32360  -0.491   7.965   0.044 -1.4489  0.3795  0.4655
  246MOL0     C32361  -0.544   8.052  -0.076 -0.5738  0.5449  0.3772
  246MOL0     C32362  -0.570   8.193  -0.014 -0.9263  0.1696  0.7385
  246MOL0     C32363  -0.452   8.271   0.029  0.0162 -0.2342 -0.1782
  246MOL0     O32364  -0.391   8.338  -0.085 -0.1860  0.0580  0.2478
  246MOL0     C32365  -0.271   8.392  -0.064  0.0992 -0.0754  0.2359
  246MOL0     C32366  -0.262   8.523  -0.025  0.3155 -0.1793  0.2451
  246MOL0     C32367  -0.139   8.577  -0.007  0.1690  0.6612 -0.8807
  246MOL0     C32368  -0.014   8.513  -0.006 -0.0979  0.5295  0.9792
  246MOL0     C32369   0.117   8.582   0.015 -0.4828 -0.2921 -0.4875
  246MOL0     O32370   0.232   8.508  -0.010  0.2820 -0.5187  0.2473
  246MOL0     C32371   0.347   8.582  -0.013  0.0602 -0.2894  0.2241
  246MOL0     C32372   0.435   8.583   0.096 -0.4318  0.0373  0.3888
  246MOL0     C32373   0.551   8.655   0.078  0.0475  1.3611 -0.2515
  246MOL0     C32374   0.599   8.714  -0.043  0.1264 -0.0092 -0.1438
  246MOL0     O32375   0.716   8.781  -0.052  0.3549 -0.6424 -0.6821
  246MOL0     C32376   0.829   8.691  -0.048 -0.7332  0.2059  0.5845
  246MOL0     C32377   0.957   8.764   0.004 -0.3264  0.3354  0.0390
  246MOL0     C32378   0.996   8.880  -0.085 -0.0304  0.5127  0.2265
  246MOL0     C32379   1.143   8.915  -0.066 -0.0141 -0.3096  0.3633
  246MOL0     C32380   1.179   9.031  -0.177 -0.5109  0.6606  0.2983
  246MOL0     C32381   1.322   9.076  -0.169 -0.7720  0.2599 -1.1520
  246MOL0     C32382   1.347   9.149  -0.303 -0.1985  0.0970  0.3633
  246MOL0     C32383   1.489   9.192  -0.330 -0.1075 -0.3437 -0.8982
  246MOL0    Cl32384   1.542   9.307  -0.195  0.1912  0.1857  0.2782
  246MOL0     C32385   0.517   8.712  -0.156 -0.1209  0.1789 -0.9173
  246MOL0     C32386   0.388   8.654  -0.133 -0.0611  0.7536 -0.2214
  246MOL0     O32387   0.105   8.705   0.034  0.1594  0.3252  0.4704
  246MOL0     C32388  -0.029   8.376  -0.049  0.0865  0.1117  0.2942
  246MOL0     C32389  -0.152   8.313  -0.077 -0.1133 -0.2080  0.8143
  246MOL0     N32390  -0.622   7.740   0.101  0.4106  0.1357 -0.1692
  246MOL0     N32391  -0.621   7.620   0.054 -0.5915 -0.6853 -0.5089
  246MOL0     C32392   0.408   7.552   0.404  0.4744 -0.5637  0.5660
  246MOL0     C32393   0.530   7.529   0.455 -0.0581  0.5574  0.3858
  246MOL0     C32394   0.899   7.602   0.715  0.5811  0.4212  0.5465
  246MOL0     C32395   0.901   7.502   0.813 -0.0009  0.7804 -0.0279
  246MOL0     C32396   1.022   7.469   0.874 -0.2553 -0.0948  0.6338
  246MOL0     C32397   1.140   7.537   0.845  0.3622 -0.3983 -0.7971
  246MOL0     O32398   1.263   7.512   0.920  0.3537 -0.3424 -0.5131
  246MOL0     C32399   1.379   7.508   0.840  0.1702  0.2823 -0.4084
  246MOL0     C32400   1.505   7.499   0.923 -0.4037 -0.1731 -0.1716
  246MOL0     C32401   1.507   7.369   1.013  0.1761  0.3137  0.4328
  246MOL0     C32402   1.608   7.382   1.126  0.0247 -0.5764 -0.7906
  246MOL0     C32403   1.741   7.414   1.077 -0.6236 -0.4727 -0.5887
  246MOL0     C32404   1.859   7.444   1.057 -0.2391  0.4634  0.6324
  246MOL0     C32405   1.138   7.636   0.749  0.4508 -0.2767 -0.4560
  246MOL0     C32406   1.016   7.665   0.681  0.0109  0.4147  0.0653
  246MOL0     H32407   0.473   7.565   0.785 -0.0188 -1.3250  0.8932
  246MOL0     H32408   0.243   7.631   0.688 -2.3193 -1.5120 -1.7526
  246MOL0     H32409   0.235   7.754   0.307  1.9482 -0.7090  1.2146
  246MOL0     H32410   0.072   7.768   0.346  0.9956  0.9220  1.3938
  246MOL0     H32411   0.193   7.520   0.193  0.1132 -0.0125 -1.9086
  246MOL0     H32412   0.107   7.663   0.119 -0.9646 -1.2729 -0.3572
  246MOL0     H32413  -0.095   7.617   0.247  0.9257  0.5422  1.1404
  246MOL0     H32414  -0.006   7.482   0.321 -2.4197 -0.0461  0.9267
  246MOL0     H32415   0.007   7.460   0.035 -2.9434  2.0425 -2.0697
  246MOL0     H32416  -0.072   7.356   0.163  1.9143 -0.1298 -0.2020
  246MOL0     H32417  -0.207   7.598   0.012  1.9900 -0.1519 -0.3475
  246MOL0     H32418  -0.280   7.504   0.142  2.4316  1.2184  1.9239
  246MOL0     H32419  -0.219   7.307  -0.022 -0.4079  0.7891  3.4864
  246MOL0     H32420  -0.223   7.432  -0.143  2.3274  0.8552  1.7136
  246MOL0     H32421  -0.424   7.296  -0.108 -1.0560 -0.3742  0.9709
  246MOL0     H32422  -0.458   7.355   0.051 -0.4736 -2.5609 -0.3620
  246MOL0     H32423  -0.592   7.448  -0.147  0.9388  0.6651 -2.1854
  246MOL0     H32424  -0.442   7.507  -0.206  1.6211 -3.7716  0.2390
  246MOL0     H32425  -0.399   7.780  -0.137  1.2478  0.7037  0.8359
  246MOL0     H32426  -0.383   7.971   0.053 -1.4966 -0.6452  2.3455
  246MOL0     H32427  -0.537   8.009   0.133 -0.7344  0.9186  0.5705
  246MOL0     H32428  -0.638   8.005  -0.108  1.5817 -3.9928 -0.1591
  246MOL0     H32429  -0.471   8.057  -0.157  0.3681  2.5495  1.2805
  246MOL0     H32430  -0.631   8.250  -0.084  2.6990  2.9176 -0.4893
  246MOL0     H32431  -0.623   8.187   0.082  1.4674 -2.8728  2.0408
  246MOL0     H32432  -0.373   8.212   0.077  1.5356  0.2057 -1.9999
  246MOL0     H32433  -0.484   8.356   0.089 -2.4705 -0.6483 -0.8102
  246MOL0     H32434  -0.354   8.580  -0.026  1.5520  1.9846 -2.1349
  246MOL0     H32435  -0.136   8.683   0.014  0.7927  0.6902 -1.0791
  246MOL0     H32436   0.399   8.528   0.182 -2.2905  0.7369  0.1199
  246MOL0     H32437   0.625   8.647   0.157  1.4384  2.5552 -1.3687
  246MOL0     H32438   0.855   8.663  -0.150 -0.5767 -0.1389  0.7177
  246MOL0     H32439   0.815   8.601   0.013 -0.3238  0.0665  0.4790
  246MOL0     H32440   1.034   8.687   0.007 -1.0168 -0.3544  0.3502
  246MOL0     H32441   0.936   8.804   0.104 -3.5501 -1.9085  0.4114
  246MOL0     H32442   0.941   8.968  -0.050  4.1869  1.9318  4.4908
  246MOL0     H32443   0.972   8.859  -0.189  0.3904  0.3439  0.1626
  246MOL0     H32444   1.174   8.943   0.035  1.4560 -0.3186 -0.0694
  246MOL0     H32445   1.198   8.822  -0.082 -2.8425 -2.6688  3.0999
  246MOL0     H32446   1.119   9.119  -0.156  0.5404  2.5816 -3.8450
  246MOL0     H32447   1.155   8.999  -0.279  0.5981  1.5937 -0.2835
  246MOL0     H32448   1.381   8.984  -0.168 -2.2957 -0.7604  0.3928
  246MOL0     H32449   1.337   9.142  -0.083 -2.3857 -1.5272  0.6004
  246MOL0     H32450   1.323   9.090  -0.392  1.5352 -2.2121  1.3043
  246MOL0     H32451   1.281   9.236  -0.300 -0.1553  0.2697 -1.9446
  246MOL0     H32452   1.498   9.225  -0.434 -0.5766 -2.8387 -1.8193
  246MOL0     H32453   1.552   9.102  -0.325  0.1137 -0.1275  0.9087
  246MOL0     H32454   0.545   8.765  -0.246 -0.0046  0.6336 -0.6167
  246MOL0     H32455   0.329   8.659  -0.224 -1.6866 -2.8135  0.4693
  246MOL0     H32456   0.061   8.321  -0.077  0.2946 -0.5077  2.0274
  246MOL0     H32457  -0.147   8.208  -0.104  1.6725  0.2653 -0.8365
  246MOL0     H32458   0.385   7.545   0.298 -0.1431 -4.1899  0.8257
  246MOL0     H32459   0.612   7.504   0.388 -1.4491 -0.7920 -0.9228
  246MOL0     H32460   0.818   7.440   0.844 -0.9186 -0.5280 -4.4143
  246MOL0     H32461   1.011   7.417   0.969  1.3723 -2.2449 -0.2731
  246MOL0     H32462   1.395   7.594   0.776 -2.0020  1.7696  0.9262
  246MOL0     H32463   1.370   7.431   0.762 -2.8000 -0.5617  0.6239
  246MOL0     H32464   1.593   7.507   0.859 -0.8629 -0.8204 -0.8863
  246MOL0     H32465   1.498   7.585   0.991  3.0130 -0.1881  0.3938
  246MOL0     H32466   1.520   7.284   0.945 -1.2924 -0.1498  0.6987
  246MOL0     H32467   1.409   7.357   1.060 -0.5034  0.5826 -0.8848
  246MOL0     H32468   1.576   7.464   1.192 -1.4089  0.1124 -2.2577
  246MOL0     H32469   1.616   7.284   1.173  2.1552  0.4116  1.0729
  246MOL0     H32470   1.965   7.456   1.047 -0.1419 -0.7473  0.0556
  246MOL0     H32471   1.228   7.691   0.725  0.4101 -0.0633 -0.1245
  246MOL0     H32472   1.011   7.752   0.616 -2.9663 -0.1208 -0.5625
  247MOL0     O32473  10.750   1.226   3.647 -0.4211  0.3668 -0.4431
  247MOL0     C32474  10.809   1.315   3.706 -0.0196  0.4224  0.8556
  247MOL0     O32475  10.766   1.393   3.811  0.7611 -0.1314  0.5036
  247MOL0     C32476  10.638   1.371   3.856  0.1731  0.3782  0.1092
  247MOL0     C32477  10.525   1.371   3.769  0.0908 -0.3959 -0.0019
  247MOL0     C32478  10.397   1.340   3.821 -0.8668  0.5695 -0.3195
  247MOL0     C32479  10.381   1.316   3.955 -0.2042 -0.1090 -0.6604
  247MOL0     O32480  10.257   1.279   4.016 -0.3275 -0.5287  0.4043
  247MOL0     C32481  10.135   1.318   3.952  0.1811  0.7073 -0.0285
  247MOL0     C32482  10.016   1.276   4.034  0.3492 -0.2577 -0.3228
  247MOL0     C32483  10.002   1.371   4.163 -0.9004 -0.2315  0.3257
  247MOL0     C32484   9.862   1.382   4.220  0.7169 -1.3766 -0.3147
  247MOL0     C32485   9.754   1.439   4.127 -0.2176 -0.1802 -0.5702
  247MOL0     C32486   9.653   1.332   4.091 -0.6777 -0.5021  0.4139
  247MOL0     C32487   9.548   1.376   3.992  0.1418  0.3927  0.1417
  247MOL0     C32488   9.460   1.486   4.050 -0.3672  0.3086  0.4092
  247MOL0     N32489   9.344   1.529   3.972 -0.3968 -0.1584  0.2818
  247MOL0     C32490   9.215   1.484   4.002  0.3345 -0.9328  0.6147
  247MOL0     C32491   9.137   1.577   3.943  0.6429  0.5116 -0.8740
  247MOL0     C32492   8.984   1.593   3.931 -0.7286 -0.2760  0.2050
  247MOL0     C32493   8.948   1.550   3.785  0.3186  0.3557  0.0091
  247MOL0     C32494   8.798   1.526   3.753  0.5954  0.1814 -0.5183
  247MOL0     C32495   8.742   1.410   3.846 -1.0164 -0.5322  0.1372
  247MOL0     O32496   8.625   1.352   3.776 -0.1197 -1.0170  0.3443
  247MOL0     C32497   8.500   1.405   3.788 -0.1707  0.3101 -0.0765
  247MOL0     C32498   8.397   1.370   3.696  0.8390  0.4953  1.3321
  247MOL0     C32499   8.265   1.422   3.708  0.0283 -0.1229  0.1650
  247MOL0     C32500   8.233   1.501   3.814  0.5843 -0.7365 -0.7394
  247MOL0     C32501   8.098   1.555   3.842 -0.2351  0.0594 -0.3395
  247MOL0     O32502   8.084   1.595   3.970  0.0637 -0.3331  0.2877
  247MOL0     C32503   7.956   1.619   4.025 -0.2081  0.5173 -0.1178
  247MOL0     C32504   7.964   1.641   4.161 -0.6093 -0.1592 -0.1291
  247MOL0     C32505   7.853   1.659   4.241 -0.1849  0.2673  0.6821
  247MOL0     C32506   7.728   1.659   4.184  0.2699  0.1128 -0.1444
  247MOL0     O32507   7.616   1.688   4.256  0.0558  0.0448 -0.0256
  247MOL0     C32508   7.583   1.629   4.382 -1.2783  0.7922  0.7534
  247MOL0     C32509   7.445   1.674   4.434 -0.3423  0.4655 -0.4092
  247MOL0     C32510   7.336   1.608   4.339  0.1584  0.7235 -0.1470
  247MOL0     C32511   7.193   1.642   4.388  0.2875 -0.2173  0.0770
  247MOL0     C32512   7.085   1.568   4.319  0.4604 -0.9084  0.8228
  247MOL0     C32513   7.079   1.415   4.347  0.0052  0.1397 -0.4634
  247MOL0     C32514   6.974   1.340   4.261  0.0568 -0.4299  0.2402
  247MOL0     C32515   6.983   1.186   4.269 -0.9163  0.0351 -0.7805
  247MOL0    Cl32516   6.839   1.112   4.189  0.3951  0.5868 -0.1302
  247MOL0     C32517   7.713   1.625   4.055 -0.1552  0.5177  0.8434
  247MOL0     C32518   7.828   1.620   3.970  0.2549  0.0460  0.3887
  247MOL0     O32519   8.017   1.563   3.752  0.7886  0.3732  0.1418
  247MOL0     C32520   8.337   1.546   3.902 -1.1436  0.5640 -0.4976
  247MOL0     C32521   8.466   1.503   3.885 -0.3711  0.0045  0.3826
  247MOL0     N32522   9.216   1.656   3.864  0.1636 -0.1841 -0.8562
  247MOL0     N32523   9.339   1.625   3.880  0.1252 -0.2513  0.0291
  247MOL0     C32524  10.494   1.321   4.042 -0.2681  0.2133 -0.3668
  247MOL0     C32525  10.621   1.358   3.995  0.2147  0.4386 -0.1185
  247MOL0     C32526  10.941   1.363   3.642 -0.5767 -0.1728 -0.0608
  247MOL0     C32527  11.026   1.445   3.718 -0.6152 -0.0731  0.1136
  247MOL0     C32528  11.143   1.496   3.661  0.1896 -0.2154  0.3055
  247MOL0     C32529  11.192   1.454   3.532 -0.1417  0.0037 -0.1879
  247MOL0     O32530  11.318   1.502   3.496 -0.3208 -0.9028 -0.3037
  247MOL0     C32531  11.369   1.484   3.362  0.3347  0.1463  0.4327
  247MOL0     C32532  11.516   1.532   3.348 -0.3971  1.1504  0.3549
  247MOL0     C32533  11.560   1.521   3.203 -0.0548  0.1554  0.7082
  247MOL0     C32534  11.711   1.544   3.181 -0.0063 -0.3596 -0.3692
  247MOL0     C32535  11.740   1.687   3.221  0.8066 -0.0416  0.0216
  247MOL0     C32536  11.760   1.809   3.237 -0.2813 -0.0113  0.6652
  247MOL0     C32537  11.105   1.366   3.460  0.7097 -0.2258  0.4336
  247MOL0     C32538  10.981   1.332   3.508  0.3724 -0.0377  0.0224
  247MOL0     H32539  10.539   1.408   3.668 -0.0091 -1.6822 -0.5086
  247MOL0     H32540  10.312   1.343   3.753 -3.1351  0.5524  2.3380
  247MOL0     H32541  10.131   1.266   3.856 -0.3138 -0.5004  0.6239
  247MOL0     H32542  10.137   1.425   3.932 -1.1102  0.3245 -2.5954
  247MOL0     H32543  10.015   1.171   4.066 -1.6604  0.3328  1.9358
  247MOL0     H32544   9.931   1.290   3.967  0.0871  0.8225  0.2233
  247MOL0     H32545  10.058   1.464   4.149  0.9559 -0.8995  2.7707
  247MOL0     H32546  10.066   1.332   4.243 -0.9674 -1.6437 -0.2756
  247MOL0     H32547   9.836   1.293   4.279 -0.2849  1.9345  4.9497
  247MOL0     H32548   9.858   1.461   4.295 -5.5044  0.2080 -1.7461
  247MOL0     H32549   9.801   1.493   4.045 -0.6917 -0.6546 -1.1631
  247MOL0     H32550   9.703   1.507   4.196  0.0258 -1.3602  0.8308
  247MOL0     H32551   9.609   1.297   4.184  1.2979 -0.9654  1.2152
  247MOL0     H32552   9.705   1.247   4.045 -1.1772 -0.5141 -0.1504
  247MOL0     H32553   9.589   1.415   3.898 -1.2671 -0.0451 -0.6899
  247MOL0     H32554   9.487   1.289   3.967 -0.5940  0.7014  0.8271
  247MOL0     H32555   9.521   1.576   4.054  0.9954 -0.2282 -3.5861
  247MOL0     H32556   9.431   1.455   4.151 -0.4238  1.8492  0.8851
  247MOL0     H32557   9.177   1.401   4.060 -1.2515 -1.2271 -0.7773
  247MOL0     H32558   8.943   1.693   3.949 -0.6795 -0.5463  1.9047
  247MOL0     H32559   8.939   1.529   4.006 -2.7083  1.1882  0.3493
  247MOL0     H32560   9.003   1.458   3.761 -0.2834 -0.7156  2.3856
  247MOL0     H32561   8.974   1.635   3.722  2.8704 -1.2716 -1.2895
  247MOL0     H32562   8.728   1.610   3.756 -0.5603 -0.6234 -2.7726
  247MOL0     H32563   8.789   1.497   3.648  0.6380  0.5582 -0.6263
  247MOL0     H32564   8.714   1.454   3.943  0.0177  3.6228 -1.2579
  247MOL0     H32565   8.819   1.333   3.854  1.2106  1.2320 -2.6580
  247MOL0     H32566   8.417   1.302   3.614 -0.1565  2.0839 -0.2954
  247MOL0     H32567   8.199   1.387   3.630 -1.0116 -2.0406  1.8098
  247MOL0     H32568   8.055   1.636   4.220 -1.2736 -1.6859  0.8492
  247MOL0     H32569   7.877   1.652   4.347 -0.3745 -0.7100  0.6623
  247MOL0     H32570   7.664   1.648   4.452  0.2030 -0.4440 -0.5582
  247MOL0     H32571   7.587   1.520   4.375  2.4559  0.8144  0.4225
  247MOL0     H32572   7.432   1.782   4.421  0.6329  0.6872  0.3639
  247MOL0     H32573   7.418   1.660   4.539  0.7602 -0.4233 -0.2335
  247MOL0     H32574   7.345   1.499   4.341 -1.4539  0.5154 -1.6100
  247MOL0     H32575   7.351   1.630   4.233  2.9708 -1.5430 -0.3298
  247MOL0     H32576   7.203   1.621   4.495  3.7362  1.8499  0.3404
  247MOL0     H32577   7.193   1.751   4.380 -1.8230 -0.2245 -0.5493
  247MOL0     H32578   7.105   1.579   4.213 -3.2987 -1.8770 -0.1418
  247MOL0     H32579   6.992   1.619   4.346  0.2010 -0.3276 -1.0324
  247MOL0     H32580   7.044   1.401   4.449  0.1226 -1.5961 -0.6389
  247MOL0     H32581   7.176   1.367   4.333  1.0967  2.6164 -2.3107
  247MOL0     H32582   6.875   1.360   4.302 -0.0176 -0.2374 -0.0326
  247MOL0     H32583   6.982   1.380   4.159  0.5914 -0.6136  0.2043
  247MOL0     H32584   6.992   1.160   4.375  1.5685 -0.5345 -1.0709
  247MOL0     H32585   7.073   1.146   4.222 -0.0474 -0.8176  1.4589
  247MOL0     H32586   7.607   1.621   4.029 -0.3645  0.7535  1.6457
  247MOL0     H32587   7.809   1.623   3.864  3.0431  0.6520 -0.1652
  247MOL0     H32588   8.316   1.603   3.991 -0.3589  0.2019 -0.0676
  247MOL0     H32589   8.539   1.528   3.961  1.8087 -3.3173 -0.3975
  247MOL0     H32590  10.484   1.271   4.138 -1.6565 -0.4271 -0.8232
  247MOL0     H32591  10.713   1.353   4.053  0.2219  3.0616  0.2297
  247MOL0     H32592  11.024   1.447   3.826  0.1452 -2.6690  0.2555
  247MOL0     H32593  11.213   1.550   3.725 -0.2590 -0.0773  0.6863
  247MOL0     H32594  11.301   1.548   3.305 -0.8229 -0.0786  1.5199
  247MOL0     H32595  11.365   1.383   3.322 -1.2665 -0.2103  1.4078
  247MOL0     H32596  11.526   1.639   3.368 -0.8301  1.5248 -1.2531
  247MOL0     H32597  11.582   1.475   3.414  0.6818 -0.2417 -1.8048
  247MOL0     H32598  11.507   1.587   3.134 -2.2982 -1.2321  1.0240
  247MOL0     H32599  11.545   1.420   3.164 -1.4152  0.3489  0.7026
  247MOL0     H32600  11.775   1.487   3.248 -0.0297  0.8557  0.7386
  247MOL0     H32601  11.731   1.521   3.076  2.9244 -0.8928  0.2207
  247MOL0     H32602  11.775   1.915   3.243 -2.4411  0.3564  0.5565
  247MOL0     H32603  11.127   1.340   3.357 -1.4042  0.9619 -0.3634
  247MOL0     H32604  10.916   1.277   3.442  2.1912 -0.1698 -1.7606
  248MOL0     O32605   9.278   7.009   3.905  0.5020 -0.3076 -0.3450
  248MOL0     C32606   9.207   7.071   3.825 -1.4078 -0.3955 -0.1417
  248MOL0     O32607   9.247   7.184   3.758 -0.5903 -0.0897  0.1450
  248MOL0     C32608   9.375   7.237   3.768 -1.0543 -0.0606  0.2927
  248MOL0     C32609   9.425   7.283   3.647 -0.1332  0.0627 -0.4955
  248MOL0     C32610   9.559   7.317   3.630  0.4025 -0.0135  0.0181
  248MOL0     C32611   9.639   7.324   3.742 -0.0209  0.7412 -0.9794
  248MOL0     O32612   9.761   7.386   3.733  0.3162  0.1745 -0.5892
  248MOL0     C32613   9.875   7.296   3.749 -0.3946  0.1461  1.1000
  248MOL0     C32614   9.991   7.377   3.812  0.2481  0.1996  0.1234
  248MOL0     C32615  10.121   7.303   3.824 -0.4943  1.0091  0.0885
  248MOL0     C32616  10.226   7.387   3.897  0.2066  0.1069  0.0216
  248MOL0     C32617  10.338   7.295   3.947 -0.1169 -0.8637  0.1227
  248MOL0     C32618  10.416   7.228   3.828 -0.5231 -0.4200 -1.0522
  248MOL0     C32619  10.541   7.166   3.901 -0.1839  0.2380  0.2590
  248MOL0     C32620  10.638   7.106   3.793  0.7925  0.4177 -0.1193
  248MOL0     N32621  10.586   6.992   3.715 -0.7238 -0.2795 -0.3027
  248MOL0     C32622  10.499   6.887   3.758 -0.5579 -0.9330 -0.1664
  248MOL0     C32623  10.484   6.795   3.659 -0.4871 -0.1816  0.3559
  248MOL0     C32624  10.396   6.675   3.673  0.7326  0.3196  0.6937
  248MOL0     C32625  10.275   6.700   3.580 -0.0898 -0.6438 -0.2314
  248MOL0     C32626  10.168   6.592   3.587  0.1882  0.3422 -0.7059
  248MOL0     C32627  10.061   6.615   3.474 -0.5369  0.7419 -0.1129
  248MOL0     O32628   9.959   6.507   3.498 -0.9313  0.2391  0.0342
  248MOL0     C32629   9.846   6.517   3.417 -0.6966 -0.9801  0.3093
  248MOL0     C32630   9.827   6.607   3.307 -1.1347 -0.5605  0.1235
  248MOL0     C32631   9.702   6.600   3.244  0.0276 -0.1303 -0.8143
  248MOL0     C32632   9.603   6.505   3.284  0.3448 -0.0201 -0.4626
  248MOL0     C32633   9.467   6.514   3.219  0.3202 -1.1149  0.0052
  248MOL0     O32634   9.390   6.410   3.235  0.1640 -0.2033  0.4423
  248MOL0     C32635   9.258   6.413   3.184  0.7215 -1.0329  0.1853
  248MOL0     C32636   9.210   6.476   3.069 -0.1746  0.1213  0.0315
  248MOL0     C32637   9.068   6.465   3.030 -0.0410 -0.8637 -0.0917
  248MOL0     C32638   8.982   6.382   3.119 -0.0255 -0.0811 -0.2585
  248MOL0     O32639   8.843   6.362   3.097  0.3241 -0.1235 -0.3529
  248MOL0     C32640   8.810   6.235   3.045  1.3197 -0.2001  0.1674
  248MOL0     C32641   8.662   6.219   3.025 -0.0053  0.9673 -0.4165
  248MOL0     C32642   8.599   6.227   3.167 -0.0325  0.7406 -0.5836
  248MOL0     C32643   8.440   6.201   3.153 -0.5695  0.0729  0.4885
  248MOL0     C32644   8.369   6.220   3.279 -0.4735  0.0916 -0.5078
  248MOL0     C32645   8.223   6.228   3.267  0.4836  0.5146 -0.1883
  248MOL0     C32646   8.165   6.271   3.399  0.4805 -0.1140 -0.2980
  248MOL0     C32647   8.014   6.265   3.392  0.2978  0.5874 -1.1474
  248MOL0    Cl32648   7.943   6.332   3.545 -0.2346  0.4456 -0.1947
  248MOL0     C32649   9.031   6.328   3.234  0.4485  0.1471 -0.1185
  248MOL0     C32650   9.162   6.351   3.271  0.0030 -0.0659  0.7726
  248MOL0     O32651   9.441   6.625   3.157 -0.2708 -0.6249  0.2666
  248MOL0     C32652   9.628   6.409   3.383  0.4841  0.0552  0.7564
  248MOL0     C32653   9.745   6.420   3.452 -0.1606  0.2514  0.5199
  248MOL0     N32654  10.560   6.843   3.552 -0.3796 -1.1206  0.0691
  248MOL0     N32655  10.615   6.962   3.583 -0.6070 -0.5447 -0.5276
  248MOL0     C32656   9.585   7.287   3.874 -0.2295 -0.8852 -0.2822
  248MOL0     C32657   9.454   7.244   3.886  0.0776 -0.1020  0.1796
  248MOL0     C32658   9.075   7.018   3.798  0.2898 -1.0130 -0.1683
  248MOL0     C32659   8.988   7.104   3.731  0.3401 -0.2827 -0.7200
  248MOL0     C32660   8.859   7.064   3.701 -0.2202 -0.1201  0.2960
  248MOL0     C32661   8.822   6.934   3.735 -0.1810  0.5130 -0.1176
  248MOL0     O32662   8.689   6.914   3.732 -0.4140 -0.2068  0.1334
  248MOL0     C32663   8.631   6.783   3.700 -0.4755 -0.2974 -0.4236
  248MOL0     C32664   8.494   6.796   3.634 -0.9673  0.3884  0.2644
  248MOL0     C32665   8.387   6.863   3.711  0.2715  0.2895  0.7769
  248MOL0     C32666   8.253   6.847   3.644 -0.5502  0.8691 -0.9823
  248MOL0     C32667   8.201   6.707   3.672 -0.4812 -0.4680  0.6500
  248MOL0     C32668   8.149   6.599   3.687 -0.0044  0.4345 -0.2174
  248MOL0     C32669   8.916   6.845   3.790  0.3222  0.4375 -0.8664
  248MOL0     C32670   9.043   6.888   3.816  0.0599  0.1636 -0.9794
  248MOL0     H32671   9.360   7.295   3.561 -0.8026 -0.3680 -0.0580
  248MOL0     H32672   9.586   7.347   3.529  0.0255 -0.7738 -0.3233
  248MOL0     H32673   9.905   7.260   3.650 -2.6739 -2.4765  1.2398
  248MOL0     H32674   9.849   7.212   3.814 -1.7958  0.6557  1.2227
  248MOL0     H32675   9.960   7.420   3.907 -0.3450  2.2752 -0.9499
  248MOL0     H32676  10.011   7.465   3.749  1.7151  1.1647  1.8593
  248MOL0     H32677  10.153   7.285   3.720  0.2413  0.9047  0.3282
  248MOL0     H32678  10.097   7.207   3.871 -0.3999  0.2538 -1.3321
  248MOL0     H32679  10.268   7.463   3.831  2.0568  0.4785  1.5142
  248MOL0     H32680  10.163   7.422   3.979 -2.0224  0.4353 -1.7231
  248MOL0     H32681  10.288   7.221   4.010 -2.9715  0.0974 -0.8614
  248MOL0     H32682  10.413   7.351   4.004  2.1024 -3.1812 -0.3223
  248MOL0     H32683  10.442   7.305   3.754 -1.0485  0.8432  0.0357
  248MOL0     H32684  10.349   7.151   3.787 -0.9144 -2.5166  3.0394
  248MOL0     H32685  10.604   7.235   3.958  3.2451 -1.3474 -1.3082
  248MOL0     H32686  10.516   7.091   3.976  0.8139  1.3073  1.7041
  248MOL0     H32687  10.733   7.085   3.844 -0.7813 -0.1938  2.7530
  248MOL0     H32688  10.654   7.189   3.723 -1.8974  2.7612  1.8194
  248MOL0     H32689  10.446   6.900   3.852  0.8048  1.1004  0.3776
  248MOL0     H32690  10.355   6.672   3.775  1.4497 -1.4570  0.9740
  248MOL0     H32691  10.439   6.577   3.650 -5.7149 -3.2323  1.1982
  248MOL0     H32692  10.317   6.711   3.480  0.6714  3.2824  0.3520
  248MOL0     H32693  10.237   6.797   3.613  4.8184  1.8442 -0.8081
  248MOL0     H32694  10.213   6.493   3.583  2.2406  1.0860  1.5558
  248MOL0     H32695  10.119   6.596   3.685  1.7578 -0.0447  0.1225
  248MOL0     H32696  10.099   6.607   3.371  0.3691  0.5848  0.2219
  248MOL0     H32697  10.020   6.715   3.489  3.1749  2.0694  2.3927
  248MOL0     H32698   9.899   6.679   3.271 -4.0808  2.5268 -0.0695
  248MOL0     H32699   9.672   6.677   3.174  0.1578 -0.1538 -0.8967
  248MOL0     H32700   9.276   6.533   3.005 -0.2957  0.7255  0.4310
  248MOL0     H32701   9.031   6.526   2.949  1.2087  2.6933  1.8130
  248MOL0     H32702   8.837   6.164   3.124 -2.5103 -0.8136  1.0983
  248MOL0     H32703   8.854   6.210   2.947 -1.3988  0.7446 -1.3778
  248MOL0     H32704   8.630   6.124   2.981 -1.1574  0.1441  1.9902
  248MOL0     H32705   8.629   6.296   2.955 -2.0107  0.7240  0.2015
  248MOL0     H32706   8.615   6.328   3.208 -0.4601  0.8394 -0.6629
  248MOL0     H32707   8.633   6.161   3.247  2.1357 -0.2370 -2.2031
  248MOL0     H32708   8.395   6.260   3.072 -0.5053 -2.3087 -1.3873
  248MOL0     H32709   8.419   6.098   3.123 -4.1554  1.6408 -3.4622
  248MOL0     H32710   8.403   6.303   3.342  0.9133 -1.2506  0.5861
  248MOL0     H32711   8.399   6.145   3.353  0.8747  2.6413  1.7543
  248MOL0     H32712   8.190   6.126   3.244  1.3753 -0.0035  0.7429
  248MOL0     H32713   8.197   6.297   3.187  2.5702  1.9733  0.3017
  248MOL0     H32714   8.200   6.205   3.479  0.4604  2.2835  1.8292
  248MOL0     H32715   8.185   6.374   3.430 -1.3283  0.0934  0.2577
  248MOL0     H32716   7.993   6.157   3.389 -0.2392  0.5228  1.9056
  248MOL0     H32717   7.981   6.317   3.302 -0.0190  0.2304 -1.2407
  248MOL0     H32718   8.961   6.269   3.293 -2.4808 -0.2460 -3.6468
  248MOL0     H32719   9.201   6.317   3.367  1.8286  1.5879  0.6665
  248MOL0     H32720   9.566   6.326   3.411  2.6290 -2.3686 -1.1258
  248MOL0     H32721   9.761   6.347   3.531 -0.8525  0.0145  0.4527
  248MOL0     H32722   9.658   7.295   3.955 -0.9144  2.4007  0.1365
  248MOL0     H32723   9.428   7.204   3.983 -0.4266  1.6269  0.7890
  248MOL0     H32724   9.023   7.204   3.706 -0.5131  0.2823  0.2439
  248MOL0     H32725   8.781   7.126   3.656  0.2678 -0.7223 -1.4530
  248MOL0     H32726   8.608   6.722   3.787 -2.3507 -0.7214 -1.1697
  248MOL0     H32727   8.706   6.716   3.656 -1.0277 -1.2611  0.0679
  248MOL0     H32728   8.518   6.850   3.542 -3.2000 -0.8023 -1.1206
  248MOL0     H32729   8.466   6.695   3.601  0.8938  0.2225 -0.9018
  248MOL0     H32730   8.410   6.970   3.722 -5.4102  1.9700 -0.3776
  248MOL0     H32731   8.371   6.818   3.809  0.7951  0.7407  1.0737
  248MOL0     H32732   8.180   6.920   3.680  1.1566  3.1233 -1.7829
  248MOL0     H32733   8.264   6.870   3.538 -0.8699  1.7620 -0.8341
  248MOL0     H32734   8.111   6.503   3.717 -1.9130  1.3135  0.3289
  248MOL0     H32735   8.879   6.748   3.821  1.5607  0.6354  1.3952
  248MOL0     H32736   9.115   6.814   3.851 -1.8924 -2.5746 -2.3945
  249MOL0     O32737   1.732   0.557   8.106  0.3570 -0.2718  0.2201
  249MOL0     C32738   1.763   0.540   7.987  0.2216 -0.0556 -1.0610
  249MOL0     O32739   1.668   0.516   7.891 -0.0626 -0.2470  0.1834
  249MOL0     C32740   1.529   0.510   7.916  0.1930  0.3267  0.2013
  249MOL0     C32741   1.445   0.529   7.802 -0.8672 -0.4405  0.0152
  249MOL0     C32742   1.305   0.509   7.812 -0.2305  0.1339  0.6658
  249MOL0     C32743   1.254   0.468   7.936  0.3022  0.1651  0.1387
  249MOL0     O32744   1.116   0.456   7.957  0.9772  0.2377  0.1364
  249MOL0     C32745   1.016   0.512   7.867  0.1006 -0.6072  0.5594
  249MOL0     C32746   0.888   0.531   7.943 -0.2408 -0.7098 -1.1947
  249MOL0     C32747   0.839   0.417   8.022 -0.4211 -0.5369  0.5607
  249MOL0     C32748   0.703   0.452   8.072  0.4441  0.5969  0.4431
  249MOL0     C32749   0.645   0.328   8.154  1.0759 -0.2192  0.2087
  249MOL0     C32750   0.495   0.377   8.187 -0.9582  0.1554 -0.5511
  249MOL0     C32751   0.396   0.275   8.236 -0.9585 -1.1100  0.5083
  249MOL0     C32752   0.434   0.232   8.379 -0.3139  0.3596  0.2576
  249MOL0     N32753   0.344   0.136   8.423 -0.2549 -0.5106 -0.4936
  249MOL0     C32754   0.277   0.033   8.352 -1.2538 -0.3741  0.3269
  249MOL0     C32755   0.168   0.005   8.423 -0.6537 -0.6792  0.5980
  249MOL0     C32756   0.065  -0.097   8.389  0.0844 -0.1520  0.3544
  249MOL0     C32757   0.012  -0.098   8.238 -0.4754  0.3657  0.4525
  249MOL0     C32758  -0.098  -0.203   8.222 -0.5802 -0.4092 -0.4668
  249MOL0     C32759  -0.132  -0.201   8.073 -0.3184  0.0095  0.5728
  249MOL0     O32760  -0.231  -0.299   8.039 -0.2839  0.5536  0.1069
  249MOL0     C32761  -0.367  -0.276   8.047 -0.1418 -0.5360  0.2620
  249MOL0     C32762  -0.430  -0.154   8.065 -0.0553 -0.3829 -0.0739
  249MOL0     C32763  -0.571  -0.135   8.060 -0.1733  0.3374  0.2850
  249MOL0     C32764  -0.655  -0.242   8.032  0.0540 -0.0291 -0.3124
  249MOL0     C32765  -0.807  -0.237   8.041 -0.4712  0.2503  1.2450
  249MOL0     O32766  -0.863  -0.114   8.022 -0.2874 -0.8487 -0.0342
  249MOL0     C32767  -1.000  -0.088   8.041 -0.3042  0.2173 -0.3995
  249MOL0     C32768  -1.056  -0.008   7.941  0.4690  0.2828  0.1743
  249MOL0     C32769  -1.184   0.035   7.959 -0.4100 -0.2006 -0.0112
  249MOL0     C32770  -1.261  -0.002   8.069 -0.2539 -0.8768  0.8827
  249MOL0     O32771  -1.385   0.056   8.083 -0.2288  0.5072  0.1019
  249MOL0     C32772  -1.485   0.008   8.170 -0.3940 -0.3362  0.3180
  249MOL0     C32773  -1.606   0.094   8.148 -0.0380  0.5031 -0.5629
  249MOL0     C32774  -1.688   0.071   8.020  0.9245  0.0074  0.0958
  249MOL0     C32775  -1.639  -0.027   7.910 -0.1234  0.1089 -0.2849
  249MOL0     C32776  -1.723  -0.013   7.782  0.0085  0.5192 -0.3406
  249MOL0     C32777  -1.692  -0.115   7.673  0.1003  0.2642  0.1363
  249MOL0     C32778  -1.571  -0.077   7.578  0.1821  0.6059  0.2228
  249MOL0     C32779  -1.542  -0.202   7.491 -0.0879  0.4098  1.0209
  249MOL0    Cl32780  -1.659  -0.219   7.356  1.1277  0.0974 -0.0125
  249MOL0     C32781  -1.202  -0.091   8.168  0.3921 -0.3777 -0.5058
  249MOL0     C32782  -1.073  -0.132   8.155  0.0509 -0.9671  0.0080
  249MOL0     O32783  -0.871  -0.326   8.091 -0.1531  0.6800 -0.5705
  249MOL0     C32784  -0.589  -0.366   8.016 -0.8119 -0.2262  0.1658
  249MOL0     C32785  -0.453  -0.383   8.017  0.2258  0.7661  0.3784
  249MOL0     N32786   0.178   0.076   8.540  0.3852 -0.6647  0.2271
  249MOL0     N32787   0.285   0.151   8.544  0.1595 -0.0085  0.0485
  249MOL0     C32788   1.334   0.457   8.046  0.8874  0.7596  0.6141
  249MOL0     C32789   1.466   0.476   8.033 -0.4266 -0.2014 -0.3686
  249MOL0     C32790   1.911   0.542   7.952  0.2553 -0.2498 -0.6062
  249MOL0     C32791   1.961   0.456   7.854 -0.6760 -0.2906  0.0855
  249MOL0     C32792   2.101   0.435   7.834  0.5010  0.2260  0.4857
  249MOL0     C32793   2.191   0.521   7.896  0.1460 -0.8048 -0.6326
  249MOL0     O32794   2.324   0.539   7.872  0.4559 -0.0956  0.4230
  249MOL0     C32795   2.394   0.453   7.783  0.5680  0.4607 -0.3539
  249MOL0     C32796   2.447   0.315   7.847 -0.3581  0.2212  0.1772
  249MOL0     C32797   2.461   0.203   7.734 -0.3114 -0.1018 -0.7520
  249MOL0     C32798   2.498   0.063   7.799  0.4690  0.9555 -0.2337
  249MOL0     C32799   2.380   0.016   7.871  0.2023  0.1866  0.0424
  249MOL0     C32800   2.285  -0.018   7.933 -0.0349  0.3412  0.3262
  249MOL0     C32801   2.141   0.623   7.988 -0.5277 -0.1905  0.4191
  249MOL0     C32802   2.005   0.627   8.016 -0.4544 -0.1990  0.9316
  249MOL0     H32803   1.484   0.563   7.706 -0.0303 -3.7620 -0.9302
  249MOL0     H32804   1.240   0.535   7.729 -2.2670 -1.0972  1.7914
  249MOL0     H32805   1.001   0.439   7.787  0.3036  1.0711 -1.0720
  249MOL0     H32806   1.053   0.610   7.835 -0.4174 -1.1877 -2.0746
  249MOL0     H32807   0.808   0.568   7.878 -0.6314 -0.1000 -0.3821
  249MOL0     H32808   0.914   0.610   8.014 -2.9924 -0.3619 -0.4579
  249MOL0     H32809   0.907   0.382   8.101 -1.5407 -1.5592  1.0927
  249MOL0     H32810   0.828   0.337   7.948 -0.6515 -0.7058  0.7748
  249MOL0     H32811   0.707   0.544   8.130 -1.0030 -0.0225  1.6058
  249MOL0     H32812   0.635   0.473   7.989 -0.2872 -0.6259  0.7136
  249MOL0     H32813   0.701   0.313   8.247  0.2188 -0.1300  0.7485
  249MOL0     H32814   0.642   0.237   8.093  1.1370 -2.7641  3.7125
  249MOL0     H32815   0.459   0.423   8.094  2.0073  0.0987 -1.8695
  249MOL0     H32816   0.490   0.462   8.256  1.6420 -0.3680  0.3982
  249MOL0     H32817   0.295   0.316   8.235  0.3091  2.3292  0.7410
  249MOL0     H32818   0.395   0.191   8.166  1.8398 -0.1417 -0.8275
  249MOL0     H32819   0.440   0.323   8.439 -0.5785  0.1927  0.5418
  249MOL0     H32820   0.535   0.192   8.382 -0.3466  0.3211  2.1766
  249MOL0     H32821   0.310  -0.011   8.258  2.0024  0.1505  1.1111
  249MOL0     H32822  -0.018  -0.063   8.452 -1.8723 -0.2618 -1.9871
  249MOL0     H32823   0.108  -0.189   8.430  0.6527 -0.8133 -1.6442
  249MOL0     H32824   0.088  -0.118   8.162  0.9914  2.5957  1.2187
  249MOL0     H32825  -0.037  -0.003   8.216 -2.7613 -0.4867  1.5553
  249MOL0     H32826  -0.071  -0.305   8.254 -2.3554 -1.0465 -0.8967
  249MOL0     H32827  -0.188  -0.172   8.275 -2.3287  1.3405 -4.1130
  249MOL0     H32828  -0.044  -0.233   8.016  0.0874  2.1166 -0.0891
  249MOL0     H32829  -0.171  -0.107   8.032 -0.9702 -0.0026  1.1431
  249MOL0     H32830  -0.370  -0.064   8.075 -0.2506 -0.3702  1.1334
  249MOL0     H32831  -0.614  -0.038   8.081 -1.7846  0.0391 -1.4063
  249MOL0     H32832  -0.993   0.022   7.858  0.0392  0.0137 -0.2536
  249MOL0     H32833  -1.221   0.106   7.885  3.2454  2.1300  0.1126
  249MOL0     H32834  -1.461   0.013   8.277 -0.4373 -0.6324  0.3433
  249MOL0     H32835  -1.508  -0.097   8.147  1.6878 -0.6287 -0.6190
  249MOL0     H32836  -1.568   0.197   8.144  0.6287  0.2456 -1.0437
  249MOL0     H32837  -1.668   0.082   8.238 -0.4858 -1.6412 -1.0999
  249MOL0     H32838  -1.700   0.165   7.966  0.1802 -0.1626 -0.0480
  249MOL0     H32839  -1.784   0.031   8.054  0.9771  1.7111  2.4823
  249MOL0     H32840  -1.534  -0.011   7.882 -0.3798 -1.0253 -2.0243
  249MOL0     H32841  -1.634  -0.131   7.943  0.1834  1.1838  3.4852
  249MOL0     H32842  -1.710   0.087   7.740  1.5616  0.8766  0.9105
  249MOL0     H32843  -1.825  -0.032   7.818  0.4891 -0.0607  0.7649
  249MOL0     H32844  -1.784  -0.130   7.615  1.6764 -1.0344 -2.2241
  249MOL0     H32845  -1.672  -0.211   7.721  1.8883 -0.1764 -1.3348
  249MOL0     H32846  -1.602   0.000   7.508  0.0604  1.2924  1.0219
  249MOL0     H32847  -1.479  -0.053   7.633  1.6974 -1.5346 -1.2008
  249MOL0     H32848  -1.527  -0.292   7.552  0.1555 -0.5310 -0.3917
  249MOL0     H32849  -1.448  -0.181   7.441 -1.7936  0.8019 -2.2811
  249MOL0     H32850  -1.265  -0.118   8.252  0.3067  0.4897 -0.2813
  249MOL0     H32851  -1.031  -0.193   8.235  1.7492 -1.0697 -0.9044
  249MOL0     H32852  -0.646  -0.455   7.994 -0.9544 -0.0107 -0.3663
  249MOL0     H32853  -0.426  -0.487   7.998 -2.2093  0.4922 -2.3134
  249MOL0     H32854   1.293   0.426   8.142 -0.7407  1.1209  0.0586
  249MOL0     H32855   1.515   0.452   8.126 -3.4222 -0.5321  1.2526
  249MOL0     H32856   1.888   0.393   7.803  0.8634 -1.7128 -0.4506
  249MOL0     H32857   2.126   0.362   7.758 -3.0675 -1.1760  0.4630
  249MOL0     H32858   2.479   0.517   7.756  0.6177  0.2003 -0.8295
  249MOL0     H32859   2.330   0.450   7.694 -0.4778  0.4134  0.3842
  249MOL0     H32860   2.540   0.338   7.900 -0.6569 -1.5174  1.5697
  249MOL0     H32861   2.376   0.288   7.926 -1.6326 -0.2785 -1.1003
  249MOL0     H32862   2.539   0.225   7.660 -2.0249  0.3454 -2.5160
  249MOL0     H32863   2.382   0.203   7.658 -0.7768  2.8361 -0.3862
  249MOL0     H32864   2.527  -0.010   7.723  2.5336  1.4946 -0.0140
  249MOL0     H32865   2.586   0.076   7.863  1.4074  0.3330 -1.3506
  249MOL0     H32866   2.194  -0.039   7.986  0.7024 -1.9152  0.7710
  249MOL0     H32867   2.210   0.701   8.017  0.7683  0.4911 -3.7085
  249MOL0     H32868   1.955   0.699   8.080  0.7774  1.9632 -0.3962
  250MOL0     O32869   1.452   9.569   1.085 -0.4473  0.4761 -0.4672
  250MOL0     C32870   1.382   9.640   1.011 -0.1353 -0.9263 -0.0585
  250MOL0     O32871   1.419   9.702   0.897 -0.7668 -0.3000  0.2501
  250MOL0     C32872   1.553   9.697   0.853  0.0496  0.1703 -0.6531
  250MOL0     C32873   1.674   9.689   0.931  0.5849  0.0818 -0.2806
  250MOL0     C32874   1.799   9.672   0.867 -0.0935  0.2315 -0.1183
  250MOL0     C32875   1.815   9.663   0.725 -0.2933  0.0590 -0.5079
  250MOL0     O32876   1.942   9.653   0.662  0.1002  0.6733  0.9173
  250MOL0     C32877   2.066   9.617   0.739  0.4264 -0.8330 -0.1487
  250MOL0     C32878   2.176   9.602   0.650 -0.4491  0.2520  0.5419
  250MOL0     C32879   2.185   9.719   0.532  0.1442  1.3442 -0.4893
  250MOL0     C32880   2.077   9.704   0.413 -0.2110 -0.2418  0.2352
  250MOL0     C32881   2.136   9.783   0.294 -0.6132  1.4726  0.0598
  250MOL0     C32882   2.051   9.767   0.170 -0.4229 -0.0750  0.4168
  250MOL0     C32883   2.096   9.878   0.076 -0.2855  0.4874 -0.5350
  250MOL0     C32884   2.044  10.022   0.112 -0.5223 -0.1597  0.1961
  250MOL0     N32885   1.899  10.034   0.095  0.5550 -0.0362  0.6557
  250MOL0     C32886   1.821  10.097   0.188 -0.8209 -0.0672 -0.3769
  250MOL0     C32887   1.698  10.056   0.162  0.1419 -0.1421  0.0817
  250MOL0     C32888   1.565  10.077   0.221 -0.1139  0.1644  0.2435
  250MOL0     C32889   1.476   9.953   0.217  0.5423  0.1946 -0.1229
  250MOL0     C32890   1.325   9.969   0.245  0.4451  0.2619 -0.4174
  250MOL0     C32891   1.259  10.050   0.128 -0.1089  0.3201 -0.0687
  250MOL0     O32892   1.115  10.032   0.137 -0.1075  0.5856 -0.5897
  250MOL0     C32893   1.039  10.131   0.083 -0.1824  0.9019  0.2272
  250MOL0     C32894   1.070  10.203  -0.030 -0.3039  0.4383  0.2314
  250MOL0     C32895   0.984  10.293  -0.087  0.6805 -0.0044 -0.0475
  250MOL0     C32896   0.866  10.331  -0.018 -0.1575  0.2910  0.9443
  250MOL0     C32897   0.784  10.436  -0.074 -0.2462  0.1147  0.0143
  250MOL0     O32898   0.842  10.510  -0.165 -0.9122 -0.5364  0.5716
  250MOL0     C32899   0.762  10.612  -0.215 -0.2972  0.5905  0.0109
  250MOL0     C32900   0.797  10.747  -0.169  0.3525  0.0180  0.1357
  250MOL0     C32901   0.723  10.856  -0.223 -0.2327 -0.2235  0.1441
  250MOL0     C32902   0.628  10.828  -0.321  1.0010  0.0799  0.1583
  250MOL0     O32903   0.545  10.928  -0.384 -0.1584 -0.5781 -0.4327
  250MOL0     C32904   0.525  11.053  -0.318  0.1007 -0.3327 -0.6506
  250MOL0     C32905   0.425  11.146  -0.398 -0.1605 -0.0035 -0.3650
  250MOL0     C32906   0.405  11.285  -0.329  0.4673 -0.5219 -0.2299
  250MOL0     C32907   0.289  11.356  -0.411 -1.0402 -0.6802 -0.8789
  250MOL0     C32908   0.259  11.492  -0.351  0.3450 -0.6128 -0.7569
  250MOL0     C32909   0.370  11.591  -0.377  0.0860 -0.4478  0.1175
  250MOL0     C32910   0.343  11.719  -0.294  0.3931  0.2679 -0.0004
  250MOL0     C32911   0.462  11.810  -0.307 -0.0365 -0.4628 -0.3434
  250MOL0    Cl32912   0.495  11.847  -0.494 -0.1856  0.3828  0.4078
  250MOL0     C32913   0.582  10.695  -0.351  0.3929  0.4536  0.1157
  250MOL0     C32914   0.654  10.584  -0.299 -0.3015 -0.6347 -0.2015
  250MOL0     O32915   0.666  10.452  -0.037  0.0942  0.2828 -0.6081
  250MOL0     C32916   0.830  10.254   0.096 -0.5142  0.1048 -0.6833
  250MOL0     C32917   0.920  10.160   0.149 -0.5223 -0.2012  0.0445
  250MOL0     N32918   1.697   9.982   0.048  0.1690  0.4046  0.1670
  250MOL0     N32919   1.819   9.972   0.006 -0.3965  0.7682  0.5455
  250MOL0     C32920   1.696   9.663   0.661  0.5830  0.5881 -0.4626
  250MOL0     C32921   1.576   9.678   0.722 -0.0282  0.1619  0.1228
  250MOL0     C32922   1.227   9.642   1.032  0.4777 -0.0530 -0.4921
  250MOL0     C32923   1.186   9.578   1.148  0.3072  0.8434  0.0444
  250MOL0     C32924   1.050   9.553   1.175  0.4833 -0.0311  0.0591
  250MOL0     C32925   0.953   9.601   1.088  0.2054  0.1524 -0.8144
  250MOL0     O32926   0.818   9.571   1.116  0.3033  0.4731  0.6126
  250MOL0     C32927   0.717   9.630   1.036 -0.7864  0.7959  0.1592
  250MOL0     C32928   0.575   9.583   1.078  0.1437  0.2707 -1.2534
  250MOL0     C32929   0.462   9.653   1.009  0.3143 -0.1205 -0.6131
  250MOL0     C32930   0.329   9.574   1.042 -0.1087 -0.8098  0.3266
  250MOL0     C32931   0.221   9.639   0.969  0.6524  0.3887  0.1238
  250MOL0     C32932   0.124   9.702   0.927 -0.6224  0.0621 -0.6870
  250MOL0     C32933   1.000   9.682   0.989  0.2092 -0.7946 -0.2447
  250MOL0     C32934   1.133   9.706   0.951  0.2013 -0.1011 -0.4716
  250MOL0     H32935   1.673   9.684   1.040 -1.9180 -1.0460 -0.2867
  250MOL0     H32936   1.891   9.656   0.923 -0.2125 -1.4041 -0.3470
  250MOL0     H32937   2.060   9.527   0.801  1.3459 -1.2963 -0.7084
  250MOL0     H32938   2.086   9.705   0.801  1.1532  1.0780 -2.9338
  250MOL0     H32939   2.168   9.506   0.598 -3.2345  1.4442 -1.4170
  250MOL0     H32940   2.265   9.603   0.714  0.5767  1.9642 -0.8221
  250MOL0     H32941   2.289   9.718   0.496 -0.5051  2.4791 -2.5264
  250MOL0     H32942   2.186   9.816   0.583 -0.6723  0.1121  2.0516
  250MOL0     H32943   2.063   9.596   0.404  2.6172 -1.1726  4.1276
  250MOL0     H32944   1.979   9.750   0.427 -0.7033 -0.5355 -1.9906
  250MOL0     H32945   2.236   9.741   0.279 -1.2429  0.4015 -1.3881
  250MOL0     H32946   2.140   9.882   0.340  2.3203  1.0996  0.8348
  250MOL0     H32947   1.948   9.783   0.204  0.1631 -0.1775  2.3941
  250MOL0     H32948   2.052   9.668   0.124  1.5472 -0.6795  1.6429
  250MOL0     H32949   2.204   9.890   0.084 -0.4706  2.0752 -0.0174
  250MOL0     H32950   2.075   9.837  -0.023  0.8021 -1.4479 -0.0223
  250MOL0     H32951   2.095  10.087   0.041 -0.0508 -0.7833 -0.0510
  250MOL0     H32952   2.068  10.045   0.216  0.7899 -0.6139  0.0118
  250MOL0     H32953   1.844  10.158   0.275  0.2099 -0.5310 -0.3188
  250MOL0     H32954   1.525  10.164   0.169  1.6007 -1.3945 -4.2866
  250MOL0     H32955   1.581  10.095   0.327 -0.3501 -1.3870  0.5665
  250MOL0     H32956   1.509   9.878   0.289 -1.5446 -2.0383 -1.3498
  250MOL0     H32957   1.480   9.905   0.118  1.0663 -4.4128  1.8989
  250MOL0     H32958   1.274   9.874   0.262 -1.3481  0.8550 -2.0898
  250MOL0     H32959   1.319  10.032   0.335 -0.6005 -0.7800  0.2679
  250MOL0     H32960   1.291  10.023   0.027  0.8905  2.3097 -0.3159
  250MOL0     H32961   1.275  10.156   0.149  1.1417  0.1230  0.0408
  250MOL0     H32962   1.169  10.184  -0.070 -0.0750  0.3056  0.8377
  250MOL0     H32963   1.022  10.335  -0.180 -2.1182  1.5605 -0.5812
  250MOL0     H32964   0.880  10.748  -0.100  0.7045  0.4320 -0.2822
  250MOL0     H32965   0.755  10.959  -0.213 -1.2752  0.0214  1.1838
  250MOL0     H32966   0.612  11.113  -0.290 -0.9661 -0.1823  2.7072
  250MOL0     H32967   0.471  11.031  -0.226 -0.5399  0.4092 -0.8285
  250MOL0     H32968   0.331  11.090  -0.402 -0.3743  0.3604 -0.4692
  250MOL0     H32969   0.466  11.153  -0.499  0.7020 -2.7793 -0.3075
  250MOL0     H32970   0.497  11.344  -0.319  2.0675 -2.9692  0.6036
  250MOL0     H32971   0.371  11.264  -0.227  0.3998  0.2056 -0.1005
  250MOL0     H32972   0.309  11.378  -0.517  0.1997  2.7985 -0.0558
  250MOL0     H32973   0.204  11.288  -0.404 -1.7508  0.3747  2.4768
  250MOL0     H32974   0.244  11.473  -0.244 -4.8361  0.7961 -0.9398
  250MOL0     H32975   0.163  11.524  -0.393  0.2944 -1.5032 -1.3293
  250MOL0     H32976   0.367  11.609  -0.485 -1.6688  0.3226  0.2623
  250MOL0     H32977   0.471  11.562  -0.346 -0.1932 -1.5887 -0.0271
  250MOL0     H32978   0.253  11.766  -0.335  1.7486  0.0939 -3.5479
  250MOL0     H32979   0.338  11.700  -0.187 -0.2219  0.8253  0.0732
  250MOL0     H32980   0.540  11.762  -0.248 -1.1591  1.5937  3.1004
  250MOL0     H32981   0.435  11.907  -0.264 -1.6810 -0.4013 -1.4024
  250MOL0     H32982   0.493  10.675  -0.411  0.6961  2.5303 -1.1497
  250MOL0     H32983   0.609  10.487  -0.316 -1.7152  0.0468 -0.5243
  250MOL0     H32984   0.730  10.269   0.136 -1.0984 -2.7561 -0.8169
  250MOL0     H32985   0.892  10.089   0.227 -0.9521 -0.1688 -0.0750
  250MOL0     H32986   1.708   9.653   0.554  1.0822  0.3357 -0.3860
  250MOL0     H32987   1.497   9.666   0.649  2.3951 -2.4648 -2.3207
  250MOL0     H32988   1.253   9.514   1.205 -2.2679 -1.7466  0.4042
  250MOL0     H32989   1.016   9.490   1.258 -3.3832  1.0100 -0.5523
  250MOL0     H32990   0.732   9.603   0.931 -3.5650  1.3546 -0.4699
  250MOL0     H32991   0.722   9.739   1.044  1.8831  0.5791  3.8178
  250MOL0     H32992   0.553   9.478   1.059 -1.5121  0.3243  0.1859
  250MOL0     H32993   0.563   9.604   1.184 -2.2562  1.4727 -1.6835
  250MOL0     H32994   0.482   9.658   0.901 -0.9810 -3.1907 -1.1118
  250MOL0     H32995   0.441   9.757   1.033 -3.1379 -0.9952  0.8003
  250MOL0     H32996   0.325   9.467   1.019  0.6311 -0.8266  0.2686
  250MOL0     H32997   0.308   9.596   1.147  0.0997 -0.3068  0.2694
  250MOL0     H32998   0.055   9.776   0.894 -0.8213  0.0001 -0.4116
  250MOL0     H32999   0.927   9.730   0.925  3.4211  4.5109 -0.5734
  250MOL0     H33000   1.163   9.772   0.870  0.5720 -0.3350 -0.5235
  251MOL0     O33001   6.433   2.494   8.674  0.2208 -0.1579  0.0721
  251MOL0     C33002   6.388   2.591   8.614 -0.7445  0.8607 -0.1908
  251MOL0     O33003   6.471   2.703   8.579 -0.2725 -0.0299 -0.1075
  251MOL0     C33004   6.599   2.693   8.605 -0.9584  0.1371 -0.2448
  251MOL0     C33005   6.663   2.694   8.732 -0.3346  0.4095  0.0473
  251MOL0     C33006   6.797   2.702   8.745  0.3619 -0.3587  0.4113
  251MOL0     C33007   6.877   2.714   8.631 -0.3284  0.1293  0.7794
  251MOL0     O33008   7.014   2.741   8.648 -0.1495 -0.2262  0.0524
  251MOL0     C33009   7.107   2.667   8.564 -0.2182 -0.7482 -0.3822
  251MOL0     C33010   7.210   2.597   8.652 -0.1858  0.1847 -0.3347
  251MOL0     C33011   7.306   2.515   8.560  0.2595 -0.6009  0.1839
  251MOL0     C33012   7.416   2.455   8.655  0.0219 -0.0261  0.9983
  251MOL0     C33013   7.353   2.336   8.727 -0.5238  0.7203  0.1575
  251MOL0     C33014   7.371   2.201   8.645 -0.4905  0.2858 -0.1164
  251MOL0     C33015   7.315   2.083   8.718  0.2522  0.0402 -0.0663
  251MOL0     C33016   7.191   2.022   8.662  0.3280  0.1405 -0.9524
  251MOL0     N33017   7.082   2.120   8.680 -0.2387 -0.4173  0.6140
  251MOL0     C33018   7.034   2.176   8.795 -0.3393 -0.0699 -1.2493
  251MOL0     C33019   6.949   2.270   8.754  0.4946  0.3350 -0.5726
  251MOL0     C33020   6.855   2.345   8.844 -0.5754  0.6828  0.5978
  251MOL0     C33021   6.708   2.320   8.812 -0.4598 -1.3018 -0.7565
  251MOL0     C33022   6.665   2.183   8.841 -0.4852 -0.1391  0.1653
  251MOL0     C33023   6.527   2.165   8.778 -0.7245  0.1921 -0.1249
  251MOL0     O33024   6.462   2.054   8.837 -1.0167 -0.6522 -0.0198
  251MOL0     C33025   6.342   2.009   8.796  0.0366  0.0628  0.4345
  251MOL0     C33026   6.267   2.083   8.705 -0.4199 -0.1682  0.3975
  251MOL0     C33027   6.151   2.037   8.643 -0.7635  0.7282 -0.7723
  251MOL0     C33028   6.098   1.913   8.688  0.7489 -0.2651  0.4090
  251MOL0     C33029   5.972   1.858   8.628 -0.4603  0.3635 -0.2257
  251MOL0     O33030   5.956   1.720   8.622  0.5080 -0.2288  0.0290
  251MOL0     C33031   5.845   1.661   8.568  0.0202  0.6979 -0.3714
  251MOL0     C33032   5.739   1.626   8.652  0.1133  0.0194  0.3938
  251MOL0     C33033   5.613   1.582   8.602 -0.0184  0.4402  0.5696
  251MOL0     C33034   5.593   1.576   8.462 -0.2517  1.0239  0.5643
  251MOL0     O33035   5.482   1.544   8.395  0.6027 -0.2125  0.7253
  251MOL0     C33036   5.371   1.484   8.464 -0.1544 -0.5359  1.0025
  251MOL0     C33037   5.284   1.419   8.352  0.3320  0.5801 -0.3993
  251MOL0     C33038   5.349   1.292   8.287  0.2239  0.0823 -0.0192
  251MOL0     C33039   5.255   1.248   8.172 -0.2332  0.2949 -0.4600
  251MOL0     C33040   5.323   1.156   8.067 -0.2837 -0.6921  0.3383
  251MOL0     C33041   5.290   1.180   7.917  0.3788 -0.0199  0.3102
  251MOL0     C33042   5.385   1.117   7.808 -0.0126  0.4715 -0.3263
  251MOL0     C33043   5.322   1.124   7.673 -0.2175  0.6020  0.0916
  251MOL0    Cl33044   5.316   1.291   7.587  0.7117  0.2208 -0.2792
  251MOL0     C33045   5.699   1.616   8.382 -0.6384  0.1545 -0.0357
  251MOL0     C33046   5.828   1.649   8.430  1.0296 -0.8434  0.7276
  251MOL0     O33047   5.888   1.940   8.599  0.3254  0.6463  0.4623
  251MOL0     C33048   6.160   1.841   8.787  0.9486 -0.4080 -0.1168
  251MOL0     C33049   6.284   1.883   8.834 -0.7994 -0.3074  1.0231
  251MOL0     N33050   6.974   2.289   8.619  0.6064  0.6753 -0.4350
  251MOL0     N33051   7.038   2.191   8.571  0.5925  0.7182  0.3358
  251MOL0     C33052   6.814   2.703   8.504 -0.9485  1.3255  0.3051
  251MOL0     C33053   6.681   2.688   8.494  0.2532  0.1873 -0.1781
  251MOL0     C33054   6.256   2.584   8.556 -0.2472  0.6218 -0.5724
  251MOL0     C33055   6.173   2.469   8.582 -0.4390 -1.2836 -1.2209
  251MOL0     C33056   6.045   2.452   8.539 -0.0951  0.6239  0.1919
  251MOL0     C33057   5.995   2.538   8.439 -0.0337  0.5680  1.2641
  251MOL0     O33058   5.870   2.532   8.379 -0.2863  0.1146 -0.1904
  251MOL0     C33059   5.821   2.397   8.357 -0.6105  0.2596  0.8951
  251MOL0     C33060   5.678   2.417   8.339 -0.2630  0.1332  0.3614
  251MOL0     C33061   5.635   2.457   8.197 -0.6063  0.4603 -0.1098
  251MOL0     C33062   5.668   2.348   8.085 -0.0710 -0.5138 -0.8628
  251MOL0     C33063   5.606   2.384   7.950 -0.1598  0.0869 -0.2999
  251MOL0     C33064   5.551   2.396   7.845  0.2081 -0.0824  0.0665
  251MOL0     C33065   6.075   2.653   8.414  0.1266  0.1374  0.8164
  251MOL0     C33066   6.203   2.671   8.461  0.4041  0.2176  0.2948
  251MOL0     H33067   6.616   2.692   8.829 -0.6002  1.7027 -0.0357
  251MOL0     H33068   6.843   2.693   8.843 -2.0644  0.7305  1.7439
  251MOL0     H33069   7.163   2.734   8.498  2.4618 -2.4463  0.0383
  251MOL0     H33070   7.048   2.601   8.500  0.4816 -0.6760 -1.1179
  251MOL0     H33071   7.146   2.536   8.717  0.0349  0.6720  0.3434
  251MOL0     H33072   7.263   2.667   8.717  0.0161 -0.6382  0.4026
  251MOL0     H33073   7.361   2.576   8.488 -0.3747 -0.0269  0.1827
  251MOL0     H33074   7.253   2.434   8.509  0.6183 -0.8739  0.2380
  251MOL0     H33075   7.511   2.432   8.605  0.0015 -0.7180  1.2742
  251MOL0     H33076   7.450   2.530   8.727  2.6552  0.7195 -0.8292
  251MOL0     H33077   7.245   2.337   8.749 -0.9890 -3.7413 -0.9761
  251MOL0     H33078   7.413   2.332   8.819  0.3689  2.0984 -0.3277
  251MOL0     H33079   7.477   2.184   8.628 -0.1830  0.4982  1.4077
  251MOL0     H33080   7.322   2.214   8.548 -1.2269  3.8596  0.5878
  251MOL0     H33081   7.394   2.007   8.720  0.0732 -0.1459  0.7347
  251MOL0     H33082   7.298   2.111   8.823 -1.4999  2.4156 -0.9094
  251MOL0     H33083   7.173   1.927   8.713  0.4136  0.5059 -0.2317
  251MOL0     H33084   7.199   1.990   8.558 -0.1984 -3.9821  0.1042
  251MOL0     H33085   7.040   2.142   8.898 -0.0476  2.0277 -0.5237
  251MOL0     H33086   6.870   2.450   8.817 -2.7733  0.9635  0.3270
  251MOL0     H33087   6.885   2.340   8.950 -2.6838  2.7614  1.3628
  251MOL0     H33088   6.686   2.339   8.707  2.0060  1.6809 -0.8655
  251MOL0     H33089   6.646   2.391   8.868  1.1654 -0.3537 -0.1001
  251MOL0     H33090   6.726   2.102   8.800 -0.1472  1.1263 -1.9969
  251MOL0     H33091   6.664   2.175   8.950  0.4055  1.2083  0.2986
  251MOL0     H33092   6.550   2.128   8.678  1.9928 -2.0512  1.2053
  251MOL0     H33093   6.471   2.259   8.782 -2.3542 -0.7842  1.6145
  251MOL0     H33094   6.313   2.173   8.664  1.2817 -2.5068 -3.3790
  251MOL0     H33095   6.100   2.097   8.568 -2.7561  1.6319  1.1929
  251MOL0     H33096   5.737   1.651   8.758  1.5447  0.0878  0.4225
  251MOL0     H33097   5.526   1.566   8.664  0.5468  1.7864  1.7550
  251MOL0     H33098   5.301   1.561   8.498 -2.9993 -1.9872 -1.0971
  251MOL0     H33099   5.406   1.411   8.537  1.1782 -0.0076  0.9187
  251MOL0     H33100   5.255   1.491   8.275 -0.8048 -0.6233 -1.1331
  251MOL0     H33101   5.194   1.381   8.401  1.0407  0.6108  0.9994
  251MOL0     H33102   5.357   1.204   8.353 -2.8995 -1.5513 -1.5910
  251MOL0     H33103   5.447   1.324   8.250  1.4379 -0.8655  2.1611
  251MOL0     H33104   5.169   1.204   8.223  1.4894 -1.7223  0.8936
  251MOL0     H33105   5.214   1.341   8.131 -0.0567  1.1947  1.3220
  251MOL0     H33106   5.294   1.054   8.091  2.0176 -1.2980  0.7891
  251MOL0     H33107   5.432   1.162   8.077 -0.2964  1.4446 -0.1923
  251MOL0     H33108   5.284   1.289   7.908 -0.6256 -0.1257 -0.5014
  251MOL0     H33109   5.191   1.140   7.893  1.3590 -1.6642 -1.3211
  251MOL0     H33110   5.483   1.166   7.818  1.0166 -1.4600 -0.3673
  251MOL0     H33111   5.398   1.013   7.838  1.0118  0.3532 -1.1014
  251MOL0     H33112   5.220   1.087   7.687  0.2312 -0.4373  0.6993
  251MOL0     H33113   5.370   1.046   7.613  0.5392 -0.7800  2.4018
  251MOL0     H33114   5.684   1.601   8.276 -0.9836 -0.8937  0.1528
  251MOL0     H33115   5.908   1.669   8.359 -1.5879 -0.1777 -2.2870
  251MOL0     H33116   6.120   1.746   8.821  0.3963 -0.6735 -1.4618
  251MOL0     H33117   6.342   1.828   8.908  1.8542  0.8216 -0.0694
  251MOL0     H33118   6.866   2.702   8.409  0.5651  2.4203  1.0906
  251MOL0     H33119   6.633   2.673   8.397  2.7431 -3.2033 -1.0422
  251MOL0     H33120   6.225   2.398   8.645  0.4480 -0.0370 -0.5048
  251MOL0     H33121   5.996   2.359   8.567  2.2307 -0.5664  0.5699
  251MOL0     H33122   5.830   2.328   8.441 -0.9600  0.0274  0.7464
  251MOL0     H33123   5.864   2.350   8.267  2.9283 -2.1357  3.5688
  251MOL0     H33124   5.633   2.322   8.369  2.3163 -0.4073  2.8767
  251MOL0     H33125   5.643   2.496   8.406  1.2764 -0.6463  2.1767
  251MOL0     H33126   5.688   2.550   8.176  2.6492 -0.6510  2.2573
  251MOL0     H33127   5.528   2.478   8.189 -0.1330  2.9499 -0.6826
  251MOL0     H33128   5.775   2.328   8.070 -0.4405 -1.9459 -1.8857
  251MOL0     H33129   5.616   2.257   8.117 -1.0368  0.4236  0.3309
  251MOL0     H33130   5.492   2.401   7.755  0.2231 -3.1560 -0.1973
  251MOL0     H33131   6.030   2.733   8.355 -0.0160  0.6777  1.6371
  251MOL0     H33132   6.259   2.758   8.429  2.3601 -0.2669  2.1519
  252MOL0     O33133   9.209   6.548  10.805  0.0652 -0.1374  0.2873
  252MOL0     C33134   9.188   6.660  10.775 -0.1082 -0.1493 -0.1512
  252MOL0     O33135   9.288   6.747  10.740 -0.5555  0.3811  0.4398
  252MOL0     C33136   9.413   6.705  10.688  0.2509 -0.0530  0.4036
  252MOL0     C33137   9.517   6.798  10.710  0.3254  0.4215  0.2191
  252MOL0     C33138   9.641   6.765  10.659  0.0414 -0.6491  0.2549
  252MOL0     C33139   9.661   6.652  10.584  0.3804 -0.4197 -0.0123
  252MOL0     O33140   9.788   6.627  10.536 -0.5589  0.2684 -1.0467
  252MOL0     C33141   9.810   6.516  10.457  0.2577 -0.6230 -0.4383
  252MOL0     C33142   9.952   6.515  10.387 -0.5149  0.4732 -0.2123
  252MOL0     C33143   9.964   6.628  10.287  0.2360 -1.2514  1.2328
  252MOL0     C33144   9.899   6.600  10.149  0.1639 -0.8470 -0.3925
  252MOL0     C33145   9.864   6.728  10.060  0.6406 -0.2808 -1.0214
  252MOL0     C33146   9.978   6.829  10.033 -0.8665  0.3184  0.1437
  252MOL0     C33147  10.095   6.758   9.963  0.4473 -0.2066  0.4807
  252MOL0     C33148  10.216   6.847   9.940 -0.5412 -0.0900  0.2328
  252MOL0     N33149  10.301   6.890  10.055 -0.4500  0.1002  0.8536
  252MOL0     C33150  10.392   6.810  10.128 -0.0640  0.3056  0.6840
  252MOL0     C33151  10.467   6.890  10.205  1.2203 -0.2875 -0.2052
  252MOL0     C33152  10.565   6.858  10.317  0.3269 -0.2362  0.3835
  252MOL0     C33153  10.654   6.974  10.356  0.0770 -0.0923  0.0679
  252MOL0     C33154  10.750   7.030  10.245 -0.1431  0.5826  0.6207
  252MOL0     C33155  10.854   7.122  10.309  0.4251 -0.4363  0.2427
  252MOL0     O33156  10.952   7.038  10.369 -0.5989  0.1586  0.4866
  252MOL0     C33157  11.074   7.097  10.408 -0.2119  1.2304 -0.5495
  252MOL0     C33158  11.177   7.008  10.432  0.3400 -0.1153  0.3973
  252MOL0     C33159  11.309   7.055  10.469  0.1814  0.4704 -0.2824
  252MOL0     C33160  11.330   7.189  10.481 -0.7254 -0.2012  0.2776
  252MOL0     C33161  11.460   7.232  10.541  0.2584 -0.3321 -0.2578
  252MOL0     O33162  11.562   7.143  10.536  0.3573 -0.4431 -0.3562
  252MOL0     C33163  11.685   7.193  10.557 -0.3902 -0.6289 -0.4885
  252MOL0     C33164  11.791   7.170  10.458 -0.0775  0.6308 -0.2361
  252MOL0     C33165  11.924   7.208  10.489 -0.1580 -0.2982 -0.5499
  252MOL0     C33166  11.948   7.259  10.614 -0.3869  0.3441  0.2617
  252MOL0     O33167  12.078   7.296  10.645 -0.1045 -0.1525  0.5176
  252MOL0     C33168  12.145   7.240  10.768  0.7075  0.0341  0.2746
  252MOL0     C33169  12.274   7.165  10.743  0.8210 -0.5972  0.1969
  252MOL0     C33170  12.393   7.260  10.712  0.3668  0.0536 -0.6350
  252MOL0     C33171  12.523   7.175  10.698  0.2703 -0.0900  0.1034
  252MOL0     C33172  12.642   7.273  10.685 -0.6054 -0.0892  0.2853
  252MOL0     C33173  12.773   7.217  10.605 -0.3824  0.6676 -0.8101
  252MOL0     C33174  12.849   7.128  10.704 -0.9302 -0.1574  0.3079
  252MOL0     C33175  12.945   7.208  10.799 -0.1242  0.3813  0.9218
  252MOL0    Cl33176  13.093   7.255  10.713  0.2997  0.2229 -0.2083
  252MOL0     C33177  11.849   7.292  10.709 -0.1773  0.5080 -0.1419
  252MOL0     C33178  11.719   7.258  10.678  0.2555  0.1052 -0.0888
  252MOL0     O33179  11.470   7.349  10.584 -0.2265 -0.1037 -0.3392
  252MOL0     C33180  11.232   7.278  10.447  0.0557  1.1180  0.4368
  252MOL0     C33181  11.107   7.235  10.407  0.6404 -0.0998 -0.8949
  252MOL0     N33182  10.429   7.022  10.164  0.0332 -0.2536 -0.3249
  252MOL0     N33183  10.329   7.024  10.079  0.1836 -0.0031 -0.1366
  252MOL0     C33184   9.562   6.555  10.565 -0.2904  0.2174  0.0956
  252MOL0     C33185   9.432   6.580  10.624 -0.3079 -0.1208  0.3609
  252MOL0     C33186   9.057   6.713  10.775  0.5888 -0.3476  1.0690
  252MOL0     C33187   8.945   6.638  10.813  0.6858 -0.0463  0.0708
  252MOL0     C33188   8.813   6.694  10.810 -0.2217  0.4562  0.3938
  252MOL0     C33189   8.790   6.833  10.792 -0.5021 -0.0003  0.1155
  252MOL0     O33190   8.669   6.892  10.818  0.3637 -0.0717  0.3442
  252MOL0     C33191   8.560   6.842  10.748 -0.9950 -0.1379  0.3524
  252MOL0     C33192   8.460   6.958  10.745  0.3315  0.1136  0.3398
  252MOL0     C33193   8.323   6.906  10.698  0.9068  0.1247 -0.0253
  252MOL0     C33194   8.230   7.022  10.680 -0.9407 -0.2798  0.9320
  252MOL0     C33195   8.093   6.986  10.650  0.5472  0.6289 -0.5967
  252MOL0     C33196   7.977   6.976  10.612  0.7334 -0.4563 -0.3641
  252MOL0     C33197   8.896   6.916  10.747 -0.4099 -0.3994 -0.0898
  252MOL0     C33198   9.028   6.853  10.734  0.5174  0.2003 -0.0254
  252MOL0     H33199   9.486   6.893  10.751 -0.4785  1.8136 -3.2662
  252MOL0     H33200   9.734   6.819  10.675  2.1858 -3.8926 -0.1744
  252MOL0     H33201   9.735   6.521  10.377  0.0456  0.5941 -0.1752
  252MOL0     H33202   9.802   6.423  10.514  0.0657 -0.4769 -0.2283
  252MOL0     H33203   9.972   6.417  10.344  2.0608  0.9145 -0.1553
  252MOL0     H33204  10.019   6.518  10.473  1.5836  0.9227 -1.7809
  252MOL0     H33205  10.070   6.642  10.268  0.0878  0.1347  1.3325
  252MOL0     H33206   9.923   6.720  10.330  1.8948  2.1990 -3.7097
  252MOL0     H33207   9.967   6.538  10.090  0.4252 -0.2685 -0.7137
  252MOL0     H33208   9.805   6.544  10.160 -0.5222  0.6141  2.0603
  252MOL0     H33209   9.781   6.775  10.113 -0.6841 -1.4797 -1.9338
  252MOL0     H33210   9.827   6.703   9.960  0.3305  0.7394 -1.1686
  252MOL0     H33211  10.027   6.877  10.119  0.8905  0.4421 -0.8660
  252MOL0     H33212   9.944   6.915   9.975 -0.7616  1.2920  1.4667
  252MOL0     H33213  10.132   6.677  10.027  0.5339 -0.0062  0.6815
  252MOL0     H33214  10.061   6.721   9.865 -4.1779 -0.1177  1.8097
  252MOL0     H33215  10.172   6.936   9.894  0.2896  0.7760  1.0533
  252MOL0     H33216  10.285   6.806   9.866  0.2077  2.0459 -0.3396
  252MOL0     H33217  10.382   6.702  10.142  0.6074  0.2169  0.4798
  252MOL0     H33218  10.630   6.774  10.288  1.1672  0.3802  0.4452
  252MOL0     H33219  10.512   6.816  10.403 -1.8871  0.2365 -0.6775
  252MOL0     H33220  10.716   6.963  10.446  0.7704  4.0013  0.2865
  252MOL0     H33221  10.569   7.040  10.377  0.2448  0.3167 -0.5069
  252MOL0     H33222  10.792   6.947  10.188  0.1370  0.4420  1.0236
  252MOL0     H33223  10.707   7.102  10.174  3.3038  3.6567  1.3024
  252MOL0     H33224  10.803   7.190  10.377 -0.6750  0.4142 -1.3508
  252MOL0     H33225  10.892   7.188  10.230 -0.1930 -1.5860 -1.0540
  252MOL0     H33226  11.143   6.904  10.432 -1.2381  0.1509 -4.1692
  252MOL0     H33227  11.390   6.985  10.487  0.2544  0.7416  0.5235
  252MOL0     H33228  11.766   7.122  10.364  1.5071 -2.3014  0.7072
  252MOL0     H33229  12.000   7.187  10.414  0.2547 -1.2473  0.1111
  252MOL0     H33230  12.073   7.176  10.819 -2.2910  3.1819  0.3903
  252MOL0     H33231  12.155   7.314  10.848 -2.7356 -1.1770  2.0353
  252MOL0     H33232  12.256   7.096  10.660 -0.9398  2.4373 -2.1558
  252MOL0     H33233  12.299   7.113  10.836 -1.4845  0.4974  1.5195
  252MOL0     H33234  12.404   7.331  10.794  3.3053 -1.9378  0.8881
  252MOL0     H33235  12.377   7.322  10.624 -0.3257  2.3088  0.9873
  252MOL0     H33236  12.535   7.114  10.788 -0.6981  0.2138  0.4497
  252MOL0     H33237  12.516   7.117  10.605  2.8400  2.1271 -1.6205
  252MOL0     H33238  12.660   7.317  10.784  0.4258  0.7757 -0.2555
  252MOL0     H33239  12.613   7.367  10.636  2.5639  1.8823  1.8608
  252MOL0     H33240  12.843   7.290  10.565  1.4822 -0.7157 -0.2077
  252MOL0     H33241  12.744   7.158  10.518  0.9227  0.0054 -0.8178
  252MOL0     H33242  12.778   7.070  10.764  1.3779 -3.3007  0.2409
  252MOL0     H33243  12.911   7.066  10.639 -2.7569 -1.1513 -0.5634
  252MOL0     H33244  12.967   7.139  10.881 -1.2254  2.2385  2.8696
  252MOL0     H33245  12.892   7.296  10.837 -0.8781  2.1023 -3.5507
  252MOL0     H33246  11.877   7.335  10.804 -0.2328 -0.4653  0.3309
  252MOL0     H33247  11.632   7.280  10.739  1.0009  3.0432  0.0888
  252MOL0     H33248  11.241   7.385  10.460  3.8792  0.9366  0.4035
  252MOL0     H33249  11.032   7.303  10.369 -0.3400 -0.5654  0.1461
  252MOL0     H33250   9.571   6.465  10.506 -1.1562  1.0526 -1.3647
  252MOL0     H33251   9.353   6.509  10.603  0.3871 -0.8721  0.2071
  252MOL0     H33252   8.962   6.534  10.838 -0.5486 -0.3964 -0.5021
  252MOL0     H33253   8.738   6.619  10.833 -3.0939  2.1801 -2.5338
  252MOL0     H33254   8.515   6.758  10.803  0.5155 -0.2509  1.4752
  252MOL0     H33255   8.587   6.812  10.646 -0.3019  0.4530  0.3585
  252MOL0     H33256   8.450   7.017  10.836  2.1704 -0.9816  1.3014
  252MOL0     H33257   8.502   7.028  10.672  1.3347 -1.8927 -1.1052
  252MOL0     H33258   8.284   6.835  10.772 -0.4162  0.2323 -0.5860
  252MOL0     H33259   8.338   6.847  10.607  0.0043 -3.0699  1.7171
  252MOL0     H33260   8.210   7.081  10.769 -0.9069 -0.3505  0.9866
  252MOL0     H33261   8.276   7.078  10.597  2.7309 -4.4807 -0.2707
  252MOL0     H33262   7.880   6.962  10.569  0.8646  1.9627 -1.6592
  252MOL0     H33263   8.883   7.021  10.726  0.1591 -0.1582  0.6919
  252MOL0     H33264   9.108   6.911  10.688 -1.5941  1.7787 -1.9472
  253MOL0     O33265   0.430   9.843   8.329  0.1245  0.6344  0.3489
  253MOL0     C33266   0.505   9.837   8.241  0.0698 -0.7899  0.0172
  253MOL0     O33267   0.483   9.761   8.123 -0.1305  0.0825  0.1125
  253MOL0     C33268   0.363   9.699   8.108 -0.3287  0.1181  0.8573
  253MOL0     C33269   0.231   9.752   8.131  0.3545 -0.1563 -0.1867
  253MOL0     C33270   0.116   9.677   8.097 -0.0329  0.9386 -0.2485
  253MOL0     C33271   0.128   9.553   8.033 -0.5111  0.0312  0.1390
  253MOL0     O33272   0.003   9.495   8.006 -0.5472 -0.3830 -0.1477
  253MOL0     C33273  -0.006   9.369   7.935 -0.0596  0.3678  0.3828
  253MOL0     C33274  -0.148   9.344   7.924  0.5980 -0.2935 -0.5407
  253MOL0     C33275  -0.173   9.210   7.865  1.0411  0.3747 -0.6749
  253MOL0     C33276  -0.302   9.227   7.790 -0.3121  0.2337  0.0455
  253MOL0     C33277  -0.329   9.093   7.719  0.3934  0.0446 -0.6650
  253MOL0     C33278  -0.474   9.097   7.674  0.7540  0.3850  0.1833
  253MOL0     C33279  -0.513   8.962   7.609 -0.1727  1.1505  0.1912
  253MOL0     C33280  -0.559   8.865   7.720  0.1045 -0.6700  1.1817
  253MOL0     N33281  -0.622   8.752   7.655  0.5717 -0.2449  0.3318
  253MOL0     C33282  -0.557   8.660   7.584  0.1221 -0.7660  0.8521
  253MOL0     C33283  -0.637   8.556   7.565 -0.4781 -0.4134  0.4762
  253MOL0     C33284  -0.594   8.432   7.497  0.9305  0.5457  0.5431
  253MOL0     C33285  -0.663   8.422   7.358 -0.1134  0.0932 -0.2396
  253MOL0     C33286  -0.811   8.369   7.344 -0.2660 -0.8392 -0.4067
  253MOL0     C33287  -0.850   8.258   7.440 -0.4072 -0.1790  0.8495
  253MOL0     O33288  -0.991   8.216   7.432  0.0919 -0.3119 -0.4458
  253MOL0     C33289  -1.020   8.107   7.362  0.8973 -0.8638  0.5183
  253MOL0     C33290  -0.939   8.025   7.276  0.0285  0.2874 -0.6652
  253MOL0     C33291  -0.995   7.922   7.189  0.0366 -0.2977  0.6901
  253MOL0     C33292  -1.135   7.903   7.192  0.7430  0.7757  0.2326
  253MOL0     C33293  -1.196   7.800   7.103 -0.5241  0.2714 -0.0515
  253MOL0     O33294  -1.330   7.804   7.091 -0.1628 -0.2301 -0.6622
  253MOL0     C33295  -1.388   7.747   6.975  0.0055  0.4980  0.3083
  253MOL0     C33296  -1.323   7.718   6.855  0.0796  1.4013 -0.7598
  253MOL0     C33297  -1.384   7.657   6.748  0.6280 -1.1013  0.8509
  253MOL0     C33298  -1.523   7.632   6.756  0.5035 -0.8939  0.1813
  253MOL0     O33299  -1.578   7.561   6.645 -0.1536  0.5999  0.1833
  253MOL0     C33300  -1.639   7.636   6.541  0.5907  0.5646  0.3793
  253MOL0     C33301  -1.790   7.654   6.554 -0.3247  1.2335  0.0603
  253MOL0     C33302  -1.876   7.533   6.522  0.2435 -0.2042  0.7478
  253MOL0     C33303  -2.015   7.562   6.490 -0.3483 -0.3813  0.5884
  253MOL0     C33304  -2.094   7.435   6.437 -0.1553 -0.6520  0.2312
  253MOL0     C33305  -2.244   7.461   6.396  0.6716 -0.3463  0.2224
  253MOL0     C33306  -2.345   7.443   6.516 -0.5924 -0.6414 -0.1311
  253MOL0     C33307  -2.485   7.412   6.471 -0.1745  0.0844  0.5050
  253MOL0    Cl33308  -2.557   7.567   6.411  0.4509  0.1872  0.1727
  253MOL0     C33309  -1.586   7.653   6.874  1.1211  0.9470  0.0482
  253MOL0     C33310  -1.526   7.722   6.985 -0.2258  0.4392 -0.0975
  253MOL0     O33311  -1.123   7.710   7.064  0.5998  0.1387  0.5589
  253MOL0     C33312  -1.212   7.996   7.273  0.0469  0.7975  1.8642
  253MOL0     C33313  -1.154   8.091   7.358  0.6816 -0.4496  1.5784
  253MOL0     N33314  -0.755   8.584   7.628 -0.3967 -0.0503 -0.2139
  253MOL0     N33315  -0.745   8.706   7.688 -0.0953  0.5503 -0.7492
  253MOL0     C33316   0.255   9.503   8.010 -0.1604  0.3394 -0.4965
  253MOL0     C33317   0.370   9.572   8.047 -0.4808 -0.1323 -0.1806
  253MOL0     C33318   0.640   9.901   8.262  0.5352  0.1443  0.6595
  253MOL0     C33319   0.665   9.984   8.375  0.4917  0.7488 -0.1830
  253MOL0     C33320   0.778  10.059   8.391  0.6409 -0.3772  0.4377
  253MOL0     C33321   0.882  10.050   8.306 -0.6622  0.2785  0.7913
  253MOL0     O33322   0.990  10.129   8.336  0.4926 -0.1251 -0.3314
  253MOL0     C33323   1.056  10.102   8.459  0.2933 -0.4876 -0.2569
  253MOL0     C33324   1.203  10.066   8.431 -0.3262  0.5853  0.6699
  253MOL0     C33325   1.233   9.951   8.322 -0.1480 -0.1429  0.1329
  253MOL0     C33326   1.171   9.809   8.360  0.6466  0.3833 -0.3939
  253MOL0     C33327   1.224   9.752   8.482  0.1870  0.1605  0.1593
  253MOL0     C33328   1.246   9.694   8.581 -0.2829  0.0149  0.2106
  253MOL0     C33329   0.870   9.965   8.198 -0.2922 -0.0090 -0.5983
  253MOL0     C33330   0.754   9.899   8.172  0.6765  0.3174  0.0814
  253MOL0     H33331   0.213   9.849   8.175  0.4767  0.0641 -0.6212
  253MOL0     H33332   0.017   9.720   8.110  0.6013  2.6861 -0.9211
  253MOL0     H33333   0.056   9.293   7.983  3.2297  0.8858 -2.6428
  253MOL0     H33334   0.018   9.385   7.830  3.1892  0.6884  1.0699
  253MOL0     H33335  -0.192   9.421   7.860 -1.8419 -2.2424 -1.3877
  253MOL0     H33336  -0.203   9.336   8.018  0.2712 -2.0536 -0.8389
  253MOL0     H33337  -0.173   9.130   7.939 -0.0899 -0.8253 -1.9239
  253MOL0     H33338  -0.098   9.182   7.790  2.5158 -1.5348  1.3685
  253MOL0     H33339  -0.392   9.250   7.849 -1.3522  0.1095 -1.4203
  253MOL0     H33340  -0.280   9.306   7.718  2.2095 -0.5567 -0.1404
  253MOL0     H33341  -0.308   9.014   7.792 -1.0999 -1.0742 -1.4035
  253MOL0     H33342  -0.259   9.087   7.635  0.4992  0.4423 -0.6082
  253MOL0     H33343  -0.494   9.175   7.600  0.4196  0.8233  0.7210
  253MOL0     H33344  -0.539   9.130   7.756  2.5389  3.0562  0.6446
  253MOL0     H33345  -0.589   8.980   7.532  0.4571  1.6393 -0.3185
  253MOL0     H33346  -0.435   8.913   7.551 -2.0595  0.2070 -1.6658
  253MOL0     H33347  -0.636   8.921   7.774  1.1563  2.4779 -0.2948
  253MOL0     H33348  -0.475   8.840   7.786 -0.3318 -3.6542  0.7479
  253MOL0     H33349  -0.455   8.671   7.548 -0.4145 -1.6308 -1.0531
  253MOL0     H33350  -0.628   8.345   7.555 -2.6796  0.2319 -1.6880
  253MOL0     H33351  -0.486   8.428   7.480  0.6036 -2.5174 -1.7260
  253MOL0     H33352  -0.608   8.345   7.303 -0.4125 -0.3438  0.0654
  253MOL0     H33353  -0.639   8.515   7.305  1.1629  0.6920  1.2809
  253MOL0     H33354  -0.877   8.449   7.378  0.5567 -0.4136  0.2191
  253MOL0     H33355  -0.816   8.342   7.238 -1.0884  0.5317 -0.7388
  253MOL0     H33356  -0.825   8.298   7.539  1.5488  2.2805 -0.5483
  253MOL0     H33357  -0.781   8.174   7.428  0.8477  0.7527  1.3145
  253MOL0     H33358  -0.832   8.040   7.266  0.5216 -1.7913  0.9249
  253MOL0     H33359  -0.933   7.865   7.121  0.4217 -1.9462  2.3548
  253MOL0     H33360  -1.216   7.736   6.851  0.5972 -0.9349  0.4919
  253MOL0     H33361  -1.337   7.629   6.654 -3.5831 -0.1020 -1.8054
  253MOL0     H33362  -1.626   7.577   6.450 -4.4960  0.7273 -0.7748
  253MOL0     H33363  -1.594   7.734   6.526  1.5116  0.1103  0.1153
  253MOL0     H33364  -1.818   7.737   6.489  3.6291  0.7666 -2.5135
  253MOL0     H33365  -1.805   7.678   6.660  2.1372 -2.6798  1.5015
  253MOL0     H33366  -1.885   7.469   6.611 -0.1778  1.1223  1.6792
  253MOL0     H33367  -1.839   7.467   6.442  0.3359  0.2022  0.4502
  253MOL0     H33368  -2.057   7.620   6.572  1.3814  1.9357 -0.0616
  253MOL0     H33369  -2.007   7.638   6.411  4.0035 -0.7358  0.4840
  253MOL0     H33370  -2.088   7.368   6.523 -0.4533  0.7729  1.4112
  253MOL0     H33371  -2.036   7.390   6.356  0.5580  2.0411 -0.8831
  253MOL0     H33372  -2.269   7.387   6.318 -0.4541  0.5181 -0.2657
  253MOL0     H33373  -2.259   7.561   6.354 -0.1532 -0.6931 -0.3605
  253MOL0     H33374  -2.321   7.347   6.563  0.3377  0.4190  1.7124
  253MOL0     H33375  -2.338   7.520   6.594  0.4720 -1.5603  0.7217
  253MOL0     H33376  -2.544   7.382   6.559  0.8670 -3.4577  0.1638
  253MOL0     H33377  -2.481   7.334   6.394  0.3767 -0.2759  0.8911
  253MOL0     H33378  -1.693   7.638   6.872  0.9423  2.1773 -0.1385
  253MOL0     H33379  -1.588   7.742   7.072 -0.8642  1.0282 -0.6813
  253MOL0     H33380  -1.321   7.990   7.274 -0.0634  1.9052  0.6069
  253MOL0     H33381  -1.217   8.149   7.426  0.5515  1.4959 -0.1031
  253MOL0     H33382   0.273   9.406   7.964  3.2069  0.4708  0.2519
  253MOL0     H33383   0.467   9.528   8.024 -1.0816 -1.3011 -0.5875
  253MOL0     H33384   0.592   9.995   8.455 -0.4374 -0.1542 -0.8700
  253MOL0     H33385   0.768  10.112   8.485 -4.2976 -1.2690  0.6704
  253MOL0     H33386   1.008  10.027   8.523  1.2737  1.7343  3.3643
  253MOL0     H33387   1.056  10.195   8.516  0.1013  0.3108 -1.5101
  253MOL0     H33388   1.258  10.158   8.411 -1.4567  0.8681 -1.3997
  253MOL0     H33389   1.248  10.033   8.526  0.8902 -0.2996 -0.1805
  253MOL0     H33390   1.341   9.951   8.311 -0.3146 -1.3262 -2.0060
  253MOL0     H33391   1.200   9.980   8.222  4.5585 -0.6581 -1.8225
  253MOL0     H33392   1.063   9.814   8.371  0.5970  0.5002 -0.9372
  253MOL0     H33393   1.198   9.740   8.280  1.3583 -0.7589  0.7765
  253MOL0     H33394   1.263   9.638   8.671 -2.8693 -0.2957  0.5782
  253MOL0     H33395   0.963   9.950   8.144 -0.7478 -0.7043 -1.1958
  253MOL0     H33396   0.749   9.836   8.084 -1.7451 -0.5300  0.7513
  254MOL0     O33397   1.890   4.567   3.502  0.5905 -0.5027 -0.4655
  254MOL0     C33398   1.907   4.496   3.405 -1.1289  0.1816  0.1170
  254MOL0     O33399   1.806   4.445   3.330 -0.0535  0.3796 -0.9921
  254MOL0     C33400   1.682   4.447   3.388  0.4082 -0.3570 -0.8058
  254MOL0     C33401   1.608   4.561   3.377 -0.0674 -1.2578 -0.2064
  254MOL0     C33402   1.484   4.574   3.444  0.5590 -0.6193 -0.2140
  254MOL0     C33403   1.424   4.459   3.508 -0.0070  0.0201 -1.0938
  254MOL0     O33404   1.296   4.444   3.561  0.4500  0.2993 -0.7050
  254MOL0     C33405   1.212   4.556   3.545  0.9540  0.3455  0.0891
  254MOL0     C33406   1.094   4.521   3.635 -0.7060  0.2224 -1.4251
  254MOL0     C33407   0.979   4.612   3.613 -0.0562 -0.6061 -0.3444
  254MOL0     C33408   0.865   4.576   3.719 -0.0278 -0.0502 -0.3268
  254MOL0     C33409   0.730   4.655   3.704 -0.2861 -0.8572  0.3448
  254MOL0     C33410   0.767   4.806   3.718  0.2978 -0.7253  0.4929
  254MOL0     C33411   0.638   4.891   3.751  0.3563  0.2645  0.4478
  254MOL0     C33412   0.662   5.003   3.858  0.2006 -0.0906 -0.4422
  254MOL0     N33413   0.756   5.102   3.804 -0.0233  0.7760 -0.5313
  254MOL0     C33414   0.889   5.102   3.838  0.0390 -0.1947 -0.6308
  254MOL0     C33415   0.933   5.215   3.778 -0.0305  0.9931  0.2576
  254MOL0     C33416   1.085   5.255   3.774 -0.9822 -0.2706 -0.6257
  254MOL0     C33417   1.153   5.196   3.652 -0.3848 -0.1800  0.4493
  254MOL0     C33418   1.166   5.044   3.640  0.6977  0.2017  0.2321
  254MOL0     C33419   1.246   4.990   3.518 -0.4773  0.4401  0.5285
  254MOL0     O33420   1.385   4.997   3.554  0.3140  0.0841  0.2194
  254MOL0     C33421   1.473   4.962   3.458 -0.2998  0.4348  1.0608
  254MOL0     C33422   1.439   4.959   3.321 -0.5786  0.4836  0.9437
  254MOL0     C33423   1.540   4.947   3.226  0.0729  0.4474 -0.4658
  254MOL0     C33424   1.675   4.927   3.258  1.0994  0.5493 -0.1171
  254MOL0     C33425   1.778   4.891   3.159  0.3339  0.2482 -0.1589
  254MOL0     O33426   1.902   4.867   3.210 -0.2744  0.4126 -0.6901
  254MOL0     C33427   2.000   4.824   3.122 -0.6215 -0.0429  0.5860
  254MOL0     C33428   1.986   4.696   3.058  0.7837 -0.1290 -0.9291
  254MOL0     C33429   2.076   4.650   2.967 -0.3441  0.1080 -0.4552
  254MOL0     C33430   2.191   4.716   2.943  0.1088  0.4840 -1.8783
  254MOL0     O33431   2.283   4.670   2.861 -0.5734  0.5567 -0.2852
  254MOL0     C33432   2.353   4.543   2.894 -0.0335 -0.6272  0.7266
  254MOL0     C33433   2.480   4.535   2.811  0.3901  1.2610 -0.0774
  254MOL0     C33434   2.558   4.414   2.851  0.3118  1.0364  0.1505
  254MOL0     C33435   2.706   4.421   2.797 -0.0429  0.8150 -0.6812
  254MOL0     C33436   2.773   4.297   2.852 -0.6255  0.5642  0.8419
  254MOL0     C33437   2.915   4.277   2.792  0.4573  0.6629 -0.3845
  254MOL0     C33438   2.987   4.158   2.859  0.8233 -0.1092 -0.6825
  254MOL0     C33439   3.140   4.151   2.846 -0.1511  0.6975 -0.5872
  254MOL0    Cl33440   3.196   4.144   2.683  0.3732  0.0124  0.1455
  254MOL0     C33441   2.219   4.836   3.007 -0.6492  0.2407  0.1829
  254MOL0     C33442   2.122   4.893   3.097  0.8503  0.0153  0.9846
  254MOL0     O33443   1.748   4.878   3.041 -0.1918  0.0782  0.1138
  254MOL0     C33444   1.709   4.930   3.394 -0.0946 -0.4462 -0.1415
  254MOL0     C33445   1.609   4.942   3.493  0.1253  0.4049  0.0953
  254MOL0     N33446   0.832   5.279   3.700 -0.3358  0.2604  0.3007
  254MOL0     N33447   0.722   5.201   3.713  0.2641 -0.5694 -0.4130
  254MOL0     C33448   1.500   4.348   3.514  1.3682  0.2573 -0.3040
  254MOL0     C33449   1.626   4.337   3.466  0.9971 -0.9251  0.5387
  254MOL0     C33450   2.049   4.467   3.355  0.0252  0.1932 -0.0461
  254MOL0     C33451   2.078   4.420   3.226 -0.3013  0.2615  0.4117
  254MOL0     C33452   2.213   4.389   3.194 -0.3352 -0.0233  1.2330
  254MOL0     C33453   2.320   4.422   3.278 -0.9150  0.0993  0.5105
  254MOL0     O33454   2.453   4.403   3.222 -0.2559  0.1274  0.2552
  254MOL0     C33455   2.562   4.429   3.313 -0.5199  0.2178  0.3206
  254MOL0     C33456   2.698   4.394   3.259  0.0998  0.1581  0.1437
  254MOL0     C33457   2.810   4.405   3.365  0.2374  0.3091  0.8226
  254MOL0     C33458   2.925   4.373   3.277  0.0999  0.8853  0.6460
  254MOL0     C33459   3.045   4.420   3.357  0.6497  0.6488  0.2356
  254MOL0     C33460   3.141   4.452   3.426 -0.3803 -0.5084  0.1154
  254MOL0     C33461   2.286   4.471   3.400 -0.1282  0.0061 -0.1688
  254MOL0     C33462   2.158   4.487   3.448  0.8320  0.4836  0.1795
  254MOL0     H33463   1.637   4.654   3.328  1.6870 -0.3687  2.2986
  254MOL0     H33464   1.426   4.665   3.435  1.5202  0.1643  1.1492
  254MOL0     H33465   1.179   4.558   3.441  0.6471 -0.4237  0.1680
  254MOL0     H33466   1.245   4.657   3.571 -0.6355  1.5023 -2.1118
  254MOL0     H33467   1.139   4.530   3.734  0.9089 -1.4593 -1.9613
  254MOL0     H33468   1.062   4.420   3.610 -1.0531  0.3485 -1.5042
  254MOL0     H33469   0.938   4.611   3.512  0.2070  0.0109 -0.4608
  254MOL0     H33470   1.011   4.715   3.628 -0.5752 -0.7556  2.3500
  254MOL0     H33471   0.843   4.470   3.707 -3.0856  0.0623  2.7596
  254MOL0     H33472   0.902   4.582   3.822  0.9754 -1.3980 -0.5766
  254MOL0     H33473   0.658   4.623   3.780 -1.3349 -1.1829 -0.7478
  254MOL0     H33474   0.691   4.625   3.606 -2.7101  0.2754  0.8804
  254MOL0     H33475   0.820   4.844   3.630 -0.1939  0.0799  0.5347
  254MOL0     H33476   0.838   4.818   3.800  1.0946 -0.3794 -0.2350
  254MOL0     H33477   0.601   4.936   3.658  3.7722  1.2687 -0.5934
  254MOL0     H33478   0.565   4.825   3.798 -0.7269  1.2255  0.1717
  254MOL0     H33479   0.700   4.942   3.941 -1.2541  0.3318  0.5729
  254MOL0     H33480   0.567   5.048   3.888  0.6551  0.3884  0.3154
  254MOL0     H33481   0.950   5.036   3.899 -0.0239 -1.4021 -1.8324
  254MOL0     H33482   1.135   5.230   3.868 -3.2015 -1.9392  0.1955
  254MOL0     H33483   1.091   5.364   3.768 -1.3608 -0.2882 -1.4651
  254MOL0     H33484   1.253   5.239   3.665 -0.5878 -0.0479  1.7291
  254MOL0     H33485   1.108   5.235   3.561  1.6863  1.7269  0.1619
  254MOL0     H33486   1.204   4.998   3.731  0.9073 -0.7392 -0.3180
  254MOL0     H33487   1.066   5.001   3.625  0.5751  0.1304  1.1993
  254MOL0     H33488   1.218   5.055   3.434  0.7588 -1.1768 -1.2031
  254MOL0     H33489   1.226   4.885   3.495 -0.1378  0.7164 -1.2151
  254MOL0     H33490   1.342   4.986   3.279  0.0752  0.2442 -0.8330
  254MOL0     H33491   1.526   4.966   3.120  1.3398  0.1081 -0.7214
  254MOL0     H33492   1.903   4.632   3.088 -0.9832  1.0661 -2.9868
  254MOL0     H33493   2.054   4.552   2.927 -1.8343  0.3644 -0.3050
  254MOL0     H33494   2.295   4.451   2.881  0.4986 -0.9311  0.4949
  254MOL0     H33495   2.387   4.551   2.998 -0.6173  0.3826  0.8477
  254MOL0     H33496   2.542   4.624   2.825  1.7073  0.5579 -1.2516
  254MOL0     H33497   2.449   4.537   2.706  2.1731 -2.1548 -0.8299
  254MOL0     H33498   2.513   4.317   2.830 -0.8817  1.2852  1.3752
  254MOL0     H33499   2.561   4.425   2.960 -1.8600 -1.7987  0.6044
  254MOL0     H33500   2.709   4.411   2.689  3.6137  0.8363 -0.7193
  254MOL0     H33501   2.750   4.516   2.829  0.6396  1.9132 -4.4036
  254MOL0     H33502   2.708   4.219   2.813 -1.5949  3.3240 -3.8772
  254MOL0     H33503   2.779   4.282   2.960  1.6343  0.8733  0.8107
  254MOL0     H33504   2.969   4.370   2.812 -0.5259  1.4978 -1.4397
  254MOL0     H33505   2.902   4.262   2.684 -1.2661 -0.9193 -0.0052
  254MOL0     H33506   2.965   4.172   2.966  0.9521  3.6664 -1.0084
  254MOL0     H33507   2.946   4.065   2.820 -0.8149  0.7547 -1.0966
  254MOL0     H33508   3.161   4.058   2.900 -0.3677  0.0729 -1.5547
  254MOL0     H33509   3.186   4.238   2.894 -0.2378  1.4908 -1.8809
  254MOL0     H33510   2.322   4.866   2.994  0.7296 -4.4088 -1.6066
  254MOL0     H33511   2.151   4.987   3.143  1.3444  1.0303 -1.2818
  254MOL0     H33512   1.809   4.903   3.425 -0.2285 -0.1573  0.5739
  254MOL0     H33513   1.631   4.950   3.599 -0.8426  1.1014  0.2524
  254MOL0     H33514   1.449   4.262   3.556  0.7572 -0.4349 -2.3216
  254MOL0     H33515   1.668   4.237   3.468 -0.7306 -1.7294  4.1918
  254MOL0     H33516   1.989   4.414   3.163  1.0341  0.6117 -1.5787
  254MOL0     H33517   2.236   4.354   3.094 -2.2093 -2.0403  1.4439
  254MOL0     H33518   2.565   4.371   3.405  0.5290  2.2185  1.6063
  254MOL0     H33519   2.553   4.529   3.357 -1.6162 -0.3481  1.4361
  254MOL0     H33520   2.691   4.292   3.221  0.1637  0.1436  0.1717
  254MOL0     H33521   2.710   4.454   3.168 -3.6630 -0.7654 -1.1414
  254MOL0     H33522   2.800   4.333   3.446  0.0262 -2.1447 -1.2364
  254MOL0     H33523   2.813   4.504   3.410 -3.1061 -0.4401  3.0862
  254MOL0     H33524   2.930   4.268   3.248 -1.3288  0.8928  0.2997
  254MOL0     H33525   2.920   4.432   3.185  2.7635  0.0503 -0.1352
  254MOL0     H33526   3.226   4.455   3.490  0.7335 -2.1422 -1.2007
  254MOL0     H33527   2.362   4.490   3.475 -0.1669  0.3863 -0.2220
  254MOL0     H33528   2.136   4.526   3.547  2.1198  0.2638  0.5669
  255MOL0     O33529   6.452   2.984  10.827 -0.5138 -0.6225 -0.6149
  255MOL0     C33530   6.545   3.053  10.879  0.5738 -0.0473  0.2738
  255MOL0     O33531   6.533   3.187  10.901 -0.2829  0.4122  0.2733
  255MOL0     C33532   6.417   3.262  10.884 -0.3540 -0.3009  0.0171
  255MOL0     C33533   6.449   3.395  10.859  0.6668 -1.0003 -0.2257
  255MOL0     C33534   6.342   3.486  10.840 -0.0180 -0.0525  0.0336
  255MOL0     C33535   6.211   3.439  10.842 -0.5468  0.8517  0.7821
  255MOL0     O33536   6.112   3.530  10.811 -0.8085  0.4396 -0.3295
  255MOL0     C33537   5.993   3.488  10.747 -0.3712 -0.2332 -0.0912
  255MOL0     C33538   5.929   3.602  10.675  0.0218 -0.3527 -0.1327
  255MOL0     C33539   6.022   3.658  10.568 -0.5397 -0.2859 -0.0906
  255MOL0     C33540   5.961   3.755  10.481 -0.1083  0.2877 -0.4773
  255MOL0     C33541   6.071   3.852  10.419 -0.5241  0.3802  0.4918
  255MOL0     C33542   6.011   3.947  10.317 -0.0699 -0.8998  0.0982
  255MOL0     C33543   5.976   3.871  10.187 -0.1801  0.7584  0.1251
  255MOL0     C33544   5.961   3.978  10.077  0.3892  0.1232  0.2429
  255MOL0     N33545   5.928   3.903   9.951 -0.1799  0.2402  0.3469
  255MOL0     C33546   6.005   3.828   9.871  0.7347 -0.4319  0.0412
  255MOL0     C33547   5.924   3.808   9.759  0.1438 -0.3579 -0.0560
  255MOL0     C33548   5.967   3.737   9.630  0.5855 -0.5081 -0.6966
  255MOL0     C33549   5.915   3.805   9.503 -0.2720  0.6406 -0.6154
  255MOL0     C33550   5.800   3.729   9.451 -0.2612  0.0001 -0.4856
  255MOL0     C33551   5.747   3.768   9.307  0.4180 -0.4849  0.3695
  255MOL0     O33552   5.637   3.683   9.259 -0.1361  0.0414 -0.9292
  255MOL0     C33553   5.593   3.695   9.129 -0.0202 -0.2534 -0.5488
  255MOL0     C33554   5.657   3.777   9.033  0.1436  0.4354  0.0945
  255MOL0     C33555   5.602   3.792   8.908 -0.5300  0.2026 -0.1039
  255MOL0     C33556   5.474   3.731   8.874 -0.7051  0.3367 -0.4863
  255MOL0     C33557   5.406   3.758   8.745  0.3517  0.2917  0.4318
  255MOL0     O33558   5.266   3.747   8.750 -0.8411  0.5516  0.7078
  255MOL0     C33559   5.183   3.796   8.653 -0.0048 -0.5316 -0.2616
  255MOL0     C33560   5.069   3.721   8.614 -0.5688 -0.0945  0.2351
  255MOL0     C33561   4.991   3.767   8.509  0.4701 -0.7611  0.7002
  255MOL0     C33562   5.014   3.892   8.453  0.7793 -0.4869  0.4408
  255MOL0     O33563   4.931   3.942   8.356 -0.1506  0.3049  0.1710
  255MOL0     C33564   4.795   3.957   8.392  0.8332 -0.1643 -0.9714
  255MOL0     C33565   4.692   3.980   8.284  0.1540 -0.8117  0.0764
  255MOL0     C33566   4.548   3.938   8.340 -0.4488  0.3630  0.1780
  255MOL0     C33567   4.444   3.990   8.249 -0.0199  0.9816 -0.4272
  255MOL0     C33568   4.310   3.917   8.281 -0.2342  0.1841  0.0559
  255MOL0     C33569   4.197   3.995   8.208 -0.3416 -0.5507 -0.4459
  255MOL0     C33570   4.060   3.941   8.244  0.0279  0.6878  0.1263
  255MOL0     C33571   3.957   4.040   8.202  0.3420 -0.0847 -0.5363
  255MOL0    Cl33572   3.788   3.978   8.214 -0.2309  0.4207 -0.4577
  255MOL0     C33573   5.117   3.976   8.498 -0.1767 -0.8802  0.6029
  255MOL0     C33574   5.203   3.925   8.597  0.1806 -0.6326  0.4556
  255MOL0     O33575   5.468   3.795   8.649 -0.6905 -0.3118 -0.4290
  255MOL0     C33576   5.404   3.653   8.976 -0.0933  1.0610  0.0747
  255MOL0     C33577   5.472   3.637   9.098 -0.2842  0.2116 -0.4059
  255MOL0     N33578   5.795   3.862   9.786  0.2028  0.1632  0.0247
  255MOL0     N33579   5.801   3.921   9.901  0.0435  0.0357 -0.7519
  255MOL0     C33580   6.179   3.301  10.852 -0.0680  0.6280  0.0925
  255MOL0     C33581   6.286   3.212  10.880  0.7031 -0.1046  0.7708
  255MOL0     C33582   6.667   2.970  10.914  1.4659 -1.0484  0.4063
  255MOL0     C33583   6.657   2.828  10.905  0.2378  0.8820 -0.1200
  255MOL0     C33584   6.762   2.740  10.951 -0.5694 -0.2967 -0.8041
  255MOL0     C33585   6.873   2.808  11.020  0.7968 -0.0134 -0.1690
  255MOL0     O33586   6.966   2.727  11.088 -0.2479  0.1163  0.1382
  255MOL0     C33587   7.050   2.636  11.011  0.7652 -0.0719 -0.3430
  255MOL0     C33588   7.159   2.737  10.952 -1.0969  0.1172 -0.7464
  255MOL0     C33589   7.268   2.667  10.869  0.4862  0.2157 -0.7349
  255MOL0     C33590   7.355   2.766  10.792 -0.5226 -0.6863 -1.1511
  255MOL0     C33591   7.450   2.824  10.891  0.0670  0.1635 -0.0135
  255MOL0     C33592   7.530   2.876  10.971  0.1064  0.1339 -0.8315
  255MOL0     C33593   6.880   2.946  11.023 -0.5426  0.4684  0.1685
  255MOL0     C33594   6.782   3.027  10.969 -0.1846  0.7087 -0.0113
  255MOL0     H33595   6.554   3.422  10.862  0.9120 -1.9372 -0.0388
  255MOL0     H33596   6.375   3.587  10.821  3.1936 -0.3420  3.0643
  255MOL0     H33597   5.923   3.441  10.817  0.0307 -3.3170 -1.6133
  255MOL0     H33598   6.021   3.410  10.676 -0.6906  0.0143 -0.4886
  255MOL0     H33599   5.904   3.678  10.749 -0.0418 -0.8884  0.3994
  255MOL0     H33600   5.835   3.577  10.625 -0.1775  0.8832 -0.4108
  255MOL0     H33601   6.069   3.586  10.501  0.3548 -0.3196  0.5574
  255MOL0     H33602   6.092   3.719  10.626 -0.1927  0.2301 -1.0263
  255MOL0     H33603   5.916   3.707  10.394  2.2618  1.3353 -2.4262
  255MOL0     H33604   5.889   3.815  10.539  0.2197  1.8714 -1.6227
  255MOL0     H33605   6.156   3.791  10.386 -0.4944  0.0976  1.0757
  255MOL0     H33606   6.108   3.910  10.503  0.1444  0.9820 -0.1996
  255MOL0     H33607   6.082   4.026  10.292 -2.3495  1.0463 -0.5745
  255MOL0     H33608   5.918   3.994  10.351 -0.8899 -0.5354 -2.4223
  255MOL0     H33609   6.054   3.799  10.160 -1.2943  0.1339 -1.6102
  255MOL0     H33610   5.885   3.809  10.190  1.6902 -2.3296 -1.9999
  255MOL0     H33611   6.055   4.032  10.060  0.5851 -0.9654 -2.7929
  255MOL0     H33612   5.876   4.043  10.096 -2.1580 -2.9441  0.0820
  255MOL0     H33613   6.107   3.794   9.885  1.4906  0.8629 -1.7773
  255MOL0     H33614   5.932   3.633   9.638 -0.0933 -0.2218  0.1952
  255MOL0     H33615   6.076   3.734   9.633  0.5865 -0.7338 -0.9045
  255MOL0     H33616   6.001   3.808   9.435  0.0751 -1.6293 -0.3528
  255MOL0     H33617   5.884   3.908   9.522  0.7887  0.7030  0.9789
  255MOL0     H33618   5.828   3.624   9.434 -2.6213 -0.6734 -0.6065
  255MOL0     H33619   5.717   3.737   9.521 -1.1161 -0.5994 -1.3881
  255MOL0     H33620   5.828   3.754   9.235  2.3117 -0.5081  2.4013
  255MOL0     H33621   5.715   3.872   9.302  0.8748 -0.2988  1.1769
  255MOL0     H33622   5.749   3.835   9.040 -0.4151  1.3315  0.1900
  255MOL0     H33623   5.651   3.849   8.829  0.1555 -2.6991 -1.9049
  255MOL0     H33624   5.053   3.625   8.662 -1.9538  0.3423  0.6904
  255MOL0     H33625   4.910   3.708   8.469  0.5748 -1.9695  2.1718
  255MOL0     H33626   4.795   4.039   8.464  1.0558 -2.3322  1.6463
  255MOL0     H33627   4.761   3.864   8.438  1.6746  0.0839  0.2186
  255MOL0     H33628   4.723   3.909   8.207  0.0692 -0.8010  0.0322
  255MOL0     H33629   4.698   4.078   8.236  0.7279 -0.8062  0.1541
  255MOL0     H33630   4.531   3.981   8.439  4.1496 -1.2927  1.9692
  255MOL0     H33631   4.544   3.829   8.350  3.2765  0.1702  1.3368
  255MOL0     H33632   4.433   4.096   8.273  1.1272  0.9970  0.0552
  255MOL0     H33633   4.483   3.982   8.147  0.7940  2.0179 -0.2176
  255MOL0     H33634   4.303   3.938   8.388 -0.1011 -1.4826  0.4138
  255MOL0     H33635   4.314   3.811   8.256 -1.1521  0.2183 -0.2926
  255MOL0     H33636   4.212   3.993   8.100 -1.1480 -1.8109 -0.5631
  255MOL0     H33637   4.199   4.100   8.238 -1.3806 -0.5081 -0.4878
  255MOL0     H33638   4.036   3.850   8.188  0.1428  1.1812 -0.7467
  255MOL0     H33639   4.062   3.914   8.350  0.4096  1.9610  0.4650
  255MOL0     H33640   3.987   4.063   8.100 -0.9978  1.3302 -0.6390
  255MOL0     H33641   3.973   4.129   8.264  1.1910 -1.0307  0.6839
  255MOL0     H33642   5.130   4.077   8.459 -0.4915 -0.6100  1.1894
  255MOL0     H33643   5.291   3.976   8.636 -0.0961  0.7838 -0.6961
  255MOL0     H33644   5.306   3.608   8.968  0.1492  0.4181  0.6769
  255MOL0     H33645   5.424   3.575   9.173 -0.6898  0.3232 -0.5684
  255MOL0     H33646   6.077   3.265  10.851  0.6798 -1.6391 -0.9619
  255MOL0     H33647   6.265   3.108  10.902 -1.7285  0.1433 -0.0615
  255MOL0     H33648   6.574   2.769  10.867  0.8057 -0.2389  0.3180
  255MOL0     H33649   6.772   2.637  10.920  0.3007 -1.1273  1.9467
  255MOL0     H33650   6.997   2.581  10.933 -0.4496 -0.8507  0.9852
  255MOL0     H33651   7.101   2.566  11.078  4.1246  1.9774 -0.5209
  255MOL0     H33652   7.110   2.812  10.891  0.5341 -0.0582 -2.3497
  255MOL0     H33653   7.203   2.786  11.040 -0.4954  0.2622 -1.1203
  255MOL0     H33654   7.206   2.607  10.802  1.1037  0.3480 -1.4351
  255MOL0     H33655   7.325   2.589  10.921 -1.2605 -2.4601 -2.5615
  255MOL0     H33656   7.418   2.719  10.716  0.7091 -4.1972  1.7572
  255MOL0     H33657   7.297   2.846  10.744  2.5855  2.4959 -0.0548
  255MOL0     H33658   7.596   2.924  11.039 -0.5734 -1.1635  0.8308
  255MOL0     H33659   6.976   2.984  11.057 -0.0863  1.9827 -2.5758
  255MOL0     H33660   6.789   3.134  10.988 -0.1250  0.6644  0.2203
  256MOL0     O33661  10.206   4.685   5.175  0.5752 -0.2023  0.4478
  256MOL0     C33662  10.165   4.796   5.208  0.3935 -1.0339 -0.9622
  256MOL0     O33663  10.240   4.910   5.212  0.1234  0.3801  0.1501
  256MOL0     C33664  10.348   4.921   5.129  0.9673 -0.4789  0.2499
  256MOL0     C33665  10.339   5.003   5.015 -0.0413  0.0667 -0.4392
  256MOL0     C33666  10.441   5.014   4.926 -0.3557 -0.3104  0.5234
  256MOL0     C33667  10.554   4.932   4.946 -0.2381  0.2392  0.4147
  256MOL0     O33668  10.651   4.936   4.846 -0.0585  0.3786 -0.1806
  256MOL0     C33669  10.777   4.994   4.888 -0.3768  0.4817 -0.3849
  256MOL0     C33670  10.875   4.998   4.764  0.6313 -0.4215  0.5147
  256MOL0     C33671  10.984   5.105   4.777  0.2486 -0.0023  0.3380
  256MOL0     C33672  11.090   5.072   4.880  0.4905  0.4345  0.6609
  256MOL0     C33673  11.188   5.179   4.900  0.0082  0.0448  0.1782
  256MOL0     C33674  11.263   5.204   4.767  0.4835 -0.0774 -0.7376
  256MOL0     C33675  11.408   5.235   4.808 -0.1987  0.0671  0.0814
  256MOL0     C33676  11.425   5.384   4.833  0.2233 -1.0528  0.3415
  256MOL0     N33677  11.407   5.428   4.972 -0.6594 -0.2596 -0.0227
  256MOL0     C33678  11.514   5.416   5.062 -0.6634 -0.2891  0.2578
  256MOL0     C33679  11.491   5.513   5.158  0.2576 -0.3809  0.2805
  256MOL0     C33680  11.583   5.547   5.273 -0.5463 -0.5569  0.2271
  256MOL0     C33681  11.612   5.425   5.362 -0.8316  0.6991  0.4886
  256MOL0     C33682  11.497   5.382   5.450  0.3161  0.1886  0.2011
  256MOL0     C33683  11.393   5.298   5.383 -0.7152 -1.0186  1.3133
  256MOL0     O33684  11.306   5.254   5.493  0.2691 -0.3475  0.3052
  256MOL0     C33685  11.190   5.187   5.465 -0.0262  0.5660  0.6042
  256MOL0     C33686  11.088   5.206   5.556  0.7400  0.5058  0.3169
  256MOL0     C33687  10.963   5.129   5.553  0.7348  0.1920  0.4909
  256MOL0     C33688  10.943   5.029   5.459  0.1470 -0.3668  0.7974
  256MOL0     C33689  10.817   4.947   5.448 -0.0922 -0.7678  0.1035
  256MOL0     O33690  10.738   4.962   5.559 -0.2449  0.4639  0.5146
  256MOL0     C33691  10.620   4.897   5.576 -0.5763 -0.1076  0.8834
  256MOL0     C33692  10.496   4.957   5.559  0.4962 -0.1330 -0.6305
  256MOL0     C33693  10.374   4.889   5.578  0.2026  0.1772 -0.0206
  256MOL0     C33694  10.372   4.755   5.626  0.1785  0.1920 -0.2307
  256MOL0     O33695  10.247   4.709   5.651  0.3673 -0.5821 -0.4939
  256MOL0     C33696  10.227   4.591   5.720 -0.2653  0.0708 -1.0196
  256MOL0     C33697  10.086   4.575   5.775 -0.2495  0.1360 -0.7745
  256MOL0     C33698  10.081   4.440   5.850 -0.4552 -0.0930 -0.3147
  256MOL0     C33699   9.943   4.404   5.909 -0.0675 -0.1623  0.1924
  256MOL0     C33700   9.827   4.378   5.816  0.7654 -0.3649 -0.1094
  256MOL0     C33701   9.696   4.374   5.889 -0.1077 -0.2247  0.4088
  256MOL0     C33702   9.617   4.510   5.880  0.5477 -0.0002  0.7366
  256MOL0     C33703   9.484   4.514   5.955  0.2503  0.2571 -0.6262
  256MOL0    Cl33704   9.389   4.665   5.936 -0.4396  0.2431  0.1853
  256MOL0     C33705  10.493   4.700   5.663 -0.1163  0.2596 -0.3564
  256MOL0     C33706  10.621   4.770   5.647 -0.0796 -0.6061  0.0564
  256MOL0     O33707  10.792   4.877   5.353 -0.6785 -0.0571  0.2613
  256MOL0     C33708  11.047   5.018   5.362  0.2250 -0.2160 -0.5095
  256MOL0     C33709  11.169   5.093   5.364  0.8629  0.6777 -0.3366
  256MOL0     N33710  11.358   5.560   5.129 -0.4074  0.3829 -0.0047
  256MOL0     N33711  11.311   5.508   5.019 -0.0445 -0.6195 -0.3803
  256MOL0     C33712  10.568   4.855   5.064  0.7900 -0.7913  0.0518
  256MOL0     C33713  10.464   4.853   5.152 -1.0808  0.0899 -0.3391
  256MOL0     C33714  10.027   4.797   5.243 -0.6654 -1.3560 -0.1254
  256MOL0     C33715   9.946   4.688   5.200  0.2070  0.1275 -0.7008
  256MOL0     C33716   9.809   4.690   5.221  0.1795 -0.0466 -0.3491
  256MOL0     C33717   9.750   4.802   5.284 -0.0709  0.5693 -0.7996
  256MOL0     O33718   9.613   4.800   5.316  0.3146  0.1733  0.6828
  256MOL0     C33719   9.539   4.670   5.345 -0.0347 -0.2170  0.1071
  256MOL0     C33720   9.426   4.696   5.434  0.6505  0.6843 -0.0125
  256MOL0     C33721   9.305   4.724   5.342 -0.1620 -0.2132  0.0719
  256MOL0     C33722   9.202   4.815   5.404 -0.3774  0.2050  0.7689
  256MOL0     C33723   9.131   4.733   5.500  0.1155  0.0484 -0.5404
  256MOL0     C33724   9.060   4.674   5.584 -1.0691 -0.3274  0.0141
  256MOL0     C33725   9.820   4.910   5.313  0.5134  0.0073  0.0552
  256MOL0     C33726   9.959   4.911   5.288  0.1735  0.2387 -0.0253
  256MOL0     H33727  10.254   5.068   4.992  2.2719  2.8407 -1.9468
  256MOL0     H33728  10.432   5.087   4.846 -0.0508  0.1063  0.8627
  256MOL0     H33729  10.824   4.942   4.972 -0.0380  0.4037 -0.6208
  256MOL0     H33730  10.769   5.099   4.916 -1.2070  0.7270 -1.4721
  256MOL0     H33731  10.803   5.023   4.686  0.8423 -0.1103  0.4223
  256MOL0     H33732  10.914   4.897   4.746 -0.2999 -0.8470  0.8374
  256MOL0     H33733  10.945   5.200   4.815 -0.7513  0.1222 -0.9323
  256MOL0     H33734  11.036   5.128   4.683  3.5549  1.8645  2.4246
  256MOL0     H33735  11.040   5.038   4.970 -1.3009  1.0645 -0.0587
  256MOL0     H33736  11.129   4.981   4.832 -1.0863  0.5977 -1.0463
  256MOL0     H33737  11.254   5.141   4.978 -1.5949 -2.5777  0.3787
  256MOL0     H33738  11.138   5.272   4.930  0.5281  0.3659  0.0570
  256MOL0     H33739  11.220   5.282   4.704  0.2711  1.0378  0.7213
  256MOL0     H33740  11.271   5.111   4.709  0.4441 -0.5915  0.0573
  256MOL0     H33741  11.435   5.178   4.897 -3.3109  2.3881  2.8009
  256MOL0     H33742  11.473   5.207   4.725 -0.1152 -0.8311  0.4427
  256MOL0     H33743  11.350   5.440   4.777 -0.1993 -1.2192  0.7351
  256MOL0     H33744  11.522   5.414   4.794  0.9609 -3.2355  0.3651
  256MOL0     H33745  11.609   5.366   5.048 -0.3023  1.0016 -2.7186
  256MOL0     H33746  11.541   5.627   5.335 -0.8520  0.3243 -1.0801
  256MOL0     H33747  11.676   5.591   5.235 -1.3507 -0.4244 -1.6659
  256MOL0     H33748  11.693   5.453   5.431 -2.0939 -1.5878  3.0871
  256MOL0     H33749  11.645   5.342   5.300  1.3960 -0.5199  3.1151
  256MOL0     H33750  11.530   5.310   5.526 -0.6715 -1.3839 -0.7824
  256MOL0     H33751  11.456   5.466   5.506  0.6211  0.4237  0.0666
  256MOL0     H33752  11.423   5.206   5.331 -1.2623 -0.6529  0.3242
  256MOL0     H33753  11.338   5.355   5.307 -0.0437 -1.2777  0.6173
  256MOL0     H33754  11.110   5.275   5.638  3.4432 -0.7910  0.7959
  256MOL0     H33755  10.886   5.153   5.625  0.4361 -1.4978  0.7694
  256MOL0     H33756  10.487   5.050   5.503 -3.0571 -1.1298 -1.9769
  256MOL0     H33757  10.283   4.943   5.554  0.5836  1.0644  0.4468
  256MOL0     H33758  10.300   4.599   5.800  1.7975  0.8335 -2.8788
  256MOL0     H33759  10.256   4.505   5.659 -1.8821 -0.7991 -0.6216
  256MOL0     H33760  10.010   4.583   5.697 -0.2426  0.3975 -0.7566
  256MOL0     H33761  10.059   4.655   5.844  2.8363  1.4086 -0.8432
  256MOL0     H33762  10.152   4.456   5.932  0.1153 -0.0091 -0.8124
  256MOL0     H33763  10.114   4.353   5.791  1.1378  0.6262 -0.5529
  256MOL0     H33764   9.959   4.315   5.971  1.3023  1.3333  2.1277
  256MOL0     H33765   9.916   4.469   5.993 -1.5212 -2.7025  1.8147
  256MOL0     H33766   9.851   4.292   5.753  4.2804 -0.5424  1.2568
  256MOL0     H33767   9.822   4.458   5.740  0.3427  0.0101  0.3056
  256MOL0     H33768   9.715   4.354   5.994  0.1455  1.8041  0.8038
  256MOL0     H33769   9.635   4.295   5.844  0.0341  0.2369 -0.6413
  256MOL0     H33770   9.676   4.599   5.903  0.0231  0.8320 -0.9684
  256MOL0     H33771   9.590   4.530   5.775 -0.0549 -0.7229  0.7428
  256MOL0     H33772   9.486   4.500   6.063 -3.4576  1.5508 -0.2587
  256MOL0     H33773   9.423   4.433   5.913 -0.1657 -0.7771  1.8382
  256MOL0     H33774  10.494   4.602   5.709 -1.1288  0.5451  0.2964
  256MOL0     H33775  10.722   4.737   5.669 -0.6665 -3.1449 -0.6894
  256MOL0     H33776  11.038   4.946   5.282 -2.1382  0.6134 -1.0654
  256MOL0     H33777  11.251   5.075   5.294 -1.2509 -1.0762 -2.5384
  256MOL0     H33778  10.655   4.791   5.070  0.2949 -1.4216  0.5553
  256MOL0     H33779  10.471   4.788   5.239  2.6779  1.1517  0.2996
  256MOL0     H33780   9.980   4.593   5.159  1.5308  0.0128  0.5617
  256MOL0     H33781   9.755   4.601   5.190 -1.8317  0.1549  2.2440
  256MOL0     H33782   9.609   4.608   5.402  1.1089  2.4057  1.7631
  256MOL0     H33783   9.501   4.607   5.264 -0.8438  0.3263  0.0492
  256MOL0     H33784   9.393   4.612   5.496 -0.6324  1.2473  0.0945
  256MOL0     H33785   9.445   4.781   5.501 -1.4712  1.8190 -0.7519
  256MOL0     H33786   9.265   4.629   5.306  1.5519 -1.7715  2.0289
  256MOL0     H33787   9.341   4.783   5.257 -1.0970 -0.4440 -0.4984
  256MOL0     H33788   9.244   4.907   5.445 -0.7819  0.3511  0.8565
  256MOL0     H33789   9.134   4.849   5.326  1.1865 -1.1305 -1.2561
  256MOL0     H33790   8.998   4.620   5.651  2.0056 -1.3781  2.2464
  256MOL0     H33791   9.761   4.981   5.369 -1.5689 -2.5352  1.3132
  256MOL0     H33792  10.016   5.003   5.301  0.6827 -0.0415 -0.2417
  257MOL0     O33793   3.792   3.169   6.853 -0.1491 -0.2547  0.7137
  257MOL0     C33794   3.911   3.162   6.863  0.0078 -0.2882  0.3214
  257MOL0     O33795   3.981   3.043   6.847  0.0285  0.2747 -0.1793
  257MOL0     C33796   3.905   2.930   6.808 -0.1814  1.0548 -0.4295
  257MOL0     C33797   3.835   2.939   6.685 -0.0075  0.9327  0.6383
  257MOL0     C33798   3.753   2.834   6.647  0.2461 -0.3664  0.6717
  257MOL0     C33799   3.734   2.726   6.734  0.5874  0.6906  0.3271
  257MOL0     O33800   3.642   2.619   6.723 -0.1826 -0.6049  0.3207
  257MOL0     C33801   3.523   2.650   6.664 -0.7701  0.7740  0.5106
  257MOL0     C33802   3.426   2.691   6.776  0.2246  0.0544  0.0211
  257MOL0     C33803   3.363   2.571   6.851 -1.1035  0.0535 -0.9487
  257MOL0     C33804   3.251   2.510   6.775  0.5879 -0.1611 -0.5609
  257MOL0     C33805   3.198   2.382   6.847  0.5512 -0.1322  0.7310
  257MOL0     C33806   3.116   2.410   6.971  0.3462 -0.5277 -0.7261
  257MOL0     C33807   3.069   2.276   7.034 -0.3714  0.2763 -0.1462
  257MOL0     C33808   3.008   2.305   7.169 -0.5257 -0.3521  0.1848
  257MOL0     N33809   2.867   2.305   7.168  0.0898 -0.5332  0.2560
  257MOL0     C33810   2.791   2.411   7.118  0.2523 -0.4619 -0.2335
  257MOL0     C33811   2.664   2.362   7.133 -0.2928  0.3468 -0.3957
  257MOL0     C33812   2.558   2.437   7.054  0.2326  0.0657 -0.3468
  257MOL0     C33813   2.469   2.357   6.961 -0.2192  0.3851 -0.1176
  257MOL0     C33814   2.366   2.437   6.884 -0.3987 -0.1936 -0.0578
  257MOL0     C33815   2.303   2.344   6.778  0.0229  0.3382  0.0385
  257MOL0     O33816   2.267   2.218   6.837  0.1091  0.5686 -0.1954
  257MOL0     C33817   2.155   2.204   6.918 -0.2274 -1.3771  0.1482
  257MOL0     C33818   2.144   2.105   7.012 -0.5599  0.2154  0.1871
  257MOL0     C33819   2.038   2.094   7.100  0.1041 -0.2452 -0.3106
  257MOL0     C33820   1.921   2.177   7.090  0.1294  0.5504 -0.3861
  257MOL0     C33821   1.799   2.149   7.166 -0.2888 -0.3252  0.0060
  257MOL0     O33822   1.697   2.227   7.147 -0.0401  0.7650  0.0289
  257MOL0     C33823   1.574   2.188   7.195  1.3936  0.1862 -0.1285
  257MOL0     C33824   1.512   2.062   7.207  0.2770 -0.0714 -0.4422
  257MOL0     C33825   1.375   2.059   7.243 -0.5898 -0.4544 -0.8150
  257MOL0     C33826   1.292   2.169   7.255 -0.0125  0.6912 -0.2937
  257MOL0     O33827   1.159   2.137   7.287 -0.4087  0.0417 -0.1162
  257MOL0     C33828   1.065   2.242   7.280 -0.8992  0.4550  0.7841
  257MOL0     C33829   0.931   2.171   7.307 -0.3621  0.4185 -0.2386
  257MOL0     C33830   0.837   2.264   7.395  0.3133  0.2960 -0.3433
  257MOL0     C33831   0.705   2.187   7.440  0.1015  0.2574  0.6190
  257MOL0     C33832   0.643   2.235   7.572 -0.0676 -0.6577  0.3418
  257MOL0     C33833   0.662   2.139   7.687  0.1549 -0.0291  0.5442
  257MOL0     C33834   0.590   2.191   7.811  0.6078 -0.3353  0.4753
  257MOL0     C33835   0.438   2.152   7.817  0.0138 -0.3262  0.6653
  257MOL0    Cl33836   0.393   1.982   7.792  0.0863 -0.1295  0.2128
  257MOL0     C33837   1.353   2.286   7.234  0.1356  0.3997  0.0405
  257MOL0     C33838   1.486   2.299   7.195  0.0472  0.0276  0.4431
  257MOL0     O33839   1.802   2.050   7.238 -0.0553 -0.2776 -0.7015
  257MOL0     C33840   1.923   2.275   6.987  0.2141 -0.0238 -0.2690
  257MOL0     C33841   2.044   2.292   6.911 -0.1987  0.4371  1.1400
  257MOL0     N33842   2.663   2.239   7.199  0.2649 -0.2533  0.1546
  257MOL0     N33843   2.785   2.204   7.209 -0.2087 -0.7995  0.6566
  257MOL0     C33844   3.802   2.720   6.855 -0.6800  0.6200 -0.3805
  257MOL0     C33845   3.889   2.816   6.893  0.7282 -0.3763 -1.2009
  257MOL0     C33846   3.987   3.282   6.892 -0.2481  0.2662 -0.0368
  257MOL0     C33847   4.127   3.275   6.922 -0.2448 -0.0476 -0.0183
  257MOL0     C33848   4.195   3.392   6.966 -0.1989  0.4637 -0.3268
  257MOL0     C33849   4.125   3.514   6.961 -0.1707  0.4436 -0.2166
  257MOL0     O33850   4.183   3.635   6.999  0.0782  0.5341  0.4095
  257MOL0     C33851   4.246   3.628   7.124 -0.0682  0.3780  0.3610
  257MOL0     C33852   4.243   3.766   7.199  0.2490 -0.5835 -0.4859
  257MOL0     C33853   4.120   3.803   7.287  0.9099  0.4400 -0.1235
  257MOL0     C33854   3.988   3.776   7.214 -0.3825  0.0283 -0.4701
  257MOL0     C33855   3.876   3.834   7.284  0.8450 -1.2050 -0.6896
  257MOL0     C33856   3.776   3.868   7.347 -0.4870  0.4111  0.4740
  257MOL0     C33857   3.995   3.516   6.923  0.1193  0.3548 -0.0513
  257MOL0     C33858   3.925   3.408   6.888  0.3495 -0.2308  0.0618
  257MOL0     H33859   3.841   3.034   6.634  0.0802  2.1855  2.8763
  257MOL0     H33860   3.697   2.847   6.555 -1.8737  2.8272  2.1963
  257MOL0     H33861   3.483   2.559   6.617 -2.4766  0.9157  1.6017
  257MOL0     H33862   3.522   2.725   6.584 -0.7525 -0.4044 -0.6494
  257MOL0     H33863   3.343   2.741   6.724 -0.0764  0.7252  1.1207
  257MOL0     H33864   3.462   2.767   6.845 -2.2994  2.2988 -0.9612
  257MOL0     H33865   3.338   2.615   6.948  1.3850  2.7504 -1.3614
  257MOL0     H33866   3.451   2.507   6.867 -0.8269  0.9250  1.3540
  257MOL0     H33867   3.174   2.585   6.754  0.3813 -0.3692 -0.5447
  257MOL0     H33868   3.289   2.493   6.673  0.8396 -0.3987 -0.4302
  257MOL0     H33869   3.276   2.312   6.878 -0.2888 -0.9178  1.0881
  257MOL0     H33870   3.130   2.345   6.769 -0.5980  1.8326  0.7446
  257MOL0     H33871   3.024   2.463   6.946 -0.9663 -2.2346  0.2597
  257MOL0     H33872   3.171   2.467   7.047  0.5065 -1.6303 -0.0034
  257MOL0     H33873   2.995   2.218   6.979 -0.5674  0.5073 -0.1309
  257MOL0     H33874   3.158   2.215   7.050 -0.3703 -0.7323 -3.2438
  257MOL0     H33875   3.036   2.405   7.204  1.3705 -0.7915  0.0172
  257MOL0     H33876   3.047   2.241   7.248 -0.7200  0.9208  1.3496
  257MOL0     H33877   2.823   2.505   7.073  2.3845 -1.9964 -2.1502
  257MOL0     H33878   2.600   2.517   6.992 -1.6872  0.6622 -0.9353
  257MOL0     H33879   2.492   2.491   7.123  1.5567 -1.3116  2.1144
  257MOL0     H33880   2.423   2.273   7.015 -0.6800  0.2758 -0.6748
  257MOL0     H33881   2.538   2.318   6.885  1.2350  0.8793  0.8935
  257MOL0     H33882   2.291   2.471   6.955 -0.7819 -0.7243 -0.2071
  257MOL0     H33883   2.432   2.516   6.847  0.4606 -0.7813  0.1856
  257MOL0     H33884   2.385   2.324   6.708  1.1103  1.5030  0.9498
  257MOL0     H33885   2.220   2.399   6.731 -0.8872 -0.9672  0.0646
  257MOL0     H33886   2.230   2.039   7.021  0.7023  1.4268 -2.0690
  257MOL0     H33887   2.032   2.022   7.180  3.7190 -0.7513 -0.3245
  257MOL0     H33888   1.567   1.969   7.208 -1.8352 -1.4847  3.0650
  257MOL0     H33889   1.327   1.964   7.261  1.2451 -1.7783 -2.5187
  257MOL0     H33890   1.060   2.288   7.181 -1.1895 -0.6660  0.2710
  257MOL0     H33891   1.083   2.317   7.359 -0.3696 -1.2493  2.3516
  257MOL0     H33892   0.941   2.083   7.370 -2.4492 -0.0696 -0.5286
  257MOL0     H33893   0.886   2.136   7.214  0.9329 -2.7125  0.1903
  257MOL0     H33894   0.809   2.356   7.342  1.4442 -0.3417 -2.1430
  257MOL0     H33895   0.888   2.281   7.490 -0.0137 -2.5552  0.4391
  257MOL0     H33896   0.633   2.201   7.359 -2.3633 -2.9314  2.0173
  257MOL0     H33897   0.724   2.079   7.446  0.5782  0.4025  2.4409
  257MOL0     H33898   0.536   2.251   7.557  0.3852  1.2054 -1.4880
  257MOL0     H33899   0.680   2.334   7.601 -1.3147  0.3279 -1.2482
  257MOL0     H33900   0.770   2.137   7.706 -0.1247  0.3186  2.4033
  257MOL0     H33901   0.621   2.040   7.668  1.2673 -0.2506 -0.8408
  257MOL0     H33902   0.649   2.144   7.891  0.0894 -0.9823  0.4835
  257MOL0     H33903   0.589   2.300   7.823 -1.3324 -0.5572  3.0637
  257MOL0     H33904   0.385   2.231   7.763  0.7870  0.1955  0.6470
  257MOL0     H33905   0.401   2.169   7.919  0.1519  2.3098  0.3621
  257MOL0     H33906   1.288   2.372   7.234  0.1156  0.3862 -0.3682
  257MOL0     H33907   1.526   2.397   7.171 -3.2010  1.1308 -1.0899
  257MOL0     H33908   1.837   2.339   6.974  0.0031 -0.5191 -1.4300
  257MOL0     H33909   2.051   2.375   6.841  1.0626 -0.5438  0.0537
  257MOL0     H33910   3.789   2.624   6.905  0.8289  0.8286  0.4743
  257MOL0     H33911   3.920   2.803   6.996 -0.4219 -2.2726 -1.0493
  257MOL0     H33912   4.171   3.175   6.919 -0.9063 -0.3393 -0.3388
  257MOL0     H33913   4.295   3.366   7.000 -1.1249 -4.7478 -0.7020
  257MOL0     H33914   4.349   3.593   7.114 -0.2891  0.2823 -2.8022
  257MOL0     H33915   4.202   3.548   7.184  2.4045 -0.6391  0.9557
  257MOL0     H33916   4.327   3.774   7.269 -0.5104  1.7682  0.2357
  257MOL0     H33917   4.263   3.849   7.131 -1.9115 -0.0234 -0.5053
  257MOL0     H33918   4.128   3.906   7.323 -0.1457  0.2158  0.8217
  257MOL0     H33919   4.127   3.738   7.375  0.4873 -0.3147 -0.6284
  257MOL0     H33920   3.995   3.823   7.116 -0.7907  0.4219 -0.3154
  257MOL0     H33921   3.963   3.670   7.205 -2.0918  0.3035  0.5865
  257MOL0     H33922   3.694   3.913   7.399 -0.8070  0.2434  0.1262
  257MOL0     H33923   3.948   3.613   6.932 -0.3163  0.0095  1.7481
  257MOL0     H33924   3.823   3.421   6.852  1.2819  1.5495 -2.1774
  258MOL0     O33925  10.216   1.443   9.154  0.7877  0.4317  0.8670
  258MOL0     C33926  10.176   1.539   9.088 -0.1370 -0.1676 -0.3542
  258MOL0     O33927  10.050   1.575   9.069 -0.4695  0.3990 -0.1131
  258MOL0     C33928   9.963   1.503   9.141 -0.7924  0.0909 -0.5384
  258MOL0     C33929   9.904   1.396   9.073 -0.2457 -0.3834  0.0730
  258MOL0     C33930   9.809   1.326   9.142  0.4303  0.7828 -0.9946
  258MOL0     C33931   9.783   1.356   9.281 -0.3525  0.0238 -0.3659
  258MOL0     O33932   9.702   1.288   9.353 -0.2844 -0.3038 -0.0292
  258MOL0     C33933   9.684   1.146   9.326 -0.0288 -0.1725 -0.4130
  258MOL0     C33934   9.542   1.109   9.277 -0.4186 -0.0282  0.0091
  258MOL0     C33935   9.436   1.160   9.373  0.3764  0.2392 -0.0080
  258MOL0     C33936   9.443   1.101   9.517 -0.2504 -0.0566 -0.0459
  258MOL0     C33937   9.334   1.149   9.615  0.0261  0.5504 -0.3504
  258MOL0     C33938   9.188   1.091   9.600 -0.3210  0.2488  0.5736
  258MOL0     C33939   9.100   1.152   9.710 -0.0121 -0.7631  0.8953
  258MOL0     C33940   9.056   1.057   9.826 -0.4033  0.0813 -0.1053
  258MOL0     N33941   9.176   0.991   9.878 -0.1396 -0.3748  0.3466
  258MOL0     C33942   9.261   1.045   9.971 -1.0359 -0.2302 -0.3617
  258MOL0     C33943   9.349   0.940  10.006  0.0943 -0.4170 -0.0879
  258MOL0     C33944   9.445   0.946  10.115  0.6945 -0.3641 -0.8593
  258MOL0     C33945   9.579   1.001  10.084 -0.4489 -0.6515 -0.3305
  258MOL0     C33946   9.671   1.029  10.209 -0.3970  0.6147  0.0756
  258MOL0     C33947   9.798   1.109  10.181 -0.5346  0.5372  0.2754
  258MOL0     O33948   9.874   1.044  10.075 -0.8304 -0.1568  0.7011
  258MOL0     C33949   9.974   0.953  10.110 -0.2995  0.6337 -0.8282
  258MOL0     C33950   9.993   0.886  10.233  1.3184 -0.3184 -0.8702
  258MOL0     C33951  10.090   0.790  10.260 -0.0307 -0.7321 -0.3919
  258MOL0     C33952  10.177   0.753  10.158 -0.1273 -0.1384  0.4810
  258MOL0     C33953  10.276   0.652  10.177  0.1675  0.1599 -0.0263
  258MOL0     O33954  10.351   0.615  10.072  0.1549  0.5429  0.5343
  258MOL0     C33955  10.447   0.521  10.079  0.1241  0.2986 -0.2662
  258MOL0     C33956  10.431   0.406  10.006 -0.1071 -0.4370  0.4214
  258MOL0     C33957  10.533   0.309   9.995  0.8060 -0.6503 -1.2038
  258MOL0     C33958  10.648   0.326  10.078  1.1136 -0.2565  0.2675
  258MOL0     O33959  10.743   0.232  10.075  0.4764 -0.1868  0.4257
  258MOL0     C33960  10.884   0.279  10.082 -0.3346  0.3707  0.2100
  258MOL0     C33961  10.987   0.163  10.064 -0.4007  0.0134  0.7074
  258MOL0     C33962  10.987   0.070  10.179 -0.0060 -0.1200 -1.0017
  258MOL0     C33963  11.103  -0.028  10.164 -0.5037  0.2337  0.5136
  258MOL0     C33964  11.128  -0.113  10.293  1.3594 -0.0249  0.2315
  258MOL0     C33965  11.251  -0.191  10.294  0.4040 -0.0240 -0.0382
  258MOL0     C33966  11.306  -0.246  10.424  0.4443  0.1126  0.2109
  258MOL0     C33967  11.323  -0.137  10.539  0.5768  0.2278  0.1456
  258MOL0    Cl33968  11.378   0.033  10.486 -0.1396  0.3273 -0.2804
  258MOL0     C33969  10.661   0.444  10.160 -0.5069  0.3560  0.0163
  258MOL0     C33970  10.562   0.541  10.154  0.8257 -0.6926 -0.1097
  258MOL0     O33971  10.268   0.591  10.281 -0.0622  0.2104 -0.6665
  258MOL0     C33972  10.152   0.813  10.033  0.0613  0.4498  0.4468
  258MOL0     C33973  10.053   0.918  10.008 -0.6478  0.9759  0.0547
  258MOL0     N33974   9.316   0.835   9.915  0.8227  0.2588 -0.4736
  258MOL0     N33975   9.217   0.871   9.840 -0.2542 -0.8180 -0.2149
  258MOL0     C33976   9.840   1.473   9.341 -0.1962  0.7285  0.4412
  258MOL0     C33977   9.930   1.543   9.273  0.7994  0.2232  0.5774
  258MOL0     C33978  10.277   1.612   9.018  0.0028  0.0482 -0.7255
  258MOL0     C33979  10.410   1.629   9.079  0.8903 -0.5306  0.1023
  258MOL0     C33980  10.513   1.688   9.001 -0.7039 -0.1088  0.4437
  258MOL0     C33981  10.476   1.740   8.874  0.0381  0.8748 -0.4575
  258MOL0     O33982  10.585   1.784   8.801 -0.0242  0.3259  0.3288
  258MOL0     C33983  10.569   1.786   8.657 -0.0704 -0.4491 -0.1016
  258MOL0     C33984  10.690   1.865   8.596 -0.6918 -0.5277 -0.6587
  258MOL0     C33985  10.818   1.779   8.554  0.1355 -0.3160  1.4014
  258MOL0     C33986  10.917   1.753   8.666 -0.1761  0.0525  0.6772
  258MOL0     C33987  11.014   1.654   8.626 -0.3458  0.3657 -0.2816
  258MOL0     C33988  11.087   1.575   8.576  0.2347  0.3578 -0.1682
  258MOL0     C33989  10.339   1.743   8.829 -1.0949 -0.5930 -0.3306
  258MOL0     C33990  10.244   1.675   8.889  0.0379 -0.3551 -0.6494
  258MOL0     H33991   9.911   1.382   8.966 -0.1060  1.8511 -0.2508
  258MOL0     H33992   9.754   1.255   9.080  2.5372  0.8000 -3.0208
  258MOL0     H33993   9.699   1.097   9.423 -0.1378  1.9662  0.7363
  258MOL0     H33994   9.760   1.107   9.258  0.5492 -1.1062  0.7301
  258MOL0     H33995   9.526   1.001   9.274 -1.0629 -0.1528  3.6579
  258MOL0     H33996   9.518   1.158   9.182 -2.1652  3.1767  1.8963
  258MOL0     H33997   9.338   1.129   9.333  0.4773  1.3583 -1.1977
  258MOL0     H33998   9.438   1.269   9.383 -0.4566  0.1304  1.6813
  258MOL0     H33999   9.441   0.992   9.509 -1.9067 -0.1282  0.8672
  258MOL0     H34000   9.542   1.121   9.562 -0.1388  0.7660 -0.6292
  258MOL0     H34001   9.324   1.258   9.619 -1.3997  0.4762 -1.2712
  258MOL0     H34002   9.365   1.120   9.716 -2.7275 -0.3433  0.3335
  258MOL0     H34003   9.199   0.982   9.606  1.8478  0.3343 -0.7218
  258MOL0     H34004   9.162   1.127   9.500  0.7922 -1.1111 -0.2353
  258MOL0     H34005   9.156   1.237   9.749  0.0047 -0.9848  1.3571
  258MOL0     H34006   9.004   1.194   9.679  1.6007  0.8141 -2.5666
  258MOL0     H34007   8.989   0.975   9.799  1.8196 -0.7924 -3.7847
  258MOL0     H34008   9.003   1.116   9.901  0.6135  4.1030 -2.2588
  258MOL0     H34009   9.262   1.140  10.024 -0.9717 -0.8257  0.7369
  258MOL0     H34010   9.450   0.848  10.163 -1.0526 -0.6603 -1.2004
  258MOL0     H34011   9.403   1.014  10.190  3.4148  0.7577 -0.2370
  258MOL0     H34012   9.577   1.098  10.036  1.5687 -0.1594  0.4866
  258MOL0     H34013   9.623   0.923  10.021 -1.3279 -2.4704  1.2077
  258MOL0     H34014   9.614   1.092  10.279 -2.2999  0.3246 -1.1328
  258MOL0     H34015   9.692   0.937  10.264  0.9385 -0.0734 -1.5191
  258MOL0     H34016   9.850   1.117  10.277  0.6079 -1.1438 -0.1626
  258MOL0     H34017   9.768   1.208  10.147 -1.8537 -1.1842 -4.3139
  258MOL0     H34018   9.930   0.915  10.316  1.0436 -2.0807 -0.4284
  258MOL0     H34019  10.093   0.753  10.362  1.5440 -0.6534 -0.3913
  258MOL0     H34020  10.339   0.394   9.950 -0.1765  0.4724  0.3333
  258MOL0     H34021  10.512   0.213   9.947 -0.6910 -1.4073  0.8243
  258MOL0     H34022  10.895   0.320  10.183  1.4754 -0.7392  0.5141
  258MOL0     H34023  10.899   0.351  10.001 -0.6359  0.1221 -0.0710
  258MOL0     H34024  11.087   0.202  10.045 -1.4311  2.4542 -0.1289
  258MOL0     H34025  10.960   0.113   9.971 -1.8899  0.2189  1.0032
  258MOL0     H34026  10.892   0.016  10.178 -1.3247  2.1084 -1.1942
  258MOL0     H34027  11.007   0.127  10.271  0.5192 -3.4355  1.1047
  258MOL0     H34028  11.075  -0.088  10.076 -0.4035 -0.6728  1.0828
  258MOL0     H34029  11.201   0.013  10.139  0.0123  0.0144  2.0689
  258MOL0     H34030  11.043  -0.181  10.308  0.1409  1.5244  0.6844
  258MOL0     H34031  11.133  -0.048  10.381  0.4332  0.0827  0.2150
  258MOL0     H34032  11.328  -0.117  10.270  0.0669  0.4123  0.2131
  258MOL0     H34033  11.256  -0.271  10.219 -1.9474  0.8440 -1.2124
  258MOL0     H34034  11.236  -0.327  10.449 -0.8203 -0.0057 -3.1871
  258MOL0     H34035  11.403  -0.294  10.412  0.3045  0.4242 -3.2186
  258MOL0     H34036  11.389  -0.175  10.617  2.0560  1.5724 -0.4055
  258MOL0     H34037  11.227  -0.118  10.588  1.3218  2.4294  0.8374
  258MOL0     H34038  10.754   0.465  10.211 -0.6711  2.8119 -0.5947
  258MOL0     H34039  10.591   0.635  10.200  0.6434  0.3537 -2.0451
  258MOL0     H34040  10.217   0.784   9.951 -1.3054 -1.1357 -0.1401
  258MOL0     H34041  10.037   0.967   9.913 -0.7999  2.9708  1.0569
  258MOL0     H34042   9.818   1.503   9.443 -1.8379 -0.9681  0.6376
  258MOL0     H34043   9.969   1.638   9.308 -3.3393  2.4335 -0.1037
  258MOL0     H34044  10.424   1.580   9.175  1.9935 -2.8382 -1.1522
  258MOL0     H34045  10.614   1.685   9.042 -0.3724  1.8358 -0.1598
  258MOL0     H34046  10.476   1.828   8.618  0.4219  0.2982 -0.5018
  258MOL0     H34047  10.576   1.680   8.631 -0.8450 -0.1015 -1.9426
  258MOL0     H34048  10.665   1.921   8.506  0.7717  2.1821  0.5196
  258MOL0     H34049  10.723   1.937   8.672  1.5005  0.4669 -2.4414
  258MOL0     H34050  10.862   1.818   8.462 -1.9818  0.5433  0.7033
  258MOL0     H34051  10.778   1.681   8.526  1.3330 -0.3675 -0.2673
  258MOL0     H34052  10.969   1.845   8.693 -0.8910  0.9221 -0.8171
  258MOL0     H34053  10.848   1.724   8.747 -0.4704  0.0154  0.4170
  258MOL0     H34054  11.152   1.506   8.525  1.5723  1.7171 -0.3603
  258MOL0     H34055  10.320   1.800   8.738 -2.3948 -0.5790 -0.0695
  258MOL0     H34056  10.142   1.679   8.853  0.5180 -0.5552 -2.1252
  259MOL0     O34057   2.592   4.225   0.619 -0.1944  0.4696  0.5351
  259MOL0     C34058   2.621   4.304   0.710 -0.2838  0.0200 -0.0363
  259MOL0     O34059   2.583   4.432   0.712  0.3530 -0.2541  0.0402
  259MOL0     C34060   2.491   4.470   0.612  0.7781  0.4847 -0.4817
  259MOL0     C34061   2.540   4.508   0.483 -0.3072 -0.8703 -0.0163
  259MOL0     C34062   2.454   4.556   0.380 -0.3856  0.0529  0.0029
  259MOL0     C34063   2.318   4.566   0.401 -0.0395 -0.0476 -0.1233
  259MOL0     O34064   2.238   4.633   0.318 -0.0935  0.5071 -0.4446
  259MOL0     C34065   2.171   4.575   0.206 -0.4413  0.3831 -0.2710
  259MOL0     C34066   2.085   4.448   0.224 -1.2719 -0.7130 -0.0807
  259MOL0     C34067   2.159   4.306   0.221  0.1117  0.0269  0.8743
  259MOL0     C34068   2.071   4.184   0.227 -0.5115 -0.1915 -0.9375
  259MOL0     C34069   1.970   4.185   0.116  0.4323 -0.2934  0.2259
  259MOL0     C34070   1.896   4.060   0.091  0.6081 -0.1050 -0.2030
  259MOL0     C34071   1.822   3.994   0.209  0.4106 -0.4717 -0.3861
  259MOL0     C34072   1.729   4.081   0.284  0.0975  0.1696  0.2959
  259MOL0     N34073   1.637   4.013   0.381 -0.3234 -0.4594  0.4123
  259MOL0     C34074   1.503   3.977   0.364  0.4685 -0.0181 -0.3323
  259MOL0     C34075   1.471   3.910   0.481  0.9621  0.1606 -0.2735
  259MOL0     C34076   1.348   3.834   0.512  0.2344  1.6518 -0.6886
  259MOL0     C34077   1.228   3.928   0.522  0.0327 -0.4320  0.0420
  259MOL0     C34078   1.116   3.839   0.572  0.5761 -0.0330  0.6068
  259MOL0     C34079   0.987   3.917   0.560  0.1622  0.0776 -0.3054
  259MOL0     O34080   0.894   3.874   0.660 -0.6502  0.5980 -0.3584
  259MOL0     C34081   0.756   3.908   0.632 -0.2251  0.1508 -0.3458
  259MOL0     C34082   0.716   4.031   0.569  0.4324  0.1399  0.0321
  259MOL0     C34083   0.574   4.057   0.540 -0.9681  0.0875  0.1862
  259MOL0     C34084   0.485   3.969   0.592  0.1504  0.2972  0.3838
  259MOL0     C34085   0.338   3.997   0.563 -0.8181 -0.5501  0.5930
  259MOL0     O34086   0.258   3.885   0.549  0.1183  0.4730 -0.4241
  259MOL0     C34087   0.124   3.903   0.572 -0.1011 -0.0557 -0.0960
  259MOL0     C34088   0.078   3.924   0.704  0.0065  0.2566 -0.0957
  259MOL0     C34089  -0.053   3.930   0.727 -0.0978 -0.5085 -0.8532
  259MOL0     C34090  -0.144   3.922   0.621 -0.4671 -0.2428  0.3614
  259MOL0     O34091  -0.278   3.948   0.638  0.7465 -1.1655 -0.3985
  259MOL0     C34092  -0.325   3.992   0.772 -0.0241  0.5444 -0.3186
  259MOL0     C34093  -0.455   4.069   0.772 -0.1726 -0.2678  0.4403
  259MOL0     C34094  -0.583   3.999   0.769 -0.0269  0.9816 -0.0577
  259MOL0     C34095  -0.703   4.097   0.766 -0.1894 -0.2975 -0.6831
  259MOL0     C34096  -0.836   4.012   0.757 -0.7382  0.1354  0.8283
  259MOL0     C34097  -0.968   4.098   0.759  0.0862  0.1947 -0.2380
  259MOL0     C34098  -1.001   4.185   0.643 -0.3894  0.5018  0.2862
  259MOL0     C34099  -1.114   4.282   0.681  0.1203 -0.3478  0.0717
  259MOL0    Cl34100  -1.264   4.189   0.712  0.3173 -0.4788 -0.0142
  259MOL0     C34101  -0.110   3.886   0.488  0.6048  0.3597 -0.2074
  259MOL0     C34102   0.029   3.892   0.467  0.1242  0.8264 -0.7816
  259MOL0     O34103   0.295   4.113   0.579  0.4331  0.1852  0.5999
  259MOL0     C34104   0.525   3.857   0.662 -0.2743 -0.1952  0.2292
  259MOL0     C34105   0.656   3.833   0.688 -0.2860  0.3254  0.4850
  259MOL0     N34106   1.582   3.894   0.557  0.2438  0.0772 -1.1697
  259MOL0     N34107   1.673   3.956   0.503 -0.2243  0.0715  0.2823
  259MOL0     C34108   2.271   4.540   0.525  0.0641  0.3059 -0.3939
  259MOL0     C34109   2.348   4.482   0.625 -0.6751  0.3064  0.7026
  259MOL0     C34110   2.697   4.255   0.828 -0.2911  0.1168  0.1573
  259MOL0     C34111   2.705   4.112   0.849 -0.4419  0.2132  0.3699
  259MOL0     C34112   2.769   4.068   0.969  0.2346  0.1311  0.0354
  259MOL0     C34113   2.827   4.157   1.062 -0.6892 -0.1995  0.3926
  259MOL0     O34114   2.893   4.100   1.166  1.0283  0.5433 -0.2827
  259MOL0     C34115   2.954   4.185   1.268 -1.2396 -0.1514  0.0935
  259MOL0     C34116   3.039   4.104   1.377 -0.2341 -0.5588  0.3480
  259MOL0     C34117   3.121   3.989   1.320 -0.3262  0.3351  0.0207
  259MOL0     C34118   3.230   3.942   1.427 -0.0589 -0.5778  0.2654
  259MOL0     C34119   3.337   3.855   1.384  0.9477  0.2162  0.0254
  259MOL0     C34120   3.439   3.793   1.362 -0.0886 -0.7986 -1.1991
  259MOL0     C34121   2.811   4.293   1.029  0.9611  0.0556 -0.6405
  259MOL0     C34122   2.752   4.348   0.915  0.0979  0.5454  0.5284
  259MOL0     H34123   2.648   4.503   0.470  0.1918  0.9001  2.5802
  259MOL0     H34124   2.504   4.589   0.289  0.6266 -0.5054  0.3375
  259MOL0     H34125   2.247   4.562   0.129 -0.8270  2.0649 -0.9626
  259MOL0     H34126   2.098   4.652   0.178 -0.5936  1.1737  2.0837
  259MOL0     H34127   2.009   4.449   0.146 -0.6944 -2.0941 -0.6862
  259MOL0     H34128   2.029   4.458   0.318  0.7604  0.7699  1.0599
  259MOL0     H34129   2.236   4.306   0.299 -0.0792  0.9954  1.0828
  259MOL0     H34130   2.204   4.296   0.122  0.2095  0.7775  0.8373
  259MOL0     H34131   2.134   4.094   0.225 -1.0633 -0.5932 -0.3891
  259MOL0     H34132   2.025   4.188   0.326  1.6420 -0.0371  0.1084
  259MOL0     H34133   2.021   4.216   0.024 -0.4105  0.8529  0.1282
  259MOL0     H34134   1.891   4.260   0.126 -0.7656 -1.4974  0.0437
  259MOL0     H34135   1.968   3.984   0.058 -0.5909 -1.2018 -0.3600
  259MOL0     H34136   1.830   4.088   0.008 -1.1890  0.1043  1.2459
  259MOL0     H34137   1.764   3.907   0.176  1.0735 -1.3669  0.7081
  259MOL0     H34138   1.895   3.937   0.267  0.2580  0.7479  1.0768
  259MOL0     H34139   1.671   4.131   0.205 -2.5721 -2.5554  0.3471
  259MOL0     H34140   1.782   4.159   0.339 -3.0625  1.2689  2.0523
  259MOL0     H34141   1.436   3.979   0.279  1.8582 -1.9276 -1.5368
  259MOL0     H34142   1.375   3.782   0.604 -3.1618  0.9327  0.0568
  259MOL0     H34143   1.347   3.757   0.434  2.4399 -0.8148  1.5328
  259MOL0     H34144   1.197   3.969   0.426 -2.7613 -1.1078  0.5422
  259MOL0     H34145   1.242   4.007   0.596  1.0751 -1.3308  0.8380
  259MOL0     H34146   1.115   3.748   0.511  2.1228  0.5091 -0.2967
  259MOL0     H34147   1.136   3.814   0.676  1.7439  1.0641  0.6749
  259MOL0     H34148   0.964   3.913   0.453 -2.6480 -1.3731  0.2536
  259MOL0     H34149   1.008   4.023   0.576 -0.0434  0.0685  0.0407
  259MOL0     H34150   0.794   4.102   0.543 -0.4894  1.3675  0.5195
  259MOL0     H34151   0.534   4.153   0.510 -0.9122  1.4344  3.8656
  259MOL0     H34152   0.143   3.955   0.786  1.2445  3.7143 -2.1721
  259MOL0     H34153  -0.078   3.959   0.828 -1.0483  3.6225 -2.0682
  259MOL0     H34154  -0.258   4.064   0.820 -2.8048  2.5836  0.7953
  259MOL0     H34155  -0.347   3.905   0.835  0.0905  2.2859  2.3143
  259MOL0     H34156  -0.448   4.138   0.689  2.8645 -0.9159  0.0430
  259MOL0     H34157  -0.456   4.133   0.861  1.3915  0.0097  0.2740
  259MOL0     H34158  -0.579   3.933   0.857 -0.1944  1.8176  0.5909
  259MOL0     H34159  -0.594   3.940   0.677 -4.0503  1.9399 -0.3828
  259MOL0     H34160  -0.707   4.152   0.860  2.7053  0.0955 -0.7053
  259MOL0     H34161  -0.695   4.164   0.680  2.0396 -0.6345 -0.7799
  259MOL0     H34162  -0.840   3.951   0.848  1.1071  3.0466  3.0581
  259MOL0     H34163  -0.836   3.950   0.667 -3.9127  1.6054 -0.3227
  259MOL0     H34164  -0.972   4.149   0.856 -0.7457  1.4704 -0.9134
  259MOL0     H34165  -1.036   4.013   0.763  1.6196 -1.0309  1.7162
  259MOL0     H34166  -0.921   4.254   0.616 -2.1452  2.5965  0.0701
  259MOL0     H34167  -1.025   4.123   0.556  3.3143 -1.4686  0.4546
  259MOL0     H34168  -1.138   4.352   0.600 -0.9076 -0.2096  0.4744
  259MOL0     H34169  -1.099   4.339   0.773  0.5933 -1.7339  0.8792
  259MOL0     H34170  -0.175   3.876   0.402  0.3893  1.6101 -0.1979
  259MOL0     H34171   0.059   3.869   0.366  1.2057  0.0464 -0.3048
  259MOL0     H34172   0.452   3.788   0.705  2.0300 -2.3667  0.8851
  259MOL0     H34173   0.682   3.740   0.737  1.6151 -0.2565 -1.4918
  259MOL0     H34174   2.171   4.557   0.563  0.1720  2.0945 -0.8069
  259MOL0     H34175   2.306   4.461   0.723 -1.7865 -0.9486 -0.0164
  259MOL0     H34176   2.650   4.046   0.783 -1.4568  0.6957  0.7010
  259MOL0     H34177   2.769   3.962   0.991 -0.5897 -0.8731 -4.0363
  259MOL0     H34178   2.871   4.231   1.323 -1.3520 -1.7633  1.3410
  259MOL0     H34179   3.028   4.257   1.230 -0.5693 -0.1681  1.3228
  259MOL0     H34180   3.096   4.171   1.442 -1.2815  0.9563 -0.2541
  259MOL0     H34181   2.964   4.061   1.444 -1.0368 -0.9145 -0.7397
  259MOL0     H34182   3.172   4.036   1.236  0.1830  1.0189  0.6994
  259MOL0     H34183   3.058   3.904   1.291 -0.2102  0.5801 -0.9723
  259MOL0     H34184   3.273   4.036   1.463 -1.5733  0.1522  0.2778
  259MOL0     H34185   3.166   3.893   1.501  0.7365 -0.6293  0.9320
  259MOL0     H34186   3.520   3.727   1.339  0.1393 -1.3610  1.0502
  259MOL0     H34187   2.849   4.370   1.095 -3.2028 -1.3083  3.9996
  259MOL0     H34188   2.736   4.455   0.904 -1.2126  0.1992 -1.3534
  260MOL0     O34189   6.773   4.499   2.154 -0.2604 -0.0754 -0.2179
  260MOL0     C34190   6.857   4.443   2.218 -0.0180  0.5081  0.1361
  260MOL0     O34191   6.886   4.468   2.350 -0.6470 -0.0557  0.5625
  260MOL0     C34192   6.830   4.574   2.415  0.1084 -0.0615  0.5296
  260MOL0     C34193   6.687   4.603   2.409 -0.6087  1.3758 -0.0352
  260MOL0     C34194   6.641   4.711   2.485 -0.2713  1.3906  0.2765
  260MOL0     C34195   6.726   4.795   2.573 -0.4825 -0.3200  1.1578
  260MOL0     O34196   6.678   4.900   2.642 -0.1688  0.0416  0.2087
  260MOL0     C34197   6.722   4.919   2.782  0.1174  0.1203 -0.5127
  260MOL0     C34198   6.640   5.030   2.853  0.2171 -0.1381  0.0680
  260MOL0     C34199   6.501   4.984   2.880  0.6484  0.0006 -0.0121
  260MOL0     C34200   6.429   5.094   2.962 -0.3843 -0.2507 -0.4050
  260MOL0     C34201   6.300   5.053   3.032 -0.3185 -0.0130  0.0930
  260MOL0     C34202   6.177   5.086   2.946  0.0584  0.3841 -0.3646
  260MOL0     C34203   6.049   5.037   3.025  0.0924 -0.2540 -0.5779
  260MOL0     C34204   5.923   5.024   2.935 -0.1080  0.1430  0.6076
  260MOL0     N34205   5.889   5.137   2.855  0.1614 -0.5463  0.5999
  260MOL0     C34206   5.953   5.149   2.731  0.1782 -0.8801  0.4887
  260MOL0     C34207   5.925   5.274   2.701  0.0213 -0.5747 -0.5044
  260MOL0     C34208   5.951   5.332   2.564  1.0455 -0.3043 -0.1224
  260MOL0     C34209   5.831   5.316   2.468 -0.2792  0.6586 -0.0817
  260MOL0     C34210   5.740   5.433   2.470  0.6529  0.4390  0.4610
  260MOL0     C34211   5.623   5.414   2.363 -0.6116 -0.1583 -0.4559
  260MOL0     O34212   5.553   5.536   2.366 -0.4905 -1.0343 -0.3731
  260MOL0     C34213   5.425   5.550   2.311  0.0106  0.4460 -0.6031
  260MOL0     C34214   5.364   5.673   2.334  0.1986  0.7250 -0.4292
  260MOL0     C34215   5.239   5.689   2.279 -0.6855  0.0526 -0.2533
  260MOL0     C34216   5.176   5.592   2.200 -1.1105  0.4650  0.0964
  260MOL0     C34217   5.038   5.609   2.139 -0.5800 -0.5628  0.1709
  260MOL0     O34218   4.990   5.740   2.144 -0.3630  0.7209  0.5583
  260MOL0     C34219   4.888   5.765   2.060  0.1045  0.6062  0.3905
  260MOL0     C34220   4.887   5.734   1.925  0.2821 -1.0214 -0.2094
  260MOL0     C34221   4.773   5.765   1.851 -0.3657  0.5606 -0.4554
  260MOL0     C34222   4.652   5.812   1.912  0.0972  0.9316  0.7534
  260MOL0     O34223   4.545   5.823   1.832  0.7327 -0.2155  0.0571
  260MOL0     C34224   4.425   5.861   1.881  0.6099 -0.4257  0.9768
  260MOL0     C34225   4.313   5.872   1.784  0.4875  0.3686 -0.2070
  260MOL0     C34226   4.177   5.902   1.850 -0.2935 -0.5958 -0.3412
  260MOL0     C34227   4.060   5.900   1.749  0.5827  0.9637  0.1675
  260MOL0     C34228   3.932   5.955   1.810  0.9841  0.4349 -0.9735
  260MOL0     C34229   3.804   5.949   1.719  0.2470 -0.0958  0.0573
  260MOL0     C34230   3.677   6.012   1.798  0.3706  0.2515 -0.3026
  260MOL0     C34231   3.546   5.961   1.729 -0.2624 -0.4270 -0.7535
  260MOL0    Cl34232   3.418   6.006   1.841 -0.3868 -0.2729 -0.0346
  260MOL0     C34233   4.665   5.853   2.045  0.4424 -0.2781  0.1138
  260MOL0     C34234   4.780   5.834   2.114 -0.3662  0.4901 -0.7042
  260MOL0     O34235   4.990   5.514   2.079  0.1171 -0.3910  0.3632
  260MOL0     C34236   5.243   5.476   2.175  0.1808  0.1547 -0.3209
  260MOL0     C34237   5.369   5.451   2.228  0.4188 -0.3339 -0.2437
  260MOL0     N34238   5.849   5.335   2.802  0.3641 -0.5100 -0.1053
  260MOL0     N34239   5.822   5.247   2.889 -0.5015 -0.0526 -0.0887
  260MOL0     C34240   6.859   4.750   2.586  0.4001 -0.2233  0.7105
  260MOL0     C34241   6.915   4.645   2.501  0.4800 -0.0116 -0.2345
  260MOL0     C34242   6.946   4.343   2.152  0.1953 -0.7088  0.0182
  260MOL0     C34243   7.077   4.307   2.195  0.2082  0.2099 -0.9095
  260MOL0     C34244   7.158   4.207   2.146  0.5982  0.0990  0.3859
  260MOL0     C34245   7.101   4.112   2.054 -0.7804 -0.9090  0.3220
  260MOL0     O34246   7.165   4.010   1.996 -0.2322 -0.1116 -0.0577
  260MOL0     C34247   7.284   3.958   2.051 -0.1186 -1.0656 -0.1370
  260MOL0     C34248   7.278   3.903   2.202  0.6521 -0.2947  0.6711
  260MOL0     C34249   7.170   3.798   2.221  0.6922  0.1059 -0.0396
  260MOL0     C34250   7.145   3.680   2.119  0.0854 -1.1614  0.1639
  260MOL0     C34251   7.275   3.608   2.127 -0.4193  0.4262  1.0676
  260MOL0     C34252   7.375   3.536   2.154  0.0565 -0.0237 -0.1112
  260MOL0     C34253   6.974   4.144   2.011 -0.3371  0.2955  0.4722
  260MOL0     C34254   6.899   4.252   2.052  0.5825  0.5232 -0.2350
  260MOL0     H34255   6.615   4.546   2.351  0.5345  0.6342 -0.7599
  260MOL0     H34256   6.536   4.733   2.475 -0.7628 -1.2078 -1.0853
  260MOL0     H34257   6.824   4.957   2.783  0.8578 -1.7134  1.4754
  260MOL0     H34258   6.728   4.824   2.835  4.3705  1.0068  1.0021
  260MOL0     H34259   6.642   5.129   2.806  0.9084  0.3191  1.0231
  260MOL0     H34260   6.693   5.046   2.947 -0.3880 -0.5069  0.4846
  260MOL0     H34261   6.496   4.884   2.923 -2.0266 -1.0002 -2.3103
  260MOL0     H34262   6.457   4.971   2.780  3.0269 -0.4340 -1.0739
  260MOL0     H34263   6.491   5.099   3.052 -1.6691  0.1850  0.4810
  260MOL0     H34264   6.435   5.189   2.909  0.8276 -0.7399 -1.1971
  260MOL0     H34265   6.287   5.108   3.126 -1.2117  0.3069 -0.2000
  260MOL0     H34266   6.307   4.945   3.048  0.9222  0.4450  3.2467
  260MOL0     H34267   6.185   5.025   2.856  1.1139  1.4352 -1.0070
  260MOL0     H34268   6.168   5.189   2.912 -1.7378 -0.1734 -1.6963
  260MOL0     H34269   6.067   4.939   3.072 -0.7341 -0.0128  0.2665
  260MOL0     H34270   6.034   5.106   3.108  0.6630 -1.4724  0.5812
  260MOL0     H34271   5.838   5.020   3.003 -1.0600  1.8384 -0.4418
  260MOL0     H34272   5.929   4.935   2.871  0.7836  0.7324 -0.1536
  260MOL0     H34273   6.004   5.075   2.670 -0.1754  0.2952 -1.2896
  260MOL0     H34274   6.034   5.270   2.529  2.0664  0.3176  1.0991
  260MOL0     H34275   5.986   5.434   2.586  0.2598 -0.5388  2.5719
  260MOL0     H34276   5.769   5.237   2.511 -2.2397  2.2600  0.2252
  260MOL0     H34277   5.871   5.319   2.366 -0.3977  4.4639 -0.1550
  260MOL0     H34278   5.703   5.438   2.572 -0.6473  3.8066 -0.0373
  260MOL0     H34279   5.796   5.526   2.455  1.4598 -0.1211 -0.0541
  260MOL0     H34280   5.566   5.325   2.388  2.3736 -2.3785 -0.9992
  260MOL0     H34281   5.658   5.413   2.259  1.8383  1.0497  0.2716
  260MOL0     H34282   5.410   5.757   2.385  1.6773 -0.3288  0.0270
  260MOL0     H34283   5.188   5.781   2.306 -0.0308  0.7672 -1.3654
  260MOL0     H34284   4.974   5.691   1.876  1.4010  0.0116  0.8139
  260MOL0     H34285   4.771   5.750   1.744  0.4720  1.7949 -0.6697
  260MOL0     H34286   4.439   5.955   1.934 -1.0240 -0.2599  1.1655
  260MOL0     H34287   4.386   5.792   1.957  0.9126  0.1228  1.6335
  260MOL0     H34288   4.307   5.781   1.724 -2.1326 -0.1990  0.7976
  260MOL0     H34289   4.339   5.950   1.713  1.6114 -2.0142 -2.5886
  260MOL0     H34290   4.184   6.000   1.898  0.6868  0.1406 -1.9086
  260MOL0     H34291   4.151   5.835   1.933 -0.7279  0.6200  0.5398
  260MOL0     H34292   4.091   5.955   1.660  0.0952 -0.1247 -0.6989
  260MOL0     H34293   4.043   5.795   1.721 -1.4110  0.4406  2.9748
  260MOL0     H34294   3.945   6.061   1.833  0.5213 -0.1334  2.3321
  260MOL0     H34295   3.902   5.900   1.900  1.7617 -1.0532 -1.5847
  260MOL0     H34296   3.789   5.844   1.691  4.7978 -1.0549  0.4658
  260MOL0     H34297   3.821   6.001   1.625 -4.8928  2.1194  0.0374
  260MOL0     H34298   3.669   5.981   1.903  0.6772  0.1834 -0.2981
  260MOL0     H34299   3.698   6.119   1.796  0.4525  0.2514  0.3837
  260MOL0     H34300   3.532   5.854   1.713 -2.7838 -0.3950  0.7671
  260MOL0     H34301   3.526   6.018   1.638  1.2715 -0.1506 -0.9465
  260MOL0     H34302   4.585   5.897   2.103 -0.1481  0.2831 -1.1040
  260MOL0     H34303   4.797   5.875   2.214  1.8553  2.8037 -1.9136
  260MOL0     H34304   5.182   5.398   2.130 -2.2731  1.3237  0.7635
  260MOL0     H34305   5.414   5.352   2.224  0.3416 -0.3178 -1.8421
  260MOL0     H34306   6.931   4.804   2.647  1.4970  0.9762 -1.5127
  260MOL0     H34307   7.022   4.634   2.512  0.2643  0.4893  3.9513
  260MOL0     H34308   7.116   4.368   2.276  0.0562  1.1614 -1.5375
  260MOL0     H34309   7.255   4.200   2.192  0.3094  2.2162  1.3991
  260MOL0     H34310   7.359   4.038   2.047 -0.0485 -0.9586  2.2127
  260MOL0     H34311   7.331   3.884   1.985  0.0273  0.1509 -1.4504
  260MOL0     H34312   7.379   3.864   2.215  1.7426  1.1666 -2.3693
  260MOL0     H34313   7.270   3.981   2.278 -0.8525  0.7609 -0.5069
  260MOL0     H34314   7.079   3.858   2.223  1.4177  1.2250  1.0646
  260MOL0     H34315   7.192   3.752   2.318 -0.8338 -1.9765 -0.6117
  260MOL0     H34316   7.067   3.606   2.141  1.7657 -3.6386 -1.6964
  260MOL0     H34317   7.137   3.712   2.015  1.1487 -2.1407 -0.2426
  260MOL0     H34318   7.447   3.458   2.166 -2.1055 -1.7858  2.5695
  260MOL0     H34319   6.946   4.077   1.930  2.6628 -0.8579  0.2477
  260MOL0     H34320   6.800   4.268   2.012  0.9581 -0.9344 -1.8785
  261MOL0     O34321   4.273   9.892  10.510 -0.6650  0.2499  0.4965
  261MOL0     C34322   4.375   9.822  10.523  0.4538 -0.5074  0.6890
  261MOL0     O34323   4.387   9.696  10.581  0.5632 -0.1394 -0.2973
  261MOL0     C34324   4.295   9.659  10.681 -0.1234 -0.4503  0.0330
  261MOL0     C34325   4.348   9.591  10.790  0.0377  0.4560  0.9722
  261MOL0     C34326   4.256   9.549  10.889  0.0769 -0.3969  0.5699
  261MOL0     C34327   4.122   9.575  10.890 -0.0487 -0.2478  0.0889
  261MOL0     O34328   4.049   9.535  10.998 -0.6549  0.9606 -0.3725
  261MOL0     C34329   3.907   9.531  11.005  0.0872  0.3937  0.9182
  261MOL0     C34330   3.850   9.669  11.038  0.0245 -0.6219 -0.2348
  261MOL0     C34331   3.692   9.670  11.031  0.3564 -0.1890  0.1469
  261MOL0     C34332   3.615   9.656  11.168 -1.5083  0.7958 -0.2365
  261MOL0     C34333   3.460   9.670  11.166 -0.7377  0.3172  0.1494
  261MOL0     C34334   3.398   9.539  11.119 -0.1749 -0.1242 -0.0708
  261MOL0     C34335   3.251   9.531  11.160  0.5918 -0.2128 -0.5873
  261MOL0     C34336   3.187   9.432  11.063 -0.2419 -0.3963 -0.4431
  261MOL0     N34337   3.048   9.413  11.102 -0.4671 -1.1783  0.5231
  261MOL0     C34338   2.993   9.338  11.194 -0.0099  0.1837  0.7052
  261MOL0     C34339   2.860   9.343  11.164 -0.0394  0.1244 -0.2588
  261MOL0     C34340   2.762   9.285  11.256  0.5266  0.2316  0.0025
  261MOL0     C34341   2.706   9.167  11.174  0.0755  0.1210 -0.0682
  261MOL0     C34342   2.598   9.078  11.239 -0.5109  0.4054  1.3879
  261MOL0     C34343   2.449   9.115  11.204 -0.4421 -0.5509 -0.6343
  261MOL0     O34344   2.407   9.054  11.087 -0.1896  0.4233 -0.5548
  261MOL0     C34345   2.276   9.082  11.034  0.5980  0.2697 -0.1074
  261MOL0     C34346   2.190   9.167  11.090  0.8177 -0.0464  0.4414
  261MOL0     C34347   2.070   9.207  11.022  0.0265  0.5090  0.7327
  261MOL0     C34348   2.028   9.135  10.902 -0.3812  0.9362 -0.9900
  261MOL0     C34349   1.908   9.178  10.826  0.2220 -1.1056 -0.1855
  261MOL0     O34350   1.883   9.102  10.718  0.4545  0.2128 -0.4209
  261MOL0     C34351   1.759   9.118  10.657  0.2839  0.2610  0.0550
  261MOL0     C34352   1.712   9.240  10.606  0.3479 -0.1193  1.3323
  261MOL0     C34353   1.601   9.243  10.517  0.3417 -0.5110  0.0585
  261MOL0     C34354   1.526   9.127  10.488 -0.1706 -0.5132  0.1792
  261MOL0     O34355   1.419   9.147  10.409  0.7551  0.2042  0.3229
  261MOL0     C34356   1.356   9.034  10.343  0.0437 -0.4771 -0.2758
  261MOL0     C34357   1.234   9.075  10.259  0.7985 -0.9735  0.3631
  261MOL0     C34358   1.150   8.966  10.234  0.7463  0.3474  0.1956
  261MOL0     C34359   1.047   8.995  10.122  0.5389  0.1416 -0.0977
  261MOL0     C34360   0.927   9.084  10.157  0.1078 -0.4524 -0.4932
  261MOL0     C34361   0.812   9.020  10.238  0.2198 -0.7574 -0.3556
  261MOL0     C34362   0.691   9.122  10.257  0.5864 -0.3321  0.7557
  261MOL0     C34363   0.575   9.045  10.321 -0.6239  0.4609  0.1560
  261MOL0    Cl34364   0.524   8.907  10.220  0.0959  0.0718 -0.0086
  261MOL0     C34365   1.563   9.009  10.557 -0.3081  0.0364 -0.1045
  261MOL0     C34366   1.690   9.006  10.640  0.0759 -0.5044 -0.2797
  261MOL0     O34367   1.846   9.284  10.866 -0.3140 -0.0736 -0.2743
  261MOL0     C34368   2.125   9.044  10.851 -1.1907  0.9060 -0.2934
  261MOL0     C34369   2.244   9.018  10.910  0.3058 -0.1729  0.3729
  261MOL0     N34370   2.834   9.419  11.054 -0.2989  0.4642 -0.4521
  261MOL0     N34371   2.949   9.470  11.023 -0.1668  0.2418 -0.0404
  261MOL0     C34372   4.067   9.643  10.767 -0.2454 -0.3410 -0.8277
  261MOL0     C34373   4.157   9.691  10.669  0.5377  0.5178  0.0202
  261MOL0     C34374   4.498   9.874  10.452 -0.4428 -1.4743  0.8352
  261MOL0     C34375   4.622   9.808  10.471 -0.9299  0.4331  0.3130
  261MOL0     C34376   4.732   9.858  10.402 -0.1114  0.0707  0.1842
  261MOL0     C34377   4.727   9.963  10.312  0.2595 -0.1516  0.2008
  261MOL0     O34378   4.830  10.011  10.235  0.3127  0.0037  0.1607
  261MOL0     C34379   4.941  10.035  10.321 -0.0659 -0.3151  0.8764
  261MOL0     C34380   5.034  10.132  10.245 -0.2536 -0.8843 -0.4839
  261MOL0     C34381   5.115  10.062  10.126  0.8609  0.4448 -0.1259
  261MOL0     C34382   5.244  10.128  10.089 -0.2538 -0.4869 -0.3708
  261MOL0     C34383   5.223  10.220   9.974 -0.0598  0.3337 -0.7856
  261MOL0     C34384   5.204  10.292   9.880 -0.1005 -0.3218  0.2245
  261MOL0     C34385   4.603  10.030  10.296 -0.8336 -0.5818 -0.3561
  261MOL0     C34386   4.485   9.983  10.360 -0.5140  0.3152 -0.6878
  261MOL0     H34387   4.454   9.570  10.785  0.1553  1.2312 -2.9353
  261MOL0     H34388   4.296   9.497  10.976  1.6547  0.4626  0.3925
  261MOL0     H34389   3.886   9.454  11.081  1.9006  0.6162  1.6869
  261MOL0     H34390   3.857   9.487  10.918  0.1389  0.5814  0.7943
  261MOL0     H34391   3.882   9.749  10.971 -3.3754 -1.9834 -3.7905
  261MOL0     H34392   3.876   9.702  11.140 -2.0385 -1.9354  0.7591
  261MOL0     H34393   3.665   9.593  10.958  0.9905  0.4685 -0.8191
  261MOL0     H34394   3.659   9.766  10.989 -0.4920  0.8761  3.0289
  261MOL0     H34395   3.644   9.566  11.221 -1.8507  1.3274  0.8776
  261MOL0     H34396   3.669   9.729  11.229 -0.2304  1.4195 -2.0073
  261MOL0     H34397   3.433   9.752  11.098  0.1572  3.1408  2.9812
  261MOL0     H34398   3.416   9.687  11.264  0.9676 -0.9480  1.1780
  261MOL0     H34399   3.446   9.466  11.185 -1.1046  0.2315  1.0312
  261MOL0     H34400   3.417   9.520  11.013 -0.1737 -0.1505 -0.0653
  261MOL0     H34401   3.249   9.497  11.264  0.5444  0.5822 -0.3236
  261MOL0     H34402   3.209   9.632  11.151  1.5538  0.3459  0.9248
  261MOL0     H34403   3.222   9.330  11.082 -1.6441 -0.8429 -0.1659
  261MOL0     H34404   3.199   9.461  10.958  1.4523 -1.6808 -0.6383
  261MOL0     H34405   3.045   9.310  11.285 -2.7640 -0.2405  2.2408
  261MOL0     H34406   2.675   9.350  11.271 -1.2956 -1.9958 -0.3916
  261MOL0     H34407   2.801   9.256  11.354 -1.7221 -1.8329  0.4047
  261MOL0     H34408   2.790   9.098  11.158 -2.0788 -2.2085 -2.2731
  261MOL0     H34409   2.664   9.204  11.080 -1.1866 -0.2906  0.3130
  261MOL0     H34410   2.611   8.987  11.180  0.3415  1.0702  0.5178
  261MOL0     H34411   2.622   9.079  11.345 -0.2199  0.3844  1.3227
  261MOL0     H34412   2.438   9.224  11.210  3.8454 -0.0167  0.7467
  261MOL0     H34413   2.396   9.065  11.285  0.8563  0.4212  0.8615
  261MOL0     H34414   2.209   9.212  11.187  1.5937 -1.7531  1.1187
  261MOL0     H34415   2.005   9.283  11.066 -0.4475  0.7875 -0.4208
  261MOL0     H34416   1.775   9.327  10.619  0.8642  0.0365 -1.5947
  261MOL0     H34417   1.573   9.333  10.463 -0.8768 -1.3215 -0.7218
  261MOL0     H34418   1.324   8.971  10.427 -0.8598 -1.2834 -1.2055
  261MOL0     H34419   1.420   8.968  10.284  0.0392  0.0433 -0.8664
  261MOL0     H34420   1.267   9.114  10.162  2.0166 -2.2913  0.2170
  261MOL0     H34421   1.168   9.142  10.314 -0.5727 -0.5524 -1.6688
  261MOL0     H34422   1.105   8.922  10.324 -1.1249  0.0101 -0.8518
  261MOL0     H34423   1.208   8.884  10.193 -2.6378 -1.6542 -1.0243
  261MOL0     H34424   1.097   9.040  10.036  1.3928 -0.4216  0.0840
  261MOL0     H34425   1.014   8.898  10.082  3.3671 -0.7382 -0.5164
  261MOL0     H34426   0.878   9.124  10.068 -0.6827  0.0378  0.1482
  261MOL0     H34427   0.965   9.176  10.204  0.6476 -1.0250  0.2103
  261MOL0     H34428   0.842   9.002  10.342  1.8075  1.1086 -0.4349
  261MOL0     H34429   0.779   8.922  10.200  0.2606 -1.1818  0.6666
  261MOL0     H34430   0.721   9.202  10.324  0.5270 -0.8418  1.4020
  261MOL0     H34431   0.666   9.160  10.157  1.9060 -0.8080  0.2188
  261MOL0     H34432   0.483   9.105  10.328 -0.4572  0.9998 -1.5795
  261MOL0     H34433   0.617   9.017  10.418  2.6847 -1.4852 -1.6700
  261MOL0     H34434   1.512   8.914  10.540  0.4555 -0.1872 -1.3089
  261MOL0     H34435   1.721   8.918  10.696 -0.0935 -0.5904 -0.3176
  261MOL0     H34436   2.112   8.981  10.764  0.3166  1.4948 -0.9726
  261MOL0     H34437   2.324   8.964  10.862 -2.0111 -1.9736 -1.7376
  261MOL0     H34438   3.960   9.665  10.771 -0.3026 -0.7227  0.1569
  261MOL0     H34439   4.119   9.750  10.586 -1.8280  1.1742  1.4807
  261MOL0     H34440   4.623   9.716  10.530 -1.8710  0.0590 -0.2350
  261MOL0     H34441   4.825   9.805  10.421 -1.1923 -1.6869  0.7829
  261MOL0     H34442   4.998   9.945  10.345 -0.9172 -1.6108 -1.5751
  261MOL0     H34443   4.904  10.088  10.409 -1.0404  1.4046 -0.5163
  261MOL0     H34444   4.976  10.217  10.207  0.6554 -1.1849 -2.6940
  261MOL0     H34445   5.106  10.172  10.317  0.6612  0.9195 -2.2767
  261MOL0     H34446   5.050  10.063  10.037 -3.1630  2.3933  2.5643
  261MOL0     H34447   5.125   9.955  10.149 -2.1193 -0.2743 -1.7128
  261MOL0     H34448   5.300  10.166  10.175  0.0972  1.0337 -1.2238
  261MOL0     H34449   5.307  10.050  10.045  0.8719 -2.4428  4.1844
  261MOL0     H34450   5.164  10.343   9.795  0.1968 -2.2844 -1.1748
  261MOL0     H34451   4.605  10.108  10.221 -2.4853 -0.8997 -0.7763
  261MOL0     H34452   4.391  10.029  10.331 -0.2495  0.6371 -1.0384
  262MOL0     O34453   3.707   8.168   8.179  0.0238  0.8290 -0.6247
  262MOL0     C34454   3.799   8.256   8.170  0.4311  0.8137 -0.7111
  262MOL0     O34455   3.769   8.387   8.150  0.1051  0.4434  0.0787
  262MOL0     C34456   3.635   8.417   8.159 -0.6632 -0.0683 -1.2160
  262MOL0     C34457   3.546   8.388   8.059 -0.2702 -0.8481  0.1006
  262MOL0     C34458   3.415   8.433   8.064 -0.2414  0.2629  0.1301
  262MOL0     C34459   3.372   8.518   8.162 -0.2145  0.4490 -0.0629
  262MOL0     O34460   3.249   8.577   8.146 -0.5169  0.4427  0.6731
  262MOL0     C34461   3.246   8.715   8.126 -0.5499 -0.0849 -0.1424
  262MOL0     C34462   3.103   8.749   8.081  0.0474 -0.0738  0.1077
  262MOL0     C34463   3.072   8.903   8.105 -0.0015  0.2797  0.6118
  262MOL0     C34464   3.147   9.005   8.019 -0.7526 -1.0778 -0.1546
  262MOL0     C34465   3.108   9.153   8.041  0.3323 -0.0481  0.2964
  262MOL0     C34466   2.958   9.178   8.018 -0.5905 -0.0382  0.2474
  262MOL0     C34467   2.916   9.329   7.989 -0.1530 -0.0741 -0.2861
  262MOL0     C34468   2.953   9.413   8.113  0.5108 -0.5735  0.2553
  262MOL0     N34469   3.090   9.443   8.123 -0.2840 -0.2519  0.6206
  262MOL0     C34470   3.168   9.474   8.018 -0.0272 -0.4674  0.2908
  262MOL0     C34471   3.291   9.494   8.072 -0.4045  0.2446 -0.3840
  262MOL0     C34472   3.418   9.528   7.997  0.0040 -0.0618  0.4901
  262MOL0     C34473   3.530   9.425   8.026 -0.2612  0.7073 -0.1919
  262MOL0     C34474   3.498   9.278   7.973 -0.4267 -0.7691  0.8406
  262MOL0     C34475   3.633   9.216   7.927  0.4295 -0.5930 -0.0326
  262MOL0     O34476   3.696   9.285   7.820  0.9495 -0.2027 -0.1713
  262MOL0     C34477   3.821   9.238   7.782  0.6442 -0.9477 -0.7591
  262MOL0     C34478   3.893   9.319   7.693 -0.8885  0.0820  0.1605
  262MOL0     C34479   4.021   9.289   7.647  0.3674  0.9269  0.4186
  262MOL0     C34480   4.078   9.162   7.683 -0.7636  0.2277  0.4798
  262MOL0     C34481   4.204   9.105   7.630  0.8388  0.0903 -0.2099
  262MOL0     O34482   4.251   8.979   7.672 -0.4959  0.1262 -1.0917
  262MOL0     C34483   4.366   8.921   7.629 -0.6549 -0.0493  0.3239
  262MOL0     C34484   4.490   8.989   7.621  0.6011 -0.8416  0.5263
  262MOL0     C34485   4.610   8.931   7.571  0.7816  0.0436 -0.2595
  262MOL0     C34486   4.613   8.795   7.529 -0.0236  0.2935 -0.1843
  262MOL0     O34487   4.726   8.731   7.488  0.0608  0.2507 -0.0761
  262MOL0     C34488   4.845   8.804   7.458  0.4542 -1.5080 -0.0482
  262MOL0     C34489   4.945   8.719   7.381  0.0040  0.8290 -0.3361
  262MOL0     C34490   4.973   8.590   7.464 -0.4710 -0.2598 -0.1190
  262MOL0     C34491   5.095   8.605   7.554 -0.3579  0.6268 -0.4442
  262MOL0     C34492   5.154   8.468   7.602 -0.4300 -0.2717 -0.2182
  262MOL0     C34493   5.291   8.502   7.667 -0.2571  0.2300  1.1020
  262MOL0     C34494   5.344   8.387   7.746  0.0772  0.8356  0.0383
  262MOL0     C34495   5.353   8.407   7.893  0.4402  0.1256  0.6221
  262MOL0    Cl34496   5.189   8.451   7.968  0.1555  0.4303 -0.2244
  262MOL0     C34497   4.489   8.725   7.551 -0.3114  0.5472 -0.1826
  262MOL0     C34498   4.371   8.790   7.591 -0.0446  0.1760 -0.5078
  262MOL0     O34499   4.263   9.183   7.559 -0.3367 -0.0153 -0.0964
  262MOL0     C34500   4.001   9.078   7.769  0.1455 -0.2951 -0.0166
  262MOL0     C34501   3.883   9.124   7.831  0.0271  0.2447  0.4885
  262MOL0     N34502   3.295   9.474   8.212  0.4900 -0.5132  0.5845
  262MOL0     N34503   3.166   9.445   8.236  0.1780  1.0531 -0.5810
  262MOL0     C34504   3.467   8.544   8.260 -0.4977 -1.1082  0.0346
  262MOL0     C34505   3.602   8.496   8.266  0.5222  0.7649  0.4872
  262MOL0     C34506   3.940   8.224   8.200 -0.6717 -0.4191  0.2235
  262MOL0     C34507   4.036   8.327   8.189 -0.8070 -0.2379  0.8290
  262MOL0     C34508   4.167   8.299   8.205  0.3070 -0.7018  0.2186
  262MOL0     C34509   4.209   8.171   8.241 -0.0427 -0.6930 -1.4024
  262MOL0     O34510   4.350   8.157   8.245  0.0030  0.9716  0.2885
  262MOL0     C34511   4.416   8.031   8.278 -1.1980  0.1808 -0.0082
  262MOL0     C34512   4.562   8.051   8.231  0.1644  0.5202 -0.9233
  262MOL0     C34513   4.573   8.096   8.086 -0.0074 -0.6106 -0.1575
  262MOL0     C34514   4.497   8.018   7.984 -0.2118  0.2020 -0.1903
  262MOL0     C34515   4.516   7.871   8.005  0.8031 -0.1081  0.1002
  262MOL0     C34516   4.522   7.750   8.030  0.3620 -0.4746  0.0506
  262MOL0     C34517   4.117   8.068   8.251 -0.5918  0.7087 -0.6494
  262MOL0     C34518   3.983   8.095   8.235 -0.3565 -0.6195  0.0783
  262MOL0     H34519   3.582   8.343   7.967  0.1709  0.5774 -0.4534
  262MOL0     H34520   3.354   8.415   7.976 -0.6791 -0.5887  0.5867
  262MOL0     H34521   3.317   8.751   8.052  0.3428  1.1431  1.2768
  262MOL0     H34522   3.273   8.762   8.221  1.1010  0.7570 -0.9966
  262MOL0     H34523   3.031   8.688   8.137  0.9032 -0.2613  1.0251
  262MOL0     H34524   3.085   8.725   7.976  0.1832 -4.7159  0.9329
  262MOL0     H34525   3.085   8.925   8.211  0.9564  1.8678  0.1884
  262MOL0     H34526   2.965   8.915   8.084  0.3587  0.8960 -1.0121
  262MOL0     H34527   3.254   9.000   8.041 -0.7565  1.9759  0.9968
  262MOL0     H34528   3.136   8.977   7.914  0.2764 -2.2654  0.0258
  262MOL0     H34529   3.157   9.216   7.966 -2.9281 -2.0814 -3.9244
  262MOL0     H34530   3.142   9.198   8.135 -1.0907 -0.0673  0.8542
  262MOL0     H34531   2.900   9.154   8.107  0.3573 -0.6302  0.7205
  262MOL0     H34532   2.925   9.113   7.936 -0.8423 -2.8342  2.4219
  262MOL0     H34533   2.959   9.357   7.893  0.8158  0.0629  0.1721
  262MOL0     H34534   2.808   9.326   7.977 -0.0805 -0.0066 -0.9912
  262MOL0     H34535   2.924   9.373   8.211  1.1150  3.1234  2.1314
  262MOL0     H34536   2.897   9.506   8.107 -1.8074 -1.9709 -1.7397
  262MOL0     H34537   3.165   9.492   7.911  0.2718  0.8514  0.4846
  262MOL0     H34538   3.437   9.630   8.032  3.0552 -0.7279  1.0481
  262MOL0     H34539   3.405   9.532   7.888  2.0333 -1.7956  0.1051
  262MOL0     H34540   3.550   9.432   8.133  4.7673 -1.2726 -0.7231
  262MOL0     H34541   3.618   9.456   7.969 -0.9182  1.3814 -0.8671
  262MOL0     H34542   3.452   9.234   8.062 -0.4186  0.0503  1.2646
  262MOL0     H34543   3.423   9.291   7.894 -1.5798  0.9000  2.1172
  262MOL0     H34544   3.607   9.114   7.899 -4.0663  0.7278 -1.6287
  262MOL0     H34545   3.709   9.220   8.005  1.7260 -0.2057 -1.2635
  262MOL0     H34546   3.853   9.413   7.655 -2.6082 -0.4131  0.6352
  262MOL0     H34547   4.064   9.345   7.565 -0.1464  1.2281  0.3511
  262MOL0     H34548   4.493   9.092   7.654 -0.2069 -1.0628  1.3318
  262MOL0     H34549   4.697   8.995   7.574  0.9785 -0.2297 -0.1808
  262MOL0     H34550   4.893   8.832   7.553  1.4008 -3.0048 -0.0495
  262MOL0     H34551   4.813   8.891   7.402  1.2634  0.1768  1.9690
  262MOL0     H34552   5.039   8.772   7.359  0.1706  0.6844  0.0074
  262MOL0     H34553   4.904   8.684   7.286 -0.9451 -1.3398  0.8059
  262MOL0     H34554   4.993   8.504   7.400  0.8239  0.0208 -0.1247
  262MOL0     H34555   4.888   8.570   7.530 -0.1405  3.2381  1.6425
  262MOL0     H34556   5.172   8.652   7.491 -0.3522  0.8276 -0.2908
  262MOL0     H34557   5.062   8.671   7.635  0.2810 -1.7842  1.9177
  262MOL0     H34558   5.151   8.394   7.522 -1.9563 -0.5610  0.0650
  262MOL0     H34559   5.089   8.430   7.682 -0.3086  3.4322  1.8663
  262MOL0     H34560   5.283   8.591   7.730  2.2247  1.2185  0.1681
  262MOL0     H34561   5.362   8.518   7.585  0.6513 -1.2775  1.5564
  262MOL0     H34562   5.293   8.295   7.713 -0.7963  1.4049 -0.2478
  262MOL0     H34563   5.447   8.375   7.713 -0.0339  0.2610 -0.1250
  262MOL0     H34564   5.423   8.485   7.924  0.0499  0.3775  0.8656
  262MOL0     H34565   5.403   8.316   7.928  0.7775 -0.3576 -1.0171
  262MOL0     H34566   4.483   8.620   7.526  3.7231 -0.0665  0.6042
  262MOL0     H34567   4.285   8.725   7.606  2.5222 -3.6506 -0.7024
  262MOL0     H34568   4.037   8.980   7.800  2.0592  0.4297  0.1457
  262MOL0     H34569   3.837   9.063   7.908 -1.6157  0.1875 -0.4895
  262MOL0     H34570   3.429   8.618   8.330 -0.6810 -0.4160 -0.7742
  262MOL0     H34571   3.672   8.508   8.348  0.2194  3.3440  0.4593
  262MOL0     H34572   4.004   8.424   8.150  1.3198 -0.3723 -1.4973
  262MOL0     H34573   4.240   8.367   8.163 -0.0112 -0.4589  0.0590
  262MOL0     H34574   4.376   7.948   8.219  2.2560  0.3784 -2.9454
  262MOL0     H34575   4.418   8.012   8.386  1.9160  2.6342  0.5198
  262MOL0     H34576   4.610   8.122   8.300 -2.0727  1.7962 -0.5522
  262MOL0     H34577   4.612   7.954   8.232 -0.2209  0.3035  0.9719
  262MOL0     H34578   4.674   8.078   8.047 -0.9773 -6.3344 -0.8835
  262MOL0     H34579   4.548   8.203   8.087  1.3418 -0.2668 -0.3129
  262MOL0     H34580   4.392   8.047   7.969 -0.2406 -1.0623 -3.0147
  262MOL0     H34581   4.539   8.048   7.888 -2.1096  0.7419 -0.8991
  262MOL0     H34582   4.529   7.645   8.053 -1.4509 -1.0362 -1.6175
  262MOL0     H34583   4.150   7.965   8.264  0.6873  1.0279 -1.1667
  262MOL0     H34584   3.914   8.011   8.244  0.1961 -0.9670  1.2347
  263MOL0     O34585   9.515   6.828   0.238  0.5189  0.1347 -0.1076
  263MOL0     C34586   9.542   6.813   0.353  0.1445  1.1173  0.0465
  263MOL0     O34587   9.454   6.812   0.459  0.1340  0.0935  0.2056
  263MOL0     C34588   9.318   6.797   0.448 -0.0729  0.6645 -0.0083
  263MOL0     C34589   9.247   6.765   0.333 -0.0671 -0.1024 -0.0111
  263MOL0     C34590   9.104   6.778   0.339 -0.1367  0.7151  0.1176
  263MOL0     C34591   9.038   6.797   0.460 -0.5881  0.3872 -0.0963
  263MOL0     O34592   8.901   6.776   0.472 -0.3806  0.2916 -0.2472
  263MOL0     C34593   8.840   6.757   0.597  0.1846 -0.3314 -0.2128
  263MOL0     C34594   8.686   6.754   0.589  0.1356 -0.4187  0.4654
  263MOL0     C34595   8.629   6.637   0.503 -0.1432 -0.3841 -0.3122
  263MOL0     C34596   8.587   6.521   0.593  0.7030 -0.3644  0.4189
  263MOL0     C34597   8.563   6.395   0.502 -1.3626 -0.4478 -0.3139
  263MOL0     C34598   8.525   6.272   0.578  0.1495 -0.5837  0.1578
  263MOL0     C34599   8.398   6.293   0.654  0.9795 -0.6143  0.4415
  263MOL0     C34600   8.323   6.159   0.662  0.3290 -0.8140 -0.2457
  263MOL0     N34601   8.195   6.179   0.731 -0.3762 -0.0144  0.1292
  263MOL0     C34602   8.088   6.230   0.670 -0.0021 -0.3883  0.0884
  263MOL0     C34603   8.006   6.262   0.773  0.2508  0.5080  0.0981
  263MOL0     C34604   7.869   6.326   0.755 -0.7079  0.4423  0.4140
  263MOL0     C34605   7.769   6.288   0.866 -0.2194 -0.8449  0.0361
  263MOL0     C34606   7.635   6.366   0.841 -0.0991  0.2951 -0.3196
  263MOL0     C34607   7.538   6.332   0.959 -0.9241  0.7098  0.1587
  263MOL0     O34608   7.416   6.384   0.930  0.2820 -0.3309  0.4934
  263MOL0     C34609   7.303   6.354   0.998  0.2687  0.1475  0.0525
  263MOL0     C34610   7.187   6.433   0.973 -0.4062 -0.1708 -0.0569
  263MOL0     C34611   7.065   6.408   1.029 -0.1816 -0.3147  0.1234
  263MOL0     C34612   7.054   6.302   1.121 -1.2102  0.2395  0.4265
  263MOL0     C34613   6.922   6.276   1.173  0.3307  0.7019  0.0929
  263MOL0     O34614   6.829   6.374   1.166 -0.0590 -0.1471  0.4302
  263MOL0     C34615   6.698   6.372   1.213  0.5961 -0.1066  0.3433
  263MOL0     C34616   6.632   6.496   1.205 -0.1099  0.0177  0.6881
  263MOL0     C34617   6.496   6.509   1.252 -0.4075 -0.1740  0.1203
  263MOL0     C34618   6.423   6.398   1.316  0.0843  0.2371  0.2278
  263MOL0     O34619   6.293   6.393   1.355 -0.3876 -0.5125  0.1811
  263MOL0     C34620   6.231   6.525   1.388 -0.5334  0.1309 -0.6810
  263MOL0     C34621   6.078   6.497   1.426  0.4015 -0.2361  0.1826
  263MOL0     C34622   6.053   6.369   1.520 -0.6225  0.5801 -0.1138
  263MOL0     C34623   5.911   6.362   1.563  0.6478  0.4832  0.2483
  263MOL0     C34624   5.893   6.238   1.651  0.1661  0.3828  0.1699
  263MOL0     C34625   5.741   6.214   1.682 -0.3570 -0.0558  0.2783
  263MOL0     C34626   5.721   6.070   1.736 -0.0153 -0.2298  0.4207
  263MOL0     C34627   5.581   6.052   1.782 -0.4274  0.4639 -0.3511
  263MOL0    Cl34628   5.562   6.120   1.935 -0.0581  0.0031 -0.1629
  263MOL0     C34629   6.494   6.280   1.333 -0.4291  0.4367 -0.7672
  263MOL0     C34630   6.633   6.270   1.288  0.8153  0.3118 -0.7011
  263MOL0     O34631   6.914   6.169   1.236 -0.1571  0.2270  0.2215
  263MOL0     C34632   7.166   6.231   1.155  1.4911 -0.0271 -0.7780
  263MOL0     C34633   7.294   6.250   1.103 -0.5362  0.0204 -0.5289
  263MOL0     N34634   8.063   6.210   0.892  0.7503  0.0470  0.7908
  263MOL0     N34635   8.175   6.160   0.862 -0.5080 -0.0337  0.6161
  263MOL0     C34636   9.115   6.822   0.576  0.0474 -0.4642 -0.1484
  263MOL0     C34637   9.253   6.828   0.566 -0.0105 -0.1231  1.0955
  263MOL0     C34638   9.690   6.828   0.378  0.0921 -0.0069  0.0006
  263MOL0     C34639   9.783   6.760   0.300  0.5236 -0.4534 -0.0514
  263MOL0     C34640   9.919   6.771   0.324 -0.1934 -0.7410  0.5646
  263MOL0     C34641   9.971   6.847   0.428 -0.2506 -0.1289 -0.4646
  263MOL0     O34642  10.106   6.862   0.467  0.1765 -0.7818  0.2351
  263MOL0     C34643  10.216   6.837   0.382 -0.1631  0.2381  0.4174
  263MOL0     C34644  10.278   6.703   0.418  0.4732 -0.2868  0.5989
  263MOL0     C34645  10.404   6.664   0.351  0.0920  0.2877  0.2112
  263MOL0     C34646  10.525   6.728   0.430 -0.0406 -0.3572  0.2678
  263MOL0     C34647  10.659   6.684   0.389  0.4358  0.1335 -0.1346
  263MOL0     C34648  10.767   6.635   0.358  0.1015  0.1908  0.2312
  263MOL0     C34649   9.879   6.918   0.497  0.6464  0.2516 -0.6167
  263MOL0     C34650   9.739   6.908   0.476 -0.5599  0.0927 -0.9320
  263MOL0     H34651   9.290   6.734   0.238 -0.8449 -1.4189  0.0321
  263MOL0     H34652   9.043   6.742   0.257  0.2425  1.7943 -0.6697
  263MOL0     H34653   8.860   6.842   0.663 -1.7190  2.1042 -2.5553
  263MOL0     H34654   8.879   6.664   0.639 -3.4326 -1.5785  0.6824
  263MOL0     H34655   8.647   6.841   0.534 -1.0797  0.1386  2.1440
  263MOL0     H34656   8.650   6.748   0.692  3.2197 -1.6707  1.5765
  263MOL0     H34657   8.709   6.614   0.432  1.8603  0.9565  1.3713
  263MOL0     H34658   8.541   6.669   0.447  0.0493 -0.2900 -0.5629
  263MOL0     H34659   8.664   6.501   0.668 -0.2398  0.3415  1.6241
  263MOL0     H34660   8.494   6.547   0.645  0.6589  0.1423  0.0853
  263MOL0     H34661   8.661   6.385   0.454 -0.3630  1.9433  1.0425
  263MOL0     H34662   8.496   6.411   0.417  1.3459  3.2559 -2.0353
  263MOL0     H34663   8.605   6.240   0.645  0.4941  2.0240  1.1194
  263MOL0     H34664   8.513   6.196   0.500  0.6005 -0.9035  0.3957
  263MOL0     H34665   8.408   6.333   0.755 -1.2110 -1.9622  1.2468
  263MOL0     H34666   8.340   6.372   0.605  0.9438 -0.3943  0.8271
  263MOL0     H34667   8.384   6.093   0.725  0.7216  0.8338  1.1805
  263MOL0     H34668   8.304   6.118   0.562  1.5989  2.5619 -2.0233
  263MOL0     H34669   8.069   6.252   0.566 -0.1936  0.3280  0.2698
  263MOL0     H34670   7.824   6.298   0.659 -1.0552 -0.6937  0.8992
  263MOL0     H34671   7.879   6.435   0.750  1.2023  0.2676 -0.3766
  263MOL0     H34672   7.806   6.320   0.964  1.0842  0.4265 -0.8365
  263MOL0     H34673   7.743   6.182   0.862  2.3943 -1.5180 -2.5510
  263MOL0     H34674   7.649   6.474   0.848 -2.4948  0.6240  0.6241
  263MOL0     H34675   7.582   6.333   0.751 -0.5384 -0.8230  0.3288
  263MOL0     H34676   7.578   6.380   1.049  0.1791 -2.0510  1.2596
  263MOL0     H34677   7.542   6.224   0.975 -2.4539  0.7017  0.6592
  263MOL0     H34678   7.180   6.504   0.892  0.6922 -1.5759 -1.4435
  263MOL0     H34679   6.984   6.477   1.009  0.2151  0.7737  2.0223
  263MOL0     H34680   6.676   6.582   1.155 -1.5861 -0.4798 -1.6680
  263MOL0     H34681   6.457   6.609   1.239  0.9947  0.3834  0.1148
  263MOL0     H34682   6.238   6.602   1.312  2.9267  1.9216  1.2387
  263MOL0     H34683   6.290   6.553   1.475  2.1013  0.4891 -2.4902
  263MOL0     H34684   6.018   6.480   1.337  1.8401 -1.0196 -0.6783
  263MOL0     H34685   6.038   6.586   1.474 -0.7740 -0.7555  0.1933
  263MOL0     H34686   6.126   6.386   1.600 -1.8388  0.1310  1.1184
  263MOL0     H34687   6.088   6.278   1.470  2.2396  1.1008  0.7455
  263MOL0     H34688   5.894   6.448   1.628  1.2417  0.3540  0.5796
  263MOL0     H34689   5.844   6.351   1.478 -2.9883  0.2362  2.9453
  263MOL0     H34690   5.958   6.250   1.738  0.9159 -1.2628 -0.1268
  263MOL0     H34691   5.934   6.149   1.603 -1.1267  0.4711 -1.1761
  263MOL0     H34692   5.689   6.221   1.587 -0.2168 -0.8088  0.1421
  263MOL0     H34693   5.712   6.291   1.754  2.1504 -2.3483  4.1060
  263MOL0     H34694   5.740   5.995   1.659 -1.0044  0.9451 -1.0422
  263MOL0     H34695   5.786   6.035   1.817 -0.7345 -2.5114  0.0671
  263MOL0     H34696   5.557   5.945   1.785 -2.3274  0.8736  0.5600
  263MOL0     H34697   5.513   6.104   1.714  0.5222  1.5914 -0.4742
  263MOL0     H34698   6.458   6.193   1.387  1.6701  1.7047  3.0811
  263MOL0     H34699   6.689   6.178   1.296 -1.6066 -1.2188 -0.0331
  263MOL0     H34700   7.147   6.138   1.208  3.4564  0.9475  1.8355
  263MOL0     H34701   7.376   6.196   1.148 -0.4484  0.0548 -0.6472
  263MOL0     H34702   9.073   6.860   0.669 -0.5422 -0.1722 -0.5284
  263MOL0     H34703   9.313   6.866   0.648 -0.0229  0.3964  0.8646
  263MOL0     H34704   9.748   6.701   0.216  1.9532  0.1768 -1.1370
  263MOL0     H34705   9.988   6.713   0.263 -0.2197 -0.1017 -0.0828
  263MOL0     H34706  10.284   6.919   0.411  0.9495 -1.3827  2.7184
  263MOL0     H34707  10.195   6.852   0.276 -1.7079 -1.0460  0.5146
  263MOL0     H34708  10.295   6.718   0.525 -3.0670 -2.1730  1.5967
  263MOL0     H34709  10.203   6.623   0.411 -3.0287  2.7350 -0.1176
  263MOL0     H34710  10.406   6.698   0.247  0.6117  0.0305  0.1316
  263MOL0     H34711  10.398   6.555   0.347  0.4374  0.0979  3.0421
  263MOL0     H34712  10.511   6.835   0.411 -0.3239 -0.9496 -3.8686
  263MOL0     H34713  10.509   6.721   0.538  1.5359  2.4616  0.7644
  263MOL0     H34714  10.855   6.592   0.313  0.5268 -2.1462  3.0156
  263MOL0     H34715   9.925   6.982   0.572 -2.5077  2.2124 -0.1920
  263MOL0     H34716   9.674   6.967   0.540  0.5993 -0.5238  0.9104
  264MOL0     O34717  10.819   1.184   7.404 -0.3333 -0.1770  0.2585
  264MOL0     C34718  10.840   1.106   7.311 -0.0670  0.0310  0.0579
  264MOL0     O34719  10.761   1.010   7.274  0.2526  0.5331 -0.8412
  264MOL0     C34720  10.643   0.986   7.343  0.5516 -0.4223  0.1227
  264MOL0     C34721  10.595   1.043   7.464  0.1108 -0.7194  0.0409
  264MOL0     C34722  10.480   0.988   7.520  0.2363  0.1627  0.1146
  264MOL0     C34723  10.412   0.883   7.457 -0.5543  0.2458 -0.2676
  264MOL0     O34724  10.309   0.818   7.521  0.4004  0.4719  0.7013
  264MOL0     C34725  10.208   0.910   7.561  0.0756  0.6909 -0.1904
  264MOL0     C34726  10.085   0.833   7.593  1.0133 -0.5482 -0.6904
  264MOL0     C34727   9.964   0.928   7.620  0.2912 -0.0121 -0.4547
  264MOL0     C34728   9.859   0.848   7.697  0.1457 -0.0096  0.3464
  264MOL0     C34729   9.728   0.929   7.707 -0.2288 -0.0107 -0.5820
  264MOL0     C34730   9.642   0.948   7.588 -0.5256  0.7384 -0.3563
  264MOL0     C34731   9.493   0.980   7.625  0.2018  0.3967 -0.3579
  264MOL0     C34732   9.468   1.127   7.620 -0.8917 -0.6419  0.0709
  264MOL0     N34733   9.329   1.165   7.657 -0.0954  0.1081 -1.0146
  264MOL0     C34734   9.251   1.266   7.599 -0.5331  0.2801  0.5178
  264MOL0     C34735   9.135   1.248   7.658  0.5617  0.4038 -0.7154
  264MOL0     C34736   9.012   1.311   7.625  0.7733  0.0464  0.9588
  264MOL0     C34737   8.906   1.198   7.605 -0.8160  0.0786  0.3926
  264MOL0     C34738   8.771   1.257   7.579  0.0940  0.0247 -0.2138
  264MOL0     C34739   8.658   1.149   7.584  0.1442  0.6278 -0.8757
  264MOL0     O34740   8.669   1.057   7.477  0.2587 -0.1650 -0.1571
  264MOL0     C34741   8.667   0.923   7.513  0.8607  0.5434 -0.5343
  264MOL0     C34742   8.570   0.862   7.595  0.2526  0.3711 -0.1870
  264MOL0     C34743   8.588   0.727   7.626 -0.2225  0.6169 -0.0185
  264MOL0     C34744   8.702   0.651   7.587 -0.5410 -0.2535  0.1379
  264MOL0     C34745   8.720   0.509   7.626 -0.1692  0.0223 -0.7590
  264MOL0     O34746   8.645   0.460   7.736  0.3064 -0.2951 -0.2271
  264MOL0     C34747   8.630   0.324   7.753 -0.5918  0.1400 -0.3203
  264MOL0     C34748   8.737   0.234   7.777 -0.3727 -0.6641 -0.3264
  264MOL0     C34749   8.705   0.103   7.800 -1.2739 -0.0041  0.3003
  264MOL0     C34750   8.580   0.053   7.798 -0.5361  0.3184  0.2049
  264MOL0     O34751   8.560  -0.076   7.813 -0.0355 -0.4171 -0.6126
  264MOL0     C34752   8.435  -0.125   7.864 -0.1586  0.9333 -0.4768
  264MOL0     C34753   8.456  -0.268   7.925 -0.3448  0.0619  0.2128
  264MOL0     C34754   8.329  -0.326   7.976  1.0749  0.1876 -0.1829
  264MOL0     C34755   8.293  -0.255   8.107  0.4526  0.4678  0.5382
  264MOL0     C34756   8.154  -0.288   8.178 -0.0052  0.7148  0.4329
  264MOL0     C34757   8.034  -0.224   8.095 -0.3831  0.4287 -0.1671
  264MOL0     C34758   7.900  -0.271   8.153  0.1855  0.2189  0.5666
  264MOL0     C34759   7.875  -0.423   8.176  0.1239 -0.5591  0.0142
  264MOL0    Cl34760   7.918  -0.506   8.029 -0.2255 -0.0407 -0.3064
  264MOL0     C34761   8.474   0.146   7.764 -0.5529 -0.2256  0.5740
  264MOL0     C34762   8.502   0.281   7.754  0.0887  0.0603 -0.7210
  264MOL0     O34763   8.790   0.442   7.550 -0.0737  0.0026 -0.6798
  264MOL0     C34764   8.797   0.705   7.501 -0.3982 -0.4723 -0.2007
  264MOL0     C34765   8.769   0.841   7.465  0.0851 -0.0410 -0.3827
  264MOL0     N34766   9.141   1.149   7.755  0.7765  0.2673 -0.4074
  264MOL0     N34767   9.250   1.095   7.739  0.5437  0.4441 -0.7013
  264MOL0     C34768  10.455   0.832   7.336  0.3768  0.3253 -0.6360
  264MOL0     C34769  10.572   0.878   7.283 -0.3263 -1.3418 -0.5480
  264MOL0     C34770  10.968   1.110   7.235  0.0467 -0.0878  0.1009
  264MOL0     C34771  11.080   1.183   7.285  0.1552  0.1754 -0.0698
  264MOL0     C34772  11.187   1.198   7.206 -0.0198  0.4560  0.3983
  264MOL0     C34773  11.197   1.152   7.067  0.1056  0.0193 -0.9828
  264MOL0     O34774  11.305   1.157   6.989 -0.6131  0.3316 -0.0662
  264MOL0     C34775  11.403   1.261   7.013  0.1756  0.5694 -0.3665
  264MOL0     C34776  11.513   1.256   6.910  0.3091  1.0940  0.4335
  264MOL0     C34777  11.594   1.124   6.917 -1.1202  0.9307 -0.1857
  264MOL0     C34778  11.752   1.141   6.915 -0.7760  0.5923 -1.0022
  264MOL0     C34779  11.796   1.231   6.807 -0.8586  0.6066  0.6346
  264MOL0     C34780  11.836   1.300   6.712 -0.0079 -0.8057 -0.5929
  264MOL0     C34781  11.092   1.075   7.024  0.0184 -0.1685  0.2561
  264MOL0     C34782  10.979   1.057   7.106 -0.1575  0.2759 -0.4118
  264MOL0     H34783  10.642   1.130   7.509 -1.3690 -0.8915  2.0630
  264MOL0     H34784  10.446   1.032   7.614 -1.7289 -1.4774  0.2598
  264MOL0     H34785  10.200   0.985   7.482  0.5131 -1.0906 -1.9813
  264MOL0     H34786  10.243   0.956   7.654 -0.7950 -0.0342  0.5228
  264MOL0     H34787  10.100   0.783   7.689 -2.9625  0.5116  0.6761
  264MOL0     H34788  10.060   0.766   7.511  1.1880  3.0028 -3.8997
  264MOL0     H34789   9.926   0.948   7.519 -1.3762 -0.0194  0.1510
  264MOL0     H34790   9.980   1.024   7.671 -2.7837  0.5022 -0.2790
  264MOL0     H34791   9.834   0.754   7.647  0.9648  0.4156 -0.9094
  264MOL0     H34792   9.893   0.828   7.799 -0.6832 -1.3424  0.3806
  264MOL0     H34793   9.742   1.023   7.761 -0.5981 -0.8943  1.1054
  264MOL0     H34794   9.673   0.864   7.776 -1.8887  0.7047 -1.1579
  264MOL0     H34795   9.642   0.852   7.535 -0.3028  1.1695 -1.1637
  264MOL0     H34796   9.682   1.030   7.527 -1.0300  3.1900  2.3820
  264MOL0     H34797   9.418   0.947   7.552 -1.5092  0.6992  1.1688
  264MOL0     H34798   9.460   0.934   7.718 -2.0735  1.7558 -0.4061
  264MOL0     H34799   9.484   1.162   7.517 -0.3613 -0.4887  0.2049
  264MOL0     H34800   9.543   1.178   7.680  0.5626 -2.1092 -0.4222
  264MOL0     H34801   9.262   1.340   7.521  0.9138  0.4439  0.8549
  264MOL0     H34802   9.027   1.362   7.530 -4.1102  1.4587  0.6491
  264MOL0     H34803   8.988   1.387   7.701 -0.5101 -0.2488  0.8756
  264MOL0     H34804   8.894   1.136   7.694 -1.6514 -3.3678 -1.9371
  264MOL0     H34805   8.943   1.123   7.535 -1.6598  0.0410 -0.0247
  264MOL0     H34806   8.759   1.341   7.648  2.7721  0.0793  0.3257
  264MOL0     H34807   8.761   1.301   7.480  0.1199  0.4019 -0.0540
  264MOL0     H34808   8.560   1.197   7.579 -0.0797  0.4800  1.1031
  264MOL0     H34809   8.668   1.092   7.678  3.3882 -0.8444 -1.9450
  264MOL0     H34810   8.485   0.921   7.628  0.3689 -0.0609  0.9236
  264MOL0     H34811   8.509   0.671   7.675 -0.4651  1.2804  0.3672
  264MOL0     H34812   8.839   0.271   7.767 -1.0400  0.9802 -1.6976
  264MOL0     H34813   8.782   0.032   7.830 -0.7056 -0.7257 -2.5891
  264MOL0     H34814   8.361  -0.118   7.783 -3.4929  0.6775  2.3073
  264MOL0     H34815   8.388  -0.061   7.939  0.9988 -0.0837  1.1734
  264MOL0     H34816   8.526  -0.253   8.008  1.8685  4.5371 -2.0584
  264MOL0     H34817   8.506  -0.325   7.846 -0.9942 -1.1808  0.6840
  264MOL0     H34818   8.331  -0.431   8.006 -0.2645  0.0990 -0.3414
  264MOL0     H34819   8.245  -0.313   7.907  1.7067  1.1321 -0.7876
  264MOL0     H34820   8.375  -0.269   8.178  1.1273 -0.5399 -0.4129
  264MOL0     H34821   8.292  -0.145   8.101  3.0504  0.7405  3.0026
  264MOL0     H34822   8.149  -0.253   8.282  2.3238 -0.7632  1.1108
  264MOL0     H34823   8.149  -0.397   8.176 -4.2921  0.6858 -2.3674
  264MOL0     H34824   8.040  -0.249   7.989 -1.4072  1.2308 -0.4273
  264MOL0     H34825   8.043  -0.116   8.103 -0.2167  0.2805  2.4679
  264MOL0     H34826   7.892  -0.226   8.252 -1.0077  0.6297  0.2990
  264MOL0     H34827   7.822  -0.233   8.086 -1.2519 -2.3768  0.6375
  264MOL0     H34828   7.771  -0.434   8.207  0.6232  0.6685  2.3326
  264MOL0     H34829   7.937  -0.456   8.259 -1.1481 -2.8641  0.1513
  264MOL0     H34830   8.376   0.102   7.753 -1.0539  0.3887  2.3747
  264MOL0     H34831   8.419   0.348   7.737 -2.6466 -1.7031  3.9491
  264MOL0     H34832   8.883   0.646   7.473 -1.9634 -4.2472  2.1455
  264MOL0     H34833   8.837   0.879   7.389 -2.3574 -1.6035 -3.6407
  264MOL0     H34834  10.398   0.765   7.273  0.3100  0.7795 -1.0680
  264MOL0     H34835  10.599   0.834   7.187 -0.8808 -1.1659 -0.7916
  264MOL0     H34836  11.066   1.216   7.387 -0.0808  0.1246 -0.0834
  264MOL0     H34837  11.272   1.240   7.258  1.0291  0.6752 -1.4097
  264MOL0     H34838  11.439   1.249   7.116 -1.9915 -1.0510  0.2974
  264MOL0     H34839  11.354   1.358   7.017  1.0262  0.9714  1.2368
  264MOL0     H34840  11.463   1.256   6.813 -1.3231  1.7346  1.2317
  264MOL0     H34841  11.565   1.351   6.924 -0.2035  1.7313 -1.6454
  264MOL0     H34842  11.568   1.054   6.837 -2.2058 -1.6334  2.2428
  264MOL0     H34843  11.578   1.078   7.015 -1.4674  0.7410 -0.3303
  264MOL0     H34844  11.793   1.174   7.011  0.3796  2.8036 -2.1805
  264MOL0     H34845  11.791   1.039   6.909 -3.5651 -0.9036  2.4349
  264MOL0     H34846  11.880   1.359   6.635  3.1645  1.2646  2.5341
  264MOL0     H34847  11.098   1.032   6.924 -3.1732  2.8288 -1.4252
  264MOL0     H34848  10.897   0.997   7.065 -0.9662  0.5693  0.7299
  265MOL0     O34849   3.745   5.673  10.997  0.0858  0.1410 -0.2670
  265MOL0     C34850   3.687   5.654  11.104  0.8016 -0.8854  0.1376
  265MOL0     O34851   3.548   5.639  11.116  0.6181 -0.0069 -0.0203
  265MOL0     C34852   3.473   5.572  11.021 -0.3189  0.1664 -0.4889
  265MOL0     C34853   3.338   5.606  11.004  0.4643 -0.6510  0.2974
  265MOL0     C34854   3.259   5.544  10.907 -0.6032 -0.4598 -0.0769
  265MOL0     C34855   3.314   5.436  10.831 -0.3152 -0.3154 -0.8756
  265MOL0     O34856   3.242   5.384  10.735  0.4017 -0.0983  0.5028
  265MOL0     C34857   3.281   5.267  10.675 -0.4023 -1.4015  0.5866
  265MOL0     C34858   3.178   5.224  10.574  0.9462 -0.4504  0.1040
  265MOL0     C34859   3.063   5.157  10.640  0.4079  0.4740  0.1816
  265MOL0     C34860   2.981   5.101  10.518  0.7743  0.3576 -0.4100
  265MOL0     C34861   2.829   5.086  10.539  0.9076 -0.1570  0.4411
  265MOL0     C34862   2.779   5.004  10.658 -1.1213  0.0311 -0.3062
  265MOL0     C34863   2.639   4.964  10.631  0.9849 -0.2168 -0.1187
  265MOL0     C34864   2.559   4.909  10.756 -0.8657 -0.9740  0.6320
  265MOL0     N34865   2.634   4.814  10.832  1.4044  0.4102  0.5797
  265MOL0     C34866   2.664   4.681  10.783  0.1040  0.3834 -0.4408
  265MOL0     C34867   2.722   4.618  10.888  0.3820  1.1188 -1.0134
  265MOL0     C34868   2.790   4.479  10.895 -0.0854  0.0475 -0.4634
  265MOL0     C34869   2.699   4.365  10.917  0.0358  0.1704  0.2086
  265MOL0     C34870   2.770   4.233  10.941 -0.2982 -0.7768 -0.1565
  265MOL0     C34871   2.685   4.112  10.928 -0.6814  0.2149 -0.3469
  265MOL0     O34872   2.766   4.002  10.965  0.1409 -0.3566  0.0080
  265MOL0     C34873   2.698   3.887  10.965 -0.5961 -0.2433  0.4280
  265MOL0     C34874   2.613   3.841  10.865  0.8367 -0.0050  0.4382
  265MOL0     C34875   2.537   3.731  10.873  0.4400  0.3230 -0.8306
  265MOL0     C34876   2.542   3.656  10.992  0.3818  0.7427  0.0651
  265MOL0     C34877   2.441   3.543  11.014 -0.2150  0.0072  0.0031
  265MOL0     O34878   2.466   3.467  11.122  0.5125 -0.2135 -0.2182
  265MOL0     C34879   2.363   3.391  11.163  0.1520  0.3198  0.0686
  265MOL0     C34880   2.313   3.429  11.289 -0.6418  0.1774  0.3015
  265MOL0     C34881   2.214   3.352  11.356  0.0023 -0.0353  0.0729
  265MOL0     C34882   2.165   3.236  11.295  0.8166 -0.6198  0.6175
  265MOL0     O34883   2.069   3.158  11.358 -0.1826  0.2963  0.0535
  265MOL0     C34884   1.941   3.186  11.307 -0.4521 -0.5333  0.4277
  265MOL0     C34885   1.835   3.117  11.396 -0.4099 -1.1705  1.0027
  265MOL0     C34886   1.845   2.966  11.393  0.6894 -0.4881  0.3722
  265MOL0     C34887   1.710   2.899  11.444  0.7535 -0.3448  0.0459
  265MOL0     C34888   1.701   2.753  11.427  0.1376  0.0749 -0.3028
  265MOL0     C34889   1.749   2.682  11.558 -0.6873 -0.1540  0.1439
  265MOL0     C34890   1.748   2.532  11.551 -0.9661 -0.1204  1.0768
  265MOL0     C34891   1.798   2.456  11.671  0.4143  0.4639  0.5312
  265MOL0    Cl34892   1.973   2.479  11.687  0.1461  0.0660  0.5108
  265MOL0     C34893   2.217   3.194  11.170 -0.8864  0.9691 -0.3140
  265MOL0     C34894   2.314   3.271  11.102  0.4658 -0.7251  0.7611
  265MOL0     O34895   2.348   3.529  10.931 -0.8084  0.0191  0.1403
  265MOL0     C34896   2.633   3.693  11.087  0.0985 -0.2202 -0.2821
  265MOL0     C34897   2.715   3.806  11.076  0.6383 -0.8236 -0.6175
  265MOL0     N34898   2.732   4.707  10.989  0.9814  0.2601 -0.5597
  265MOL0     N34899   2.689   4.821  10.952 -0.1164 -0.2125 -0.2677
  265MOL0     C34900   3.454   5.396  10.856  0.2335  0.9588  0.6599
  265MOL0     C34901   3.531   5.472  10.951  0.0479  1.0558 -0.4650
  265MOL0     C34902   3.763   5.676  11.240 -0.3702  0.3967  0.1142
  265MOL0     C34903   3.897   5.712  11.241  0.2551 -0.8549  0.4880
  265MOL0     C34904   3.970   5.722  11.364  0.2522 -0.2082  0.8984
  265MOL0     C34905   3.910   5.700  11.492  0.7113  0.1906  0.7088
  265MOL0     O34906   3.984   5.726  11.597 -0.7297 -0.4978 -0.3563
  265MOL0     C34907   3.932   5.725  11.726  0.0093  0.4777 -0.2724
  265MOL0     C34908   3.827   5.834  11.764 -0.1889  0.6417  0.6206
  265MOL0     C34909   3.907   5.956  11.799 -0.1922  0.2219 -0.0154
  265MOL0     C34910   3.835   6.083  11.854 -0.3746  0.2402  0.7556
  265MOL0     C34911   3.808   6.064  11.988  0.1641 -0.0977  0.8487
  265MOL0     C34912   3.781   6.048  12.102  0.7511  0.4211 -1.0884
  265MOL0     C34913   3.774   5.666  11.487  0.5092  0.5230  0.2832
  265MOL0     C34914   3.707   5.664  11.365  0.7762 -0.6362  0.2841
  265MOL0     H34915   3.303   5.681  11.075  1.3775  0.6547 -0.5834
  265MOL0     H34916   3.153   5.561  10.891 -0.5311 -1.5633 -1.9687
  265MOL0     H34917   3.298   5.181  10.740 -4.1792 -3.1205 -0.4314
  265MOL0     H34918   3.374   5.279  10.618 -1.9129 -3.4379 -2.5847
  265MOL0     H34919   3.220   5.147  10.510 -0.2480 -2.0315  1.1338
  265MOL0     H34920   3.133   5.303  10.513  1.6818  0.7725  1.0835
  265MOL0     H34921   3.008   5.235  10.692  0.3522  1.4057 -1.2399
  265MOL0     H34922   3.097   5.079  10.709  2.0722  0.5165 -0.5387
  265MOL0     H34923   2.993   5.160  10.427  3.5394  0.7236  0.1062
  265MOL0     H34924   3.025   5.005  10.491  0.8768  0.4491 -0.5646
  265MOL0     H34925   2.794   5.042  10.446 -0.9743  1.6218  0.2373
  265MOL0     H34926   2.772   5.179  10.532 -1.0473 -1.4448 -2.5544
  265MOL0     H34927   2.787   5.061  10.751 -1.0407 -2.0563  1.0299
  265MOL0     H34928   2.853   4.926  10.671 -1.2356 -0.0866 -0.3649
  265MOL0     H34929   2.588   5.050  10.586  0.7446 -0.3380 -0.0811
  265MOL0     H34930   2.644   4.886  10.554  1.3176 -0.4210  0.1065
  265MOL0     H34931   2.464   4.863  10.727 -1.3884  0.2351  0.3417
  265MOL0     H34932   2.539   4.989  10.828 -2.1624 -3.6330  3.4463
  265MOL0     H34933   2.639   4.645  10.684  1.1576 -0.8388 -0.2738
  265MOL0     H34934   2.863   4.478  10.976  0.7161  0.5399 -1.1526
  265MOL0     H34935   2.850   4.471  10.803 -2.8773  0.9767 -2.5069
  265MOL0     H34936   2.624   4.349  10.839 -0.3681 -1.2427  0.8584
  265MOL0     H34937   2.638   4.394  11.002  0.8680 -0.1873  0.9469
  265MOL0     H34938   2.848   4.216  10.865  1.8533 -1.3338  2.0469
  265MOL0     H34939   2.822   4.240  11.037  0.0141 -3.3558 -0.0492
  265MOL0     H34940   2.633   4.108  10.832 -0.6315  1.2521 -0.4227
  265MOL0     H34941   2.612   4.122  11.010  1.4770  3.3005  1.3796
  265MOL0     H34942   2.586   3.900  10.778  0.4953  2.5994  2.1653
  265MOL0     H34943   2.467   3.695  10.799  1.1524 -0.3612 -1.1853
  265MOL0     H34944   2.369   3.507  11.339 -0.7256  2.0800 -2.3242
  265MOL0     H34945   2.179   3.366  11.458  0.2662  1.9416 -0.0754
  265MOL0     H34946   1.941   3.150  11.204 -0.8575 -2.5250  1.0902
  265MOL0     H34947   1.933   3.295  11.308  0.7866 -0.4273  1.1940
  265MOL0     H34948   1.735   3.157  11.379 -0.4263 -1.7225 -0.2928
  265MOL0     H34949   1.865   3.149  11.496 -0.5969  0.7862  0.4764
  265MOL0     H34950   1.924   2.927  11.458  1.0901  2.5787  1.9069
  265MOL0     H34951   1.869   2.928  11.293 -2.3269  0.5285 -0.8550
  265MOL0     H34952   1.694   2.938  11.544  2.7912  3.1478 -0.8103
  265MOL0     H34953   1.640   2.941  11.371 -1.1752 -1.6105  1.0825
  265MOL0     H34954   1.751   2.717  11.337 -0.2395 -1.9317  0.2376
  265MOL0     H34955   1.596   2.724  11.424 -0.0110  0.6391 -0.6815
  265MOL0     H34956   1.689   2.716  11.643 -3.3001 -0.4124 -1.4609
  265MOL0     H34957   1.848   2.723  11.580  0.5582 -3.2510  0.7727
  265MOL0     H34958   1.649   2.495  11.522  0.4098 -2.0444 -1.5648
  265MOL0     H34959   1.811   2.513  11.464 -1.8137 -1.1016  0.6553
  265MOL0     H34960   1.783   2.348  11.662 -2.1184  0.9471 -2.4766
  265MOL0     H34961   1.750   2.495  11.761 -1.2943  2.8465 -1.2865
  265MOL0     H34962   2.203   3.089  11.145 -0.3159  0.8664 -0.1982
  265MOL0     H34963   2.364   3.233  11.013  1.9478  0.3489  1.1166
  265MOL0     H34964   2.636   3.644  11.184 -0.9070  0.3982  0.0779
  265MOL0     H34965   2.786   3.806  11.157 -1.5118 -4.0084  1.5268
  265MOL0     H34966   3.503   5.321  10.795 -1.0210  0.6627 -0.0305
  265MOL0     H34967   3.636   5.453  10.971  0.4293  3.2720 -0.0653
  265MOL0     H34968   3.954   5.722  11.149 -1.0234  0.7881 -0.1823
  265MOL0     H34969   4.071   5.761  11.361  1.3956 -2.9545 -0.5911
  265MOL0     H34970   4.017   5.738  11.794 -0.7695 -0.5410  0.9540
  265MOL0     H34971   3.878   5.630  11.736 -1.6696  1.2435 -1.5399
  265MOL0     H34972   3.745   5.849  11.692  0.3620  1.1315  0.0890
  265MOL0     H34973   3.772   5.804  11.854 -2.3999  2.5142 -0.0123
  265MOL0     H34974   3.956   5.988  11.707 -0.0123 -4.2145 -1.7156
  265MOL0     H34975   3.983   5.919  11.869  1.1285 -0.8501 -1.9380
  265MOL0     H34976   3.913   6.160  11.846 -0.1816 -0.0972 -0.8293
  265MOL0     H34977   3.748   6.121  11.801 -2.2068 -0.5811  2.9931
  265MOL0     H34978   3.744   6.038  12.202 -1.1960 -1.4298 -1.9031
  265MOL0     H34979   3.730   5.639  11.582 -4.1703 -1.5173 -2.1630
  265MOL0     H34980   3.599   5.652  11.364  0.9078 -1.9590  0.5853
  266MOL0     O34981   2.557  11.111   6.936  0.7383 -0.5258 -0.4316
  266MOL0     C34982   2.555  11.010   6.865  0.0058  0.1407 -0.5572
  266MOL0     O34983   2.456  10.979   6.787  0.3440 -0.0315  0.3493
  266MOL0     C34984   2.346  11.077   6.776  0.7849  0.6552  0.1103
  266MOL0     C34985   2.247  11.064   6.867 -0.4556 -0.4568 -0.4283
  266MOL0     C34986   2.159  11.173   6.890  0.0880  0.2986 -0.2298
  266MOL0     C34987   2.169  11.294   6.818 -1.0547  0.4267  0.4820
  266MOL0     O34988   2.091  11.400   6.841  0.0847 -0.0208  0.5972
  266MOL0     C34989   2.018  11.459   6.730 -0.4437 -0.9685  0.7267
  266MOL0     C34990   1.896  11.537   6.785 -0.2323 -0.4194 -0.0979
  266MOL0     C34991   1.819  11.610   6.667 -0.4820  0.2393  0.5140
  266MOL0     C34992   1.724  11.720   6.715 -0.6712  0.1593 -0.0076
  266MOL0     C34993   1.690  11.827   6.609 -0.8770  0.3500  0.0452
  266MOL0     C34994   1.610  11.777   6.491 -0.6174 -0.5618  0.0787
  266MOL0     C34995   1.462  11.747   6.504  0.2824  0.4967  0.3569
  266MOL0     C34996   1.379  11.872   6.527  0.9594 -0.1691  0.3772
  266MOL0     N34997   1.229  11.853   6.510 -0.0990 -0.3164 -1.3549
  266MOL0     C34998   1.165  11.834   6.387 -1.2871 -0.0627 -0.3497
  266MOL0     C34999   1.037  11.820   6.414  0.5102 -0.2168 -0.6714
  266MOL0     C35000   0.930  11.817   6.309 -0.2414 -0.4169  0.3142
  266MOL0     C35001   0.866  11.948   6.289  1.2291  0.1472 -1.2093
  266MOL0     C35002   0.778  11.950   6.168 -0.4749 -0.5090  0.0934
  266MOL0     C35003   0.655  11.866   6.172 -0.0119  0.1132  0.1951
  266MOL0     O35004   0.554  11.909   6.266 -0.1165 -0.0894 -0.4141
  266MOL0     C35005   0.453  11.832   6.310 -0.1230  0.3417  0.2944
  266MOL0     C35006   0.421  11.712   6.247  0.3646  0.3804 -0.3079
  266MOL0     C35007   0.317  11.631   6.300 -0.9342  0.3705 -0.2320
  266MOL0     C35008   0.249  11.671   6.408  0.1673 -0.6422  0.6215
  266MOL0     C35009   0.133  11.605   6.457  0.1294  0.0884 -0.4652
  266MOL0     O35010   0.061  11.662   6.560  0.4569  0.1685 -0.2013
  266MOL0     C35011  -0.053  11.598   6.599 -0.2264  0.8250 -0.1691
  266MOL0     C35012  -0.061  11.543   6.731 -1.1267  0.2827  0.9851
  266MOL0     C35013  -0.177  11.502   6.782  0.0448 -0.2689  0.4456
  266MOL0     C35014  -0.290  11.499   6.702 -0.4412 -0.2793  0.0427
  266MOL0     O35015  -0.414  11.476   6.762 -0.2486 -0.0346 -0.0814
  266MOL0     C35016  -0.427  11.353   6.835  0.0762 -0.0137 -0.1043
  266MOL0     C35017  -0.569  11.332   6.861  0.4106 -0.0974 -0.4607
  266MOL0     C35018  -0.646  11.283   6.741  0.5218  0.1143 -0.3232
  266MOL0     C35019  -0.790  11.259   6.778 -0.2927 -0.1856 -0.8512
  266MOL0     C35020  -0.865  11.205   6.659  0.1545 -0.2343  0.4874
  266MOL0     C35021  -0.973  11.105   6.696  0.0887  0.7362  0.1913
  266MOL0     C35022  -1.095  11.176   6.757  0.1876 -0.7234  0.9562
  266MOL0     C35023  -1.196  11.077   6.805 -0.8208  0.5721  0.6553
  266MOL0    Cl35024  -1.346  11.160   6.866 -0.3377 -0.0122  0.3951
  266MOL0     C35025  -0.284  11.551   6.568 -0.2619 -0.4599  0.0655
  266MOL0     C35026  -0.161  11.584   6.510 -0.3668  0.4172  0.0462
  266MOL0     O35027   0.100  11.494   6.410 -0.8063  0.2233 -0.0931
  266MOL0     C35028   0.277  11.792   6.465 -0.8114  0.6488  0.5245
  266MOL0     C35029   0.377  11.873   6.418  0.7004  0.0691  0.3109
  266MOL0     N35030   1.021  11.819   6.550  0.8860  0.6957  1.1213
  266MOL0     N35031   1.133  11.834   6.608 -0.0162  0.7678 -0.1714
  266MOL0     C35032   2.260  11.294   6.705 -0.5651  0.2386 -0.5134
  266MOL0     C35033   2.356  11.186   6.694  0.3222 -0.2872  0.7812
  266MOL0     C35034   2.672  10.930   6.866  0.1650  0.7495  0.6598
  266MOL0     C35035   2.762  10.938   6.974 -0.0539 -0.1978  1.5289
  266MOL0     C35036   2.887  10.874   6.967  0.0177  0.1143 -0.6523
  266MOL0     C35037   2.917  10.785   6.858  1.0994 -0.2463  0.2608
  266MOL0     O35038   3.031  10.707   6.879  0.2420  0.2860  0.1067
  266MOL0     C35039   3.077  10.636   6.765  0.3757  0.6419 -0.3977
  266MOL0     C35040   3.208  10.567   6.791  0.2433  0.7961 -0.1973
  266MOL0     C35041   3.257  10.484   6.669 -0.3381 -0.6702  0.5568
  266MOL0     C35042   3.340  10.368   6.702  0.5323  0.5615 -0.0351
  266MOL0     C35043   3.262  10.270   6.781 -0.0303 -0.4103  0.5090
  266MOL0     C35044   3.210  10.194   6.858  0.5818  0.2153  0.6078
  266MOL0     C35045   2.824  10.772   6.755 -0.3872 -0.1925 -0.2728
  266MOL0     C35046   2.700  10.840   6.759 -0.1275 -0.4735  0.4774
  266MOL0     H35047   2.235  10.973   6.925  0.7077 -2.6757 -3.3925
  266MOL0     H35048   2.069  11.158   6.949 -0.8268 -2.3316 -2.0993
  266MOL0     H35049   1.987  11.390   6.651 -0.8005  2.0586 -1.9987
  266MOL0     H35050   2.090  11.527   6.682 -2.6870  1.8007  0.9982
  266MOL0     H35051   1.929  11.606   6.863  2.2395  0.3204 -1.6750
  266MOL0     H35052   1.821  11.466   6.822  2.2873 -2.0919  2.1556
  266MOL0     H35053   1.773  11.529   6.608 -1.2251  0.5003  0.7194
  266MOL0     H35054   1.895  11.663   6.609  1.4637 -0.7119  2.0723
  266MOL0     H35055   1.638  11.666   6.756 -0.0527 -0.3168  0.6948
  266MOL0     H35056   1.773  11.762   6.804  2.0745 -0.7910 -0.9531
  266MOL0     H35057   1.785  11.870   6.576  0.0405 -0.7941  1.1361
  266MOL0     H35058   1.635  11.907   6.659  0.5659  0.9752  0.6858
  266MOL0     H35059   1.653  11.684   6.454  0.9200  0.5758 -1.1311
  266MOL0     H35060   1.627  11.861   6.423 -2.6421 -0.8230 -0.8378
  266MOL0     H35061   1.437  11.686   6.417 -1.7730  1.1700  0.4185
  266MOL0     H35062   1.454  11.691   6.598  0.7215  0.3001  0.2789
  266MOL0     H35063   1.412  11.938   6.446  1.3156 -2.4864 -1.4638
  266MOL0     H35064   1.401  11.917   6.624 -0.0187  0.4336  0.3365
  266MOL0     H35065   1.209  11.853   6.289 -1.6072  1.3237 -0.2438
  266MOL0     H35066   0.855  11.745   6.343 -1.6467  0.8305 -0.0323
  266MOL0     H35067   0.967  11.793   6.209 -0.9661 -0.0367 -0.0512
  266MOL0     H35068   0.939  12.028   6.277  0.5255  1.3168  1.3762
  266MOL0     H35069   0.802  11.979   6.373 -2.5530 -0.6912 -3.5577
  266MOL0     H35070   0.738  12.051   6.154 -2.2690 -0.9182  1.6947
  266MOL0     H35071   0.844  11.925   6.085  1.1357  3.2953  0.0175
  266MOL0     H35072   0.685  11.764   6.195  0.2043 -0.4719 -2.3357
  266MOL0     H35073   0.624  11.864   6.067  2.2473 -2.1359 -0.5024
  266MOL0     H35074   0.468  11.671   6.158 -1.2641 -1.4047 -0.4201
  266MOL0     H35075   0.291  11.538   6.252 -2.1403  1.6848 -2.3051
  266MOL0     H35076   0.036  11.543   6.781 -0.5030  2.5224 -0.0640
  266MOL0     H35077  -0.189  11.456   6.879  0.6659  0.2736  0.7776
  266MOL0     H35078  -0.382  11.354   6.935  1.5456 -0.7088 -0.7308
  266MOL0     H35079  -0.380  11.269   6.783  2.3965  0.6844  0.7278
  266MOL0     H35080  -0.612  11.427   6.893  2.0643  0.6887 -0.4656
  266MOL0     H35081  -0.581  11.254   6.936 -3.0277  1.0823  0.4053
  266MOL0     H35082  -0.614  11.181   6.717  0.1619 -0.1459  0.2897
  266MOL0     H35083  -0.647  11.354   6.658 -1.1913 -0.9365 -1.2488
  266MOL0     H35084  -0.796  11.192   6.865 -0.8038  1.4374  0.4031
  266MOL0     H35085  -0.835  11.354   6.809  1.0834  0.5493 -1.0358
  266MOL0     H35086  -0.802  11.150   6.589  0.2960  0.1778  0.2884
  266MOL0     H35087  -0.910  11.291   6.608 -2.9395 -1.2129  1.3731
  266MOL0     H35088  -0.928  11.031   6.763  0.4160  0.6422 -0.1316
  266MOL0     H35089  -1.012  11.063   6.603  2.6703 -1.1218 -0.1584
  266MOL0     H35090  -1.068  11.245   6.837  1.3884 -1.7152  1.4295
  266MOL0     H35091  -1.149  11.234   6.681 -0.2298 -2.3283 -0.0211
  266MOL0     H35092  -1.153  11.008   6.879 -0.3293 -1.1274 -1.1308
  266MOL0     H35093  -1.231  11.024   6.716  1.4279  0.4937 -0.2362
  266MOL0     H35094  -0.377  11.561   6.513  0.6056 -2.2116 -1.8544
  266MOL0     H35095  -0.155  11.632   6.413  2.7764 -0.0958 -0.1168
  266MOL0     H35096   0.238  11.823   6.562  2.4186 -0.5769  2.3769
  266MOL0     H35097   0.399  11.967   6.468 -1.8205  1.8485 -1.6948
  266MOL0     H35098   2.270  11.382   6.643  0.1290 -0.6280 -1.6571
  266MOL0     H35099   2.441  11.187   6.627  1.1091 -1.6645  1.6920
  266MOL0     H35100   2.748  11.010   7.054  2.4936  1.6944  0.4184
  266MOL0     H35101   2.964  10.895   7.040 -0.4703 -2.3664  0.6810
  266MOL0     H35102   3.095  10.711   6.687 -0.7202  3.7424  2.1192
  266MOL0     H35103   3.008  10.557   6.732 -0.0618  0.3277  1.1940
  266MOL0     H35104   3.278  10.640   6.833 -0.7725  1.0538  1.0912
  266MOL0     H35105   3.194  10.496   6.873 -0.0106  0.2834 -0.6772
  266MOL0     H35106   3.308  10.556   6.606  0.5518  0.5129  2.5447
  266MOL0     H35107   3.170  10.457   6.608 -0.9879  1.0450  0.6775
  266MOL0     H35108   3.388  10.320   6.617  0.2658  0.4945 -0.1500
  266MOL0     H35109   3.426  10.394   6.765  1.5229 -0.1256 -1.0775
  266MOL0     H35110   3.156  10.148   6.938 -0.7151 -0.0563 -0.3925
  266MOL0     H35111   2.833  10.711   6.665 -0.7130 -0.4092 -0.1584
  266MOL0     H35112   2.645  10.830   6.666  1.0995  0.9035 -0.4417
  267MOL0     O35113   3.569   6.982   7.919 -0.5392  0.1795  0.1140
  267MOL0     C35114   3.585   6.927   7.814 -0.0411  0.3280 -0.2977
  267MOL0     O35115   3.506   6.827   7.768  0.6291  0.2318  0.7819
  267MOL0     C35116   3.397   6.806   7.846  0.0951 -0.2164 -0.0242
  267MOL0     C35117   3.289   6.902   7.849 -0.7659 -0.1995  1.1475
  267MOL0     C35118   3.171   6.875   7.930 -0.0097  0.2440  0.2781
  267MOL0     C35119   3.163   6.761   8.004 -0.0559 -0.4718 -0.4864
  267MOL0     O35120   3.040   6.762   8.071  0.1492  0.4025 -0.2351
  267MOL0     C35121   3.000   6.634   8.131 -0.1759  0.2061  0.7761
  267MOL0     C35122   2.899   6.663   8.227  0.1818  0.5662 -1.2026
  267MOL0     C35123   2.838   6.547   8.295  0.2579  1.4714 -0.2265
  267MOL0     C35124   2.773   6.450   8.195  0.0603 -0.0686 -0.3597
  267MOL0     C35125   2.673   6.350   8.261 -0.9317 -0.1768  0.3801
  267MOL0     C35126   2.743   6.253   8.355  0.1154  0.6574  0.9494
  267MOL0     C35127   2.641   6.167   8.423 -0.3162  0.6549  0.0408
  267MOL0     C35128   2.713   6.055   8.506 -0.7201  0.3495 -0.6619
  267MOL0     N35129   2.613   5.953   8.545 -0.4551  0.1488 -0.0859
  267MOL0     C35130   2.565   5.933   8.668 -0.3167  0.2482 -0.3493
  267MOL0     C35131   2.490   5.820   8.662  0.7011 -0.2859 -0.8635
  267MOL0     C35132   2.423   5.754   8.778  0.6568  0.3398 -0.3553
  267MOL0     C35133   2.271   5.790   8.785  0.0189  0.1666  0.0244
  267MOL0     C35134   2.202   5.695   8.680  0.2665 -0.0613 -0.1658
  267MOL0     C35135   2.058   5.664   8.709 -0.2998 -1.1012  0.0431
  267MOL0     O35136   1.990   5.603   8.602  0.2905  0.9780 -0.7122
  267MOL0     C35137   1.860   5.561   8.629  0.7404 -0.6188 -0.1681
  267MOL0     C35138   1.804   5.468   8.538 -0.3465 -0.4314 -0.7248
  267MOL0     C35139   1.676   5.420   8.548 -0.2699 -0.4353 -0.0450
  267MOL0     C35140   1.587   5.471   8.642  0.3484 -0.3589 -0.1005
  267MOL0     C35141   1.440   5.437   8.646  0.6455 -0.3791  0.0814
  267MOL0     O35142   1.401   5.336   8.562 -0.7400 -0.1969  0.4635
  267MOL0     C35143   1.267   5.326   8.553 -0.3394  0.1939  0.3857
  267MOL0     C35144   1.201   5.365   8.436  0.2921 -0.1635  0.6305
  267MOL0     C35145   1.064   5.347   8.422 -0.3405 -0.3679 -0.2593
  267MOL0     C35146   0.984   5.275   8.514  0.3848  0.7593 -1.1487
  267MOL0     O35147   0.851   5.274   8.489  0.1926  0.0655 -0.1775
  267MOL0     C35148   0.790   5.152   8.510 -0.3659  0.0734  0.3517
  267MOL0     C35149   0.680   5.124   8.404 -0.0644 -0.8705  0.1218
  267MOL0     C35150   0.563   5.213   8.426 -0.0255 -1.2975 -0.2473
  267MOL0     C35151   0.446   5.190   8.333  0.4679 -0.5309  0.6992
  267MOL0     C35152   0.331   5.294   8.356  0.1812 -0.3702 -0.3572
  267MOL0     C35153   0.209   5.273   8.271 -0.3817 -0.5533 -0.7654
  267MOL0     C35154   0.128   5.159   8.333  0.2123 -0.2259  0.3992
  267MOL0     C35155   0.047   5.080   8.228 -0.5400 -0.4341  0.3460
  267MOL0    Cl35156  -0.099   4.980   8.303 -0.3151 -0.2951  0.2630
  267MOL0     C35157   1.047   5.236   8.632  0.2156  0.3727 -0.7605
  267MOL0     C35158   1.186   5.262   8.651  0.2984  0.7727 -0.1801
  267MOL0     O35159   1.378   5.511   8.720  0.5256 -0.2616  0.8775
  267MOL0     C35160   1.648   5.559   8.742 -0.0588  0.2306 -0.8438
  267MOL0     C35161   1.780   5.598   8.736 -0.4333 -0.2668  0.3239
  267MOL0     N35162   2.508   5.770   8.540  0.6285 -0.6492  0.1468
  267MOL0     N35163   2.574   5.855   8.469 -0.0540 -0.1250  0.0929
  267MOL0     C35164   3.271   6.672   8.008 -0.2413 -0.3160 -0.2467
  267MOL0     C35165   3.391   6.695   7.936  0.4347  0.3704  0.3933
  267MOL0     C35166   3.700   6.947   7.728  0.1749 -0.7035 -0.2486
  267MOL0     C35167   3.798   7.045   7.762 -0.4471  0.9570  0.3667
  267MOL0     C35168   3.902   7.068   7.681 -0.7348 -0.1490  0.5063
  267MOL0     C35169   3.916   7.006   7.553 -0.6292  0.6985 -0.4467
  267MOL0     O35170   4.017   7.031   7.457 -0.0692 -0.1241  0.0406
  267MOL0     C35171   4.103   7.150   7.481 -0.1090  0.2206 -0.1786
  267MOL0     C35172   4.219   7.145   7.378  0.2721 -0.4132 -1.0414
  267MOL0     C35173   4.262   7.289   7.343 -0.1384 -0.4948 -0.2045
  267MOL0     C35174   4.388   7.282   7.263  0.4835 -0.7960 -0.3841
  267MOL0     C35175   4.496   7.257   7.360 -0.3724 -0.3922  0.3143
  267MOL0     C35176   4.582   7.237   7.441 -0.4538  0.0025 -0.5421
  267MOL0     C35177   3.822   6.905   7.516  0.3854  0.9498 -0.0997
  267MOL0     C35178   3.718   6.885   7.604  0.1628 -0.2819 -0.2972
  267MOL0     H35179   3.295   6.994   7.792 -0.5683 -0.1033  1.3234
  267MOL0     H35180   3.091   6.948   7.924  1.4911  2.0169  1.1889
  267MOL0     H35181   3.082   6.585   8.184  1.9989 -0.7706 -3.0712
  267MOL0     H35182   2.967   6.562   8.055  1.7540 -0.5798  0.6398
  267MOL0     H35183   2.815   6.724   8.191 -0.3716 -0.0111 -0.9179
  267MOL0     H35184   2.944   6.721   8.307 -0.0729 -1.7446  0.7437
  267MOL0     H35185   2.756   6.577   8.360 -0.3160 -0.8379  0.1981
  267MOL0     H35186   2.910   6.485   8.349  0.1716 -1.5353 -3.2292
  267MOL0     H35187   2.728   6.511   8.115  1.0172  1.0514 -0.0609
  267MOL0     H35188   2.844   6.380   8.150 -1.4791 -1.4960 -0.7015
  267MOL0     H35189   2.619   6.297   8.182  2.5131 -1.6316 -1.2209
  267MOL0     H35190   2.611   6.417   8.322  0.1914  0.9340  0.3415
  267MOL0     H35191   2.787   6.316   8.432  1.8894  0.1073  0.4172
  267MOL0     H35192   2.821   6.192   8.309 -0.5450  1.2640 -1.0812
  267MOL0     H35193   2.584   6.230   8.492  0.0340  0.4994  0.4759
  267MOL0     H35194   2.572   6.115   8.357 -0.9229 -1.4024  2.1364
  267MOL0     H35195   2.748   6.102   8.598 -2.1823  0.6763 -0.2516
  267MOL0     H35196   2.792   6.001   8.453 -1.7654 -1.4968 -0.4121
  267MOL0     H35197   2.592   5.993   8.754 -0.4056  1.1652 -0.9558
  267MOL0     H35198   2.456   5.794   8.874 -1.0997 -2.9643  1.8373
  267MOL0     H35199   2.446   5.648   8.765 -1.2305  0.0641 -1.7720
  267MOL0     H35200   2.264   5.897   8.764  1.5690  0.0640 -1.2513
  267MOL0     H35201   2.228   5.761   8.881  2.0314 -1.1113  0.5868
  267MOL0     H35202   2.200   5.751   8.586 -1.5062 -0.4337 -0.3856
  267MOL0     H35203   2.254   5.604   8.651  1.3549  0.6272 -0.4206
  267MOL0     H35204   2.005   5.753   8.745  0.5373 -0.8359  0.6362
  267MOL0     H35205   2.066   5.592   8.791 -3.6088 -2.9503 -1.0521
  267MOL0     H35206   1.874   5.444   8.458 -0.2339  1.8796 -1.3807
  267MOL0     H35207   1.645   5.357   8.465  2.8914  0.2194 -1.8945
  267MOL0     H35208   1.257   5.416   8.359  1.0169  0.5050  1.5629
  267MOL0     H35209   1.012   5.370   8.329 -3.6999 -3.6981  0.5781
  267MOL0     H35210   0.729   5.145   8.601  1.4490 -2.5577  1.4949
  267MOL0     H35211   0.863   5.071   8.518  0.8509  1.2060  1.0977
  267MOL0     H35212   0.643   5.022   8.415 -0.5070 -0.5837  1.5943
  267MOL0     H35213   0.730   5.138   8.308  2.1857  1.7191  1.5191
  267MOL0     H35214   0.594   5.318   8.429  1.4844 -1.7335  1.1136
  267MOL0     H35215   0.532   5.189   8.529  3.0303  1.2873  1.4485
  267MOL0     H35216   0.467   5.185   8.226 -2.6311  1.9058 -0.1784
  267MOL0     H35217   0.407   5.088   8.340 -0.9810 -0.0486  0.0316
  267MOL0     H35218   0.364   5.394   8.325 -0.4616 -0.3817 -1.0960
  267MOL0     H35219   0.312   5.298   8.464 -1.4022 -3.0311 -0.4371
  267MOL0     H35220   0.250   5.258   8.170  0.8431  1.4685 -0.6359
  267MOL0     H35221   0.142   5.356   8.293 -0.3557 -1.7695  5.7939
  267MOL0     H35222   0.192   5.092   8.391 -0.2048 -2.8745 -1.9647
  267MOL0     H35223   0.058   5.196   8.408  1.6317  1.0827  1.1459
  267MOL0     H35224   0.102   5.006   8.169  0.0491 -0.6050  1.1023
  267MOL0     H35225   0.011   5.153   8.155 -1.1233 -1.4286 -0.3956
  267MOL0     H35226   0.988   5.199   8.715  0.5911 -0.0703 -0.6864
  267MOL0     H35227   1.237   5.229   8.741 -0.0484  0.0895 -0.2305
  267MOL0     H35228   1.587   5.611   8.815 -0.2087  0.8154 -1.3705
  267MOL0     H35229   1.824   5.656   8.817  0.6236 -0.4364 -0.1050
  267MOL0     H35230   3.266   6.581   8.067 -1.6369 -0.9273 -1.2638
  267MOL0     H35231   3.468   6.618   7.935 -0.0185 -0.1395  1.9878
  267MOL0     H35232   3.797   7.083   7.864  0.5786  3.0486 -0.3511
  267MOL0     H35233   3.968   7.147   7.716 -2.7880  0.9631  2.1350
  267MOL0     H35234   4.135   7.169   7.584  0.6581  0.7358 -0.5099
  267MOL0     H35235   4.041   7.237   7.456 -0.5733 -0.4366 -1.4293
  267MOL0     H35236   4.302   7.093   7.426  0.0157  1.8812  2.2182
  267MOL0     H35237   4.188   7.095   7.286  0.7374  0.8143 -1.8958
  267MOL0     H35238   4.271   7.359   7.427  0.0428  0.0888 -0.7080
  267MOL0     H35239   4.184   7.337   7.282 -0.4517 -0.0860  0.4972
  267MOL0     H35240   4.378   7.206   7.185  1.4727 -0.0241 -1.3109
  267MOL0     H35241   4.402   7.384   7.224  0.5722  0.6336  3.0011
  267MOL0     H35242   4.660   7.214   7.510  1.4001  0.7443 -2.2900
  267MOL0     H35243   3.822   6.864   7.416 -0.0047 -2.2626  1.1112
  267MOL0     H35244   3.632   6.826   7.573 -1.4231 -0.3335  3.6088
  268MOL0     O35245   4.916   1.406   9.677 -0.6378 -0.4341  0.4381
  268MOL0     C35246   4.935   1.518   9.625  0.0402 -0.0772  1.5217
  268MOL0     O35247   4.850   1.600   9.569 -0.3810  0.2848  0.7116
  268MOL0     C35248   4.715   1.580   9.553  0.1924  1.0330  0.2701
  268MOL0     C35249   4.648   1.646   9.452  0.1778 -0.3061  0.0920
  268MOL0     C35250   4.505   1.625   9.429 -0.9009 -0.1216 -0.3286
  268MOL0     C35251   4.430   1.536   9.508 -0.4371 -0.6140 -0.7327
  268MOL0     O35252   4.297   1.522   9.483  0.7199 -0.4653 -0.2002
  268MOL0     C35253   4.211   1.469   9.581  0.5195  0.5252  0.1629
  268MOL0     C35254   4.058   1.476   9.534 -0.2384  0.1982  0.2333
  268MOL0     C35255   3.992   1.342   9.540  0.2733 -0.1341  0.0564
  268MOL0     C35256   3.841   1.362   9.524  0.1160  0.5842 -0.4336
  268MOL0     C35257   3.757   1.245   9.561 -0.5939 -0.1074 -0.6252
  268MOL0     C35258   3.598   1.279   9.554  0.2175 -0.1990 -0.6900
  268MOL0     C35259   3.521   1.154   9.593  0.6922  0.2030  0.3505
  268MOL0     C35260   3.371   1.174   9.568  0.4615  0.6308 -0.2409
  268MOL0     N35261   3.296   1.043   9.576  0.4705  0.1681  0.0653
  268MOL0     C35262   3.166   1.037   9.622  0.4429 -0.5912 -0.1976
  268MOL0     C35263   3.129   0.913   9.585  0.1615  0.2179 -0.3483
  268MOL0     C35264   2.988   0.855   9.601 -0.1359 -0.6923  0.6990
  268MOL0     C35265   2.872   0.943   9.549  0.9917  0.6174  0.1062
  268MOL0     C35266   2.869   1.096   9.588  0.2385  0.8958  0.0923
  268MOL0     C35267   2.729   1.158   9.543 -0.3034  0.4547  0.4732
  268MOL0     O35268   2.606   1.077   9.571  0.4429  0.0764 -0.7544
  268MOL0     C35269   2.490   1.119   9.517  0.5054  0.2560  0.3455
  268MOL0     C35270   2.377   1.049   9.553  0.2021  0.0947 -0.1327
  268MOL0     C35271   2.242   1.098   9.529 -0.1142 -0.2548 -0.5352
  268MOL0     C35272   2.220   1.218   9.462  0.2259  0.0757 -0.2018
  268MOL0     C35273   2.087   1.284   9.450 -0.2875 -0.6211  0.0603
  268MOL0     O35274   1.986   1.196   9.479 -0.6078 -0.0639  0.0004
  268MOL0     C35275   1.859   1.237   9.451  0.6446 -0.7094 -0.2404
  268MOL0     C35276   1.777   1.255   9.561  0.2095  0.2604 -0.0789
  268MOL0     C35277   1.651   1.299   9.547  0.2823  0.1928  0.7493
  268MOL0     C35278   1.597   1.316   9.409 -0.5598  0.6074 -0.4195
  268MOL0     O35279   1.468   1.353   9.383 -0.0258  0.4558 -0.0101
  268MOL0     C35280   1.372   1.275   9.441 -0.3115  0.5961  0.0261
  268MOL0     C35281   1.237   1.356   9.447 -0.2966 -0.7622  0.0129
  268MOL0     C35282   1.172   1.388   9.315 -0.6410  0.5961  0.5572
  268MOL0     C35283   1.039   1.454   9.346  0.3666 -0.6767  0.2609
  268MOL0     C35284   0.976   1.506   9.212  0.3291 -0.7827  0.4489
  268MOL0     C35285   0.857   1.585   9.243  0.5970 -0.1334  0.5409
  268MOL0     C35286   0.755   1.623   9.134 -0.5480 -0.3348  0.3341
  268MOL0     C35287   0.616   1.664   9.188  0.0205 -0.2004 -1.0110
  268MOL0    Cl35288   0.629   1.835   9.243  0.4777  0.1661 -0.4234
  268MOL0     C35289   1.684   1.314   9.303 -0.0590  0.1348  0.4655
  268MOL0     C35290   1.818   1.280   9.327 -0.7062  0.0213  0.1079
  268MOL0     O35291   2.080   1.392   9.402 -0.5217  0.0421 -0.2237
  268MOL0     C35292   2.336   1.282   9.427 -0.0171  0.2789 -0.2364
  268MOL0     C35293   2.469   1.239   9.447  0.2456 -0.4715 -0.1148
  268MOL0     N35294   3.229   0.848   9.514  0.7127 -0.0628  0.2530
  268MOL0     N35295   3.325   0.935   9.505 -0.5443  0.4874 -0.3656
  268MOL0     C35296   4.503   1.460   9.608  0.4918  0.6036  0.6334
  268MOL0     C35297   4.641   1.491   9.635  0.2231 -0.4067  0.4977
  268MOL0     C35298   5.069   1.559   9.618 -1.0866  0.2524  0.2723
  268MOL0     C35299   5.178   1.466   9.651 -0.4049  0.2298  0.1314
  268MOL0     C35300   5.308   1.514   9.646 -0.8737  0.6858 -0.0570
  268MOL0     C35301   5.342   1.639   9.598 -0.0982  0.0229  0.5654
  268MOL0     O35302   5.471   1.676   9.570  0.0598 -0.4257  0.1079
  268MOL0     C35303   5.568   1.576   9.569  0.1812 -0.4721  0.3207
  268MOL0     C35304   5.701   1.637   9.497 -0.0918  0.3232 -0.4019
  268MOL0     C35305   5.765   1.732   9.600  0.5720 -0.3511  0.2945
  268MOL0     C35306   5.910   1.765   9.549 -0.8929  0.2852 -0.0217
  268MOL0     C35307   5.965   1.877   9.619  0.5185 -0.0330 -0.1264
  268MOL0     C35308   6.017   1.975   9.670 -0.4385 -0.2248 -1.2290
  268MOL0     C35309   5.231   1.727   9.558  0.7277  0.4254  0.1676
  268MOL0     C35310   5.097   1.686   9.579 -0.6630 -0.1421 -0.4569
  268MOL0     H35311   4.705   1.716   9.392  0.7276 -0.7426  0.0917
  268MOL0     H35312   4.452   1.672   9.348  2.0592 -0.6748 -2.7656
  268MOL0     H35313   4.214   1.520   9.678  2.2205 -0.5305  0.7034
  268MOL0     H35314   4.247   1.368   9.602 -0.4262  0.4086  1.3706
  268MOL0     H35315   4.049   1.519   9.433 -2.2076  0.2289  0.3878
  268MOL0     H35316   4.015   1.547   9.606  0.1726  0.6630  0.0328
  268MOL0     H35317   4.020   1.307   9.640  1.0939 -0.6980 -0.3577
  268MOL0     H35318   4.023   1.267   9.466 -0.7909  0.1076 -0.6702
  268MOL0     H35319   3.811   1.453   9.576 -0.7756 -0.3704  0.7897
  268MOL0     H35320   3.815   1.375   9.419 -0.4880  0.2089 -0.3359
  268MOL0     H35321   3.794   1.211   9.658  1.9177  2.0009 -0.7572
  268MOL0     H35322   3.782   1.161   9.495 -0.2634 -0.8707  0.4522
  268MOL0     H35323   3.559   1.308   9.456 -2.0774 -1.7406 -0.3224
  268MOL0     H35324   3.566   1.353   9.629 -0.9660 -2.0430  0.7277
  268MOL0     H35325   3.561   1.072   9.532 -0.6990  1.8142 -2.9138
  268MOL0     H35326   3.551   1.124   9.694  0.1626 -2.5074 -0.2087
  268MOL0     H35327   3.348   1.221   9.472  0.6073  0.0344 -0.5752
  268MOL0     H35328   3.336   1.250   9.637 -1.0202  0.3011 -0.5968
  268MOL0     H35329   3.120   1.111   9.687 -0.3231 -0.9122 -0.3625
  268MOL0     H35330   2.976   0.842   9.709  1.6350  2.3164  1.3724
  268MOL0     H35331   2.987   0.757   9.553 -0.9059 -0.4680  0.2433
  268MOL0     H35332   2.776   0.897   9.575  1.6830 -0.7388  0.3873
  268MOL0     H35333   2.887   0.943   9.440  1.3957  0.1812  0.1586
  268MOL0     H35334   2.886   1.109   9.696 -0.8423 -1.4759  0.6031
  268MOL0     H35335   2.947   1.152   9.535 -0.9989  1.4028 -1.2434
  268MOL0     H35336   2.745   1.180   9.437 -0.6813 -0.4594  0.2186
  268MOL0     H35337   2.720   1.256   9.592  0.5591  1.1748 -0.7476
  268MOL0     H35338   2.383   0.952   9.602  1.6224  0.0551 -0.3618
  268MOL0     H35339   2.157   1.035   9.555 -0.1120  0.2182  0.7077
  268MOL0     H35340   1.824   1.229   9.655 -1.2463 -1.1413  0.3228
  268MOL0     H35341   1.580   1.318   9.628 -1.4944  2.4099 -1.1476
  268MOL0     H35342   1.390   1.233   9.540 -0.4678  0.3439 -0.0506
  268MOL0     H35343   1.347   1.187   9.380  0.0550 -0.7245  1.7304
  268MOL0     H35344   1.261   1.443   9.508  0.9516 -1.7948  1.0346
  268MOL0     H35345   1.174   1.288   9.505 -0.0143 -1.9421 -1.0111
  268MOL0     H35346   1.160   1.293   9.262 -1.3301  1.1473 -0.3046
  268MOL0     H35347   1.239   1.457   9.263  2.4449 -1.7656  1.0859
  268MOL0     H35348   0.976   1.377   9.391  0.2834 -0.5062  0.4381
  268MOL0     H35349   1.051   1.537   9.416  1.6513 -1.7045  1.3080
  268MOL0     H35350   0.944   1.415   9.160  1.1393  0.2524 -1.9863
  268MOL0     H35351   1.048   1.555   9.145  0.0520 -1.1721 -0.1448
  268MOL0     H35352   0.907   1.674   9.284  0.4721  2.0772 -3.5894
  268MOL0     H35353   0.799   1.527   9.315  0.1678 -1.0606 -0.5288
  268MOL0     H35354   0.796   1.706   9.076  0.4045  0.1657  1.6622
  268MOL0     H35355   0.737   1.535   9.072 -0.1016 -2.1906  2.6966
  268MOL0     H35356   0.580   1.603   9.272 -1.7193  2.4308  0.2938
  268MOL0     H35357   0.541   1.658   9.109  1.0115  0.8144 -2.0535
  268MOL0     H35358   1.657   1.349   9.203  0.0244 -1.5734 -0.1809
  268MOL0     H35359   1.889   1.278   9.245  1.3172  3.5788  1.5671
  268MOL0     H35360   2.324   1.371   9.366  0.7963 -0.6805 -1.8667
  268MOL0     H35361   2.545   1.302   9.402 -1.9389  1.5736 -1.1069
  268MOL0     H35362   4.449   1.396   9.677 -3.1093  2.1229 -0.5265
  268MOL0     H35363   4.673   1.439   9.725  0.2661 -5.3952 -2.0702
  268MOL0     H35364   5.157   1.365   9.685 -1.7821  0.6443  0.5614
  268MOL0     H35365   5.384   1.448   9.686 -0.0104  1.3987 -0.4931
  268MOL0     H35366   5.534   1.497   9.501  2.4143  1.6170 -3.5766
  268MOL0     H35367   5.590   1.547   9.672  0.7192  2.7063  1.2279
  268MOL0     H35368   5.774   1.557   9.483 -0.7037 -0.1793 -0.7867
  268MOL0     H35369   5.688   1.678   9.396  1.6018 -2.1559 -1.7259
  268MOL0     H35370   5.769   1.693   9.702 -1.0079 -3.0361 -0.5784
  268MOL0     H35371   5.708   1.825   9.608  1.0901  0.0075 -0.1242
  268MOL0     H35372   5.977   1.681   9.570  3.1187  2.1910 -3.4864
  268MOL0     H35373   5.914   1.774   9.440  1.4380  0.6330  0.0378
  268MOL0     H35374   6.063   2.064   9.707 -1.2223 -0.8462  1.4188
  268MOL0     H35375   5.242   1.832   9.533 -1.0059  0.7366  0.5559
  268MOL0     H35376   5.023   1.763   9.563 -0.2392 -0.2106 -3.1763
  269MOL0     O35377   4.679   5.408   0.760  0.1661  0.0022  0.8113
  269MOL0     C35378   4.799   5.433   0.736 -0.3519 -0.5901  0.1738
  269MOL0     O35379   4.858   5.464   0.617 -0.7329 -0.2108  0.2603
  269MOL0     C35380   4.784   5.446   0.503 -0.0478  0.2580 -0.3196
  269MOL0     C35381   4.846   5.388   0.395  0.1751  0.1498 -0.1245
  269MOL0     C35382   4.776   5.355   0.276  0.0953  0.2898 -0.3115
  269MOL0     C35383   4.648   5.414   0.253 -1.0913  0.7307 -0.0789
  269MOL0     O35384   4.601   5.401   0.124  0.3399 -0.5927 -0.3310
  269MOL0     C35385   4.478   5.464   0.081 -0.0014 -0.1292  0.1302
  269MOL0     C35386   4.365   5.364   0.120 -0.1775 -0.2510  0.1524
  269MOL0     C35387   4.223   5.413   0.116 -0.3415 -0.4195 -0.2129
  269MOL0     C35388   4.115   5.300   0.135 -0.3968  0.5189  0.0032
  269MOL0     C35389   3.976   5.352   0.095 -0.6435  0.1569  0.1873
  269MOL0     C35390   3.879   5.237   0.098 -0.1390  0.3666  0.5034
  269MOL0     C35391   3.755   5.265   0.010 -0.6455 -0.6747 -0.1684
  269MOL0     C35392   3.649   5.163   0.026  0.1457 -0.3874  0.3189
  269MOL0     N35393   3.512   5.223   0.039  0.2359 -0.2411  0.3357
  269MOL0     C35394   3.425   5.226  -0.066  0.5164 -0.2207  0.0077
  269MOL0     C35395   3.327   5.308  -0.022 -0.2293 -0.0302  0.3588
  269MOL0     C35396   3.190   5.324  -0.090 -0.0144 -0.4126  0.6353
  269MOL0     C35397   3.067   5.260  -0.028  0.7043  0.2246 -0.1993
  269MOL0     C35398   2.936   5.327  -0.066  0.0424  0.3171 -0.3861
  269MOL0     C35399   2.899   5.288  -0.215 -0.0105  0.3482  0.6557
  269MOL0     O35400   2.809   5.392  -0.258  0.3689  0.7553 -0.0963
  269MOL0     C35401   2.674   5.369  -0.265  0.0557  0.3595  0.3221
  269MOL0     C35402   2.621   5.324  -0.384  0.0395 -0.2772  0.1204
  269MOL0     C35403   2.481   5.297  -0.396  0.1256 -0.4672 -0.5549
  269MOL0     C35404   2.388   5.310  -0.287 -0.0351 -0.6776  0.3266
  269MOL0     C35405   2.240   5.293  -0.298  0.1320  0.1399 -0.7295
  269MOL0     O35406   2.167   5.371  -0.209 -0.6883  0.5480  0.4350
  269MOL0     C35407   2.036   5.343  -0.198  1.0150 -1.3538  0.3321
  269MOL0     C35408   1.944   5.361  -0.302  0.4816 -0.8926 -0.6381
  269MOL0     C35409   1.807   5.345  -0.276 -0.5153 -0.7431 -0.2316
  269MOL0     C35410   1.756   5.296  -0.157  0.5367  0.2355 -0.4329
  269MOL0     O35411   1.628   5.261  -0.116  0.3412 -0.1003 -0.2488
  269MOL0     C35412   1.526   5.300  -0.202  0.6543 -0.5107  0.8521
  269MOL0     C35413   1.386   5.247  -0.160 -0.4281 -0.2091  0.4483
  269MOL0     C35414   1.273   5.265  -0.260 -0.5585  0.3900 -0.5521
  269MOL0     C35415   1.141   5.214  -0.200  0.0408  0.1243 -0.0902
  269MOL0     C35416   1.031   5.228  -0.300  0.6170  0.8486  0.0922
  269MOL0     C35417   0.907   5.154  -0.256 -0.2022  0.0210 -0.7650
  269MOL0     C35418   0.798   5.159  -0.365 -0.0112 -0.6939  0.1807
  269MOL0     C35419   0.681   5.070  -0.330  0.3399 -0.5032 -0.4191
  269MOL0    Cl35420   0.536   5.100  -0.422  0.2752 -0.1526  0.0931
  269MOL0     C35421   1.853   5.285  -0.057  1.0520 -0.0242  0.2625
  269MOL0     C35422   1.988   5.305  -0.071 -0.5081 -0.0056 -0.0532
  269MOL0     O35423   2.197   5.232  -0.394  0.8079  0.0561 -0.4962
  269MOL0     C35424   2.441   5.367  -0.171  0.6579  0.0778  0.0953
  269MOL0     C35425   2.582   5.399  -0.162 -0.6954 -0.0469  0.5773
  269MOL0     N35426   3.349   5.342   0.112 -0.1594 -0.6753 -0.1426
  269MOL0     N35427   3.461   5.297   0.145 -0.6216 -0.4144  0.1422
  269MOL0     C35428   4.578   5.471   0.359  0.2322 -0.0210 -0.2880
  269MOL0     C35429   4.648   5.493   0.479 -0.4281  0.5868  0.4551
  269MOL0     C35430   4.878   5.440   0.851 -0.7967 -1.1637 -1.0069
  269MOL0     C35431   5.016   5.412   0.848 -0.1284  0.0501  0.6458
  269MOL0     C35432   5.106   5.437   0.949  0.4205  0.0287 -0.5341
  269MOL0     C35433   5.053   5.488   1.068  0.6903  0.7429  0.2546
  269MOL0     O35434   5.126   5.531   1.174  0.0321 -0.6161 -0.1928
  269MOL0     C35435   5.267   5.504   1.170 -0.0074 -0.0064 -0.6016
  269MOL0     C35436   5.339   5.546   1.298 -0.1981  0.2263  0.0397
  269MOL0     C35437   5.490   5.515   1.309  0.0252  0.6532 -0.4662
  269MOL0     C35438   5.571   5.595   1.205  0.5215 -0.0366 -0.4134
  269MOL0     C35439   5.716   5.585   1.212 -1.1177 -0.4132  0.9236
  269MOL0     C35440   5.833   5.579   1.228 -0.3432 -0.4120 -0.7484
  269MOL0     C35441   4.914   5.506   1.084 -0.0208 -0.6465 -0.7298
  269MOL0     C35442   4.830   5.495   0.979  0.0100  0.5054  0.2155
  269MOL0     H35443   4.953   5.376   0.405  0.4088  2.5055  0.8352
  269MOL0     H35444   4.814   5.315   0.183  0.2907  0.1402 -0.1692
  269MOL0     H35445   4.474   5.480  -0.028  0.7893 -0.7744 -0.0052
  269MOL0     H35446   4.464   5.560   0.131 -3.8649  0.6976 -2.1330
  269MOL0     H35447   4.382   5.328   0.222 -2.4269  1.4927  1.2169
  269MOL0     H35448   4.373   5.281   0.049  2.2753 -1.3103  1.5302
  269MOL0     H35449   4.204   5.472   0.027  1.4180 -0.5821 -0.7425
  269MOL0     H35450   4.217   5.478   0.204  0.6724  1.1404 -1.2584
  269MOL0     H35451   4.135   5.213   0.072 -2.2705  0.5400 -0.6686
  269MOL0     H35452   4.122   5.260   0.237 -0.3301  1.2158  0.2823
  269MOL0     H35453   3.987   5.396  -0.005 -0.3908 -0.6803 -0.1578
  269MOL0     H35454   3.940   5.436   0.155  4.4176  3.3037 -0.5355
  269MOL0     H35455   3.853   5.216   0.202 -2.0015 -0.9744 -0.1755
  269MOL0     H35456   3.923   5.139   0.076 -2.6400  0.0665 -4.4223
  269MOL0     H35457   3.723   5.362   0.049  1.0333 -1.3686  3.3573
  269MOL0     H35458   3.793   5.280  -0.091  1.1083  1.9084  0.7549
  269MOL0     H35459   3.665   5.102   0.115 -0.5127 -2.9497 -1.2135
  269MOL0     H35460   3.659   5.092  -0.057  1.8252  1.3735 -1.0686
  269MOL0     H35461   3.437   5.184  -0.166  2.2371  1.2543 -0.4615
  269MOL0     H35462   3.188   5.304  -0.198 -1.8183  0.7483  0.4135
  269MOL0     H35463   3.165   5.430  -0.084 -0.7332 -0.6339  1.8384
  269MOL0     H35464   3.075   5.272   0.081  1.0703  0.9705 -0.3008
  269MOL0     H35465   3.074   5.153  -0.048  3.1195 -0.6090  3.8592
  269MOL0     H35466   2.856   5.298   0.003  1.1374  0.4636  0.9893
  269MOL0     H35467   2.955   5.434  -0.058  2.4561 -0.0310 -0.6484
  269MOL0     H35468   2.848   5.191  -0.219 -0.5955  0.6846 -0.4693
  269MOL0     H35469   2.979   5.285  -0.290 -1.5048  2.2402 -1.1490
  269MOL0     H35470   2.682   5.305  -0.471 -0.1431  1.9036 -0.5550
  269MOL0     H35471   2.445   5.269  -0.495  1.7973 -0.9218 -1.0787
  269MOL0     H35472   1.975   5.387  -0.403  0.9935 -0.7526 -0.4489
  269MOL0     H35473   1.734   5.385  -0.346 -2.0478 -0.2326  1.5549
  269MOL0     H35474   1.547   5.266  -0.304  1.4391  3.3994 -0.4629
  269MOL0     H35475   1.525   5.408  -0.215 -0.0416 -0.7170 -1.1707
  269MOL0     H35476   1.369   5.312  -0.073  2.0632  3.2917 -1.4205
  269MOL0     H35477   1.392   5.141  -0.135  0.0634 -0.1683  0.5248
  269MOL0     H35478   1.298   5.214  -0.354  0.0462  1.2312 -0.8595
  269MOL0     H35479   1.268   5.372  -0.280  0.4092  0.7343  0.9139
  269MOL0     H35480   1.154   5.112  -0.163 -1.6128  0.4973  1.6450
  269MOL0     H35481   1.120   5.261  -0.104  2.7504 -1.5986  1.4682
  269MOL0     H35482   1.067   5.180  -0.392 -0.3383  2.1172 -0.9718
  269MOL0     H35483   1.008   5.333  -0.316  2.1020  1.1885  0.0458
  269MOL0     H35484   0.863   5.193  -0.163 -2.9409 -2.7147 -0.7283
  269MOL0     H35485   0.927   5.053  -0.219  2.4503  1.1659  1.2683
  269MOL0     H35486   0.753   5.257  -0.381 -1.6340 -1.3601  0.4356
  269MOL0     H35487   0.845   5.127  -0.458  3.1473  2.9694  0.2880
  269MOL0     H35488   0.659   5.093  -0.225  2.5003 -3.1827  0.7492
  269MOL0     H35489   0.710   4.966  -0.345  1.8478 -0.1679  0.0514
  269MOL0     H35490   1.807   5.252   0.036  1.5226 -2.3628 -0.2836
  269MOL0     H35491   2.045   5.297   0.021  0.7433  1.3317 -0.6743
  269MOL0     H35492   2.385   5.386  -0.080  2.0458 -0.3163  1.0771
  269MOL0     H35493   2.609   5.448  -0.069 -0.0441 -0.5907  0.6879
  269MOL0     H35494   4.475   5.494   0.335  1.1132  1.5540 -2.9310
  269MOL0     H35495   4.600   5.556   0.553  0.4650  0.1528  1.4191
  269MOL0     H35496   5.063   5.395   0.751 -2.4333  2.4050 -1.0047
  269MOL0     H35497   5.213   5.418   0.949  0.5504  0.4492  1.7428
  269MOL0     H35498   5.310   5.572   1.096 -0.2961 -0.6137 -1.3308
  269MOL0     H35499   5.293   5.401   1.146  3.4265  0.3908  0.7672
  269MOL0     H35500   5.331   5.655   1.305 -3.0562  0.2140 -1.6226
  269MOL0     H35501   5.280   5.504   1.380  0.2879 -2.9303 -1.0807
  269MOL0     H35502   5.507   5.409   1.292  0.6531  0.9410 -1.7454
  269MOL0     H35503   5.536   5.551   1.402 -0.3433  1.5394 -0.6102
  269MOL0     H35504   5.534   5.562   1.108  1.2908  0.1912 -0.7980
  269MOL0     H35505   5.539   5.700   1.208 -1.7609 -0.6955  0.0725
  269MOL0     H35506   5.937   5.575   1.251 -0.3805  1.9674  0.1546
  269MOL0     H35507   4.882   5.556   1.175  0.2592 -0.0258 -0.9633
  269MOL0     H35508   4.723   5.514   0.986 -0.2523 -1.1302  1.6342
  270MOL0     O35509  11.057   0.289   2.846  0.3692 -0.4815  0.0206
  270MOL0     C35510  11.065   0.175   2.888  0.1388 -0.8053  0.1352
  270MOL0     O35511  10.981   0.073   2.864 -0.0206 -0.0607  0.1039
  270MOL0     C35512  10.895   0.086   2.761 -0.1585  0.0343 -0.7037
  270MOL0     C35513  10.766   0.114   2.790  1.4495  0.4798 -0.6367
  270MOL0     C35514  10.673   0.125   2.689  0.0413 -0.1456  0.3375
  270MOL0     C35515  10.718   0.121   2.554  0.9191 -0.1861 -0.8443
  270MOL0     O35516  10.636   0.123   2.439 -0.1795  0.1540 -0.2072
  270MOL0     C35517  10.494   0.150   2.459 -0.3313 -0.3582  0.2465
  270MOL0     C35518  10.417   0.115   2.338 -0.1158 -0.0095 -0.2147
  270MOL0     C35519  10.271   0.124   2.362  0.1417 -0.6646 -0.4454
  270MOL0     C35520  10.184   0.111   2.235 -0.4111 -0.3538  0.4538
  270MOL0     C35521  10.041   0.176   2.246  0.4146  0.0103  0.9003
  270MOL0     C35522   9.960   0.159   2.117  0.1813 -0.3703 -0.0176
  270MOL0     C35523   9.814   0.207   2.146  0.1307 -0.5076  0.0415
  270MOL0     C35524   9.718   0.196   2.024 -0.7573  0.1246  0.9452
  270MOL0     N35525   9.573   0.206   2.058  0.0487  0.3913 -0.2136
  270MOL0     C35526   9.501   0.103   2.105  0.3141  0.8615  0.4976
  270MOL0     C35527   9.373   0.140   2.074 -0.5677  0.4544 -0.7542
  270MOL0     C35528   9.248   0.065   2.113  0.2908  0.0749  0.2762
  270MOL0     C35529   9.117   0.148   2.114  0.6299  0.0450 -0.7537
  270MOL0     C35530   9.054   0.153   1.972 -0.2607 -0.3802 -0.0157
  270MOL0     C35531   8.904   0.137   1.986  0.0757  0.3549  0.2371
  270MOL0     O35532   8.831   0.122   1.865 -0.3973  0.5068  0.5484
  270MOL0     C35533   8.694   0.085   1.868  0.4319 -0.3311  0.2498
  270MOL0     C35534   8.611   0.085   1.981  0.5401  0.0636 -1.3066
  270MOL0     C35535   8.472   0.057   1.969  0.4558 -0.3701  0.2267
  270MOL0     C35536   8.419   0.035   1.841  0.6764 -0.2732 -1.2987
  270MOL0     C35537   8.278   0.002   1.828  0.0210  0.0374  0.1726
  270MOL0     O35538   8.221  -0.045   1.944 -0.6042 -0.1981  0.1397
  270MOL0     C35539   8.096  -0.091   1.939 -0.0261 -0.7191  0.7338
  270MOL0     C35540   8.049  -0.190   1.848  0.2477 -0.5051 -0.0299
  270MOL0     C35541   7.919  -0.245   1.870  0.1694 -0.6412  1.0519
  270MOL0     C35542   7.831  -0.202   1.965  0.1498  0.2666  0.0642
  270MOL0     O35543   7.701  -0.253   1.955  0.1432 -0.5613 -0.7607
  270MOL0     C35544   7.599  -0.191   2.034 -0.0655 -0.2004 -0.0399
  270MOL0     C35545   7.467  -0.255   2.003  0.2262 -0.2311  0.0882
  270MOL0     C35546   7.361  -0.197   2.099  0.9972 -0.5071  0.2246
  270MOL0     C35547   7.222  -0.259   2.075  0.0457 -0.0636 -0.8248
  270MOL0     C35548   7.119  -0.195   2.165 -0.6903 -0.0443 -1.1840
  270MOL0     C35549   6.976  -0.242   2.139 -0.0895  1.0422  0.1014
  270MOL0     C35550   6.887  -0.225   2.263  0.4454 -0.2576 -0.0870
  270MOL0     C35551   6.739  -0.203   2.239  0.7287  0.1458 -0.2702
  270MOL0    Cl35552   6.714  -0.053   2.149 -0.1219  0.5097  0.2517
  270MOL0     C35553   7.880  -0.103   2.047 -0.6736 -0.3102  0.4098
  270MOL0     C35554   8.014  -0.047   2.043 -0.4661  0.6493  0.1275
  270MOL0     O35555   8.226   0.019   1.720  0.4457 -0.1813 -0.6987
  270MOL0     C35556   8.506   0.036   1.730 -0.0888  0.1513  0.1219
  270MOL0     C35557   8.639   0.065   1.737 -0.1331  0.3509 -0.3130
  270MOL0     N35558   9.373   0.267   2.017  0.8048  0.2126  0.3256
  270MOL0     N35559   9.497   0.306   2.012 -0.1027  0.1907  0.0805
  270MOL0     C35560  10.854   0.104   2.534 -0.0216  0.5417 -0.2914
  270MOL0     C35561  10.938   0.076   2.635  0.5952  0.1613  0.4987
  270MOL0     C35562  11.173   0.142   2.989  0.5195  0.1549 -0.0525
  270MOL0     C35563  11.223   0.011   2.992  0.8258  0.3284  0.2347
  270MOL0     C35564  11.325  -0.031   3.088 -0.0138 -0.3283 -0.1856
  270MOL0     C35565  11.378   0.066   3.176  0.1016 -0.4015 -0.3603
  270MOL0     O35566  11.480   0.036   3.262 -0.5960 -0.2076  0.3393
  270MOL0     C35567  11.552   0.141   3.328  0.0128 -0.3741  0.1347
  270MOL0     C35568  11.667   0.074   3.396  0.4040 -0.2667  0.0046
  270MOL0     C35569  11.783   0.036   3.293 -0.5351  0.0385 -1.1861
  270MOL0     C35570  11.876   0.154   3.252 -0.0818  0.4007 -1.0626
  270MOL0     C35571  11.938   0.201   3.379  0.1323  0.0334  0.4823
  270MOL0     C35572  11.994   0.225   3.485  0.1751  0.3769  0.8493
  270MOL0     C35573  11.339   0.197   3.156 -0.7984 -0.0917  0.1377
  270MOL0     C35574  11.239   0.230   3.070  0.3063  0.2212 -0.1071
  270MOL0     H35575  10.737   0.113   2.894 -0.6822  1.2051 -1.1512
  270MOL0     H35576  10.567   0.132   2.710 -0.1919 -0.1574 -0.8034
  270MOL0     H35577  10.481   0.256   2.483  0.7219  0.4047 -2.1948
  270MOL0     H35578  10.457   0.080   2.534  2.7225 -0.7529  1.5464
  270MOL0     H35579  10.428   0.009   2.314  0.5768 -0.1044  0.4932
  270MOL0     H35580  10.443   0.173   2.249 -0.7728  1.5073  0.5484
  270MOL0     H35581  10.250   0.219   2.414  2.3809 -0.4665  0.1913
  270MOL0     H35582  10.240   0.042   2.427 -0.1478  1.0244  1.6906
  270MOL0     H35583  10.228   0.173   2.156 -0.7425 -0.2969  0.3101
  270MOL0     H35584  10.171   0.006   2.207 -0.4441 -0.6727  1.6088
  270MOL0     H35585  10.053   0.282   2.267  3.3059 -0.3946  1.7742
  270MOL0     H35586   9.985   0.123   2.324 -2.1164 -0.0316 -0.8145
  270MOL0     H35587   9.947   0.056   2.083  1.2022 -0.0933 -1.3322
  270MOL0     H35588  10.003   0.221   2.037 -1.1146  3.2873  1.8682
  270MOL0     H35589   9.766   0.155   2.229 -2.1330  1.8798  0.3778
  270MOL0     H35590   9.810   0.309   2.187  0.5781 -0.9782  1.3304
  270MOL0     H35591   9.745   0.103   1.973  0.8391  1.7019 -1.3144
  270MOL0     H35592   9.745   0.268   1.946 -2.5425 -0.5056 -0.3218
  270MOL0     H35593   9.541   0.014   2.151 -0.0679  0.4565  0.0604
  270MOL0     H35594   9.270   0.014   2.207  3.8650  0.2473 -0.3301
  270MOL0     H35595   9.236  -0.009   2.033 -0.2636 -0.7137  1.0650
  270MOL0     H35596   9.128   0.247   2.160 -1.8383 -0.0153  0.1033
  270MOL0     H35597   9.049   0.092   2.179  1.0257 -0.3927 -0.7090
  270MOL0     H35598   9.078   0.254   1.937 -3.3290  0.3495 -0.2616
  270MOL0     H35599   9.096   0.081   1.900  0.0754 -2.2299  1.9051
  270MOL0     H35600   8.873   0.225   2.043  2.3439  1.7481 -0.5354
  270MOL0     H35601   8.883   0.050   2.049 -1.1724  0.7044  0.3395
  270MOL0     H35602   8.640   0.110   2.083 -2.2394  0.8797 -0.6280
  270MOL0     H35603   8.411   0.050   2.058 -1.6649 -2.4042 -1.2767
  270MOL0     H35604   8.114  -0.234   1.773 -0.0629 -0.2730 -0.4430
  270MOL0     H35605   7.882  -0.324   1.806 -2.1333 -0.8639  2.5332
  270MOL0     H35606   7.600  -0.085   2.007  3.1473  0.0723  0.8044
  270MOL0     H35607   7.621  -0.199   2.140 -2.3553  2.3203  0.7479
  270MOL0     H35608   7.471  -0.364   2.003 -0.5231 -0.2643 -0.2389
  270MOL0     H35609   7.439  -0.229   1.900 -0.0277  0.0544  0.2270
  270MOL0     H35610   7.346  -0.089   2.095 -2.6947 -0.7351  2.7404
  270MOL0     H35611   7.388  -0.210   2.204 -0.5485  0.6039  0.7934
  270MOL0     H35612   7.194  -0.236   1.972  2.1048 -0.2848 -1.4741
  270MOL0     H35613   7.215  -0.367   2.091 -3.8152  0.2982  0.9107
  270MOL0     H35614   7.117  -0.087   2.151  2.1404  0.3219  0.4746
  270MOL0     H35615   7.133  -0.208   2.272  2.9223  4.4038 -0.7977
  270MOL0     H35616   6.985  -0.349   2.124  0.9325  0.4417  3.9032
  270MOL0     H35617   6.932  -0.204   2.046  2.8736  1.3237 -1.2741
  270MOL0     H35618   6.900  -0.322   2.311  0.5381 -1.6904 -2.8016
  270MOL0     H35619   6.917  -0.147   2.334 -3.0784 -0.2392  1.5901
  270MOL0     H35620   6.681  -0.189   2.330  0.4779  0.2612 -0.4480
  270MOL0     H35621   6.713  -0.289   2.177  3.7638 -0.5806 -0.7126
  270MOL0     H35622   7.805  -0.078   2.122 -1.9689 -0.7784 -0.7033
  270MOL0     H35623   8.052   0.029   2.111 -0.3079  2.0567 -1.4655
  270MOL0     H35624   8.466   0.027   1.629  2.4504  0.0386 -0.9332
  270MOL0     H35625   8.711   0.057   1.657  2.2914 -3.8377  1.9803
  270MOL0     H35626  10.888   0.100   2.431  1.2411  1.7915  0.0532
  270MOL0     H35627  11.043   0.053   2.615  1.2422  2.3186  1.1526
  270MOL0     H35628  11.179  -0.070   2.934 -1.2026  0.7494  1.1112
  270MOL0     H35629  11.350  -0.136   3.103  1.1724  0.2142  2.0689
  270MOL0     H35630  11.493   0.190   3.406  0.3956 -0.2682  0.3588
  270MOL0     H35631  11.588   0.220   3.261  1.0513 -1.3623 -0.4969
  270MOL0     H35632  11.699   0.143   3.476  2.7048  1.1402 -1.9831
  270MOL0     H35633  11.629  -0.018   3.442  1.4203 -0.4699  0.4877
  270MOL0     H35634  11.734  -0.002   3.203 -2.5467 -3.2693  1.1127
  270MOL0     H35635  11.842  -0.049   3.327  0.1333  0.0645 -2.2619
  270MOL0     H35636  11.961   0.116   3.195  1.2027  0.4356  0.7337
  270MOL0     H35637  11.819   0.237   3.208 -3.2546  0.8048  3.1169
  270MOL0     H35638  12.037   0.259   3.578 -1.6473 -0.7370  2.1777
  270MOL0     H35639  11.373   0.272   3.226 -2.0409 -0.0435  0.7101
  270MOL0     H35640  11.190   0.327   3.076 -1.3707 -0.5208 -0.9987
  271MOL0     O35641   4.274  10.313   0.459  0.4080  1.0257  0.0957
  271MOL0     C35642   4.278  10.348   0.335 -0.4396  0.2418  0.3568
  271MOL0     O35643   4.183  10.416   0.260 -0.2260 -0.6837 -1.1515
  271MOL0     C35644   4.057  10.423   0.306 -0.1936 -0.0985  0.2329
  271MOL0     C35645   4.008  10.547   0.346  0.7890  0.3516  0.9178
  271MOL0     C35646   3.880  10.555   0.397 -0.2362 -0.1883 -0.2257
  271MOL0     C35647   3.811  10.444   0.426  1.2296 -0.0389 -0.0771
  271MOL0     O35648   3.701  10.457   0.505  0.0028 -0.1115  0.8144
  271MOL0     C35649   3.653  10.347   0.585 -0.2188  0.2114  0.1880
  271MOL0     C35650   3.508  10.386   0.634 -0.0810  0.1884  0.1460
  271MOL0     C35651   3.523  10.460   0.766 -0.6992 -0.0381 -0.2017
  271MOL0     C35652   3.391  10.495   0.830  0.3126 -0.4072 -0.9435
  271MOL0     C35653   3.421  10.586   0.956  0.9343  0.3177  1.1337
  271MOL0     C35654   3.288  10.647   1.006 -0.2131  0.3458  0.5482
  271MOL0     C35655   3.310  10.738   1.129 -0.6298  0.8409  0.5422
  271MOL0     C35656   3.191  10.812   1.178  0.3950  0.8530 -0.3851
  271MOL0     N35657   3.059  10.752   1.166 -0.4572 -0.2570  0.1018
  271MOL0     C35658   3.030  10.647   1.249 -0.0130 -0.3521  0.4670
  271MOL0     C35659   2.908  10.613   1.200  0.5843  0.5079  0.3215
  271MOL0     C35660   2.819  10.525   1.275 -0.2637 -0.5482 -0.0241
  271MOL0     C35661   2.777  10.574   1.410  0.0714 -0.2355  0.7044
  271MOL0     C35662   2.659  10.663   1.392  0.2387 -0.4819  0.5396
  271MOL0     C35663   2.610  10.737   1.525  0.1641 -0.3917 -0.2079
  271MOL0     O35664   2.475  10.800   1.499  0.3932 -0.5148 -0.1009
  271MOL0     C35665   2.360  10.731   1.519 -0.6524  0.1296 -0.4996
  271MOL0     C35666   2.349  10.603   1.568 -0.3913 -0.1716 -0.9992
  271MOL0     C35667   2.229  10.548   1.608 -0.2248 -0.0527 -0.0491
  271MOL0     C35668   2.108  10.609   1.571 -0.6689 -0.4924  0.4174
  271MOL0     C35669   1.978  10.547   1.608 -0.0263 -0.8202 -0.3719
  271MOL0     O35670   1.939  10.437   1.544 -0.5344 -0.2809 -0.1741
  271MOL0     C35671   1.817  10.366   1.581 -0.1927  0.1365  0.2308
  271MOL0     C35672   1.772  10.268   1.487  0.7972  0.4758  0.9506
  271MOL0     C35673   1.671  10.183   1.526  0.5393  0.0963 -1.1153
  271MOL0     C35674   1.602  10.189   1.651  0.1787  0.2112 -0.5834
  271MOL0     O35675   1.513  10.088   1.691  0.2366  0.0136  0.1776
  271MOL0     C35676   1.433  10.103   1.811 -0.9370  0.1884  0.2470
  271MOL0     C35677   1.322   9.991   1.807  0.3957  0.0018 -0.3523
  271MOL0     C35678   1.215   9.995   1.911  0.4979 -1.0283 -0.0519
  271MOL0     C35679   1.141   9.865   1.925  0.1307  0.6299  0.9628
  271MOL0     C35680   1.007   9.885   2.002  0.6310  0.3981 -0.4407
  271MOL0     C35681   0.886   9.943   1.927  0.4554  0.4809 -0.3974
  271MOL0     C35682   0.845   9.880   1.798  0.0427 -0.1897  0.2010
  271MOL0     C35683   0.707   9.915   1.731 -0.4126  0.4190  0.0681
  271MOL0    Cl35684   0.568   9.824   1.816 -0.1039  0.3461  0.2927
  271MOL0     C35685   1.636  10.297   1.725 -1.1071 -0.5052  0.2585
  271MOL0     C35686   1.742  10.384   1.695 -0.1470  1.0642  0.5846
  271MOL0     O35687   1.916  10.613   1.696  0.0298 -0.2526 -0.3988
  271MOL0     C35688   2.116  10.740   1.518  0.3878 -0.5669  0.3571
  271MOL0     C35689   2.238  10.801   1.495 -0.8906  0.6645  0.6653
  271MOL0     N35690   2.874  10.685   1.087 -0.4636 -0.1928  0.1424
  271MOL0     N35691   2.968  10.769   1.069 -0.3725  0.3987 -0.3553
  271MOL0     C35692   3.864  10.321   0.383 -0.0354 -0.1921  0.4004
  271MOL0     C35693   3.987  10.308   0.317 -0.0334 -0.3377 -0.6035
  271MOL0     C35694   4.411  10.323   0.265  0.8999  0.1391 -0.0536
  271MOL0     C35695   4.454  10.394   0.150  0.0011  0.0250  0.4320
  271MOL0     C35696   4.569  10.350   0.080  0.6896 -0.6532  0.7239
  271MOL0     C35697   4.636  10.241   0.116 -0.5717 -0.2689 -0.0637
  271MOL0     O35698   4.740  10.195   0.044 -0.5142  0.1179 -0.1249
  271MOL0     C35699   4.853  10.286   0.008  0.7755 -0.5981  0.7106
  271MOL0     C35700   4.992  10.213   0.009  0.4539 -0.1776 -0.2048
  271MOL0     C35701   5.022  10.184   0.163 -0.0451 -0.4764  0.6911
  271MOL0     C35702   5.161  10.135   0.187  0.3049  0.9215  0.0857
  271MOL0     C35703   5.262  10.230   0.147  0.0859 -0.7473 -0.5239
  271MOL0     C35704   5.341  10.315   0.108  0.5632  0.8744  1.1006
  271MOL0     C35705   4.594  10.167   0.230  0.0653  0.9983 -0.0028
  271MOL0     C35706   4.477  10.204   0.293 -0.0590 -0.2682 -0.7175
  271MOL0     H35707   4.067  10.636   0.328 -0.3365  0.4734 -3.1875
  271MOL0     H35708   3.849  10.656   0.424  1.1984  1.1688 -3.1831
  271MOL0     H35709   3.721  10.335   0.669 -0.4064 -0.8992  0.1985
  271MOL0     H35710   3.650  10.256   0.523  0.7185  0.6137 -0.4780
  271MOL0     H35711   3.448  10.296   0.650  1.3717 -0.3726  2.9283
  271MOL0     H35712   3.456  10.448   0.560 -0.2596  0.5812  0.5981
  271MOL0     H35713   3.578  10.553   0.747  0.4186 -0.9711 -1.7329
  271MOL0     H35714   3.574  10.401   0.843 -0.2300 -0.5922 -0.9272
  271MOL0     H35715   3.322  10.542   0.758  0.1747 -0.7155 -1.0156
  271MOL0     H35716   3.340  10.403   0.861  0.8858 -0.5827 -0.5092
  271MOL0     H35717   3.492  10.665   0.930  0.4336  0.8184  1.2611
  271MOL0     H35718   3.464  10.532   1.042 -1.0250 -2.2273  0.6210
  271MOL0     H35719   3.212  10.568   1.012  1.9935 -1.7691  2.8490
  271MOL0     H35720   3.260  10.723   0.932  1.8805  0.0579 -0.6196
  271MOL0     H35721   3.349  10.669   1.205  3.2205  1.3706 -0.7275
  271MOL0     H35722   3.386  10.812   1.103  0.6874  0.1591  2.1770
  271MOL0     H35723   3.186  10.899   1.111 -0.9329  1.8828  0.9879
  271MOL0     H35724   3.197  10.842   1.283 -1.0573 -0.1055 -0.0106
  271MOL0     H35725   3.066  10.611   1.345 -0.5107 -2.8863 -0.2110
  271MOL0     H35726   2.868  10.427   1.275  1.0460  0.0156 -2.7975
  271MOL0     H35727   2.725  10.502   1.225 -2.0364  1.5574  2.1286
  271MOL0     H35728   2.858  10.630   1.458  0.1826 -2.1865  2.9911
  271MOL0     H35729   2.754  10.488   1.474 -2.1219 -2.2556 -2.4513
  271MOL0     H35730   2.672  10.742   1.318 -4.7950  1.1798  1.0272
  271MOL0     H35731   2.576  10.607   1.349  2.1598 -1.8417 -1.5952
  271MOL0     H35732   2.683  10.815   1.544  2.9108 -2.5860 -1.0799
  271MOL0     H35733   2.605  10.669   1.611  1.5921 -0.2514 -0.0060
  271MOL0     H35734   2.442  10.551   1.590  0.5132  2.1943  1.2637
  271MOL0     H35735   2.228  10.455   1.665 -2.0572  0.0171  0.0803
  271MOL0     H35736   1.816  10.247   1.390 -0.4957 -0.0526  0.4471
  271MOL0     H35737   1.641  10.109   1.452  0.4010 -1.9017  0.8442
  271MOL0     H35738   1.395  10.205   1.821  0.4177  0.7149  0.2658
  271MOL0     H35739   1.494  10.081   1.899 -0.0388  2.0896  0.1239
  271MOL0     H35740   1.369   9.893   1.818 -1.3271 -1.0260 -1.6093
  271MOL0     H35741   1.273   9.994   1.709  1.9758 -0.0643 -1.1845
  271MOL0     H35742   1.129  10.053   1.876 -0.2671 -0.5657  2.3766
  271MOL0     H35743   1.253  10.036   2.006 -2.2984  0.4684  0.5243
  271MOL0     H35744   1.114   9.818   1.830  1.0327  0.6224  0.6979
  271MOL0     H35745   1.206   9.801   1.985  1.0245  0.4126 -0.2115
  271MOL0     H35746   1.031   9.946   2.090 -1.7039 -0.7539  1.0919
  271MOL0     H35747   0.980   9.785   2.036  0.4630  0.5409 -0.1424
  271MOL0     H35748   0.906  10.050   1.912  1.0670  0.7645  1.9998
  271MOL0     H35749   0.807   9.936   2.002  0.7181 -4.0043 -0.2737
  271MOL0     H35750   0.927   9.907   1.730  0.6240 -3.7747 -0.7081
  271MOL0     H35751   0.831   9.773   1.812  0.9312 -0.4077 -0.4638
  271MOL0     H35752   0.703   9.894   1.624  0.5864  1.1144 -0.1219
  271MOL0     H35753   0.682  10.022   1.735 -0.9527  0.2562  2.6929
  271MOL0     H35754   1.595  10.305   1.825  0.2014  0.0528  0.7645
  271MOL0     H35755   1.789  10.441   1.774  2.3766 -0.8223  0.5949
  271MOL0     H35756   2.028  10.798   1.493  1.2784  0.8292  0.3512
  271MOL0     H35757   2.247  10.888   1.430  3.5369 -0.6099 -0.8262
  271MOL0     H35758   3.815  10.227   0.405  3.5006 -2.6860 -1.2339
  271MOL0     H35759   4.028  10.208   0.304 -1.1364 -0.6622 -1.8045
  271MOL0     H35760   4.406  10.487   0.120 -1.2655 -1.1813 -1.4932
  271MOL0     H35761   4.605  10.405  -0.007 -1.1961 -0.1951  0.1695
  271MOL0     H35762   4.874  10.371   0.074  0.0569 -0.1756  0.3993
  271MOL0     H35763   4.836  10.327  -0.092  0.9336 -1.6796  0.2304
  271MOL0     H35764   4.996  10.127  -0.058 -0.3891 -1.1259  0.9144
  271MOL0     H35765   5.065  10.284  -0.031 -1.6772  2.1302 -0.2074
  271MOL0     H35766   4.948  10.111   0.198  0.7343 -1.7799 -0.2909
  271MOL0     H35767   5.009  10.274   0.224 -1.3091 -2.5587  3.7625
  271MOL0     H35768   5.174  10.119   0.294  1.5158  1.1132 -0.0191
  271MOL0     H35769   5.181  10.047   0.125  2.1816  0.6359  1.0521
  271MOL0     H35770   5.426  10.366   0.068  0.3313 -1.1050 -2.3551
  271MOL0     H35771   4.655  10.087   0.273 -0.7527  0.8754  0.9585
  271MOL0     H35772   4.450  10.138   0.375 -0.5861  0.4233 -0.3162
  272MOL0     O35773   6.801  10.319   0.735 -0.0140  0.0304 -0.6741
  272MOL0     C35774   6.874  10.383   0.803 -0.3333 -1.0357  0.1187
  272MOL0     O35775   6.842  10.467   0.898  0.1531  0.1588 -0.4906
  272MOL0     C35776   6.710  10.475   0.928 -0.1061 -0.5323  0.1925
  272MOL0     C35777   6.645  10.595   0.889  0.0938 -0.3464  0.4015
  272MOL0     C35778   6.505  10.611   0.907  0.5099 -1.0541 -0.4749
  272MOL0     C35779   6.429  10.514   0.967  0.4613 -0.5107  0.2244
  272MOL0     O35780   6.296  10.534   0.995  0.0942  0.2915 -0.1157
  272MOL0     C35781   6.205  10.544   0.881  0.8874  0.2766 -0.2029
  272MOL0     C35782   6.129  10.670   0.884  0.0454 -0.1416 -0.0246
  272MOL0     C35783   6.017  10.665   0.984 -0.2790 -0.4387  0.1675
  272MOL0     C35784   5.938  10.799   1.004  0.3478  0.2893 -0.6633
  272MOL0     C35785   5.861  10.832   0.873 -0.2138  0.8631 -0.2680
  272MOL0     C35786   5.745  10.938   0.896 -0.1933  0.1282  0.3640
  272MOL0     C35787   5.661  10.960   0.773 -0.0724 -0.2808  0.1904
  272MOL0     C35788   5.742  11.050   0.671 -0.0497 -0.1700 -0.2614
  272MOL0     N35789   5.681  11.059   0.544  0.9062 -0.8861  0.1563
  272MOL0     C35790   5.557  11.114   0.511 -0.9007 -0.4355  0.4379
  272MOL0     C35791   5.548  11.102   0.373  1.0080  0.3338  0.3041
  272MOL0     C35792   5.447  11.163   0.284  0.1638  0.0217 -0.4337
  272MOL0     C35793   5.474  11.313   0.266  0.9870 -0.5259 -0.0750
  272MOL0     C35794   5.412  11.379   0.141  0.0965  0.0711 -0.0458
  272MOL0     C35795   5.270  11.345   0.098  0.3938 -0.2638 -0.7599
  272MOL0     O35796   5.195  11.296   0.213  0.3200  0.1986  0.5425
  272MOL0     C35797   5.063  11.278   0.190 -0.3806 -0.4143  0.8001
  272MOL0     C35798   4.979  11.336   0.083  0.7567 -0.6412 -0.0974
  272MOL0     C35799   4.843  11.327   0.082 -0.5831 -0.3769  0.1559
  272MOL0     C35800   4.777  11.274   0.192  0.3327 -0.2250  0.1138
  272MOL0     C35801   4.632  11.280   0.209 -0.6714  0.2954 -0.8338
  272MOL0     O35802   4.568  11.337   0.106  0.7998  0.9627 -0.6195
  272MOL0     C35803   4.433  11.351   0.124  0.4374 -0.3026 -0.7084
  272MOL0     C35804   4.381  11.464   0.181 -0.0643  0.1015 -0.3967
  272MOL0     C35805   4.245  11.476   0.192 -0.0413  1.4442 -0.1956
  272MOL0     C35806   4.152  11.381   0.139  0.5334 -0.2150  0.0766
  272MOL0     O35807   4.014  11.400   0.163  0.1355 -0.2433 -0.6228
  272MOL0     C35808   3.957  11.522   0.114 -0.1550  0.3554 -0.1929
  272MOL0     C35809   3.809  11.501   0.155  0.5757  0.3123  0.0128
  272MOL0     C35810   3.704  11.594   0.101 -0.4465  1.0226  0.6165
  272MOL0     C35811   3.561  11.577   0.170 -0.9691  0.5184  0.4630
  272MOL0     C35812   3.478  11.701   0.136  0.2627 -0.4935  0.2757
  272MOL0     C35813   3.333  11.675   0.166  0.2620  0.4041 -0.7085
  272MOL0     C35814   3.244  11.792   0.112  0.3092 -0.6505 -0.3436
  272MOL0     C35815   3.222  11.801  -0.041 -0.5033  0.8071  0.5769
  272MOL0    Cl35816   3.168  11.628  -0.097 -0.0288  0.0470 -0.3321
  272MOL0     C35817   4.204  11.267   0.074  1.3674  0.3550 -0.7367
  272MOL0     C35818   4.343  11.252   0.070  0.4533  0.6711 -0.2224
  272MOL0     O35819   4.577  11.223   0.303  0.8379 -0.4389 -0.4554
  272MOL0     C35820   4.856  11.224   0.300 -0.2796  0.6356 -0.2548
  272MOL0     C35821   4.993  11.223   0.298 -0.3906 -0.7469  0.4296
  272MOL0     N35822   5.652  11.031   0.331  0.2718 -0.3129 -0.3570
  272MOL0     N35823   5.735  11.011   0.427  0.4354  0.5402 -0.0296
  272MOL0     C35824   6.499  10.399   1.013 -0.6219 -0.0377 -0.0133
  272MOL0     C35825   6.636  10.379   0.993 -0.2498 -0.6830 -0.8370
  272MOL0     C35826   7.010  10.384   0.761  0.1958  0.6491  0.5043
  272MOL0     C35827   7.100  10.478   0.806 -0.0712 -0.6620 -0.2026
  272MOL0     C35828   7.233  10.465   0.764  0.5652 -1.0013  1.0173
  272MOL0     C35829   7.274  10.367   0.671  0.4557  0.0333  0.5099
  272MOL0     O35830   7.404  10.346   0.622  0.1702 -0.0039  0.6492
  272MOL0     C35831   7.505  10.426   0.676 -0.3560  0.0662  0.0263
  272MOL0     C35832   7.633  10.401   0.600 -0.4400 -0.0826  0.0804
  272MOL0     C35833   7.623  10.434   0.449 -0.3758 -1.0209 -0.2023
  272MOL0     C35834   7.666  10.571   0.408 -0.2930 -0.4621 -0.6442
  272MOL0     C35835   7.814  10.569   0.388  0.1163 -0.5882 -1.0269
  272MOL0     C35836   7.937  10.559   0.401  0.7192 -0.3854  0.1783
  272MOL0     C35837   7.180  10.281   0.617 -0.1010 -0.0395 -0.2603
  272MOL0     C35838   7.053  10.278   0.678 -0.9752 -0.4883  0.3055
  272MOL0     H35839   6.704  10.670   0.837  0.9707  0.4990  2.5160
  272MOL0     H35840   6.455  10.696   0.861 -2.2128 -1.2572  1.8250
  272MOL0     H35841   6.130  10.465   0.886  0.3201  0.5959 -2.3314
  272MOL0     H35842   6.256  10.531   0.785  0.6400 -2.0186 -0.0798
  272MOL0     H35843   6.080  10.683   0.787  2.8010 -0.4399 -1.5474
  272MOL0     H35844   6.183  10.765   0.889  2.0345 -1.1806 -0.8759
  272MOL0     H35845   6.058  10.656   1.085  0.1410  0.9954  0.1441
  272MOL0     H35846   5.946  10.586   0.958  0.1564 -0.5276 -0.7754
  272MOL0     H35847   5.873  10.789   1.092  2.3175 -0.6726  0.7529
  272MOL0     H35848   6.012  10.877   1.022  1.8796 -1.3896  0.7672
  272MOL0     H35849   5.811  10.747   0.826 -0.8482  1.3146 -0.4109
  272MOL0     H35850   5.936  10.865   0.800 -0.1876  0.6830 -0.3261
  272MOL0     H35851   5.776  11.031   0.944  2.4875  0.4792 -1.8218
  272MOL0     H35852   5.675  10.896   0.969 -1.2164  0.8195 -0.2007
  272MOL0     H35853   5.635  10.864   0.726 -0.1770 -0.7542  1.1780
  272MOL0     H35854   5.571  11.019   0.789  0.2076  0.4921 -0.9961
  272MOL0     H35855   5.847  11.019   0.664 -0.3143 -2.6394  3.4051
  272MOL0     H35856   5.753  11.151   0.710  0.3151  0.1203 -1.0986
  272MOL0     H35857   5.477  11.137   0.581  0.2875 -2.2036  2.5379
  272MOL0     H35858   5.352  11.152   0.337  1.3038  0.6238  1.8688
  272MOL0     H35859   5.438  11.116   0.185 -1.3812  5.5880 -3.3869
  272MOL0     H35860   5.578  11.342   0.277  0.6537  0.5444  0.3922
  272MOL0     H35861   5.423  11.362   0.350  1.6189  0.6645 -0.3698
  272MOL0     H35862   5.401  11.484   0.168 -0.9782  0.2608 -1.1297
  272MOL0     H35863   5.485  11.370   0.059  1.5442  2.9630  0.7988
  272MOL0     H35864   5.269  11.267   0.022  1.9247 -0.5633 -0.5025
  272MOL0     H35865   5.224  11.433   0.051  0.5927 -0.7355 -1.8613
  272MOL0     H35866   5.021  11.380  -0.007  1.5947 -0.3079  0.4420
  272MOL0     H35867   4.782  11.366   0.001  1.6060 -0.1276 -1.4798
  272MOL0     H35868   4.449  11.543   0.213  2.7434 -2.6894  1.1493
  272MOL0     H35869   4.188  11.550   0.247 -0.9357 -0.7753  2.0640
  272MOL0     H35870   3.963  11.526   0.005 -1.5797 -1.8983 -0.4232
  272MOL0     H35871   3.997  11.610   0.165  0.1370 -0.0022  0.1939
  272MOL0     H35872   3.819  11.511   0.263  2.3617  2.4502 -0.2950
  272MOL0     H35873   3.780  11.397   0.134  1.3439 -0.0038  0.5070
  272MOL0     H35874   3.688  11.571  -0.005  0.3018 -2.6577  1.1668
  272MOL0     H35875   3.745  11.694   0.118  0.3864  1.1093 -1.6155
  272MOL0     H35876   3.515  11.485   0.132 -1.1347 -0.1402  2.1737
  272MOL0     H35877   3.577  11.542   0.273  2.7358 -1.8907 -0.7016
  272MOL0     H35878   3.483  11.730   0.031  0.3146 -0.5518  0.2612
  272MOL0     H35879   3.507  11.791   0.190  0.9039  0.6451 -1.8398
  272MOL0     H35880   3.323  11.660   0.274  0.8911 -1.3510 -0.8580
  272MOL0     H35881   3.311  11.579   0.120  3.6667 -0.7616 -0.2206
  272MOL0     H35882   3.144  11.788   0.157 -0.2392  0.4484 -1.3859
  272MOL0     H35883   3.290  11.883   0.153 -2.4402  0.2724  0.9574
  272MOL0     H35884   3.311  11.835  -0.095  0.5160 -1.6402  0.6210
  272MOL0     H35885   3.131  11.861  -0.054  0.5065  1.8316 -2.9370
  272MOL0     H35886   4.132  11.192   0.042  0.6675  1.2729 -1.3904
  272MOL0     H35887   4.379  11.162   0.021 -0.6623 -0.0362  0.2163
  272MOL0     H35888   4.796  11.178   0.378 -2.8413 -0.9247 -2.9323
  272MOL0     H35889   5.063  11.182   0.370  2.3016 -0.5406 -1.8876
  272MOL0     H35890   6.454  10.333   1.087 -0.6902  0.2588  0.2130
  272MOL0     H35891   6.674  10.283   1.026 -1.8488 -2.0752 -2.8259
  272MOL0     H35892   7.071  10.555   0.877 -0.0030 -1.1906  0.4040
  272MOL0     H35893   7.313  10.526   0.805  2.1245 -1.5142 -1.0891
  272MOL0     H35894   7.513  10.391   0.779 -1.9217 -2.8366 -0.7227
  272MOL0     H35895   7.482  10.533   0.674 -1.5723 -0.1505  0.9173
  272MOL0     H35896   7.701  10.463   0.658 -2.1468  0.1584  1.9629
  272MOL0     H35897   7.662  10.295   0.602  0.3321  0.1117 -0.7137
  272MOL0     H35898   7.519  10.422   0.418 -1.8362  0.6295  3.4292
  272MOL0     H35899   7.692  10.360   0.407  0.4952 -1.5780  2.0620
  272MOL0     H35900   7.622  10.584   0.308 -2.2309  0.9798  0.3273
  272MOL0     H35901   7.650  10.655   0.476 -1.8625  0.1668 -1.7198
  272MOL0     H35902   8.037  10.533   0.431  0.7583 -0.0249  0.3671
  272MOL0     H35903   7.209  10.208   0.542 -2.4538 -0.1004 -1.1702
  272MOL0     H35904   6.994  10.195   0.641  0.4465 -1.3918 -0.0221
  273MOL0     O35905   7.723   5.797   8.488  0.3466 -0.4694  0.1909
  273MOL0     C35906   7.776   5.744   8.393  0.4331  0.0791 -0.0883
  273MOL0     O35907   7.714   5.705   8.281  0.4901 -0.5447 -0.2750
  273MOL0     C35908   7.579   5.736   8.265 -0.8080  0.2165  0.4825
  273MOL0     C35909   7.472   5.699   8.358  0.6717 -0.6157  1.1011
  273MOL0     C35910   7.339   5.718   8.319  0.5196 -0.8295  0.6132
  273MOL0     C35911   7.305   5.778   8.195 -0.5176 -0.1271 -0.0352
  273MOL0     O35912   7.170   5.777   8.151  0.2782 -0.1192 -0.6570
  273MOL0     C35913   7.148   5.793   8.014  0.1599 -0.4497  0.0883
  273MOL0     C35914   7.001   5.761   7.995 -0.1743  0.4090 -0.5210
  273MOL0     C35915   6.911   5.865   8.074  0.5977  0.3400  0.2250
  273MOL0     C35916   6.766   5.820   8.053  0.1046  0.3636 -0.7919
  273MOL0     C35917   6.666   5.897   8.148  0.4955 -0.0502  0.5109
  273MOL0     C35918   6.632   6.045   8.095 -0.5192 -0.0637 -0.6402
  273MOL0     C35919   6.506   6.096   8.182 -0.2654 -0.4099 -0.7227
  273MOL0     C35920   6.466   6.235   8.130  0.1818  0.1203 -0.2241
  273MOL0     N35921   6.349   6.294   8.182  0.6608 -0.0369 -0.0361
  273MOL0     C35922   6.225   6.235   8.170  0.1573  0.2125 -0.5584
  273MOL0     C35923   6.137   6.323   8.234  0.5354  0.9578  0.0569
  273MOL0     C35924   5.997   6.297   8.242  0.0882  0.3238  0.2439
  273MOL0     C35925   5.916   6.423   8.222  0.0592  0.6726 -0.1297
  273MOL0     C35926   5.769   6.379   8.255 -0.1852  0.5924 -0.7671
  273MOL0     C35927   5.664   6.494   8.231  0.0678 -0.5947 -0.3067
  273MOL0     O35928   5.541   6.432   8.270 -0.1412  0.0397  0.1434
  273MOL0     C35929   5.428   6.508   8.284 -0.5422  0.0684 -0.2406
  273MOL0     C35930   5.403   6.627   8.207 -0.8719  0.1045 -0.4153
  273MOL0     C35931   5.287   6.703   8.215 -0.6224 -0.9029  0.4050
  273MOL0     C35932   5.179   6.649   8.296 -0.7641  0.3177 -0.7753
  273MOL0     C35933   5.047   6.714   8.322  0.6779  0.3723  0.7918
  273MOL0     O35934   4.952   6.655   8.405 -0.0050  0.3484  0.0579
  273MOL0     C35935   4.835   6.713   8.430  0.4052 -0.1013  0.1705
  273MOL0     C35936   4.750   6.753   8.323  0.8156 -0.1564 -0.4641
  273MOL0     C35937   4.611   6.792   8.355  0.2419  0.5174 -0.1192
  273MOL0     C35938   4.560   6.774   8.482 -0.5609 -0.3290 -0.2686
  273MOL0     O35939   4.423   6.795   8.503 -0.5321  0.5069 -0.1103
  273MOL0     C35940   4.352   6.897   8.433 -0.0189  0.2744  0.1062
  273MOL0     C35941   4.239   6.934   8.526  0.7176 -0.1933 -0.5527
  273MOL0     C35942   4.143   6.815   8.559  0.4505 -0.2709  0.4038
  273MOL0     C35943   4.013   6.803   8.465 -0.4113  0.5426 -0.8371
  273MOL0     C35944   3.886   6.746   8.545 -0.2626 -1.1066 -0.3973
  273MOL0     C35945   3.805   6.856   8.615 -0.1893 -0.5043  0.1615
  273MOL0     C35946   3.719   6.798   8.722  0.1013 -0.1189 -0.8815
  273MOL0     C35947   3.607   6.896   8.763  0.1080 -0.0023  0.7608
  273MOL0    Cl35948   3.485   6.901   8.627  0.0375  0.3196 -0.4175
  273MOL0     C35949   4.646   6.736   8.583  0.0798 -0.0304 -0.4736
  273MOL0     C35950   4.784   6.707   8.560  0.0306 -0.3768 -0.0315
  273MOL0     O35951   5.041   6.828   8.280 -0.0923 -0.5231  0.0746
  273MOL0     C35952   5.205   6.522   8.372 -0.4316 -0.1707  0.0955
  273MOL0     C35953   5.329   6.454   8.364 -0.2935 -0.1190 -0.4551
  273MOL0     N35954   6.210   6.435   8.271  0.4310  0.1959  0.6944
  273MOL0     N35955   6.339   6.412   8.245  0.3445  0.0310  0.0504
  273MOL0     C35956   7.411   5.819   8.110 -0.4643 -0.3075  0.9700
  273MOL0     C35957   7.539   5.786   8.137 -0.4932  0.0763 -0.7661
  273MOL0     C35958   7.918   5.721   8.401  0.4915 -1.1285 -0.5696
  273MOL0     C35959   7.989   5.782   8.505 -1.4426  0.1295 -0.2381
  273MOL0     C35960   8.134   5.760   8.520  0.7932  0.3484 -0.3619
  273MOL0     C35961   8.200   5.679   8.430 -0.4446  0.2345 -0.3154
  273MOL0     O35962   8.330   5.668   8.441 -0.9533 -0.1467 -0.2058
  273MOL0     C35963   8.389   5.548   8.390  0.2179 -0.1659 -0.7463
  273MOL0     C35964   8.535   5.535   8.440 -0.0671  0.3175 -0.0345
  273MOL0     C35965   8.633   5.593   8.343 -0.3087 -0.0375 -0.0820
  273MOL0     C35966   8.787   5.591   8.394 -0.1200 -0.0895 -0.0173
  273MOL0     C35967   8.878   5.638   8.290  0.0156 -0.4153  0.3013
  273MOL0     C35968   8.951   5.647   8.192  0.2124  0.2770  0.7872
  273MOL0     C35969   8.121   5.616   8.333  0.4515 -0.3303  0.4154
  273MOL0     C35970   7.984   5.633   8.313 -0.2330 -0.2896 -0.5321
  273MOL0     H35971   7.493   5.651   8.453 -0.6336 -1.9902  0.7227
  273MOL0     H35972   7.248   5.706   8.378  0.2917 -0.7393  0.2853
  273MOL0     H35973   7.207   5.719   7.959 -0.1697 -0.4189 -0.3141
  273MOL0     H35974   7.162   5.892   7.969 -1.3057  1.3820  3.3204
  273MOL0     H35975   6.981   5.661   8.033  0.6673 -0.2483 -1.7509
  273MOL0     H35976   6.984   5.759   7.887 -0.1350 -2.3364 -0.5419
  273MOL0     H35977   6.934   5.968   8.043 -0.6382  0.2158 -1.2128
  273MOL0     H35978   6.938   5.863   8.180 -3.9114  0.7471  1.5520
  273MOL0     H35979   6.733   5.837   7.949  0.5189 -0.3211 -1.0394
  273MOL0     H35980   6.761   5.714   8.080 -1.9548  0.6264  0.0248
  273MOL0     H35981   6.697   5.898   8.252 -0.5611  2.0135  0.8550
  273MOL0     H35982   6.573   5.840   8.144  0.5893 -0.1666 -0.1666
  273MOL0     H35983   6.606   6.047   7.988  0.3932  0.8562 -0.8608
  273MOL0     H35984   6.718   6.109   8.115  0.1546 -0.7616 -1.1904
  273MOL0     H35985   6.418   6.036   8.160  0.9583 -1.9943 -1.5168
  273MOL0     H35986   6.529   6.101   8.289  0.5504  0.2620 -0.9113
  273MOL0     H35987   6.448   6.224   8.023 -0.5779  0.9910 -0.1961
  273MOL0     H35988   6.553   6.299   8.144  0.7559 -0.9903  1.7600
  273MOL0     H35989   6.200   6.137   8.130  0.8052  0.3436 -1.3026
  273MOL0     H35990   5.995   6.261   8.345  3.2031 -1.7416 -0.2745
  273MOL0     H35991   5.964   6.218   8.174 -1.1890 -0.1065  1.3341
  273MOL0     H35992   5.918   6.454   8.117 -1.6933  0.5439 -0.2297
  273MOL0     H35993   5.952   6.498   8.293  1.0022  1.9499 -1.8951
  273MOL0     H35994   5.733   6.292   8.201 -2.9497  2.3675 -2.0529
  273MOL0     H35995   5.764   6.359   8.363 -2.4813 -0.1050 -0.9408
  273MOL0     H35996   5.654   6.521   8.125 -2.3279 -0.5210 -0.1090
  273MOL0     H35997   5.701   6.577   8.292  0.5857 -1.6614  0.8589
  273MOL0     H35998   5.477   6.656   8.133  0.5075  0.5963  1.0811
  273MOL0     H35999   5.278   6.795   8.158  1.9101  0.9175  2.7145
  273MOL0     H36000   4.789   6.735   8.224 -2.9238 -1.1097 -1.9463
  273MOL0     H36001   4.541   6.815   8.276  2.1456  0.4601 -1.9102
  273MOL0     H36002   4.316   6.869   8.334 -1.6052  0.1977  0.6753
  273MOL0     H36003   4.421   6.979   8.412  2.4816 -1.0017  2.5368
  273MOL0     H36004   4.179   7.007   8.471  0.0093  0.4366  0.9984
  273MOL0     H36005   4.291   6.973   8.614  1.3474  0.1633 -1.0734
  273MOL0     H36006   4.106   6.828   8.661 -0.5568 -1.2609  0.1882
  273MOL0     H36007   4.197   6.720   8.557 -2.8069 -2.2620 -0.4037
  273MOL0     H36008   3.983   6.896   8.416 -4.1884  0.5448  1.1078
  273MOL0     H36009   4.040   6.728   8.391 -2.1935 -2.5070  1.3461
  273MOL0     H36010   3.915   6.660   8.607  0.6986 -1.6795 -1.5879
  273MOL0     H36011   3.827   6.698   8.466 -2.2970  1.1392 -0.3200
  273MOL0     H36012   3.754   6.915   8.538 -0.0489  0.9259  1.1205
  273MOL0     H36013   3.868   6.933   8.659  0.2734 -0.8283  0.0664
  273MOL0     H36014   3.678   6.703   8.687 -0.6223  0.5385 -1.8494
  273MOL0     H36015   3.780   6.783   8.812  0.1424 -2.3727 -1.2343
  273MOL0     H36016   3.643   6.999   8.773  3.9749 -1.0366 -0.6848
  273MOL0     H36017   3.564   6.867   8.860  1.3476 -3.4010  0.4377
  273MOL0     H36018   4.598   6.711   8.677  0.1946  0.0993 -0.3796
  273MOL0     H36019   4.847   6.680   8.644 -1.3178  1.0851  1.5156
  273MOL0     H36020   5.141   6.491   8.453 -0.4430  1.6731  0.8321
  273MOL0     H36021   5.341   6.364   8.425 -0.4540  0.0319 -0.2016
  273MOL0     H36022   7.403   5.859   8.009 -1.0893 -1.5792  0.4818
  273MOL0     H36023   7.618   5.799   8.063 -0.0152  4.1510  0.1953
  273MOL0     H36024   7.940   5.850   8.573 -1.0210  0.6093 -0.4074
  273MOL0     H36025   8.194   5.804   8.600  0.4676 -0.0006  0.0785
  273MOL0     H36026   8.396   5.537   8.281  2.6304 -2.7917 -0.4636
  273MOL0     H36027   8.341   5.455   8.422  2.4351 -0.0756  3.5465
  273MOL0     H36028   8.546   5.594   8.531 -0.2441  0.9097 -0.3906
  273MOL0     H36029   8.562   5.430   8.452  1.5511  0.3103 -2.8311
  273MOL0     H36030   8.594   5.691   8.315  1.0640  0.5243 -0.0974
  273MOL0     H36031   8.623   5.553   8.242 -0.2502 -0.5979  0.1305
  273MOL0     H36032   8.805   5.652   8.483  2.9495  2.9683 -2.4351
  273MOL0     H36033   8.807   5.487   8.419 -1.5252 -1.1086 -2.6769
  273MOL0     H36034   9.023   5.671   8.117  1.4138 -3.0660  0.7116
  273MOL0     H36035   8.173   5.548   8.267  1.0041  2.0145 -1.7015
  273MOL0     H36036   7.930   5.582   8.234 -1.3893 -0.6676  0.4723
  274MOL0     O36037   4.759  11.033   3.561 -1.5469 -0.0948 -0.2315
  274MOL0     C36038   4.791  11.061   3.446  0.5704  1.4107  0.1715
  274MOL0     O36039   4.696  11.101   3.353 -0.8394  0.0882  0.0777
  274MOL0     C36040   4.564  11.097   3.378  0.6623 -0.0977 -0.3953
  274MOL0     C36041   4.483  11.058   3.270 -0.8087 -0.2016  0.3763
  274MOL0     C36042   4.350  11.057   3.282  0.5125 -0.2528  0.2955
  274MOL0     C36043   4.280  11.112   3.392  0.7201  0.1009  0.3343
  274MOL0     O36044   4.145  11.114   3.393  0.4148  0.0759 -0.6678
  274MOL0     C36045   4.091  11.245   3.432 -0.2130  0.6788  0.2055
  274MOL0     C36046   3.937  11.256   3.422 -0.4424 -0.8927 -0.4144
  274MOL0     C36047   3.872  11.394   3.462  0.2090  0.0079  1.0526
  274MOL0     C36048   3.721  11.382   3.494 -0.7583 -0.1867  0.1026
  274MOL0     C36049   3.680  11.527   3.512 -0.3801 -0.2335 -0.9121
  274MOL0     C36050   3.524  11.538   3.504  0.0259  0.4617 -0.4773
  274MOL0     C36051   3.480  11.679   3.549  0.9034 -0.3215 -0.4428
  274MOL0     C36052   3.342  11.686   3.594  0.2564  0.0036 -0.0470
  274MOL0     N36053   3.300  11.824   3.629 -0.8398 -0.0672  0.3380
  274MOL0     C36054   3.225  11.907   3.555  0.1347  0.3365  0.4024
  274MOL0     C36055   3.216  12.023   3.616  0.1101  0.8221 -0.0722
  274MOL0     C36056   3.141  12.139   3.555  0.2589  0.4803  0.6673
  274MOL0     C36057   2.988  12.115   3.575  0.5510 -0.6210 -0.7200
  274MOL0     C36058   2.905  12.223   3.502 -0.4408 -0.3101 -0.3117
  274MOL0     C36059   2.761  12.228   3.538  0.4902 -0.0095 -0.0453
  274MOL0     O36060   2.712  12.349   3.478  0.5752  0.1696  0.3066
  274MOL0     C36061   2.574  12.363   3.452 -0.0956 -0.4356  0.0270
  274MOL0     C36062   2.547  12.460   3.362  0.0652  0.3165  0.1032
  274MOL0     C36063   2.414  12.497   3.349 -0.1644  0.0608 -0.1358
  274MOL0     C36064   2.305  12.421   3.409  0.3678 -0.1047 -0.7850
  274MOL0     C36065   2.159  12.452   3.400 -0.5124 -0.1182  0.4012
  274MOL0     O36066   2.084  12.381   3.480 -0.8415 -0.3345  0.3937
  274MOL0     C36067   1.954  12.415   3.500 -0.2360 -0.0628 -0.0936
  274MOL0     C36068   1.919  12.539   3.563  0.5302 -0.1171  0.8766
  274MOL0     C36069   1.779  12.563   3.581 -0.3623 -0.4112  1.1498
  274MOL0     C36070   1.680  12.487   3.516  0.4450  0.3067 -0.1599
  274MOL0     O36071   1.551  12.523   3.530  0.1021  0.3076  0.8929
  274MOL0     C36072   1.452  12.420   3.523 -0.1545  0.3738  0.4568
  274MOL0     C36073   1.357  12.444   3.640 -0.6458 -0.5191 -0.1815
  274MOL0     C36074   1.296  12.579   3.659  0.0647  0.4235  0.1744
  274MOL0     C36075   1.222  12.639   3.533 -0.2299  0.9161  0.1696
  274MOL0     C36076   1.097  12.558   3.489 -0.2423 -0.6415  0.4683
  274MOL0     C36077   1.029  12.615   3.360 -0.6554 -0.5522  0.2617
  274MOL0     C36078   0.893  12.549   3.320 -0.5227 -0.1692  0.2058
  274MOL0     C36079   0.792  12.570   3.429 -0.6402  0.3366  0.3281
  274MOL0    Cl36080   0.743  12.740   3.441  0.2583 -0.0361 -0.1634
  274MOL0     C36081   1.721  12.372   3.448 -0.6977  0.0762 -0.0861
  274MOL0     C36082   1.858  12.337   3.440 -0.3667 -0.3217 -0.2131
  274MOL0     O36083   2.119  12.531   3.314  0.5205 -0.1050 -0.1545
  274MOL0     C36084   2.341  12.306   3.479 -0.7043  0.1140  0.3487
  274MOL0     C36085   2.472  12.290   3.513  0.1300 -0.1083 -0.9503
  274MOL0     N36086   3.285  12.009   3.738 -0.6995  0.9563  0.1575
  274MOL0     N36087   3.338  11.889   3.745  0.2893 -0.2008  1.2031
  274MOL0     C36088   4.357  11.160   3.498 -0.5443  0.1732  0.0127
  274MOL0     C36089   4.497  11.145   3.492 -0.4342 -0.5785  0.5901
  274MOL0     C36090   4.922  11.020   3.398  0.6812 -0.4578  0.2695
  274MOL0     C36091   5.011  10.952   3.474  0.8547  0.0271 -0.0577
  274MOL0     C36092   5.134  10.907   3.431  1.1661 -0.0939  0.0595
  274MOL0     C36093   5.166  10.932   3.298  0.4739  0.7729 -0.3051
  274MOL0     O36094   5.291  10.909   3.243  0.1460 -0.5279  0.7243
  274MOL0     C36095   5.381  10.829   3.330  0.0906 -1.0833 -0.1879
  274MOL0     C36096   5.513  10.824   3.260 -0.4600 -1.0033 -0.2173
  274MOL0     C36097   5.614  10.741   3.337 -0.3798 -0.0323  0.0399
  274MOL0     C36098   5.737  10.715   3.242 -0.4444  0.3279 -0.9004
  274MOL0     C36099   5.707  10.608   3.149 -0.6362  0.3808 -0.8853
  274MOL0     C36100   5.679  10.515   3.083  0.6377 -0.1750  0.1562
  274MOL0     C36101   5.078  11.005   3.216  1.1294 -1.0197 -0.9237
  274MOL0     C36102   4.952  11.048   3.257  0.7900 -0.0943 -0.1726
  274MOL0     H36103   4.527  11.029   3.175  0.7740  1.1081  0.6599
  274MOL0     H36104   4.285  11.032   3.199  0.1955  1.7210 -0.1093
  274MOL0     H36105   4.134  11.319   3.363 -0.3563 -0.4800 -1.1952
  274MOL0     H36106   4.109  11.270   3.537  0.4071  0.0723  0.2457
  274MOL0     H36107   3.893  11.184   3.492 -0.8614 -1.3997 -1.1944
  274MOL0     H36108   3.916  11.234   3.317 -0.1131  1.6720 -1.0815
  274MOL0     H36109   3.897  11.466   3.383  0.6496 -1.1214  0.1362
  274MOL0     H36110   3.918  11.429   3.554  3.3334  2.8000 -1.3024
  274MOL0     H36111   3.665  11.335   3.413 -2.6600  1.3316  0.4578
  274MOL0     H36112   3.716  11.329   3.590  0.2238  0.7436  0.6861
  274MOL0     H36113   3.717  11.590   3.430  2.0836  1.1062  1.0780
  274MOL0     H36114   3.714  11.570   3.607 -3.1803 -1.7921  0.9330
  274MOL0     H36115   3.471  11.456   3.553 -0.6383  0.8337 -0.5610
  274MOL0     H36116   3.493  11.519   3.401 -0.2214  1.1419 -0.5382
  274MOL0     H36117   3.541  11.715   3.632  2.8164 -0.2886 -1.8038
  274MOL0     H36118   3.488  11.741   3.459 -1.0264 -0.9943 -1.1298
  274MOL0     H36119   3.312  11.620   3.676 -4.4940  2.0773  0.2021
  274MOL0     H36120   3.292  11.647   3.505  0.4455  2.3842 -1.2602
  274MOL0     H36121   3.177  11.884   3.460 -0.4527 -0.3192  0.8495
  274MOL0     H36122   3.173  12.150   3.451 -1.1070  2.1236  0.3762
  274MOL0     H36123   3.157  12.231   3.611 -3.2923  2.6664 -1.5070
  274MOL0     H36124   2.959  12.123   3.680 -0.9722 -2.4195 -0.9523
  274MOL0     H36125   2.968  12.017   3.531 -1.7720 -1.1203  1.2829
  274MOL0     H36126   2.946  12.319   3.534 -0.9757 -0.3365  0.4831
  274MOL0     H36127   2.927  12.216   3.395 -0.2520 -0.0676 -0.2902
  274MOL0     H36128   2.748  12.249   3.645  0.0535  3.1975 -0.6311
  274MOL0     H36129   2.706  12.140   3.505 -1.2498  1.4030 -1.0966
  274MOL0     H36130   2.615  12.503   3.289 -1.0841 -1.1363 -1.9608
  274MOL0     H36131   2.378  12.581   3.289 -4.7009  0.3770  2.5755
  274MOL0     H36132   1.990  12.613   3.599  0.6182 -0.3660  1.2106
  274MOL0     H36133   1.751  12.659   3.622 -0.7299  0.3865 -0.8839
  274MOL0     H36134   1.498  12.322   3.540  0.8801  0.7608 -0.0292
  274MOL0     H36135   1.393  12.427   3.431 -1.7618 -1.5888  1.2709
  274MOL0     H36136   1.397  12.424   3.739 -0.4997  1.7464  0.2521
  274MOL0     H36137   1.263  12.389   3.629 -2.3526  1.1102  4.1592
  274MOL0     H36138   1.382  12.637   3.691  1.0964  0.1756 -1.9514
  274MOL0     H36139   1.227  12.578   3.744  0.4064 -1.3496  0.4754
  274MOL0     H36140   1.206  12.744   3.558 -0.7166  0.8672  0.0620
  274MOL0     H36141   1.292  12.644   3.449 -0.4878  1.1886 -0.0330
  274MOL0     H36142   1.023  12.562   3.570 -2.5700  2.0383 -1.6125
  274MOL0     H36143   1.123  12.453   3.474 -0.8331 -0.8204  0.6531
  274MOL0     H36144   1.104  12.607   3.281 -2.9511 -0.9151 -1.9993
  274MOL0     H36145   1.009  12.721   3.377  2.8802  0.0678  1.4914
  274MOL0     H36146   0.865  12.597   3.225  3.8938 -0.5759 -1.5764
  274MOL0     H36147   0.919  12.444   3.304  2.6817  0.3515  1.3667
  274MOL0     H36148   0.832  12.525   3.520  0.4961 -0.0299 -0.3374
  274MOL0     H36149   0.703  12.513   3.399  0.5213  0.0215 -2.9031
  274MOL0     H36150   1.654  12.303   3.399  2.3924 -3.3640  0.0650
  274MOL0     H36151   1.883  12.248   3.383 -0.5716  0.5025 -1.6425
  274MOL0     H36152   2.269  12.231   3.512 -0.2264 -0.7100 -0.4213
  274MOL0     H36153   2.501  12.207   3.577  0.2486 -0.4008 -1.3784
  274MOL0     H36154   4.309  11.194   3.589  0.7734 -1.1255  1.2518
  274MOL0     H36155   4.564  11.184   3.569 -1.8750  1.4331  0.8821
  274MOL0     H36156   4.998  10.936   3.580  3.3766  1.5761  0.5926
  274MOL0     H36157   5.193  10.845   3.498 -1.1745 -1.5851  0.8412
  274MOL0     H36158   5.336  10.731   3.352  0.5984 -1.7140 -1.7870
  274MOL0     H36159   5.407  10.875   3.426  0.2213 -1.1631 -0.1853
  274MOL0     H36160   5.489  10.781   3.163 -1.2914 -0.7823 -0.1154
  274MOL0     H36161   5.555  10.924   3.247 -2.3332 -0.3917 -2.0830
  274MOL0     H36162   5.567  10.644   3.357 -0.9525  0.0670 -0.7783
  274MOL0     H36163   5.639  10.779   3.436  0.6419 -1.1419  0.2367
  274MOL0     H36164   5.766  10.809   3.193 -0.4274  0.5518 -0.4632
  274MOL0     H36165   5.823  10.677   3.299 -0.8015  0.3007 -0.3701
  274MOL0     H36166   5.645  10.428   3.030 -0.9740 -1.2074  2.6914
  274MOL0     H36167   5.115  11.023   3.116 -0.3855  1.8384 -1.0558
  274MOL0     H36168   4.895  11.109   3.189  1.8016  3.0908  1.6147
  275MOL0     O36169  10.776   5.599   5.758  0.0570 -0.1926 -0.1224
  275MOL0     C36170  10.844   5.546   5.670  0.2906 -0.0629  0.5633
  275MOL0     O36171  10.814   5.426   5.609 -0.4286 -0.3150  0.7158
  275MOL0     C36172  10.683   5.387   5.637 -1.1106 -0.5985 -0.3078
  275MOL0     C36173  10.646   5.280   5.717  0.2665  0.4043  0.4454
  275MOL0     C36174  10.515   5.242   5.721 -0.6859  0.4469 -0.1047
  275MOL0     C36175  10.409   5.309   5.665 -0.4519 -0.3487  0.1483
  275MOL0     O36176  10.285   5.266   5.690  0.4044  0.0982 -0.2740
  275MOL0     C36177  10.174   5.307   5.607  0.6159 -0.2477  0.0182
  275MOL0     C36178  10.040   5.260   5.655 -0.0586  0.8518 -0.4547
  275MOL0     C36179  10.033   5.102   5.625  0.0130 -0.0635  0.2287
  275MOL0     C36180   9.921   5.039   5.711  0.4216 -0.5001  0.2728
  275MOL0     C36181   9.782   5.099   5.672 -0.6927 -0.2974  0.4352
  275MOL0     C36182   9.681   5.072   5.783  0.0123 -0.5444 -0.0549
  275MOL0     C36183   9.531   5.111   5.753  0.0367  0.1942 -0.2894
  275MOL0     C36184   9.453   5.001   5.697  0.0389 -0.3026  1.0907
  275MOL0     N36185   9.314   5.033   5.718 -0.9724 -0.0397  0.5142
  275MOL0     C36186   9.235   4.970   5.800  0.5343  0.3535 -0.2743
  275MOL0     C36187   9.110   5.014   5.772  0.3971 -0.7830  1.0059
  275MOL0     C36188   8.991   4.971   5.841  0.0410 -0.6827 -0.0442
  275MOL0     C36189   8.864   5.044   5.801  0.5240  0.4975 -0.1574
  275MOL0     C36190   8.817   4.992   5.664  1.1330  0.2353 -0.4424
  275MOL0     C36191   8.690   5.079   5.624 -0.0684  0.1649 -0.2494
  275MOL0     O36192   8.598   5.072   5.729  0.5153 -0.2765  0.8921
  275MOL0     C36193   8.470   5.128   5.716  0.6725 -0.2123  0.2258
  275MOL0     C36194   8.389   5.098   5.824  0.3516  0.1104  0.5124
  275MOL0     C36195   8.261   5.141   5.831  1.4439 -0.4386  0.0331
  275MOL0     C36196   8.205   5.216   5.726 -0.5602  0.8166  0.2036
  275MOL0     C36197   8.067   5.274   5.737 -0.1213  0.6257  0.2671
  275MOL0     O36198   7.978   5.213   5.832  0.0319 -0.3891  0.0456
  275MOL0     C36199   7.854   5.269   5.854 -0.6746 -0.7820 -0.3033
  275MOL0     C36200   7.774   5.324   5.753 -0.0164 -0.2326 -0.8143
  275MOL0     C36201   7.632   5.344   5.777 -0.5257 -0.2851  0.6628
  275MOL0     C36202   7.584   5.341   5.908 -0.2350 -0.0124 -1.0250
  275MOL0     O36203   7.445   5.377   5.923  0.2160  0.2244 -0.3065
  275MOL0     C36204   7.382   5.358   6.046  0.2062 -0.3436  0.3100
  275MOL0     C36205   7.244   5.434   6.033  0.1449  1.6030 -0.7261
  275MOL0     C36206   7.149   5.370   6.139  0.0057 -0.3547  0.0646
  275MOL0     C36207   7.012   5.439   6.128  0.1348 -0.2750 -0.8732
  275MOL0     C36208   6.909   5.376   6.235 -0.3604  0.3156  0.5407
  275MOL0     C36209   6.766   5.436   6.244 -0.6357 -0.2039  0.2518
  275MOL0     C36210   6.696   5.377   6.368  0.1542 -0.8899 -0.0124
  275MOL0     C36211   6.553   5.433   6.374  0.7018 -0.6686 -0.3555
  275MOL0    Cl36212   6.557   5.600   6.408  0.2282 -0.3156 -0.1376
  275MOL0     C36213   7.676   5.300   6.012  0.3454 -0.1354 -0.4080
  275MOL0     C36214   7.804   5.257   5.979  0.2948  0.0807  0.1247
  275MOL0     O36215   8.046   5.375   5.674  0.4996  0.5506 -0.2745
  275MOL0     C36216   8.288   5.256   5.618  0.2428 -0.1386 -0.8060
  275MOL0     C36217   8.416   5.205   5.607  1.2828 -0.2455  0.1903
  275MOL0     N36218   9.119   5.096   5.664 -0.3515 -0.1461 -0.7530
  275MOL0     N36219   9.240   5.101   5.620 -0.0659 -1.2673  0.1560
  275MOL0     C36220  10.448   5.421   5.588 -0.4128 -0.6919 -0.3574
  275MOL0     C36221  10.580   5.455   5.569 -0.5686  0.7366  0.4817
  275MOL0     C36222  10.969   5.611   5.634 -0.4279 -0.7078  0.6601
  275MOL0     C36223  11.008   5.732   5.692 -0.6900  0.3652 -0.3921
  275MOL0     C36224  11.130   5.783   5.655  0.4561  0.2296 -0.1881
  275MOL0     C36225  11.217   5.726   5.564  0.7352  0.1126 -0.3100
  275MOL0     O36226  11.342   5.771   5.537 -0.1131 -0.3530  0.2976
  275MOL0     C36227  11.386   5.885   5.611 -0.5259  0.5379  0.6591
  275MOL0     C36228  11.523   5.900   5.562 -0.1310 -0.7821  0.2033
  275MOL0     C36229  11.627   5.790   5.603  0.3154  1.1747 -0.3596
  275MOL0     C36230  11.754   5.791   5.518  0.8886  0.4326  0.3133
  275MOL0     C36231  11.833   5.912   5.537  0.4126 -0.1261 -0.1245
  275MOL0     C36232  11.884   6.017   5.557  0.1053 -0.3912 -0.4854
  275MOL0     C36233  11.176   5.611   5.502  0.1085 -0.8164 -0.4903
  275MOL0     C36234  11.050   5.553   5.535 -0.8854 -0.0949  0.6069
  275MOL0     H36235  10.720   5.213   5.761  1.6498 -1.2558 -3.8324
  275MOL0     H36236  10.497   5.158   5.787 -3.1512 -0.5896 -1.9413
  275MOL0     H36237  10.195   5.272   5.505  3.0681  0.9837  0.0343
  275MOL0     H36238  10.171   5.416   5.603 -1.8330 -0.1927  1.3741
  275MOL0     H36239   9.957   5.307   5.602 -0.2110  1.2558  0.1403
  275MOL0     H36240  10.035   5.273   5.763 -1.4279  0.5233 -0.4651
  275MOL0     H36241  10.132   5.058   5.637  0.0927 -0.1034 -0.5348
  275MOL0     H36242  10.005   5.100   5.520 -2.2788  0.3827  0.7641
  275MOL0     H36243   9.921   4.930   5.712  2.0900 -0.5398  1.1273
  275MOL0     H36244   9.938   5.065   5.816  1.4059  0.0277  0.0024
  275MOL0     H36245   9.743   5.046   5.584 -1.1554  0.2547  0.3004
  275MOL0     H36246   9.791   5.208   5.663  3.4434 -0.0274  4.3982
  275MOL0     H36247   9.720   5.131   5.866  0.0096 -0.9813  0.2606
  275MOL0     H36248   9.693   4.970   5.820  2.7154 -0.6511 -1.0285
  275MOL0     H36249   9.488   5.136   5.850  1.7531  0.3849  0.4568
  275MOL0     H36250   9.538   5.191   5.679  0.6202  0.6955  0.3007
  275MOL0     H36251   9.479   4.909   5.749  1.8737  2.1054  4.8360
  275MOL0     H36252   9.472   4.992   5.589 -2.7446 -0.2959  0.5220
  275MOL0     H36253   9.260   4.904   5.882  0.5746 -0.0695 -0.6267
  275MOL0     H36254   9.020   4.995   5.944  2.9294  0.1861 -0.9515
  275MOL0     H36255   8.978   4.863   5.824 -0.3071 -0.5203 -0.8469
  275MOL0     H36256   8.903   5.146   5.787  2.5147 -0.0188  1.1633
  275MOL0     H36257   8.791   5.045   5.882  1.9196  2.0638  1.1911
  275MOL0     H36258   8.889   5.004   5.583 -0.9976  1.7072 -2.2570
  275MOL0     H36259   8.792   4.886   5.674  3.0166 -0.0969  1.5764
  275MOL0     H36260   8.648   5.036   5.533  0.8104  1.0871 -1.1342
  275MOL0     H36261   8.729   5.180   5.605 -0.7336  0.2386 -1.2628
  275MOL0     H36262   8.440   5.042   5.902 -1.0419 -1.2766  0.4698
  275MOL0     H36263   8.200   5.119   5.918 -1.3500  1.6507 -1.2473
  275MOL0     H36264   7.809   5.340   5.651  2.6365  0.4338  0.1027
  275MOL0     H36265   7.569   5.367   5.692 -1.3690  0.6501  1.5254
  275MOL0     H36266   7.436   5.395   6.134  0.2518  0.0308  0.1279
  275MOL0     H36267   7.362   5.250   6.048  0.6793 -0.5024 -1.6429
  275MOL0     H36268   7.212   5.424   5.929  1.0579  1.1075 -0.9690
  275MOL0     H36269   7.254   5.539   6.060  1.8514  0.6277  2.9508
  275MOL0     H36270   7.194   5.381   6.238 -1.9995  0.3533  0.9652
  275MOL0     H36271   7.141   5.262   6.122  0.9493 -0.6632  1.4516
  275MOL0     H36272   7.023   5.547   6.143  1.4866 -0.5112 -0.0091
  275MOL0     H36273   6.968   5.423   6.029 -0.9673 -2.6412 -0.0670
  275MOL0     H36274   6.950   5.382   6.336  0.8171 -0.0814  0.1122
  275MOL0     H36275   6.904   5.270   6.210  3.7725 -0.0895  0.6664
  275MOL0     H36276   6.716   5.408   6.151  1.0789 -2.0412 -0.2142
  275MOL0     H36277   6.769   5.544   6.258 -2.4197  0.1345 -1.4976
  275MOL0     H36278   6.684   5.268   6.361 -0.1348 -1.1271  2.7946
  275MOL0     H36279   6.752   5.398   6.460  0.0230 -3.4391  0.7235
  275MOL0     H36280   6.525   5.377   6.465  1.0945 -1.5031 -0.7381
  275MOL0     H36281   6.495   5.417   6.283 -0.9048  3.0355 -0.1601
  275MOL0     H36282   7.637   5.304   6.114 -2.7039  0.9314 -1.5058
  275MOL0     H36283   7.870   5.220   6.056 -0.6956 -3.1532 -0.4094
  275MOL0     H36284   8.255   5.315   5.533  0.3235  1.6909  0.3703
  275MOL0     H36285   8.485   5.229   5.527  1.4884 -3.3847 -0.7025
  275MOL0     H36286  10.381   5.489   5.538  1.0730 -0.9447 -2.8698
  275MOL0     H36287  10.618   5.535   5.506 -0.6942 -0.7765 -1.6059
  275MOL0     H36288  10.948   5.780   5.768 -0.6285  2.8980 -1.8408
  275MOL0     H36289  11.148   5.876   5.707 -0.7724  0.0938  0.5165
  275MOL0     H36290  11.383   5.863   5.718 -0.0910  0.6353  0.6916
  275MOL0     H36291  11.327   5.973   5.582  1.0828  1.0966 -1.1131
  275MOL0     H36292  11.528   5.914   5.453  0.8773  1.5215  0.4882
  275MOL0     H36293  11.562   5.995   5.600  1.9681 -0.8792 -1.5226
  275MOL0     H36294  11.576   5.693   5.604  0.7492  0.9425  0.6060
  275MOL0     H36295  11.663   5.805   5.705 -1.2329  1.2628  0.2044
  275MOL0     H36296  11.817   5.706   5.547 -0.4147 -1.3850 -1.9155
  275MOL0     H36297  11.728   5.780   5.413  1.0607 -1.3159  0.4256
  275MOL0     H36298  11.928   6.114   5.569 -0.8914 -0.0023  0.1829
  275MOL0     H36299  11.241   5.569   5.426 -1.5889  1.4812 -3.4432
  275MOL0     H36300  11.026   5.461   5.484 -1.2483 -0.6057  1.6703
  276MOL0     O36301   2.944   4.183   7.631  0.0899 -0.1622  0.0697
  276MOL0     C36302   3.041   4.178   7.556  0.6029 -0.5690  0.0535
  276MOL0     O36303   3.036   4.190   7.421 -0.4211 -0.0777  0.2025
  276MOL0     C36304   2.920   4.184   7.346  0.1446  0.0128 -0.1681
  276MOL0     C36305   2.802   4.119   7.374 -0.0443  0.0081 -0.2206
  276MOL0     C36306   2.705   4.105   7.279  0.7113 -0.7991 -0.5799
  276MOL0     C36307   2.715   4.149   7.144 -0.3447 -0.5936 -0.7153
  276MOL0     O36308   2.632   4.122   7.040  0.1227  0.0418  0.3231
  276MOL0     C36309   2.508   4.067   7.076  0.4853 -0.0504 -0.1458
  276MOL0     C36310   2.440   4.029   6.945  0.1756  0.0660  1.0114
  276MOL0     C36311   2.317   3.943   6.972 -0.1126 -0.1822  0.0367
  276MOL0     C36312   2.242   3.907   6.850  0.2279 -0.5257 -0.0869
  276MOL0     C36313   2.107   3.847   6.890 -0.8168 -0.1003  0.5919
  276MOL0     C36314   2.018   3.831   6.771 -0.5226  0.2760  0.1006
  276MOL0     C36315   1.885   3.780   6.816 -0.0139  0.5124  0.5451
  276MOL0     C36316   1.800   3.753   6.688  0.9192 -0.3809  0.0326
  276MOL0     N36317   1.667   3.732   6.743 -0.2486  1.1837  0.0955
  276MOL0     C36318   1.576   3.838   6.768  0.3246  0.6099 -0.7100
  276MOL0     C36319   1.457   3.781   6.796  1.1261  0.5760  1.0960
  276MOL0     C36320   1.336   3.861   6.838  0.0698 -0.3648  0.1878
  276MOL0     C36321   1.196   3.777   6.821  0.1453 -0.7413  0.0951
  276MOL0     C36322   1.166   3.703   6.955  0.7030 -0.2847  0.5460
  276MOL0     C36323   1.030   3.647   6.955  0.7013 -0.2129 -0.4084
  276MOL0     O36324   0.999   3.617   7.090  0.2482  0.0491 -0.2425
  276MOL0     C36325   0.877   3.569   7.124  0.5551  0.8500 -0.0095
  276MOL0     C36326   0.842   3.547   7.255  0.2357  0.6314 -0.3099
  276MOL0     C36327   0.711   3.513   7.297  0.4333  0.2651  0.3361
  276MOL0     C36328   0.607   3.504   7.198  0.1598 -1.0801  0.4187
  276MOL0     C36329   0.471   3.480   7.242  1.0465  0.0351 -0.2502
  276MOL0     O36330   0.366   3.519   7.170  0.1942  0.5611 -0.4997
  276MOL0     C36331   0.240   3.496   7.233  0.4919 -0.5259 -0.1541
  276MOL0     C36332   0.205   3.566   7.358 -0.3563  0.6296  0.7792
  276MOL0     C36333   0.070   3.565   7.406 -0.3518 -0.2776 -0.0877
  276MOL0     C36334  -0.031   3.490   7.337 -0.1719  0.1863  0.2626
  276MOL0     O36335  -0.164   3.490   7.372 -0.1593  0.9848 -0.0831
  276MOL0     C36336  -0.211   3.586   7.461 -0.4671  0.3186  0.0859
  276MOL0     C36337  -0.362   3.613   7.451  0.0818  0.2111  0.5211
  276MOL0     C36338  -0.407   3.670   7.313 -0.1748  0.0736 -0.2898
  276MOL0     C36339  -0.558   3.667   7.301 -0.5315  0.2949 -0.2773
  276MOL0     C36340  -0.599   3.731   7.173  0.4424 -0.5184  1.0531
  276MOL0     C36341  -0.747   3.747   7.163 -1.0419 -0.7248  0.1968
  276MOL0     C36342  -0.786   3.759   7.018  0.2016 -0.1404  0.2274
  276MOL0     C36343  -0.932   3.775   6.996  0.3777 -0.1837 -0.2746
  276MOL0    Cl36344  -0.958   3.771   6.819 -0.4280  0.1561  0.2760
  276MOL0     C36345   0.007   3.427   7.222 -0.1569 -0.7394 -0.3490
  276MOL0     C36346   0.133   3.439   7.163 -0.0394 -0.2369 -0.1471
  276MOL0     O36347   0.457   3.435   7.357  0.3853  0.0715  0.2712
  276MOL0     C36348   0.644   3.520   7.065 -0.3808 -0.6118 -0.2231
  276MOL0     C36349   0.778   3.546   7.031  1.1716  0.5694 -0.0819
  276MOL0     N36350   1.474   3.646   6.773  0.6672 -0.4572 -0.6631
  276MOL0     N36351   1.606   3.612   6.755 -0.3698 -0.4619  0.3890
  276MOL0     C36352   2.842   4.213   7.117  0.4684  0.3528 -0.5913
  276MOL0     C36353   2.930   4.228   7.213  0.0743 -0.3022  0.2919
  276MOL0     C36354   3.168   4.151   7.612 -0.9776  0.4099  0.4367
  276MOL0     C36355   3.184   4.153   7.750  0.4406 -0.1890 -0.7525
  276MOL0     C36356   3.311   4.117   7.808  0.3200  0.7063 -0.2449
  276MOL0     C36357   3.421   4.066   7.730  0.0621  0.5925 -0.4534
  276MOL0     O36358   3.544   4.025   7.778  0.2731  0.2602  0.2742
  276MOL0     C36359   3.570   4.014   7.919 -0.5269 -0.8030 -0.0523
  276MOL0     C36360   3.543   3.870   7.960 -0.6667 -0.2606 -0.3028
  276MOL0     C36361   3.657   3.770   7.938 -0.5543 -0.0506  0.6554
  276MOL0     C36362   3.626   3.623   7.973 -0.2621  0.0185  0.0930
  276MOL0     C36363   3.752   3.547   7.977  0.6001 -0.7231  0.4024
  276MOL0     C36364   3.855   3.476   7.990  0.2624  0.1149  0.3744
  276MOL0     C36365   3.402   4.071   7.594 -0.5477  0.4470 -0.0081
  276MOL0     C36366   3.284   4.112   7.533  0.1338 -0.2688  0.1665
  276MOL0     H36367   2.778   4.080   7.472 -1.2224 -1.0491 -0.9023
  276MOL0     H36368   2.622   4.044   7.313  1.6507 -0.9672  1.5672
  276MOL0     H36369   2.442   4.142   7.120 -0.5457  0.0460 -1.7803
  276MOL0     H36370   2.506   3.982   7.144  3.6323 -2.1677 -2.4352
  276MOL0     H36371   2.504   3.972   6.876  0.9002  2.8339 -0.7790
  276MOL0     H36372   2.408   4.118   6.890  0.8101 -0.6719 -0.6330
  276MOL0     H36373   2.249   3.994   7.040 -1.6727  1.1576 -2.3895
  276MOL0     H36374   2.355   3.852   7.020  2.1042  0.6455 -0.0631
  276MOL0     H36375   2.207   3.988   6.786 -0.3656  0.5831  1.5575
  276MOL0     H36376   2.294   3.839   6.782 -2.2728 -0.3628 -2.3212
  276MOL0     H36377   2.058   3.920   6.956  1.7852  2.4790 -0.0881
  276MOL0     H36378   2.120   3.751   6.941 -0.0732 -0.5654 -0.4449
  276MOL0     H36379   2.052   3.746   6.710  0.2724  0.8566 -0.2825
  276MOL0     H36380   2.007   3.921   6.710 -2.1594  0.2593  0.3200
  276MOL0     H36381   1.890   3.692   6.880 -0.7917  0.1033  0.0603
  276MOL0     H36382   1.834   3.855   6.877  0.3106 -0.4474  2.0571
  276MOL0     H36383   1.838   3.668   6.632 -1.7326 -2.0954  0.6560
  276MOL0     H36384   1.794   3.845   6.628 -0.9494  0.3116  1.1518
  276MOL0     H36385   1.607   3.941   6.783 -0.7218  0.5013  3.4321
  276MOL0     H36386   1.318   3.944   6.768 -2.3608 -0.7266  0.3096
  276MOL0     H36387   1.341   3.900   6.940 -0.4450  0.5140 -0.1096
  276MOL0     H36388   1.211   3.704   6.741 -0.7097 -1.4091  0.5412
  276MOL0     H36389   1.109   3.839   6.798  1.1979  0.5513 -0.5862
  276MOL0     H36390   1.247   3.630   6.970  0.4135 -0.7695 -0.1860
  276MOL0     H36391   1.160   3.771   7.040 -2.3189 -0.5601  0.6451
  276MOL0     H36392   1.027   3.558   6.891 -2.6336  0.3768 -1.2733
  276MOL0     H36393   0.951   3.704   6.904 -1.6969 -0.3645  2.8054
  276MOL0     H36394   0.928   3.539   7.321  1.3640 -1.3911 -1.9023
  276MOL0     H36395   0.700   3.502   7.405  0.8376 -1.8291  0.2075
  276MOL0     H36396   0.287   3.610   7.413  1.2301 -1.8852  0.6023
  276MOL0     H36397   0.053   3.622   7.497  1.1349  0.9668 -0.5448
  276MOL0     H36398  -0.153   3.679   7.451  2.9193 -1.3693  2.3551
  276MOL0     H36399  -0.186   3.554   7.562  1.5486 -0.5916 -0.6374
  276MOL0     H36400  -0.390   3.690   7.523  1.3779  2.0633 -0.8796
  276MOL0     H36401  -0.423   3.524   7.472 -0.7497  0.5158 -0.4893
  276MOL0     H36402  -0.373   3.601   7.235  0.4866 -1.4624  1.2664
  276MOL0     H36403  -0.369   3.770   7.293 -0.1797  0.0963 -0.1848
  276MOL0     H36404  -0.584   3.561   7.303 -0.9879  0.3942 -0.7301
  276MOL0     H36405  -0.598   3.724   7.385  0.0384  1.9413 -1.0666
  276MOL0     H36406  -0.578   3.665   7.088  1.3452  2.1651 -0.9461
  276MOL0     H36407  -0.550   3.826   7.151 -0.6298 -0.4178 -1.1838
  276MOL0     H36408  -0.780   3.840   7.210  4.7003  0.1088  3.6053
  276MOL0     H36409  -0.794   3.661   7.211 -0.6162  0.0705  2.1290
  276MOL0     H36410  -0.726   3.841   6.977  0.2545  0.0999  0.7828
  276MOL0     H36411  -0.755   3.669   6.963 -1.6496  0.7536 -2.4597
  276MOL0     H36412  -0.957   3.867   7.050  1.8313 -1.2323  2.3677
  276MOL0     H36413  -0.990   3.692   7.039  0.6797 -1.7048 -2.6031
  276MOL0     H36414  -0.071   3.371   7.172 -0.2364  0.7428 -1.9707
  276MOL0     H36415   0.159   3.390   7.069  0.6880 -0.3122  0.0863
  276MOL0     H36416   0.578   3.502   6.981  3.4667  2.7519 -4.4548
  276MOL0     H36417   0.809   3.541   6.928  2.9514 -0.9645  0.4722
  276MOL0     H36418   2.863   4.254   7.018 -1.2557  0.9774 -0.7284
  276MOL0     H36419   3.028   4.271   7.193  0.1634  0.2288  1.7518
  276MOL0     H36420   3.098   4.177   7.811  0.1464  0.7132 -1.4855
  276MOL0     H36421   3.321   4.116   7.916 -0.8673 -1.3627 -0.1114
  276MOL0     H36422   3.502   4.073   7.981 -1.1191 -0.4056 -1.0425
  276MOL0     H36423   3.673   4.044   7.943 -1.0322 -1.1217  2.7740
  276MOL0     H36424   3.520   3.879   8.066 -0.5804 -0.1971 -0.2881
  276MOL0     H36425   3.448   3.851   7.910  0.5828  3.5246 -4.9224
  276MOL0     H36426   3.750   3.796   7.990 -0.2716  1.2205 -0.4462
  276MOL0     H36427   3.677   3.781   7.831  2.3000  0.5517  1.1561
  276MOL0     H36428   3.592   3.618   8.077 -0.3090  0.8918  0.1285
  276MOL0     H36429   3.550   3.564   7.921 -0.4777  0.5222 -0.1624
  276MOL0     H36430   3.944   3.419   8.007 -1.6131 -3.4649 -0.7849
  276MOL0     H36431   3.475   4.051   7.517 -0.8895 -0.4269 -0.1181
  276MOL0     H36432   3.282   4.119   7.425 -2.3140 -0.6537  0.1218
  277MOL0     O36433   8.639   8.749   5.713 -0.1360 -0.0377 -0.2985
  277MOL0     C36434   8.608   8.865   5.703  0.5412 -0.6824 -0.7353
  277MOL0     O36435   8.483   8.914   5.669 -0.3798 -0.0524 -0.3208
  277MOL0     C36436   8.375   8.833   5.667 -0.4380 -0.3889  0.4495
  277MOL0     C36437   8.288   8.833   5.776  0.1408 -0.2015 -0.0193
  277MOL0     C36438   8.186   8.741   5.781  0.2627  0.0980  0.8000
  277MOL0     C36439   8.180   8.646   5.677  0.5846 -0.0187 -0.1956
  277MOL0     O36440   8.079   8.554   5.682  0.0326 -0.4366 -0.0891
  277MOL0     C36441   8.084   8.471   5.798 -0.0256 -0.0932  0.1343
  277MOL0     C36442   8.002   8.358   5.750 -0.2892 -0.6929  0.2483
  277MOL0     C36443   7.993   8.247   5.855  0.0067  0.2031  0.4052
  277MOL0     C36444   7.901   8.141   5.812 -0.1964 -0.0138  0.3704
  277MOL0     C36445   7.886   8.026   5.913  0.2216 -0.0662  0.1167
  277MOL0     C36446   8.004   7.989   5.994 -0.4551 -0.9024  0.5435
  277MOL0     C36447   7.979   7.883   6.096  0.8617  0.1620  0.2929
  277MOL0     C36448   8.083   7.766   6.078  0.2455 -0.6562 -0.0444
  277MOL0     N36449   8.217   7.797   6.119  0.6022 -0.0297 -0.6208
  277MOL0     C36450   8.340   7.744   6.088  0.0936  0.1340 -1.3101
  277MOL0     C36451   8.428   7.831   6.140 -0.3160  0.4283  0.2848
  277MOL0     C36452   8.573   7.794   6.127  0.0029 -0.0268 -0.1369
  277MOL0     C36453   8.688   7.899   6.129 -0.1264  0.0009 -0.3656
  277MOL0     C36454   8.733   7.925   6.272  0.5429  0.6150 -0.1861
  277MOL0     C36455   8.832   8.033   6.279  0.5488  0.9723  0.1193
  277MOL0     O36456   8.949   7.978   6.214  0.2152 -0.1048 -0.2800
  277MOL0     C36457   9.072   8.033   6.254  0.3798 -0.5330 -0.3723
  277MOL0     C36458   9.092   8.166   6.287  0.1307 -0.4474 -0.7176
  277MOL0     C36459   9.214   8.213   6.328  0.4062  0.7192  0.3892
  277MOL0     C36460   9.325   8.129   6.331  1.0082 -0.2452 -0.6542
  277MOL0     C36461   9.448   8.189   6.373 -1.0865 -0.2281 -0.7436
  277MOL0     O36462   9.558   8.112   6.366 -0.3994  0.3273  0.1384
  277MOL0     C36463   9.662   8.135   6.454 -0.4195 -0.1933 -0.6973
  277MOL0     C36464   9.738   8.260   6.467 -0.2438 -0.5273  0.4934
  277MOL0     C36465   9.835   8.269   6.567 -0.8933 -0.0895  0.0247
  277MOL0     C36466   9.856   8.166   6.667 -0.5421 -0.9660 -0.4464
  277MOL0     O36467   9.948   8.186   6.772  0.0650 -0.2346  0.5437
  277MOL0     C36468  10.025   8.071   6.809  0.4733  0.0276  0.4888
  277MOL0     C36469  10.151   8.075   6.732  0.7027  0.2402 -0.1876
  277MOL0     C36470  10.255   8.162   6.798  0.2261  0.0685  0.7955
  277MOL0     C36471  10.374   8.196   6.713  0.1224 -0.8864  0.5780
  277MOL0     C36472  10.454   8.078   6.651 -0.5639 -0.0736  0.6721
  277MOL0     C36473  10.598   8.132   6.627 -0.4481  0.5427 -0.1288
  277MOL0     C36474  10.695   8.020   6.593  0.7430 -0.0693  0.1090
  277MOL0     C36475  10.833   8.067   6.629 -0.1187 -0.2998 -0.2136
  277MOL0    Cl36476  10.954   7.955   6.576  0.2425 -0.0347 -0.1614
  277MOL0     C36477   9.773   8.051   6.659  0.6794 -0.1672  0.1950
  277MOL0     C36478   9.676   8.042   6.556  0.2209  0.8622 -0.6252
  277MOL0     O36479   9.441   8.305   6.423  0.3071  0.5811  0.3573
  277MOL0     C36480   9.312   7.999   6.288 -0.2475 -0.1801 -0.1880
  277MOL0     C36481   9.187   7.953   6.249 -0.4713 -0.0699 -0.0284
  277MOL0     N36482   8.371   7.928   6.212 -0.3044 -0.8051  0.3367
  277MOL0     N36483   8.244   7.908   6.192  0.7770  0.1624  0.2858
  277MOL0     C36484   8.268   8.637   5.575  0.0953 -0.1891  0.2466
  277MOL0     C36485   8.361   8.736   5.568 -0.7467  0.1651 -0.0764
  277MOL0     C36486   8.711   8.957   5.757  0.1232 -0.1778  1.1181
  277MOL0     C36487   8.675   9.092   5.779  0.0053  0.5852  0.4783
  277MOL0     C36488   8.776   9.180   5.815  0.7179 -0.3501 -1.0349
  277MOL0     C36489   8.906   9.134   5.848  0.1043 -0.8207 -0.7238
  277MOL0     O36490   8.982   9.240   5.910 -0.0996 -0.5881 -0.2558
  277MOL0     C36491   9.119   9.219   5.929 -0.4986 -0.1559  0.1670
  277MOL0     C36492   9.194   9.255   5.797 -0.0481 -0.0037  0.5625
  277MOL0     C36493   9.350   9.240   5.826 -0.0494 -0.0375 -0.1995
  277MOL0     C36494   9.428   9.357   5.882 -0.5531  1.0188 -0.2903
  277MOL0     C36495   9.384   9.492   5.844 -0.0946  0.3779  0.0173
  277MOL0     C36496   9.343   9.602   5.810  0.0831 -0.1877 -0.7298
  277MOL0     C36497   8.949   8.999   5.828  0.6169  0.8228  0.9067
  277MOL0     C36498   8.848   8.913   5.774  0.5566  0.5954  0.3169
  277MOL0     H36499   8.310   8.911   5.849  1.5361  0.4666 -1.1038
  277MOL0     H36500   8.109   8.745   5.858 -0.5111  1.7564 -0.0256
  277MOL0     H36501   8.048   8.522   5.887  0.9355 -2.5158  2.0425
  277MOL0     H36502   8.181   8.430   5.831  0.0498  1.3512  1.8695
  277MOL0     H36503   8.028   8.328   5.648 -1.2748 -0.0241 -0.2221
  277MOL0     H36504   7.899   8.392   5.734 -0.1570 -0.2106  0.3894
  277MOL0     H36505   7.958   8.272   5.955 -0.1407 -1.2819  0.7529
  277MOL0     H36506   8.095   8.207   5.860 -0.5209 -1.7354 -1.9841
  277MOL0     H36507   7.800   8.179   5.791 -0.4123  0.4466  2.0968
  277MOL0     H36508   7.939   8.099   5.719 -0.6141 -1.5128  0.8511
  277MOL0     H36509   7.852   7.937   5.860 -1.0833  1.1122 -1.0983
  277MOL0     H36510   7.805   8.051   5.983  0.5657  0.4395  0.3410
  277MOL0     H36511   8.051   8.076   6.042 -1.5812 -0.1010  0.2526
  277MOL0     H36512   8.077   7.955   5.921  0.0605 -2.5380  1.7475
  277MOL0     H36513   7.997   7.928   6.193 -0.3832  3.7215 -0.9782
  277MOL0     H36514   7.874   7.853   6.089  1.5151 -1.9863 -2.1994
  277MOL0     H36515   8.085   7.735   5.973  0.0693  3.2056 -1.3292
  277MOL0     H36516   8.055   7.684   6.145 -1.4763 -1.1372 -1.2869
  277MOL0     H36517   8.365   7.650   6.040  2.0402 -0.1105  0.0437
  277MOL0     H36518   8.579   7.729   6.039 -0.6602  0.9461 -0.9216
  277MOL0     H36519   8.590   7.729   6.213 -1.4115 -0.7730 -0.3995
  277MOL0     H36520   8.653   7.995   6.091  3.0541  0.9141 -1.3335
  277MOL0     H36521   8.771   7.867   6.065  0.5045  0.5403  0.1536
  277MOL0     H36522   8.644   7.950   6.331 -1.8002 -0.1795 -3.1474
  277MOL0     H36523   8.778   7.837   6.319 -1.1715  0.7825  1.9095
  277MOL0     H36524   8.854   8.063   6.382  0.6952 -0.8098  0.6348
  277MOL0     H36525   8.796   8.128   6.237 -2.4573  0.7051  1.7791
  277MOL0     H36526   9.003   8.227   6.274  0.1205 -1.1415 -5.7903
  277MOL0     H36527   9.216   8.318   6.355 -3.2316  0.4965  1.9862
  277MOL0     H36528   9.725   8.334   6.389 -1.5782  0.9026  1.9919
  277MOL0     H36529   9.895   8.360   6.565 -1.2640  0.1672  0.3186
  277MOL0     H36530   9.982   7.976   6.776 -1.6213  1.5754 -1.6193
  277MOL0     H36531  10.030   8.066   6.918  1.8381 -2.0315  0.3940
  277MOL0     H36532  10.124   8.113   6.633  0.4985  1.1095  0.1954
  277MOL0     H36533  10.175   7.968   6.729 -2.5151 -0.5768  0.1951
  277MOL0     H36534  10.276   8.111   6.892  3.6742 -0.7693 -0.3124
  277MOL0     H36535  10.214   8.259   6.829 -0.8535 -0.1709  0.1891
  277MOL0     H36536  10.338   8.267   6.639  0.0595  1.5714  2.8168
  277MOL0     H36537  10.432   8.269   6.770 -0.6574  0.6032 -0.4845
  277MOL0     H36538  10.407   8.038   6.561  1.2150 -1.5052  0.3264
  277MOL0     H36539  10.456   8.006   6.733  0.8890 -0.7660  0.0610
  277MOL0     H36540  10.621   8.176   6.724 -2.3907 -1.1423  1.2050
  277MOL0     H36541  10.598   8.215   6.556  1.4680  1.3881  0.7977
  277MOL0     H36542  10.681   7.922   6.640 -1.6521  1.5591  3.0912
  277MOL0     H36543  10.683   8.005   6.485  0.9723 -1.8927  0.2973
  277MOL0     H36544  10.850   8.073   6.737  1.8299 -1.4070 -0.4053
  277MOL0     H36545  10.850   8.164   6.582 -2.2846  1.7180  2.8446
  277MOL0     H36546   9.766   7.974   6.735 -3.2356 -1.0319 -0.8209
  277MOL0     H36547   9.617   7.951   6.563  3.2146 -1.0946  1.2775
  277MOL0     H36548   9.401   7.939   6.307 -0.7179  0.0132  3.5345
  277MOL0     H36549   9.183   7.847   6.227  0.6707 -0.0194 -0.5440
  277MOL0     H36550   8.250   8.565   5.495 -0.7516  0.0460  0.2272
  277MOL0     H36551   8.438   8.739   5.491 -1.3116  1.2875 -0.6274
  277MOL0     H36552   8.576   9.134   5.771  0.6680  2.9128  3.2612
  277MOL0     H36553   8.757   9.287   5.815 -0.2939 -0.5134 -1.7294
  277MOL0     H36554   9.135   9.119   5.972  0.0531  0.0213  0.3783
  277MOL0     H36555   9.138   9.289   6.010 -2.4163  0.3489  0.2173
  277MOL0     H36556   9.154   9.186   5.722 -0.6692 -1.6328  2.3236
  277MOL0     H36557   9.175   9.356   5.757  0.8625 -0.9112 -2.4773
  277MOL0     H36558   9.388   9.234   5.723  0.7633  1.3533 -0.0108
  277MOL0     H36559   9.367   9.149   5.883  1.0711 -0.3497 -0.9936
  277MOL0     H36560   9.424   9.362   5.991 -0.7390  1.7544 -0.3283
  277MOL0     H36561   9.532   9.335   5.858 -0.6146 -1.5578  1.3849
  277MOL0     H36562   9.322   9.704   5.786 -0.0333  0.6038  2.3952
  277MOL0     H36563   9.050   8.967   5.852 -0.0705 -2.2974  0.1025
  277MOL0     H36564   8.869   8.810   5.750 -1.5942  0.1141  0.2843
  278MOL0     O36565   5.762   0.503   2.178  0.0331 -0.9953 -0.5429
  278MOL0     C36566   5.833   0.519   2.281 -0.2049 -0.0529  0.3808
  278MOL0     O36567   5.952   0.457   2.302  0.0250 -0.0160 -0.1519
  278MOL0     C36568   6.025   0.393   2.203 -1.5000 -1.1041 -0.2634
  278MOL0     C36569   6.156   0.402   2.223 -1.0003  0.3568 -0.1721
  278MOL0     C36570   6.248   0.349   2.133  0.2060 -0.3705  0.1889
  278MOL0     C36571   6.209   0.291   2.011 -1.0990 -0.4591 -0.7422
  278MOL0     O36572   6.295   0.237   1.917 -0.4210  0.3449  0.0471
  278MOL0     C36573   6.426   0.283   1.906 -1.2333 -0.5024 -0.6012
  278MOL0     C36574   6.484   0.214   1.782  0.6422  0.6078  0.1155
  278MOL0     C36575   6.620   0.270   1.747  0.0098 -0.8655 -0.0606
  278MOL0     C36576   6.698   0.179   1.668 -0.1846 -0.3514  0.5452
  278MOL0     C36577   6.840   0.242   1.627  0.7075  0.2832 -0.7802
  278MOL0     C36578   6.913   0.134   1.546  0.5394  0.4012 -0.5850
  278MOL0     C36579   6.841   0.105   1.410  0.1073 -0.0270  0.0607
  278MOL0     C36580   6.916   0.005   1.311  0.4411  0.5707 -0.6185
  278MOL0     N36581   6.855  -0.011   1.176 -0.7684  0.0805 -0.4499
  278MOL0     C36582   6.734  -0.072   1.158  0.9151  0.2535 -0.3028
  278MOL0     C36583   6.713  -0.089   1.025  0.5540  0.9122 -0.1433
  278MOL0     C36584   6.599  -0.169   0.962 -0.4128  0.1526 -0.0366
  278MOL0     C36585   6.461  -0.109   1.004 -0.5119  0.2344  0.4256
  278MOL0     C36586   6.360  -0.189   0.930  0.2482 -0.0789  1.1833
  278MOL0     C36587   6.224  -0.113   0.909 -0.4074  0.7496  0.2162
  278MOL0     O36588   6.177  -0.064   1.034 -0.6049  0.6057  0.3671
  278MOL0     C36589   6.064   0.003   1.035  0.5851  0.5332  0.1074
  278MOL0     C36590   5.988   0.029   0.919 -0.2439 -1.5487  0.0406
  278MOL0     C36591   5.870   0.106   0.938  0.3591  0.8134 -0.1894
  278MOL0     C36592   5.834   0.155   1.068  0.5044 -0.3789  0.5640
  278MOL0     C36593   5.705   0.232   1.083 -1.1648 -0.0863  0.3549
  278MOL0     O36594   5.681   0.301   1.193 -0.0647 -0.6200  0.1536
  278MOL0     C36595   5.559   0.355   1.223  0.3721 -0.7598 -0.0588
  278MOL0     C36596   5.460   0.270   1.241  0.2668 -0.0899  0.7657
  278MOL0     C36597   5.331   0.313   1.243 -0.0348  0.2932  0.5340
  278MOL0     C36598   5.300   0.451   1.260  0.2776  0.1868 -0.5531
  278MOL0     O36599   5.171   0.485   1.282 -0.2579  0.3654 -0.0457
  278MOL0     C36600   5.147   0.622   1.293 -0.7616  0.2176  0.2167
  278MOL0     C36601   4.997   0.651   1.289  0.1358  0.1359  0.5559
  278MOL0     C36602   4.927   0.639   1.421  0.1836 -0.1437  0.7938
  278MOL0     C36603   4.962   0.743   1.524  0.7677 -0.0892 -1.6557
  278MOL0     C36604   4.881   0.736   1.653 -0.3244  0.4651 -0.0728
  278MOL0     C36605   4.891   0.591   1.713 -0.1048 -0.2698 -0.6259
  278MOL0     C36606   4.841   0.600   1.859  0.2882 -0.0087  0.8783
  278MOL0     C36607   4.849   0.464   1.924  0.8008 -0.3036  0.1745
  278MOL0    Cl36608   4.751   0.359   1.818 -0.2515  0.3266 -0.2156
  278MOL0     C36609   5.414   0.538   1.267  0.4058 -0.6207 -0.1799
  278MOL0     C36610   5.539   0.490   1.244 -0.3665 -0.1787  0.1453
  278MOL0     O36611   5.639   0.222   0.985 -0.4814 -0.5822  0.0809
  278MOL0     C36612   5.921   0.149   1.179 -0.9564 -0.0426  0.0401
  278MOL0     C36613   6.031   0.067   1.156 -0.4767  1.5476 -0.4871
  278MOL0     N36614   6.827  -0.036   0.961 -0.0367 -0.6012  0.2616
  278MOL0     N36615   6.920  -0.006   1.054  0.1528 -0.1729 -0.7682
  278MOL0     C36616   6.074   0.284   1.993 -0.1126 -0.4816 -0.0349
  278MOL0     C36617   5.978   0.331   2.090 -1.1152  0.9854  0.1422
  278MOL0     C36618   5.800   0.612   2.384  0.8184  0.0019  0.5537
  278MOL0     C36619   5.885   0.624   2.496  0.4828  0.2402 -0.2620
  278MOL0     C36620   5.836   0.705   2.602  0.7365  0.5239  0.0916
  278MOL0     C36621   5.717   0.775   2.598  0.2507 -0.6320  0.2754
  278MOL0     O36622   5.659   0.854   2.703 -0.1581  0.7450 -0.6724
  278MOL0     C36623   5.729   0.850   2.833 -0.0169 -0.3946 -0.3632
  278MOL0     C36624   5.649   0.941   2.921 -0.4350 -0.2079 -0.2633
  278MOL0     C36625   5.676   0.911   3.071  0.0521 -0.0763  0.5447
  278MOL0     C36626   5.659   1.044   3.153  0.7813 -0.7011  0.4399
  278MOL0     C36627   5.520   1.086   3.166 -0.0379 -0.0110  0.1177
  278MOL0     C36628   5.413   1.129   3.160 -0.0362 -0.2725  0.6268
  278MOL0     C36629   5.644   0.767   2.481  0.5690  0.6076  0.3071
  278MOL0     C36630   5.683   0.682   2.379 -0.7967  0.2142 -0.0198
  278MOL0     H36631   6.198   0.447   2.313  2.3008 -2.3720 -0.1800
  278MOL0     H36632   6.350   0.352   2.169 -0.2277  2.1025  1.4418
  278MOL0     H36633   6.495   0.248   1.984 -0.5646 -1.7768 -1.7286
  278MOL0     H36634   6.431   0.392   1.905 -2.7612 -0.4059 -2.2399
  278MOL0     H36635   6.422   0.215   1.692  0.7358 -2.8468 -0.1226
  278MOL0     H36636   6.503   0.109   1.807  2.0656  0.1786 -2.3869
  278MOL0     H36637   6.669   0.276   1.844  0.0861  0.8363 -0.1680
  278MOL0     H36638   6.620   0.374   1.712  1.6409 -0.3900  1.2027
  278MOL0     H36639   6.703   0.089   1.729 -1.0069 -0.3313  0.6453
  278MOL0     H36640   6.637   0.159   1.579 -0.9883  0.8696  0.7926
  278MOL0     H36641   6.896   0.276   1.714 -3.0699  1.9307  1.2169
  278MOL0     H36642   6.822   0.332   1.566 -1.5215  0.8100  0.5513
  278MOL0     H36643   6.926   0.043   1.605  2.3465  1.1442  0.2150
  278MOL0     H36644   7.016   0.167   1.529  0.6001  1.6452  1.8212
  278MOL0     H36645   6.746   0.054   1.429 -0.9837  1.8585 -0.0186
  278MOL0     H36646   6.830   0.205   1.367  0.4541 -0.3041 -0.6901
  278MOL0     H36647   6.916  -0.086   1.371  0.2817  0.4743 -0.7621
  278MOL0     H36648   7.016   0.041   1.286  0.6122  1.7633  1.6089
  278MOL0     H36649   6.665  -0.103   1.237 -0.1183  1.5934 -0.6329
  278MOL0     H36650   6.604  -0.273   0.996  0.0190 -0.0396 -0.6772
  278MOL0     H36651   6.608  -0.163   0.853  0.5623 -0.9151 -0.0232
  278MOL0     H36652   6.455  -0.004   0.973  1.0778  0.7858  1.8252
  278MOL0     H36653   6.456  -0.116   1.113 -1.3550  0.5400  0.4148
  278MOL0     H36654   6.392  -0.222   0.830  0.4016  0.8403  0.9194
  278MOL0     H36655   6.348  -0.283   0.985 -1.8608 -0.0078  0.9165
  278MOL0     H36656   6.153  -0.184   0.867 -2.0547  2.5837 -0.2210
  278MOL0     H36657   6.247  -0.033   0.837 -1.7975 -0.2801 -1.4681
  278MOL0     H36658   6.011   0.004   0.816  3.4906  1.5621 -0.1154
  278MOL0     H36659   5.813   0.113   0.846  0.9241 -2.1073 -0.8784
  278MOL0     H36660   5.469   0.162   1.243 -1.4758 -0.2556  1.5475
  278MOL0     H36661   5.244   0.248   1.250 -2.2019  3.0621  1.7548
  278MOL0     H36662   5.193   0.663   1.202  1.6961 -1.0229  0.8096
  278MOL0     H36663   5.187   0.676   1.380 -0.3152  1.3301 -0.6605
  278MOL0     H36664   4.961   0.587   1.208  2.2133 -0.3143 -0.0688
  278MOL0     H36665   4.984   0.756   1.263  0.8644 -0.3440 -2.1066
  278MOL0     H36666   4.948   0.539   1.460 -0.5009 -0.3244  0.7116
  278MOL0     H36667   4.819   0.648   1.411  0.1673 -0.7302  0.3619
  278MOL0     H36668   5.065   0.741   1.561 -0.7279  0.9073  3.3074
  278MOL0     H36669   4.949   0.845   1.486 -0.1520  0.0570 -0.9929
  278MOL0     H36670   4.773   0.747   1.640 -0.4466 -0.6279 -0.1119
  278MOL0     H36671   4.921   0.810   1.722  2.3907  0.9876 -2.0704
  278MOL0     H36672   4.990   0.544   1.714 -0.0628 -0.2299  1.7755
  278MOL0     H36673   4.835   0.521   1.651 -2.2124 -1.6466  2.5978
  278MOL0     H36674   4.894   0.675   1.918 -0.8770 -0.8495  3.1254
  278MOL0     H36675   4.738   0.637   1.868  1.1979  2.5653  1.5298
  278MOL0     H36676   4.808   0.464   2.025  1.4440  1.0057  0.4630
  278MOL0     H36677   4.948   0.418   1.928 -1.0358 -4.7500 -0.2241
  278MOL0     H36678   5.415   0.646   1.277  1.3844 -0.4012 -2.0996
  278MOL0     H36679   5.629   0.550   1.238  0.1130 -1.0031 -1.6253
  278MOL0     H36680   5.907   0.193   1.277 -0.8984  0.2135 -0.0675
  278MOL0     H36681   6.094   0.034   1.238  2.4608  1.1259 -2.7461
  278MOL0     H36682   6.040   0.234   1.904  1.8052  0.4035 -1.3312
  278MOL0     H36683   5.873   0.322   2.067 -0.6041  0.2425 -2.0862
  278MOL0     H36684   5.975   0.568   2.515 -1.5304 -3.0722  0.2648
  278MOL0     H36685   5.905   0.712   2.686  0.4996  1.2275  0.2342
  278MOL0     H36686   5.834   0.881   2.834  0.6874 -2.4936  1.5654
  278MOL0     H36687   5.735   0.746   2.867 -0.0261 -0.1898  0.2938
  278MOL0     H36688   5.669   1.044   2.890  0.3723 -0.7392 -1.5808
  278MOL0     H36689   5.542   0.922   2.906 -0.3573 -0.2276 -0.8317
  278MOL0     H36690   5.775   0.866   3.081 -0.6989 -2.7184 -2.2768
  278MOL0     H36691   5.589   0.853   3.103 -2.0648  1.5595 -1.8243
  278MOL0     H36692   5.721   1.039   3.243  5.3462  2.1177 -2.1301
  278MOL0     H36693   5.725   1.120   3.110 -1.6655  3.0923  2.8193
  278MOL0     H36694   5.315   1.169   3.143  0.9861  2.8471  1.4690
  278MOL0     H36695   5.548   0.817   2.469  0.3180 -0.0201 -0.4036
  278MOL0     H36696   5.608   0.686   2.301 -0.0972  2.4426 -0.6303
  279MOL0     O36697   0.835   4.295   0.961 -0.1210  0.0372 -0.8914
  279MOL0     C36698   0.906   4.198   0.933  0.0859 -0.0650 -0.2558
  279MOL0     O36699   0.864   4.068   0.922  0.2591 -0.5668 -0.1379
  279MOL0     C36700   0.740   4.040   0.968  0.1587 -0.4168  0.8607
  279MOL0     C36701   0.728   3.986   1.095 -0.4512 -0.3571 -0.5536
  279MOL0     C36702   0.598   3.959   1.142 -0.6194 -0.2462 -0.4060
  279MOL0     C36703   0.483   4.001   1.071 -0.0827 -0.6912  0.0957
  279MOL0     O36704   0.362   3.957   1.125  0.1665 -0.5540  0.4365
  279MOL0     C36705   0.252   4.043   1.092 -0.2220 -0.2856  0.5231
  279MOL0     C36706   0.131   3.999   1.175 -0.1698  0.0459 -0.2614
  279MOL0     C36707   0.004   4.083   1.150 -0.1427 -0.2158  0.1447
  279MOL0     C36708  -0.107   4.049   1.243  0.9683 -1.3687 -0.1096
  279MOL0     C36709  -0.251   4.092   1.193  0.0029 -0.7777 -0.4805
  279MOL0     C36710  -0.352   4.010   1.250  0.4650  0.6362  0.4123
  279MOL0     C36711  -0.491   4.061   1.208 -0.4745  0.3699  0.3620
  279MOL0     C36712  -0.606   3.987   1.268  0.5300  0.2868  0.1323
  279MOL0     N36713  -0.746   4.036   1.240 -0.4962  0.2102  0.6933
  279MOL0     C36714  -0.848   4.037   1.329 -0.0080  0.1154  0.4857
  279MOL0     C36715  -0.950   4.110   1.264  0.0050  0.0576 -0.0745
  279MOL0     C36716  -1.072   4.170   1.327  0.7218  0.6040 -0.9988
  279MOL0     C36717  -1.167   4.240   1.222  0.1471  0.6762  0.1943
  279MOL0     C36718  -1.264   4.328   1.302 -0.3525  0.7271 -0.1045
  279MOL0     C36719  -1.378   4.382   1.214  0.9042 -0.1944 -0.5383
  279MOL0     O36720  -1.396   4.517   1.245  0.1820  0.6784 -0.3992
  279MOL0     C36721  -1.524   4.552   1.280 -0.6905 -0.5843 -0.8934
  279MOL0     C36722  -1.552   4.573   1.418 -0.7138  0.1027  0.3401
  279MOL0     C36723  -1.679   4.607   1.461 -0.1372  1.0778 -0.5133
  279MOL0     C36724  -1.781   4.630   1.365  0.1690 -0.0302  0.1836
  279MOL0     C36725  -1.916   4.648   1.411  0.2394  0.1360 -0.2158
  279MOL0     O36726  -1.940   4.649   1.545  0.2319 -0.0863  0.0061
  279MOL0     C36727  -2.066   4.651   1.602 -0.0466  0.2837 -0.2544
  279MOL0     C36728  -2.081   4.602   1.735  0.6529 -0.1463  0.1204
  279MOL0     C36729  -2.208   4.601   1.798 -0.0961 -0.4471  0.3160
  279MOL0     C36730  -2.318   4.663   1.737 -0.1455  0.0133  0.1594
  279MOL0     O36731  -2.431   4.650   1.816 -0.3894 -0.4865  0.3434
  279MOL0     C36732  -2.543   4.576   1.768  0.6730 -0.6595 -0.3793
  279MOL0     C36733  -2.659   4.570   1.869  0.0851 -0.1193  0.3817
  279MOL0     C36734  -2.781   4.499   1.806 -0.5299  0.0094 -0.7501
  279MOL0     C36735  -2.905   4.529   1.887 -0.1097 -0.4416  0.4775
  279MOL0     C36736  -3.031   4.476   1.815 -0.3312 -0.1420  0.2712
  279MOL0     C36737  -3.166   4.519   1.871  0.5760  0.0307 -0.0552
  279MOL0     C36738  -3.281   4.501   1.769 -0.2106 -0.2993  1.1034
  279MOL0     C36739  -3.399   4.574   1.830 -0.4284  0.2482 -0.3794
  279MOL0    Cl36740  -3.419   4.558   2.004 -0.2575  0.4367 -0.3645
  279MOL0     C36741  -2.303   4.712   1.611  0.7968 -0.1011  0.3254
  279MOL0     C36742  -2.183   4.705   1.542 -0.1753 -0.6122 -0.2000
  279MOL0     O36743  -1.996   4.673   1.319  0.2928  0.5889 -0.4219
  279MOL0     C36744  -1.750   4.624   1.221  0.1917 -0.3771 -1.6097
  279MOL0     C36745  -1.615   4.587   1.178 -0.1134  0.2918  0.0709
  279MOL0     N36746  -0.895   4.152   1.144 -0.5133  1.0760 -1.0270
  279MOL0     N36747  -0.784   4.098   1.127 -0.2591 -0.1367  0.3467
  279MOL0     C36748   0.499   4.063   0.943 -0.8963 -0.6340  0.3346
  279MOL0     C36749   0.624   4.087   0.896 -0.0998  0.9483 -0.2910
  279MOL0     C36750   1.047   4.229   0.892 -0.5381 -0.4467 -0.1563
  279MOL0     C36751   1.105   4.360   0.882  0.9069  0.9586  0.2401
  279MOL0     C36752   1.244   4.383   0.870  0.7001 -0.0011 -0.7918
  279MOL0     C36753   1.323   4.278   0.836  0.3145  0.2890  0.2931
  279MOL0     O36754   1.455   4.316   0.800  0.0477 -0.5020  0.2347
  279MOL0     C36755   1.549   4.208   0.770  0.1315 -0.5743  0.4897
  279MOL0     C36756   1.681   4.249   0.713 -0.7648 -0.2204  0.5668
  279MOL0     C36757   1.656   4.318   0.577  1.3848 -0.1494 -0.5791
  279MOL0     C36758   1.790   4.390   0.516  0.0014 -0.0973 -0.9546
  279MOL0     C36759   1.753   4.425   0.377  0.6702  0.1370 -0.4074
  279MOL0     C36760   1.703   4.479   0.278  0.1830  0.8679 -0.1036
  279MOL0     C36761   1.267   4.151   0.828  0.2763  0.2851  0.2288
  279MOL0     C36762   1.136   4.124   0.861  0.4605  0.2577 -0.7068
  279MOL0     H36763   0.810   3.954   1.160 -1.0988 -1.1016 -0.0827
  279MOL0     H36764   0.590   3.904   1.235  0.2697 -3.3858 -2.0283
  279MOL0     H36765   0.244   4.043   0.983  3.4473  1.5141  0.0888
  279MOL0     H36766   0.272   4.149   1.113 -0.6537 -0.2156  0.5900
  279MOL0     H36767   0.163   3.968   1.275  2.6873 -0.6789 -1.3070
  279MOL0     H36768   0.113   3.902   1.127 -1.7514 -1.1112  2.4154
  279MOL0     H36769  -0.019   4.086   1.043  0.3885  1.8421  0.0504
  279MOL0     H36770   0.035   4.184   1.175 -0.9636  0.6106 -1.9685
  279MOL0     H36771  -0.103   3.946   1.280  2.1405 -0.7389  1.6236
  279MOL0     H36772  -0.086   4.107   1.333  2.6809 -1.4282 -0.4460
  279MOL0     H36773  -0.263   4.100   1.085  0.9211  3.4330 -0.4400
  279MOL0     H36774  -0.271   4.190   1.238 -2.4154 -1.8894  1.0751
  279MOL0     H36775  -0.354   4.019   1.359  0.1760  0.3279  0.4341
  279MOL0     H36776  -0.334   3.909   1.215  1.0093  0.6875  0.5304
  279MOL0     H36777  -0.497   4.168   1.230 -0.6751  0.8283 -1.7047
  279MOL0     H36778  -0.500   4.052   1.099 -1.0020 -0.4863  0.4640
  279MOL0     H36779  -0.588   3.970   1.375  0.6703 -2.2464 -0.2497
  279MOL0     H36780  -0.601   3.890   1.219  1.1324  1.6234 -2.6909
  279MOL0     H36781  -0.839   3.985   1.424 -1.0500 -1.9510 -0.4819
  279MOL0     H36782  -1.042   4.240   1.406  0.3587 -1.1708  0.7778
  279MOL0     H36783  -1.125   4.087   1.373  1.0048 -0.6336 -2.8202
  279MOL0     H36784  -1.224   4.163   1.170 -1.2953  0.3285  2.1955
  279MOL0     H36785  -1.118   4.297   1.142 -1.3834  1.3440 -0.2958
  279MOL0     H36786  -1.311   4.270   1.382 -0.4651 -0.7460 -1.2077
  279MOL0     H36787  -1.209   4.410   1.349 -1.0485  1.0861  0.0891
  279MOL0     H36788  -1.467   4.322   1.233 -0.9416  2.6947  0.5762
  279MOL0     H36789  -1.354   4.367   1.108 -1.7288 -0.8374 -1.1156
  279MOL0     H36790  -1.467   4.548   1.481  1.1702  0.4711 -1.9356
  279MOL0     H36791  -1.704   4.596   1.566 -0.5716  0.7791 -0.6462
  279MOL0     H36792  -1.998   4.565   1.795  1.0287 -0.9093 -0.8422
  279MOL0     H36793  -2.225   4.560   1.897  0.3574 -2.9372 -0.5841
  279MOL0     H36794  -2.511   4.482   1.721  0.7491 -1.8069  1.8425
  279MOL0     H36795  -2.580   4.637   1.686  4.6565  1.3392 -0.9267
  279MOL0     H36796  -2.693   4.670   1.895 -1.8028 -1.1542  2.2108
  279MOL0     H36797  -2.619   4.523   1.959  1.0603  1.0326  0.5765
  279MOL0     H36798  -2.766   4.392   1.792 -0.8276 -0.1373 -0.0323
  279MOL0     H36799  -2.799   4.552   1.713 -0.7545  1.8933  0.3107
  279MOL0     H36800  -2.898   4.468   1.978 -0.1383 -1.8286 -0.4162
  279MOL0     H36801  -2.910   4.636   1.910 -1.4842 -0.5136  0.5902
  279MOL0     H36802  -3.026   4.367   1.801  1.8950 -0.3089  1.9230
  279MOL0     H36803  -3.029   4.514   1.712  0.1209 -3.7743 -1.2314
  279MOL0     H36804  -3.165   4.626   1.894 -0.2240 -0.2992  1.7786
  279MOL0     H36805  -3.176   4.461   1.964 -0.6882 -1.6147 -1.1571
  279MOL0     H36806  -3.257   4.536   1.668  1.6156  0.1912  1.6777
  279MOL0     H36807  -3.299   4.393   1.763  3.1170 -0.8933 -4.2307
  279MOL0     H36808  -3.495   4.536   1.794  0.5613 -1.5907 -1.2097
  279MOL0     H36809  -3.381   4.681   1.817 -2.0395  0.8174  1.5203
  279MOL0     H36810  -2.396   4.748   1.567  0.4534  1.2525  2.0679
  279MOL0     H36811  -2.192   4.758   1.448 -1.2050 -1.8773 -0.8531
  279MOL0     H36812  -1.832   4.644   1.154 -1.5717 -1.1630  0.2275
  279MOL0     H36813  -1.592   4.568   1.074  0.5515 -0.1811  0.2995
  279MOL0     H36814   0.422   4.108   0.883 -2.1777 -0.4021  2.0757
  279MOL0     H36815   0.649   4.133   0.801  2.1729  0.8984  0.2273
  279MOL0     H36816   1.045   4.451   0.888 -1.1182 -0.3775  2.7216
  279MOL0     H36817   1.282   4.484   0.879 -1.2552  0.6019  2.5574
  279MOL0     H36818   1.503   4.140   0.697  0.1517  0.8307 -0.8827
  279MOL0     H36819   1.560   4.148   0.861  2.1520 -0.7394  0.1719
  279MOL0     H36820   1.726   4.322   0.781 -1.9038 -0.4034  1.5398
  279MOL0     H36821   1.746   4.164   0.688  1.1094  1.7249 -1.6166
  279MOL0     H36822   1.575   4.391   0.578  0.9576 -0.6275 -0.0803
  279MOL0     H36823   1.623   4.241   0.507 -1.6908  1.8938 -1.5663
  279MOL0     H36824   1.820   4.479   0.571 -0.5333 -0.1922 -0.4930
  279MOL0     H36825   1.875   4.321   0.522  0.5115  0.2086 -3.5583
  279MOL0     H36826   1.678   4.537   0.192 -0.1058  0.8262 -0.0495
  279MOL0     H36827   1.330   4.070   0.794 -0.4232 -0.6285  1.0349
  279MOL0     H36828   1.104   4.021   0.851  1.2810  0.1245 -2.1057
  280MOL0     O36829   2.612   5.244   0.413  0.7711  0.2184  0.1725
  280MOL0     C36830   2.651   5.193   0.516  0.1988 -0.5442 -0.0818
  280MOL0     O36831   2.573   5.151   0.622  0.5023  0.0581 -0.3814
  280MOL0     C36832   2.440   5.183   0.627 -0.3967  0.5109  0.6895
  280MOL0     C36833   2.385   5.185   0.754  0.0384  0.5650  0.0805
  280MOL0     C36834   2.252   5.221   0.777  0.0758  0.0176 -0.1483
  280MOL0     C36835   2.165   5.240   0.662  0.7577 -0.1407 -0.2682
  280MOL0     O36836   2.030   5.272   0.685  0.3049  0.1612 -0.1488
  280MOL0     C36837   1.925   5.201   0.610 -0.6084 -0.9168 -0.5413
  280MOL0     C36838   1.802   5.217   0.697 -0.1568  0.7528  0.4407
  280MOL0     C36839   1.667   5.171   0.635  0.8902 -0.1943  0.2538
  280MOL0     C36840   1.553   5.202   0.735  0.3188 -0.3259  0.4369
  280MOL0     C36841   1.410   5.202   0.668  0.3667  0.6955  0.0593
  280MOL0     C36842   1.300   5.213   0.770 -0.4706 -0.2720  0.0404
  280MOL0     C36843   1.169   5.236   0.700  0.3286  0.7041  0.0049
  280MOL0     C36844   1.050   5.239   0.797 -0.0635  0.1782 -0.0332
  280MOL0     N36845   0.925   5.242   0.724 -0.2458  0.4502 -0.1216
  280MOL0     C36846   0.855   5.357   0.693 -0.0074 -0.4676  0.1476
  280MOL0     C36847   0.764   5.317   0.609 -0.0515 -0.1262 -0.1316
  280MOL0     C36848   0.660   5.414   0.559 -0.6516  0.8622 -0.0122
  280MOL0     C36849   0.722   5.551   0.502  0.0203  0.1219 -0.5533
  280MOL0     C36850   0.618   5.659   0.493 -0.0291 -1.0198  0.0657
  280MOL0     C36851   0.506   5.620   0.387 -1.0500  0.2249 -0.2980
  280MOL0     O36852   0.427   5.740   0.353 -0.6944  0.3463  0.0644
  280MOL0     C36853   0.310   5.717   0.282  0.1238  0.8665 -0.4996
  280MOL0     C36854   0.200   5.768   0.342 -0.2835 -0.4507 -0.0059
  280MOL0     C36855   0.076   5.746   0.292 -0.2353 -0.6033  0.0490
  280MOL0     C36856   0.057   5.679   0.168 -0.1689 -0.3433 -0.1741
  280MOL0     C36857  -0.077   5.648   0.124 -0.1435 -0.0641 -0.6688
  280MOL0     O36858  -0.182   5.689   0.210 -0.3742  0.4083  0.1438
  280MOL0     C36859  -0.310   5.637   0.208 -0.5135  0.8699 -0.4381
  280MOL0     C36860  -0.407   5.708   0.276  1.0711  0.0274  0.4188
  280MOL0     C36861  -0.543   5.682   0.261  0.1648 -0.9506  0.4845
  280MOL0     C36862  -0.586   5.571   0.187  0.4666  0.6688 -0.2094
  280MOL0     O36863  -0.723   5.550   0.175 -0.5734  0.1625 -0.0226
  280MOL0     C36864  -0.764   5.483   0.052 -0.0692  0.3021 -0.4854
  280MOL0     C36865  -0.911   5.495   0.048 -0.0140 -0.5775  0.2987
  280MOL0     C36866  -0.981   5.454   0.179 -0.0039 -0.1803 -0.2530
  280MOL0     C36867  -1.133   5.458   0.159  0.0379 -0.5557 -0.3609
  280MOL0     C36868  -1.211   5.379   0.270  0.0805 -0.1788 -0.3388
  280MOL0     C36869  -1.370   5.392   0.268 -0.1879  0.5961 -0.5103
  280MOL0     C36870  -1.438   5.512   0.339 -0.2307 -0.1389 -0.1953
  280MOL0     C36871  -1.585   5.496   0.351  0.4133  0.0920 -0.2314
  280MOL0    Cl36872  -1.671   5.611   0.461 -0.6925 -0.0707  0.5953
  280MOL0     C36873  -0.486   5.479   0.140  0.7732  0.1135 -0.5808
  280MOL0     C36874  -0.350   5.513   0.147 -0.5050  0.0550 -0.2120
  280MOL0     O36875  -0.091   5.590   0.014 -0.2504  0.1334 -0.3128
  280MOL0     C36876   0.174   5.626   0.115 -0.2746  0.8196  0.3123
  280MOL0     C36877   0.298   5.635   0.174  0.8889  0.1458 -0.7815
  280MOL0     N36878   0.779   5.183   0.589  0.0386  0.0381 -0.5404
  280MOL0     N36879   0.876   5.138   0.653 -0.1522  0.0249  0.0903
  280MOL0     C36880   2.221   5.237   0.538  0.1554 -0.2428  0.7240
  280MOL0     C36881   2.357   5.201   0.519  1.4344 -0.2325  0.1567
  280MOL0     C36882   2.803   5.189   0.534  0.5162  0.2541 -0.1249
  280MOL0     C36883   2.854   5.167   0.663  0.2023  0.0068 -0.4609
  280MOL0     C36884   2.991   5.182   0.689  0.1629  0.0048 -1.1427
  280MOL0     C36885   3.079   5.200   0.587 -0.4704 -0.1952 -0.0411
  280MOL0     O36886   3.213   5.186   0.621 -0.6681 -0.5213  0.3893
  280MOL0     C36887   3.303   5.256   0.539  0.0475  0.5627 -0.4370
  280MOL0     C36888   3.439   5.263   0.600  0.6492  0.0368 -0.0627
  280MOL0     C36889   3.529   5.372   0.531 -0.4618  0.4893  0.6534
  280MOL0     C36890   3.676   5.351   0.566 -0.5022  0.2960 -0.3240
  280MOL0     C36891   3.733   5.220   0.516 -0.2063 -0.2142  0.5806
  280MOL0     C36892   3.767   5.114   0.458 -0.5634 -0.8842 -0.5575
  280MOL0     C36893   3.032   5.204   0.454  0.4614 -0.0291  0.3378
  280MOL0     C36894   2.895   5.203   0.424  0.1820  0.2284 -0.5375
  280MOL0     H36895   2.435   5.160   0.847 -0.7864  1.8249  0.8911
  280MOL0     H36896   2.203   5.219   0.874 -0.0543  0.1121 -0.2116
  280MOL0     H36897   1.960   5.100   0.586  3.2362 -0.4327  2.0866
  280MOL0     H36898   1.908   5.255   0.517 -3.0979 -1.5680 -0.5258
  280MOL0     H36899   1.788   5.321   0.725  1.4273  1.2705 -0.6030
  280MOL0     H36900   1.814   5.163   0.792 -0.0895  0.6907  0.3974
  280MOL0     H36901   1.668   5.066   0.605 -1.8783 -0.1684 -0.2279
  280MOL0     H36902   1.648   5.230   0.545 -0.6579  0.9619  1.2762
  280MOL0     H36903   1.564   5.125   0.812 -2.0521 -2.2419 -0.9929
  280MOL0     H36904   1.574   5.292   0.793  3.3865 -1.3001  1.0150
  280MOL0     H36905   1.408   5.110   0.610 -1.2963  2.1779 -2.3854
  280MOL0     H36906   1.399   5.292   0.607 -3.6428 -0.4004 -1.1567
  280MOL0     H36907   1.332   5.300   0.828 -1.6557  2.3391 -2.9127
  280MOL0     H36908   1.296   5.119   0.825  0.0704 -0.2884  0.0530
  280MOL0     H36909   1.178   5.338   0.663 -1.4053  2.5763  4.1636
  280MOL0     H36910   1.143   5.164   0.621 -3.8806 -0.6511  2.3254
  280MOL0     H36911   1.067   5.324   0.864 -0.3966  1.3440 -1.3825
  280MOL0     H36912   1.052   5.146   0.854 -0.4886 -0.2585 -0.7212
  280MOL0     H36913   0.877   5.458   0.728 -0.5102 -1.3810  3.4093
  280MOL0     H36914   0.586   5.434   0.636 -0.7216 -0.5350  0.3056
  280MOL0     H36915   0.595   5.373   0.481  1.9126  0.1806 -1.9429
  280MOL0     H36916   0.771   5.534   0.406  1.4438 -1.8075  0.4351
  280MOL0     H36917   0.795   5.593   0.571 -2.3188  1.5852  1.1961
  280MOL0     H36918   0.581   5.682   0.593 -0.7432  0.8377 -0.5781
  280MOL0     H36919   0.667   5.751   0.458 -2.3427  1.7664  3.3768
  280MOL0     H36920   0.443   5.541   0.429  0.2420  0.1912  1.7126
  280MOL0     H36921   0.560   5.587   0.297  0.0611  0.3347  0.3047
  280MOL0     H36922   0.208   5.824   0.435  0.2446  0.7948 -0.7735
  280MOL0     H36923  -0.010   5.788   0.342 -0.5695 -1.9700  0.6710
  280MOL0     H36924  -0.374   5.800   0.322  0.2974  1.3798 -1.5673
  280MOL0     H36925  -0.618   5.744   0.308  0.4789 -0.4166  0.2904
  280MOL0     H36926  -0.743   5.376   0.063 -2.7591 -0.1290  1.4281
  280MOL0     H36927  -0.716   5.524  -0.037  2.6250 -0.2334  0.6167
  280MOL0     H36928  -0.961   5.434  -0.028  0.7375  0.5312 -1.1304
  280MOL0     H36929  -0.937   5.599   0.031 -0.3954 -0.4664  1.4839
  280MOL0     H36930  -0.947   5.515   0.263 -0.5648  0.1762 -0.2801
  280MOL0     H36931  -0.958   5.349   0.199  1.4322 -0.0311 -0.9792
  280MOL0     H36932  -1.165   5.563   0.157 -1.1389 -0.9013 -0.6779
  280MOL0     H36933  -1.157   5.416   0.061 -0.7655  0.4881 -0.6319
  280MOL0     H36934  -1.170   5.404   0.369 -1.5193  1.6828 -0.0902
  280MOL0     H36935  -1.185   5.277   0.243  1.5329 -0.4397  1.8044
  280MOL0     H36936  -1.399   5.302   0.321 -0.3950  0.8041 -0.2661
  280MOL0     H36937  -1.414   5.382   0.168  1.1702  1.4229 -1.2187
  280MOL0     H36938  -1.409   5.542   0.440  2.2579  1.3333 -1.2412
  280MOL0     H36939  -1.417   5.596   0.273  0.8428  0.0239  0.3202
  280MOL0     H36940  -1.607   5.396   0.388  0.8909  0.2324  0.4437
  280MOL0     H36941  -1.612   5.498   0.245 -0.7765 -0.2326  0.0463
  280MOL0     H36942  -0.519   5.385   0.097 -0.2950  0.5794 -0.8210
  280MOL0     H36943  -0.273   5.452   0.100 -0.1464  0.6424 -0.3905
  280MOL0     H36944   0.165   5.557   0.032 -0.6252  1.0299  0.1700
  280MOL0     H36945   0.378   5.579   0.126  1.5339 -1.0933  1.5797
  280MOL0     H36946   2.174   5.253   0.441  2.4977  2.3726 -0.1315
  280MOL0     H36947   2.394   5.182   0.419  1.4896  2.9109 -0.5161
  280MOL0     H36948   2.788   5.150   0.748  1.9821  0.2501  1.0319
  280MOL0     H36949   3.028   5.166   0.790 -0.5535  0.1347 -0.8503
  280MOL0     H36950   3.270   5.359   0.523  3.2777  2.0244  1.3199
  280MOL0     H36951   3.318   5.212   0.440  2.9659 -0.2193  0.2507
  280MOL0     H36952   3.424   5.292   0.705  0.3809  1.0851 -0.3838
  280MOL0     H36953   3.490   5.167   0.592 -0.1597 -0.4015 -0.0652
  280MOL0     H36954   3.488   5.471   0.552  1.1845  1.3307  0.0140
  280MOL0     H36955   3.516   5.362   0.423 -0.6015  1.7518  0.5488
  280MOL0     H36956   3.740   5.427   0.519  0.7552 -0.6656 -0.2161
  280MOL0     H36957   3.680   5.361   0.675  0.7592 -1.8891 -0.1107
  280MOL0     H36958   3.783   5.017   0.418  0.2503 -1.4819  1.1125
  280MOL0     H36959   3.100   5.214   0.370 -0.0093  2.4959  0.1837
  280MOL0     H36960   2.857   5.229   0.326 -0.8977 -1.6555 -0.6641
  281MOL0     O36961   4.539   0.186   0.675  0.7152  0.0890  0.0089
  281MOL0     C36962   4.521   0.068   0.645 -0.1855 -0.9584 -0.2425
  281MOL0     O36963   4.398   0.011   0.608 -0.5731  0.5719 -0.0622
  281MOL0     C36964   4.280   0.077   0.609 -0.1828  0.6312 -1.0604
  281MOL0     C36965   4.196   0.064   0.499  0.6096 -0.6421 -0.7241
  281MOL0     C36966   4.070   0.131   0.513 -0.1992  0.3214  1.1459
  281MOL0     C36967   4.026   0.186   0.624  0.1496 -0.3561  0.2038
  281MOL0     O36968   3.897   0.245   0.618 -0.4425  0.6106  0.5873
  281MOL0     C36969   3.816   0.253   0.733  0.0688 -0.6663  0.3024
  281MOL0     C36970   3.689   0.310   0.681 -0.2557  0.4777  0.5474
  281MOL0     C36971   3.579   0.306   0.789  0.0984  0.4001  0.2002
  281MOL0     C36972   3.462   0.375   0.724  0.1897 -0.2940  0.8537
  281MOL0     C36973   3.341   0.388   0.826 -0.1340  0.4040  0.3622
  281MOL0     C36974   3.221   0.431   0.750 -0.5269  0.6718  0.7145
  281MOL0     C36975   3.110   0.446   0.846  0.8970  0.1115 -0.1689
  281MOL0     C36976   2.976   0.464   0.765 -0.3093 -0.0029 -0.1547
  281MOL0     N36977   2.855   0.490   0.844  0.0298 -0.4126 -0.1227
  281MOL0     C36978   2.727   0.465   0.798 -0.3902 -0.1293  1.2694
  281MOL0     C36979   2.645   0.495   0.899 -0.2851  0.2404  0.0698
  281MOL0     C36980   2.499   0.465   0.888  0.5300  0.7800 -0.8705
  281MOL0     C36981   2.444   0.377   1.006  0.7105 -0.0382  0.2155
  281MOL0     C36982   2.287   0.354   0.997 -0.9710 -0.2402  0.1265
  281MOL0     C36983   2.218   0.277   1.119  0.0147  0.0335  0.2827
  281MOL0     O36984   2.090   0.230   1.066  0.6404  0.0326 -0.0769
  281MOL0     C36985   1.980   0.276   1.140 -0.3133  0.1933  1.2781
  281MOL0     C36986   1.928   0.401   1.108  0.8379 -0.7270  0.3559
  281MOL0     C36987   1.820   0.445   1.186  0.0389 -0.3761 -0.4313
  281MOL0     C36988   1.768   0.374   1.289 -0.2873  0.3167  0.3793
  281MOL0     C36989   1.634   0.418   1.347 -0.1438 -0.4343 -0.5482
  281MOL0     O36990   1.562   0.305   1.392  0.0203 -0.4504  0.7597
  281MOL0     C36991   1.452   0.329   1.472 -0.5661  0.3813 -0.1106
  281MOL0     C36992   1.447   0.265   1.599  0.3297 -0.4143 -0.5585
  281MOL0     C36993   1.332   0.282   1.684  0.0297 -0.9266  0.3981
  281MOL0     C36994   1.217   0.346   1.636  0.2192  0.1403 -0.8171
  281MOL0     O36995   1.094   0.343   1.696 -0.3394 -0.0111  0.4503
  281MOL0     C36996   1.098   0.363   1.835 -0.6563  0.0894 -0.6473
  281MOL0     C36997   0.963   0.336   1.894  0.3166 -0.5455  0.0000
  281MOL0     C36998   0.974   0.283   2.038  0.6702 -0.3915 -0.0129
  281MOL0     C36999   0.829   0.258   2.094 -0.2961 -0.0057  0.2355
  281MOL0     C37000   0.832   0.239   2.244  0.4382  0.4429 -0.1569
  281MOL0     C37001   0.722   0.132   2.276  0.0295 -0.4813  0.1948
  281MOL0     C37002   0.719   0.088   2.420  0.0100  0.3534 -0.2578
  281MOL0     C37003   0.661  -0.055   2.444  0.3425 -0.2885 -0.1720
  281MOL0    Cl37004   0.499  -0.043   2.502 -0.2803  0.1515  0.1846
  281MOL0     C37005   1.221   0.399   1.505  0.5341 -1.1284  0.7630
  281MOL0     C37006   1.334   0.389   1.430  0.5224 -0.8947  0.1429
  281MOL0     O37007   1.617   0.535   1.373  0.3852  0.6504  0.4630
  281MOL0     C37008   1.829   0.252   1.319 -0.0764  1.2376  0.9542
  281MOL0     C37009   1.938   0.194   1.241  0.3674  0.4625  0.6324
  281MOL0     N37010   2.722   0.549   1.002 -0.1515 -0.1982 -0.1994
  281MOL0     N37011   2.848   0.546   0.971 -0.3650 -0.3094  1.0262
  281MOL0     C37012   4.109   0.183   0.736 -0.1032 -0.0424 -0.2397
  281MOL0     C37013   4.235   0.136   0.733  0.3866  0.8551  0.3679
  281MOL0     C37014   4.638  -0.017   0.654  0.8018  0.0942 -0.1409
  281MOL0     C37015   4.621  -0.150   0.611  0.2741  0.9574  0.1890
  281MOL0     C37016   4.735  -0.239   0.609 -0.3654 -0.6630 -0.5377
  281MOL0     C37017   4.863  -0.194   0.640  0.3866 -0.1950 -0.5199
  281MOL0     O37018   4.964  -0.289   0.645  0.2086 -0.0234  0.3447
  281MOL0     C37019   5.103  -0.253   0.687 -0.2207  0.3790 -0.3014
  281MOL0     C37020   5.174  -0.381   0.739 -0.0943 -0.6313 -0.0005
  281MOL0     C37021   5.317  -0.353   0.773 -0.1589  0.8565 -0.2026
  281MOL0     C37022   5.388  -0.475   0.823 -0.4011  0.4495  0.2844
  281MOL0     C37023   5.441  -0.546   0.705 -0.2532  0.5139 -1.0931
  281MOL0     C37024   5.474  -0.603   0.605 -1.0130  1.0368  0.7664
  281MOL0     C37025   4.877  -0.056   0.688 -0.6670  0.1910  0.0443
  281MOL0     C37026   4.764   0.034   0.691 -0.8950 -0.1989 -1.5140
  281MOL0     H37027   4.239   0.028   0.406  3.4041 -0.0648  0.2182
  281MOL0     H37028   4.005   0.142   0.427 -1.0976  0.5845  1.8457
  281MOL0     H37029   3.850   0.322   0.810 -2.5478 -0.2753  1.2274
  281MOL0     H37030   3.815   0.157   0.786 -0.0103 -3.0422 -3.6092
  281MOL0     H37031   3.655   0.258   0.591  1.4082  1.5816 -0.7852
  281MOL0     H37032   3.699   0.414   0.650 -1.1628  1.0587  2.0778
  281MOL0     H37033   3.620   0.364   0.872  1.5262 -0.3717  0.0623
  281MOL0     H37034   3.559   0.206   0.828 -0.0129  0.9510  1.6044
  281MOL0     H37035   3.485   0.475   0.686 -1.9635 -0.8480 -2.2998
  281MOL0     H37036   3.438   0.319   0.634  3.1378  2.3981 -1.8290
  281MOL0     H37037   3.358   0.458   0.908  0.4978  1.6482 -0.7910
  281MOL0     H37038   3.329   0.288   0.868  0.0317  0.0224 -0.4697
  281MOL0     H37039   3.199   0.354   0.675  2.8654  0.5313 -0.3244
  281MOL0     H37040   3.234   0.515   0.681 -0.4264 -1.0390 -1.4743
  281MOL0     H37041   3.093   0.350   0.896  2.7281  1.2808  2.9721
  281MOL0     H37042   3.130   0.524   0.920 -0.1718  0.2460 -0.0066
  281MOL0     H37043   2.956   0.366   0.720 -0.6183 -0.3733  0.7610
  281MOL0     H37044   2.985   0.533   0.681 -0.4629  0.3193  0.0936
  281MOL0     H37045   2.704   0.430   0.698 -0.2530  2.0147  0.4504
  281MOL0     H37046   2.465   0.422   0.793 -0.3776 -0.4551 -0.0290
  281MOL0     H37047   2.450   0.562   0.898 -1.5227 -0.4444  2.5517
  281MOL0     H37048   2.467   0.415   1.106 -2.1598  0.2964  0.8554
  281MOL0     H37049   2.489   0.278   1.003 -1.0466 -0.8733 -0.0742
  281MOL0     H37050   2.233   0.448   0.982 -4.2841 -2.1051 -0.6316
  281MOL0     H37051   2.258   0.294   0.910 -0.5024  2.0517 -1.7170
  281MOL0     H37052   2.212   0.334   1.212 -3.6369  0.3509 -0.0070
  281MOL0     H37053   2.273   0.185   1.139  2.0121  1.1603  0.2165
  281MOL0     H37054   1.969   0.466   1.031  1.8185 -4.3467 -2.4941
  281MOL0     H37055   1.776   0.540   1.157 -0.0582 -0.6792 -1.3136
  281MOL0     H37056   1.533   0.204   1.625 -0.0024 -0.7122 -0.1510
  281MOL0     H37057   1.339   0.227   1.777  0.8470 -1.0119  0.2926
  281MOL0     H37058   1.133   0.465   1.852 -1.1623  0.0120  1.0643
  281MOL0     H37059   1.158   0.290   1.891  1.2645  3.2159  1.7256
  281MOL0     H37060   0.914   0.252   1.844  2.2865 -1.3343 -0.6692
  281MOL0     H37061   0.894   0.420   1.883 -0.3846 -1.4493 -4.0794
  281MOL0     H37062   1.028   0.360   2.094 -2.0900  0.8819  1.1045
  281MOL0     H37063   1.035   0.192   2.041  1.3364  0.0392 -0.3042
  281MOL0     H37064   0.767   0.346   2.072 -0.7732 -0.5009 -0.4309
  281MOL0     H37065   0.785   0.176   2.036 -0.3326 -0.2865  0.6612
  281MOL0     H37066   0.810   0.336   2.289  2.3419  1.8699 -2.0388
  281MOL0     H37067   0.927   0.198   2.279 -1.4024 -1.6119  2.8968
  281MOL0     H37068   0.750   0.049   2.209  0.1377  0.3413 -0.7992
  281MOL0     H37069   0.632   0.175   2.232  0.1411 -0.8689 -0.4350
  281MOL0     H37070   0.817   0.100   2.468 -0.4246  3.1901  0.1131
  281MOL0     H37071   0.669   0.167   2.477  0.4173 -0.3141  1.0667
  281MOL0     H37072   0.713  -0.102   2.528 -1.6950  0.6232  1.6943
  281MOL0     H37073   0.667  -0.120   2.356  0.5685 -0.1198 -0.2839
  281MOL0     H37074   1.137   0.446   1.455  3.2503  1.0918 -2.0915
  281MOL0     H37075   1.342   0.426   1.328 -0.8174  2.7190  1.1839
  281MOL0     H37076   1.788   0.179   1.387 -0.0723  1.2670  0.9880
  281MOL0     H37077   1.989   0.101   1.262  0.1564  0.2582  0.2420
  281MOL0     H37078   4.089   0.239   0.827  2.0378  0.5658 -0.0768
  281MOL0     H37079   4.294   0.156   0.822 -0.2003 -2.2879  1.6158
  281MOL0     H37080   4.525  -0.190   0.581  0.0193  1.4316  0.3637
  281MOL0     H37081   4.719  -0.341   0.575 -0.1240  0.2710 -3.9123
  281MOL0     H37082   5.100  -0.176   0.766 -0.8204 -0.0606  0.1180
  281MOL0     H37083   5.167  -0.217   0.606 -3.9581  0.8331 -3.3459
  281MOL0     H37084   5.121  -0.427   0.823 -1.2632 -0.2992 -0.5360
  281MOL0     H37085   5.159  -0.457   0.661 -1.6310 -2.1076  1.6341
  281MOL0     H37086   5.331  -0.273   0.847  0.2889  2.3145 -1.8140
  281MOL0     H37087   5.362  -0.325   0.678  0.8561 -0.3492 -0.1056
  281MOL0     H37088   5.468  -0.455   0.895 -1.5354 -1.0364  2.0466
  281MOL0     H37089   5.318  -0.537   0.880 -1.5135  2.5630  1.3468
  281MOL0     H37090   5.511  -0.669   0.530 -2.8620 -0.2275  0.8958
  281MOL0     H37091   4.968  -0.001   0.711 -0.1013 -0.6368 -0.1883
  281MOL0     H37092   4.780   0.136   0.722 -0.8126 -0.5809 -0.2566
  282MOL0     O37093   4.130   8.672   8.279  0.2116  0.7681  0.1917
  282MOL0     C37094   4.161   8.704   8.168 -0.0696  0.0976 -0.6589
  282MOL0     O37095   4.086   8.787   8.083  0.9498  0.2104  0.0490
  282MOL0     C37096   3.966   8.841   8.126 -0.0246 -0.3183 -0.1790
  282MOL0     C37097   3.971   8.973   8.163 -0.4398 -0.9260 -0.5197
  282MOL0     C37098   3.863   9.038   8.211  0.2656  0.0658  0.0515
  282MOL0     C37099   3.742   8.972   8.219 -0.4919  0.6987  0.5564
  282MOL0     O37100   3.624   9.024   8.266 -0.3192  0.3538  0.2259
  282MOL0     C37101   3.621   9.164   8.321  0.4385 -0.0609 -0.0629
  282MOL0     C37102   3.484   9.185   8.380 -0.0880  0.2170 -0.1466
  282MOL0     C37103   3.467   9.097   8.505  0.3630 -1.3683 -0.3891
  282MOL0     C37104   3.334   9.113   8.582  0.0623 -0.3512  0.2100
  282MOL0     C37105   3.214   9.069   8.494 -0.0679  0.6107  0.1663
  282MOL0     C37106   3.074   9.103   8.550  0.3319  0.8923  0.9953
  282MOL0     C37107   2.960   9.091   8.447 -0.7268 -0.1695  0.0168
  282MOL0     C37108   2.825   9.114   8.523  0.3922  0.4106 -0.4520
  282MOL0     N37109   2.729   9.186   8.435 -0.4349  0.0446  0.0536
  282MOL0     C37110   2.652   9.138   8.331 -0.0279 -0.0119 -0.1108
  282MOL0     C37111   2.613   9.248   8.273  0.1113 -0.2420 -0.3450
  282MOL0     C37112   2.528   9.253   8.145 -0.4740  0.0019 -0.1331
  282MOL0     C37113   2.536   9.128   8.045  0.6999 -0.5971 -0.5152
  282MOL0     C37114   2.432   9.124   7.936  0.2600  1.0598 -0.2815
  282MOL0     C37115   2.296   9.101   7.984  0.8648  0.2120 -0.4539
  282MOL0     O37116   2.228   9.225   8.026 -0.7811 -1.0360 -0.5858
  282MOL0     C37117   2.093   9.208   8.041  0.1630  0.7564 -0.9690
  282MOL0     C37118   2.027   9.313   8.097 -0.3131 -0.2632 -1.0823
  282MOL0     C37119   1.891   9.310   8.115  0.0114  0.1646  0.2474
  282MOL0     C37120   1.820   9.195   8.088  0.1104 -0.1196 -0.6605
  282MOL0     C37121   1.675   9.189   8.130 -0.1586  0.2569  0.8071
  282MOL0     O37122   1.613   9.316   8.159  0.0582 -0.3199  0.1213
  282MOL0     C37123   1.475   9.327   8.187  0.3292  0.5440  0.0830
  282MOL0     C37124   1.397   9.430   8.132 -0.0516  0.1254 -0.0707
  282MOL0     C37125   1.265   9.461   8.183 -0.6986 -0.0620  0.3308
  282MOL0     C37126   1.196   9.377   8.273 -0.1653  0.3312 -0.5451
  282MOL0     O37127   1.062   9.395   8.299 -0.1466 -0.6073 -0.8590
  282MOL0     C37128   0.998   9.514   8.264  0.7724  0.3513  0.3063
  282MOL0     C37129   0.931   9.491   8.129  1.2192 -0.5037  0.1572
  282MOL0     C37130   0.807   9.402   8.136  0.4592 -0.0882 -0.6528
  282MOL0     C37131   0.752   9.384   7.997 -0.3570 -0.8177 -0.6372
  282MOL0     C37132   0.650   9.271   7.993  1.2836 -0.1455 -0.9092
  282MOL0     C37133   0.576   9.261   7.857  0.7385 -0.2009  0.4364
  282MOL0     C37134   0.487   9.132   7.848  0.4753  0.0460 -0.6014
  282MOL0     C37135   0.508   9.040   7.726 -0.2951 -0.6433  0.1215
  282MOL0    Cl37136   0.368   8.928   7.692 -0.8437 -0.3166 -0.3255
  282MOL0     C37137   1.276   9.274   8.327  0.6036  0.1312 -0.1316
  282MOL0     C37138   1.416   9.248   8.288  0.5288  0.5155 -0.5324
  282MOL0     O37139   1.615   9.084   8.107  0.9506  0.0779  0.0419
  282MOL0     C37140   1.883   9.085   8.028  0.2456 -0.5332 -0.1827
  282MOL0     C37141   2.016   9.092   8.002 -0.3676 -0.3827  0.4353
  282MOL0     N37142   2.658   9.359   8.342  0.6527 -0.3005  0.4356
  282MOL0     N37143   2.723   9.320   8.446  0.4032  0.8911  0.3544
  282MOL0     C37144   3.734   8.835   8.182 -0.2391 -0.0564 -0.3641
  282MOL0     C37145   3.846   8.768   8.139  0.5899  0.2794 -0.8033
  282MOL0     C37146   4.309   8.670   8.127 -0.8403 -0.3860 -0.4089
  282MOL0     C37147   4.347   8.701   8.002  0.1226  0.2154  0.7924
  282MOL0     C37148   4.466   8.648   7.948  0.7179  0.0739 -0.4603
  282MOL0     C37149   4.553   8.580   8.031 -0.3431 -0.5297  0.7996
  282MOL0     O37150   4.669   8.515   7.992  0.6150  0.0811 -0.9387
  282MOL0     C37151   4.721   8.536   7.857  0.0857  0.0202  0.0138
  282MOL0     C37152   4.835   8.446   7.835  0.3068  0.4269  0.2129
  282MOL0     C37153   4.787   8.297   7.836 -0.2344 -0.3590 -0.0233
  282MOL0     C37154   4.912   8.214   7.896 -0.4641 -0.5316  0.0220
  282MOL0     C37155   4.998   8.163   7.792  0.3990  0.2045  0.1370
  282MOL0     C37156   5.063   8.130   7.697  1.1785  0.4634  0.6383
  282MOL0     C37157   4.512   8.543   8.162  0.2692 -0.6320  0.5073
  282MOL0     C37158   4.390   8.582   8.207 -0.3694 -1.0205  0.2563
  282MOL0     H37159   4.062   9.029   8.147 -0.6140 -0.6721 -0.6267
  282MOL0     H37160   3.875   9.141   8.241 -3.2664  0.6738 -0.2394
  282MOL0     H37161   3.644   9.244   8.250  1.7806 -0.8835 -0.5988
  282MOL0     H37162   3.694   9.164   8.402  0.2620 -1.3739  0.1170
  282MOL0     H37163   3.408   9.160   8.306 -0.3785 -2.1148  0.8480
  282MOL0     H37164   3.486   9.290   8.408  2.6288  0.8491 -2.2754
  282MOL0     H37165   3.550   9.117   8.574  0.9815 -1.9276 -0.9621
  282MOL0     H37166   3.474   8.989   8.488  2.5890 -1.5583  1.2987
  282MOL0     H37167   3.342   9.055   8.674  0.2982  0.0209  0.4257
  282MOL0     H37168   3.329   9.216   8.618  3.1169 -0.5510  1.5341
  282MOL0     H37169   3.226   8.964   8.465 -1.6320  0.6497 -0.7676
  282MOL0     H37170   3.209   9.102   8.390 -1.5142 -4.0759 -1.4862
  282MOL0     H37171   3.082   9.200   8.600  1.9672  1.5992 -0.5103
  282MOL0     H37172   3.057   9.034   8.633  0.2195  0.7545  0.8569
  282MOL0     H37173   2.972   9.170   8.371 -2.6996 -1.0718 -1.3058
  282MOL0     H37174   2.960   8.996   8.394 -0.7599 -0.9296  1.3503
  282MOL0     H37175   2.853   9.183   8.603  1.6929  0.1561 -0.6614
  282MOL0     H37176   2.789   9.017   8.560  0.6914 -0.2575 -1.8316
  282MOL0     H37177   2.629   9.035   8.306 -2.2121  1.1769 -3.6993
  282MOL0     H37178   2.566   9.339   8.088 -1.3301  0.2126 -0.3996
  282MOL0     H37179   2.428   9.289   8.170 -1.0714 -1.0204 -1.0034
  282MOL0     H37180   2.537   9.036   8.105  1.4022  0.3492  0.9945
  282MOL0     H37181   2.634   9.130   7.996  0.9090 -2.5723 -0.2423
  282MOL0     H37182   2.432   9.217   7.877  0.9878  0.2187 -1.6523
  282MOL0     H37183   2.461   9.041   7.872  1.0789 -1.4263  3.0248
  282MOL0     H37184   2.296   9.029   8.066 -3.4269  0.7582  0.2500
  282MOL0     H37185   2.235   9.058   7.904 -3.0063  0.0778  2.2936
  282MOL0     H37186   2.091   9.387   8.142  0.4449 -2.1514  1.1286
  282MOL0     H37187   1.829   9.394   8.148  0.1359  1.0012 -1.5314
  282MOL0     H37188   1.439   9.498   8.059  2.1265 -1.2716 -0.2070
  282MOL0     H37189   1.220   9.545   8.132  1.5870  0.7063 -0.5332
  282MOL0     H37190   1.063   9.601   8.269 -1.2920  1.9106  3.8188
  282MOL0     H37191   0.917   9.525   8.337 -2.9399 -1.2163 -3.1489
  282MOL0     H37192   1.003   9.448   8.058  1.5199  1.4184 -0.7837
  282MOL0     H37193   0.920   9.592   8.088  1.3736 -0.6908 -0.3640
  282MOL0     H37194   0.730   9.446   8.201 -0.5491  0.1956 -2.0101
  282MOL0     H37195   0.837   9.305   8.179  1.4983 -0.4310 -2.0826
  282MOL0     H37196   0.714   9.479   7.958  0.6973  0.0386  0.3534
  282MOL0     H37197   0.834   9.355   7.931  0.4712  0.3728 -0.1579
  282MOL0     H37198   0.573   9.292   8.068 -0.5750 -0.4145 -2.6571
  282MOL0     H37199   0.695   9.173   8.011 -1.9155 -1.6478 -0.2174
  282MOL0     H37200   0.643   9.266   7.770  1.1729  4.4429  0.8133
  282MOL0     H37201   0.508   9.346   7.854 -1.2823 -1.7266  0.6500
  282MOL0     H37202   0.509   9.061   7.929  1.8719 -1.9911 -2.6392
  282MOL0     H37203   0.384   9.158   7.872  0.3404 -0.7982 -0.2436
  282MOL0     H37204   0.598   8.981   7.744 -1.0821 -1.5152  1.3733
  282MOL0     H37205   0.527   9.101   7.637 -0.4220 -1.7339 -0.6622
  282MOL0     H37206   1.215   9.210   8.391 -3.2505 -1.6994 -4.9669
  282MOL0     H37207   1.463   9.168   8.345  1.3367  0.9633 -0.5515
  282MOL0     H37208   1.832   8.992   8.006  2.1293 -1.6108 -0.2143
  282MOL0     H37209   2.066   9.005   7.959 -1.9445 -1.6542  1.0408
  282MOL0     H37210   3.634   8.794   8.185 -0.5693  0.7486  0.0072
  282MOL0     H37211   3.853   8.666   8.104  2.5774  0.6870 -1.7365
  282MOL0     H37212   4.280   8.757   7.939  0.5899  0.3423  0.3979
  282MOL0     H37213   4.494   8.675   7.846 -0.8404  0.0218 -0.9281
  282MOL0     H37214   4.754   8.640   7.851 -2.4075  0.7973 -1.6854
  282MOL0     H37215   4.647   8.519   7.778  1.8699  1.5146 -2.1277
  282MOL0     H37216   4.870   8.477   7.736 -0.5468  0.9834  0.0731
  282MOL0     H37217   4.910   8.458   7.914 -0.5180 -0.5900  1.1864
  282MOL0     H37218   4.766   8.268   7.732 -1.1839 -0.8548  0.2994
  282MOL0     H37219   4.707   8.286   7.908  0.1728 -1.1182  0.3278
  282MOL0     H37220   4.969   8.270   7.971 -3.1846 -0.7965  2.4612
  282MOL0     H37221   4.867   8.141   7.964 -0.5026 -0.6805 -0.1650
  282MOL0     H37222   5.119   8.101   7.610  0.1666  2.2967 -0.6941
  282MOL0     H37223   4.576   8.474   8.216 -1.4593 -2.7794 -0.0594
  282MOL0     H37224   4.361   8.537   8.302 -2.3747 -2.8594 -1.1378
  283MOL0     O37225   2.529   0.939   1.196 -0.0091  0.0333 -1.0587
  283MOL0     C37226   2.497   1.004   1.096 -0.7576 -0.5771 -0.4581
  283MOL0     O37227   2.384   1.089   1.088  0.4957  0.7197  0.9283
  283MOL0     C37228   2.286   1.097   1.194  0.0465  1.1127  0.7665
  283MOL0     C37229   2.196   1.195   1.170 -0.1371  0.0327  0.0352
  283MOL0     C37230   2.084   1.222   1.252 -0.1414 -0.4688  0.4636
  283MOL0     C37231   2.091   1.156   1.380 -0.4518 -0.0841  1.1828
  283MOL0     O37232   2.007   1.179   1.484 -0.7923 -0.8332  0.2770
  283MOL0     C37233   1.893   1.266   1.454  0.2650 -0.3269  0.0043
  283MOL0     C37234   1.777   1.263   1.554  0.2396  0.0617 -0.0036
  283MOL0     C37235   1.819   1.308   1.692  0.7406 -0.2903  0.1256
  283MOL0     C37236   1.683   1.309   1.778  0.7405  0.0068 -0.0250
  283MOL0     C37237   1.643   1.169   1.832  0.5638  0.0053  0.4600
  283MOL0     C37238   1.511   1.161   1.907 -0.2352  0.1521  0.4680
  283MOL0     C37239   1.392   1.193   1.818 -0.1545 -0.2286  0.0313
  283MOL0     C37240   1.262   1.149   1.879  0.6484 -0.6608  0.3357
  283MOL0     N37241   1.250   1.175   2.021 -0.1733 -0.3616  1.0405
  283MOL0     C37242   1.247   1.071   2.107  0.3947  0.4425  0.5551
  283MOL0     C37243   1.232   1.132   2.228 -1.0904 -0.1485 -0.5004
  283MOL0     C37244   1.216   1.050   2.356 -0.7398 -0.2368  0.2771
  283MOL0     C37245   1.086   0.966   2.339 -0.5016  0.5046  0.1438
  283MOL0     C37246   0.953   1.044   2.324 -0.2267 -0.7848 -0.2472
  283MOL0     C37247   0.902   1.092   2.455 -0.6425  0.2750  0.4525
  283MOL0     O37248   0.782   1.158   2.431  0.8454  0.3306 -0.3055
  283MOL0     C37249   0.689   1.137   2.525  0.5080  0.1782 -0.5537
  283MOL0     C37250   0.713   1.103   2.658  0.0480 -0.3483 -0.4835
  283MOL0     C37251   0.599   1.096   2.750  0.8220  0.1510  0.4833
  283MOL0     C37252   0.467   1.121   2.707  0.5217 -0.6428  0.1226
  283MOL0     C37253   0.350   1.140   2.795 -0.4712  0.4885 -0.1025
  283MOL0     O37254   0.231   1.130   2.738 -0.2583 -0.4861  0.6560
  283MOL0     C37255   0.108   1.131   2.800 -0.0136  0.9624  0.2248
  283MOL0     C37256  -0.002   1.075   2.730 -0.5544  0.4644 -0.1453
  283MOL0     C37257  -0.132   1.088   2.773 -0.4221 -0.6692  0.2885
  283MOL0     C37258  -0.162   1.144   2.894  0.2710 -0.5139 -0.1291
  283MOL0     O37259  -0.281   1.152   2.959 -0.1128  0.1883 -0.0374
  283MOL0     C37260  -0.410   1.128   2.897 -1.2077 -0.4619  0.4529
  283MOL0     C37261  -0.456   1.236   2.805 -0.6299 -0.4889  0.2708
  283MOL0     C37262  -0.571   1.184   2.715 -0.2768 -0.2222 -0.2504
  283MOL0     C37263  -0.517   1.087   2.602  0.2550 -0.8664  0.5796
  283MOL0     C37264  -0.624   1.037   2.496 -0.6814  0.1844  0.0968
  283MOL0     C37265  -0.548   0.944   2.399  1.5067 -0.5322  0.4512
  283MOL0     C37266  -0.643   0.873   2.311 -0.0491  0.4295  0.7806
  283MOL0     C37267  -0.569   0.767   2.230  0.0816  1.2109  0.1439
  283MOL0    Cl37268  -0.484   0.838   2.096  0.2859 -0.0219  0.0930
  283MOL0     C37269  -0.047   1.197   2.960  0.3037  1.1239  0.0355
  283MOL0     C37270   0.081   1.199   2.920 -0.2211  0.6031  0.2876
  283MOL0     O37271   0.375   1.158   2.915  0.3962  0.1921  0.1073
  283MOL0     C37272   0.450   1.145   2.564 -0.2399  0.7876  0.4623
  283MOL0     C37273   0.556   1.155   2.476 -0.3696 -0.3973 -0.6898
  283MOL0     N37274   1.242   1.266   2.211 -0.0797 -0.6365 -0.5385
  283MOL0     N37275   1.254   1.293   2.082 -0.3074  0.1897 -0.5257
  283MOL0     C37276   2.179   1.056   1.404  0.9319  0.2475  0.0011
  283MOL0     C37277   2.277   1.024   1.308 -0.6938 -0.8212 -1.2620
  283MOL0     C37278   2.583   1.005   0.982 -0.1463  0.4169  0.9307
  283MOL0     C37279   2.666   0.891   0.969 -0.1083  0.3841  0.8674
  283MOL0     C37280   2.757   0.880   0.865 -0.7556  0.5245  0.2838
  283MOL0     C37281   2.757   0.975   0.763 -0.0632  0.3604 -0.1515
  283MOL0     O37282   2.845   0.981   0.656 -1.0579  0.6759 -0.3606
  283MOL0     C37283   2.929   0.865   0.633  0.5096  0.6376 -0.2716
  283MOL0     C37284   3.061   0.862   0.709  0.0121 -1.3561 -0.3465
  283MOL0     C37285   3.151   0.984   0.669  0.4436 -0.6446 -0.3353
  283MOL0     C37286   3.209   0.976   0.522  0.0822  0.1861 -0.7566
  283MOL0     C37287   3.277   0.847   0.499  0.1929 -0.0817 -0.0673
  283MOL0     C37288   3.341   0.750   0.486 -0.3421  1.3587  0.5483
  283MOL0     C37289   2.668   1.077   0.771  0.1471 -0.4819  0.3505
  283MOL0     C37290   2.578   1.097   0.878  0.7212 -0.0624 -0.4020
  283MOL0     H37291   2.205   1.238   1.070 -1.2842 -1.4998 -0.7707
  283MOL0     H37292   2.020   1.301   1.216  1.6615  1.1438  0.6458
  283MOL0     H37293   1.849   1.249   1.355 -1.3896  1.2621  0.4140
  283MOL0     H37294   1.922   1.371   1.451 -1.7455  0.4294  2.9269
  283MOL0     H37295   1.739   1.161   1.559 -2.3614  0.9313 -0.7524
  283MOL0     H37296   1.693   1.320   1.514 -0.1674 -0.0330  0.7104
  283MOL0     H37297   1.862   1.409   1.684  0.3859  0.4100  4.6605
  283MOL0     H37298   1.899   1.242   1.726  0.8612 -1.0806 -1.5507
  283MOL0     H37299   1.698   1.369   1.868  0.5351  0.1684 -0.0981
  283MOL0     H37300   1.597   1.353   1.727 -0.4256 -0.8865  1.0913
  283MOL0     H37301   1.725   1.142   1.898  3.8615  2.6743 -2.1761
  283MOL0     H37302   1.645   1.094   1.753 -0.6790  0.9933 -0.5635
  283MOL0     H37303   1.533   1.241   1.979 -0.9703  0.3861  0.4433
  283MOL0     H37304   1.498   1.071   1.966  0.8306 -1.5075 -1.6873
  283MOL0     H37305   1.393   1.297   1.786  0.1457  0.7951  3.0359
  283MOL0     H37306   1.407   1.142   1.723  2.4392  3.9632 -2.0920
  283MOL0     H37307   1.244   1.045   1.851  0.5021 -0.4966 -0.1911
  283MOL0     H37308   1.179   1.198   1.827 -0.3155 -0.2341  2.2081
  283MOL0     H37309   1.247   0.964   2.089 -0.7245  0.3361  1.1141
  283MOL0     H37310   1.199   1.118   2.441 -0.4777  0.7382 -0.4364
  283MOL0     H37311   1.300   0.982   2.374  0.3377  0.9622 -0.0924
  283MOL0     H37312   1.067   0.905   2.428  0.1361  0.0924  0.0094
  283MOL0     H37313   1.097   0.896   2.256  0.5379 -0.2822  0.9103
  283MOL0     H37314   0.979   1.133   2.267 -1.2593  1.1722  2.1374
  283MOL0     H37315   0.872   0.982   2.284  0.1832 -0.7102 -1.2232
  283MOL0     H37316   0.977   1.162   2.491 -2.0448  1.3171  1.4738
  283MOL0     H37317   0.894   1.007   2.524  0.1144  0.3312  0.6197
  283MOL0     H37318   0.818   1.094   2.685  0.8219 -2.0558 -3.5372
  283MOL0     H37319   0.631   1.079   2.852  2.4114  0.5561  0.0694
  283MOL0     H37320   0.025   1.023   2.639 -2.1867  1.1842 -1.0813
  283MOL0     H37321  -0.205   1.037   2.711 -0.0727 -2.4858  1.2723
  283MOL0     H37322  -0.490   1.110   2.969 -0.6732 -1.8965  0.7135
  283MOL0     H37323  -0.382   1.035   2.847  1.2667  0.1267  0.6266
  283MOL0     H37324  -0.373   1.273   2.745  0.5781 -1.6434  1.1722
  283MOL0     H37325  -0.498   1.325   2.854  1.2732  0.7176 -0.1588
  283MOL0     H37326  -0.620   1.266   2.661 -0.3463 -0.0789  0.0312
  283MOL0     H37327  -0.646   1.139   2.781  0.0206  0.6846  0.7133
  283MOL0     H37328  -0.434   1.137   2.552 -0.4843  1.1462  1.2499
  283MOL0     H37329  -0.472   0.996   2.643  2.4247 -0.4674 -0.7416
  283MOL0     H37330  -0.661   1.128   2.448  0.7143  2.0130  2.3234
  283MOL0     H37331  -0.692   0.969   2.549  3.0524 -2.7691  1.5957
  283MOL0     H37332  -0.480   0.873   2.446  1.3317 -0.3248  1.0227
  283MOL0     H37333  -0.491   1.011   2.334  0.2564  0.1412  0.0021
  283MOL0     H37334  -0.714   0.812   2.368  2.7300 -4.5018 -0.4592
  283MOL0     H37335  -0.684   0.946   2.242  2.3022  0.3959 -0.7496
  283MOL0     H37336  -0.639   0.688   2.201  0.8836  0.3397  0.5102
  283MOL0     H37337  -0.495   0.717   2.294 -2.8481 -4.2693 -0.1701
  283MOL0     H37338  -0.070   1.257   3.048  2.1257  0.4017  1.0754
  283MOL0     H37339   0.157   1.218   2.995 -0.7031  2.9625  0.2440
  283MOL0     H37340   0.355   1.171   2.519 -0.8429  1.6706  2.1681
  283MOL0     H37341   0.539   1.185   2.373  0.4862  0.6204 -0.5401
  283MOL0     H37342   2.177   1.010   1.502 -2.6423 -2.1118 -0.9680
  283MOL0     H37343   2.335   0.937   1.335 -0.1416 -0.4956 -1.3835
  283MOL0     H37344   2.654   0.807   1.037 -2.3005 -1.3086 -1.4060
  283MOL0     H37345   2.822   0.793   0.859 -1.2074  0.2561 -1.2801
  283MOL0     H37346   2.947   0.857   0.525 -0.7905  0.2116 -0.4709
  283MOL0     H37347   2.879   0.770   0.654 -0.3525  1.1154 -0.1100
  283MOL0     H37348   3.039   0.857   0.817 -1.3726 -0.8747 -0.5822
  283MOL0     H37349   3.117   0.768   0.697  0.0808 -1.7874  2.4698
  283MOL0     H37350   3.229   0.984   0.745 -0.5658  2.2380  0.8642
  283MOL0     H37351   3.099   1.080   0.677  2.5030  0.3768  1.8631
  283MOL0     H37352   3.129   0.968   0.448 -1.1087  2.7470  0.1294
  283MOL0     H37353   3.270   1.066   0.508  0.5712 -0.3766 -2.4448
  283MOL0     H37354   3.408   0.668   0.470  0.3702  1.9054  0.6392
  283MOL0     H37355   2.682   1.157   0.699  2.6227  0.1601  1.4432
  283MOL0     H37356   2.512   1.183   0.871  2.5691  1.5670  1.2055
  284MOL0     O37357   4.523  10.862   9.114 -0.7686 -0.0842  0.3273
  284MOL0     C37358   4.603  10.849   9.211  0.1491  0.0828 -0.3630
  284MOL0     O37359   4.555  10.840   9.333  0.8400 -0.0641 -0.1092
  284MOL0     C37360   4.417  10.834   9.356 -0.4844 -0.2556  0.9806
  284MOL0     C37361   4.342  10.730   9.300 -0.5019 -0.6779 -0.4480
  284MOL0     C37362   4.205  10.720   9.335  0.6846  0.3928 -0.5036
  284MOL0     C37363   4.147  10.814   9.423 -0.1101 -0.2557 -0.4464
  284MOL0     O37364   4.010  10.818   9.449  0.2505  0.3566  0.5143
  284MOL0     C37365   3.963  10.735   9.560  0.7140  0.6867 -0.3233
  284MOL0     C37366   3.813  10.697   9.570 -0.0302  0.2890 -0.8698
  284MOL0     C37367   3.785  10.608   9.689  0.2467  0.6255 -0.4765
  284MOL0     C37368   3.641  10.622   9.745  0.0060  0.5356  0.1584
  284MOL0     C37369   3.595  10.514   9.846 -0.3635 -0.3902  0.1498
  284MOL0     C37370   3.583  10.373   9.798 -1.0279  0.4373  0.0057
  284MOL0     C37371   3.505  10.285   9.892 -0.3159 -0.1755  0.1170
  284MOL0     C37372   3.404  10.191   9.822 -0.0350  0.5899 -0.3544
  284MOL0     N37373   3.288  10.261   9.763 -0.4114 -0.1170 -0.3233
  284MOL0     C37374   3.257  10.266   9.632 -0.5669  0.3498  0.2737
  284MOL0     C37375   3.153  10.356   9.628 -1.0397 -0.6443  0.1920
  284MOL0     C37376   3.087  10.391   9.497  0.4674  0.1662  0.5323
  284MOL0     C37377   3.201  10.394   9.388  0.0852  0.0424  1.0043
  284MOL0     C37378   3.300  10.507   9.417  0.3417 -0.8744  0.2252
  284MOL0     C37379   3.433  10.509   9.352 -0.6185  0.2302  0.4836
  284MOL0     O37380   3.519  10.407   9.416  0.9507  0.6091 -0.1785
  284MOL0     C37381   3.650  10.389   9.383  0.3318  0.6505 -0.2200
  284MOL0     C37382   3.710  10.281   9.436  0.2826  0.1298 -0.4076
  284MOL0     C37383   3.845  10.247   9.415 -0.8709  0.7984  0.9309
  284MOL0     C37384   3.925  10.331   9.331  0.3553 -0.0685  0.5226
  284MOL0     C37385   4.065  10.295   9.299  0.5951 -0.0799  1.2768
  284MOL0     O37386   4.129  10.396   9.240 -0.4577  0.7366  0.2400
  284MOL0     C37387   4.264  10.386   9.222  0.6220 -1.1754 -1.1600
  284MOL0     C37388   4.363  10.372   9.326 -0.4283 -0.7954 -0.5346
  284MOL0     C37389   4.502  10.345   9.298  0.0356 -0.0427 -1.2705
  284MOL0     C37390   4.551  10.357   9.166 -0.5599 -0.5395  0.8788
  284MOL0     O37391   4.686  10.349   9.151 -0.3833  0.3239  1.0218
  284MOL0     C37392   4.744  10.327   9.028 -1.2801 -0.4714  0.5540
  284MOL0     C37393   4.891  10.318   9.046  0.0818 -0.4169  0.0641
  284MOL0     C37394   4.957  10.448   9.095 -0.5350 -0.3908  0.3188
  284MOL0     C37395   5.087  10.413   9.177 -0.5774  0.6389 -0.4510
  284MOL0     C37396   5.188  10.314   9.129  0.8784 -0.0516 -0.0411
  284MOL0     C37397   5.248  10.347   8.987 -0.3295  0.6259 -0.2489
  284MOL0     C37398   5.370  10.252   8.949 -0.2342  0.2741 -0.5052
  284MOL0     C37399   5.500  10.281   9.016  0.9389  0.8165  0.0506
  284MOL0    Cl37400   5.555  10.453   8.991 -0.0897  0.0199 -0.4403
  284MOL0     C37401   4.460  10.362   9.066 -0.2177  0.1548  0.7868
  284MOL0     C37402   4.318  10.384   9.094 -0.3290  0.0902  0.7211
  284MOL0     O37403   4.113  10.199   9.348 -0.1945  0.3122 -0.1729
  284MOL0     C37404   3.853  10.439   9.266 -0.2762  0.2328 -0.3873
  284MOL0     C37405   3.727  10.477   9.298  0.8634 -0.1183 -1.0595
  284MOL0     N37406   3.144  10.420   9.751  0.5206  0.1210  0.2275
  284MOL0     N37407   3.221  10.356   9.829  0.3139 -0.1315 -0.0617
  284MOL0     C37408   4.221  10.916   9.477 -0.5225  0.8389 -0.1505
  284MOL0     C37409   4.361  10.925   9.442 -0.1835  0.1552  0.1508
  284MOL0     C37410   4.748  10.849   9.188 -0.0430  0.5501  1.2364
  284MOL0     C37411   4.847  10.821   9.288  0.9784 -0.4521 -0.4537
  284MOL0     C37412   4.987  10.831   9.262  0.0765  0.3735 -0.0251
  284MOL0     C37413   5.030  10.848   9.135  0.3042  0.7626  0.3965
  284MOL0     O37414   5.163  10.833   9.116 -0.1491  0.0517 -0.6349
  284MOL0     C37415   5.219  10.812   8.982  0.1922  0.1572  1.0207
  284MOL0     C37416   5.354  10.744   8.984  0.0793 -0.2769  1.0294
  284MOL0     C37417   5.465  10.845   9.013  0.2460 -0.3112  0.5479
  284MOL0     C37418   5.604  10.797   9.010  0.2844 -0.5863  0.1366
  284MOL0     C37419   5.695  10.890   9.073  0.4824 -0.1671  0.2580
  284MOL0     C37420   5.769  10.976   9.128 -0.7117 -0.0781  0.0388
  284MOL0     C37421   4.934  10.876   9.034  0.5857 -0.3438 -0.4974
  284MOL0     C37422   4.792  10.875   9.058 -0.0366 -0.1321  0.0282
  284MOL0     H37423   4.384  10.659   9.229 -0.0068 -0.8795  0.0415
  284MOL0     H37424   4.146  10.641   9.291  0.0594  1.1214 -0.9828
  284MOL0     H37425   3.994  10.795   9.646  1.3200 -0.0533 -0.0132
  284MOL0     H37426   4.026  10.646   9.570  1.6244  1.4861  1.6460
  284MOL0     H37427   3.778  10.634   9.488  1.8925 -0.4669 -1.1673
  284MOL0     H37428   3.755  10.787   9.593 -2.0442 -1.8312  3.5378
  284MOL0     H37429   3.853  10.642   9.768 -1.9991  2.2485  0.8519
  284MOL0     H37430   3.818  10.506   9.664  1.8432  0.8484  0.5623
  284MOL0     H37431   3.648  10.717   9.797 -0.1410  1.0673 -0.7708
  284MOL0     H37432   3.567  10.618   9.663  1.5770 -1.0885 -1.2660
  284MOL0     H37433   3.493  10.542   9.874 -1.4175 -2.9949 -0.7921
  284MOL0     H37434   3.648  10.511   9.942 -0.7997  1.0110  0.4499
  284MOL0     H37435   3.685  10.336   9.786 -1.2122 -1.0103  2.2459
  284MOL0     H37436   3.531  10.384   9.702  0.1024  0.0390 -0.6638
  284MOL0     H37437   3.578  10.223   9.944  1.3299 -0.2507 -2.1572
  284MOL0     H37438   3.443  10.344   9.960 -2.2267  2.0476 -3.2252
  284MOL0     H37439   3.374  10.117   9.896 -1.1929  3.4803  2.2844
  284MOL0     H37440   3.444  10.134   9.737  0.3591  0.0668  0.1767
  284MOL0     H37441   3.305  10.220   9.546 -0.3907  2.2720 -0.6984
  284MOL0     H37442   3.039  10.488   9.511 -0.9668 -0.5682  0.8153
  284MOL0     H37443   3.014  10.315   9.469  0.4369  0.2344  0.4271
  284MOL0     H37444   3.156  10.406   9.289 -2.0636 -3.7259  1.3332
  284MOL0     H37445   3.255  10.299   9.384  0.0846  0.0817 -0.1707
  284MOL0     H37446   3.258  10.604   9.386  4.3161  1.0689  0.2466
  284MOL0     H37447   3.315  10.511   9.525 -0.1773 -1.6175  0.3326
  284MOL0     H37448   3.480  10.607   9.365 -1.2292  0.5928 -0.0252
  284MOL0     H37449   3.421  10.484   9.246 -1.8014 -2.7042  1.1919
  284MOL0     H37450   3.649  10.211   9.493  1.5529 -0.6758 -0.0012
  284MOL0     H37451   3.897  10.163   9.460  0.5281  0.1898 -1.6432
  284MOL0     H37452   4.330  10.358   9.429 -1.0781  0.6262 -0.5364
  284MOL0     H37453   4.566  10.316   9.381 -2.0268 -2.3997 -0.4095
  284MOL0     H37454   4.720  10.411   8.961 -2.4682 -0.8249  0.5056
  284MOL0     H37455   4.699  10.242   8.975 -2.9625  1.4706 -1.3230
  284MOL0     H37456   4.936  10.287   8.951  0.5271  2.0722 -0.6139
  284MOL0     H37457   4.912  10.244   9.124 -0.6815 -0.3596  0.3402
  284MOL0     H37458   4.896  10.525   9.141 -0.1504 -1.2528  2.3706
  284MOL0     H37459   4.988  10.491   8.999  0.1662 -1.7417 -0.0905
  284MOL0     H37460   5.143  10.506   9.188  0.8324 -0.2262 -0.0663
  284MOL0     H37461   5.055  10.384   9.277 -1.3867  1.2584 -0.5219
  284MOL0     H37462   5.141  10.216   9.120 -0.5494  0.7023 -1.1673
  284MOL0     H37463   5.267  10.299   9.204 -0.0615 -0.6030  0.8705
  284MOL0     H37464   5.268  10.454   8.976 -0.7396  0.5183 -2.4597
  284MOL0     H37465   5.181  10.320   8.905  0.4973  1.3085 -1.1758
  284MOL0     H37466   5.340  10.147   8.957 -1.7513  0.7002 -0.0977
  284MOL0     H37467   5.381  10.265   8.841 -1.0158  0.2426 -0.5978
  284MOL0     H37468   5.574  10.216   8.969  1.1143  0.1470  1.2288
  284MOL0     H37469   5.498  10.252   9.121 -2.7603  1.2313  0.2404
  284MOL0     H37470   4.489  10.379   8.963 -1.5623  1.1053  0.5357
  284MOL0     H37471   4.255  10.399   9.008  0.8634  2.2594  0.1405
  284MOL0     H37472   3.902  10.498   9.190 -0.1697 -0.3108 -0.7501
  284MOL0     H37473   3.680  10.568   9.265  0.6118  0.1310 -0.0488
  284MOL0     H37474   4.192  10.986   9.555 -0.4656  1.0276 -0.2987
  284MOL0     H37475   4.422  11.003   9.486  0.1847 -0.6669  1.1418
  284MOL0     H37476   4.801  10.797   9.383  3.0813  0.9021  0.9756
  284MOL0     H37477   5.062  10.803   9.335 -2.6388 -1.8516  2.1712
  284MOL0     H37478   5.210  10.896   8.913 -0.2616 -1.8298 -1.5058
  284MOL0     H37479   5.158  10.735   8.933  0.3887 -0.2546  1.4158
  284MOL0     H37480   5.344  10.664   9.057  0.6553  0.6513  2.1597
  284MOL0     H37481   5.387  10.704   8.888  0.7873  0.3615  0.9952
  284MOL0     H37482   5.440  10.880   9.114  1.6250 -1.5881  1.3691
  284MOL0     H37483   5.450  10.922   8.936  2.2213 -0.2855  0.1211
  284MOL0     H37484   5.609  10.700   9.062  3.5888 -0.6703 -0.1589
  284MOL0     H37485   5.637  10.784   8.906  1.4036  4.4378 -0.3749
  284MOL0     H37486   5.835  11.042   9.182 -0.0562 -0.4426 -0.3012
  284MOL0     H37487   4.964  10.896   8.931 -0.2239 -0.6024 -0.7933
  284MOL0     H37488   4.727  10.878   8.971 -0.5663 -1.7114  0.3292
  285MOL0     O37489  10.867   5.248   1.211 -0.2865 -0.1925  0.5984
  285MOL0     C37490  10.771   5.260   1.130  0.1551 -0.3380  0.3585
  285MOL0     O37491  10.647   5.291   1.164  0.0770  0.3718 -0.4087
  285MOL0     C37492  10.618   5.292   1.296  0.4531 -0.3547 -0.2496
  285MOL0     C37493  10.527   5.200   1.353  0.6578 -0.5055  0.2054
  285MOL0     C37494  10.483   5.209   1.490 -0.1453  0.2473  0.2908
  285MOL0     C37495  10.547   5.307   1.568  0.6853 -0.1201  0.1901
  285MOL0     O37496  10.527   5.315   1.698 -0.5485 -0.5804  0.6670
  285MOL0     C37497  10.430   5.406   1.747  0.1390 -0.4759  0.1650
  285MOL0     C37498  10.494   5.490   1.859 -0.0488 -0.1062  0.1898
  285MOL0     C37499  10.384   5.561   1.942  0.2373 -0.4324  0.6489
  285MOL0     C37500  10.442   5.610   2.076  0.8016 -0.0384 -0.7854
  285MOL0     C37501  10.355   5.715   2.150 -0.8579 -0.1094 -0.0265
  285MOL0     C37502  10.239   5.652   2.230  0.4026 -0.1741  0.2312
  285MOL0     C37503  10.159   5.767   2.286 -0.0594  0.4903  0.1348
  285MOL0     C37504  10.069   5.821   2.164 -0.5383  0.1496 -0.1076
  285MOL0     N37505   9.924   5.819   2.190  0.0147 -0.2227  0.0998
  285MOL0     C37506   9.862   5.719   2.266 -0.4298 -0.0772  1.0770
  285MOL0     C37507   9.731   5.745   2.268 -0.1063 -0.2236  0.5751
  285MOL0     C37508   9.635   5.652   2.346 -0.4642 -0.6988  0.0449
  285MOL0     C37509   9.494   5.699   2.366 -0.3337 -0.7002  0.4643
  285MOL0     C37510   9.418   5.595   2.439 -0.4661 -0.1145  0.0317
  285MOL0     C37511   9.271   5.640   2.426 -0.7726  0.1600  0.6073
  285MOL0     O37512   9.201   5.580   2.534  0.4454 -0.1214  0.2580
  285MOL0     C37513   9.066   5.586   2.532 -0.5344 -0.2708  0.1745
  285MOL0     C37514   9.010   5.497   2.628 -0.6024  0.5236 -0.0410
  285MOL0     C37515   8.876   5.498   2.656  0.8541  1.0437  0.6298
  285MOL0     C37516   8.787   5.584   2.586  0.3266  0.0947  0.2892
  285MOL0     C37517   8.647   5.582   2.619 -0.3997 -0.4725  0.0562
  285MOL0     O37518   8.562   5.636   2.524 -0.4232  0.7232  0.1320
  285MOL0     C37519   8.431   5.650   2.546  0.0698  0.4160 -0.4376
  285MOL0     C37520   8.340   5.552   2.562  0.1850  0.4381 -0.2984
  285MOL0     C37521   8.206   5.568   2.579 -0.4419 -0.2667  0.3349
  285MOL0     C37522   8.158   5.700   2.559  0.2465  1.3002  0.1763
  285MOL0     O37523   8.019   5.721   2.561  0.6778  0.3907  0.0516
  285MOL0     C37524   7.940   5.644   2.654 -0.0107  0.2044  1.0115
  285MOL0     C37525   7.819   5.723   2.690  0.3702 -1.3288  0.2643
  285MOL0     C37526   7.720   5.657   2.783  0.0474 -0.2805 -0.1730
  285MOL0     C37527   7.599   5.752   2.814  0.2174  0.3872  0.8746
  285MOL0     C37528   7.484   5.668   2.853  0.9873  0.3452  0.1768
  285MOL0     C37529   7.356   5.748   2.892 -0.7224 -0.0757  0.2299
  285MOL0     C37530   7.247   5.653   2.941  0.3940 -0.4597  1.0310
  285MOL0     C37531   7.144   5.738   3.018 -0.3775 -0.0226  0.0314
  285MOL0    Cl37532   7.003   5.623   3.042  0.0251 -0.4154  0.1139
  285MOL0     C37533   8.239   5.807   2.527  0.0694  0.4307 -1.4501
  285MOL0     C37534   8.376   5.778   2.517  0.5804 -0.5842  0.1580
  285MOL0     O37535   8.606   5.538   2.725 -0.2352 -0.4233 -0.3876
  285MOL0     C37536   8.843   5.666   2.487 -0.8293 -0.2309  0.4217
  285MOL0     C37537   8.984   5.672   2.455  0.2089  0.5456 -0.2741
  285MOL0     N37538   9.710   5.856   2.194 -0.8743 -0.2458 -0.2739
  285MOL0     N37539   9.825   5.909   2.151  1.1111 -0.4350  0.7174
  285MOL0     C37540  10.632   5.400   1.514 -1.0071  1.0832  0.7716
  285MOL0     C37541  10.660   5.405   1.376 -0.9056  0.8641  0.8615
  285MOL0     C37542  10.803   5.255   0.984 -0.1716  0.2941 -0.0766
  285MOL0     C37543  10.738   5.335   0.891 -0.2515  0.3169 -0.1030
  285MOL0     C37544  10.748   5.317   0.748  0.2083 -0.1322  0.0045
  285MOL0     C37545  10.855   5.234   0.702  0.0991  0.0805  0.6667
  285MOL0     O37546  10.884   5.214   0.562 -0.1253  0.2721 -0.2149
  285MOL0     C37547  10.805   5.271   0.455  0.4447  0.7338  0.0254
  285MOL0     C37548  10.683   5.183   0.444  0.2169  0.6697  0.4919
  285MOL0     C37549  10.607   5.223   0.312 -0.5367 -0.5327 -0.2124
  285MOL0     C37550  10.477   5.149   0.294 -0.6931 -0.4128  0.3256
  285MOL0     C37551  10.379   5.165   0.410 -0.1110  0.1998  0.8498
  285MOL0     C37552  10.296   5.188   0.500 -0.5465  0.5986 -0.3160
  285MOL0     C37553  10.930   5.177   0.799 -0.9275 -0.2168  0.4676
  285MOL0     C37554  10.910   5.183   0.939 -0.0193  0.2322 -0.1696
  285MOL0     H37555  10.483   5.136   1.277 -3.0771  0.9687  0.8865
  285MOL0     H37556  10.423   5.127   1.529 -0.1463  0.1070  0.0000
  285MOL0     H37557  10.337   5.352   1.769  0.3568 -1.5369 -1.3410
  285MOL0     H37558  10.398   5.476   1.670  2.3114  0.6230  0.1997
  285MOL0     H37559  10.555   5.557   1.798 -1.7031 -0.5198 -2.0641
  285MOL0     H37560  10.549   5.428   1.931  0.3628  1.4063  1.2176
  285MOL0     H37561  10.302   5.490   1.955  1.2793 -1.4816  1.6587
  285MOL0     H37562  10.343   5.634   1.871 -0.3790 -1.9056 -0.5547
  285MOL0     H37563  10.451   5.520   2.137 -3.0183 -0.3265 -0.3668
  285MOL0     H37564  10.536   5.660   2.055  0.4782  1.3303  0.8546
  285MOL0     H37565  10.312   5.774   2.069 -0.2613 -0.7710 -0.8466
  285MOL0     H37566  10.419   5.770   2.220 -0.5037 -0.8727  0.2660
  285MOL0     H37567  10.276   5.601   2.319 -1.0541 -0.7545  0.5283
  285MOL0     H37568  10.177   5.581   2.176  0.7898 -0.5604  0.2926
  285MOL0     H37569  10.093   5.739   2.369 -1.8352  2.8792 -0.3363
  285MOL0     H37570  10.224   5.842   2.331  0.7633 -0.9217  1.3903
  285MOL0     H37571  10.088   5.753   2.081  0.0930 -0.9270  0.8960
  285MOL0     H37572  10.093   5.924   2.133  0.6617 -0.5432 -1.6315
  285MOL0     H37573   9.902   5.635   2.321 -3.7153 -1.1636  2.0613
  285MOL0     H37574   9.678   5.609   2.437 -1.0197 -0.7171  0.3024
  285MOL0     H37575   9.621   5.562   2.285  1.1457 -0.3023 -0.9669
  285MOL0     H37576   9.456   5.726   2.267  0.9837 -0.3304  0.0324
  285MOL0     H37577   9.507   5.789   2.427  1.4215 -0.5508 -0.0634
  285MOL0     H37578   9.423   5.494   2.398  1.8988  0.6347 -1.7401
  285MOL0     H37579   9.457   5.592   2.541 -4.3914  0.5622  1.7549
  285MOL0     H37580   9.231   5.604   2.331  3.1754 -0.5527 -0.9883
  285MOL0     H37581   9.263   5.749   2.419 -0.5341  0.1204 -0.4596
  285MOL0     H37582   9.075   5.440   2.694  0.1752  1.1206 -0.2810
  285MOL0     H37583   8.835   5.433   2.733  2.8026 -0.8239  0.2172
  285MOL0     H37584   8.381   5.452   2.567 -3.7191 -1.4289 -1.7106
  285MOL0     H37585   8.142   5.482   2.598 -1.3979  1.0389  3.7870
  285MOL0     H37586   7.997   5.628   2.745  0.7462  3.3581  1.2210
  285MOL0     H37587   7.905   5.553   2.605  0.8401  0.7166 -0.6368
  285MOL0     H37588   7.761   5.747   2.600  1.4230 -0.3445 -0.1683
  285MOL0     H37589   7.851   5.820   2.728  1.3354 -1.4166 -0.3004
  285MOL0     H37590   7.762   5.638   2.882  1.2235  1.3169 -0.3279
  285MOL0     H37591   7.687   5.565   2.735 -1.3555 -0.0949  0.3875
  285MOL0     H37592   7.619   5.831   2.887  0.1909  1.3069 -0.0700
  285MOL0     H37593   7.569   5.804   2.722 -2.4069 -1.6074  0.5016
  285MOL0     H37594   7.511   5.609   2.941  1.2936 -0.8062 -0.6786
  285MOL0     H37595   7.459   5.604   2.768  0.2181 -0.1946  0.7924
  285MOL0     H37596   7.320   5.802   2.804 -0.7384  1.0694  0.9121
  285MOL0     H37597   7.385   5.828   2.961 -0.0828 -0.4961  0.4559
  285MOL0     H37598   7.206   5.596   2.857  1.3045  0.6072 -0.1879
  285MOL0     H37599   7.295   5.586   3.012  1.6612  0.5854  1.2056
  285MOL0     H37600   7.115   5.818   2.949 -0.4305  1.3060  1.5076
  285MOL0     H37601   7.186   5.779   3.111 -1.8494  2.1706 -0.1713
  285MOL0     H37602   8.199   5.906   2.510 -2.1773  0.2217  1.7496
  285MOL0     H37603   8.452   5.852   2.496 -0.0637 -0.0282 -0.2717
  285MOL0     H37604   8.776   5.735   2.437  0.1817  0.1195 -0.4812
  285MOL0     H37605   9.014   5.751   2.386 -0.7529  1.6190  0.5041
  285MOL0     H37606  10.666   5.477   1.582 -1.5859  0.2416  2.0431
  285MOL0     H37607  10.716   5.481   1.323 -1.2949 -0.2525 -1.2906
  285MOL0     H37608  10.658   5.400   0.924  0.3306  1.5730 -1.0596
  285MOL0     H37609  10.687   5.379   0.684  1.5931  2.0079  0.6576
  285MOL0     H37610  10.862   5.259   0.362  1.4024 -0.0896  0.6913
  285MOL0     H37611  10.771   5.374   0.463  2.1478  1.3961 -0.6493
  285MOL0     H37612  10.708   5.077   0.440  0.5770  0.7521  0.4592
  285MOL0     H37613  10.612   5.185   0.527  0.9749 -0.0169  1.1627
  285MOL0     H37614  10.678   5.216   0.229  1.1117  0.8532  1.0043
  285MOL0     H37615  10.579   5.329   0.318  0.3476 -0.3063  0.1324
  285MOL0     H37616  10.423   5.185   0.206  1.3217  0.8616 -0.4620
  285MOL0     H37617  10.496   5.042   0.279 -1.2214 -0.4346 -0.2149
  285MOL0     H37618  10.218   5.220   0.566 -1.2111 -0.6246 -0.4702
  285MOL0     H37619  11.014   5.117   0.763 -1.5721  0.2737 -2.0123
  285MOL0     H37620  10.979   5.134   1.008 -0.1623  0.0850 -0.1314
  286MOL0     O37621   8.180   2.926  10.698  0.2682  0.0476 -0.2895
  286MOL0     C37622   8.243   3.006  10.765 -0.3658 -0.7072  0.0783
  286MOL0     O37623   8.190   3.107  10.844  0.3633 -0.2447  0.0219
  286MOL0     C37624   8.056   3.123  10.849 -0.2718 -0.5678 -1.0079
  286MOL0     C37625   8.013   3.246  10.813  0.4511 -0.7484 -0.2627
  286MOL0     C37626   7.880   3.276  10.825  0.3509 -0.6002  0.3300
  286MOL0     C37627   7.788   3.181  10.876 -0.0274 -0.6001  0.9285
  286MOL0     O37628   7.648   3.197  10.894 -0.2811  0.2247  0.6978
  286MOL0     C37629   7.579   3.319  10.864  1.1140  0.4622 -0.2102
  286MOL0     C37630   7.431   3.308  10.910 -0.7669  0.8910  0.2655
  286MOL0     C37631   7.365   3.205  10.819 -0.0921 -0.1336  0.0187
  286MOL0     C37632   7.231   3.153  10.880  0.5654 -0.3731 -0.3444
  286MOL0     C37633   7.116   3.245  10.907 -0.0941  0.3056  0.3503
  286MOL0     C37634   7.091   3.341  10.786 -0.2688 -0.4731 -0.4096
  286MOL0     C37635   6.955   3.413  10.790 -0.3863  0.1613  0.0704
  286MOL0     C37636   6.934   3.483  10.658  0.4897 -0.2470  0.6417
  286MOL0     N37637   6.804   3.553  10.653 -0.2976  0.1859 -0.3220
  286MOL0     C37638   6.693   3.499  10.589 -0.7869 -0.2530  0.4593
  286MOL0     C37639   6.593   3.595  10.594 -0.3743 -0.6443  0.2872
  286MOL0     C37640   6.467   3.575  10.511  0.1409 -0.9319 -0.3228
  286MOL0     C37641   6.490   3.639  10.372 -0.5505  0.2406 -1.2165
  286MOL0     C37642   6.537   3.791  10.356  0.3781  0.0577 -0.1899
  286MOL0     C37643   6.464   3.882  10.453 -0.8843 -0.4446  0.0688
  286MOL0     O37644   6.467   4.018  10.399  0.4726 -0.7894 -0.1487
  286MOL0     C37645   6.368   4.106  10.436 -0.4857  0.3772  0.3125
  286MOL0     C37646   6.291   4.090  10.550 -0.6669  0.5548 -0.1741
  286MOL0     C37647   6.183   4.177  10.573 -0.0019 -0.5676  0.2327
  286MOL0     C37648   6.148   4.290  10.487 -0.2073  0.4805 -0.1864
  286MOL0     C37649   6.023   4.371  10.512  0.1541  0.0144  0.2437
  286MOL0     O37650   6.017   4.499  10.452  0.7457  0.6857  0.0866
  286MOL0     C37651   5.906   4.576  10.477  0.0585  0.0135 -0.8026
  286MOL0     C37652   5.776   4.536  10.444  0.0272 -0.5298  0.3105
  286MOL0     C37653   5.673   4.616  10.480  0.8676 -1.1595  0.0988
  286MOL0     C37654   5.696   4.739  10.546 -0.3936 -0.0898 -0.6269
  286MOL0     O37655   5.601   4.830  10.579 -0.9571 -0.3587  0.0390
  286MOL0     C37656   5.472   4.815  10.528 -0.2938  0.2381  0.0956
  286MOL0     C37657   5.394   4.937  10.579 -0.1510  1.1322  1.0457
  286MOL0     C37658   5.250   4.914  10.534 -0.5141 -0.4343 -0.7118
  286MOL0     C37659   5.165   5.037  10.523 -0.2632  0.9499 -0.2586
  286MOL0     C37660   5.021   4.995  10.482 -0.5462  0.4782 -0.1241
  286MOL0     C37661   4.943   5.125  10.474 -0.7317 -0.0842 -0.1760
  286MOL0     C37662   4.799   5.099  10.450  0.6938  0.1536  0.1349
  286MOL0     C37663   4.737   5.216  10.372  0.5608  0.7253  0.4395
  286MOL0    Cl37664   4.811   5.222  10.210  0.1313 -0.1852 -0.5473
  286MOL0     C37665   5.821   4.788  10.580 -0.9090  0.7585  0.5356
  286MOL0     C37666   5.930   4.708  10.536  0.8460 -0.1761 -0.0654
  286MOL0     O37667   5.937   4.328  10.591 -0.2708  0.5680  0.2606
  286MOL0     C37668   6.227   4.297  10.375 -0.2626  0.0713 -0.9773
  286MOL0     C37669   6.341   4.212  10.354 -0.0358  1.0212 -0.5450
  286MOL0     N37670   6.629   3.691  10.692 -0.5497 -0.9126 -0.0702
  286MOL0     N37671   6.758   3.659  10.723  0.3151  0.4683 -0.5480
  286MOL0     C37672   7.833   3.052  10.910  1.1777  0.0333 -0.6637
  286MOL0     C37673   7.966   3.025  10.895 -0.1015 -0.0369  0.2786
  286MOL0     C37674   8.394   2.999  10.780  0.0177  0.6792  0.5844
  286MOL0     C37675   8.462   3.086  10.866 -0.9010 -0.3553  0.4796
  286MOL0     C37676   8.599   3.081  10.873  0.5994  0.4607 -0.0901
  286MOL0     C37677   8.673   2.989  10.799 -0.1297  0.5094 -0.0749
  286MOL0     O37678   8.813   2.977  10.812 -0.2099  0.7039  0.3653
  286MOL0     C37679   8.853   2.843  10.810  0.3532 -0.4873  0.4863
  286MOL0     C37680   9.004   2.836  10.844 -0.3966  0.8885 -0.3697
  286MOL0     C37681   9.039   2.866  10.987 -0.1516 -0.0071 -0.0823
  286MOL0     C37682   8.986   2.761  11.095  0.6718  0.2162 -0.3478
  286MOL0     C37683   9.054   2.631  11.100  0.2316  0.1157  0.0367
  286MOL0     C37684   9.119   2.526  11.081 -0.6179  0.0397 -0.0659
  286MOL0     C37685   8.595   2.910  10.708  0.1252 -0.2049  0.2309
  286MOL0     C37686   8.459   2.917  10.693  0.3849  0.7697 -0.3388
  286MOL0     H37687   8.084   3.322  10.781 -0.2947  0.6942  1.3199
  286MOL0     H37688   7.848   3.376  10.797  2.0030  0.4129  1.8380
  286MOL0     H37689   7.579   3.328  10.755 -0.2883 -0.1263 -0.2871
  286MOL0     H37690   7.626   3.402  10.917  1.0846 -0.4468  1.3006
  286MOL0     H37691   7.373   3.400  10.896  1.7915  2.8373  1.5245
  286MOL0     H37692   7.446   3.283  11.015 -1.5226  2.5217  0.8067
  286MOL0     H37693   7.423   3.112  10.810 -0.6385 -0.6819  1.7701
  286MOL0     H37694   7.357   3.248  10.719 -0.1973  0.3849  0.2483
  286MOL0     H37695   7.194   3.079  10.808  1.4706 -0.6679 -0.5186
  286MOL0     H37696   7.265   3.113  10.976  2.3532 -0.4720 -0.9722
  286MOL0     H37697   7.136   3.323  10.982 -1.4484 -0.7924  1.9580
  286MOL0     H37698   7.027   3.191  10.942 -0.6417  0.4959 -0.7310
  286MOL0     H37699   7.090   3.269  10.704 -1.8663  0.3317 -1.1333
  286MOL0     H37700   7.168   3.418  10.777 -0.1357 -0.2009  2.1929
  286MOL0     H37701   6.875   3.340  10.807 -0.0590 -0.9048 -2.5496
  286MOL0     H37702   6.962   3.490  10.868  0.4180  1.0411 -0.8466
  286MOL0     H37703   6.931   3.400  10.586 -1.5048 -0.3899  0.8286
  286MOL0     H37704   7.011   3.557  10.637  0.4891 -1.0253 -2.6992
  286MOL0     H37705   6.682   3.403  10.539 -1.9749 -0.8102  1.7482
  286MOL0     H37706   6.386   3.630  10.560  2.3790  1.7229  0.6760
  286MOL0     H37707   6.443   3.470  10.495 -2.4809 -0.4516  0.0174
  286MOL0     H37708   6.393   3.637  10.323 -1.1707 -1.5511  0.0013
  286MOL0     H37709   6.554   3.577  10.309 -0.8685 -2.7011  1.1054
  286MOL0     H37710   6.644   3.793  10.380  0.1016 -0.5482  1.1974
  286MOL0     H37711   6.514   3.813  10.251 -0.3646 -0.0191 -0.0474
  286MOL0     H37712   6.522   3.878  10.546  1.4168 -1.2383 -1.2958
  286MOL0     H37713   6.366   3.847  10.483 -1.4969 -0.5048 -1.8371
  286MOL0     H37714   6.317   4.021  10.630  0.0484  3.2508  2.0460
  286MOL0     H37715   6.119   4.172  10.661 -3.7738  2.9993 -1.9009
  286MOL0     H37716   5.755   4.439  10.401 -0.4111 -0.3140  0.0313
  286MOL0     H37717   5.570   4.588  10.461 -1.0339  2.9286  2.9342
  286MOL0     H37718   5.437   4.716  10.560 -0.6623  0.2411 -0.2900
  286MOL0     H37719   5.471   4.821  10.419 -2.6169  2.2611  0.1480
  286MOL0     H37720   5.427   5.028  10.528 -2.6260  2.3391  1.4400
  286MOL0     H37721   5.394   4.947  10.688 -1.1399 -2.1217  1.4662
  286MOL0     H37722   5.208   4.843  10.607 -2.0461  0.7294 -0.3981
  286MOL0     H37723   5.249   4.857  10.441  1.9748 -1.6630 -0.0593
  286MOL0     H37724   5.165   5.083  10.622 -0.3190 -0.9925  0.6932
  286MOL0     H37725   5.202   5.103  10.444 -1.0158  0.3259 -1.1574
  286MOL0     H37726   4.976   4.937  10.563  1.3491  0.9469  1.3379
  286MOL0     H37727   5.011   4.947  10.384  1.1541  0.2786 -0.2213
  286MOL0     H37728   4.995   5.192  10.404 -0.6799 -1.1854 -1.2172
  286MOL0     H37729   4.947   5.172  10.573 -1.9882 -0.6405  0.1663
  286MOL0     H37730   4.791   5.001  10.401 -0.1665 -0.1625  0.8681
  286MOL0     H37731   4.758   5.088  10.551  3.6227 -5.4271  1.1532
  286MOL0     H37732   4.744   5.307  10.432  2.8720 -0.0045  1.4145
  286MOL0     H37733   4.630   5.201  10.360  0.1636  1.7864  2.2803
  286MOL0     H37734   5.831   4.888  10.620 -0.9717 -0.0369  2.7403
  286MOL0     H37735   6.030   4.745  10.556  1.3551 -1.9729  0.9856
  286MOL0     H37736   6.214   4.384  10.310 -0.5559  0.5824 -0.2518
  286MOL0     H37737   6.411   4.221  10.271  1.1642 -1.9157  0.0125
  286MOL0     H37738   7.774   2.971  10.953 -1.9252  2.2787 -0.3967
  286MOL0     H37739   8.004   2.928  10.924 -1.9393 -1.0539 -0.5845
  286MOL0     H37740   8.426   3.168  10.927  0.2672  1.1983 -0.8177
  286MOL0     H37741   8.656   3.144  10.941  1.4493  1.0219 -1.2822
  286MOL0     H37742   8.834   2.808  10.708 -0.7999 -2.3489  1.2812
  286MOL0     H37743   8.788   2.792  10.881 -0.4587 -2.3279 -1.4613
  286MOL0     H37744   9.043   2.738  10.816  0.0888  0.9373  0.1274
  286MOL0     H37745   9.066   2.902  10.783 -0.5596  1.3175 -0.0792
  286MOL0     H37746   8.993   2.961  11.017  2.0241  1.5108 -1.3225
  286MOL0     H37747   9.147   2.879  11.000 -0.5984  2.2840  2.2103
  286MOL0     H37748   8.978   2.813  11.191 -0.1403  1.9236 -1.2962
  286MOL0     H37749   8.885   2.737  11.059  0.7761  0.4914 -0.8413
  286MOL0     H37750   9.173   2.435  11.069 -0.0573  0.6436 -2.6479
  286MOL0     H37751   8.633   2.832  10.642 -1.1618 -0.3660 -0.3365
  286MOL0     H37752   8.405   2.838  10.641  1.5426 -0.4064  0.1876
  287MOL0     O37753   4.123  10.894   0.871 -0.3502  0.9244 -1.1181
  287MOL0     C37754   4.119  10.859   0.754 -0.3712  0.6589 -0.6268
  287MOL0     O37755   4.002  10.854   0.679  0.0947  0.0381 -0.2714
  287MOL0     C37756   3.882  10.906   0.725 -0.0063  0.2134 -0.4958
  287MOL0     C37757   3.766  10.833   0.708  0.4085 -0.1010 -0.4104
  287MOL0     C37758   3.636  10.876   0.746  0.5663 -0.3553  0.1157
  287MOL0     C37759   3.622  11.006   0.800  0.0035  0.0544 -0.1636
  287MOL0     O37760   3.503  11.058   0.836 -0.0418  0.0821 -0.2934
  287MOL0     C37761   3.496  11.093   0.973  0.1151  0.0975 -0.4976
  287MOL0     C37762   3.353  11.155   1.000 -0.6121 -0.5988  0.9302
  287MOL0     C37763   3.318  11.142   1.145  0.8965  0.2123 -0.5820
  287MOL0     C37764   3.173  11.187   1.159  0.1139  0.4324 -0.3296
  287MOL0     C37765   3.136  11.159   1.310 -0.2050 -0.3881 -0.3658
  287MOL0     C37766   3.012  11.239   1.352  0.0869 -0.2299 -0.1616
  287MOL0     C37767   2.886  11.206   1.276 -0.0854 -0.6192 -0.5889
  287MOL0     C37768   2.831  11.069   1.311 -0.4868  0.7581 -0.1005
  287MOL0     N37769   2.776  11.068   1.440 -0.5853 -0.2635  0.0853
  287MOL0     C37770   2.659  11.125   1.478  1.0911 -0.7963 -0.4041
  287MOL0     C37771   2.661  11.117   1.615  0.0501  0.2957  0.6760
  287MOL0     C37772   2.558  11.165   1.713  0.1865 -0.4436  0.8366
  287MOL0     C37773   2.425  11.081   1.713 -0.6014  1.2192 -0.4835
  287MOL0     C37774   2.325  11.138   1.814 -0.4668  0.2358  0.2260
  287MOL0     C37775   2.204  11.048   1.827  0.1951 -0.2819 -0.4420
  287MOL0     O37776   2.111  11.138   1.893  0.7402 -0.4156 -0.1757
  287MOL0     C37777   1.984  11.089   1.918  0.0599  0.2041  1.2914
  287MOL0     C37778   1.936  10.964   1.872 -1.4174  0.5223  0.2438
  287MOL0     C37779   1.810  10.914   1.923 -0.7079 -0.6739 -0.0940
  287MOL0     C37780   1.735  10.988   2.012 -0.1092  0.2280  0.2420
  287MOL0     C37781   1.610  10.939   2.068 -0.2151  0.3421  0.3536
  287MOL0     O37782   1.521  10.863   1.994 -0.3508 -0.2247 -0.2331
  287MOL0     C37783   1.398  10.860   2.055  0.0242 -0.3084  0.4759
  287MOL0     C37784   1.330  10.742   2.053 -0.3589  0.5432  0.0134
  287MOL0     C37785   1.215  10.720   2.131 -0.1335 -0.1068 -0.9505
  287MOL0     C37786   1.140  10.828   2.185 -0.7711  0.3975  0.1760
  287MOL0     O37787   1.015  10.831   2.245 -1.2146 -0.8026 -0.0227
  287MOL0     C37788   0.942  10.706   2.247  0.3851  0.8526 -0.4321
  287MOL0     C37789   0.874  10.666   2.119  0.4233  0.5017  0.4203
  287MOL0     C37790   0.816  10.522   2.131  0.0377 -0.8422  0.7509
  287MOL0     C37791   0.745  10.474   2.004 -0.1359 -0.1649 -0.2465
  287MOL0     C37792   0.678  10.337   2.021  1.2496 -0.3247 -0.2154
  287MOL0     C37793   0.531  10.350   2.047 -0.1828  0.7135 -0.5287
  287MOL0     C37794   0.458  10.210   2.055 -0.0807  0.1461  0.2754
  287MOL0     C37795   0.412  10.174   1.914 -0.4675 -0.0532 -0.3555
  287MOL0    Cl37796   0.230  10.173   1.888  0.6610 -0.3259 -0.2562
  287MOL0     C37797   1.205  10.948   2.177  0.0739  0.0608  0.3388
  287MOL0     C37798   1.332  10.966   2.122 -0.4529  0.1528 -0.6055
  287MOL0     O37799   1.607  10.946   2.186 -0.4823 -0.3104 -0.8204
  287MOL0     C37800   1.780  11.116   2.045 -0.3365 -0.5903 -0.3482
  287MOL0     C37801   1.901  11.168   2.000  0.3971 -1.1654 -0.6675
  287MOL0     N37802   2.776  11.057   1.655 -1.0628 -0.7574  0.2050
  287MOL0     N37803   2.845  11.024   1.548  0.3271  0.3042 -0.5187
  287MOL0     C37804   3.740  11.086   0.808  0.3336  0.8234 -0.1233
  287MOL0     C37805   3.866  11.037   0.770 -0.0917  0.1377  0.9153
  287MOL0     C37806   4.243  10.789   0.700  0.9723 -0.2871  0.5592
  287MOL0     C37807   4.347  10.738   0.783 -0.3224  0.3302 -0.3275
  287MOL0     C37808   4.464  10.683   0.730 -0.1268 -0.0825 -0.6170
  287MOL0     C37809   4.477  10.672   0.589  0.2294  0.1706  0.2344
  287MOL0     O37810   4.589  10.607   0.545 -0.0696  0.3981  0.1172
  287MOL0     C37811   4.634  10.627   0.411  0.4085  0.6764  0.8389
  287MOL0     C37812   4.760  10.548   0.367 -0.3206  0.6214 -0.3685
  287MOL0     C37813   4.869  10.577   0.470  0.5895 -0.1002  0.0345
  287MOL0     C37814   4.989  10.477   0.459  0.2529 -0.3449  0.2634
  287MOL0     C37815   5.057  10.465   0.594  0.3733  0.1765 -0.0499
  287MOL0     C37816   5.106  10.450   0.703 -0.7290  0.2997  0.1035
  287MOL0     C37817   4.376  10.716   0.503 -0.4830  0.4828 -0.1915
  287MOL0     C37818   4.263  10.777   0.563  0.0079 -0.1239  0.1373
  287MOL0     H37819   3.779  10.733   0.668 -0.9669 -1.0771  1.4716
  287MOL0     H37820   3.541  10.825   0.731 -0.9483  2.9147 -2.7857
  287MOL0     H37821   3.572  11.167   0.997 -0.3195  0.5640 -0.5391
  287MOL0     H37822   3.505  11.009   1.043 -0.9327 -0.5208 -1.0727
  287MOL0     H37823   3.286  11.096   0.937  1.2254 -1.2531 -0.5191
  287MOL0     H37824   3.351  11.262   0.978 -0.5502  0.0198  3.5934
  287MOL0     H37825   3.384  11.198   1.211 -1.0822  1.1465  0.6853
  287MOL0     H37826   3.323  11.037   1.176  0.9082 -0.1141 -1.6227
  287MOL0     H37827   3.160  11.293   1.137  0.7485  0.4354 -0.6950
  287MOL0     H37828   3.103  11.139   1.090 -0.0202 -0.7116  0.5554
  287MOL0     H37829   3.220  11.178   1.378  1.4116 -4.3603 -0.9806
  287MOL0     H37830   3.120  11.053   1.327 -0.3860 -0.1901  0.7695
  287MOL0     H37831   3.022  11.348   1.341 -3.7947  0.3770  0.8891
  287MOL0     H37832   3.003  11.224   1.460 -1.5528 -0.0765 -0.2455
  287MOL0     H37833   2.814  11.285   1.299 -0.7925 -0.6666 -2.5033
  287MOL0     H37834   2.913  11.222   1.171  1.0298  2.0987  0.0131
  287MOL0     H37835   2.892  10.981   1.291 -0.0660  0.8597  0.7102
  287MOL0     H37836   2.750  11.061   1.237 -1.3746  2.4088  0.6241
  287MOL0     H37837   2.583  11.169   1.414  0.3580 -0.6599  0.5298
  287MOL0     H37838   2.532  11.269   1.692  1.0885 -0.1527  1.1126
  287MOL0     H37839   2.603  11.174   1.812  0.1944  1.0692  0.7120
  287MOL0     H37840   2.459  10.981   1.743 -0.4432  1.8797  1.7687
  287MOL0     H37841   2.382  11.068   1.614 -1.7194 -4.4187  0.3868
  287MOL0     H37842   2.372  11.150   1.912 -1.4602  0.9507  0.6331
  287MOL0     H37843   2.302  11.242   1.791  4.5438  2.0669  1.9945
  287MOL0     H37844   2.225  10.948   1.869  1.4311 -0.2339 -0.8838
  287MOL0     H37845   2.168  11.019   1.728  0.1906  0.9797 -0.8237
  287MOL0     H37846   1.997  10.892   1.819 -2.2327  1.3666 -1.9540
  287MOL0     H37847   1.778  10.812   1.906  0.2200 -1.1506  0.8335
  287MOL0     H37848   1.373  10.656   2.002 -0.6534 -1.0832  2.3708
  287MOL0     H37849   1.173  10.621   2.141 -0.0221 -0.0187  0.8814
  287MOL0     H37850   0.856  10.720   2.312 -0.6066  0.1083 -1.5400
  287MOL0     H37851   1.002  10.620   2.279  1.1835  1.3835 -0.4551
  287MOL0     H37852   0.933  10.670   2.027  1.6078 -1.0150  1.0575
  287MOL0     H37853   0.791  10.736   2.107 -0.6559 -0.4665  1.9764
  287MOL0     H37854   0.734  10.518   2.203  0.3934 -2.7532  1.1073
  287MOL0     H37855   0.888  10.453   2.176  1.7246  0.4983  0.1881
  287MOL0     H37856   0.674  10.551   1.974 -0.7824 -0.8998 -0.6375
  287MOL0     H37857   0.816  10.469   1.921  0.8062 -0.4228  0.5436
  287MOL0     H37858   0.724  10.271   2.096  0.1866  0.4572  1.1874
  287MOL0     H37859   0.685  10.284   1.926 -0.7168 -1.9136  0.4462
  287MOL0     H37860   0.477  10.409   1.973  1.2032  1.0223 -1.3435
  287MOL0     H37861   0.523  10.389   2.149 -0.5207 -3.3861  1.2366
  287MOL0     H37862   0.529  10.127   2.071  0.0403 -0.4154 -2.6776
  287MOL0     H37863   0.386  10.207   2.137 -0.6343 -0.0991 -0.2156
  287MOL0     H37864   0.449  10.073   1.893 -0.5015 -0.4199  1.1910
  287MOL0     H37865   0.467  10.226   1.835  1.0657 -2.1247 -0.7110
  287MOL0     H37866   1.147  11.036   2.203 -4.5199 -2.9051  1.1654
  287MOL0     H37867   1.377  11.064   2.115  0.3644 -0.2766 -1.6188
  287MOL0     H37868   1.723  11.165   2.123 -0.2166 -0.7078 -0.1844
  287MOL0     H37869   1.944  11.266   2.019  0.0964 -1.1124 -0.2395
  287MOL0     H37870   3.722  11.188   0.840 -2.8790  0.5449 -0.6409
  287MOL0     H37871   3.956  11.098   0.776  0.6496 -0.9008  0.5884
  287MOL0     H37872   4.340  10.754   0.891 -1.3289 -0.6342 -0.2262
  287MOL0     H37873   4.543  10.642   0.792  0.7016  0.4569 -1.2867
  287MOL0     H37874   4.652  10.734   0.399 -3.4942  1.2956 -1.1757
  287MOL0     H37875   4.563  10.588   0.338  2.9172 -0.8521 -0.9381
  287MOL0     H37876   4.743  10.440   0.363  0.3726  0.4770  0.4504
  287MOL0     H37877   4.801  10.565   0.267 -1.0663  0.7406 -0.6592
  287MOL0     H37878   4.831  10.559   0.571  0.3922 -4.2051 -0.6054
  287MOL0     H37879   4.901  10.681   0.477  0.2573 -0.0521  0.9183
  287MOL0     H37880   4.948  10.381   0.428 -0.1248 -0.5298  1.3027
  287MOL0     H37881   5.055  10.506   0.377  0.5488  2.5204  1.3889
  287MOL0     H37882   5.161  10.440   0.795 -2.3073 -1.3644  0.9276
  287MOL0     H37883   4.368  10.699   0.396  0.6168 -0.5834 -0.1250
  287MOL0     H37884   4.175  10.808   0.506 -2.1461 -0.0673  3.2526
  288MOL0     O37885  10.401  10.711   0.314  0.5133 -0.2913 -0.1250
  288MOL0     C37886  10.363  10.626   0.393  0.1620 -0.8065  0.2965
  288MOL0     O37887  10.235  10.593   0.416 -0.3119  0.3836 -0.1289
  288MOL0     C37888  10.128  10.629   0.340  0.1939  0.4045  0.3880
  288MOL0     C37889  10.031  10.530   0.310 -0.2684 -0.0072  0.5191
  288MOL0     C37890   9.912  10.564   0.239 -0.3798  0.2048  1.0261
  288MOL0     C37891   9.883  10.692   0.204 -0.2051  0.1957  0.4878
  288MOL0     O37892   9.768  10.737   0.146  0.3925  0.7287 -0.1787
  288MOL0     C37893   9.657  10.649   0.129 -0.2946 -0.2072  0.5405
  288MOL0     C37894   9.535  10.742   0.096  0.7137 -0.3343  0.1003
  288MOL0     C37895   9.412  10.656   0.072  0.5011  0.6397 -0.5060
  288MOL0     C37896   9.291  10.746   0.045 -0.7216 -0.0249  0.2920
  288MOL0     C37897   9.163  10.682  -0.001  0.5423  0.1813  0.7330
  288MOL0     C37898   9.067  10.793  -0.035 -0.0896 -0.0526  0.9029
  288MOL0     C37899   8.940  10.746  -0.093  0.6309  0.4764  0.1344
  288MOL0     C37900   8.835  10.857  -0.128  0.0427  0.1259 -0.0787
  288MOL0     N37901   8.703  10.800  -0.125  0.4974  0.6124  0.6542
  288MOL0     C37902   8.655  10.719  -0.229  0.0755 -0.9001  0.3019
  288MOL0     C37903   8.548  10.655  -0.167 -0.2171 -0.6655  1.2586
  288MOL0     C37904   8.451  10.547  -0.229  0.9910  0.4678  0.8055
  288MOL0     C37905   8.522  10.418  -0.288  0.2688 -0.4762 -0.1121
  288MOL0     C37906   8.630  10.370  -0.186 -0.1280  0.2139 -0.0712
  288MOL0     C37907   8.685  10.236  -0.214  0.7181  0.2691  0.1284
  288MOL0     O37908   8.756  10.232  -0.340 -0.7373  0.3077 -0.5252
  288MOL0     C37909   8.891  10.256  -0.337 -0.7407  0.1802 -0.0265
  288MOL0     C37910   8.972  10.328  -0.238  0.3548  1.2163 -0.9207
  288MOL0     C37911   9.111  10.334  -0.257  0.4282 -0.2028 -0.2558
  288MOL0     C37912   9.175  10.276  -0.368  0.3710 -0.5249  0.9766
  288MOL0     C37913   9.319  10.254  -0.356  0.4708 -0.0841 -0.3704
  288MOL0     O37914   9.394  10.335  -0.278  0.8357 -0.7190  0.4043
  288MOL0     C37915   9.506  10.282  -0.235 -0.0063 -0.7812  0.2383
  288MOL0     C37916   9.508  10.160  -0.173  0.2886 -0.3236 -0.6256
  288MOL0     C37917   9.632  10.113  -0.122  0.2606 -0.0487 -0.1226
  288MOL0     C37918   9.749  10.195  -0.122 -0.4843  0.0871  1.2176
  288MOL0     O37919   9.862  10.149  -0.059  0.7991  0.0189 -0.3680
  288MOL0     C37920   9.993  10.201  -0.101  0.2049  0.6698  0.5258
  288MOL0     C37921  10.092  10.138   0.000  0.0960  0.9162  0.3028
  288MOL0     C37922  10.102  10.208   0.132 -0.5094  0.3857 -0.2661
  288MOL0     C37923  10.199  10.120   0.213 -0.3446 -0.4072  0.5432
  288MOL0     C37924  10.197  10.141   0.367  0.2875 -0.7024 -0.4143
  288MOL0     C37925  10.277  10.035   0.446  0.4326 -0.1966  0.0068
  288MOL0     C37926  10.418  10.011   0.397  0.8290  0.0854  0.5809
  288MOL0     C37927  10.487   9.908   0.481  0.2876  0.0981 -0.2276
  288MOL0    Cl37928  10.533   9.991   0.636  0.4871  0.0825  0.1882
  288MOL0     C37929   9.742  10.321  -0.188  0.1029 -0.6368 -0.1857
  288MOL0     C37930   9.620  10.361  -0.236  0.3275 -1.3960  0.5588
  288MOL0     O37931   9.362  10.163  -0.423 -0.3739  0.0460 -0.4111
  288MOL0     C37932   9.094  10.219  -0.472 -0.4574 -0.9690  0.5218
  288MOL0     C37933   8.953  10.220  -0.461 -0.0471  0.1466 -0.0214
  288MOL0     N37934   8.543  10.691  -0.035 -0.2462 -1.1391 -0.3524
  288MOL0     N37935   8.642  10.772  -0.006  0.2702  0.2830 -0.0477
  288MOL0     C37936   9.984  10.787   0.228 -0.3054 -0.1478 -0.3869
  288MOL0     C37937  10.110  10.760   0.290 -0.3362  0.4299  0.3521
  288MOL0     C37938  10.461  10.538   0.472 -1.0353  0.2393  0.6709
  288MOL0     C37939  10.598  10.536   0.437 -0.2464  0.7624  0.1809
  288MOL0     C37940  10.686  10.452   0.500  0.0367  1.0110  0.6011
  288MOL0     C37941  10.629  10.352   0.579 -0.0241 -0.0302 -0.0024
  288MOL0     O37942  10.728  10.270   0.621  0.4155  0.1293  0.2904
  288MOL0     C37943  10.729  10.242   0.769 -0.6198  0.6069 -0.4305
  288MOL0     C37944  10.842  10.139   0.780 -0.2094 -0.5743  0.3021
  288MOL0     C37945  10.973  10.198   0.786  0.5279 -0.3472  0.7041
  288MOL0     C37946  11.057  10.159   0.668 -0.2615  0.3329 -0.1552
  288MOL0     C37947  11.088  10.018   0.662  0.1253  0.1500 -1.1040
  288MOL0     C37948  11.104   9.900   0.645  0.2480  0.2495  0.0010
  288MOL0     C37949  10.492  10.343   0.603  0.2654 -0.1869 -0.3820
  288MOL0     C37950  10.405  10.435   0.550  0.6964 -0.0399 -0.0630
  288MOL0     H37951  10.058  10.428   0.336 -1.3505 -1.4289 -3.1979
  288MOL0     H37952   9.842  10.485   0.212 -1.2856  0.7350  1.7623
  288MOL0     H37953   9.638  10.590   0.219 -0.1323  1.1963  1.5258
  288MOL0     H37954   9.657  10.590   0.037 -0.3941 -0.1580  0.5080
  288MOL0     H37955   9.565  10.793   0.004  1.4740 -1.2676 -0.1862
  288MOL0     H37956   9.518  10.809   0.181 -2.1812  0.1717 -0.7844
  288MOL0     H37957   9.396  10.600   0.165  3.7961 -0.5528 -0.5039
  288MOL0     H37958   9.423  10.584  -0.010  1.7369 -0.9725  0.9796
  288MOL0     H37959   9.255  10.812   0.124 -1.9589  1.7004 -1.6115
  288MOL0     H37960   9.324  10.812  -0.036  1.5025 -1.6887 -0.2509
  288MOL0     H37961   9.111  10.633   0.082  1.9319  0.1078  1.5849
  288MOL0     H37962   9.172  10.617  -0.089  1.6046 -1.7196  2.1715
  288MOL0     H37963   9.116  10.852  -0.114 -0.9278 -2.9079 -1.9616
  288MOL0     H37964   9.040  10.857   0.050 -1.9466 -1.0238  1.0912
  288MOL0     H37965   8.967  10.686  -0.181  1.4072  0.0371  0.6645
  288MOL0     H37966   8.890  10.670  -0.032 -0.7106  0.6472 -0.6917
  288MOL0     H37967   8.858  10.894  -0.228  0.8197 -1.6806 -0.5923
  288MOL0     H37968   8.844  10.946  -0.064  1.0426 -0.9895  1.3930
  288MOL0     H37969   8.693  10.700  -0.329 -1.0436  1.6209 -0.6849
  288MOL0     H37970   8.382  10.593  -0.300  2.6645  2.1418  0.1808
  288MOL0     H37971   8.385  10.507  -0.151  1.1741  0.5670  1.0145
  288MOL0     H37972   8.570  10.450  -0.381  0.7678  2.9187  1.1687
  288MOL0     H37973   8.452  10.338  -0.315 -0.2048 -0.5328  1.2161
  288MOL0     H37974   8.712  10.442  -0.181  2.5917 -2.5282 -2.2426
  288MOL0     H37975   8.585  10.379  -0.086  2.2421  2.4946  0.9022
  288MOL0     H37976   8.602  10.165  -0.221  2.6776 -2.0999 -0.5047
  288MOL0     H37977   8.741  10.201  -0.127 -0.4987  0.8429  1.1776
  288MOL0     H37978   8.911  10.372  -0.160  2.2373  1.1411  0.6649
  288MOL0     H37979   9.163  10.376  -0.171 -0.1436  2.4153 -1.0997
  288MOL0     H37980   9.425  10.092  -0.161  0.2060 -0.3534 -1.3455
  288MOL0     H37981   9.637  10.023  -0.061 -1.8291 -1.6655 -2.1562
  288MOL0     H37982  10.004  10.308  -0.086 -0.5573  0.3101  5.0603
  288MOL0     H37983  10.018  10.165  -0.201  0.7417  0.9229  0.5645
  288MOL0     H37984  10.185  10.141  -0.057 -1.8013  0.2417 -3.1049
  288MOL0     H37985  10.078  10.031   0.020  1.1765  1.0242  1.8190
  288MOL0     H37986  10.010  10.198   0.190 -0.0978  0.6575  0.4459
  288MOL0     H37987  10.146  10.307   0.122  1.1624 -0.3188 -0.2159
  288MOL0     H37988  10.193  10.012   0.194  3.0357 -0.2274 -2.9671
  288MOL0     H37989  10.302  10.136   0.178 -0.0010 -2.2523  0.5842
  288MOL0     H37990  10.094  10.147   0.403  0.8289 -2.1838  1.5513
  288MOL0     H37991  10.243  10.234   0.403 -1.1898 -0.3081  0.5689
  288MOL0     H37992  10.218   9.944   0.433 -1.0943  0.4264  2.1413
  288MOL0     H37993  10.280  10.056   0.553  0.0940 -1.6229  0.3146
  288MOL0     H37994  10.404   9.974   0.295  0.0978  0.5119  0.5181
  288MOL0     H37995  10.464  10.110   0.407 -0.3485  0.4343  3.8882
  288MOL0     H37996  10.577   9.876   0.429 -0.8001 -0.4435 -1.8503
  288MOL0     H37997  10.427   9.817   0.495  1.1024 -0.4571 -0.3000
  288MOL0     H37998   9.836  10.373  -0.202  0.4262  0.3672  4.1790
  288MOL0     H37999   9.614  10.456  -0.289 -0.8826 -0.8305  1.6535
  288MOL0     H38000   9.136  10.160  -0.552 -1.6193 -0.7910 -0.2420
  288MOL0     H38001   8.894  10.175  -0.540 -0.3170  4.4112 -2.5486
  288MOL0     H38002   9.959  10.888   0.200  2.1345  0.5722 -0.1584
  288MOL0     H38003  10.177  10.845   0.302 -0.5791  0.7925 -0.6921
  288MOL0     H38004  10.642  10.595   0.358  0.1149  0.9137  0.4905
  288MOL0     H38005  10.789  10.446   0.467 -0.2459  3.7112 -1.1249
  288MOL0     H38006  10.637  10.194   0.803 -0.7857  0.3311 -1.2525
  288MOL0     H38007  10.743  10.334   0.826 -1.5706 -0.9433  2.4764
  288MOL0     H38008  10.834  10.092   0.878 -0.7114  1.7240  1.4214
  288MOL0     H38009  10.833  10.053   0.712  0.3694  0.5978 -1.3346
  288MOL0     H38010  11.031  10.170   0.874  0.8372 -0.1444  0.5694
  288MOL0     H38011  10.969  10.308   0.780  2.8269 -0.2656  0.0136
  288MOL0     H38012  11.012  10.193   0.574  1.7643  2.7025 -0.3652
  288MOL0     H38013  11.148  10.219   0.667 -0.0519  0.0184 -0.2365
  288MOL0     H38014  11.133   9.800   0.619 -0.6265 -0.5567  1.9466
  288MOL0     H38015  10.449  10.267   0.666  1.1706  1.1739  1.9930
  288MOL0     H38016  10.301  10.412   0.571  1.6065 -1.4232  3.9185
  289MOL0     O38017  10.413   7.120   8.527  0.1191 -0.3578  0.6105
  289MOL0     C38018  10.438   7.002   8.499 -0.2645  0.7600  0.0049
  289MOL0     O38019  10.560   6.939   8.517  0.1191 -0.3501  0.2982
  289MOL0     C38020  10.665   7.010   8.563 -0.2808  0.4788 -0.1131
  289MOL0     C38021  10.780   7.044   8.489 -0.0684  0.5374 -1.1018
  289MOL0     C38022  10.889   7.115   8.552  0.8181  0.5864 -0.5155
  289MOL0     C38023  10.882   7.146   8.694 -0.1177 -1.0863  0.3044
  289MOL0     O38024  10.986   7.219   8.751 -0.6353 -0.4027 -0.4349
  289MOL0     C38025  11.041   7.166   8.872 -1.5542 -0.3768  0.5363
  289MOL0     C38026  11.026   7.268   8.989 -0.4887 -0.2246  0.5023
  289MOL0     C38027  11.089   7.225   9.119  0.3159 -0.3500 -0.3722
  289MOL0     C38028  11.014   7.113   9.183  0.3170  0.2161 -0.6145
  289MOL0     C38029  10.861   7.138   9.200 -0.4123 -0.6205  0.1220
  289MOL0     C38030  10.815   7.264   9.267  0.5346 -0.1606  0.0949
  289MOL0     C38031  10.694   7.267   9.360 -0.5673  0.0898  0.4097
  289MOL0     C38032  10.570   7.221   9.301 -0.2018  0.6044  0.0836
  289MOL0     N38033  10.534   7.270   9.169 -0.3656 -0.5436  0.2622
  289MOL0     C38034  10.445   7.369   9.139  0.4625  0.5416  0.4140
  289MOL0     C38035  10.420   7.353   9.002 -0.1358  0.4457 -0.0363
  289MOL0     C38036  10.340   7.436   8.915 -0.4870 -0.2164 -0.6725
  289MOL0     C38037  10.195   7.431   8.956 -0.1340 -1.3406 -0.5963
  289MOL0     C38038  10.109   7.343   8.890 -0.2308  0.9505  0.4874
  289MOL0     C38039   9.962   7.342   8.933  0.0373  0.2963  0.2611
  289MOL0     O38040   9.909   7.461   8.875  0.2560  0.0568  0.4728
  289MOL0     C38041   9.775   7.479   8.853  0.6558  0.1227 -0.7788
  289MOL0     C38042   9.758   7.595   8.780  0.0797 -0.2656 -0.3958
  289MOL0     C38043   9.634   7.653   8.767  0.9861  0.8100  0.8991
  289MOL0     C38044   9.520   7.584   8.819  0.0307  0.2631 -0.1948
  289MOL0     C38045   9.385   7.636   8.810  0.8630  0.4274 -0.2961
  289MOL0     O38046   9.365   7.759   8.759  0.2919  0.3547 -0.7959
  289MOL0     C38047   9.255   7.838   8.791 -0.1643  0.1743 -0.1813
  289MOL0     C38048   9.119   7.790   8.800 -0.3710 -1.1740 -0.5616
  289MOL0     C38049   9.013   7.885   8.802 -0.1422 -0.2577 -0.0903
  289MOL0     C38050   9.037   8.024   8.802 -0.3063 -0.4480  0.1250
  289MOL0     O38051   8.934   8.109   8.807  0.1182  0.0581  0.1487
  289MOL0     C38052   8.899   8.166   8.681  1.0593  0.7813  0.0667
  289MOL0     C38053   8.934   8.311   8.696 -0.1790  0.0686  0.5592
  289MOL0     C38054   8.839   8.387   8.788 -0.4307  0.0342 -0.2202
  289MOL0     C38055   8.697   8.411   8.723 -0.4088 -0.2720 -0.3474
  289MOL0     C38056   8.606   8.497   8.806 -0.1808 -0.3255 -0.2857
  289MOL0     C38057   8.576   8.421   8.939  0.0965  0.5740  0.1116
  289MOL0     C38058   8.467   8.494   9.020  0.7052  0.2298  0.0454
  289MOL0     C38059   8.417   8.408   9.132  1.8153  0.5858 -0.5224
  289MOL0    Cl38060   8.510   8.453   9.274  0.2678 -0.2169  0.2179
  289MOL0     C38061   9.168   8.076   8.789 -0.2492  0.4630 -0.7201
  289MOL0     C38062   9.273   7.977   8.788  0.8962  0.1815  0.1578
  289MOL0     O38063   9.291   7.563   8.848 -0.6060  0.1407  0.1272
  289MOL0     C38064   9.537   7.461   8.890 -0.8711 -0.2461 -0.4669
  289MOL0     C38065   9.666   7.414   8.918 -0.0308  0.0118 -0.7576
  289MOL0     N38066  10.515   7.255   8.955 -0.0656 -1.2774  0.0261
  289MOL0     N38067  10.568   7.203   9.056 -0.0044  1.0415  0.7206
  289MOL0     C38068  10.769   7.118   8.770  0.5115  0.6728  0.4874
  289MOL0     C38069  10.662   7.050   8.701 -0.2577  0.7713  0.1723
  289MOL0     C38070  10.332   6.923   8.425  0.1436 -0.1097 -0.7919
  289MOL0     C38071  10.196   6.969   8.428 -0.5662 -0.4883 -0.4984
  289MOL0     C38072  10.092   6.896   8.367 -0.4624  0.1581  0.2136
  289MOL0     C38073  10.125   6.782   8.284  0.0232 -0.3032  0.1272
  289MOL0     O38074  10.031   6.707   8.228  0.0232  0.5058 -0.5781
  289MOL0     C38075  10.062   6.579   8.176 -0.0155 -0.1403  0.0412
  289MOL0     C38076   9.932   6.489   8.176 -0.9785  0.3534  0.0214
  289MOL0     C38077   9.800   6.570   8.137 -0.0350 -0.0037 -0.5956
  289MOL0     C38078   9.672   6.477   8.153 -0.5687 -0.7545 -0.0691
  289MOL0     C38079   9.544   6.527   8.092  0.8202  0.2135 -0.0315
  289MOL0     C38080   9.455   6.594   8.038  0.2963 -0.3133  0.0320
  289MOL0     C38081  10.264   6.750   8.275  0.6222 -0.4458 -0.0493
  289MOL0     C38082  10.365   6.812   8.350  0.1233  0.3672 -0.5010
  289MOL0     H38083  10.778   7.008   8.386 -0.0546 -0.7155 -0.6872
  289MOL0     H38084  10.974   7.138   8.488  0.9416  0.4726 -0.3933
  289MOL0     H38085  11.146   7.141   8.858 -1.5239  0.4052 -0.8524
  289MOL0     H38086  10.995   7.069   8.892  0.6820 -1.8630 -1.0434
  289MOL0     H38087  10.926   7.310   9.002 -0.0346  0.7422  1.0494
  289MOL0     H38088  11.084   7.357   8.964 -1.6639 -0.1419 -2.2697
  289MOL0     H38089  11.111   7.307   9.189  2.3087 -0.4936 -0.7770
  289MOL0     H38090  11.186   7.180   9.099 -1.7858 -4.6537 -2.0319
  289MOL0     H38091  11.024   7.028   9.115 -0.8837 -1.0847  0.7431
  289MOL0     H38092  11.057   7.090   9.281  0.0744 -0.5979 -0.6865
  289MOL0     H38093  10.813   7.056   9.253 -3.1479  1.6778  1.4238
  289MOL0     H38094  10.811   7.125   9.103 -2.4752  2.1612  0.7030
  289MOL0     H38095  10.798   7.335   9.185  1.8382  0.3248  0.2212
  289MOL0     H38096  10.898   7.287   9.335  0.6861 -1.3493  0.3349
  289MOL0     H38097  10.706   7.190   9.436 -0.7769 -1.0122 -0.6358
  289MOL0     H38098  10.682   7.368   9.401  1.2129  0.5342 -0.0458
  289MOL0     H38099  10.491   7.245   9.372  0.0203  0.4135  0.4024
  289MOL0     H38100  10.570   7.112   9.293  2.0521  0.6091 -0.8592
  289MOL0     H38101  10.403   7.442   9.208  0.6952  0.3794  0.7307
  289MOL0     H38102  10.347   7.405   8.811 -1.0389  0.3506 -0.8904
  289MOL0     H38103  10.375   7.539   8.927 -0.5888 -0.1689 -0.7792
  289MOL0     H38104  10.159   7.533   8.942  1.7480 -0.6791 -0.8149
  289MOL0     H38105  10.192   7.425   9.065  1.6916  2.1978 -0.2055
  289MOL0     H38106  10.110   7.351   8.781  0.6575 -1.2122  0.2804
  289MOL0     H38107  10.149   7.242   8.902  3.5346  1.9149 -2.2959
  289MOL0     H38108   9.951   7.342   9.042 -0.5752 -2.2237  0.2515
  289MOL0     H38109   9.910   7.252   8.900  0.4247 -0.6491  2.0931
  289MOL0     H38110   9.841   7.642   8.728  0.7431  3.5688  3.5305
  289MOL0     H38111   9.633   7.756   8.732 -0.0479 -0.3200 -2.9023
  289MOL0     H38112   9.092   7.686   8.792 -0.7168 -1.0920 -0.4794
  289MOL0     H38113   8.915   7.840   8.814 -0.0354 -0.0058  2.0576
  289MOL0     H38114   8.791   8.160   8.662  1.0829  3.4706 -1.3625
  289MOL0     H38115   8.954   8.120   8.598  0.3487  1.5253 -0.8375
  289MOL0     H38116   8.936   8.360   8.598 -2.3663 -0.3775  0.2531
  289MOL0     H38117   9.039   8.326   8.726  0.1692  2.2861 -1.4523
  289MOL0     H38118   8.882   8.487   8.798 -1.2711  0.4045 -0.2631
  289MOL0     H38119   8.843   8.342   8.887  4.1538  1.9321  0.6988
  289MOL0     H38120   8.709   8.461   8.627  0.2974  0.2227 -0.0114
  289MOL0     H38121   8.651   8.315   8.698 -3.1152  0.4067  1.5513
  289MOL0     H38122   8.515   8.514   8.747  1.8940  1.4151 -3.2514
  289MOL0     H38123   8.656   8.589   8.837  1.1933 -1.3095  0.5259
  289MOL0     H38124   8.667   8.413   8.999  0.4838 -0.2646 -0.5729
  289MOL0     H38125   8.542   8.318   8.929  2.2998 -0.5068  2.4452
  289MOL0     H38126   8.492   8.595   9.055 -3.1614  0.9794  1.1662
  289MOL0     H38127   8.374   8.501   8.963 -0.0252  0.4276  1.2247
  289MOL0     H38128   8.425   8.303   9.106 -0.8783 -0.0434  0.7850
  289MOL0     H38129   8.314   8.436   9.158  1.4136 -0.3950 -1.0445
  289MOL0     H38130   9.180   8.184   8.794 -1.2642  0.5555  2.8951
  289MOL0     H38131   9.373   8.008   8.762  0.9928  0.9127  1.3258
  289MOL0     H38132   9.456   7.401   8.931 -0.8567  1.2712  1.9542
  289MOL0     H38133   9.677   7.329   8.985 -0.9364  0.0229 -0.5932
  289MOL0     H38134  10.765   7.143   8.876  2.3322 -0.3435  0.8576
  289MOL0     H38135  10.578   7.022   8.763  0.9188  1.3066  2.0814
  289MOL0     H38136  10.164   7.056   8.483  0.5378 -0.2931 -0.1288
  289MOL0     H38137   9.989   6.930   8.370 -1.2802 -2.1241  0.2356
  289MOL0     H38138  10.127   6.525   8.246 -1.8841 -0.6831  1.4326
  289MOL0     H38139  10.114   6.582   8.079  2.4770  1.5526  1.3364
  289MOL0     H38140   9.959   6.405   8.111 -0.2343 -0.3706  1.2468
  289MOL0     H38141   9.915   6.440   8.272  0.9676 -1.4683 -0.4904
  289MOL0     H38142   9.804   6.613   8.036 -0.2591 -1.5485 -1.2829
  289MOL0     H38143   9.800   6.656   8.205  2.4484 -0.3523 -0.0673
  289MOL0     H38144   9.704   6.389   8.097  1.8094  0.6632 -1.1149
  289MOL0     H38145   9.652   6.440   8.254  2.0195 -2.3713 -0.0475
  289MOL0     H38146   9.370   6.648   8.003  1.4716  0.7345 -1.3077
  289MOL0     H38147  10.286   6.671   8.204 -1.3710 -2.8832  1.8441
  289MOL0     H38148  10.470   6.789   8.335  0.3043  2.4302 -3.0996
  290MOL0     O38149   9.171   8.109   1.468  0.4832  0.4931  0.2599
  290MOL0     C38150   9.261   8.187   1.493  0.3234 -0.9448 -0.2457
  290MOL0     O38151   9.254   8.327   1.504  0.2844  0.5537 -0.5789
  290MOL0     C38152   9.140   8.400   1.473 -0.5351  0.6085  0.4728
  290MOL0     C38153   9.112   8.506   1.562  0.0719 -0.6422 -0.3142
  290MOL0     C38154   9.001   8.593   1.547  0.1278 -0.9102 -0.2326
  290MOL0     C38155   8.908   8.555   1.449  0.0549  0.0790 -0.1216
  290MOL0     O38156   8.794   8.617   1.450  0.3945 -0.2886  0.6209
  290MOL0     C38157   8.726   8.649   1.329 -0.2373  0.5365  0.5283
  290MOL0     C38158   8.668   8.786   1.335  0.5811 -0.3449  0.0630
  290MOL0     C38159   8.562   8.795   1.212  0.3763 -0.6848 -0.2323
  290MOL0     C38160   8.469   8.917   1.230 -0.5370 -0.3361 -0.8006
  290MOL0     C38161   8.350   8.899   1.138 -0.0467  0.5704  0.7197
  290MOL0     C38162   8.266   9.026   1.158  1.3662 -0.3179 -0.2494
  290MOL0     C38163   8.128   9.015   1.084 -0.7440  0.0218  0.2338
  290MOL0     C38164   8.051   9.139   1.099 -0.3042 -0.0898 -0.9509
  290MOL0     N38165   7.930   9.130   1.016 -0.0098 -1.0031 -0.2991
  290MOL0     C38166   7.895   9.217   0.914 -0.1356  0.0060  0.1403
  290MOL0     C38167   7.760   9.190   0.892 -0.0879 -0.0365 -0.3712
  290MOL0     C38168   7.672   9.275   0.810 -0.8210 -0.0977  0.0492
  290MOL0     C38169   7.527   9.232   0.822 -0.5284 -0.5340  0.4187
  290MOL0     C38170   7.436   9.336   0.757 -0.0518 -0.8796  0.1302
  290MOL0     C38171   7.292   9.292   0.749 -0.0869  0.0354  0.4869
  290MOL0     O38172   7.208   9.380   0.665  0.3552 -0.0597 -0.1567
  290MOL0     C38173   7.072   9.353   0.670  0.0185  0.0690 -0.0900
  290MOL0     C38174   6.994   9.412   0.769  0.4128 -0.5412 -0.0906
  290MOL0     C38175   6.858   9.390   0.766  0.6566 -0.5509 -0.2855
  290MOL0     C38176   6.789   9.325   0.664 -0.1308  0.0241  0.0342
  290MOL0     C38177   6.646   9.300   0.678  0.5859 -0.0947  0.6515
  290MOL0     O38178   6.584   9.372   0.790 -0.1254 -0.1694 -0.3588
  290MOL0     C38179   6.448   9.367   0.803 -0.1324  0.0497 -0.0151
  290MOL0     C38180   6.353   9.360   0.704 -0.7476 -0.4084 -0.2796
  290MOL0     C38181   6.222   9.340   0.735 -0.0980  0.2196  0.5846
  290MOL0     C38182   6.178   9.334   0.865  0.0054 -0.3985  0.1193
  290MOL0     O38183   6.046   9.319   0.901 -0.3523  0.2615  0.1643
  290MOL0     C38184   5.937   9.322   0.810  0.4868 -0.1163 -0.4483
  290MOL0     C38185   5.800   9.326   0.877 -0.3183 -0.3802 -0.5236
  290MOL0     C38186   5.705   9.425   0.822  0.0100 -0.2973 -0.2281
  290MOL0     C38187   5.575   9.427   0.896  0.8237 -0.2013  0.9889
  290MOL0     C38188   5.498   9.555   0.863 -0.6744  0.1998 -0.3539
  290MOL0     C38189   5.352   9.535   0.915  0.0586 -0.3428 -0.1775
  290MOL0     C38190   5.262   9.658   0.882 -0.1316 -0.7004  0.0856
  290MOL0     C38191   5.129   9.638   0.955 -0.2940 -0.5708  0.4643
  290MOL0    Cl38192   5.068   9.472   0.918  0.1304  0.0140  0.2494
  290MOL0     C38193   6.274   9.342   0.969  1.0249  0.5351  0.3853
  290MOL0     C38194   6.409   9.358   0.936  0.1132 -0.0817 -0.4030
  290MOL0     O38195   6.587   9.215   0.612 -0.2278  0.5100 -0.2333
  290MOL0     C38196   6.870   9.275   0.557  0.6128 -0.1347 -0.2901
  290MOL0     C38197   7.013   9.284   0.563  0.2161 -0.5198  1.0078
  290MOL0     N38198   7.729   9.084   0.972  0.4868 -0.1535 -1.1878
  290MOL0     N38199   7.829   9.050   1.040  0.1091 -0.0315  0.0137
  290MOL0     C38200   8.940   8.447   1.359  0.2868 -0.0099  0.4766
  290MOL0     C38201   9.051   8.369   1.379  0.0852  0.5306  0.6777
  290MOL0     C38202   9.392   8.140   1.490 -0.1708 -0.1670 -0.2618
  290MOL0     C38203   9.501   8.221   1.527  0.0021  0.3022 -0.3728
  290MOL0     C38204   9.634   8.179   1.517 -0.3097  0.2454  0.1099
  290MOL0     C38205   9.658   8.049   1.472  0.1536  0.3621 -0.2712
  290MOL0     O38206   9.775   7.989   1.452 -0.3026  0.1546  0.1540
  290MOL0     C38207   9.892   8.067   1.484 -0.2096  0.0210 -0.1851
  290MOL0     C38208   9.995   7.971   1.545 -0.8408 -0.2268 -0.1389
  290MOL0     C38209  10.122   8.046   1.597  0.0515 -0.2900  0.8702
  290MOL0     C38210  10.228   7.954   1.659  0.0828  0.5650  0.3319
  290MOL0     C38211  10.353   8.031   1.661 -0.2267  0.6117 -0.2407
  290MOL0     C38212  10.454   8.099   1.657 -0.1803 -0.0045 -0.1613
  290MOL0     C38213   9.551   7.960   1.455 -0.0205  0.0469 -0.3705
  290MOL0     C38214   9.418   8.005   1.463  0.0087  0.0424  0.0193
  290MOL0     H38215   9.191   8.521   1.635 -0.4399  3.7206 -0.3935
  290MOL0     H38216   8.991   8.682   1.609  0.8277 -0.9619 -0.0335
  290MOL0     H38217   8.652   8.573   1.301  0.1790 -0.5029  2.1200
  290MOL0     H38218   8.788   8.648   1.238 -2.9998 -1.2926 -1.4982
  290MOL0     H38219   8.744   8.865   1.334 -0.7520  0.9821 -0.7455
  290MOL0     H38220   8.614   8.802   1.429 -2.3654 -1.2529 -1.3504
  290MOL0     H38221   8.492   8.712   1.221 -0.4679  0.0874  0.3748
  290MOL0     H38222   8.616   8.795   1.117 -0.7944 -0.4565 -0.9123
  290MOL0     H38223   8.428   8.919   1.331 -3.4988 -0.1216 -1.9212
  290MOL0     H38224   8.517   9.013   1.205  0.2127  0.2165  2.3224
  290MOL0     H38225   8.289   8.812   1.164 -0.0095 -0.1576 -1.4641
  290MOL0     H38226   8.376   8.887   1.033  0.2744  1.7996  0.6397
  290MOL0     H38227   8.321   9.112   1.118 -1.2517  0.9492 -1.3663
  290MOL0     H38228   8.247   9.038   1.266 -0.8412  1.6250 -0.7531
  290MOL0     H38229   8.143   8.987   0.979  0.0896 -1.2778  0.6764
  290MOL0     H38230   8.081   8.938   1.146 -0.3066  0.6027  1.3063
  290MOL0     H38231   8.104   9.225   1.058 -1.1355 -0.3367 -2.6109
  290MOL0     H38232   8.030   9.164   1.203  1.4176 -3.4199  0.3618
  290MOL0     H38233   7.944   9.306   0.876  0.7296 -0.6119 -0.2256
  290MOL0     H38234   7.704   9.268   0.705 -0.8112 -2.1082  0.1427
  290MOL0     H38235   7.690   9.377   0.845 -1.0052 -0.2598  0.6280
  290MOL0     H38236   7.503   9.232   0.928  1.1611  3.1616  0.9554
  290MOL0     H38237   7.511   9.132   0.780 -0.5439 -0.7545  0.9487
  290MOL0     H38238   7.453   9.429   0.812  2.8793 -1.4236  0.3041
  290MOL0     H38239   7.473   9.347   0.654  1.1363  3.1576  0.8049
  290MOL0     H38240   7.255   9.300   0.852 -0.8108 -0.5046  0.2786
  290MOL0     H38241   7.287   9.187   0.717  0.3623 -0.6490  2.4746
  290MOL0     H38242   7.050   9.460   0.849  1.0499 -1.1665 -0.1507
  290MOL0     H38243   6.808   9.437   0.850 -0.8315 -1.3557 -0.6857
  290MOL0     H38244   6.378   9.351   0.599  0.3741 -1.0613  0.0293
  290MOL0     H38245   6.159   9.332   0.647 -0.0457  0.2270  0.5464
  290MOL0     H38246   5.947   9.244   0.734 -1.4292  0.5398 -1.4523
  290MOL0     H38247   5.942   9.419   0.761  0.3465  1.9976  3.3554
  290MOL0     H38248   5.809   9.361   0.980 -0.4937 -0.2576 -0.5499
  290MOL0     H38249   5.763   9.223   0.890  1.0235 -0.5987  2.0442
  290MOL0     H38250   5.686   9.419   0.714  1.1606  1.7048 -0.5962
  290MOL0     H38251   5.753   9.524   0.826 -1.3149  0.5261 -2.4503
  290MOL0     H38252   5.519   9.337   0.868  2.0811 -0.3453 -1.3079
  290MOL0     H38253   5.591   9.424   1.004  0.4074  0.6798  1.0767
  290MOL0     H38254   5.488   9.564   0.754  0.0136 -0.3203 -0.4728
  290MOL0     H38255   5.545   9.642   0.909  3.2727 -1.1875 -1.3538
  290MOL0     H38256   5.346   9.525   1.024  0.0845 -0.7919 -0.2140
  290MOL0     H38257   5.315   9.446   0.862  0.8530 -0.1032 -1.1676
  290MOL0     H38258   5.298   9.752   0.926 -0.6442  0.9737 -2.8039
  290MOL0     H38259   5.252   9.663   0.774  2.1631 -2.4242 -0.2802
  290MOL0     H38260   5.052   9.712   0.931 -0.7561  0.1413  3.6777
  290MOL0     H38261   5.135   9.640   1.065  0.1939 -2.6603  0.5098
  290MOL0     H38262   6.249   9.334   1.074 -2.8423  0.3185 -0.3824
  290MOL0     H38263   6.480   9.364   1.018 -0.7044 -1.2385  0.4288
  290MOL0     H38264   6.828   9.227   0.469  2.3550 -0.6334 -0.9135
  290MOL0     H38265   7.086   9.266   0.485  0.5817  1.6173  0.8173
  290MOL0     H38266   8.868   8.418   1.283 -1.3341 -3.1338  2.9954
  290MOL0     H38267   9.063   8.287   1.309  1.4238  2.8112 -1.9652
  290MOL0     H38268   9.477   8.318   1.568 -2.9375  0.3968 -2.0464
  290MOL0     H38269   9.710   8.245   1.558  0.9042 -1.3117  0.4411
  290MOL0     H38270   9.874   8.133   1.569  0.4822  1.9254 -1.4556
  290MOL0     H38271   9.923   8.129   1.399 -0.8296  0.7279  0.1015
  290MOL0     H38272   9.959   7.907   1.626  0.7531  0.5746  1.2751
  290MOL0     H38273  10.020   7.898   1.468  1.9236 -1.1023  1.4778
  290MOL0     H38274  10.092   8.116   1.676  0.5883  0.3878  0.4885
  290MOL0     H38275  10.169   8.107   1.519  0.0191 -0.0901  1.0066
  290MOL0     H38276  10.200   7.901   1.750  1.0172  1.3367  1.0805
  290MOL0     H38277  10.242   7.872   1.588 -3.0361  1.4089 -1.4818
  290MOL0     H38278  10.544   8.156   1.645 -0.3512 -0.1084 -2.3091
  290MOL0     H38279   9.562   7.855   1.427 -0.2311 -1.0699  3.2390
  290MOL0     H38280   9.342   7.938   1.425  0.7608  0.0170 -1.4830
  291MOL0     O38281  10.912   0.218   5.865  0.2624  0.0386 -0.3157
  291MOL0     C38282  10.832   0.301   5.902  1.1702  0.6072  0.1766
  291MOL0     O38283  10.860   0.428   5.939 -0.3698 -0.2819 -0.2859
  291MOL0     C38284  10.993   0.463   5.942 -0.2609 -0.1760 -0.7179
  291MOL0     C38285  11.055   0.501   5.814 -0.4319  0.6868 -0.0996
  291MOL0     C38286  11.192   0.519   5.798 -0.1347 -0.6038 -1.0854
  291MOL0     C38287  11.273   0.507   5.916  0.2915  0.9178 -0.1299
  291MOL0     O38288  11.411   0.520   5.922  0.2834  0.2341 -0.4726
  291MOL0     C38289  11.460   0.602   5.816 -0.6751  0.2786  0.2928
  291MOL0     C38290  11.597   0.656   5.860  0.2764  0.0465 -0.5002
  291MOL0     C38291  11.639   0.776   5.775  0.1870  0.0020  0.2267
  291MOL0     C38292  11.787   0.765   5.750  0.3768 -0.2520  0.1185
  291MOL0     C38293  11.863   0.899   5.695  0.5669  0.5804 -0.0656
  291MOL0     C38294  11.869   1.019   5.781  0.5792  0.5602  0.3617
  291MOL0     C38295  11.931   1.137   5.709  0.0042 -0.5556  0.8316
  291MOL0     C38296  12.071   1.183   5.761 -0.2241 -0.2458  0.1435
  291MOL0     N38297  12.072   1.184   5.909 -0.4296 -0.3379  0.0079
  291MOL0     C38298  12.001   1.271   5.984  0.4115  0.3299 -0.7822
  291MOL0     C38299  12.006   1.218   6.109 -0.3678 -0.4269  0.7580
  291MOL0     C38300  11.921   1.255   6.227  0.6418  0.1488 -0.5834
  291MOL0     C38301  11.806   1.163   6.255  0.2110  0.1695 -0.3284
  291MOL0     C38302  11.715   1.116   6.137 -0.0540  0.3711  0.2148
  291MOL0     C38303  11.601   1.016   6.180  0.2327 -0.0872 -0.3188
  291MOL0     O38304  11.519   0.975   6.070 -0.5755 -0.2338  0.9424
  291MOL0     C38305  11.398   0.909   6.099  0.0085  0.8685 -0.2013
  291MOL0     C38306  11.304   0.902   6.003  0.2705 -1.0504 -0.3201
  291MOL0     C38307  11.177   0.852   6.033 -0.0777  0.0534  0.4207
  291MOL0     C38308  11.144   0.826   6.168 -0.0184  1.3240 -0.5553
  291MOL0     C38309  11.004   0.783   6.202  0.2177 -0.7423 -0.2526
  291MOL0     O38310  10.977   0.763   6.332  0.2442  1.2109  0.0867
  291MOL0     C38311  10.856   0.715   6.360  0.9579  1.7626  0.0489
  291MOL0     C38312  10.807   0.590   6.310 -1.1098 -0.3822 -0.0807
  291MOL0     C38313  10.684   0.542   6.355 -0.4301 -0.1497 -0.0258
  291MOL0     C38314  10.612   0.611   6.455 -0.8542 -0.2143 -0.7886
  291MOL0     O38315  10.500   0.540   6.489  0.0071 -0.5378 -0.2127
  291MOL0     C38316  10.482   0.520   6.629 -0.4382  0.3519  0.0147
  291MOL0     C38317  10.385   0.404   6.655 -0.5831  0.5684 -0.1511
  291MOL0     C38318  10.244   0.451   6.649 -0.2260  0.7829 -0.4853
  291MOL0     C38319  10.151   0.327   6.679 -0.2282 -0.3232  0.2059
  291MOL0     C38320  10.007   0.383   6.670 -0.7675 -0.1246 -0.0351
  291MOL0     C38321   9.898   0.290   6.708  0.2356  0.7981  0.0320
  291MOL0     C38322   9.750   0.333   6.686 -1.0098 -0.0423 -0.1126
  291MOL0     C38323   9.707   0.460   6.756 -0.0635 -0.4561 -0.5195
  291MOL0    Cl38324   9.701   0.433   6.926  0.1807 -0.0455 -0.5564
  291MOL0     C38325  10.659   0.738   6.510 -0.0437 -0.1795  0.1386
  291MOL0     C38326  10.775   0.781   6.451  0.0981 -0.4291  0.0779
  291MOL0     O38327  10.924   0.786   6.110 -0.6190 -0.4520  0.2785
  291MOL0     C38328  11.243   0.816   6.261 -0.3915 -0.4705 -0.7523
  291MOL0     C38329  11.366   0.855   6.229  0.4386  0.9580  0.0277
  291MOL0     N38330  12.076   1.100   6.100 -0.1699  0.6042 -0.3820
  291MOL0     N38331  12.121   1.079   5.981  0.6652  0.2473 -0.8482
  291MOL0     C38332  11.212   0.464   6.031 -1.3050  0.6344 -0.1576
  291MOL0     C38333  11.074   0.438   6.047  0.1698 -0.0427 -0.5349
  291MOL0     C38334  10.692   0.265   5.896  0.0565  0.6441 -0.2590
  291MOL0     C38335  10.592   0.347   5.945 -0.4013 -0.6287 -0.7972
  291MOL0     C38336  10.461   0.316   5.925  0.4129 -0.0191  0.3877
  291MOL0     C38337  10.417   0.197   5.866  0.7412  0.0522 -0.0319
  291MOL0     O38338  10.286   0.151   5.862 -0.1802 -0.2787  0.4268
  291MOL0     C38339  10.173   0.237   5.894 -0.0523 -0.2439 -0.2416
  291MOL0     C38340  10.052   0.158   5.918  0.4394  0.8804  0.5064
  291MOL0     C38341   9.912   0.225   5.937  1.0204  0.7227  0.2944
  291MOL0     C38342   9.800   0.143   5.872  0.3279  0.4244  0.0675
  291MOL0     C38343   9.797   0.004   5.907 -0.0398  0.3281  0.7090
  291MOL0     C38344   9.781  -0.115   5.935  0.0537  0.1647 -0.5211
  291MOL0     C38345  10.518   0.114   5.806  0.0364  0.1749 -0.4848
  291MOL0     C38346  10.650   0.149   5.822 -0.7544  0.0639  0.0401
  291MOL0     H38347  10.994   0.512   5.725 -1.7832 -1.9019  0.4201
  291MOL0     H38348  11.234   0.532   5.699  1.1163 -0.4672 -0.5588
  291MOL0     H38349  11.390   0.685   5.804 -1.3788 -0.3343  0.1168
  291MOL0     H38350  11.485   0.543   5.727  1.1542  2.5668 -0.8270
  291MOL0     H38351  11.674   0.579   5.851  0.4466  0.4222 -2.7192
  291MOL0     H38352  11.581   0.694   5.962 -1.7818  0.0317 -0.7858
  291MOL0     H38353  11.621   0.875   5.819  1.2877  1.4536 -2.3249
  291MOL0     H38354  11.598   0.785   5.674  1.1795  0.4786 -0.1591
  291MOL0     H38355  11.837   0.729   5.840  0.0054  2.3526  1.4562
  291MOL0     H38356  11.800   0.689   5.672 -1.6629  1.3157 -1.9190
  291MOL0     H38357  11.806   0.924   5.605  1.3387  0.6996 -0.5331
  291MOL0     H38358  11.961   0.866   5.661 -0.0050 -1.0977 -0.1400
  291MOL0     H38359  11.925   0.997   5.873  1.2762  1.5189  0.1892
  291MOL0     H38360  11.765   1.048   5.800  0.0852  0.3284 -1.7366
  291MOL0     H38361  11.939   1.119   5.601 -0.5448  0.5336  0.5876
  291MOL0     H38362  11.860   1.219   5.716  0.6077  0.0153  0.4308
  291MOL0     H38363  12.105   1.276   5.715  2.9384 -1.8915 -1.1701
  291MOL0     H38364  12.143   1.107   5.728 -0.7202 -0.9722  0.7039
  291MOL0     H38365  11.938   1.356   5.959  0.0248  0.8817  1.8193
  291MOL0     H38366  11.877   1.354   6.211 -0.8607 -0.6503 -1.5899
  291MOL0     H38367  11.989   1.252   6.313  0.3608 -3.2759 -0.3741
  291MOL0     H38368  11.751   1.200   6.342  2.3716 -0.8729  1.5671
  291MOL0     H38369  11.857   1.069   6.276  2.7105  1.1108 -1.6693
  291MOL0     H38370  11.674   1.199   6.079 -0.6662  0.2120  0.4133
  291MOL0     H38371  11.770   1.049   6.070  1.5240  0.0338  1.7720
  291MOL0     H38372  11.535   1.072   6.247  1.6167  2.6573 -1.1185
  291MOL0     H38373  11.642   0.927   6.230  0.5572  1.0909  1.6070
  291MOL0     H38374  11.313   0.943   5.903  1.3643 -0.9003 -0.1777
  291MOL0     H38375  11.105   0.836   5.953  0.8175 -2.3620  0.0146
  291MOL0     H38376  10.859   0.545   6.225  0.4384  2.7460 -0.9368
  291MOL0     H38377  10.645   0.448   6.317  1.1227 -0.5606 -0.6654
  291MOL0     H38378  10.450   0.611   6.682  0.3223  2.8551 -3.4989
  291MOL0     H38379  10.578   0.490   6.672  0.6053  0.3185 -2.2012
  291MOL0     H38380  10.401   0.358   6.753  0.1021 -1.3578 -1.0994
  291MOL0     H38381  10.408   0.324   6.583  1.2331  0.4574  0.4876
  291MOL0     H38382  10.216   0.481   6.547 -3.7047  0.8236  0.3338
  291MOL0     H38383  10.230   0.542   6.707 -1.4625 -1.1480  2.5118
  291MOL0     H38384  10.157   0.255   6.596 -0.7764  0.8003 -0.8453
  291MOL0     H38385  10.173   0.286   6.778  2.5313  1.4603  0.4463
  291MOL0     H38386   9.990   0.430   6.573 -1.8257  3.4955  1.7080
  291MOL0     H38387  10.017   0.469   6.737  0.8148  0.9067 -1.5438
  291MOL0     H38388   9.910   0.252   6.809 -1.2823 -1.6462 -0.6048
  291MOL0     H38389   9.912   0.204   6.642 -0.8534  0.6144  0.0184
  291MOL0     H38390   9.743   0.344   6.577  1.1958  1.3303 -0.1773
  291MOL0     H38391   9.685   0.248   6.709 -1.6828  0.0822 -1.4459
  291MOL0     H38392   9.609   0.489   6.718  0.4205  0.1506 -1.3407
  291MOL0     H38393   9.784   0.535   6.731 -0.7915  0.1857 -0.8797
  291MOL0     H38394  10.602   0.802   6.576 -1.2393  0.4843 -1.4658
  291MOL0     H38395  10.791   0.878   6.496  1.4213 -0.3436 -0.5482
  291MOL0     H38396  11.229   0.779   6.362 -1.2841 -0.9290 -1.0381
  291MOL0     H38397  11.439   0.846   6.309  0.5721  2.6707  0.1345
  291MOL0     H38398  11.272   0.450   6.120 -0.5183 -1.6089 -0.9641
  291MOL0     H38399  11.039   0.395   6.140  2.7553 -0.7392  0.2099
  291MOL0     H38400  10.621   0.442   5.988  1.2872 -1.3633 -0.2346
  291MOL0     H38401  10.388   0.379   5.976 -1.1951 -1.8538  0.4668
  291MOL0     H38402  10.155   0.319   5.823  1.0502  0.6872  0.5236
  291MOL0     H38403  10.188   0.285   5.991 -0.1467 -0.0419 -0.3253
  291MOL0     H38404  10.036   0.085   5.838 -0.9300 -0.9502  2.3034
  291MOL0     H38405  10.072   0.097   6.007  1.3080  2.4777  1.4504
  291MOL0     H38406   9.900   0.323   5.889  0.9407 -1.6077 -5.2700
  291MOL0     H38407   9.885   0.233   6.042  0.4208  3.7351 -0.0039
  291MOL0     H38408   9.706   0.179   5.917  1.6868  2.0090  1.8179
  291MOL0     H38409   9.797   0.160   5.764 -0.3354 -0.1356 -0.0060
  291MOL0     H38410   9.779  -0.212   5.981  0.6850  0.8582  1.0477
  291MOL0     H38411  10.483   0.020   5.764 -2.1880  0.4655  0.5844
  291MOL0     H38412  10.727   0.086   5.779 -2.1621 -1.5230 -0.2452
  292MOL0     O38413   7.041   1.524   9.541  0.4460  0.2499  0.0378
  292MOL0     C38414   7.105   1.611   9.478  1.2380 -0.6726  0.7321
  292MOL0     O38415   7.040   1.716   9.422 -0.1378 -0.1248  0.3675
  292MOL0     C38416   6.903   1.723   9.428 -0.0185 -0.7737 -1.8508
  292MOL0     C38417   6.818   1.619   9.383 -0.5788  0.1216  0.0123
  292MOL0     C38418   6.680   1.654   9.359 -0.5771 -0.3202 -0.3481
  292MOL0     C38419   6.625   1.779   9.393 -0.8410 -0.1409 -0.2276
  292MOL0     O38420   6.491   1.798   9.355  0.3254  0.0088  0.0479
  292MOL0     C38421   6.402   1.724   9.439 -0.5442 -0.1819 -0.1847
  292MOL0     C38422   6.264   1.697   9.372 -0.3472  0.6251 -0.1961
  292MOL0     C38423   6.277   1.614   9.241 -0.6011 -0.2005 -1.0877
  292MOL0     C38424   6.141   1.549   9.205 -0.2201 -0.2925 -0.0829
  292MOL0     C38425   6.066   1.640   9.104 -0.1644  0.8083 -0.0751
  292MOL0     C38426   5.949   1.577   9.028  0.0994  0.2228 -0.1557
  292MOL0     C38427   5.839   1.544   9.130 -0.0767  1.0267  0.3989
  292MOL0     C38428   5.725   1.475   9.063 -1.4385 -0.7066 -0.3744
  292MOL0     N38429   5.618   1.441   9.157 -0.1718 -0.3886  0.0457
  292MOL0     C38430   5.519   1.530   9.174 -0.4404  0.3101 -0.7143
  292MOL0     C38431   5.428   1.451   9.222 -0.4523 -0.0545  0.3323
  292MOL0     C38432   5.284   1.507   9.244 -0.4383 -0.7611  0.1546
  292MOL0     C38433   5.178   1.412   9.185  0.2573 -0.3598  0.1948
  292MOL0     C38434   5.044   1.472   9.205 -0.4008  0.5869 -0.0705
  292MOL0     C38435   4.941   1.432   9.093  1.1288  0.2823 -0.1408
  292MOL0     O38436   4.809   1.437   9.149 -0.0077  1.0767  0.2358
  292MOL0     C38437   4.705   1.450   9.057 -0.6925  0.0803 -0.8713
  292MOL0     C38438   4.715   1.490   8.923  0.4140 -0.3281  0.2294
  292MOL0     C38439   4.597   1.508   8.855  0.6612 -0.0113  0.6196
  292MOL0     C38440   4.469   1.503   8.910  0.1976 -0.0530  0.5024
  292MOL0     C38441   4.353   1.512   8.824  0.2543 -0.3370 -0.4588
  292MOL0     O38442   4.228   1.526   8.880 -0.2408  0.9460 -0.2633
  292MOL0     C38443   4.120   1.570   8.804  0.3143 -0.7743 -0.3408
  292MOL0     C38444   4.137   1.677   8.711  0.3198  0.2838 -0.4954
  292MOL0     C38445   4.016   1.730   8.649 -0.3197 -0.0480  0.3520
  292MOL0     C38446   3.892   1.676   8.678 -0.6078  0.6528  0.4824
  292MOL0     O38447   3.798   1.759   8.631 -0.0494 -0.2930  0.1031
  292MOL0     C38448   3.665   1.739   8.682  0.0334  0.0081 -0.2154
  292MOL0     C38449   3.562   1.849   8.664  0.8077 -0.6232 -0.0453
  292MOL0     C38450   3.518   1.878   8.520 -0.5549 -0.1684 -0.0983
  292MOL0     C38451   3.380   1.953   8.513  0.2656 -0.0082 -0.8028
  292MOL0     C38452   3.360   2.009   8.375  0.3045  0.5682 -0.9048
  292MOL0     C38453   3.223   2.082   8.364  0.2045 -0.1060 -0.3567
  292MOL0     C38454   3.208   2.148   8.224 -0.0571 -0.4976 -0.5578
  292MOL0     C38455   3.063   2.198   8.188 -1.1395  0.1291 -0.5497
  292MOL0    Cl38456   2.993   2.303   8.322 -0.1356 -0.2956 -0.2521
  292MOL0     C38457   3.882   1.568   8.761  0.0828  0.0957 -0.4412
  292MOL0     C38458   3.996   1.522   8.835  0.4641  0.5906  0.0820
  292MOL0     O38459   4.373   1.491   8.705 -0.1031  0.1037 -0.0449
  292MOL0     C38460   4.457   1.463   9.037  0.6966  0.6747 -0.7203
  292MOL0     C38461   4.578   1.428   9.109  1.1897 -0.8224  0.2351
  292MOL0     N38462   5.467   1.322   9.231  0.8489  0.3681 -0.1818
  292MOL0     N38463   5.588   1.313   9.193  1.0262  0.1558 -0.2994
  292MOL0     C38464   6.710   1.876   9.449  0.0301 -0.3405  0.0401
  292MOL0     C38465   6.853   1.851   9.472  0.1444 -0.1967  1.4636
  292MOL0     C38466   7.248   1.622   9.477  0.7299  0.0465 -0.5678
  292MOL0     C38467   7.319   1.513   9.543  0.0990 -1.5508  0.3076
  292MOL0     C38468   7.463   1.521   9.540  0.8340 -0.1191  0.0108
  292MOL0     C38469   7.524   1.629   9.472 -0.1103  0.4272 -0.9969
  292MOL0     O38470   7.659   1.630   9.452 -0.7059 -0.4514  0.5397
  292MOL0     C38471   7.745   1.524   9.502  0.7590 -1.0841  0.0193
  292MOL0     C38472   7.876   1.519   9.427 -0.2989  0.5663 -0.4169
  292MOL0     C38473   7.879   1.438   9.292 -0.0189 -0.4683 -1.1822
  292MOL0     C38474   8.020   1.444   9.228 -0.4976 -0.3645 -0.2454
  292MOL0     C38475   8.121   1.367   9.308 -0.9453 -0.1039 -0.2485
  292MOL0     C38476   8.210   1.297   9.366  0.2765  0.5152 -1.0110
  292MOL0     C38477   7.454   1.730   9.410  0.6993 -1.0154  0.1060
  292MOL0     C38478   7.311   1.728   9.412 -0.4051  0.0575  0.0539
  292MOL0     H38479   6.860   1.522   9.360 -1.5062 -0.8612  2.2428
  292MOL0     H38480   6.618   1.573   9.324  0.9602 -1.9801  0.5865
  292MOL0     H38481   6.386   1.797   9.519  0.4126  0.4732 -0.5719
  292MOL0     H38482   6.449   1.636   9.485 -0.9397 -1.3398 -1.8771
  292MOL0     H38483   6.215   1.793   9.350 -2.0246 -0.1267  0.1331
  292MOL0     H38484   6.207   1.642   9.446 -1.9885  2.4812 -0.0010
  292MOL0     H38485   6.343   1.530   9.262 -2.7116 -2.2348 -2.0354
  292MOL0     H38486   6.308   1.671   9.153 -2.4143  0.6635 -1.2259
  292MOL0     H38487   6.157   1.452   9.157  1.3380 -2.1941  3.8580
  292MOL0     H38488   6.077   1.533   9.292  0.1531 -2.1802 -0.1196
  292MOL0     H38489   6.132   1.671   9.022 -1.8601  3.3097 -0.6058
  292MOL0     H38490   6.024   1.728   9.154  0.3498 -0.2167  2.3016
  292MOL0     H38491   5.990   1.488   8.980 -0.2127 -0.1676  0.3005
  292MOL0     H38492   5.909   1.642   8.950 -0.5919  1.3649  1.1064
  292MOL0     H38493   5.873   1.478   9.211 -0.0913 -0.2877 -0.6412
  292MOL0     H38494   5.798   1.631   9.182  0.2982  0.1408  2.2716
  292MOL0     H38495   5.757   1.380   9.020 -0.9080 -0.2864 -0.9191
  292MOL0     H38496   5.689   1.524   8.972 -1.7137 -1.5096 -0.7103
  292MOL0     H38497   5.507   1.636   9.154 -2.0111  0.2071 -0.3908
  292MOL0     H38498   5.278   1.601   9.190  0.4701 -1.0001 -0.3905
  292MOL0     H38499   5.287   1.528   9.352  1.9015  0.5023 -0.0779
  292MOL0     H38500   5.181   1.320   9.245  0.9449  1.0842  2.5366
  292MOL0     H38501   5.196   1.394   9.079 -0.4297  0.1043 -0.0037
  292MOL0     H38502   5.014   1.444   9.306  0.2132  0.0782 -0.0207
  292MOL0     H38503   5.057   1.581   9.207 -0.1725  0.5548  0.3177
  292MOL0     H38504   4.964   1.332   9.056  1.7483 -0.2716  1.6098
  292MOL0     H38505   4.947   1.502   9.010  0.4478  2.6444  1.6715
  292MOL0     H38506   4.803   1.513   8.864  0.1623 -0.0307 -0.0314
  292MOL0     H38507   4.616   1.528   8.750 -0.6521  1.9573  0.7157
  292MOL0     H38508   4.235   1.717   8.688  1.0785 -0.1917  1.6795
  292MOL0     H38509   4.022   1.817   8.585 -1.9747 -0.3114 -0.2024
  292MOL0     H38510   3.677   1.722   8.789 -2.3347  0.7542  0.2180
  292MOL0     H38511   3.621   1.647   8.642 -1.4905  0.2040  0.9341
  292MOL0     H38512   3.601   1.938   8.716 -1.1235  0.7691 -0.8734
  292MOL0     H38513   3.478   1.825   8.730  0.3134 -1.6442 -1.0340
  292MOL0     H38514   3.513   1.787   8.459  2.1773 -0.2076 -0.3868
  292MOL0     H38515   3.600   1.940   8.483 -0.7943  0.3100  0.1665
  292MOL0     H38516   3.304   1.878   8.540 -2.9340  3.3977  0.4546
  292MOL0     H38517   3.373   2.042   8.577  0.5152  0.2468 -1.1281
  292MOL0     H38518   3.356   1.919   8.313 -1.4680 -0.7220  0.9453
  292MOL0     H38519   3.444   2.074   8.350  0.7554  0.0078 -0.8744
  292MOL0     H38520   3.206   2.155   8.444  3.5626  1.3362 -0.7819
  292MOL0     H38521   3.152   1.999   8.368 -0.1974  0.0627 -2.5883
  292MOL0     H38522   3.275   2.233   8.227 -0.7478  0.0528  2.0067
  292MOL0     H38523   3.227   2.080   8.140 -1.4920  1.2411 -2.3948
  292MOL0     H38524   2.995   2.114   8.172  0.0287 -0.5328 -2.4383
  292MOL0     H38525   3.059   2.253   8.093 -1.9726  0.5496 -0.2803
  292MOL0     H38526   3.784   1.527   8.783  1.0305 -1.3232  1.4469
  292MOL0     H38527   3.989   1.446   8.912 -0.6152  1.3633  0.7802
  292MOL0     H38528   4.361   1.461   9.088 -0.1284  0.9590 -2.2325
  292MOL0     H38529   4.565   1.390   9.210 -1.7893  0.8178  0.5616
  292MOL0     H38530   6.671   1.976   9.464 -1.4337 -0.9597  0.5217
  292MOL0     H38531   6.928   1.923   9.501  2.1740 -1.3549 -0.6023
  292MOL0     H38532   7.275   1.427   9.593  1.8423 -3.0091 -0.5310
  292MOL0     H38533   7.518   1.453   9.605  3.6131  2.0378  0.1146
  292MOL0     H38534   7.706   1.426   9.474  0.4777 -0.8655 -0.3670
  292MOL0     H38535   7.757   1.533   9.611 -2.7011  0.7564  0.3879
  292MOL0     H38536   7.918   1.619   9.418 -0.6322  0.9519  1.7776
  292MOL0     H38537   7.939   1.450   9.484 -3.0538 -1.7022  0.1706
  292MOL0     H38538   7.806   1.492   9.231 -1.5283  3.3807  3.3802
  292MOL0     H38539   7.846   1.336   9.308 -1.0843  0.1708  1.1318
  292MOL0     H38540   8.019   1.405   9.126  0.2893  1.3356 -0.9309
  292MOL0     H38541   8.048   1.549   9.237 -1.2782 -0.2777  1.4873
  292MOL0     H38542   8.277   1.228   9.413 -0.3749 -1.1617 -2.4352
  292MOL0     H38543   7.504   1.808   9.354 -0.8904 -0.4859 -0.6446
  292MOL0     H38544   7.243   1.800   9.367 -0.8467 -0.6452 -0.4144
  293MOL0     O38545   3.475   6.958   9.322 -0.3951 -0.7695 -0.0282
  293MOL0     C38546   3.445   7.041   9.232  0.3281 -0.5272  0.2066
  293MOL0     O38547   3.320   7.054   9.184 -0.5052  0.4100 -0.5664
  293MOL0     C38548   3.211   6.986   9.235 -0.4659  0.3288  0.1104
  293MOL0     C38549   3.094   7.058   9.223 -0.4114  0.2226 -0.3296
  293MOL0     C38550   2.973   7.005   9.270  0.0193 -0.9215 -0.8747
  293MOL0     C38551   2.960   6.881   9.316 -0.1747  0.3812 -0.4717
  293MOL0     O38552   2.837   6.819   9.346  0.3019 -0.2741  0.6505
  293MOL0     C38553   2.710   6.899   9.341 -0.0650 -0.5563  0.3055
  293MOL0     C38554   2.598   6.809   9.363 -0.1710  0.3373 -0.7114
  293MOL0     C38555   2.461   6.867   9.336 -0.4119  0.0693  0.6645
  293MOL0     C38556   2.353   6.759   9.336 -0.0821 -0.2004  0.0917
  293MOL0     C38557   2.225   6.824   9.294 -0.6572 -0.2246  0.1322
  293MOL0     C38558   2.109   6.726   9.312 -0.3520  0.5549  0.1495
  293MOL0     C38559   2.040   6.715   9.447 -0.3655 -0.3125  0.1529
  293MOL0     C38560   1.949   6.842   9.464 -0.0905 -0.7266  0.3349
  293MOL0     N38561   1.805   6.807   9.421 -0.4816 -1.1304  0.1448
  293MOL0     C38562   1.710   6.792   9.512 -0.2125 -0.8604 -0.3928
  293MOL0     C38563   1.588   6.795   9.433 -0.1370  0.2365 -1.0329
  293MOL0     C38564   1.450   6.806   9.485  0.5742 -0.6042 -0.6898
  293MOL0     C38565   1.366   6.890   9.389 -0.1867  0.6846 -0.6536
  293MOL0     C38566   1.323   6.811   9.260 -0.4773  0.2510  0.7174
  293MOL0     C38567   1.178   6.760   9.280 -0.2774  0.4628 -0.3683
  293MOL0     O38568   1.115   6.703   9.159 -0.8346 -0.6178  0.5802
  293MOL0     C38569   0.979   6.671   9.148 -1.0368  0.9985  0.5446
  293MOL0     C38570   0.929   6.644   9.021  0.2607 -0.2017  0.1726
  293MOL0     C38571   0.792   6.607   9.000  0.3061  0.0196 -0.5232
  293MOL0     C38572   0.708   6.598   9.120  0.1711 -0.4431  0.5841
  293MOL0     C38573   0.567   6.569   9.088 -0.4108 -0.1875  0.6653
  293MOL0     O38574   0.531   6.581   8.951 -0.3791 -0.0720 -0.1672
  293MOL0     C38575   0.423   6.529   8.898 -0.3710  0.4837 -0.0176
  293MOL0     C38576   0.385   6.595   8.782  0.2093 -0.0144  0.1765
  293MOL0     C38577   0.267   6.548   8.712  0.2505 -0.5552 -0.0550
  293MOL0     C38578   0.203   6.435   8.754  0.7449  0.3282 -0.2576
  293MOL0     O38579   0.108   6.378   8.664 -0.6124  0.3370 -0.3047
  293MOL0     C38580   0.103   6.227   8.660 -0.1128 -0.8241 -1.4684
  293MOL0     C38581   0.006   6.185   8.556 -0.1751  0.4558 -0.1019
  293MOL0     C38582  -0.042   6.043   8.553 -0.2439  0.2640  0.0305
  293MOL0     C38583  -0.138   6.000   8.441  0.1688 -0.2190  0.4024
  293MOL0     C38584  -0.291   6.007   8.459  0.7638 -0.1854  0.2300
  293MOL0     C38585  -0.370   5.982   8.329 -0.1496  0.7603  0.1384
  293MOL0     C38586  -0.519   5.977   8.365 -0.1990  0.4831  0.2183
  293MOL0     C38587  -0.605   5.985   8.247 -0.2369 -0.4235  0.6937
  293MOL0    Cl38588  -0.626   5.844   8.144  0.1845 -0.1125 -0.1288
  293MOL0     C38589   0.239   6.376   8.876  0.5429 -0.1006 -0.6499
  293MOL0     C38590   0.348   6.426   8.954 -0.0489  0.0056 -0.1295
  293MOL0     O38591   0.496   6.550   9.187 -0.0977 -0.3519  0.1589
  293MOL0     C38592   0.768   6.616   9.249 -0.3517 -0.0521  0.3100
  293MOL0     C38593   0.901   6.654   9.259  0.3494 -0.7770  0.4698
  293MOL0     N38594   1.625   6.802   9.298 -0.2511 -0.4056 -0.2309
  293MOL0     N38595   1.752   6.816   9.297  0.7195  0.2419 -0.6691
  293MOL0     C38596   3.081   6.798   9.331  0.1531 -0.4652  1.1230
  293MOL0     C38597   3.203   6.856   9.290  0.3214 -0.1615  0.3872
  293MOL0     C38598   3.548   7.140   9.179  0.0347  0.4380 -0.2527
  293MOL0     C38599   3.494   7.260   9.130  0.0610 -0.9441  0.1902
  293MOL0     C38600   3.580   7.371   9.123  0.4331  0.7254  0.7837
  293MOL0     C38601   3.717   7.358   9.142  0.6363 -0.0186  0.0064
  293MOL0     O38602   3.800   7.452   9.114  0.2982  0.8199 -0.0920
  293MOL0     C38603   3.771   7.555   9.015  0.0552  0.1670  0.1281
  293MOL0     C38604   3.907   7.612   8.983 -0.3750 -0.0655 -0.2246
  293MOL0     C38605   3.991   7.532   8.887 -0.2296 -0.2894  0.4412
  293MOL0     C38606   4.131   7.593   8.866 -0.7894  0.1298 -0.3531
  293MOL0     C38607   4.223   7.525   8.777 -0.0185 -0.5141  0.4735
  293MOL0     C38608   4.307   7.473   8.716 -0.2323 -0.2727  0.9108
  293MOL0     C38609   3.764   7.238   9.192 -0.7194  0.0347  0.0910
  293MOL0     C38610   3.684   7.129   9.221  0.1708  0.0600 -0.7683
  293MOL0     H38611   3.093   7.151   9.168  0.7918  0.8064  0.5702
  293MOL0     H38612   2.885   7.067   9.254 -0.3017 -0.9164  0.7315
  293MOL0     H38613   2.708   6.958   9.249  0.3322 -1.3443 -0.2138
  293MOL0     H38614   2.711   6.975   9.420  1.0720 -0.4348  0.1999
  293MOL0     H38615   2.608   6.773   9.466  0.3561 -2.9390 -1.8071
  293MOL0     H38616   2.615   6.727   9.293  0.6589  1.6382 -2.0981
  293MOL0     H38617   2.457   6.927   9.245  0.9239  0.7886  1.0509
  293MOL0     H38618   2.457   6.943   9.415  0.0076 -0.2249  0.9742
  293MOL0     H38619   2.378   6.670   9.278  0.4971 -1.2559  1.8764
  293MOL0     H38620   2.344   6.715   9.436 -0.7931 -2.0966 -0.7541
  293MOL0     H38621   2.223   6.858   9.190  1.3748 -0.8084 -0.1455
  293MOL0     H38622   2.202   6.913   9.354 -2.0803 -0.8115  0.4894
  293MOL0     H38623   2.148   6.633   9.271  0.0396  1.8885 -2.7892
  293MOL0     H38624   2.030   6.760   9.244 -0.1408 -0.3454 -0.5641
  293MOL0     H38625   1.986   6.620   9.452  3.3694 -2.6610 -0.1561
  293MOL0     H38626   2.110   6.722   9.530 -0.7474  1.3441  0.3609
  293MOL0     H38627   1.984   6.934   9.417  0.3331 -1.0681 -0.0307
  293MOL0     H38628   1.953   6.863   9.571  2.6097  0.9866 -0.0048
  293MOL0     H38629   1.711   6.798   9.620 -1.2433  1.7953 -0.4520
  293MOL0     H38630   1.456   6.832   9.591 -0.0127 -4.8979  0.5795
  293MOL0     H38631   1.398   6.711   9.495 -2.0503  0.9499  2.1353
  293MOL0     H38632   1.423   6.979   9.359 -1.9523  1.9552 -0.4356
  293MOL0     H38633   1.287   6.937   9.448  3.2318  1.7588  3.5293
  293MOL0     H38634   1.335   6.863   9.165  4.0000 -1.7431 -0.0878
  293MOL0     H38635   1.384   6.720   9.255 -0.7962 -0.1512  2.9306
  293MOL0     H38636   1.118   6.845   9.315  1.0336 -0.1611  4.0979
  293MOL0     H38637   1.184   6.686   9.361  1.7284  1.8081  0.8088
  293MOL0     H38638   0.999   6.655   8.939 -0.0624 -1.8874 -0.3546
  293MOL0     H38639   0.751   6.579   8.903 -0.7577  0.2693 -0.1668
  293MOL0     H38640   0.447   6.680   8.754  0.6785  0.1265  1.5564
  293MOL0     H38641   0.246   6.601   8.620 -0.4272  0.7917  0.8410
  293MOL0     H38642   0.063   6.196   8.756  0.2333  1.7634 -0.4130
  293MOL0     H38643   0.196   6.175   8.635 -0.7772 -2.3148 -0.9697
  293MOL0     H38644   0.046   6.211   8.457 -0.6604 -1.4932 -0.8724
  293MOL0     H38645  -0.087   6.237   8.581  0.1712  1.0202  0.0249
  293MOL0     H38646  -0.085   6.020   8.651  1.0768 -0.8945  0.3714
  293MOL0     H38647   0.044   5.976   8.543  0.5809  0.6810  3.3376
  293MOL0     H38648  -0.096   6.052   8.354 -3.3788  1.3635 -0.5356
  293MOL0     H38649  -0.124   5.893   8.419 -1.6435 -1.1010  3.1157
  293MOL0     H38650  -0.317   6.111   8.483 -1.4444 -0.9792  1.5515
  293MOL0     H38651  -0.320   5.936   8.537  1.6033 -0.4733  0.2870
  293MOL0     H38652  -0.333   5.890   8.283 -1.1363 -0.6182  1.9438
  293MOL0     H38653  -0.366   6.072   8.267  2.1050  1.8704  1.7634
  293MOL0     H38654  -0.549   5.884   8.415 -1.8253  2.2227  2.6742
  293MOL0     H38655  -0.528   6.068   8.425  2.1709 -0.0967  1.5705
  293MOL0     H38656  -0.564   6.065   8.184  3.8041 -1.1990  2.0223
  293MOL0     H38657  -0.707   6.011   8.275 -0.6529  0.3639 -1.3393
  293MOL0     H38658   0.180   6.290   8.905  0.0897 -1.4852 -4.9524
  293MOL0     H38659   0.372   6.372   9.045  2.6853 -2.3133 -2.0680
  293MOL0     H38660   0.716   6.590   9.340  0.5568 -1.7463  0.3805
  293MOL0     H38661   0.945   6.684   9.354  1.7601  3.2479 -1.2320
  293MOL0     H38662   3.083   6.695   9.367 -1.5531 -0.6098  0.9004
  293MOL0     H38663   3.293   6.795   9.301 -0.3988 -2.1846 -3.2638
  293MOL0     H38664   3.388   7.283   9.120  0.2504  1.7645  2.8610
  293MOL0     H38665   3.527   7.461   9.095 -2.8106 -1.9377 -2.7025
  293MOL0     H38666   3.705   7.631   9.058 -1.0270  1.2240 -3.1701
  293MOL0     H38667   3.721   7.500   8.936  0.8850  0.3822 -0.5575
  293MOL0     H38668   3.883   7.702   8.925 -0.3168  1.2741  1.7100
  293MOL0     H38669   3.952   7.651   9.075  0.0428  2.2933 -1.3430
  293MOL0     H38670   3.953   7.532   8.784  3.1898 -2.5546 -0.9819
  293MOL0     H38671   3.998   7.426   8.909  1.1935 -0.2571  0.2469
  293MOL0     H38672   4.131   7.692   8.820  0.0814 -0.2564 -1.2108
  293MOL0     H38673   4.177   7.619   8.961  1.3345 -0.2108 -1.2374
  293MOL0     H38674   4.378   7.417   8.658 -2.4799 -1.1831 -1.1172
  293MOL0     H38675   3.869   7.230   9.217 -0.0115  2.9893 -1.4287
  293MOL0     H38676   3.724   7.039   9.267 -2.6876 -0.4383  0.9989
  294MOL0     O38677   6.771   9.355   8.362  0.6666  0.1857 -0.7260
  294MOL0     C38678   6.754   9.235   8.334  0.0994 -0.9191 -0.2241
  294MOL0     O38679   6.654   9.156   8.390  0.6609  1.0255  0.4639
  294MOL0     C38680   6.548   9.208   8.457  0.5227 -0.5404  0.2266
  294MOL0     C38681   6.418   9.181   8.414 -0.0865 -0.5995  0.6711
  294MOL0     C38682   6.302   9.232   8.480  1.2335 -0.3084 -0.1046
  294MOL0     C38683   6.309   9.292   8.613 -0.5745  0.7183 -0.2358
  294MOL0     O38684   6.204   9.348   8.679  0.6119  0.4111 -0.1232
  294MOL0     C38685   6.077   9.296   8.644  0.9679  0.6161  0.4741
  294MOL0     C38686   5.967   9.362   8.724  0.0213  0.0825 -0.1000
  294MOL0     C38687   5.824   9.349   8.667 -0.7503 -0.5190 -0.5154
  294MOL0     C38688   5.741   9.434   8.769 -1.0532  0.7469 -0.0747
  294MOL0     C38689   5.596   9.413   8.746 -0.4148 -0.7247  0.2340
  294MOL0     C38690   5.521   9.491   8.853  0.1134 -0.4583 -0.4501
  294MOL0     C38691   5.392   9.427   8.908  0.2087  0.5018 -0.2888
  294MOL0     C38692   5.293   9.530   8.977 -0.6435  0.5041  0.4207
  294MOL0     N38693   5.179   9.476   9.049 -0.7625  0.5614  0.3689
  294MOL0     C38694   5.058   9.451   8.986  0.2060  0.0053  0.1903
  294MOL0     C38695   4.977   9.413   9.086  0.2253 -0.0340  0.2712
  294MOL0     C38696   4.831   9.368   9.063  0.0181 -0.1383  0.4039
  294MOL0     C38697   4.830   9.207   9.035  0.2482 -0.2345  0.7146
  294MOL0     C38698   4.692   9.165   8.983 -0.9911 -0.2169  0.0459
  294MOL0     C38699   4.603   9.095   9.085 -0.2801  0.0007 -0.1483
  294MOL0     O38700   4.465   9.097   9.029 -0.5149  0.4653 -0.8029
  294MOL0     C38701   4.364   9.065   9.122 -1.1353  0.7634  0.6638
  294MOL0     C38702   4.234   9.110   9.078 -0.2169 -0.2055 -0.1457
  294MOL0     C38703   4.121   9.077   9.146  0.1057 -0.2956 -0.2978
  294MOL0     C38704   4.128   9.002   9.267  0.2892 -0.0261  0.7355
  294MOL0     C38705   3.998   8.969   9.332 -0.0903 -0.0141 -0.8663
  294MOL0     O38706   3.991   8.949   9.471  0.6623  0.0193  0.5861
  294MOL0     C38707   3.884   8.915   9.543  0.1177 -0.4949  0.1978
  294MOL0     C38708   3.752   8.889   9.500  0.6960  0.4333  0.4146
  294MOL0     C38709   3.652   8.855   9.593 -0.4588  0.1093 -0.1939
  294MOL0     C38710   3.670   8.863   9.732  0.2278  0.1113  0.2953
  294MOL0     O38711   3.571   8.836   9.824 -0.0425 -0.4011 -0.2975
  294MOL0     C38712   3.517   8.704   9.815  0.7153  0.6519 -0.0222
  294MOL0     C38713   3.362   8.709   9.830 -0.8722 -0.1303  0.7398
  294MOL0     C38714   3.282   8.579   9.817  0.5792  0.0029  0.1244
  294MOL0     C38715   3.302   8.481   9.928 -0.1641 -0.5358 -0.5817
  294MOL0     C38716   3.179   8.389   9.937  0.3108  0.2050  0.1163
  294MOL0     C38717   3.136   8.313   9.813  0.1414  0.6988  0.7311
  294MOL0     C38718   3.002   8.232   9.819 -0.5208 -0.1395 -0.2875
  294MOL0     C38719   3.034   8.083   9.829  0.2912 -0.2736  0.2291
  294MOL0    Cl38720   2.870   8.004   9.837 -0.2626  0.1814 -0.1839
  294MOL0     C38721   3.797   8.898   9.777  0.3388  0.2961 -0.1333
  294MOL0     C38722   3.898   8.923   9.684 -0.2246  0.0634 -0.3075
  294MOL0     O38723   3.904   8.969   9.251 -0.0480 -0.2634 -0.2040
  294MOL0     C38724   4.257   8.962   9.313 -0.0502 -0.0285  0.5196
  294MOL0     C38725   4.375   8.988   9.240  0.7116  0.1215  0.0193
  294MOL0     N38726   5.049   9.421   9.201  0.2639 -0.4306  0.0846
  294MOL0     N38727   5.164   9.474   9.181  1.1818  0.5554  0.2865
  294MOL0     C38728   6.437   9.300   8.665 -0.3351 -0.7057 -0.6785
  294MOL0     C38729   6.550   9.269   8.587  0.1977  0.1172 -0.5352
  294MOL0     C38730   6.857   9.173   8.246  0.1271  0.4595 -0.0964
  294MOL0     C38731   6.857   9.029   8.234  0.1521  0.3740 -0.6280
  294MOL0     C38732   6.953   8.969   8.161  0.4403  0.2562 -0.4367
  294MOL0     C38733   7.052   9.040   8.093 -0.8570  0.9068  0.3347
  294MOL0     O38734   7.156   8.977   8.024  0.3601 -0.9075  0.3751
  294MOL0     C38735   7.244   8.877   8.088 -0.9016  0.0084  0.6045
  294MOL0     C38736   7.387   8.903   8.047  0.7587 -0.2725 -0.2787
  294MOL0     C38737   7.453   9.006   8.146  0.1838 -0.3981 -0.3218
  294MOL0     C38738   7.440   8.969   8.295 -0.9960  0.0784  0.2331
  294MOL0     C38739   7.483   8.828   8.326 -0.6700  0.3895  0.5533
  294MOL0     C38740   7.519   8.711   8.327  0.5751  0.3335  0.4264
  294MOL0     C38741   7.061   9.180   8.102  0.0794  0.0740  0.0602
  294MOL0     C38742   6.962   9.244   8.176 -0.2723 -0.6877 -0.3892
  294MOL0     H38743   6.414   9.125   8.321  0.6278 -1.5386  1.1928
  294MOL0     H38744   6.205   9.244   8.432  1.6401  2.7554 -0.3671
  294MOL0     H38745   6.081   9.188   8.659  1.9058  0.6203  0.3177
  294MOL0     H38746   6.054   9.328   8.542  0.3379 -0.2959  0.3174
  294MOL0     H38747   5.986   9.469   8.736 -0.4624  0.2222 -0.5392
  294MOL0     H38748   5.980   9.321   8.825  0.3904  3.5805  1.4230
  294MOL0     H38749   5.789   9.245   8.662 -2.4630  0.0428 -0.8382
  294MOL0     H38750   5.828   9.397   8.569 -1.2315  0.4425 -0.0816
  294MOL0     H38751   5.765   9.394   8.868 -1.0494  1.1808  0.1017
  294MOL0     H38752   5.765   9.539   8.754 -0.5529  0.9311  1.7982
  294MOL0     H38753   5.564   9.308   8.742 -0.8602 -0.6970  2.0141
  294MOL0     H38754   5.569   9.462   8.652 -0.3231 -1.4901 -0.1979
  294MOL0     H38755   5.496   9.584   8.803  0.4605 -0.9358 -1.5473
  294MOL0     H38756   5.585   9.515   8.939 -0.0809 -3.5397  0.7143
  294MOL0     H38757   5.333   9.381   8.828 -0.8932 -0.5225  1.0636
  294MOL0     H38758   5.417   9.349   8.981 -2.6752  0.6300  0.9700
  294MOL0     H38759   5.276   9.615   8.910  0.4490  0.5103  0.1231
  294MOL0     H38760   5.357   9.572   9.055 -1.4192 -0.5573  1.6653
  294MOL0     H38761   5.031   9.453   8.881  1.8357 -1.6049 -0.3255
  294MOL0     H38762   4.781   9.416   8.978  2.1702 -1.0394 -1.4466
  294MOL0     H38763   4.784   9.395   9.159  0.6607  2.7894  0.0041
  294MOL0     H38764   4.852   9.150   9.126 -0.7684  0.1561  1.2223
  294MOL0     H38765   4.903   9.173   8.961 -2.7221 -2.5455 -1.3522
  294MOL0     H38766   4.640   9.250   8.938 -0.9165 -0.1788  0.0313
  294MOL0     H38767   4.715   9.090   8.907 -1.5945 -0.2243 -0.1320
  294MOL0     H38768   4.608   9.156   9.176 -1.5548 -0.5778  0.3362
  294MOL0     H38769   4.631   8.994   9.114  1.1822  0.3858 -0.1296
  294MOL0     H38770   4.229   9.164   8.985 -0.6684  1.1105  0.6189
  294MOL0     H38771   4.021   9.109   9.117 -1.0633 -2.4425  1.0939
  294MOL0     H38772   3.722   8.876   9.396 -0.1651  0.1044  0.6918
  294MOL0     H38773   3.559   8.828   9.543 -0.2246  1.6885 -1.5910
  294MOL0     H38774   3.579   8.650   9.887  0.8916  1.3329  0.3489
  294MOL0     H38775   3.548   8.657   9.722 -0.9611 -0.6166  0.0226
  294MOL0     H38776   3.328   8.777   9.751 -0.4540 -2.1573 -1.3081
  294MOL0     H38777   3.333   8.758   9.923 -1.5980  2.3282 -0.6871
  294MOL0     H38778   3.307   8.532   9.721 -3.4039  0.1411 -1.1724
  294MOL0     H38779   3.176   8.606   9.819  0.9643  1.7060 -0.4394
  294MOL0     H38780   3.389   8.418   9.905  1.6155  0.6515  2.3745
  294MOL0     H38781   3.329   8.532  10.021 -2.1671  1.5692 -1.0674
  294MOL0     H38782   3.098   8.451   9.977  0.2532  1.6107 -1.9977
  294MOL0     H38783   3.201   8.312  10.011  1.1631  0.3452  0.0134
  294MOL0     H38784   3.217   8.251   9.775 -1.1483 -0.3463 -0.4225
  294MOL0     H38785   3.136   8.391   9.737 -0.0110 -0.6673 -0.7158
  294MOL0     H38786   2.949   8.262   9.910 -1.1880 -0.6119 -0.5138
  294MOL0     H38787   2.939   8.255   9.733 -2.1788  1.0798  1.1565
  294MOL0     H38788   3.095   8.057   9.915  2.3757  1.6730 -0.5609
  294MOL0     H38789   3.089   8.051   9.740 -0.6617 -0.0838 -0.4473
  294MOL0     H38790   3.805   8.896   9.885  1.2440  0.9633 -0.1723
  294MOL0     H38791   3.999   8.942   9.717 -0.2036  0.8452 -0.8006
  294MOL0     H38792   4.250   8.904   9.404 -3.5484 -0.6105 -0.0102
  294MOL0     H38793   4.469   8.951   9.277  1.2799  1.2321 -0.2514
  294MOL0     H38794   6.458   9.337   8.765 -1.2268 -0.9340 -0.3966
  294MOL0     H38795   6.651   9.288   8.621 -0.4846  1.7843  0.6706
  294MOL0     H38796   6.789   8.970   8.294  2.4467  0.3378  2.1759
  294MOL0     H38797   6.959   8.862   8.178 -2.7218 -0.0872 -0.8917
  294MOL0     H38798   7.211   8.780   8.049 -2.3377  0.2826  1.0837
  294MOL0     H38799   7.219   8.883   8.194 -2.4339  0.5017  0.2348
  294MOL0     H38800   7.444   8.812   8.025 -2.7773 -2.4472 -1.2585
  294MOL0     H38801   7.380   8.957   7.952 -0.3041 -1.4126 -0.8709
  294MOL0     H38802   7.410   9.107   8.149 -1.9327 -1.2651  1.8753
  294MOL0     H38803   7.553   9.020   8.106  0.0595  0.6560 -0.2956
  294MOL0     H38804   7.502   9.042   8.349  1.6234 -4.0774  3.5015
  294MOL0     H38805   7.342   8.982   8.342 -0.7545 -0.4966  0.9151
  294MOL0     H38806   7.547   8.608   8.339  0.1646 -0.0509 -1.5686
  294MOL0     H38807   7.142   9.237   8.058  0.8276 -1.4646 -0.6261
  294MOL0     H38808   6.977   9.349   8.197 -0.9442 -0.9874  1.8798
  295MOL0     O38809   7.089   1.974   6.105  0.0871  0.5711  0.7237
  295MOL0     C38810   7.188   2.040   6.069 -0.5302 -0.1088 -1.3471
  295MOL0     O38811   7.196   2.177   6.044  0.2503 -0.6127 -0.1959
  295MOL0     C38812   7.078   2.243   6.082 -0.5064 -0.2952  0.5287
  295MOL0     C38813   7.088   2.338   6.182  0.1577  0.6192 -0.8132
  295MOL0     C38814   6.969   2.390   6.235  0.2434 -0.4565 -0.5613
  295MOL0     C38815   6.846   2.361   6.176 -0.3387 -0.6664 -0.1867
  295MOL0     O38816   6.739   2.402   6.243  0.5991 -0.2973 -0.8272
  295MOL0     C38817   6.621   2.442   6.167 -0.8750 -0.1545  0.2894
  295MOL0     C38818   6.530   2.497   6.279 -0.0723  0.8002 -0.6930
  295MOL0     C38819   6.393   2.555   6.227  0.0945 -0.1817 -1.2180
  295MOL0     C38820   6.300   2.464   6.157  0.0839  0.0215  0.3587
  295MOL0     C38821   6.178   2.544   6.103  0.1807  0.1558  0.3536
  295MOL0     C38822   6.134   2.465   5.975  0.2984  0.2742 -0.2638
  295MOL0     C38823   6.224   2.534   5.871  1.1095  0.3948  0.0084
  295MOL0     C38824   6.244   2.456   5.738  0.5573 -0.3765 -1.1027
  295MOL0     N38825   6.285   2.317   5.759  0.6716  0.8824 -0.1645
  295MOL0     C38826   6.418   2.268   5.770 -0.1647 -0.3664  0.6380
  295MOL0     C38827   6.396   2.136   5.774 -0.4640 -0.2451  0.1239
  295MOL0     C38828   6.505   2.035   5.781 -0.9419 -0.6896  0.2716
  295MOL0     C38829   6.484   1.930   5.882  0.1811  0.4746  0.2698
  295MOL0     C38830   6.588   1.820   5.859 -0.3200  0.1334  0.0812
  295MOL0     C38831   6.579   1.700   5.957  0.5385 -0.4338  0.6464
  295MOL0     O38832   6.617   1.750   6.088  0.2775 -0.0292  0.3204
  295MOL0     C38833   6.697   1.669   6.171 -0.1720  0.3540  0.0442
  295MOL0     C38834   6.655   1.540   6.212  0.6086 -1.2034 -0.3559
  295MOL0     C38835   6.742   1.467   6.294 -0.1900  0.0774 -0.4620
  295MOL0     C38836   6.870   1.510   6.322  1.0479 -0.0549 -0.3155
  295MOL0     C38837   6.951   1.422   6.412 -0.1232 -0.2359  1.3053
  295MOL0     O38838   7.080   1.463   6.443 -0.0918 -0.0779  0.8122
  295MOL0     C38839   7.161   1.398   6.536  0.4910 -0.7373  0.5882
  295MOL0     C38840   7.301   1.409   6.521  0.3917 -0.4940  0.2761
  295MOL0     C38841   7.382   1.392   6.635 -0.6391  0.0581 -1.0455
  295MOL0     C38842   7.336   1.360   6.756  0.5081 -1.0623  0.7002
  295MOL0     O38843   7.411   1.350   6.871  0.1563 -0.3813 -0.2244
  295MOL0     C38844   7.552   1.349   6.858 -0.6890 -0.4528  0.0386
  295MOL0     C38845   7.607   1.314   6.996  0.7518 -0.4331 -0.4599
  295MOL0     C38846   7.555   1.174   7.047  0.5348  0.7328  0.3594
  295MOL0     C38847   7.642   1.123   7.168 -0.1620 -0.1552 -0.2202
  295MOL0     C38848   7.572   1.011   7.258  0.9336  0.9463  0.7888
  295MOL0     C38849   7.444   1.044   7.343 -0.1793  0.2646 -1.1608
  295MOL0     C38850   7.468   1.156   7.451  0.0666  0.0731  0.5640
  295MOL0     C38851   7.346   1.149   7.552 -1.3465  0.0792  0.0138
  295MOL0    Cl38852   7.321   1.313   7.612 -0.5931  0.4960 -0.2303
  295MOL0     C38853   7.200   1.338   6.772  0.1777 -0.5232 -0.2795
  295MOL0     C38854   7.121   1.359   6.665 -0.0544 -0.3328  0.5380
  295MOL0     O38855   6.899   1.329   6.470  0.0118  0.2628 -0.0703
  295MOL0     C38856   6.900   1.645   6.286  0.0600 -0.5483  0.0743
  295MOL0     C38857   6.815   1.725   6.218  0.6660  1.1961  0.7267
  295MOL0     N38858   6.264   2.107   5.764  0.2187 -0.6858  0.1931
  295MOL0     N38859   6.200   2.214   5.757  0.3709  0.3625 -0.3046
  295MOL0     C38860   6.836   2.276   6.068  1.0923 -0.1599 -0.2065
  295MOL0     C38861   6.950   2.209   6.023  0.0385  0.3901  0.7980
  295MOL0     C38862   7.321   1.968   6.060 -0.2745 -0.3257 -0.1283
  295MOL0     C38863   7.331   1.832   6.093 -0.2622  0.8246 -0.4863
  295MOL0     C38864   7.451   1.767   6.086 -0.0027  0.9670  0.1892
  295MOL0     C38865   7.567   1.824   6.034  0.1872  0.0556 -1.2160
  295MOL0     O38866   7.679   1.750   6.030  0.3134 -0.0257  0.3957
  295MOL0     C38867   7.811   1.819   6.006  0.2705  0.8848 -0.0699
  295MOL0     C38868   7.920   1.713   5.970  0.1709 -0.2432  1.5175
  295MOL0     C38869   7.957   1.612   6.086  0.1556  0.3503 -0.2032
  295MOL0     C38870   8.072   1.521   6.040  0.7943 -0.1180 -0.2621
  295MOL0     C38871   8.186   1.580   5.974  0.4224 -0.4291 -0.1193
  295MOL0     C38872   8.287   1.614   5.930 -0.5152 -0.6899  0.2066
  295MOL0     C38873   7.563   1.969   6.020  1.0237  0.2041  1.3518
  295MOL0     C38874   7.440   2.034   6.026 -0.6062  0.6513  0.2091
  295MOL0     H38875   7.182   2.372   6.224  0.7241 -0.3420 -1.2466
  295MOL0     H38876   6.987   2.451   6.323  0.9089 -1.8928  0.3351
  295MOL0     H38877   6.574   2.364   6.108  0.3046 -0.1553 -0.7028
  295MOL0     H38878   6.644   2.521   6.094  1.6425 -2.0551 -1.1282
  295MOL0     H38879   6.592   2.572   6.328 -0.8399  0.0870  1.5109
  295MOL0     H38880   6.513   2.414   6.348  2.5010  1.1512  0.4840
  295MOL0     H38881   6.425   2.635   6.160 -0.1965  1.1642  0.1828
  295MOL0     H38882   6.347   2.594   6.319  1.8820 -0.2635 -0.2453
  295MOL0     H38883   6.352   2.406   6.080  0.6685 -0.2935  0.9835
  295MOL0     H38884   6.261   2.387   6.223 -2.6215 -1.4887 -2.7260
  295MOL0     H38885   6.214   2.644   6.082  0.5548 -0.3811 -1.8075
  295MOL0     H38886   6.104   2.543   6.184  0.0173 -2.5082  0.2672
  295MOL0     H38887   6.031   2.488   5.944 -0.7603 -2.5904  0.7971
  295MOL0     H38888   6.149   2.361   6.002 -1.7526  0.3069  1.2310
  295MOL0     H38889   6.180   2.627   5.834  0.1034 -1.0774 -2.8562
  295MOL0     H38890   6.324   2.550   5.914  1.1272  2.2456 -0.6508
  295MOL0     H38891   6.309   2.517   5.674  1.8546 -0.4615  0.1016
  295MOL0     H38892   6.147   2.455   5.687 -1.0974 -4.3740  1.6377
  295MOL0     H38893   6.516   2.314   5.777  0.8820 -1.7023 -2.8533
  295MOL0     H38894   6.599   2.087   5.804 -0.4103 -0.8899 -1.3070
  295MOL0     H38895   6.515   1.994   5.680 -2.2091  1.1481 -0.6597
  295MOL0     H38896   6.381   1.896   5.873  0.4593  0.2274 -3.0982
  295MOL0     H38897   6.497   1.977   5.980 -0.8653  1.8336 -0.2124
  295MOL0     H38898   6.585   1.780   5.757 -2.1126 -3.3541  1.3322
  295MOL0     H38899   6.684   1.869   5.875 -1.2222  2.4887 -1.2782
  295MOL0     H38900   6.640   1.613   5.932  1.6234 -0.4360  3.0450
  295MOL0     H38901   6.477   1.660   5.960 -0.0156  0.8760  4.0947
  295MOL0     H38902   6.557   1.502   6.184 -0.4297  0.1777  1.2148
  295MOL0     H38903   6.709   1.369   6.327  1.9748 -0.0732  1.5451
  295MOL0     H38904   7.338   1.427   6.420 -0.2567  0.1058  0.1416
  295MOL0     H38905   7.488   1.404   6.620 -0.7199 -0.6714 -2.3193
  295MOL0     H38906   7.596   1.443   6.823  1.5394 -1.3125  0.3518
  295MOL0     H38907   7.574   1.266   6.790 -1.2505 -0.0896 -0.5883
  295MOL0     H38908   7.575   1.389   7.070 -1.4137 -1.5047 -0.2253
  295MOL0     H38909   7.715   1.309   6.983  1.4403  0.7704  3.5053
  295MOL0     H38910   7.558   1.106   6.962  0.5779  0.1652  0.8014
  295MOL0     H38911   7.449   1.183   7.073  0.4885 -2.4314  1.7663
  295MOL0     H38912   7.740   1.089   7.136  0.7185  0.8126  1.3249
  295MOL0     H38913   7.669   1.206   7.234 -3.3674  1.1795 -0.3871
  295MOL0     H38914   7.656   0.968   7.313 -2.2851 -1.4474  4.4163
  295MOL0     H38915   7.541   0.930   7.191 -1.9675  0.3850  2.6003
  295MOL0     H38916   7.406   0.954   7.393  0.5857  1.6999  2.3111
  295MOL0     H38917   7.357   1.065   7.279 -1.2006  0.6898  0.3017
  295MOL0     H38918   7.558   1.131   7.507 -1.5127 -1.8603  2.4084
  295MOL0     H38919   7.479   1.250   7.397 -2.3577  2.0701  3.2295
  295MOL0     H38920   7.364   1.081   7.636  1.3105  0.2351 -0.3353
  295MOL0     H38921   7.257   1.110   7.501  0.0064 -1.2413 -1.4670
  295MOL0     H38922   7.154   1.306   6.865 -0.2385 -0.3470 -0.4253
  295MOL0     H38923   7.015   1.348   6.687 -0.5805  1.3341 -0.9028
  295MOL0     H38924   6.990   1.693   6.321 -0.4136  2.3781 -2.3562
  295MOL0     H38925   6.840   1.827   6.188 -0.2654  1.0718 -0.5445
  295MOL0     H38926   6.741   2.273   6.015 -0.9574  2.3479  2.9497
  295MOL0     H38927   6.925   2.129   5.954 -0.9112 -1.5074  3.1620
  295MOL0     H38928   7.248   1.764   6.110  0.7691 -0.3083  0.2258
  295MOL0     H38929   7.457   1.661   6.109  1.6622  0.8807 -0.4714
  295MOL0     H38930   7.834   1.871   6.100  1.5763 -2.2926  1.5274
  295MOL0     H38931   7.793   1.881   5.918 -1.2395 -0.8722 -1.0847
  295MOL0     H38932   7.889   1.666   5.877  0.4578  0.7256  0.9139
  295MOL0     H38933   7.999   1.785   5.945 -1.6890  1.2784 -0.4224
  295MOL0     H38934   7.869   1.554   6.114  1.3215 -1.2129  0.3835
  295MOL0     H38935   8.001   1.666   6.170  0.6094  2.4010 -1.6764
  295MOL0     H38936   8.116   1.466   6.124 -0.0346 -1.8080 -0.9104
  295MOL0     H38937   8.027   1.437   5.987  2.7800 -3.0457  2.3014
  295MOL0     H38938   8.384   1.650   5.902 -0.8808 -2.0052 -3.2859
  295MOL0     H38939   7.647   2.031   5.993 -0.0370  1.4761  0.8211
  295MOL0     H38940   7.457   2.141   6.024  0.7495  0.4847  1.2624
  296MOL0     O38941   9.344   4.824  10.387  0.0116  0.2658 -0.4076
  296MOL0     C38942   9.326   4.883  10.494 -0.5784  0.1662  0.1413
  296MOL0     O38943   9.215   4.952  10.531 -0.3918  0.3633 -0.2805
  296MOL0     C38944   9.097   4.952  10.470  0.1981  0.4371  1.0348
  296MOL0     C38945   9.085   4.957  10.331  0.9824  0.1059 -0.2831
  296MOL0     C38946   8.969   4.973  10.259  0.6648  0.9444  0.0071
  296MOL0     C38947   8.849   4.986  10.325  0.6494  0.5360 -0.9504
  296MOL0     O38948   8.738   5.008  10.248  0.0914 -0.4299  0.4774
  296MOL0     C38949   8.626   5.058  10.315  0.1129 -0.1898 -0.8077
  296MOL0     C38950   8.524   5.106  10.208 -0.2107 -0.5376 -0.3066
  296MOL0     C38951   8.399   5.178  10.272 -0.5196  0.3962 -0.1151
  296MOL0     C38952   8.308   5.215  10.159  0.6918 -0.7701 -0.9300
  296MOL0     C38953   8.195   5.302  10.208 -0.1436  0.4373 -0.2384
  296MOL0     C38954   8.111   5.336  10.086  0.4247 -0.1325 -0.4520
  296MOL0     C38955   7.981   5.385  10.148  0.4170  0.5884 -0.7307
  296MOL0     C38956   7.883   5.422  10.036 -0.4067  0.4360  0.4195
  296MOL0     N38957   7.742   5.421  10.075  0.4577 -0.1410  0.3111
  296MOL0     C38958   7.631   5.414   9.985 -0.2076  0.2757 -0.0103
  296MOL0     C38959   7.519   5.422  10.057 -0.5916 -0.8399 -0.3407
  296MOL0     C38960   7.383   5.441   9.998  0.5639 -0.2959  1.0000
  296MOL0     C38961   7.350   5.587  10.005  1.3402  0.2241  0.3293
  296MOL0     C38962   7.229   5.620   9.915  0.1928 -0.4557 -0.3273
  296MOL0     C38963   7.211   5.767   9.897  0.0235 -0.8339 -0.0760
  296MOL0     O38964   7.110   5.797   9.797 -0.4035 -0.1314 -0.1600
  296MOL0     C38965   6.980   5.764   9.830  0.8239 -0.0593  0.2745
  296MOL0     C38966   6.915   5.826   9.934  0.6581 -0.1015  0.3017
  296MOL0     C38967   6.783   5.789   9.970  0.8695 -0.1866 -0.8012
  296MOL0     C38968   6.713   5.692   9.900  0.1190  1.2391  0.9125
  296MOL0     C38969   6.568   5.664   9.927 -0.7643 -0.0171 -0.0674
  296MOL0     O38970   6.508   5.747  10.024  0.5210 -0.7962 -0.4233
  296MOL0     C38971   6.369   5.733  10.040 -0.2503  1.3980  0.2051
  296MOL0     C38972   6.293   5.815   9.949  0.5244 -0.2861 -0.3869
  296MOL0     C38973   6.154   5.818   9.957 -0.1159  0.3345  0.3443
  296MOL0     C38974   6.091   5.747  10.057  0.4966  0.2191 -0.4126
  296MOL0     O38975   5.950   5.747  10.073 -0.1135 -0.0529  0.3457
  296MOL0     C38976   5.892   5.868  10.106  0.1439  0.8461 -0.7059
  296MOL0     C38977   5.737   5.855  10.102  0.7632  0.8827  0.6533
  296MOL0     C38978   5.659   5.980  10.147  1.5242  0.4480  0.7784
  296MOL0     C38979   5.701   6.032  10.282  0.0031 -0.0368 -0.2264
  296MOL0     C38980   5.755   6.171  10.257 -0.0464 -0.1606 -0.2087
  296MOL0     C38981   5.812   6.239  10.373  1.1832 -0.0144  0.2243
  296MOL0     C38982   5.943   6.177  10.400 -0.6353  0.4132 -0.3598
  296MOL0     C38983   5.987   6.182  10.548  0.2809 -0.0541  0.1873
  296MOL0    Cl38984   5.860   6.104  10.646  0.2304 -0.1198 -0.5474
  296MOL0     C38985   6.162   5.664  10.143  0.2924  0.6081  0.0458
  296MOL0     C38986   6.299   5.648  10.135  0.1404 -0.3165  0.4773
  296MOL0     O38987   6.520   5.562   9.880 -0.5680 -0.1243 -0.3641
  296MOL0     C38988   6.781   5.626   9.792  0.4827 -0.0967 -0.1973
  296MOL0     C38989   6.915   5.669   9.760  0.2146  0.7534 -0.7682
  296MOL0     N38990   7.564   5.397  10.193  0.1751 -0.9384 -0.1838
  296MOL0     N38991   7.695   5.409  10.203  0.8063 -0.6148 -0.3496
  296MOL0     C38992   8.849   4.976  10.466  0.0844 -0.2342 -0.1349
  296MOL0     C38993   8.970   4.959  10.535  0.3602  0.0383 -0.0731
  296MOL0     C38994   9.443   4.887  10.580 -0.4023 -0.1280  0.4516
  296MOL0     C38995   9.557   4.810  10.559  0.0385  0.3715  1.0199
  296MOL0     C38996   9.668   4.832  10.641  0.1088  0.0430  0.5469
  296MOL0     C38997   9.663   4.917  10.747  0.5164  0.0157  0.2336
  296MOL0     O38998   9.767   4.937  10.840  0.2287  0.7987  0.2716
  296MOL0     C38999   9.867   4.838  10.864 -0.3259  0.3610  0.4116
  296MOL0     C39000   9.817   4.743  10.963 -0.1858 -0.3267  0.8415
  296MOL0     C39001   9.929   4.694  11.049 -0.5256  0.2285 -0.6575
  296MOL0     C39002   9.873   4.622  11.166  0.3504 -0.3809 -0.5314
  296MOL0     C39003   9.976   4.597  11.263  0.0051  0.6116  0.2859
  296MOL0     C39004  10.053   4.583  11.358  0.9525 -0.4906  0.3117
  296MOL0     C39005   9.546   4.991  10.777 -0.0249 -0.0771 -0.5507
  296MOL0     C39006   9.436   4.974  10.693 -0.2549  0.5090  0.0070
  296MOL0     H39007   9.169   4.937  10.266  0.1165 -0.0134 -1.3941
  296MOL0     H39008   8.978   4.986  10.152 -0.5701 -0.9444 -0.3861
  296MOL0     H39009   8.657   5.143  10.377  0.9829 -2.4134  2.0523
  296MOL0     H39010   8.570   4.989  10.379  1.3732 -1.4760 -1.0416
  296MOL0     H39011   8.492   5.021  10.147 -5.5444  0.3075  0.8231
  296MOL0     H39012   8.580   5.173  10.142 -1.0344  1.5761  1.0221
  296MOL0     H39013   8.426   5.266  10.330  1.6604 -0.0823 -0.3408
  296MOL0     H39014   8.351   5.102  10.335 -0.3419  0.4102  0.0370
  296MOL0     H39015   8.365   5.248  10.072 -0.2478  0.9966 -0.9096
  296MOL0     H39016   8.261   5.125  10.118 -0.9067 -0.5806  0.3515
  296MOL0     H39017   8.234   5.396  10.247 -1.2895  1.0197 -0.4611
  296MOL0     H39018   8.136   5.250  10.284 -2.1997  2.7393 -0.1491
  296MOL0     H39019   8.100   5.246  10.025  1.4495 -0.1895 -0.5583
  296MOL0     H39020   8.145   5.427  10.036 -1.8673  1.3521  0.5064
  296MOL0     H39021   7.937   5.308  10.212 -1.6368  2.4418  0.2006
  296MOL0     H39022   8.003   5.466  10.217  1.5653 -1.2533  1.1852
  296MOL0     H39023   7.882   5.350   9.953  0.3603  1.1208 -0.2073
  296MOL0     H39024   7.904   5.524  10.002  0.8385 -0.2941 -1.1709
  296MOL0     H39025   7.642   5.409   9.877 -0.6305  2.5854 -0.2115
  296MOL0     H39026   7.310   5.391  10.062 -0.1081  1.2521  1.4925
  296MOL0     H39027   7.374   5.398   9.898  0.8611 -0.0552  0.8700
  296MOL0     H39028   7.438   5.633   9.958  2.1414 -0.3133  1.2639
  296MOL0     H39029   7.341   5.629  10.105  2.2470 -0.0264  0.5284
  296MOL0     H39030   7.231   5.570   9.818  3.1536 -0.9080 -0.1189
  296MOL0     H39031   7.149   5.584   9.981 -0.8217  1.0626 -0.6893
  296MOL0     H39032   7.304   5.822   9.878  0.0383 -0.8895 -0.1602
  296MOL0     H39033   7.188   5.810   9.996  0.9889  2.3536 -1.1197
  296MOL0     H39034   6.972   5.906   9.982  1.5911 -0.9253  0.6016
  296MOL0     H39035   6.740   5.838  10.058 -1.3527  0.2009 -2.0254
  296MOL0     H39036   6.357   5.865   9.877  0.4998 -0.4188 -0.5009
  296MOL0     H39037   6.100   5.877   9.884 -0.8851 -1.2940 -0.4589
  296MOL0     H39038   5.922   5.956  10.048 -1.1940  0.7336 -1.6220
  296MOL0     H39039   5.924   5.896  10.207 -1.5447  0.7715 -0.1071
  296MOL0     H39040   5.705   5.767  10.158 -1.3521  0.9441 -0.3613
  296MOL0     H39041   5.716   5.841   9.995  2.4763 -1.1157  0.5293
  296MOL0     H39042   5.550   5.973  10.159  0.7959  0.5323 -3.8367
  296MOL0     H39043   5.677   6.065  10.081 -1.2527  1.6057  1.3672
  296MOL0     H39044   5.605   6.042  10.332 -0.2950 -4.9196  0.6733
  296MOL0     H39045   5.767   5.962  10.335 -0.8978 -0.9080 -0.2315
  296MOL0     H39046   5.676   6.237  10.220 -1.3627 -1.3851  0.3043
  296MOL0     H39047   5.837   6.163  10.185  1.0074 -1.4095  1.0668
  296MOL0     H39048   5.748   6.236  10.462  0.1084 -0.3331 -0.5379
  296MOL0     H39049   5.812   6.346  10.351  0.8147  0.2749  1.5234
  296MOL0     H39050   5.953   6.072  10.373  1.2418  0.7317 -1.1287
  296MOL0     H39051   6.022   6.215  10.334 -1.4277 -2.1091 -2.9700
  296MOL0     H39052   5.988   6.290  10.563  2.0493  0.0226 -0.2582
  296MOL0     H39053   6.088   6.145  10.565  0.6364 -0.1074 -1.8308
  296MOL0     H39054   6.106   5.614  10.222 -2.9096  2.2338 -0.9993
  296MOL0     H39055   6.357   5.598  10.212  1.3687 -1.1701 -0.9482
  296MOL0     H39056   6.722   5.567   9.722  0.4953  3.7527 -3.8484
  296MOL0     H39057   6.960   5.622   9.673 -0.5783  0.0335 -0.8051
  296MOL0     H39058   8.757   4.986  10.521 -0.0987 -2.3535  0.0100
  296MOL0     H39059   8.962   4.954  10.643 -2.2020 -3.1469 -0.2605
  296MOL0     H39060   9.561   4.738  10.477 -0.7314  2.0791 -0.5831
  296MOL0     H39061   9.753   4.773  10.607 -1.2192 -0.7915 -1.5447
  296MOL0     H39062   9.953   4.893  10.902  0.0476  0.3729 -0.4273
  296MOL0     H39063   9.898   4.785  10.773 -0.1230  0.1266  0.6187
  296MOL0     H39064   9.746   4.801  11.023 -1.8567 -0.6899 -0.6867
  296MOL0     H39065   9.761   4.664  10.913  0.7611 -0.3395 -0.2250
  296MOL0     H39066   9.977   4.780  11.097 -1.0275  0.9553 -1.4400
  296MOL0     H39067  10.008   4.637  10.999  1.2006  2.0056 -0.0946
  296MOL0     H39068   9.801   4.689  11.215  2.2436  1.2424  0.1965
  296MOL0     H39069   9.829   4.529  11.130  0.4181 -0.4605 -0.4119
  296MOL0     H39070  10.133   4.569  11.429  2.3109 -1.5134 -1.3625
  296MOL0     H39071   9.523   5.055  10.862 -1.9925  0.0688 -1.1417
  296MOL0     H39072   9.341   5.026  10.705 -1.5151 -1.3637 -1.2462
  297MOL0     O39073   1.515   1.121   8.161  0.0986 -0.3672 -0.4836
  297MOL0     C39074   1.599   1.058   8.226 -0.2630 -0.3589  0.6019
  297MOL0     O39075   1.578   0.984   8.336 -0.8499  0.8381  0.2362
  297MOL0     C39076   1.448   0.956   8.370  0.0231  0.8271  0.0104
  297MOL0     C39077   1.382   0.859   8.302  0.0626  1.0240 -0.8093
  297MOL0     C39078   1.258   0.818   8.344  0.6337  0.3571  0.4225
  297MOL0     C39079   1.190   0.883   8.449  0.2968  0.1861  0.3533
  297MOL0     O39080   1.065   0.839   8.496 -0.4170  0.3203  0.0431
  297MOL0     C39081   0.964   0.809   8.392  0.4201  0.3736 -0.4074
  297MOL0     C39082   0.950   0.653   8.387  0.0679  0.4587 -0.4993
  297MOL0     C39083   0.887   0.592   8.516 -0.6408 -0.0117 -0.2985
  297MOL0     C39084   0.858   0.444   8.504  0.3744 -0.3562  0.1875
  297MOL0     C39085   0.840   0.376   8.638 -1.1436 -0.4108 -0.2182
  297MOL0     C39086   0.810   0.227   8.635 -0.5238 -0.0887  0.0340
  297MOL0     C39087   0.735   0.167   8.752 -0.7158  0.2283 -0.5664
  297MOL0     C39088   0.797   0.196   8.889 -0.2276 -0.5745  0.0456
  297MOL0     N39089   0.941   0.167   8.901 -0.1031  0.1278  0.1079
  297MOL0     C39090   1.001   0.040   8.899 -0.3231  0.3294  0.2429
  297MOL0     C39091   1.132   0.062   8.901 -0.0963  0.1990 -1.1008
  297MOL0     C39092   1.236  -0.048   8.888 -0.0665 -0.0116 -0.8974
  297MOL0     C39093   1.274  -0.142   9.005 -0.6058 -0.7808  0.3693
  297MOL0     C39094   1.306  -0.071   9.131  0.5990 -0.2503 -0.7603
  297MOL0     C39095   1.184  -0.029   9.220  0.0121  0.1167 -0.6162
  297MOL0     O39096   1.102  -0.144   9.251  0.0779  0.3467 -0.3185
  297MOL0     C39097   0.983  -0.125   9.316  0.1655 -0.2274 -0.0258
  297MOL0     C39098   0.890  -0.225   9.305 -0.0009 -0.0813 -0.3669
  297MOL0     C39099   0.776  -0.228   9.385 -0.4778 -0.7138 -0.6194
  297MOL0     C39100   0.727  -0.113   9.443 -0.0426 -0.6727 -0.5320
  297MOL0     C39101   0.599  -0.099   9.494  1.3050  0.2719 -0.4001
  297MOL0     O39102   0.545  -0.207   9.551 -0.5797  0.1352  0.2355
  297MOL0     C39103   0.426  -0.202   9.627 -0.7988  0.9112  0.9418
  297MOL0     C39104   0.315  -0.280   9.591 -0.0404 -0.1416  0.2214
  297MOL0     C39105   0.200  -0.272   9.676  0.8938 -0.0414 -0.0000
  297MOL0     C39106   0.199  -0.198   9.796  0.1514 -1.3610  0.7827
  297MOL0     O39107   0.108  -0.204   9.897  0.2903  0.0083 -0.0550
  297MOL0     C39108  -0.008  -0.296   9.882  0.7291  0.0367 -0.0741
  297MOL0     C39109  -0.118  -0.259   9.778  0.0888 -0.2005 -1.1097
  297MOL0     C39110  -0.256  -0.341   9.798  0.0493 -0.1215 -0.4541
  297MOL0     C39111  -0.349  -0.251   9.885  0.8919 -0.8161 -0.9823
  297MOL0     C39112  -0.474  -0.332   9.901  0.0437 -0.2170  0.9121
  297MOL0     C39113  -0.554  -0.340   9.774  0.5285  0.2779  0.2003
  297MOL0     C39114  -0.698  -0.374   9.799 -0.1316  0.1845 -0.1664
  297MOL0     C39115  -0.788  -0.381   9.680  0.3076  0.0306 -1.0817
  297MOL0    Cl39116  -0.949  -0.413   9.746  0.1601  0.1753  0.3963
  297MOL0     C39117   0.302  -0.114   9.819  0.3756 -0.1981  0.6470
  297MOL0     C39118   0.416  -0.128   9.741 -1.0194  0.0060 -0.3294
  297MOL0     O39119   0.543   0.011   9.489 -0.4033 -0.4470 -0.0657
  297MOL0     C39120   0.825  -0.006   9.452  1.2728 -0.6821  0.0740
  297MOL0     C39121   0.947  -0.008   9.387 -0.0074 -0.0952 -0.3756
  297MOL0     N39122   1.161   0.200   8.921 -0.3717  0.3682 -0.5171
  297MOL0     N39123   1.047   0.257   8.916  0.1829 -0.4138  0.1934
  297MOL0     C39124   1.260   0.970   8.524  0.3248 -0.1481 -0.7463
  297MOL0     C39125   1.389   1.011   8.482  0.3084  0.1786 -0.4785
  297MOL0     C39126   1.746   1.059   8.191 -1.3037  0.3275 -0.1295
  297MOL0     C39127   1.843   0.956   8.245  0.4286 -0.3328  0.2946
  297MOL0     C39128   1.968   0.947   8.192 -0.6060  0.1600  0.0589
  297MOL0     C39129   2.014   1.034   8.089 -0.1143  0.0514 -0.1789
  297MOL0     O39130   2.141   1.001   8.045 -0.5140 -0.3743  0.2016
  297MOL0     C39131   2.211   1.102   7.980 -0.5003  0.0698  0.3058
  297MOL0     C39132   2.354   1.060   7.957 -0.6452  0.2317  0.2197
  297MOL0     C39133   2.423   1.018   8.087 -0.0127  0.6613  0.0234
  297MOL0     C39134   2.576   1.007   8.079 -0.2060 -0.0943  0.2109
  297MOL0     C39135   2.615   0.900   7.984  0.5279  0.1007  1.0426
  297MOL0     C39136   2.657   0.799   7.925  1.2199 -0.3858 -0.0568
  297MOL0     C39137   1.930   1.133   8.045  0.0668 -0.2199  0.0246
  297MOL0     C39138   1.799   1.148   8.093 -0.2978 -0.8521 -0.6008
  297MOL0     H39139   1.431   0.802   8.223 -1.2768 -0.5499 -0.5541
  297MOL0     H39140   1.215   0.737   8.286  0.9770 -0.9744  1.9594
  297MOL0     H39141   0.987   0.855   8.295  1.1080 -1.4639 -1.1498
  297MOL0     H39142   0.864   0.848   8.416  0.5509 -0.1700  1.1023
  297MOL0     H39143   1.048   0.609   8.366  0.2215  1.0161 -0.9622
  297MOL0     H39144   0.875   0.634   8.310 -0.0462 -0.3952 -0.1912
  297MOL0     H39145   0.789   0.640   8.530 -1.2201 -1.0341 -0.7693
  297MOL0     H39146   0.955   0.609   8.600 -1.5358 -0.1453  0.4629
  297MOL0     H39147   0.768   0.443   8.441  2.0900  3.6097 -2.7499
  297MOL0     H39148   0.935   0.389   8.449  1.3570  2.1847 -1.1478
  297MOL0     H39149   0.752   0.428   8.676 -2.6012 -2.9494  0.1143
  297MOL0     H39150   0.923   0.395   8.706 -1.2119 -0.7350 -0.0407
  297MOL0     H39151   0.900   0.165   8.624  0.2197  1.0467 -0.4445
  297MOL0     H39152   0.753   0.198   8.547 -1.5375  0.2556  0.5558
  297MOL0     H39153   0.627   0.187   8.750 -0.6249  0.7785 -0.2601
  297MOL0     H39154   0.747   0.058   8.749 -0.4384  0.2419 -0.0842
  297MOL0     H39155   0.736   0.135   8.957 -0.8692  0.1179  0.0936
  297MOL0     H39156   0.779   0.300   8.916  1.4950  0.0413 -1.0136
  297MOL0     H39157   0.946  -0.054   8.897 -0.7617  0.5478  1.2332
  297MOL0     H39158   1.331  -0.002   8.861 -0.3537  1.7530  0.8660
  297MOL0     H39159   1.198  -0.113   8.808 -0.1806 -0.2838 -0.6274
  297MOL0     H39160   1.353  -0.215   8.985  1.9659  1.4067  1.9858
  297MOL0     H39161   1.195  -0.218   9.019  0.6491 -2.5032 -1.3626
  297MOL0     H39162   1.359  -0.144   9.192 -3.9937 -3.4341 -0.1017
  297MOL0     H39163   1.365   0.021   9.123  1.1226 -0.6202 -1.2882
  297MOL0     H39164   1.130   0.051   9.169 -1.9103 -0.1096  0.9488
  297MOL0     H39165   1.228  -0.006   9.317  2.2326  0.6580 -1.7017
  297MOL0     H39166   0.907  -0.314   9.246  3.0351  0.2056 -0.0813
  297MOL0     H39167   0.712  -0.315   9.383 -0.6380 -0.7322  1.7672
  297MOL0     H39168   0.322  -0.349   9.508 -0.9611 -1.5170  1.2502
  297MOL0     H39169   0.115  -0.336   9.656  1.2758 -0.2604 -1.0012
  297MOL0     H39170  -0.046  -0.301   9.984 -1.9179 -2.0976 -1.0660
  297MOL0     H39171   0.026  -0.399   9.864 -1.1857 -0.7986  0.8013
  297MOL0     H39172  -0.078  -0.275   9.677 -1.1133 -2.4564 -1.3038
  297MOL0     H39173  -0.134  -0.151   9.775  4.1401  0.6026  0.2365
  297MOL0     H39174  -0.251  -0.439   9.846 -0.4036 -0.2721 -0.7131
  297MOL0     H39175  -0.301  -0.372   9.703  1.0315 -0.8520 -0.7021
  297MOL0     H39176  -0.318  -0.224   9.987  1.7348  2.4846 -1.9729
  297MOL0     H39177  -0.366  -0.152   9.842  0.2670  0.8006  2.6287
  297MOL0     H39178  -0.543  -0.281   9.969 -0.8661 -0.4910  0.2036
  297MOL0     H39179  -0.451  -0.433   9.938  0.8115 -0.2855  0.2804
  297MOL0     H39180  -0.518  -0.417   9.705 -4.3967 -1.3478 -0.9421
  297MOL0     H39181  -0.556  -0.241   9.727 -3.1438  1.6647  2.7737
  297MOL0     H39182  -0.698  -0.464   9.862  1.0335 -0.3928 -0.9557
  297MOL0     H39183  -0.726  -0.287   9.859 -0.3642 -1.6965  2.6905
  297MOL0     H39184  -0.750  -0.459   9.613  0.3310 -1.5866  0.7414
  297MOL0     H39185  -0.797  -0.286   9.626 -0.0102  2.0975  2.3492
  297MOL0     H39186   0.294  -0.047   9.905 -1.6512  0.9648 -0.3696
  297MOL0     H39187   0.503  -0.079   9.784  0.1678 -1.1115 -1.3610
  297MOL0     H39188   0.797   0.086   9.502  0.1377 -0.4273 -0.9920
  297MOL0     H39189   1.007   0.082   9.379  1.5874 -1.2300 -2.0728
  297MOL0     H39190   1.215   1.020   8.610 -1.8062 -0.3531 -1.6719
  297MOL0     H39191   1.443   1.090   8.535  3.0315 -0.9397 -1.4083
  297MOL0     H39192   1.804   0.887   8.319 -1.0275  0.0920 -0.0392
  297MOL0     H39193   2.048   0.878   8.219  2.0976  3.6539  1.7722
  297MOL0     H39194   2.215   1.197   8.035 -0.6407  1.0730 -1.3554
  297MOL0     H39195   2.159   1.126   7.887  0.0985  1.0884  0.2155
  297MOL0     H39196   2.360   0.981   7.881  2.6107 -1.0955  1.6444
  297MOL0     H39197   2.414   1.143   7.919 -1.4612  1.0788  0.7276
  297MOL0     H39198   2.380   0.922   8.117 -2.3184  1.1879 -1.3553
  297MOL0     H39199   2.402   1.092   8.165  3.2686  1.6486  0.1317
  297MOL0     H39200   2.613   1.105   8.046  0.1242  0.0985  1.1332
  297MOL0     H39201   2.618   0.995   8.179 -3.1388  4.4408  2.3588
  297MOL0     H39202   2.698   0.715   7.873  0.6190  0.0066 -1.2027
  297MOL0     H39203   1.962   1.183   7.954 -0.1958 -0.2414 -0.0817
  297MOL0     H39204   1.738   1.220   8.038  0.7734  1.4807  1.0826
  298MOL0     O39205   1.405   8.380   2.926 -0.7678  0.1613 -0.1178
  298MOL0     C39206   1.401   8.267   2.885  0.9164  0.4159 -0.7984
  298MOL0     O39207   1.287   8.202   2.858 -0.6730  0.5115 -0.4224
  298MOL0     C39208   1.164   8.256   2.873 -0.0251  0.0082  0.6091
  298MOL0     C39209   1.066   8.215   2.781  0.3844 -0.3816 -0.2629
  298MOL0     C39210   0.933   8.249   2.781 -0.5754  0.7785  0.1394
  298MOL0     C39211   0.892   8.335   2.881 -0.8891 -0.4811 -0.1935
  298MOL0     O39212   0.763   8.368   2.890 -0.0196 -0.1085  0.3386
  298MOL0     C39213   0.709   8.462   2.989  0.4536  0.4954 -0.0487
  298MOL0     C39214   0.568   8.513   2.972  0.6775 -0.2618  0.3491
  298MOL0     C39215   0.460   8.411   2.944 -0.1193  0.2988  0.7555
  298MOL0     C39216   0.444   8.309   3.058 -0.1442  0.4727 -0.0177
  298MOL0     C39217   0.307   8.245   3.060 -0.4365  0.1241 -0.8542
  298MOL0     C39218   0.182   8.326   3.077 -0.1183  0.0255  0.2248
  298MOL0     C39219   0.193   8.390   3.220 -0.3190 -0.0562  0.3812
  298MOL0     C39220   0.090   8.493   3.259 -0.0484 -0.0768  0.2261
  298MOL0     N39221   0.024   8.553   3.138 -0.5415 -0.7436  0.3674
  298MOL0     C39222   0.082   8.664   3.087  1.0945  0.6850 -0.2646
  298MOL0     C39223   0.008   8.692   2.979 -0.1525  0.1248  0.1129
  298MOL0     C39224   0.043   8.787   2.874  0.2224 -0.1108 -0.1383
  298MOL0     C39225   0.153   8.735   2.787  0.3251 -0.2157 -0.0041
  298MOL0     C39226   0.290   8.743   2.866  0.4413  0.2016 -0.0200
  298MOL0     C39227   0.324   8.881   2.922 -0.3289 -0.3368  0.9168
  298MOL0     O39228   0.448   8.862   2.998 -0.4854  0.3533 -0.0916
  298MOL0     C39229   0.543   8.940   2.936 -0.3763  0.5806 -0.8089
  298MOL0     C39230   0.625   8.885   2.833  0.0751 -0.7646 -0.6588
  298MOL0     C39231   0.733   8.972   2.795  0.1347  0.0689  0.3200
  298MOL0     C39232   0.755   9.099   2.850 -1.0351 -0.4518 -0.8247
  298MOL0     C39233   0.880   9.173   2.825 -0.2245  0.3692  0.9667
  298MOL0     O39234   0.978   9.112   2.747  0.8665  0.3858  0.4080
  298MOL0     C39235   1.101   9.163   2.740 -0.6686 -0.1223 -0.3374
  298MOL0     C39236   1.183   9.169   2.857 -0.0967 -0.4100  0.0551
  298MOL0     C39237   1.320   9.208   2.855 -0.4943 -0.1890 -0.3237
  298MOL0     C39238   1.382   9.229   2.726  0.4260  0.1152  0.2322
  298MOL0     O39239   1.516   9.254   2.736  0.4232  0.1135  0.2179
  298MOL0     C39240   1.573   9.307   2.616  0.7234 -0.3187  0.1152
  298MOL0     C39241   1.710   9.364   2.664  0.2568 -0.4308 -0.8288
  298MOL0     C39242   1.777   9.420   2.538 -0.1634  0.2550  0.3388
  298MOL0     C39243   1.909   9.500   2.572 -0.4199  1.3375 -0.4594
  298MOL0     C39244   1.965   9.603   2.468  0.1345  0.4430  0.0946
  298MOL0     C39245   2.037   9.537   2.347  0.2028  0.2044 -0.4800
  298MOL0     C39246   2.185   9.501   2.380 -0.6395  0.4291  0.0141
  298MOL0     C39247   2.278   9.608   2.328 -0.0081 -0.0717 -0.1021
  298MOL0    Cl39248   2.448   9.567   2.371  0.4824  0.0156 -0.3516
  298MOL0     C39249   1.300   9.228   2.614 -0.0086  0.0835 -0.0518
  298MOL0     C39250   1.158   9.203   2.619 -0.0629 -0.3049  0.2798
  298MOL0     O39251   0.889   9.289   2.869  0.0564  0.5989  0.2090
  298MOL0     C39252   0.666   9.147   2.951 -0.6724  0.1865 -0.4676
  298MOL0     C39253   0.564   9.066   3.002 -0.2049 -0.8281 -0.6980
  298MOL0     N39254  -0.092   8.604   2.979  0.6743  0.3682  0.4408
  298MOL0     N39255  -0.084   8.517   3.074  0.4681  0.5647  0.4693
  298MOL0     C39256   0.980   8.374   2.982  0.4139  1.0713 -1.0793
  298MOL0     C39257   1.115   8.342   2.976 -0.7931  0.9107  0.4445
  298MOL0     C39258   1.529   8.197   2.873  0.6480  0.6199  0.1358
  298MOL0     C39259   1.540   8.070   2.809  0.6457  0.3818 -0.6646
  298MOL0     C39260   1.667   8.010   2.782  0.1450  0.0477 -0.9206
  298MOL0     C39261   1.785   8.075   2.808  0.4393 -0.0485  0.2405
  298MOL0     O39262   1.901   8.010   2.768  0.3641  0.1661  0.0820
  298MOL0     C39263   2.030   8.070   2.795 -0.7638 -0.7620 -0.1518
  298MOL0     C39264   2.150   7.994   2.739  0.0698  0.2143  0.3810
  298MOL0     C39265   2.157   7.844   2.787 -0.4902  0.3644  0.6966
  298MOL0     C39266   2.181   7.827   2.940  0.1347 -0.2466  0.8530
  298MOL0     C39267   2.314   7.872   2.976 -0.0132 -0.0421  0.2048
  298MOL0     C39268   2.431   7.893   3.005  0.3432 -0.0675 -0.3841
  298MOL0     C39269   1.781   8.194   2.878 -0.0624 -0.5707 -0.2385
  298MOL0     C39270   1.652   8.255   2.904 -0.1812  0.4794 -0.9959
  298MOL0     H39271   1.101   8.152   2.700  0.9675 -0.5380  0.1084
  298MOL0     H39272   0.866   8.199   2.713  0.2901 -2.8368  1.7162
  298MOL0     H39273   0.773   8.549   3.004  1.2043  0.1961 -1.3438
  298MOL0     H39274   0.709   8.424   3.091 -2.6379  0.3235 -0.0092
  298MOL0     H39275   0.564   8.582   2.888 -0.7036  0.5970  1.0766
  298MOL0     H39276   0.556   8.575   3.061 -0.8255 -1.5202  1.0651
  298MOL0     H39277   0.494   8.354   2.857  1.2541  0.9949  0.8159
  298MOL0     H39278   0.365   8.447   2.902 -0.2004  0.2245  0.8755
  298MOL0     H39279   0.522   8.234   3.041  0.6792  1.6562 -1.8497
  298MOL0     H39280   0.467   8.365   3.149  0.8764 -0.8745  0.5723
  298MOL0     H39281   0.305   8.174   3.142  0.9420  1.5009  0.4457
  298MOL0     H39282   0.300   8.190   2.966 -1.1204  1.1622 -1.4318
  298MOL0     H39283   0.097   8.260   3.058 -1.4746  1.9527 -0.7908
  298MOL0     H39284   0.177   8.405   3.001  1.8526  0.2922  0.3075
  298MOL0     H39285   0.186   8.306   3.290 -3.7812 -0.2003  0.0812
  298MOL0     H39286   0.287   8.444   3.226 -1.6696  2.3984  1.1338
  298MOL0     H39287   0.131   8.568   3.327  0.8147 -0.5327  0.2295
  298MOL0     H39288   0.008   8.437   3.305 -2.0156  1.5879 -1.0570
  298MOL0     H39289   0.185   8.686   3.113  1.6452 -1.8047 -0.0803
  298MOL0     H39290   0.055   8.892   2.903  0.1976 -0.1264 -0.0700
  298MOL0     H39291  -0.046   8.800   2.812  0.8684  4.3645 -0.4802
  298MOL0     H39292   0.160   8.788   2.692  1.6045  1.4883  0.9731
  298MOL0     H39293   0.136   8.632   2.753 -0.3990  0.2279 -1.0024
  298MOL0     H39294   0.291   8.658   2.935  1.3149 -0.8885 -1.3352
  298MOL0     H39295   0.365   8.716   2.792  0.6549 -0.4835  0.4406
  298MOL0     H39296   0.245   8.923   2.985  0.6543  4.8745 -0.8048
  298MOL0     H39297   0.344   8.954   2.844  1.4148 -0.5749  1.1099
  298MOL0     H39298   0.630   8.786   2.791  0.9004 -0.1910 -1.9913
  298MOL0     H39299   0.804   8.934   2.722  2.7403 -0.6851  3.0389
  298MOL0     H39300   1.132   9.144   2.950 -2.3629 -1.4365 -1.3739
  298MOL0     H39301   1.377   9.217   2.946  0.9343 -3.4610 -0.7737
  298MOL0     H39302   1.509   9.388   2.579  0.8590  0.0657  0.7061
  298MOL0     H39303   1.602   9.231   2.543 -2.5032 -1.7858  0.1775
  298MOL0     H39304   1.776   9.293   2.714  1.5042  1.6981  0.7030
  298MOL0     H39305   1.694   9.448   2.732 -1.0863  0.5759 -2.3164
  298MOL0     H39306   1.709   9.491   2.489  0.5914  0.3495 -0.6159
  298MOL0     H39307   1.800   9.337   2.470  1.2732  1.3045 -0.5078
  298MOL0     H39308   1.891   9.556   2.664  1.7765  0.5802  0.4969
  298MOL0     H39309   1.989   9.432   2.603 -0.4463  2.2069  1.7250
  298MOL0     H39310   2.044   9.662   2.515 -0.0853 -0.4176  1.6287
  298MOL0     H39311   1.885   9.668   2.432  0.6284 -1.0951 -4.4842
  298MOL0     H39312   2.048   9.604   2.261 -0.1085  0.2422 -0.4935
  298MOL0     H39313   1.980   9.449   2.317  0.7016 -0.7773  1.3168
  298MOL0     H39314   2.195   9.493   2.488 -2.4554 -0.1674  0.1686
  298MOL0     H39315   2.218   9.405   2.338  3.7098  2.3856 -1.6129
  298MOL0     H39316   2.251   9.702   2.377  0.7535 -0.7385  1.6648
  298MOL0     H39317   2.263   9.617   2.220  1.3009 -1.6222 -0.4376
  298MOL0     H39318   1.342   9.256   2.518  0.6185  1.3340  0.5579
  298MOL0     H39319   1.107   9.219   2.524  3.0442  2.4777 -1.1517
  298MOL0     H39320   0.692   9.243   2.994 -0.3271 -0.3260  0.4792
  298MOL0     H39321   0.508   9.103   3.087  0.6779  0.6272 -0.7161
  298MOL0     H39322   0.942   8.421   3.072 -0.0548 -1.2762  0.0158
  298MOL0     H39323   1.191   8.376   3.046  0.8499 -2.0053  0.2192
  298MOL0     H39324   1.450   8.016   2.781  0.3761 -0.0979  1.0063
  298MOL0     H39325   1.662   7.918   2.724  0.5378  0.1444 -1.1187
  298MOL0     H39326   2.049   8.077   2.902 -2.7863 -5.3930  0.7164
  298MOL0     H39327   2.023   8.170   2.751 -2.3953  0.2150  2.1395
  298MOL0     H39328   2.145   7.986   2.630 -2.5331 -2.6974  0.5855
  298MOL0     H39329   2.239   8.048   2.772  0.4658 -0.6536  0.7803
  298MOL0     H39330   2.229   7.790   2.724 -1.3435 -0.1731  0.1500
  298MOL0     H39331   2.060   7.804   2.754  0.7927 -1.1294 -1.5606
  298MOL0     H39332   2.109   7.882   3.001 -0.3042 -0.0143  0.1478
  298MOL0     H39333   2.176   7.723   2.971 -1.3065 -0.5645 -0.3056
  298MOL0     H39334   2.534   7.921   3.016  1.2691 -1.4912 -4.0495
  298MOL0     H39335   1.875   8.236   2.912 -0.4816  0.9637 -0.8882
  298MOL0     H39336   1.649   8.356   2.944 -0.4766 -0.4277  1.4524
  299MOL0     O39337   3.754   3.867   5.537  0.6670  0.1690 -0.6589
  299MOL0     C39338   3.787   3.978   5.508 -0.7799 -0.5422 -0.4106
  299MOL0     O39339   3.707   4.082   5.485 -0.0606  0.2196 -0.2209
  299MOL0     C39340   3.570   4.091   5.505 -1.3708 -0.1810  0.5530
  299MOL0     C39341   3.511   4.176   5.411 -0.4944  0.1898 -0.6636
  299MOL0     C39342   3.388   4.219   5.440 -0.0222  0.2233  0.3161
  299MOL0     C39343   3.320   4.188   5.562  0.2105  0.6010 -0.3091
  299MOL0     O39344   3.192   4.233   5.590  0.0448 -0.2373  0.7071
  299MOL0     C39345   3.167   4.297   5.719 -0.2420  0.7945  0.2705
  299MOL0     C39346   3.044   4.384   5.712 -0.2378 -0.0237  0.1163
  299MOL0     C39347   2.918   4.299   5.702 -0.0982 -0.0116 -1.1215
  299MOL0     C39348   2.782   4.381   5.684 -0.1912  0.3578 -0.0967
  299MOL0     C39349   2.662   4.286   5.666 -0.2881 -0.9340  0.2741
  299MOL0     C39350   2.552   4.358   5.590 -0.3586 -0.8555  0.1714
  299MOL0     C39351   2.488   4.469   5.672  0.0719 -0.8433  0.4699
  299MOL0     C39352   2.408   4.563   5.584 -0.3176  0.0951  0.6898
  299MOL0     N39353   2.327   4.659   5.652  0.5187 -0.9729 -0.5973
  299MOL0     C39354   2.353   4.741   5.757  0.1145 -0.0255 -0.3041
  299MOL0     C39355   2.241   4.812   5.784 -0.1397 -0.4451  0.2765
  299MOL0     C39356   2.224   4.927   5.882  0.5183  0.3606  0.2151
  299MOL0     C39357   2.074   4.917   5.940 -0.6398 -0.0503  0.7724
  299MOL0     C39358   2.049   5.007   6.052 -0.7488  0.9705  0.2079
  299MOL0     C39359   2.028   5.149   6.003 -0.3770 -0.0391  0.3964
  299MOL0     O39360   1.973   5.228   6.111  0.5311  0.3238 -0.2598
  299MOL0     C39361   1.830   5.242   6.122 -0.1748  0.0297  0.0758
  299MOL0     C39362   1.776   5.330   6.222 -0.5872 -0.3596  0.4879
  299MOL0     C39363   1.639   5.332   6.252 -0.3725  0.1870  0.2897
  299MOL0     C39364   1.548   5.253   6.190 -0.0132  0.7094 -0.2528
  299MOL0     C39365   1.408   5.277   6.205  0.4246  0.1267 -0.6890
  299MOL0     O39366   1.325   5.202   6.134 -0.1069  0.2551  0.3286
  299MOL0     C39367   1.189   5.196   6.165 -0.1183 -0.6041 -0.4065
  299MOL0     C39368   1.102   5.302   6.178 -0.5035 -0.1267  0.0867
  299MOL0     C39369   0.962   5.293   6.197 -0.4194 -0.0547  0.4469
  299MOL0     C39370   0.906   5.165   6.202 -0.2771 -0.4384  0.4107
  299MOL0     O39371   0.775   5.140   6.210  0.0225 -0.6386  0.3657
  299MOL0     C39372   0.689   5.204   6.108  0.9729  0.5746  0.4423
  299MOL0     C39373   0.536   5.176   6.148 -0.3817 -0.4877 -0.4876
  299MOL0     C39374   0.450   5.236   6.036 -0.9469 -0.0188 -0.8190
  299MOL0     C39375   0.302   5.226   6.080  0.0946 -0.5255 -0.7039
  299MOL0     C39376   0.214   5.335   6.038 -0.4062  0.7613 -0.1921
  299MOL0     C39377   0.172   5.334   5.891 -0.3506  0.2580  0.3024
  299MOL0     C39378   0.127   5.189   5.840  0.1564 -0.4014  0.3658
  299MOL0     C39379   0.008   5.123   5.934 -0.1145 -1.1930  0.0069
  299MOL0    Cl39380  -0.027   4.949   5.886  0.0290  0.0711 -0.2390
  299MOL0     C39381   0.992   5.054   6.180 -0.1070 -0.3777 -0.5831
  299MOL0     C39382   1.130   5.065   6.170  0.6351 -0.0539  0.6282
  299MOL0     O39383   1.375   5.354   6.296  0.3169 -0.2671 -0.2854
  299MOL0     C39384   1.596   5.168   6.080 -0.5542 -0.2877 -0.3684
  299MOL0     C39385   1.737   5.158   6.053  0.5755 -0.4648 -0.1914
  299MOL0     N39386   2.146   4.775   5.693  0.1943  0.3135  0.6689
  299MOL0     N39387   2.198   4.686   5.615  0.2276 -0.8185 -0.3954
  299MOL0     C39388   3.377   4.093   5.645 -0.0692  0.5857 -0.3472
  299MOL0     C39389   3.502   4.042   5.611 -0.6981  0.8388 -0.2989
  299MOL0     C39390   3.932   4.004   5.497 -0.7794  0.0935 -0.3182
  299MOL0     C39391   4.030   3.923   5.557 -0.3965 -0.3269  0.5420
  299MOL0     C39392   4.168   3.937   5.531  0.2890 -0.8955 -0.4839
  299MOL0     C39393   4.208   4.040   5.448 -0.1047  0.4841 -0.2448
  299MOL0     O39394   4.336   4.073   5.422  0.0271 -0.0532 -0.2835
  299MOL0     C39395   4.443   3.998   5.486 -0.5021  0.6857 -0.6227
  299MOL0     C39396   4.585   4.032   5.433  0.9927  0.7420 -0.1517
  299MOL0     C39397   4.617   3.966   5.302  0.1406  0.3636 -0.4864
  299MOL0     C39398   4.734   4.041   5.228 -0.0145 -0.4644  0.3490
  299MOL0     C39399   4.798   3.971   5.120  0.8054 -0.1988 -0.7046
  299MOL0     C39400   4.851   3.920   5.023  0.0405 -1.3431 -0.0173
  299MOL0     C39401   4.110   4.125   5.392  0.1564 -0.1131  0.9455
  299MOL0     C39402   3.973   4.109   5.416 -0.6635  0.3641  0.1813
  299MOL0     H39403   3.554   4.202   5.315 -1.9492 -0.2741 -1.4622
  299MOL0     H39404   3.345   4.298   5.379  0.9471  1.1651  0.8149
  299MOL0     H39405   3.251   4.363   5.742  0.3106 -0.1804  1.1993
  299MOL0     H39406   3.154   4.217   5.793 -0.8529 -0.4922 -1.1806
  299MOL0     H39407   3.047   4.464   5.637 -2.4875  0.3579  0.3412
  299MOL0     H39408   3.031   4.441   5.804  1.0400 -2.1002  1.6520
  299MOL0     H39409   2.906   4.235   5.790  1.7973  0.9372 -0.1275
  299MOL0     H39410   2.926   4.230   5.617 -1.1304  0.2800 -1.4692
  299MOL0     H39411   2.772   4.436   5.778  0.2581  0.4520 -0.1036
  299MOL0     H39412   2.801   4.446   5.598  3.7232  0.7454  0.8808
  299MOL0     H39413   2.628   4.251   5.764 -1.2672  0.7040  0.5530
  299MOL0     H39414   2.682   4.201   5.600 -1.5678 -0.0602 -1.3128
  299MOL0     H39415   2.468   4.290   5.570 -0.4962 -0.4727 -0.5816
  299MOL0     H39416   2.606   4.397   5.503  2.1622  0.3954  2.1681
  299MOL0     H39417   2.428   4.436   5.757  0.6881 -0.4042  1.0792
  299MOL0     H39418   2.562   4.541   5.709 -0.5145  0.6712 -1.1449
  299MOL0     H39419   2.351   4.505   5.510 -1.5193  1.5028  0.4585
  299MOL0     H39420   2.477   4.624   5.525  0.0584 -1.3737 -0.4433
  299MOL0     H39421   2.446   4.756   5.811  0.2310  2.2990 -1.0385
  299MOL0     H39422   2.233   5.026   5.838  1.6432  1.0727  1.9623
  299MOL0     H39423   2.305   4.929   5.955  1.6739 -1.3734 -0.9240
  299MOL0     H39424   2.061   4.811   5.967  1.2459 -0.5186  0.0344
  299MOL0     H39425   2.009   4.934   5.854 -0.0096 -1.1734  0.0407
  299MOL0     H39426   1.956   4.979   6.102  0.1194 -0.0216  1.3068
  299MOL0     H39427   2.136   5.006   6.118 -2.2838  4.4732  2.5689
  299MOL0     H39428   1.966   5.148   5.912 -0.2777  2.1778  0.2393
  299MOL0     H39429   2.126   5.191   5.978 -1.1586  1.7519  0.1539
  299MOL0     H39430   1.843   5.396   6.276 -0.6918 -0.1232  0.3341
  299MOL0     H39431   1.602   5.410   6.317 -1.7707 -0.8842  0.8408
  299MOL0     H39432   1.146   5.400   6.157 -2.7228  1.1223  0.8990
  299MOL0     H39433   0.900   5.382   6.204  0.6976  0.6847  1.3579
  299MOL0     H39434   0.702   5.149   6.014 -0.4477 -0.1659  0.6594
  299MOL0     H39435   0.715   5.310   6.095  0.7306  0.7469  1.3304
  299MOL0     H39436   0.516   5.224   6.244 -0.4016 -2.1175  0.3567
  299MOL0     H39437   0.521   5.068   6.156  1.1481 -0.7482 -0.7397
  299MOL0     H39438   0.473   5.185   5.942 -0.8930 -1.9531  0.1902
  299MOL0     H39439   0.470   5.343   6.027 -0.2598 -0.1590 -0.9671
  299MOL0     H39440   0.259   5.129   6.051 -0.7520 -0.5805  0.6611
  299MOL0     H39441   0.304   5.230   6.189  1.4182 -0.6768 -0.7090
  299MOL0     H39442   0.252   5.435   6.061  0.9150  0.3457 -0.5193
  299MOL0     H39443   0.118   5.322   6.090 -1.1744  0.4594 -1.6385
  299MOL0     H39444   0.250   5.372   5.824  0.8965  1.1391  2.1627
  299MOL0     H39445   0.091   5.407   5.878  0.6991  1.5995  1.0945
  299MOL0     H39446   0.090   5.199   5.738 -1.9919  1.0230  1.1928
  299MOL0     H39447   0.210   5.119   5.855  1.7000  1.1385 -0.5170
  299MOL0     H39448  -0.078   5.190   5.925  1.4445  0.7674 -1.5524
  299MOL0     H39449   0.032   5.129   6.040 -0.5842  0.5944  0.0388
  299MOL0     H39450   0.952   4.953   6.181 -1.4185  0.1219 -1.2270
  299MOL0     H39451   1.194   4.977   6.164  0.0886 -0.3655 -1.7445
  299MOL0     H39452   1.534   5.109   6.013 -0.4460 -0.4671 -0.3132
  299MOL0     H39453   1.774   5.096   5.972  0.9339 -1.7676  0.9326
  299MOL0     H39454   3.336   4.058   5.739  2.1129  0.8410  0.7637
  299MOL0     H39455   3.549   3.978   5.685 -1.4367  0.3787 -0.2082
  299MOL0     H39456   3.994   3.841   5.618  1.0287 -0.9095  0.6348
  299MOL0     H39457   4.238   3.883   5.592  0.1111 -0.6223 -0.0332
  299MOL0     H39458   4.420   3.892   5.473 -0.9882  0.8124 -0.8081
  299MOL0     H39459   4.436   4.024   5.592 -0.0123  2.1173 -0.9112
  299MOL0     H39460   4.597   4.141   5.430  0.1703  0.8182 -1.0646
  299MOL0     H39461   4.655   3.985   5.503 -1.4833 -0.2475  1.8219
  299MOL0     H39462   4.527   3.971   5.239 -2.3219  2.8741  2.8332
  299MOL0     H39463   4.636   3.861   5.327  1.6910  0.7361 -0.0056
  299MOL0     H39464   4.692   4.133   5.187  3.2787  2.1771  2.3574
  299MOL0     H39465   4.820   4.064   5.292  1.7789 -0.1687 -2.0430
  299MOL0     H39466   4.903   3.877   4.940  2.1289 -1.0992  1.0882
  299MOL0     H39467   4.142   4.201   5.323  1.3213 -1.0916  0.3700
  299MOL0     H39468   3.898   4.171   5.368  1.3848  0.5779 -3.0951
  300MOL0     O39469   7.421   5.736  10.938  0.0720  1.4894 -0.4270
  300MOL0     C39470   7.483   5.829  10.889  1.0444 -0.1385 -0.6183
  300MOL0     O39471   7.424   5.953  10.862 -0.2036  0.6212 -0.0376
  300MOL0     C39472   7.299   5.967  10.901  0.5060  0.1336 -0.0720
  300MOL0     C39473   7.185   5.894  10.854  0.4986 -0.0269  0.0375
  300MOL0     C39474   7.053   5.921  10.901  0.5852 -0.2350 -0.3496
  300MOL0     C39475   7.033   6.020  11.000 -0.4161 -0.1183  0.3811
  300MOL0     O39476   6.912   6.027  11.056 -0.2205 -0.3234  0.0972
  300MOL0     C39477   6.857   6.163  11.043 -0.3593 -0.5826 -0.3709
  300MOL0     C39478   6.722   6.171  11.106  0.1987  0.1259 -1.2238
  300MOL0     C39479   6.660   6.306  11.082  0.2370 -0.3691  0.3250
  300MOL0     C39480   6.511   6.299  11.121  0.0141 -0.9660 -0.6272
  300MOL0     C39481   6.443   6.431  11.135 -0.5253  0.3300  0.0193
  300MOL0     C39482   6.293   6.410  11.182 -0.1871  0.3693 -0.1060
  300MOL0     C39483   6.213   6.550  11.165 -0.5828 -0.4358  0.0948
  300MOL0     C39484   6.073   6.557  11.217  0.0855  0.4633 -0.4106
  300MOL0     N39485   6.006   6.686  11.194  0.0105  1.0289 -0.2910
  300MOL0     C39486   6.061   6.813  11.211 -0.2344 -0.0941  0.4619
  300MOL0     C39487   5.959   6.892  11.197  0.7986  0.1447  0.1275
  300MOL0     C39488   5.953   7.045  11.215 -0.0890 -0.0587  1.0943
  300MOL0     C39489   5.965   7.087  11.360  0.3110  0.1029  0.2039
  300MOL0     C39490   5.861   7.203  11.383  0.3562 -0.2337  0.1660
  300MOL0     C39491   5.834   7.219  11.533  0.6137 -0.4973 -0.2007
  300MOL0     O39492   5.708   7.283  11.551 -0.8338  0.3155 -0.3482
  300MOL0     C39493   5.682   7.408  11.495 -0.2448  1.0127 -0.2045
  300MOL0     C39494   5.774   7.509  11.488  0.1740 -0.9142 -0.5011
  300MOL0     C39495   5.739   7.629  11.426 -0.7997  0.1996 -0.1198
  300MOL0     C39496   5.607   7.658  11.381 -0.2751 -0.3036 -0.6138
  300MOL0     C39497   5.576   7.781  11.304  0.3810 -0.5383 -0.0370
  300MOL0     O39498   5.449   7.793  11.249  0.7087  0.5518 -0.2337
  300MOL0     C39499   5.396   7.916  11.206 -0.3976 -0.5696  0.3331
  300MOL0     C39500   5.386   8.033  11.294 -0.9303 -0.9639  0.8294
  300MOL0     C39501   5.330   8.152  11.250  0.7510  0.1887 -0.0560
  300MOL0     C39502   5.290   8.156  11.111  0.0611 -0.3880 -0.8322
  300MOL0     O39503   5.223   8.272  11.060  0.0726 -0.0451 -0.3441
  300MOL0     C39504   5.271   8.343  10.944  0.0168 -0.1075  0.0099
  300MOL0     C39505   5.150   8.402  10.860 -0.8970 -0.2727  0.0556
  300MOL0     C39506   5.062   8.282  10.814  0.1407  0.3779 -0.2542
  300MOL0     C39507   4.946   8.314  10.714 -0.0433 -0.3641 -0.2908
  300MOL0     C39508   4.848   8.392  10.784  0.5103  0.9960 -0.4832
  300MOL0     C39509   4.713   8.387  10.699 -0.7636  0.0667 -0.6422
  300MOL0     C39510   4.736   8.411  10.546 -0.3551 -0.3838  0.5460
  300MOL0     C39511   4.613   8.428  10.462 -0.5546 -0.3331 -0.1087
  300MOL0    Cl39512   4.518   8.567  10.502  0.5835  0.4991 -0.2439
  300MOL0     C39513   5.296   8.042  11.030 -1.0677 -0.5342 -0.1092
  300MOL0     C39514   5.341   7.922  11.079 -0.3506 -0.1403 -0.2001
  300MOL0     O39515   5.663   7.858  11.285  0.1988  0.5812  0.5596
  300MOL0     C39516   5.507   7.561  11.417 -0.1520  0.2874  0.1937
  300MOL0     C39517   5.553   7.440  11.466  0.5596  0.4394 -0.2017
  300MOL0     N39518   5.842   6.817  11.173  0.1884 -0.2329 -0.4986
  300MOL0     N39519   5.874   6.696  11.169  0.1626  0.1317 -0.1627
  300MOL0     C39520   7.138   6.101  11.031  0.8437  0.5697  0.1087
  300MOL0     C39521   7.267   6.074  10.992  0.6877  0.9202  1.1906
  300MOL0     C39522   7.622   5.809  10.850  0.3749  1.0993  0.0831
  300MOL0     C39523   7.690   5.895  10.757  0.6229  0.0000 -0.1425
  300MOL0     C39524   7.822   5.862  10.728 -0.0722 -0.8210  0.8917
  300MOL0     C39525   7.891   5.755  10.792 -0.2957 -0.5448  0.2460
  300MOL0     O39526   8.025   5.731  10.767 -0.3940 -0.7099 -0.7578
  300MOL0     C39527   8.094   5.776  10.650 -0.2934 -0.2278  0.4495
  300MOL0     C39528   8.228   5.707  10.639 -1.0521 -0.3862 -0.4742
  300MOL0     C39529   8.207   5.559  10.584 -0.1235  0.1542 -0.1524
  300MOL0     C39530   8.354   5.495  10.591 -0.2471 -0.0943 -0.5605
  300MOL0     C39531   8.355   5.349  10.586 -0.2095  0.2513 -0.4513
  300MOL0     C39532   8.358   5.226  10.588 -0.1743 -0.1608  0.7148
  300MOL0     C39533   7.821   5.679  10.877 -0.4572 -0.1057 -0.6434
  300MOL0     C39534   7.689   5.703  10.911  0.4724  0.5625 -0.4194
  300MOL0     H39535   7.199   5.812  10.784 -1.8907 -3.4390  3.1620
  300MOL0     H39536   6.967   5.868  10.859 -2.3894  1.2380  3.3148
  300MOL0     H39537   6.850   6.200  10.940 -2.2803  1.6431  0.4896
  300MOL0     H39538   6.914   6.242  11.092 -1.2118  0.4260 -0.9533
  300MOL0     H39539   6.736   6.163  11.214 -2.1678  1.2965 -0.7668
  300MOL0     H39540   6.657   6.094  11.063  0.3359  2.1091 -5.4626
  300MOL0     H39541   6.669   6.333  10.977  0.0055 -0.3174  0.3169
  300MOL0     H39542   6.714   6.378  11.143  1.1652 -0.2651 -0.6023
  300MOL0     H39543   6.454   6.236  11.053  0.9346 -1.8238 -0.6316
  300MOL0     H39544   6.513   6.260  11.224  0.8350  0.0976 -0.2079
  300MOL0     H39545   6.440   6.487  11.041  0.4791  3.4907  1.7478
  300MOL0     H39546   6.493   6.494  11.209  0.6426 -1.2363  0.6057
  300MOL0     H39547   6.289   6.378  11.286 -1.5195 -2.6143 -0.9773
  300MOL0     H39548   6.239   6.333  11.126 -2.1877  0.4285  1.6210
  300MOL0     H39549   6.262   6.634  11.214  1.9475 -1.9897  0.4240
  300MOL0     H39550   6.212   6.572  11.057  3.7002  2.1619  0.3649
  300MOL0     H39551   6.088   6.546  11.325  1.7454  2.8315 -0.3145
  300MOL0     H39552   6.012   6.473  11.183 -0.1305  0.6553 -0.4962
  300MOL0     H39553   6.163   6.844  11.231 -0.2977 -0.0865  0.7810
  300MOL0     H39554   5.855   7.065  11.170 -0.0464 -0.9480  0.5947
  300MOL0     H39555   6.029   7.095  11.154 -0.5703 -1.5825 -0.8548
  300MOL0     H39556   6.064   7.128  11.383  0.8791 -0.7804 -0.5510
  300MOL0     H39557   5.950   6.997  11.421  3.2663 -2.9239 -3.0619
  300MOL0     H39558   5.902   7.292  11.334 -3.4758  2.1516  0.9313
  300MOL0     H39559   5.765   7.184  11.334  0.0191  0.5387  0.5114
  300MOL0     H39560   5.920   7.275  11.572  1.2060 -1.3089 -0.2974
  300MOL0     H39561   5.836   7.122  11.584  0.2173  0.4074  1.6405
  300MOL0     H39562   5.875   7.497  11.527  0.5528  2.4827 -0.2031
  300MOL0     H39563   5.818   7.699  11.400 -0.8011  0.0795 -0.4446
  300MOL0     H39564   5.422   8.038  11.396  0.8735  1.1435  0.1906
  300MOL0     H39565   5.300   8.225  11.325 -2.7408 -2.0170  0.9210
  300MOL0     H39566   5.340   8.286  10.881  2.7714  2.6191  0.3731
  300MOL0     H39567   5.327   8.430  10.978  2.4700 -1.5129 -0.2087
  300MOL0     H39568   5.188   8.461  10.777  1.6293  0.4577  1.6089
  300MOL0     H39569   5.096   8.464  10.931 -0.7480 -2.0824  1.8500
  300MOL0     H39570   5.025   8.215  10.893 -2.0552  0.2968 -1.3003
  300MOL0     H39571   5.124   8.219  10.751 -0.3844 -0.1852 -0.2199
  300MOL0     H39572   4.983   8.376  10.632 -1.7473  0.6530 -0.3472
  300MOL0     H39573   4.904   8.218  10.683 -1.9152  0.0347  0.8231
  300MOL0     H39574   4.883   8.496  10.792  1.8508  0.4678  1.0653
  300MOL0     H39575   4.827   8.349  10.882 -2.0691  0.7401 -1.0966
  300MOL0     H39576   4.639   8.459  10.737 -0.0873  0.3065  0.2644
  300MOL0     H39577   4.673   8.286  10.710  1.7323 -0.8347  1.0368
  300MOL0     H39578   4.792   8.505  10.543  2.0638 -1.7548 -1.3536
  300MOL0     H39579   4.804   8.337  10.503  1.1449  2.2925 -2.1322
  300MOL0     H39580   4.553   8.337  10.468  1.0200 -1.4197 -0.0899
  300MOL0     H39581   4.647   8.432  10.358  2.3206  3.5881  0.7384
  300MOL0     H39582   5.270   8.048  10.925  0.1384 -3.8797 -0.7413
  300MOL0     H39583   5.353   7.833  11.018  0.5328  0.8325 -1.5021
  300MOL0     H39584   5.401   7.573  11.397 -0.8827 -3.1728  1.2352
  300MOL0     H39585   5.484   7.357  11.470  1.4270 -0.4594 -2.1748
  300MOL0     H39586   7.111   6.183  11.096 -3.3447  1.5533 -2.4839
  300MOL0     H39587   7.353   6.129  11.029  1.3201  0.6605  0.1424
  300MOL0     H39588   7.631   5.975  10.713 -1.6471 -2.5150 -2.0686
  300MOL0     H39589   7.870   5.933  10.662 -1.9338 -0.4557 -0.1635
  300MOL0     H39590   8.107   5.884  10.660  1.3357 -0.3482 -0.0843
  300MOL0     H39591   8.035   5.748  10.562  0.6118 -1.4300  0.2023
  300MOL0     H39592   8.298   5.762  10.575 -0.7100 -1.3394 -0.9452
  300MOL0     H39593   8.273   5.695  10.738 -0.8428 -2.8190 -0.7964
  300MOL0     H39594   8.163   5.560  10.483  1.2395  0.1958 -0.7752
  300MOL0     H39595   8.149   5.500  10.655  1.8429 -2.3364 -0.4705
  300MOL0     H39596   8.429   5.521  10.515  1.5652 -0.5048  0.9937
  300MOL0     H39597   8.400   5.519  10.687  0.3272 -0.9820 -0.5990
  300MOL0     H39598   8.368   5.119  10.589  3.2631 -0.0008 -0.6440
  300MOL0     H39599   7.872   5.592  10.916 -0.0546  0.5931  0.4424
  300MOL0     H39600   7.636   5.636  10.978  3.6360 -1.3960  0.3823
  301MOL0     O39601  10.214   9.370   2.885 -0.2329  0.1961 -0.1270
  301MOL0     C39602  10.262   9.480   2.869  0.2479 -0.1688  0.6124
  301MOL0     O39603  10.189   9.599   2.856 -0.9075 -0.2158  0.0560
  301MOL0     C39604  10.049   9.583   2.848 -0.4184  0.3440  0.1368
  301MOL0     C39605   9.981   9.605   2.726  0.3458  0.1800  0.2990
  301MOL0     C39606   9.843   9.617   2.725 -0.5433 -0.3385  0.5898
  301MOL0     C39607   9.761   9.598   2.840 -0.2680 -0.1294  0.3652
  301MOL0     O39608   9.625   9.592   2.822 -0.8588  0.4084  0.1945
  301MOL0     C39609   9.546   9.632   2.933 -0.3131 -1.1515 -0.9665
  301MOL0     C39610   9.396   9.631   2.900 -0.8198 -0.2872  0.9470
  301MOL0     C39611   9.315   9.694   3.014 -0.6642 -1.0868  0.2505
  301MOL0     C39612   9.171   9.743   2.977  0.0337 -0.1959 -0.5242
  301MOL0     C39613   9.073   9.633   2.939 -0.4186 -0.2350  0.2274
  301MOL0     C39614   8.912   9.662   2.926  0.0876  0.0445  0.0431
  301MOL0     C39615   8.845   9.728   3.039 -0.9213  0.1278  0.1900
  301MOL0     C39616   8.869   9.653   3.172 -0.9268 -1.0219  0.1027
  301MOL0     N39617   8.767   9.555   3.179  0.4400 -0.1765 -0.0248
  301MOL0     C39618   8.628   9.569   3.196 -0.5798 -1.0231 -0.1583
  301MOL0     C39619   8.575   9.446   3.195  0.1313  0.2746 -0.8826
  301MOL0     C39620   8.427   9.416   3.231 -0.8657  0.3717  0.6062
  301MOL0     C39621   8.334   9.469   3.121  0.0593 -0.0685 -1.2376
  301MOL0     C39622   8.270   9.604   3.135  0.3009 -0.0660 -0.2190
  301MOL0     C39623   8.160   9.607   3.245  0.0528 -0.3882  0.0947
  301MOL0     O39624   8.037   9.552   3.191 -0.7163 -0.2137 -0.5765
  301MOL0     C39625   7.949   9.537   3.291 -0.5975  0.2627 -0.4976
  301MOL0     C39626   7.965   9.461   3.416 -0.3768  0.3323  1.2747
  301MOL0     C39627   7.870   9.462   3.514  0.3677  0.2209  0.2739
  301MOL0     C39628   7.750   9.536   3.488 -0.3569  0.9485  0.8224
  301MOL0     C39629   7.645   9.544   3.590 -0.6507  0.3847  0.5131
  301MOL0     O39630   7.681   9.548   3.716  0.5222 -0.4547  0.9108
  301MOL0     C39631   7.582   9.544   3.806  0.1227  0.0367 -0.7392
  301MOL0     C39632   7.487   9.640   3.820  0.2459 -0.2374  0.7274
  301MOL0     C39633   7.375   9.624   3.904 -0.3262 -0.4939 -0.9054
  301MOL0     C39634   7.382   9.526   4.001 -0.0538 -0.5039  0.1258
  301MOL0     O39635   7.278   9.504   4.091  0.1752  0.1492  0.5881
  301MOL0     C39636   7.216   9.620   4.146 -0.4766 -0.3011 -0.4615
  301MOL0     C39637   7.118   9.596   4.265  0.1509 -0.2168  0.0994
  301MOL0     C39638   7.180   9.495   4.371  0.4411  0.2010 -0.4429
  301MOL0     C39639   7.068   9.437   4.462 -0.4109 -0.3398 -0.5997
  301MOL0     C39640   7.081   9.490   4.606  0.1869 -0.1271  0.2086
  301MOL0     C39641   6.976   9.405   4.690 -0.0317  0.0162 -1.0095
  301MOL0     C39642   6.977   9.448   4.837  0.2267  1.5298 -0.0722
  301MOL0     C39643   6.844   9.434   4.897  0.0653  0.4177 -0.1722
  301MOL0    Cl39644   6.833   9.456   5.070  0.3539 -0.0443 -0.5422
  301MOL0     C39645   7.480   9.432   4.008 -0.3642 -0.3067 -0.5958
  301MOL0     C39646   7.579   9.442   3.907  0.1828 -0.2735 -0.2301
  301MOL0     O39647   7.537   9.555   3.539  0.4257 -0.2583 -0.6935
  301MOL0     C39648   7.733   9.603   3.371 -0.5110  0.2762 -0.3470
  301MOL0     C39649   7.833   9.607   3.270  0.7858 -0.1828 -0.1446
  301MOL0     N39650   8.681   9.352   3.185  0.4901  0.2426 -0.7388
  301MOL0     N39651   8.789   9.418   3.167 -0.7782 -0.2753 -0.0852
  301MOL0     C39652   9.833   9.568   2.956  0.9790 -0.7554 -0.4641
  301MOL0     C39653   9.972   9.567   2.959 -0.4946  0.5139 -1.3664
  301MOL0     C39654  10.417   9.484   2.867  0.2402 -0.5209  0.0619
  301MOL0     C39655  10.482   9.609   2.852 -0.0593  0.1787 -0.5173
  301MOL0     C39656  10.618   9.623   2.865 -0.4130 -0.0268  0.5407
  301MOL0     C39657  10.698   9.505   2.879 -0.2676 -0.1596 -0.2196
  301MOL0     O39658  10.832   9.511   2.880 -0.3341 -0.0526  0.0297
  301MOL0     C39659  10.908   9.401   2.940 -0.0884 -0.3419 -0.0200
  301MOL0     C39660  11.064   9.442   2.943  0.3918 -0.3587  0.5287
  301MOL0     C39661  11.102   9.523   3.065  0.8293 -0.2885  0.6342
  301MOL0     C39662  11.242   9.585   3.071  0.1604  0.9919 -0.3597
  301MOL0     C39663  11.254   9.715   3.017 -0.0759 -0.3937  0.5963
  301MOL0     C39664  11.270   9.825   2.963 -0.1591  0.7413  0.2171
  301MOL0     C39665  10.627   9.379   2.887 -0.0253  0.3302 -0.0040
  301MOL0     C39666  10.492   9.369   2.879  0.0020 -0.6764 -0.6900
  301MOL0     H39667  10.039   9.619   2.635 -2.2710 -0.4200 -1.5503
  301MOL0     H39668   9.789   9.641   2.634 -2.6417 -3.1082  0.9789
  301MOL0     H39669   9.580   9.733   2.957  0.5973 -1.8062  0.6391
  301MOL0     H39670   9.566   9.556   3.010  2.2334 -0.8064 -1.1916
  301MOL0     H39671   9.368   9.529   2.873 -2.1371  0.8485 -2.6592
  301MOL0     H39672   9.389   9.693   2.810  1.5661 -0.7473  0.3662
  301MOL0     H39673   9.365   9.785   3.047  0.5420 -1.3818 -0.7023
  301MOL0     H39674   9.296   9.623   3.094  1.0328 -1.3660  0.4441
  301MOL0     H39675   9.127   9.787   3.067  0.8380 -0.7978  0.1799
  301MOL0     H39676   9.173   9.824   2.903  1.3322 -1.4451 -1.9293
  301MOL0     H39677   9.084   9.559   3.019 -0.9558 -0.5376  0.0292
  301MOL0     H39678   9.102   9.597   2.840 -0.9871  1.2036 -0.4875
  301MOL0     H39679   8.859   9.570   2.903 -1.8118  1.0584  0.1614
  301MOL0     H39680   8.897   9.729   2.841 -0.4906  1.5491  1.2751
  301MOL0     H39681   8.889   9.826   3.056 -0.6369 -0.0139  0.2770
  301MOL0     H39682   8.741   9.737   3.008 -0.7911  0.2884 -0.1982
  301MOL0     H39683   8.867   9.725   3.253  0.8640  0.3887 -1.0299
  301MOL0     H39684   8.969   9.610   3.184  0.0339  1.4462  1.6397
  301MOL0     H39685   8.571   9.657   3.223 -2.6555 -2.3604  0.0307
  301MOL0     H39686   8.394   9.450   3.330  0.2574 -0.5113  1.3217
  301MOL0     H39687   8.419   9.307   3.218  1.1545 -0.1058  2.6000
  301MOL0     H39688   8.257   9.393   3.108  0.6984 -0.8118 -0.7880
  301MOL0     H39689   8.390   9.470   3.027  0.6880  3.4138 -0.9521
  301MOL0     H39690   8.349   9.680   3.144  2.1774 -2.0582  1.0796
  301MOL0     H39691   8.218   9.638   3.045  1.7412  1.5108 -0.5114
  301MOL0     H39692   8.138   9.711   3.272 -3.7846 -1.1182  0.3363
  301MOL0     H39693   8.204   9.564   3.335  1.0681  1.3702  0.4981
  301MOL0     H39694   8.060   9.409   3.430 -0.7745 -0.3466  1.5058
  301MOL0     H39695   7.894   9.426   3.613  1.3387 -0.6020 -0.2301
  301MOL0     H39696   7.496   9.725   3.753 -1.3760 -0.2526  0.4543
  301MOL0     H39697   7.293   9.693   3.891 -0.1544 -0.2095 -0.5039
  301MOL0     H39698   7.170   9.687   4.072  0.9141  2.4838  1.0235
  301MOL0     H39699   7.294   9.687   4.184 -0.4510 -2.3143  3.5915
  301MOL0     H39700   7.025   9.564   4.217 -0.5049  0.9241  0.5732
  301MOL0     H39701   7.093   9.693   4.308  1.0399  1.0772 -2.1217
  301MOL0     H39702   7.245   9.552   4.439 -1.6920  2.1562  0.0446
  301MOL0     H39703   7.249   9.425   4.323  1.0442 -0.2539  1.0089
  301MOL0     H39704   6.974   9.461   4.411  1.0839 -0.0747 -3.4183
  301MOL0     H39705   7.073   9.328   4.461  0.1733 -0.3176 -0.5719
  301MOL0     H39706   7.056   9.597   4.606 -3.0831 -0.7072 -2.2864
  301MOL0     H39707   7.178   9.467   4.651  0.1153 -0.8135  0.0181
  301MOL0     H39708   6.988   9.297   4.683  0.1513 -0.1687  1.2340
  301MOL0     H39709   6.874   9.421   4.653 -0.5282 -0.6979  0.0107
  301MOL0     H39710   7.047   9.371   4.873 -1.7732 -0.9117 -1.1039
  301MOL0     H39711   7.006   9.550   4.864  0.5097  0.8795  2.3202
  301MOL0     H39712   6.796   9.339   4.871  0.6508 -1.1863  3.8742
  301MOL0     H39713   6.798   9.523   4.853 -0.1748  1.5403  2.1738
  301MOL0     H39714   7.470   9.352   4.080  1.3520 -1.0554 -1.1393
  301MOL0     H39715   7.657   9.367   3.916 -1.6850 -2.1404  1.1594
  301MOL0     H39716   7.632   9.642   3.364 -1.8706 -2.5936  1.2105
  301MOL0     H39717   7.817   9.646   3.170 -1.6522  0.8416  0.5535
  301MOL0     H39718   9.779   9.544   3.047  1.7990  3.3035  1.2818
  301MOL0     H39719  10.017   9.567   3.058 -2.8482 -1.3254 -0.2039
  301MOL0     H39720  10.426   9.702   2.850  0.0213  0.2410  0.0690
  301MOL0     H39721  10.663   9.720   2.848  2.5158 -1.5887 -1.4464
  301MOL0     H39722  10.895   9.310   2.880  1.9443 -0.2152 -0.7175
  301MOL0     H39723  10.868   9.391   3.041  1.6865  1.4959  0.9277
  301MOL0     H39724  11.132   9.357   2.935  0.2119 -0.9362  3.8582
  301MOL0     H39725  11.092   9.496   2.851  1.8281 -0.5194  0.8494
  301MOL0     H39726  11.084   9.466   3.156 -0.2370  1.2224  1.4330
  301MOL0     H39727  11.028   9.602   3.083 -0.6212 -1.8644  1.9109
  301MOL0     H39728  11.265   9.596   3.178  0.0487  0.0275 -0.2266
  301MOL0     H39729  11.314   9.517   3.025 -0.8957 -0.4975  0.0824
  301MOL0     H39730  11.289   9.918   2.913  2.9917 -0.2269 -0.6449
  301MOL0     H39731  10.679   9.285   2.906 -0.5310 -0.0269 -0.3530
  301MOL0     H39732  10.446   9.273   2.902 -1.2513  0.2683  0.9796
  302MOL0     O39733   8.729   4.616   9.981 -0.4519 -0.1406  0.5838
  302MOL0     C39734   8.696   4.642  10.097 -0.3251  0.6379 -0.0792
  302MOL0     O39735   8.778   4.631  10.202  0.6478  0.8244  0.3418
  302MOL0     C39736   8.895   4.560  10.198  0.7409 -0.0121  1.0947
  302MOL0     C39737   8.949   4.474  10.105  0.1924  0.6232 -0.0938
  302MOL0     C39738   9.078   4.425  10.124  0.1420  0.8942 -0.0723
  302MOL0     C39739   9.160   4.467  10.229  0.2547 -0.8888 -0.4948
  302MOL0     O39740   9.288   4.415  10.224 -0.5316 -0.3826  0.2622
  302MOL0     C39741   9.386   4.489  10.291  0.3481 -0.5832  0.1674
  302MOL0     C39742   9.521   4.427  10.260  0.4365 -0.8330 -0.0527
  302MOL0     C39743   9.630   4.510  10.316 -0.8706 -0.3743  0.7234
  302MOL0     C39744   9.767   4.445  10.257 -0.0980  1.2222 -0.3211
  302MOL0     C39745   9.900   4.539  10.259  0.4063  0.0126 -0.6199
  302MOL0     C39746   9.904   4.656  10.147 -0.4251 -0.2658  0.1449
  302MOL0     C39747   9.834   4.783  10.196  0.6001 -0.6890  0.7798
  302MOL0     C39748   9.763   4.879  10.096 -0.1956  0.6119 -0.1299
  302MOL0     N39749   9.652   4.804  10.035  0.0210  0.2947 -0.2930
  302MOL0     C39750   9.527   4.788  10.095  0.0587  0.0505  0.2273
  302MOL0     C39751   9.452   4.723  10.003  0.4313 -0.9096 -0.1052
  302MOL0     C39752   9.309   4.685  10.011  0.3630  0.1752 -0.1587
  302MOL0     C39753   9.226   4.770   9.913  0.2586  0.3127  0.1284
  302MOL0     C39754   9.091   4.703   9.893 -0.0861  0.1200  0.1478
  302MOL0     C39755   8.998   4.761   9.794 -0.2010 -0.1241  0.5123
  302MOL0     O39756   8.985   4.897   9.823  0.0919  0.6068  0.3771
  302MOL0     C39757   8.865   4.942   9.778 -0.0316  0.0667  0.1624
  302MOL0     C39758   8.857   4.980   9.645  0.0784  0.1607 -0.9077
  302MOL0     C39759   8.742   5.034   9.599  0.1289  0.0193 -0.5198
  302MOL0     C39760   8.630   5.066   9.686 -1.0256  0.1081  0.2741
  302MOL0     C39761   8.503   5.118   9.624 -0.3418 -0.4626 -0.8654
  302MOL0     O39762   8.410   5.153   9.721 -1.0791  0.5513  0.6127
  302MOL0     C39763   8.287   5.189   9.693 -0.2083 -0.2512  0.0645
  302MOL0     C39764   8.187   5.097   9.659  0.3350  0.0288 -0.2961
  302MOL0     C39765   8.052   5.136   9.654 -0.3407  0.0979  0.1258
  302MOL0     C39766   8.023   5.271   9.676 -0.0130 -0.2710  0.1300
  302MOL0     O39767   7.892   5.312   9.667  0.0549 -0.0106 -0.4210
  302MOL0     C39768   7.837   5.319   9.530 -0.4358 -0.3144 -1.0314
  302MOL0     C39769   7.695   5.276   9.542 -0.2535 -0.0721  0.0395
  302MOL0     C39770   7.601   5.397   9.568 -0.7091  0.1544  0.1352
  302MOL0     C39771   7.448   5.380   9.555 -0.5649 -0.3030  0.1393
  302MOL0     C39772   7.397   5.315   9.431 -0.2193 -0.0835  0.5606
  302MOL0     C39773   7.245   5.297   9.437  0.1783 -0.7524 -0.0761
  302MOL0     C39774   7.161   5.407   9.403 -0.2025 -0.6761  0.2290
  302MOL0     C39775   7.012   5.362   9.397  0.1792  0.6125  0.0258
  302MOL0    Cl39776   6.994   5.215   9.280  0.3846 -0.1765  0.3946
  302MOL0     C39777   8.118   5.361   9.716 -0.7716 -0.5179  0.1019
  302MOL0     C39778   8.253   5.320   9.722  0.0202  0.1670  0.2305
  302MOL0     O39779   8.489   5.140   9.503 -0.0674  0.3124 -0.0212
  302MOL0     C39780   8.641   5.025   9.820 -0.1100 -0.5548  0.1479
  302MOL0     C39781   8.756   4.961   9.868  0.0360  0.1304  0.0798
  302MOL0     N39782   9.533   4.692   9.894  0.1126 -0.2304  0.0724
  302MOL0     N39783   9.654   4.740   9.917 -0.3788 -0.0501 -0.0538
  302MOL0     C39784   9.098   4.539  10.331  0.3607 -0.0748  0.2452
  302MOL0     C39785   8.966   4.586  10.310 -0.9970  0.2112 -0.7187
  302MOL0     C39786   8.562   4.701  10.122 -0.3315  0.2231 -0.5059
  302MOL0     C39787   8.525   4.735  10.249  0.0874 -0.1814  0.0453
  302MOL0     C39788   8.392   4.777  10.268 -0.5788 -0.0479  0.2192
  302MOL0     C39789   8.304   4.785  10.163 -0.4322  0.1374 -0.3273
  302MOL0     O39790   8.177   4.839  10.192 -0.3726  0.3571 -0.0519
  302MOL0     C39791   8.082   4.854  10.085  0.3977 -0.4736 -0.7885
  302MOL0     C39792   7.949   4.925  10.116  0.5242  1.1203 -0.1257
  302MOL0     C39793   7.857   4.953   9.998 -0.4522 -0.3849  0.2420
  302MOL0     C39794   7.763   5.062  10.029 -0.0538  0.0134  0.2088
  302MOL0     C39795   7.643   5.071   9.940  0.1854 -0.3611  0.0345
  302MOL0     C39796   7.554   5.069   9.868 -0.1800  0.6603  1.1848
  302MOL0     C39797   8.345   4.753  10.036  0.0666 -0.1786  0.3537
  302MOL0     C39798   8.478   4.719  10.015  0.2545 -0.1459  0.7318
  302MOL0     H39799   8.890   4.452  10.017 -0.9042  0.3784  0.6819
  302MOL0     H39800   9.105   4.365  10.038  0.1487 -1.4429  1.4645
  302MOL0     H39801   9.377   4.507  10.398 -1.8520  2.3130 -0.3904
  302MOL0     H39802   9.383   4.590  10.248 -0.9211 -0.0309  1.4769
  302MOL0     H39803   9.522   4.424  10.151 -1.2643  0.3557 -0.1315
  302MOL0     H39804   9.535   4.328  10.306 -0.2619  0.1423  2.3980
  302MOL0     H39805   9.635   4.504  10.425  0.8755  0.9573  0.7617
  302MOL0     H39806   9.627   4.614  10.284  0.3351 -0.1626  1.2603
  302MOL0     H39807   9.790   4.360  10.321 -1.7039  1.0470  0.0604
  302MOL0     H39808   9.756   4.404  10.156 -1.5874  0.5103  0.1089
  302MOL0     H39809   9.981   4.471  10.233  1.7424  1.7006 -1.0392
  302MOL0     H39810   9.924   4.583  10.356  0.8538  0.8463 -1.0997
  302MOL0     H39811   9.846   4.632  10.058 -2.0339 -2.4667  1.6624
  302MOL0     H39812  10.004   4.682  10.112 -1.1044 -1.7405 -3.1797
  302MOL0     H39813   9.763   4.755  10.274  1.1541  0.1352  1.6068
  302MOL0     H39814   9.912   4.833  10.255  0.5883  0.3228 -0.0358
  302MOL0     H39815   9.832   4.904  10.015 -0.9572  3.5736  0.0437
  302MOL0     H39816   9.741   4.974  10.145  0.8925  1.0884 -0.5339
  302MOL0     H39817   9.481   4.823  10.186  0.7627 -2.1873  1.5105
  302MOL0     H39818   9.265   4.694  10.111 -0.2714 -1.8369 -0.2131
  302MOL0     H39819   9.310   4.582   9.975  2.4634 -0.3343  1.1764
  302MOL0     H39820   9.280   4.779   9.818  1.4608 -0.1063  0.7589
  302MOL0     H39821   9.215   4.868   9.961 -0.5640  0.2413  0.0977
  302MOL0     H39822   9.107   4.596   9.877  0.0744 -0.2676  2.5945
  302MOL0     H39823   9.031   4.709   9.984 -2.0242  1.2626 -1.1213
  302MOL0     H39824   8.902   4.711   9.810 -0.4536 -1.3016 -3.4749
  302MOL0     H39825   9.033   4.748   9.691 -1.0009  0.0554  0.2119
  302MOL0     H39826   8.936   4.964   9.572  0.0489  0.3298 -0.9782
  302MOL0     H39827   8.734   5.046   9.491  2.4255 -0.9412 -0.8319
  302MOL0     H39828   8.207   4.993   9.634  2.0946 -0.2633  2.0590
  302MOL0     H39829   7.972   5.073   9.616 -0.1906 -0.3455  0.5276
  302MOL0     H39830   7.894   5.252   9.464  1.5384 -0.2577  0.5370
  302MOL0     H39831   7.854   5.419   9.489  1.8411  0.0358  0.5974
  302MOL0     H39832   7.684   5.205   9.624 -0.6821  0.9457  0.8951
  302MOL0     H39833   7.672   5.217   9.453  1.0657  1.5221 -1.4295
  302MOL0     H39834   7.624   5.468   9.488 -2.4863  0.2009 -0.3698
  302MOL0     H39835   7.638   5.438   9.663  0.5781 -3.3460  1.3142
  302MOL0     H39836   7.428   5.329   9.650  1.0974  2.3298  2.0279
  302MOL0     H39837   7.397   5.476   9.558  1.3600  0.7441  0.8167
  302MOL0     H39838   7.449   5.221   9.412 -1.2785 -0.0714 -3.4656
  302MOL0     H39839   7.432   5.382   9.352 -0.9829 -1.2966 -0.8641
  302MOL0     H39840   7.213   5.245   9.528  0.1404 -1.1028 -0.2869
  302MOL0     H39841   7.232   5.217   9.363 -0.1478  0.2892 -1.1890
  302MOL0     H39842   7.171   5.479   9.484 -0.7459 -0.5572  0.1927
  302MOL0     H39843   7.188   5.460   9.311 -3.6567  4.4454  1.7706
  302MOL0     H39844   6.946   5.442   9.361  0.1883  0.7488  0.3081
  302MOL0     H39845   6.977   5.329   9.496 -1.1712  2.4086  0.1866
  302MOL0     H39846   8.095   5.463   9.746 -0.2406  0.4559 -2.5624
  302MOL0     H39847   8.337   5.383   9.751 -0.5599  0.6986  0.7798
  302MOL0     H39848   8.558   5.038   9.889  0.4633  1.7909  0.5039
  302MOL0     H39849   8.751   4.939   9.974 -0.0031  1.8334  0.4709
  302MOL0     H39850   9.147   4.569  10.423 -0.2000  1.2254  0.1394
  302MOL0     H39851   8.929   4.646  10.392 -1.5953 -1.2792  0.1347
  302MOL0     H39852   8.595   4.741  10.332  2.1692 -0.3463 -1.6125
  302MOL0     H39853   8.357   4.803  10.368  1.6603  1.8868  0.5881
  302MOL0     H39854   8.049   4.757  10.045 -0.6339 -0.8655  0.8874
  302MOL0     H39855   8.130   4.910  10.005 -0.7564 -2.5822 -3.0620
  302MOL0     H39856   7.897   4.873  10.197  0.3990  1.7107  0.1828
  302MOL0     H39857   7.984   5.021  10.156  0.5544  0.2726  2.0169
  302MOL0     H39858   7.796   4.865   9.979 -1.9317  0.5261  0.5625
  302MOL0     H39859   7.911   4.981   9.907 -1.6870  1.0696 -0.0970
  302MOL0     H39860   7.717   5.056  10.128 -2.9916  0.0109 -1.0559
  302MOL0     H39861   7.814   5.158  10.036 -2.2739  1.1789  1.3240
  302MOL0     H39862   7.479   5.065   9.793  1.6690  1.0901 -0.7928
  302MOL0     H39863   8.278   4.760   9.951  0.0246  0.3322  0.4264
  302MOL0     H39864   8.511   4.707   9.913 -0.7655  0.4764  0.3164
  303MOL0     O39865   5.913   5.664   4.729 -0.5435 -0.1021 -0.0483
  303MOL0     C39866   5.991   5.757   4.694  0.4021 -0.5906 -0.9460
  303MOL0     O39867   5.956   5.886   4.720 -0.5404  0.1268  0.4761
  303MOL0     C39868   5.821   5.921   4.733  0.1063 -0.8896  0.2162
  303MOL0     C39869   5.712   5.879   4.657  1.0134  0.2051  0.5637
  303MOL0     C39870   5.583   5.926   4.679 -0.6705 -0.1216  0.6395
  303MOL0     C39871   5.555   6.025   4.774 -0.2684  0.4386  0.3085
  303MOL0     O39872   5.431   6.079   4.786 -0.1084  0.8493  0.1821
  303MOL0     C39873   5.334   6.048   4.694  0.7054 -0.1367  0.4502
  303MOL0     C39874   5.211   6.130   4.722 -0.0424 -0.1482 -0.0923
  303MOL0     C39875   5.083   6.048   4.677 -0.2053 -0.0758  0.1195
  303MOL0     C39876   4.952   6.099   4.737  0.6497 -0.9277 -0.6279
  303MOL0     C39877   4.931   6.245   4.696  0.2423 -0.3471 -0.5927
  303MOL0     C39878   4.798   6.296   4.739  0.5412  0.0989 -0.2232
  303MOL0     C39879   4.674   6.261   4.655  0.3365 -0.1005  0.1026
  303MOL0     C39880   4.551   6.325   4.704 -0.0637  0.2508 -0.1938
  303MOL0     N39881   4.434   6.302   4.614 -0.3711 -0.4308  0.6913
  303MOL0     C39882   4.325   6.218   4.643 -0.1604 -0.1707  0.2462
  303MOL0     C39883   4.245   6.226   4.528  0.1475 -0.7368  0.2206
  303MOL0     C39884   4.105   6.159   4.518 -0.4440 -0.2150 -0.8076
  303MOL0     C39885   4.034   6.170   4.382 -0.2573 -0.5663  0.2413
  303MOL0     C39886   4.001   6.316   4.347 -0.5035 -0.3574 -0.2724
  303MOL0     C39887   3.865   6.329   4.283  0.4489 -1.8669  0.3036
  303MOL0     O39888   3.847   6.468   4.237  0.1036 -0.2417 -0.4151
  303MOL0     C39889   3.721   6.497   4.192 -0.0906  0.0912  0.3398
  303MOL0     C39890   3.673   6.628   4.197  0.2797  0.3949 -0.1402
  303MOL0     C39891   3.549   6.668   4.135 -0.0970  0.1664  0.2188
  303MOL0     C39892   3.470   6.574   4.070  0.4117 -0.4121 -0.6046
  303MOL0     C39893   3.333   6.604   4.020  0.2455  0.1453 -0.4463
  303MOL0     O39894   3.254   6.507   3.976 -0.0688 -0.1534  0.3846
  303MOL0     C39895   3.146   6.528   3.894  0.4832 -0.3255 -0.5605
  303MOL0     C39896   3.030   6.463   3.929 -0.3006 -0.2893 -0.1791
  303MOL0     C39897   2.914   6.499   3.854 -0.7065  0.5675  0.0122
  303MOL0     C39898   2.917   6.596   3.750  0.0730  0.1545  0.0282
  303MOL0     O39899   2.817   6.612   3.657  0.1995 -0.1521  0.4210
  303MOL0     C39900   2.690   6.564   3.687  0.1276 -0.3016 -0.2301
  303MOL0     C39901   2.672   6.423   3.636 -0.0306 -0.6537  0.1913
  303MOL0     C39902   2.557   6.342   3.694 -0.7832 -1.1154  0.0569
  303MOL0     C39903   2.544   6.210   3.624 -0.4559  0.3629  0.2905
  303MOL0     C39904   2.493   6.205   3.477 -1.5395 -0.4289  0.0110
  303MOL0     C39905   2.357   6.256   3.458  0.4503  0.4050 -0.2597
  303MOL0     C39906   2.241   6.181   3.526  0.4730 -0.5890 -0.2028
  303MOL0     C39907   2.152   6.270   3.615 -0.0016 -0.3141 -0.1072
  303MOL0    Cl39908   2.052   6.374   3.512  0.0649 -0.0105 -0.0165
  303MOL0     C39909   3.039   6.664   3.721  0.0834 -0.3278  0.4926
  303MOL0     C39910   3.149   6.631   3.797  0.4827 -0.4456  0.1919
  303MOL0     O39911   3.306   6.723   4.013 -0.1940 -0.1166  0.6159
  303MOL0     C39912   3.515   6.440   4.066 -0.3004  0.4800 -0.1159
  303MOL0     C39913   3.640   6.406   4.121  0.6352  0.7920 -0.5778
  303MOL0     N39914   4.313   6.314   4.439  0.6854  0.1719  0.5491
  303MOL0     N39915   4.431   6.346   4.486 -0.7528  1.1694  0.1905
  303MOL0     C39916   5.663   6.078   4.849  0.2165 -0.5707 -0.4938
  303MOL0     C39917   5.796   6.025   4.828  0.2576  0.8323  0.1652
  303MOL0     C39918   6.110   5.729   4.626 -0.0254 -0.0321  0.6242
  303MOL0     C39919   6.136   5.601   4.579 -0.0579 -0.3389  0.0394
  303MOL0     C39920   6.258   5.572   4.510  0.0302 -0.3570 -0.3449
  303MOL0     C39921   6.343   5.672   4.471 -0.4163 -0.0294  0.7517
  303MOL0     O39922   6.448   5.635   4.395  0.3079  0.0355 -0.1003
  303MOL0     C39923   6.521   5.740   4.325 -0.0657  0.3706  0.1835
  303MOL0     C39924   6.599   5.694   4.196 -0.4458  0.7743 -0.2094
  303MOL0     C39925   6.650   5.807   4.124  0.2986  0.6337  0.3312
  303MOL0     C39926   6.686   5.761   3.978 -0.3003 -0.6667  0.2789
  303MOL0     C39927   6.773   5.869   3.921  0.2431  0.8432 -0.2552
  303MOL0     C39928   6.857   5.942   3.867  0.1537  0.2854 -0.7134
  303MOL0     C39929   6.318   5.804   4.518  0.1379 -0.4566  0.0621
  303MOL0     C39930   6.204   5.822   4.599 -0.2329  0.0580 -0.4293
  303MOL0     H39931   5.736   5.811   4.575 -0.7850  0.3467 -0.1388
  303MOL0     H39932   5.510   5.894   4.605 -0.7212  0.5325  0.4020
  303MOL0     H39933   5.320   5.941   4.707 -0.2054 -0.3308 -1.7367
  303MOL0     H39934   5.363   6.068   4.590 -0.4252  0.3798  0.2212
  303MOL0     H39935   5.220   6.227   4.672  2.6450 -0.1829  0.1261
  303MOL0     H39936   5.214   6.147   4.830 -1.4166  1.8485 -0.3309
  303MOL0     H39937   5.089   5.942   4.703  0.5785  0.0225  0.3590
  303MOL0     H39938   5.079   6.045   4.568  1.2943 -4.1268  0.0138
  303MOL0     H39939   4.859   6.044   4.718  0.2188 -0.9890  1.4103
  303MOL0     H39940   4.949   6.093   4.847 -0.2967  4.3836 -0.0821
  303MOL0     H39941   4.931   6.243   4.586  4.1317  0.8218 -0.7659
  303MOL0     H39942   5.005   6.308   4.746 -0.2742 -1.8721  2.2942
  303MOL0     H39943   4.805   6.405   4.743  0.6583  0.0859 -0.0810
  303MOL0     H39944   4.775   6.263   4.841  1.9918  1.4188  0.5757
  303MOL0     H39945   4.694   6.302   4.556  2.7621  0.6231  0.7937
  303MOL0     H39946   4.669   6.153   4.642  4.1001 -0.3218 -0.7728
  303MOL0     H39947   4.578   6.431   4.712  0.5822  0.0365  0.5505
  303MOL0     H39948   4.539   6.284   4.805  0.0859 -2.5686 -1.2234
  303MOL0     H39949   4.312   6.154   4.729 -1.2609 -1.5109 -0.8693
  303MOL0     H39950   4.035   6.203   4.589 -2.2671 -3.4507 -0.3641
  303MOL0     H39951   4.119   6.056   4.552  0.6596  0.9003  2.4855
  303MOL0     H39952   3.940   6.115   4.392 -1.2533  0.9384 -0.5470
  303MOL0     H39953   4.090   6.135   4.295 -0.4456 -2.3087  0.7727
  303MOL0     H39954   4.000   6.381   4.435  2.4219  2.5966 -2.1629
  303MOL0     H39955   4.078   6.368   4.289  0.3798  0.3090  1.4283
  303MOL0     H39956   3.781   6.304   4.348 -0.3645 -0.5677 -0.2172
  303MOL0     H39957   3.850   6.258   4.201 -1.5141 -2.3302  1.0128
  303MOL0     H39958   3.730   6.696   4.261  0.8062 -1.1637  1.1029
  303MOL0     H39959   3.519   6.770   4.157  2.1952  1.4618 -2.1390
  303MOL0     H39960   3.035   6.389   4.007  2.6690  2.0638  2.1029
  303MOL0     H39961   2.821   6.448   3.877 -0.0338 -0.2639  0.9778
  303MOL0     H39962   2.604   6.616   3.644 -0.1370 -0.9006 -0.4253
  303MOL0     H39963   2.679   6.570   3.796 -1.0580 -2.4347 -0.1946
  303MOL0     H39964   2.770   6.373   3.639 -0.7819 -2.4430 -1.9887
  303MOL0     H39965   2.652   6.437   3.530  0.7996  0.0920  0.1243
  303MOL0     H39966   2.466   6.397   3.670 -1.1987 -2.1890 -0.8878
  303MOL0     H39967   2.579   6.329   3.801  2.0524 -1.7553 -0.5043
  303MOL0     H39968   2.637   6.153   3.627 -0.3303  0.6137  1.8301
  303MOL0     H39969   2.471   6.151   3.681  0.6497 -2.6294 -1.1752
  303MOL0     H39970   2.501   6.103   3.438  1.4070  0.1391 -1.1192
  303MOL0     H39971   2.563   6.258   3.412 -0.2384  0.9724  2.4072
  303MOL0     H39972   2.332   6.253   3.352 -0.9011 -0.3416  0.0546
  303MOL0     H39973   2.361   6.361   3.490  1.7480  0.2392  0.1878
  303MOL0     H39974   2.182   6.129   3.451  0.9493 -1.8656  0.2723
  303MOL0     H39975   2.283   6.101   3.588  2.4615  1.2227  0.9558
  303MOL0     H39976   2.217   6.336   3.674  1.4373 -1.1111 -0.7670
  303MOL0     H39977   2.078   6.216   3.675  0.0218 -0.7544 -0.4742
  303MOL0     H39978   3.038   6.727   3.633  1.8569  0.1769  0.7888
  303MOL0     H39979   3.244   6.678   3.774 -0.6644  1.6262 -0.5732
  303MOL0     H39980   3.457   6.356   4.030 -1.6945  0.6863  1.4964
  303MOL0     H39981   3.684   6.311   4.095  1.7951  0.7030  1.5211
  303MOL0     H39982   5.640   6.165   4.910 -0.9898 -0.1557 -1.4887
  303MOL0     H39983   5.883   6.077   4.867 -0.1722  2.4670 -0.9371
  303MOL0     H39984   6.066   5.519   4.593 -0.4154 -0.0149  0.1733
  303MOL0     H39985   6.278   5.468   4.488 -0.1663 -0.4455 -0.1120
  303MOL0     H39986   6.592   5.791   4.391  0.0250  1.3087 -0.6216
  303MOL0     H39987   6.456   5.818   4.285  0.9830  0.7065 -0.9413
  303MOL0     H39988   6.685   5.633   4.227 -2.1734 -0.3607  2.8419
  303MOL0     H39989   6.535   5.638   4.127 -0.0925  0.4583 -0.2858
  303MOL0     H39990   6.749   5.837   4.160  0.3210  1.6248 -0.5290
  303MOL0     H39991   6.583   5.892   4.138  3.3874  3.5235 -0.8382
  303MOL0     H39992   6.733   5.662   3.973  0.8308 -0.1386  0.1907
  303MOL0     H39993   6.596   5.754   3.917  0.0796 -2.1548 -0.1595
  303MOL0     H39994   6.922   6.019   3.831 -0.5019  1.4993  0.5647
  303MOL0     H39995   6.383   5.889   4.498  0.1777 -0.5810 -0.3422
  303MOL0     H39996   6.182   5.921   4.637 -0.7784 -0.0079 -0.5687
  304MOL0     O39997   0.263   3.579   3.576 -0.4443 -0.6989  1.0276
  304MOL0     C39998   0.255   3.668   3.492 -0.3010  0.7446  0.7075
  304MOL0     O39999   0.140   3.703   3.433  0.5809 -0.0175  0.3677
  304MOL0     C40000   0.018   3.661   3.481  0.0703 -0.3689  0.2498
  304MOL0     C40001  -0.078   3.760   3.521  0.0668 -0.0159 -0.9141
  304MOL0     C40002  -0.206   3.729   3.571 -0.2644  0.3724  0.8114
  304MOL0     C40003  -0.250   3.599   3.569  0.5623  0.5339  0.1804
  304MOL0     O40004  -0.364   3.552   3.614  0.0165 -0.8323 -0.2373
  304MOL0     C40005  -0.421   3.635   3.718 -0.1598  0.6224  1.0792
  304MOL0     C40006  -0.541   3.557   3.767 -0.8044  0.5893 -0.2647
  304MOL0     C40007  -0.636   3.523   3.655  0.2408 -0.9588 -0.1732
  304MOL0     C40008  -0.768   3.492   3.707 -0.3362  0.1531 -0.2130
  304MOL0     C40009  -0.864   3.451   3.593 -0.5767  0.0527 -0.3475
  304MOL0     C40010  -1.010   3.406   3.644 -0.0971  0.5902 -0.0740
  304MOL0     C40011  -1.013   3.268   3.718 -0.2078  1.3408 -0.1862
  304MOL0     C40012  -1.137   3.261   3.814 -0.3076  0.9346 -0.3154
  304MOL0     N40013  -1.263   3.240   3.750  0.6433 -0.6394 -0.5697
  304MOL0     C40014  -1.309   3.131   3.668  0.0901 -1.0658  0.7266
  304MOL0     C40015  -1.424   3.173   3.616 -0.2106  0.2823  0.0705
  304MOL0     C40016  -1.526   3.090   3.525 -0.5283 -0.0156  0.3625
  304MOL0     C40017  -1.562   2.956   3.587  0.0861 -0.6486 -0.7316
  304MOL0     C40018  -1.638   2.862   3.498 -0.9797 -0.5577  0.0982
  304MOL0     C40019  -1.640   2.723   3.550  0.7623 -0.3804  0.0259
  304MOL0     O40020  -1.666   2.703   3.704 -0.6749  0.0919  0.2784
  304MOL0     C40021  -1.796   2.693   3.742  0.2127  0.0963 -0.4071
  304MOL0     C40022  -1.911   2.737   3.672 -0.1698  0.5934  0.9203
  304MOL0     C40023  -2.039   2.728   3.735  1.0447  0.5605 -0.1032
  304MOL0     C40024  -2.063   2.660   3.856 -0.2394  0.5815  0.2594
  304MOL0     C40025  -2.202   2.609   3.896 -0.5153 -0.3338 -0.0458
  304MOL0     O40026  -2.307   2.661   3.829 -0.0397  0.0156 -0.0058
  304MOL0     C40027  -2.429   2.597   3.840 -1.0931  0.3615 -0.1564
  304MOL0     C40028  -2.476   2.483   3.776 -0.2154  0.1274  0.1429
  304MOL0     C40029  -2.598   2.428   3.808  0.3736  0.1124 -0.3068
  304MOL0     C40030  -2.677   2.483   3.919 -0.3064  1.1829 -0.0930
  304MOL0     O40031  -2.789   2.415   3.949  0.1145  0.2285 -0.2217
  304MOL0     C40032  -2.900   2.442   3.864  0.9052 -0.1459 -0.2520
  304MOL0     C40033  -3.023   2.369   3.916 -0.2463 -0.2265 -0.1217
  304MOL0     C40034  -3.153   2.439   3.870 -0.1100  0.4349  0.3342
  304MOL0     C40035  -3.184   2.422   3.727 -0.7054 -0.2196 -0.2106
  304MOL0     C40036  -3.312   2.499   3.708  0.2679 -0.4362  0.6277
  304MOL0     C40037  -3.389   2.452   3.589  0.7527  0.3223  0.3150
  304MOL0     C40038  -3.524   2.516   3.566  0.2561 -0.1485 -0.1191
  304MOL0     C40039  -3.633   2.464   3.664 -0.9306 -0.2183 -0.2417
  304MOL0    Cl40040  -3.791   2.518   3.600  0.1143 -0.3643 -0.1170
  304MOL0     C40041  -2.630   2.601   3.977  0.1794  0.1398 -0.3345
  304MOL0     C40042  -2.509   2.659   3.938 -0.1767  0.8678 -0.4230
  304MOL0     O40043  -2.202   2.514   3.969  0.3696 -0.8789  0.0390
  304MOL0     C40044  -1.943   2.641   3.929 -0.5724  0.1380 -0.7463
  304MOL0     C40045  -1.817   2.643   3.871 -0.1484 -0.0134 -0.3519
  304MOL0     N40046  -1.453   3.306   3.653  0.0971  0.0517 -0.2459
  304MOL0     N40047  -1.355   3.338   3.738 -0.0782 -0.3868  0.1235
  304MOL0     C40048  -0.161   3.505   3.527  0.5112 -0.3870 -0.5786
  304MOL0     C40049  -0.030   3.526   3.485 -0.1150  0.5974 -0.3250
  304MOL0     C40050   0.377   3.737   3.448  0.5169 -0.3252 -0.5363
  304MOL0     C40051   0.504   3.678   3.463 -0.7228 -1.0303 -0.3289
  304MOL0     C40052   0.618   3.746   3.419 -0.2331 -1.0156  0.3521
  304MOL0     C40053   0.617   3.870   3.359  0.0068  0.5816 -0.3550
  304MOL0     O40054   0.729   3.925   3.306  0.0821 -0.0235  0.3230
  304MOL0     C40055   0.724   4.063   3.296 -0.7826 -0.2723  0.3604
  304MOL0     C40056   0.867   4.120   3.270  0.1332 -0.0075 -0.7988
  304MOL0     C40057   0.856   4.270   3.265  0.5796  0.2043 -0.1171
  304MOL0     C40058   0.962   4.312   3.163 -0.7784  0.3038  0.2776
  304MOL0     C40059   1.092   4.292   3.231 -1.1093  0.2885  0.4235
  304MOL0     C40060   1.194   4.274   3.292 -1.2144 -0.1282  0.0102
  304MOL0     C40061   0.488   3.930   3.340 -0.0182  1.1142  0.2490
  304MOL0     C40062   0.370   3.861   3.383  0.7975 -0.3131  0.0735
  304MOL0     H40063  -0.034   3.858   3.511  2.6274 -0.8066  1.5039
  304MOL0     H40064  -0.275   3.804   3.609 -1.3735 -0.5604  0.7176
  304MOL0     H40065  -0.465   3.721   3.667  1.6421  1.9908  1.7324
  304MOL0     H40066  -0.352   3.654   3.800  3.0136 -1.4270 -0.8540
  304MOL0     H40067  -0.591   3.630   3.831 -1.6593  0.2693 -0.5545
  304MOL0     H40068  -0.519   3.469   3.829  4.0671  0.1796 -2.1045
  304MOL0     H40069  -0.596   3.441   3.594 -0.4216 -0.3686 -1.4424
  304MOL0     H40070  -0.631   3.613   3.593  2.5160 -1.2682 -0.5282
  304MOL0     H40071  -0.759   3.408   3.777 -1.3438 -0.2462 -0.5304
  304MOL0     H40072  -0.812   3.578   3.757  0.4646  1.3684 -1.5221
  304MOL0     H40073  -0.823   3.357   3.555  0.2583  0.5821 -0.7783
  304MOL0     H40074  -0.869   3.528   3.516  1.4859 -0.2828 -0.8585
  304MOL0     H40075  -1.084   3.405   3.564  0.7056  1.2521 -0.8525
  304MOL0     H40076  -1.040   3.485   3.714 -0.0678 -0.8237  1.5856
  304MOL0     H40077  -1.015   3.194   3.639  1.3770  2.0746 -0.9455
  304MOL0     H40078  -0.932   3.240   3.786 -1.1987 -0.5447  0.2954
  304MOL0     H40079  -1.130   3.352   3.873 -0.1019 -0.2887  1.6442
  304MOL0     H40080  -1.137   3.183   3.891  0.9121  0.7004 -0.5246
  304MOL0     H40081  -1.259   3.035   3.660  0.6061 -0.7858  0.5791
  304MOL0     H40082  -1.485   3.077   3.424 -0.9398  0.7718  0.0824
  304MOL0     H40083  -1.617   3.151   3.528 -0.0690  0.9068 -2.1341
  304MOL0     H40084  -1.609   2.972   3.685 -1.0958  0.4169 -1.4393
  304MOL0     H40085  -1.465   2.908   3.602  1.2457  1.3035 -1.6336
  304MOL0     H40086  -1.735   2.909   3.476 -1.4720  0.7724  4.1951
  304MOL0     H40087  -1.590   2.863   3.400 -0.2990 -0.9680  0.4200
  304MOL0     H40088  -1.541   2.683   3.527  1.6994  0.6492  2.0346
  304MOL0     H40089  -1.707   2.664   3.486  1.4305  1.0781 -2.1389
  304MOL0     H40090  -1.910   2.787   3.575 -0.9174 -1.3279 -0.1144
  304MOL0     H40091  -2.117   2.759   3.666  3.2280  0.4213 -2.8343
  304MOL0     H40092  -2.416   2.431   3.702  0.8886  0.2938  0.9097
  304MOL0     H40093  -2.627   2.332   3.765  0.6777 -0.3460  0.4870
  304MOL0     H40094  -2.875   2.400   3.766  3.9349 -0.1614  0.4365
  304MOL0     H40095  -2.924   2.548   3.872 -0.5126 -0.5823  2.3473
  304MOL0     H40096  -3.023   2.372   4.026 -1.2780 -0.5403 -0.0990
  304MOL0     H40097  -3.007   2.266   3.883 -0.3815 -0.0160 -0.8652
  304MOL0     H40098  -3.153   2.545   3.897 -0.4929  0.5522 -0.1211
  304MOL0     H40099  -3.239   2.387   3.913 -1.2649  2.2750  0.3480
  304MOL0     H40100  -3.109   2.461   3.658 -0.4118  1.0725  0.7955
  304MOL0     H40101  -3.187   2.314   3.712  3.0353 -0.5961  0.9123
  304MOL0     H40102  -3.285   2.605   3.703  1.2131 -0.6973 -0.2179
  304MOL0     H40103  -3.379   2.487   3.793 -2.7117  4.0396 -0.7163
  304MOL0     H40104  -3.403   2.345   3.605  2.4237  0.3644  2.6027
  304MOL0     H40105  -3.327   2.457   3.499  1.4551 -2.0926  0.6106
  304MOL0     H40106  -3.512   2.624   3.567 -2.4502  0.2863 -1.8405
  304MOL0     H40107  -3.551   2.501   3.460  1.2886 -0.7265 -0.3115
  304MOL0     H40108  -3.619   2.503   3.765 -0.9296 -2.9253  0.8876
  304MOL0     H40109  -3.632   2.355   3.674  2.5474 -0.1992  0.7697
  304MOL0     H40110  -2.693   2.653   4.049 -0.5738 -1.2183  0.0150
  304MOL0     H40111  -2.476   2.747   3.993 -2.0623  0.3888  1.6294
  304MOL0     H40112  -1.944   2.595   4.027  0.1694  1.4153 -0.1113
  304MOL0     H40113  -1.727   2.607   3.921  0.8157  1.5350 -0.8829
  304MOL0     H40114  -0.203   3.405   3.535 -0.5475  0.0640 -0.2754
  304MOL0     H40115   0.038   3.445   3.457 -0.1816 -0.0799  1.3516
  304MOL0     H40116   0.506   3.580   3.509 -1.8116 -1.4172 -1.0537
  304MOL0     H40117   0.716   3.705   3.438  1.9761  2.6402 -2.0400
  304MOL0     H40118   0.692   4.109   3.390 -2.2691  1.8107 -1.0709
  304MOL0     H40119   0.662   4.102   3.215  0.4964  2.6044  0.6237
  304MOL0     H40120   0.942   4.099   3.346  2.6835  0.1659 -3.1082
  304MOL0     H40121   0.903   4.070   3.179 -0.9274 -0.5409 -0.9460
  304MOL0     H40122   0.873   4.316   3.363 -1.4504 -0.7751  0.7622
  304MOL0     H40123   0.754   4.300   3.237 -1.5532 -2.9215  3.3456
  304MOL0     H40124   0.946   4.250   3.074  2.0381 -0.3293  0.1190
  304MOL0     H40125   0.944   4.420   3.154 -0.5959  0.2371 -1.1910
  304MOL0     H40126   1.286   4.272   3.347 -0.6579 -1.7184 -0.9040
  304MOL0     H40127   0.476   4.024   3.287  0.7557  0.2352 -1.5766
  304MOL0     H40128   0.270   3.899   3.362  0.4905 -1.9181 -1.6450
  305MOL0     O40129   3.357   1.408   9.816  0.1180 -0.4096  0.3483
  305MOL0     C40130   3.459   1.388   9.887 -0.6662  0.1240 -0.3845
  305MOL0     O40131   3.481   1.268   9.949  0.3758 -0.4958  1.0832
  305MOL0     C40132   3.366   1.187   9.957 -0.5346 -0.2307  0.5641
  305MOL0     C40133   3.254   1.217  10.033  0.0902 -0.4621  0.5796
  305MOL0     C40134   3.140   1.131  10.049 -0.2920  0.0263  0.7039
  305MOL0     C40135   3.131   1.008   9.987 -0.2041  0.2585  0.5291
  305MOL0     O40136   3.033   0.908   9.999 -0.3845  0.0056  0.5404
  305MOL0     C40137   2.906   0.945  10.055  0.9730  0.0576 -0.3415
  305MOL0     C40138   2.798   0.863   9.984 -0.1802 -0.0443 -0.0010
  305MOL0     C40139   2.793   0.722  10.038 -0.2300 -0.0814 -0.1313
  305MOL0     C40140   2.680   0.636   9.971  0.7704 -0.3718 -0.4295
  305MOL0     C40141   2.646   0.501  10.037  0.7191  0.2379 -0.7189
  305MOL0     C40142   2.502   0.477  10.057  0.2984 -0.2852 -0.4839
  305MOL0     C40143   2.470   0.374  10.164  0.2194  0.3959  0.3181
  305MOL0     C40144   2.506   0.226  10.123 -0.8899  0.5647  0.2174
  305MOL0     N40145   2.454   0.187   9.989 -0.4334 -0.1700 -0.0196
  305MOL0     C40146   2.321   0.188   9.955  0.6832 -0.4505  0.5620
  305MOL0     C40147   2.308   0.142   9.828  0.3728 -0.0173  0.6328
  305MOL0     C40148   2.178   0.127   9.747  0.9651  0.6728 -0.0484
  305MOL0     C40149   2.190   0.140   9.597  0.0226  0.4876  0.7142
  305MOL0     C40150   2.204   0.289   9.554 -0.9476  0.0283  0.1828
  305MOL0     C40151   2.076   0.371   9.529 -0.5194  0.0252 -0.6488
  305MOL0     O40152   1.992   0.384   9.649  0.9256 -0.4071  0.4731
  305MOL0     C40153   1.862   0.417   9.637 -0.5421  0.1684  0.1601
  305MOL0     C40154   1.805   0.496   9.530 -0.0874 -0.0612  0.2447
  305MOL0     C40155   1.669   0.529   9.523  0.4868 -0.3368 -0.3910
  305MOL0     C40156   1.590   0.506   9.642 -0.5850  0.3289 -0.3986
  305MOL0     C40157   1.457   0.552   9.651  0.1612  0.2883 -0.3944
  305MOL0     O40158   1.406   0.567   9.778 -0.1843  0.3909  0.4419
  305MOL0     C40159   1.277   0.602   9.799 -0.4128  0.1308  0.3499
  305MOL0     C40160   1.255   0.733   9.851  0.5192  0.3278  0.2683
  305MOL0     C40161   1.129   0.767   9.893  0.4062  0.2788  0.9192
  305MOL0     C40162   1.024   0.671   9.877 -0.2534  0.0005 -0.8962
  305MOL0     O40163   0.900   0.726   9.906 -0.2430  0.1234 -0.2918
  305MOL0     C40164   0.781   0.650   9.937 -0.1472  0.4830  0.0221
  305MOL0     C40165   0.673   0.738  10.004 -0.0941 -0.1038  0.5110
  305MOL0     C40166   0.579   0.663  10.094 -0.3972  0.2386 -0.0737
  305MOL0     C40167   0.459   0.741  10.138  0.2283 -0.8560  0.0177
  305MOL0     C40168   0.378   0.660  10.249  0.5239 -0.1227 -1.5252
  305MOL0     C40169   0.328   0.520  10.220 -0.0574  0.4124  0.3737
  305MOL0     C40170   0.226   0.514  10.110  1.3094 -0.1285 -0.2201
  305MOL0     C40171   0.178   0.371  10.084  0.2110 -0.0781  0.1247
  305MOL0    Cl40172   0.316   0.276  10.022 -0.3026  0.2638  0.0050
  305MOL0     C40173   1.048   0.544   9.823 -0.2508 -0.3518  0.3912
  305MOL0     C40174   1.177   0.502   9.783 -0.4134 -0.0794 -0.3737
  305MOL0     O40175   1.396   0.585   9.547 -0.4925  0.0303 -0.7856
  305MOL0     C40176   1.649   0.434   9.754 -0.5240 -0.2341  0.9154
  305MOL0     C40177   1.781   0.385   9.748 -0.1357  0.1353 -0.4386
  305MOL0     N40178   2.438   0.124   9.780 -0.4389 -0.8547 -0.4761
  305MOL0     N40179   2.519   0.141   9.876  0.2654  0.1849 -0.2372
  305MOL0     C40180   3.247   0.969   9.911  0.8559 -0.2895 -0.4103
  305MOL0     C40181   3.363   1.055   9.896  0.3308  0.4224 -0.6415
  305MOL0     C40182   3.569   1.487   9.903  0.5890 -0.0133  0.2433
  305MOL0     C40183   3.690   1.447   9.961 -0.2040 -0.1634  0.5262
  305MOL0     C40184   3.793   1.541   9.952 -0.5366 -0.0356 -0.8727
  305MOL0     C40185   3.776   1.672   9.890  0.4423  0.3192 -1.2423
  305MOL0     O40186   3.875   1.766   9.884 -1.0508 -0.0903  0.2141
  305MOL0     C40187   4.007   1.725   9.922  0.3803  0.4975  0.9345
  305MOL0     C40188   4.088   1.849   9.963  0.4944  0.5852  1.2123
  305MOL0     C40189   4.223   1.818  10.019 -0.1751  0.5851 -0.2594
  305MOL0     C40190   4.300   1.945  10.028 -0.3370 -1.0755 -0.3456
  305MOL0     C40191   4.424   1.923  10.102  1.0541  0.2638  0.0943
  305MOL0     C40192   4.529   1.890  10.147 -0.5104 -0.0516 -0.2191
  305MOL0     C40193   3.654   1.710   9.846 -1.1806  0.1824  1.0270
  305MOL0     C40194   3.554   1.614   9.847  0.4813  0.0604 -0.0239
  305MOL0     H40195   3.256   1.312  10.085 -1.3080 -0.6557  1.0161
  305MOL0     H40196   3.067   1.173  10.116 -0.7221 -0.6854  0.6917
  305MOL0     H40197   2.877   1.048  10.031 -0.7579  0.0181  1.3987
  305MOL0     H40198   2.903   0.928  10.163 -2.0852 -1.3914 -0.5508
  305MOL0     H40199   2.811   0.861   9.876 -0.8380  0.7363 -0.1061
  305MOL0     H40200   2.695   0.895  10.002 -1.7512 -4.2447 -0.4679
  305MOL0     H40201   2.764   0.729  10.143 -1.2796 -3.4485 -0.0853
  305MOL0     H40202   2.891   0.678  10.018  0.7858  2.6333 -1.5409
  305MOL0     H40203   2.588   0.694   9.974  0.4222 -0.8811 -1.0114
  305MOL0     H40204   2.703   0.624   9.864 -0.3842  0.2266 -0.7622
  305MOL0     H40205   2.693   0.508  10.135 -2.4226 -0.9624  0.9758
  305MOL0     H40206   2.701   0.421   9.984  3.4773  1.4048  0.1730
  305MOL0     H40207   2.447   0.462   9.963  1.3333 -0.4295 -1.0794
  305MOL0     H40208   2.459   0.566  10.104 -1.9606 -3.6584  4.7820
  305MOL0     H40209   2.525   0.400  10.255 -1.3990  1.1264  1.1364
  305MOL0     H40210   2.362   0.377  10.182  0.0348 -1.6977 -0.1394
  305MOL0     H40211   2.465   0.153  10.193 -0.9656 -0.2225 -0.6249
  305MOL0     H40212   2.615   0.223  10.126 -0.5961 -0.9500 -4.1020
  305MOL0     H40213   2.246   0.205  10.032 -0.1901  5.1014 -1.0315
  305MOL0     H40214   2.108   0.200   9.788  3.3308  2.7879  0.5226
  305MOL0     H40215   2.135   0.028   9.766 -1.9281  1.7672 -0.4433
  305MOL0     H40216   2.105   0.091   9.549 -1.0512 -1.9278  4.5801
  305MOL0     H40217   2.284   0.094   9.566 -0.3043  1.5185 -2.1764
  305MOL0     H40218   2.266   0.335   9.632 -0.5946 -1.2786  0.7048
  305MOL0     H40219   2.267   0.296   9.465 -0.2616  1.4749  0.7491
  305MOL0     H40220   2.021   0.326   9.445  1.0175 -0.7819 -1.2556
  305MOL0     H40221   2.096   0.470   9.489  0.8500 -0.2283 -0.6162
  305MOL0     H40222   1.869   0.537   9.453 -0.1682 -0.2392  0.0827
  305MOL0     H40223   1.635   0.587   9.438  1.8859  0.2774 -0.5573
  305MOL0     H40224   1.333   0.808   9.854  2.7565 -1.7881 -1.1920
  305MOL0     H40225   1.101   0.867   9.925 -3.2578 -0.5060  0.5924
  305MOL0     H40226   0.797   0.558   9.994 -0.0542  0.4361 -0.0787
  305MOL0     H40227   0.743   0.610   9.842  0.7992 -0.4631  0.0194
  305MOL0     H40228   0.623   0.802   9.931  1.8028 -0.0978 -0.8630
  305MOL0     H40229   0.736   0.800  10.069  1.8109 -0.6931 -0.6811
  305MOL0     H40230   0.646   0.619  10.167  1.0422 -3.8649 -3.4110
  305MOL0     H40231   0.543   0.572  10.044 -0.4983  0.4274 -0.3514
  305MOL0     H40232   0.481   0.842  10.173  1.5620 -0.4033 -1.9365
  305MOL0     H40233   0.393   0.745  10.051  0.6468  0.4924 -0.2469
  305MOL0     H40234   0.293   0.721  10.281  0.4275 -0.4368 -1.1815
  305MOL0     H40235   0.443   0.661  10.337 -4.1220 -0.5250  2.2982
  305MOL0     H40236   0.283   0.468  10.306 -1.0530  1.4514  0.5130
  305MOL0     H40237   0.416   0.460  10.196 -1.6135 -2.6471  1.6575
  305MOL0     H40238   0.135   0.564  10.146 -0.5956 -2.0584 -2.0498
  305MOL0     H40239   0.255   0.560  10.015 -2.2944  1.2656 -0.8117
  305MOL0     H40240   0.096   0.372  10.011  1.0764 -0.2217 -0.8726
  305MOL0     H40241   0.152   0.318  10.176  1.6806 -1.4328 -0.1903
  305MOL0     H40242   0.963   0.478   9.807 -0.7627  0.1455  0.9896
  305MOL0     H40243   1.206   0.401   9.755  3.9750  0.7952  0.2656
  305MOL0     H40244   1.599   0.424   9.849 -1.3428  0.5746  0.5860
  305MOL0     H40245   1.814   0.326   9.832  2.1710  1.1647 -0.5509
  305MOL0     H40246   3.254   0.863   9.885  2.1128  0.1009 -1.8354
  305MOL0     H40247   3.451   1.013   9.848 -1.4501 -0.7402 -3.0658
  305MOL0     H40248   3.716   1.349  10.000  0.1134 -2.0011 -3.7110
  305MOL0     H40249   3.883   1.526  10.011 -0.3561 -1.1624 -1.3988
  305MOL0     H40250   4.055   1.668   9.842  2.8556 -0.7322  3.1407
  305MOL0     H40251   4.003   1.664  10.013 -2.5843 -1.3740 -0.3017
  305MOL0     H40252   4.108   1.912   9.876  0.2806  2.9702  2.8107
  305MOL0     H40253   4.025   1.895  10.040  0.7209  0.8605  1.2326
  305MOL0     H40254   4.276   1.754   9.948  0.1815  0.0809  0.4422
  305MOL0     H40255   4.215   1.774  10.119 -2.7027  0.6464 -0.3842
  305MOL0     H40256   4.340   1.977   9.931  1.3834 -2.4156 -0.1371
  305MOL0     H40257   4.239   2.027  10.067 -0.6112 -1.0638 -0.7932
  305MOL0     H40258   4.631   1.875  10.176 -0.8380 -3.7543 -0.5837
  305MOL0     H40259   3.633   1.807   9.802  4.3840  2.0264  1.6707
  305MOL0     H40260   3.456   1.631   9.803  0.5978  0.2821 -0.2051
  306MOL0     O40261   9.257   9.934   2.628  0.1806 -0.2294 -0.0697
  306MOL0     C40262   9.330   9.867   2.554 -0.4950  0.0715 -0.7151
  306MOL0     O40263   9.296   9.764   2.474  0.4170  0.3329  0.4785
  306MOL0     C40264   9.157   9.744   2.461  0.0526  0.0565 -0.3009
  306MOL0     C40265   9.096   9.781   2.353  0.6995 -0.0942  0.2690
  306MOL0     C40266   8.956   9.758   2.329 -0.7289  0.2274  0.0693
  306MOL0     C40267   8.885   9.686   2.419  0.4891 -0.4709  0.5160
  306MOL0     O40268   8.756   9.653   2.377 -0.3873 -0.3339 -0.3471
  306MOL0     C40269   8.659   9.605   2.475  0.8121  0.0310 -0.1411
  306MOL0     C40270   8.525   9.634   2.395  0.5146 -0.1721  0.1519
  306MOL0     C40271   8.402   9.602   2.471  0.0084  0.4371  0.6613
  306MOL0     C40272   8.362   9.685   2.595 -0.1011 -0.4227  0.0134
  306MOL0     C40273   8.207   9.709   2.612 -0.2730  0.2460  0.4910
  306MOL0     C40274   8.176   9.793   2.728  0.7226  0.4841 -1.0273
  306MOL0     C40275   8.024   9.812   2.761  0.5462  0.1300  0.6837
  306MOL0     C40276   7.966   9.703   2.842 -0.2149 -0.3801  0.2403
  306MOL0     N40277   7.824   9.708   2.840  0.2476 -0.3467 -0.0170
  306MOL0     C40278   7.743   9.681   2.735 -0.2625  0.1782  0.4889
  306MOL0     C40279   7.618   9.675   2.792 -0.1565  0.0277 -1.0340
  306MOL0     C40280   7.501   9.624   2.716  0.1131 -0.1373  0.0335
  306MOL0     C40281   7.367   9.646   2.783  0.0288 -0.2949  0.1960
  306MOL0     C40282   7.247   9.570   2.719 -0.7362  0.7092 -0.0249
  306MOL0     C40283   7.110   9.589   2.789 -1.0791 -0.2336  0.9535
  306MOL0     O40284   7.007   9.594   2.691  0.2587 -0.0707  0.4897
  306MOL0     C40285   6.877   9.611   2.738 -0.0828  0.5385 -0.3406
  306MOL0     C40286   6.790   9.685   2.659  0.0431 -0.1269 -0.0135
  306MOL0     C40287   6.653   9.707   2.697 -0.4152  0.4159  0.5512
  306MOL0     C40288   6.593   9.630   2.799 -0.3987  0.1833 -0.8228
  306MOL0     C40289   6.450   9.627   2.828  0.1396  0.1470 -0.4766
  306MOL0     O40290   6.411   9.522   2.908  0.4131 -0.2565 -0.4897
  306MOL0     C40291   6.282   9.508   2.949 -1.0429  1.0149  0.5144
  306MOL0     C40292   6.266   9.519   3.086 -1.3544 -0.3083  0.0995
  306MOL0     C40293   6.142   9.506   3.140  0.8115 -0.1692 -0.7024
  306MOL0     C40294   6.030   9.465   3.067  0.3854  0.6020  0.6871
  306MOL0     O40295   5.910   9.429   3.120  0.5098 -0.2936 -0.6395
  306MOL0     C40296   5.905   9.387   3.258  0.1533  0.4092  0.0366
  306MOL0     C40297   5.967   9.247   3.270 -0.3504 -0.3088 -0.2969
  306MOL0     C40298   5.952   9.209   3.416 -0.2429 -0.3972  0.3589
  306MOL0     C40299   6.014   9.072   3.428  0.3985  0.1447 -0.3033
  306MOL0     C40300   6.166   9.083   3.458  0.5149 -0.1004  0.1634
  306MOL0     C40301   6.221   8.944   3.477  0.3764 -0.4367  0.6162
  306MOL0     C40302   6.375   8.958   3.499 -0.5371 -0.1000  0.5106
  306MOL0     C40303   6.426   8.814   3.532  0.0972  0.8097  0.0064
  306MOL0    Cl40304   6.375   8.711   3.396  0.2367  0.3026  0.0173
  306MOL0     C40305   6.050   9.453   2.929 -0.4932  0.2461  0.4043
  306MOL0     C40306   6.176   9.468   2.870  0.2671 -0.5326 -0.4924
  306MOL0     O40307   6.378   9.696   2.764 -0.2980 -0.3603 -0.1693
  306MOL0     C40308   6.687   9.552   2.876  0.2962  0.2629  0.4805
  306MOL0     C40309   6.822   9.539   2.845  0.0666  0.6907  0.8794
  306MOL0     N40310   7.623   9.705   2.929 -0.4531 -0.1815 -0.1126
  306MOL0     N40311   7.743   9.724   2.952 -0.4995 -0.1242  0.7877
  306MOL0     C40312   8.954   9.634   2.526 -0.6402  0.5282  0.6119
  306MOL0     C40313   9.091   9.662   2.548  0.3565  0.4704 -0.8159
  306MOL0     C40314   9.467   9.896   2.574  0.1594  0.0220 -0.2342
  306MOL0     C40315   9.558   9.881   2.461  0.2951 -0.2428 -0.1122
  306MOL0     C40316   9.696   9.903   2.480 -0.6356 -0.9296  0.5802
  306MOL0     C40317   9.751   9.941   2.607 -0.2074 -0.7279 -0.4879
  306MOL0     O40318   9.886   9.969   2.609  1.2841 -0.9683 -0.3574
  306MOL0     C40319   9.943  10.004   2.738 -0.1563 -1.4127  0.1882
  306MOL0     C40320  10.089  10.043   2.734  0.4102 -0.3747  0.4130
  306MOL0     C40321  10.175   9.948   2.649 -0.1243  0.2178 -0.5432
  306MOL0     C40322  10.305  10.014   2.612 -0.5352 -0.8134 -0.1722
  306MOL0     C40323  10.421   9.927   2.618  0.0651  0.2799  0.4355
  306MOL0     C40324  10.517   9.852   2.623  0.0846 -0.0699  0.7323
  306MOL0     C40325   9.661   9.968   2.716 -0.1184  0.0902  0.1832
  306MOL0     C40326   9.520   9.937   2.700 -0.4357  0.4562 -0.4857
  306MOL0     H40327   9.156   9.840   2.285  1.3531  1.4055  2.0525
  306MOL0     H40328   8.919   9.795   2.234 -0.4464  4.9614  1.5317
  306MOL0     H40329   8.652   9.656   2.572 -2.3687  0.6426 -0.5674
  306MOL0     H40330   8.674   9.497   2.487 -1.1480 -0.6207 -2.6981
  306MOL0     H40331   8.512   9.575   2.303  0.6641  2.4053 -1.6369
  306MOL0     H40332   8.533   9.739   2.365 -2.0047 -0.3593 -1.4665
  306MOL0     H40333   8.397   9.498   2.506  2.1880 -0.2005 -0.7034
  306MOL0     H40334   8.325   9.615   2.395  0.3170  0.9345  0.4315
  306MOL0     H40335   8.396   9.629   2.682  2.8898  1.5732  0.2852
  306MOL0     H40336   8.416   9.779   2.581  0.1894 -0.5970 -0.0388
  306MOL0     H40337   8.158   9.612   2.620 -2.1702  1.2133  1.1574
  306MOL0     H40338   8.181   9.769   2.524 -0.4585 -0.1535  0.2732
  306MOL0     H40339   8.205   9.895   2.704  1.0643  1.2171  2.0489
  306MOL0     H40340   8.219   9.755   2.822 -0.6931  3.3472  0.9111
  306MOL0     H40341   8.007   9.902   2.822 -0.4278  1.6256 -1.6330
  306MOL0     H40342   7.967   9.828   2.669 -0.9142  2.0044  1.8414
  306MOL0     H40343   7.996   9.707   2.947  0.1511 -1.3132  0.1803
  306MOL0     H40344   8.006   9.611   2.797  0.7031  0.9678 -1.8590
  306MOL0     H40345   7.773   9.679   2.630  0.1541 -1.3501  0.6175
  306MOL0     H40346   7.532   9.519   2.712  2.1687  0.4171  0.3339
  306MOL0     H40347   7.491   9.661   2.613  1.1655  0.6432  0.2049
  306MOL0     H40348   7.347   9.753   2.793 -0.6750 -0.4055 -0.0014
  306MOL0     H40349   7.366   9.610   2.886  0.0381  2.2597  1.1520
  306MOL0     H40350   7.245   9.597   2.613 -0.2806 -1.7658 -0.7246
  306MOL0     H40351   7.269   9.464   2.727  1.7467  1.2755  1.8180
  306MOL0     H40352   7.103   9.688   2.835  1.8578  0.7784 -0.5045
  306MOL0     H40353   7.101   9.503   2.856  1.2525 -2.4941 -1.4136
  306MOL0     H40354   6.845   9.739   2.582  0.8653  0.0089  0.6559
  306MOL0     H40355   6.593   9.770   2.633  0.8671 -0.5577 -1.7447
  306MOL0     H40356   6.344   9.557   3.151 -0.1592 -1.1012 -0.8418
  306MOL0     H40357   6.135   9.511   3.248 -1.4563 -1.0430 -0.7736
  306MOL0     H40358   5.802   9.376   3.292 -0.7372  0.8615 -2.3547
  306MOL0     H40359   5.945   9.466   3.323 -1.5082 -0.1184  1.7924
  306MOL0     H40360   6.072   9.247   3.238  0.0209  1.6051  0.7481
  306MOL0     H40361   5.910   9.177   3.209 -0.5709 -0.2787 -0.1271
  306MOL0     H40362   5.851   9.197   3.458 -0.0538 -0.7315  0.7290
  306MOL0     H40363   6.005   9.279   3.481  0.9475 -1.4742  0.5899
  306MOL0     H40364   5.962   9.022   3.511  0.5230 -0.0456 -0.3400
  306MOL0     H40365   5.994   9.022   3.333 -0.1217  0.3910 -0.3278
  306MOL0     H40366   6.180   9.137   3.553 -1.5560  0.5666  0.1255
  306MOL0     H40367   6.215   9.145   3.382 -0.1984 -0.5841 -0.7011
  306MOL0     H40368   6.197   8.883   3.390  2.1102  1.9088 -1.6909
  306MOL0     H40369   6.175   8.901   3.566 -0.3879 -0.9142  0.0107
  306MOL0     H40370   6.422   8.998   3.408 -2.2606  0.7225 -0.0513
  306MOL0     H40371   6.393   9.024   3.584 -1.4737  0.8469 -0.0097
  306MOL0     H40372   6.384   8.769   3.622  0.5475  0.4176  0.0288
  306MOL0     H40373   6.535   8.815   3.542  0.2562  0.7186 -1.4360
  306MOL0     H40374   5.959   9.421   2.879 -1.0870  0.9214  1.0265
  306MOL0     H40375   6.177   9.457   2.762 -0.8600 -0.3636 -0.5305
  306MOL0     H40376   6.647   9.483   2.950  2.8434 -0.5849  1.1645
  306MOL0     H40377   6.889   9.476   2.903  0.9640  0.7512 -0.0600
  306MOL0     H40378   8.913   9.579   2.611 -4.0619  3.2510  0.9518
  306MOL0     H40379   9.143   9.633   2.640  2.4317  0.6586 -1.8614
  306MOL0     H40380   9.516   9.850   2.366  0.8078 -1.7592  0.1377
  306MOL0     H40381   9.757   9.888   2.392  0.0794  0.3748  0.8317
  306MOL0     H40382   9.941   9.918   2.806  1.7805 -0.9679  0.8732
  306MOL0     H40383   9.883  10.084   2.780  0.6597 -0.1587 -0.9469
  306MOL0     H40384  10.087  10.141   2.686  1.9214  0.2775  1.5917
  306MOL0     H40385  10.123  10.042   2.838  0.6432 -0.5978  0.3361
  306MOL0     H40386  10.115   9.927   2.560 -0.0425 -0.9275 -0.3481
  306MOL0     H40387  10.193   9.858   2.709  1.6240  1.8411  1.5425
  306MOL0     H40388  10.308  10.060   2.513  0.9555 -1.5468 -0.4853
  306MOL0     H40389  10.309  10.095   2.686  2.1900 -0.3100 -0.7847
  306MOL0     H40390  10.597   9.782   2.627  0.4640 -0.0968 -3.3618
  306MOL0     H40391   9.692   9.990   2.818 -1.3525 -2.3786  1.2013
  306MOL0     H40392   9.462   9.947   2.791  1.9263  0.4378  1.1101
  307MOL0     O40393   5.017   2.480   4.916  0.2642 -0.2157 -0.0475
  307MOL0     C40394   5.105   2.543   4.970 -0.1640  0.6271  0.0936
  307MOL0     O40395   5.092   2.661   5.026 -1.0947 -0.4954 -0.9237
  307MOL0     C40396   4.981   2.674   5.099  0.5520 -0.2252  0.1611
  307MOL0     C40397   4.875   2.759   5.059 -0.3957  0.4771  0.8032
  307MOL0     C40398   4.769   2.793   5.147 -0.2108 -0.9637 -0.0611
  307MOL0     C40399   4.768   2.746   5.278  0.3500 -0.0197 -0.5661
  307MOL0     O40400   4.660   2.766   5.360  0.4079 -0.2610  0.4897
  307MOL0     C40401   4.635   2.668   5.460  0.5261  1.2608  0.7017
  307MOL0     C40402   4.502   2.678   5.524  0.4115  0.2435  0.4808
  307MOL0     C40403   4.384   2.655   5.424 -0.9279  0.1499  0.0762
  307MOL0     C40404   4.248   2.621   5.498 -0.0490 -0.2300 -0.4853
  307MOL0     C40405   4.158   2.542   5.400 -0.7820 -1.0623 -0.1064
  307MOL0     C40406   4.038   2.481   5.467 -0.3355 -0.3550  0.0359
  307MOL0     C40407   4.082   2.354   5.550 -0.0724  1.0866  0.3554
  307MOL0     C40408   3.962   2.285   5.615 -0.2385  0.1043  0.4063
  307MOL0     N40409   3.884   2.383   5.690  0.2557 -0.2025  0.3893
  307MOL0     C40410   3.901   2.416   5.821 -0.3637 -0.2267  0.4310
  307MOL0     C40411   3.795   2.499   5.855  0.7223 -0.7441 -0.4315
  307MOL0     C40412   3.762   2.539   6.002  0.1370 -0.4834  0.3797
  307MOL0     C40413   3.673   2.437   6.072 -0.4048 -0.1592  0.0828
  307MOL0     C40414   3.739   2.319   6.151  0.0019  0.3194 -0.1599
  307MOL0     C40415   3.634   2.216   6.203 -1.0158 -0.5816 -0.0799
  307MOL0     O40416   3.603   2.265   6.333  0.2362  0.2132  0.5182
  307MOL0     C40417   3.542   2.171   6.418  0.3336 -0.5026  0.6301
  307MOL0     C40418   3.483   2.229   6.537 -0.7483  0.2749  0.9508
  307MOL0     C40419   3.402   2.153   6.610  0.2701  1.0858 -0.0023
  307MOL0     C40420   3.369   2.019   6.576  0.1620 -0.7086  0.1925
  307MOL0     C40421   3.263   1.952   6.652 -0.2844  0.1732 -0.4098
  307MOL0     O40422   3.275   1.812   6.652  0.3750  0.4246 -0.1529
  307MOL0     C40423   3.187   1.734   6.722 -0.4557 -0.0880  0.1544
  307MOL0     C40424   3.232   1.633   6.806 -0.0760 -0.4365  0.2606
  307MOL0     C40425   3.146   1.554   6.883 -0.2142 -0.1111  0.5327
  307MOL0     C40426   3.011   1.589   6.895  0.0440  0.4932  0.4573
  307MOL0     O40427   2.926   1.522   6.993  0.2605 -0.0211  0.6304
  307MOL0     C40428   2.799   1.583   7.027  0.7952  0.8104 -0.3035
  307MOL0     C40429   2.735   1.466   7.110  0.1418 -0.3122 -0.0604
  307MOL0     C40430   2.670   1.355   7.020  0.0924  0.4940  0.0464
  307MOL0     C40431   2.611   1.249   7.114 -0.6701 -1.2468 -0.5023
  307MOL0     C40432   2.517   1.157   7.034  0.1968  0.0814  0.3600
  307MOL0     C40433   2.449   1.051   7.115  0.0317  0.7816  0.6519
  307MOL0     C40434   2.520   0.919   7.147 -0.3641 -0.0242  0.1491
  307MOL0     C40435   2.453   0.792   7.091 -0.4768  0.3806 -0.2054
  307MOL0    Cl40436   2.279   0.779   7.140 -0.2734  0.0319  0.1061
  307MOL0     C40437   2.961   1.691   6.805 -0.0024  0.3095  0.0467
  307MOL0     C40438   3.050   1.761   6.728 -0.7723  0.6007  0.7385
  307MOL0     O40439   3.174   2.014   6.712 -0.6454 -0.4040  0.6624
  307MOL0     C40440   3.434   1.955   6.466 -0.5616  0.7195  0.3947
  307MOL0     C40441   3.523   2.032   6.390 -0.0514 -0.6773 -0.4139
  307MOL0     N40442   3.715   2.518   5.739  0.0770  0.2663  0.3777
  307MOL0     N40443   3.773   2.448   5.646 -0.2823  0.2745  0.3773
  307MOL0     C40444   4.876   2.663   5.318  0.7872  0.0010  0.8104
  307MOL0     C40445   4.978   2.620   5.235 -0.4257  1.0821 -0.0327
  307MOL0     C40446   5.239   2.485   4.960  0.1816 -0.4126  0.0300
  307MOL0     C40447   5.342   2.537   5.037 -0.4583 -0.5193  0.0427
  307MOL0     C40448   5.469   2.481   5.029 -0.2786 -0.4929  0.9776
  307MOL0     C40449   5.503   2.377   4.949  0.2382  0.7754  0.0958
  307MOL0     O40450   5.631   2.331   4.962  0.3862 -0.8761 -0.1086
  307MOL0     C40451   5.678   2.234   4.868  0.9284  0.5703  0.2406
  307MOL0     C40452   5.822   2.196   4.883  0.0709  0.3030  0.0429
  307MOL0     C40453   5.923   2.308   4.858 -1.0559 -0.3795 -0.6364
  307MOL0     C40454   6.064   2.245   4.842  0.3135  0.4801  0.5038
  307MOL0     C40455   6.158   2.332   4.767 -0.2143 -0.3880 -1.3231
  307MOL0     C40456   6.244   2.392   4.700 -0.0192  0.2785 -0.0981
  307MOL0     C40457   5.401   2.331   4.867  0.1722 -0.9883  0.1974
  307MOL0     C40458   5.271   2.384   4.872 -0.0279  0.5545 -0.3090
  307MOL0     H40459   4.881   2.799   4.958  1.3218  0.5972  0.9197
  307MOL0     H40460   4.681   2.846   5.112  0.3631 -0.1388 -0.2776
  307MOL0     H40461   4.708   2.681   5.540  1.2381 -2.1067  0.7381
  307MOL0     H40462   4.655   2.565   5.430 -0.8740  0.3222  2.8108
  307MOL0     H40463   4.499   2.775   5.573 -4.5945 -0.7186  2.7696
  307MOL0     H40464   4.476   2.613   5.609 -2.3791  0.4074 -0.1688
  307MOL0     H40465   4.408   2.574   5.354  0.2919 -0.5149  1.2161
  307MOL0     H40466   4.370   2.754   5.380 -0.8297  0.5537  0.9286
  307MOL0     H40467   4.265   2.553   5.582 -0.6296 -0.4763 -0.5584
  307MOL0     H40468   4.201   2.712   5.535  1.1179  0.4156 -0.5473
  307MOL0     H40469   4.225   2.461   5.369  0.9139 -1.1286  3.2269
  307MOL0     H40470   4.124   2.611   5.322  2.4848  4.6805  2.8682
  307MOL0     H40471   3.955   2.453   5.401 -0.6490  1.3736 -0.3776
  307MOL0     H40472   3.995   2.555   5.536 -2.2224 -1.4616  0.1226
  307MOL0     H40473   4.115   2.282   5.475  2.9888  0.6850  1.9526
  307MOL0     H40474   4.170   2.366   5.612  0.8864  1.3607 -1.0135
  307MOL0     H40475   3.993   2.192   5.663 -1.1587 -1.0833 -1.1725
  307MOL0     H40476   3.899   2.250   5.532 -0.1258 -2.6181  1.3610
  307MOL0     H40477   3.984   2.390   5.885  0.9083  1.9920 -0.1839
  307MOL0     H40478   3.717   2.639   5.999 -1.1851 -1.0592  0.0022
  307MOL0     H40479   3.859   2.543   6.051  1.3080  0.4757 -1.8825
  307MOL0     H40480   3.591   2.406   6.006 -0.1943 -0.2109 -0.1534
  307MOL0     H40481   3.626   2.492   6.154 -0.3913  1.5589 -1.0177
  307MOL0     H40482   3.799   2.256   6.085 -3.0660 -1.7448 -1.1747
  307MOL0     H40483   3.805   2.353   6.231 -0.1002 -1.7440  0.8702
  307MOL0     H40484   3.678   2.116   6.194  2.3496  0.5023  2.0753
  307MOL0     H40485   3.549   2.235   6.138 -3.6731  1.9346  3.6529
  307MOL0     H40486   3.496   2.330   6.574  0.2971  0.0221  1.3199
  307MOL0     H40487   3.353   2.207   6.691  1.0619  2.5188 -0.4411
  307MOL0     H40488   3.340   1.623   6.808 -0.1578 -1.3284  1.1962
  307MOL0     H40489   3.175   1.471   6.946  0.7668 -1.9761 -2.1813
  307MOL0     H40490   2.732   1.619   6.948 -0.1247  0.8238  0.4601
  307MOL0     H40491   2.802   1.669   7.094 -4.1669 -0.4200  1.9695
  307MOL0     H40492   2.661   1.505   7.180  1.0443  0.3846  0.5304
  307MOL0     H40493   2.814   1.416   7.166  0.7942  0.5520 -0.1720
  307MOL0     H40494   2.754   1.309   6.967  1.1552  0.9172  1.3304
  307MOL0     H40495   2.586   1.391   6.959 -0.9983 -1.2805  0.4253
  307MOL0     H40496   2.686   1.188   7.166  0.1318  0.3804  0.3210
  307MOL0     H40497   2.544   1.307   7.179  1.0496 -0.6007  0.7641
  307MOL0     H40498   2.576   1.105   6.958  1.2285  0.3077  0.9806
  307MOL0     H40499   2.441   1.222   6.989 -0.1877 -1.5821 -1.5465
  307MOL0     H40500   2.367   1.026   7.048 -0.8774 -1.5643  2.5057
  307MOL0     H40501   2.407   1.100   7.204 -0.8477  0.4572  0.4223
  307MOL0     H40502   2.627   0.926   7.123  0.6039 -1.8831  3.2376
  307MOL0     H40503   2.523   0.903   7.255  0.8731 -2.4312 -0.1727
  307MOL0     H40504   2.510   0.707   7.129  0.9438  0.7071 -1.5435
  307MOL0     H40505   2.450   0.786   6.982 -0.0851  1.3182 -0.2791
  307MOL0     H40506   2.854   1.705   6.803 -0.0200  0.2366 -2.0795
  307MOL0     H40507   3.008   1.838   6.664 -1.4637 -0.5976 -0.3074
  307MOL0     H40508   3.402   1.855   6.437 -2.8177  2.1940 -2.8734
  307MOL0     H40509   3.561   1.989   6.298  1.0211  0.3643 -0.4884
  307MOL0     H40510   4.888   2.632   5.422 -0.2117  0.4804  1.0839
  307MOL0     H40511   5.066   2.567   5.270  0.4850  1.8372 -1.1191
  307MOL0     H40512   5.317   2.623   5.099 -3.1604 -0.9321 -0.3866
  307MOL0     H40513   5.544   2.521   5.096 -1.0646  2.7731  0.0994
  307MOL0     H40514   5.668   2.267   4.764  2.1372  2.9086  0.7914
  307MOL0     H40515   5.613   2.147   4.877  0.2070  0.9436 -1.1115
  307MOL0     H40516   5.837   2.166   4.987 -1.2824  2.5906  0.9714
  307MOL0     H40517   5.842   2.114   4.813 -3.1415 -0.8503  0.3168
  307MOL0     H40518   5.932   2.383   4.937  2.7217 -1.1052 -0.2063
  307MOL0     H40519   5.891   2.361   4.768  1.1307  2.9635  0.3731
  307MOL0     H40520   6.123   2.224   4.932  2.9644  2.3547 -0.6724
  307MOL0     H40521   6.055   2.150   4.789  0.2328  0.6224  0.2598
  307MOL0     H40522   6.321   2.458   4.664  0.4238 -0.0742  0.1808
  307MOL0     H40523   5.416   2.249   4.798 -0.6460 -1.0400  0.0732
  307MOL0     H40524   5.195   2.346   4.804  0.3861 -0.1528 -0.3976
  308MOL0     O40525   9.847   3.986  11.030  0.6552  0.4913 -0.0443
  308MOL0     C40526   9.874   4.097  11.071 -0.2826 -0.5963 -0.3731
  308MOL0     O40527   9.783   4.192  11.106  0.0248 -0.5558 -0.1041
  308MOL0     C40528   9.651   4.178  11.111  0.0718 -0.2267 -0.1524
  308MOL0     C40529   9.575   4.289  11.076 -0.2092  0.1815  1.0897
  308MOL0     C40530   9.439   4.277  11.055 -0.4941 -0.5084 -0.1447
  308MOL0     C40531   9.367   4.161  11.071 -1.0352 -0.7952 -0.0800
  308MOL0     O40532   9.233   4.151  11.039  0.2241 -0.1297 -0.1994
  308MOL0     C40533   9.167   4.259  10.962  0.2695 -0.6859 -0.7233
  308MOL0     C40534   9.032   4.212  10.919  0.2125  0.6194  0.0348
  308MOL0     C40535   8.925   4.318  10.891 -0.4558  0.6826  0.5619
  308MOL0     C40536   8.781   4.260  10.889  0.4833  0.5217  0.0715
  308MOL0     C40537   8.685   4.373  10.851  0.1642 -0.2000  0.0648
  308MOL0     C40538   8.544   4.337  10.809 -0.2201 -0.2931  0.2541
  308MOL0     C40539   8.467   4.278  10.931  0.9382 -0.3088  0.1092
  308MOL0     C40540   8.328   4.223  10.890 -0.0996 -0.0332 -0.4058
  308MOL0     N40541   8.240   4.327  10.830 -0.3127 -0.6227 -0.7249
  308MOL0     C40542   8.163   4.298  10.715 -1.0179  0.2413 -0.3977
  308MOL0     C40543   8.079   4.404  10.708 -0.2722 -0.6280 -0.2324
  308MOL0     C40544   7.972   4.419  10.606 -0.0538  0.0819 -0.1434
  308MOL0     C40545   8.027   4.485  10.484 -0.2922 -0.4166 -0.3422
  308MOL0     C40546   7.939   4.477  10.363  0.3477  0.6575  0.0899
  308MOL0     C40547   7.988   4.569  10.248  0.5461  0.4383  0.1709
  308MOL0     O40548   7.940   4.540  10.116  0.1734 -0.7276 -0.3857
  308MOL0     C40549   7.818   4.597  10.075  0.2580  0.7926 -0.4284
  308MOL0     C40550   7.781   4.562   9.951  0.4102 -0.1671 -0.4602
  308MOL0     C40551   7.656   4.594   9.906 -0.4108 -1.2497 -0.2206
  308MOL0     C40552   7.562   4.671   9.976  0.3981  0.0288  0.4050
  308MOL0     C40553   7.424   4.694   9.937  0.1980 -0.0188  0.9009
  308MOL0     O40554   7.411   4.731   9.807  0.2137  0.6990  0.2730
  308MOL0     C40555   7.292   4.716   9.742 -0.8512  0.4931  0.4636
  308MOL0     C40556   7.290   4.640   9.620 -0.5250 -0.2790 -0.6500
  308MOL0     C40557   7.173   4.645   9.534 -0.0477  0.4205 -0.3843
  308MOL0     C40558   7.059   4.715   9.582 -0.6893  0.9796  0.5309
  308MOL0     O40559   6.946   4.718   9.503 -0.0578  0.2385 -1.3034
  308MOL0     C40560   6.832   4.652   9.550 -0.4829  0.0617 -0.2103
  308MOL0     C40561   6.730   4.654   9.440 -1.0167  1.0379 -0.5663
  308MOL0     C40562   6.593   4.641   9.479 -0.6692 -0.1003  0.3770
  308MOL0     C40563   6.501   4.602   9.367 -0.3745  0.5468 -1.1299
  308MOL0     C40564   6.463   4.717   9.275  0.2359 -0.3271 -0.9299
  308MOL0     C40565   6.393   4.657   9.153  0.3474 -0.1121 -0.2298
  308MOL0     C40566   6.245   4.632   9.178  0.2664  0.8819  0.6947
  308MOL0     C40567   6.181   4.605   9.046 -0.2332 -0.3537  0.1927
  308MOL0    Cl40568   6.254   4.462   8.958 -0.2827  0.1494  0.2252
  308MOL0     C40569   7.063   4.782   9.705 -0.4017 -0.0900 -0.6662
  308MOL0     C40570   7.180   4.786   9.781 -0.6180  0.5868 -0.2164
  308MOL0     O40571   7.334   4.665  10.015 -0.3173 -0.2449  0.6192
  308MOL0     C40572   7.602   4.698  10.107 -0.1222  0.3743 -0.7318
  308MOL0     C40573   7.726   4.659  10.162  0.9057  0.6247 -0.0841
  308MOL0     N40574   8.114   4.488  10.819  0.6250  0.2251 -0.2253
  308MOL0     N40575   8.204   4.442  10.895 -0.7742  0.6094  0.0890
  308MOL0     C40576   9.440   4.053  11.120 -0.4633  0.3226 -0.3694
  308MOL0     C40577   9.586   4.060  11.137 -0.5953  0.4031  0.5570
  308MOL0     C40578  10.016   4.130  11.083  0.2233 -0.5674 -0.0756
  308MOL0     C40579  10.061   4.257  11.126  0.7919 -0.5084  0.1137
  308MOL0     C40580  10.195   4.278  11.141 -1.1705  0.4161 -1.2021
  308MOL0     C40581  10.297   4.186  11.104  0.1247 -0.8529 -0.8285
  308MOL0     O40582  10.434   4.206  11.112  0.3065 -0.2263 -0.8565
  308MOL0     C40583  10.494   4.319  11.188  0.6172  0.3942 -0.2761
  308MOL0     C40584  10.604   4.268  11.276  0.5837 -0.4649  0.3087
  308MOL0     C40585  10.730   4.223  11.195 -0.2174  0.6739  0.7572
  308MOL0     C40586  10.860   4.213  11.286 -0.4741  0.2839  0.6040
  308MOL0     C40587  10.851   4.148  11.412  0.7344  0.5974  0.2335
  308MOL0     C40588  10.863   4.094  11.517  0.0229  1.0889 -0.8764
  308MOL0     C40589  10.251   4.060  11.059 -0.5675  0.4007 -0.7827
  308MOL0     C40590  10.117   4.032  11.050 -0.5743  0.4431 -0.7279
  308MOL0     H40591   9.627   4.381  11.052  0.6177 -0.9895 -2.1781
  308MOL0     H40592   9.388   4.370  11.032  0.9216  0.4867  0.5684
  308MOL0     H40593   9.238   4.276  10.881  1.5988  0.3256  0.6088
  308MOL0     H40594   9.153   4.349  11.023 -4.3391  0.2287 -2.7087
  308MOL0     H40595   8.990   4.150  10.999 -0.1094  0.0121 -0.5912
  308MOL0     H40596   9.044   4.141  10.837  1.8476  1.2377 -0.2957
  308MOL0     H40597   8.946   4.375  10.800  0.0864  1.1071  0.9470
  308MOL0     H40598   8.927   4.391  10.973 -2.7707  2.0871 -0.5090
  308MOL0     H40599   8.776   4.185  10.809 -0.1519  1.4820 -0.8319
  308MOL0     H40600   8.756   4.213  10.985  1.8207 -0.9379 -0.2476
  308MOL0     H40601   8.724   4.420  10.761  2.4169 -1.3508  0.3809
  308MOL0     H40602   8.683   4.443  10.935  0.7225  0.5370 -0.5323
  308MOL0     H40603   8.537   4.276  10.719  0.1294  0.9844 -0.6731
  308MOL0     H40604   8.497   4.428  10.769 -1.9440 -1.7429 -1.2057
  308MOL0     H40605   8.522   4.201  10.986  0.4393 -1.7775 -1.3450
  308MOL0     H40606   8.458   4.353  11.010 -1.7365 -0.2090 -0.2059
  308MOL0     H40607   8.281   4.196  10.984 -0.7875 -1.1121 -1.0403
  308MOL0     H40608   8.334   4.124  10.843  0.7297 -1.6592  2.8553
  308MOL0     H40609   8.158   4.217  10.644 -4.2679  0.4640 -0.5612
  308MOL0     H40610   7.894   4.491  10.634 -0.9728 -0.2091 -1.8235
  308MOL0     H40611   7.927   4.321  10.594  0.8559 -0.2455 -0.9623
  308MOL0     H40612   8.118   4.431  10.457  1.1817  2.1630 -0.8762
  308MOL0     H40613   8.049   4.591  10.501 -2.3896  0.5225 -2.8340
  308MOL0     H40614   7.936   4.372  10.332 -3.4580  1.4096 -2.8641
  308MOL0     H40615   7.834   4.502  10.383 -0.0938 -0.0015 -1.2310
  308MOL0     H40616   8.097   4.570  10.242  0.4681  0.0081 -2.5342
  308MOL0     H40617   7.967   4.674  10.272  2.7179  1.2767 -1.2710
  308MOL0     H40618   7.839   4.490   9.896 -0.8812 -1.6266  0.0183
  308MOL0     H40619   7.615   4.563   9.810 -1.9315  0.5691 -0.2105
  308MOL0     H40620   7.375   4.580   9.587 -0.3102 -0.1753 -0.2904
  308MOL0     H40621   7.171   4.601   9.435  1.2518 -0.6916  0.0640
  308MOL0     H40622   6.795   4.704   9.640  1.1682  0.4134  0.2875
  308MOL0     H40623   6.848   4.549   9.580 -0.7025  0.3136  0.8093
  308MOL0     H40624   6.746   4.567   9.376 -2.4834  2.4228 -2.9451
  308MOL0     H40625   6.732   4.740   9.372  2.9401  0.7244 -1.0840
  308MOL0     H40626   6.554   4.728   9.532 -2.4406 -0.9056  0.4713
  308MOL0     H40627   6.602   4.560   9.553 -0.6683 -1.1712 -0.7570
  308MOL0     H40628   6.551   4.523   9.310  2.2606  1.2180  0.1169
  308MOL0     H40629   6.415   4.548   9.408  1.7909 -2.1329  0.1914
  308MOL0     H40630   6.552   4.775   9.248  1.1276  0.4912  3.1418
  308MOL0     H40631   6.401   4.790   9.328  0.0583  0.1976 -1.8450
  308MOL0     H40632   6.436   4.559   9.130 -0.0545 -0.9579  2.2958
  308MOL0     H40633   6.403   4.729   9.070  0.1995  1.7256  1.2837
  308MOL0     H40634   6.238   4.542   9.240 -1.7738  1.5517  1.5082
  308MOL0     H40635   6.200   4.718   9.228  0.7444  1.8044 -0.4122
  308MOL0     H40636   6.197   4.700   8.994  2.1482  1.0090  3.1229
  308MOL0     H40637   6.074   4.584   9.053 -0.0834 -0.6421  1.8858
  308MOL0     H40638   6.985   4.846   9.744  1.2121 -0.0412  2.8794
  308MOL0     H40639   7.200   4.840   9.873  1.3956  0.3611 -0.4660
  308MOL0     H40640   7.528   4.749  10.169  0.9873 -0.3992  1.3347
  308MOL0     H40641   7.751   4.684  10.264 -0.5447  1.8333  0.0087
  308MOL0     H40642   9.398   3.955  11.139 -0.2354  0.6164  1.9401
  308MOL0     H40643   9.634   3.966  11.160 -1.8224 -1.2866 -3.0366
  308MOL0     H40644   9.984   4.330  11.150  0.2619 -0.3387 -1.9773
  308MOL0     H40645  10.215   4.379  11.176  2.4823 -0.9448  1.3581
  308MOL0     H40646  10.420   4.365  11.255 -0.8454 -2.8964  0.5311
  308MOL0     H40647  10.529   4.398  11.121  0.6260 -1.0016 -1.9589
  308MOL0     H40648  10.621   4.341  11.355 -3.1649  3.2010 -1.8692
  308MOL0     H40649  10.558   4.184  11.328  0.2439 -2.1020 -2.4443
  308MOL0     H40650  10.751   4.295  11.116 -4.0745  0.8590 -0.2927
  308MOL0     H40651  10.710   4.126  11.147  2.8724  0.8785 -1.2089
  308MOL0     H40652  10.949   4.173  11.237  0.8106  2.7156  0.7751
  308MOL0     H40653  10.884   4.319  11.298 -0.1031  0.4716 -1.4836
  308MOL0     H40654  10.864   4.033  11.606  0.5920  1.5510 -0.5626
  308MOL0     H40655  10.331   3.990  11.039 -1.6213 -0.0494 -4.1081
  308MOL0     H40656  10.093   3.931  11.019 -0.6188  0.2038  0.0824
  309MOL0     O40657   9.877   0.591   2.417  0.1892  0.6323  0.4851
  309MOL0     C40658   9.846   0.478   2.459 -0.2636 -0.4214  0.0447
  309MOL0     O40659   9.732   0.408   2.431 -0.3262 -0.1846 -0.2196
  309MOL0     C40660   9.605   0.461   2.401 -0.5070 -0.0847 -0.7944
  309MOL0     C40661   9.568   0.603   2.393 -0.0947  0.6272 -0.6272
  309MOL0     C40662   9.443   0.649   2.364  0.3154 -0.7084 -0.0517
  309MOL0     C40663   9.345   0.552   2.334 -0.1224  0.0451  0.8252
  309MOL0     O40664   9.224   0.601   2.294 -0.2734  0.5302 -0.7816
  309MOL0     C40665   9.124   0.512   2.251  0.0789  0.3835 -0.5925
  309MOL0     C40666   8.992   0.588   2.261 -0.8681 -0.1146 -1.2798
  309MOL0     C40667   8.879   0.510   2.196 -0.1500 -0.0969 -0.3656
  309MOL0     C40668   8.749   0.587   2.196 -0.0998  0.5169 -0.6571
  309MOL0     C40669   8.625   0.488   2.173 -0.4195 -0.6063 -1.2715
  309MOL0     C40670   8.499   0.560   2.160  0.2529  0.4098 -0.5603
  309MOL0     C40671   8.366   0.477   2.133  0.5537  0.1130  0.0350
  309MOL0     C40672   8.271   0.452   2.252  0.0412 -0.4879 -0.0327
  309MOL0     N40673   8.152   0.371   2.210  0.4017  0.6826 -0.4374
  309MOL0     C40674   8.090   0.373   2.088 -0.1832  0.1165  0.1967
  309MOL0     C40675   7.970   0.303   2.104 -0.4633 -0.2361  0.6410
  309MOL0     C40676   7.863   0.288   2.001 -0.0422  0.8021 -0.7497
  309MOL0     C40677   7.718   0.326   2.044 -0.5744 -0.1838 -0.6255
  309MOL0     C40678   7.655   0.206   2.107  0.3704 -0.0638 -0.0512
  309MOL0     C40679   7.538   0.248   2.196  0.4211 -0.1977 -0.0340
  309MOL0     O40680   7.458   0.129   2.233 -0.2569 -0.3739  0.1630
  309MOL0     C40681   7.332   0.147   2.291 -0.2120  0.2749  0.9267
  309MOL0     C40682   7.269   0.263   2.308 -0.0964 -0.5341 -0.1684
  309MOL0     C40683   7.167   0.286   2.400 -0.2746 -0.1355 -0.8151
  309MOL0     C40684   7.106   0.178   2.456  0.0187  1.0878 -0.8607
  309MOL0     C40685   6.988   0.202   2.536  0.2074  0.3055 -0.8665
  309MOL0     O40686   6.961   0.331   2.580  0.6458 -0.5075 -0.0728
  309MOL0     C40687   6.848   0.353   2.657  0.5092 -0.0944 -0.8528
  309MOL0     C40688   6.820   0.289   2.787 -0.2253 -0.0231 -0.5808
  309MOL0     C40689   6.717   0.328   2.868 -0.3825  0.4958 -0.7768
  309MOL0     C40690   6.623   0.420   2.818  0.5881 -0.3469  0.4839
  309MOL0     O40691   6.512   0.460   2.898  0.4100 -0.4435 -0.2231
  309MOL0     C40692   6.459   0.373   2.999  0.2168  0.1390 -0.0968
  309MOL0     C40693   6.356   0.441   3.086 -0.0903 -0.7764  0.6987
  309MOL0     C40694   6.292   0.332   3.166  0.2893  0.6741  0.2286
  309MOL0     C40695   6.162   0.393   3.228  0.9331 -0.3408  0.3257
  309MOL0     C40696   6.135   0.361   3.372 -0.1422  0.4488 -1.1034
  309MOL0     C40697   5.996   0.398   3.424  0.2784  0.5043  0.5892
  309MOL0     C40698   6.003   0.391   3.574  0.5964 -0.1027 -0.5898
  309MOL0     C40699   5.876   0.445   3.630 -0.4928  0.1273 -0.4047
  309MOL0    Cl40700   5.743   0.328   3.630  0.3674  0.4629 -0.3018
  309MOL0     C40701   6.642   0.469   2.684  0.2158 -0.2138 -0.3496
  309MOL0     C40702   6.759   0.452   2.610 -0.3582 -0.5138  1.1192
  309MOL0     O40703   6.923   0.100   2.568 -0.2013  0.1130 -0.5884
  309MOL0     C40704   7.166   0.049   2.442 -0.7082  0.9524  0.2751
  309MOL0     C40705   7.286   0.037   2.363  0.2765 -0.4520 -0.5349
  309MOL0     N40706   7.967   0.239   2.221 -0.2673  0.0106  1.2392
  309MOL0     N40707   8.082   0.286   2.285  1.0061  1.1901 -0.3629
  309MOL0     C40708   9.383   0.409   2.329  0.6700  0.3862  0.2056
  309MOL0     C40709   9.510   0.367   2.372 -0.6010 -0.9781  0.5537
  309MOL0     C40710   9.946   0.397   2.527  0.0692 -0.1065 -0.4675
  309MOL0     C40711   9.924   0.266   2.553 -0.1234  1.3777 -0.0504
  309MOL0     C40712  10.032   0.193   2.608 -0.1814  0.9328  1.3578
  309MOL0     C40713  10.154   0.250   2.652 -0.4156 -0.0967 -0.1185
  309MOL0     O40714  10.252   0.180   2.718 -0.5829  0.4118 -0.5309
  309MOL0     C40715  10.234   0.047   2.757 -0.3958  0.1195 -1.0792
  309MOL0     C40716  10.175   0.026   2.894  0.4679  0.5594 -0.1752
  309MOL0     C40717  10.265   0.078   3.000  0.5338  0.1157 -0.5402
  309MOL0     C40718  10.245  -0.006   3.131  0.0683 -0.0753  0.1454
  309MOL0     C40719  10.112   0.017   3.197 -0.2650  0.6114 -0.9134
  309MOL0     C40720  10.014   0.023   3.264 -0.1673  0.5144 -0.9570
  309MOL0     C40721  10.160   0.384   2.639 -0.7770  0.2618  0.1619
  309MOL0     C40722  10.061   0.456   2.571 -0.4738  0.4710 -0.4141
  309MOL0     H40723   9.630   0.683   2.433 -1.6905  1.3510  0.5440
  309MOL0     H40724   9.422   0.753   2.341 -1.9046 -1.4130 -1.5799
  309MOL0     H40725   9.129   0.429   2.322  1.2077  0.6538 -0.3386
  309MOL0     H40726   9.141   0.473   2.151  0.0302 -1.2365 -0.0029
  309MOL0     H40727   9.013   0.690   2.225  2.2744 -1.0987 -2.6259
  309MOL0     H40728   8.962   0.593   2.366  0.5306 -0.5897 -0.8398
  309MOL0     H40729   8.871   0.418   2.255  1.9480 -0.6418 -0.8352
  309MOL0     H40730   8.905   0.469   2.098  1.2692 -0.1786  0.0307
  309MOL0     H40731   8.730   0.637   2.292 -2.5677 -3.4650  1.1881
  309MOL0     H40732   8.763   0.663   2.119  1.2771  0.1604 -0.7831
  309MOL0     H40733   8.616   0.418   2.257 -1.1611  0.6990 -0.2098
  309MOL0     H40734   8.646   0.434   2.081  0.9734 -1.9998 -0.1951
  309MOL0     H40735   8.517   0.634   2.081  0.2232  0.4554 -0.5246
  309MOL0     H40736   8.491   0.628   2.245 -0.3590  1.4957 -1.4569
  309MOL0     H40737   8.311   0.541   2.063  3.3026  1.5942 -0.9390
  309MOL0     H40738   8.388   0.382   2.083 -0.2090  1.2326 -2.6512
  309MOL0     H40739   8.224   0.541   2.294 -3.3507 -1.1770 -1.9358
  309MOL0     H40740   8.317   0.406   2.340 -0.9295  1.6532  1.6681
  309MOL0     H40741   8.117   0.431   2.001  1.1649 -1.8542 -0.7768
  309MOL0     H40742   7.860   0.188   1.957  1.0018 -0.9233  2.7489
  309MOL0     H40743   7.897   0.352   1.919  0.9376 -0.3026 -1.2465
  309MOL0     H40744   7.663   0.352   1.954  1.0489 -2.5362 -2.4073
  309MOL0     H40745   7.706   0.416   2.105 -1.0281 -0.6905  0.0461
  309MOL0     H40746   7.618   0.135   2.032  2.9256 -0.5226 -1.0059
  309MOL0     H40747   7.727   0.147   2.166 -1.5252 -1.2993  1.1425
  309MOL0     H40748   7.475   0.324   2.149 -2.4388  0.3894  4.1725
  309MOL0     H40749   7.588   0.293   2.282 -0.0508  0.7435 -0.2371
  309MOL0     H40750   7.319   0.357   2.287 -0.9938  0.2770  1.2045
  309MOL0     H40751   7.147   0.391   2.419  0.4355  0.0606 -1.1174
  309MOL0     H40752   6.887   0.212   2.826 -1.9351 -0.6499  1.2619
  309MOL0     H40753   6.700   0.281   2.965 -2.0107 -0.9142 -1.6716
  309MOL0     H40754   6.535   0.330   3.065 -0.1665  0.6283  0.6793
  309MOL0     H40755   6.405   0.293   2.946 -0.6023  0.1165  0.7454
  309MOL0     H40756   6.283   0.487   3.019  1.8944 -2.8124 -3.1503
  309MOL0     H40757   6.398   0.520   3.150  1.9850 -0.7609 -0.5869
  309MOL0     H40758   6.359   0.297   3.246 -0.9556  1.4534  1.6689
  309MOL0     H40759   6.272   0.237   3.116 -0.1511  0.4238  0.8679
  309MOL0     H40760   6.166   0.502   3.227  0.5791 -0.3031  1.4445
  309MOL0     H40761   6.075   0.376   3.163  0.8278  1.5472 -0.0791
  309MOL0     H40762   6.215   0.402   3.434 -2.0919  1.8894  0.5693
  309MOL0     H40763   6.143   0.254   3.392 -0.5207  0.8265  1.3970
  309MOL0     H40764   5.921   0.329   3.385  0.7900 -0.2537  0.9355
  309MOL0     H40765   5.968   0.497   3.386  0.9422  1.1534  1.7414
  309MOL0     H40766   6.014   0.284   3.597 -0.9178 -0.0683  0.4312
  309MOL0     H40767   6.096   0.427   3.619  0.9729 -2.1407  0.3846
  309MOL0     H40768   5.863   0.540   3.578  0.4501  1.7101  2.0759
  309MOL0     H40769   5.892   0.467   3.736 -1.7301 -0.5394 -0.0616
  309MOL0     H40770   6.582   0.545   2.634  2.4627  0.5199 -2.1049
  309MOL0     H40771   6.773   0.502   2.515  2.3388 -1.3189  0.9989
  309MOL0     H40772   7.126  -0.030   2.505 -2.1605  2.8136  1.8019
  309MOL0     H40773   7.349  -0.051   2.366  0.4236 -0.3258  1.1150
  309MOL0     H40774   9.312   0.331   2.303  1.6985  0.1192 -2.0098
  309MOL0     H40775   9.538   0.262   2.374  1.2908 -0.5212  2.0533
  309MOL0     H40776   9.831   0.212   2.535  0.2854 -0.3778  2.5746
  309MOL0     H40777  10.018   0.085   2.612  0.9113  0.6103 -1.4303
  309MOL0     H40778  10.334   0.002   2.754 -1.0544 -1.3872 -2.9132
  309MOL0     H40779  10.189  -0.017   2.680  0.8195  0.2108 -1.8840
  309MOL0     H40780  10.076   0.073   2.898 -0.0132 -0.4024 -0.4504
  309MOL0     H40781  10.152  -0.080   2.909 -1.3307  1.2205  2.5486
  309MOL0     H40782  10.233   0.181   3.021  1.1615  1.1224 -3.9543
  309MOL0     H40783  10.366   0.063   2.963 -0.6032 -2.2561 -3.0539
  309MOL0     H40784  10.266  -0.111   3.108 -2.9358 -1.2936  2.3340
  309MOL0     H40785  10.318   0.025   3.206  0.7270 -1.2499  0.0118
  309MOL0     H40786   9.926   0.022   3.326 -0.3037 -0.5738 -1.1442
  309MOL0     H40787  10.249   0.436   2.674  1.5135 -0.9515 -3.2566
  309MOL0     H40788  10.078   0.563   2.560  0.6862  0.6439  2.2020
  310MOL0     O40789   0.216  10.724   6.113  0.1427  0.2705 -0.6846
  310MOL0     C40790   0.261  10.730   6.228 -1.1365 -0.2160  0.8078
  310MOL0     O40791   0.187  10.719   6.342 -0.5369 -0.2663  0.1796
  310MOL0     C40792   0.056  10.710   6.321 -0.0594  0.1855  0.1475
  310MOL0     C40793   0.000  10.580   6.307  0.0326  0.0598  0.5310
  310MOL0     C40794  -0.133  10.557   6.286  0.1490  0.0952 -1.4818
  310MOL0     C40795  -0.216  10.672   6.268  0.1400  0.3105  0.1141
  310MOL0     O40796  -0.354  10.667   6.243  0.0634  0.4630  0.4732
  310MOL0     C40797  -0.410  10.546   6.184 -0.1795  0.0761  0.1508
  310MOL0     C40798  -0.516  10.594   6.086  0.4374  0.3278 -0.1273
  310MOL0     C40799  -0.579  10.475   6.011 -0.8540 -0.4961  0.1321
  310MOL0     C40800  -0.693  10.527   5.922 -0.5739 -0.1489 -0.8461
  310MOL0     C40801  -0.724  10.413   5.822 -0.3836  0.2864  0.2969
  310MOL0     C40802  -0.839  10.440   5.731 -0.1994  0.4913 -0.2561
  310MOL0     C40803  -0.844  10.333   5.622 -0.1965 -0.2407 -0.2529
  310MOL0     C40804  -0.981  10.335   5.555  0.6248 -0.2542  0.5653
  310MOL0     N40805  -0.987  10.259   5.430  0.2069  0.4844 -0.0408
  310MOL0     C40806  -1.051  10.133   5.427  0.0998  0.0166  0.3375
  310MOL0     C40807  -1.039  10.089   5.304 -0.4457 -0.0731  0.3375
  310MOL0     C40808  -1.110   9.967   5.253 -0.4408 -0.1828 -0.5682
  310MOL0     C40809  -1.267   9.989   5.262 -0.0784  0.1001 -0.6003
  310MOL0     C40810  -1.334   9.850   5.247 -0.1953  0.4154 -0.8810
  310MOL0     C40811  -1.480   9.854   5.272  0.5520 -1.0479 -0.3977
  310MOL0     O40812  -1.521   9.720   5.276  0.6235 -0.5295  0.7297
  310MOL0     C40813  -1.651   9.689   5.330 -1.0878  0.2237  0.1010
  310MOL0     C40814  -1.729   9.771   5.409  0.7325 -0.7813 -0.3080
  310MOL0     C40815  -1.855   9.727   5.463 -0.0575 -0.1764 -0.0491
  310MOL0     C40816  -1.907   9.594   5.421  0.3351 -0.8593 -0.5884
  310MOL0     C40817  -2.034   9.545   5.474 -0.2573 -0.1567 -0.0097
  310MOL0     O40818  -2.072   9.415   5.439 -1.2469  0.4441  0.5155
  310MOL0     C40819  -2.210   9.375   5.426 -0.5275 -0.0316 -0.6928
  310MOL0     C40820  -2.323   9.460   5.420  0.0865  0.1666 -0.0393
  310MOL0     C40821  -2.449   9.404   5.436 -0.4696  0.3426  0.3573
  310MOL0     C40822  -2.461   9.260   5.451  0.7556  0.9642 -1.2196
  310MOL0     O40823  -2.581   9.200   5.480 -0.0096  0.1621  0.8258
  310MOL0     C40824  -2.709   9.243   5.428  0.0204  0.2111 -0.3090
  310MOL0     C40825  -2.802   9.125   5.405 -0.2405 -0.0817 -0.5217
  310MOL0     C40826  -2.940   9.165   5.349 -0.1005  0.1132 -0.2835
  310MOL0     C40827  -3.041   9.056   5.403 -0.0204 -0.3120  0.0666
  310MOL0     C40828  -3.178   9.073   5.333  0.3425  0.3016  0.2439
  310MOL0     C40829  -3.273   8.952   5.349 -0.1975 -0.1052 -0.0130
  310MOL0     C40830  -3.418   8.970   5.283  0.4771  0.2506 -0.9784
  310MOL0     C40831  -3.487   9.110   5.321  0.0921  0.6163 -0.2593
  310MOL0    Cl40832  -3.645   9.121   5.218 -0.0735 -0.6000  0.1021
  310MOL0     C40833  -2.349   9.182   5.452  0.1439 -0.3027  0.0557
  310MOL0     C40834  -2.222   9.239   5.439 -0.0577 -0.6570  0.1777
  310MOL0     O40835  -2.099   9.615   5.552 -0.2739 -0.2046  0.1451
  310MOL0     C40836  -1.816   9.506   5.350 -0.9786 -0.1320 -0.5709
  310MOL0     C40837  -1.691   9.558   5.301 -0.6875 -0.3371 -0.5695
  310MOL0     N40838  -0.967  10.178   5.228 -0.3370 -0.9857  0.4176
  310MOL0     N40839  -0.928  10.278   5.308  0.6278 -0.4946 -0.3358
  310MOL0     C40840  -0.163  10.803   6.289  1.1625  0.0393  0.7277
  310MOL0     C40841  -0.035  10.819   6.316 -0.7838 -0.0548  0.1672
  310MOL0     C40842   0.403  10.770   6.247  0.9085 -0.8430 -0.6414
  310MOL0     C40843   0.486  10.798   6.136 -0.5513 -0.2114 -0.2036
  310MOL0     C40844   0.621  10.827   6.163  0.0361 -0.5711  0.4506
  310MOL0     C40845   0.673  10.827   6.289  0.1700  0.4873 -0.4478
  310MOL0     O40846   0.802  10.841   6.315  0.6303  0.0084  0.5829
  310MOL0     C40847   0.848  10.975   6.323  0.0806 -0.6426  0.0572
  310MOL0     C40848   0.968  10.984   6.413 -0.3288 -1.1100  0.7812
  310MOL0     C40849   0.939  10.979   6.562  0.1808  0.2761  0.4015
  310MOL0     C40850   1.058  11.037   6.648  0.1805  0.8792  0.0794
  310MOL0     C40851   1.185  10.988   6.599 -0.1598  0.4705 -0.2803
  310MOL0     C40852   1.295  10.945   6.557  0.5642  0.0671 -0.5968
  310MOL0     C40853   0.586  10.815   6.394  0.5014 -0.0095  0.4406
  310MOL0     C40854   0.456  10.784   6.374  0.4594  0.7807  0.9352
  310MOL0     H40855   0.074  10.502   6.321  1.9202  1.4962 -0.7967
  310MOL0     H40856  -0.173  10.457   6.275 -1.2035  0.4239  0.0453
  310MOL0     H40857  -0.462  10.488   6.261 -3.0463  1.0603 -0.8935
  310MOL0     H40858  -0.337  10.478   6.141 -0.3470  1.9039 -3.4327
  310MOL0     H40859  -0.458  10.657   6.018 -0.2634  0.5398 -0.5394
  310MOL0     H40860  -0.596  10.646   6.138 -0.4137 -0.9930 -0.0589
  310MOL0     H40861  -0.618  10.402   6.083 -2.9260 -0.5552 -0.9538
  310MOL0     H40862  -0.505  10.418   5.953  0.3934  1.8656 -0.7111
  310MOL0     H40863  -0.776  10.543   5.991  0.2532 -1.1667  0.4210
  310MOL0     H40864  -0.671  10.615   5.861  1.0688 -0.1840 -0.3430
  310MOL0     H40865  -0.743  10.319   5.875  2.3374 -1.4194 -1.5451
  310MOL0     H40866  -0.634  10.396   5.764 -0.0813 -1.0628  1.1174
  310MOL0     H40867  -0.829  10.540   5.688 -1.0476  1.0096  0.7151
  310MOL0     H40868  -0.924  10.440   5.799  0.8764 -0.0370  1.1453
  310MOL0     H40869  -0.758  10.340   5.556  0.5513  3.1100  0.8937
  310MOL0     H40870  -0.835  10.232   5.663 -2.1621 -1.9675 -3.6069
  310MOL0     H40871  -0.990  10.438   5.518  1.8045  0.6235  2.5499
  310MOL0     H40872  -1.061  10.317   5.627  1.2241 -0.8085  1.1054
  310MOL0     H40873  -1.107  10.085   5.507  2.2567 -2.6764  0.3890
  310MOL0     H40874  -1.083   9.877   5.309  1.9082 -0.0180 -1.3187
  310MOL0     H40875  -1.086   9.950   5.147 -3.6302  1.3014 -1.6716
  310MOL0     H40876  -1.291  10.065   5.187  2.3614  2.0498  0.4502
  310MOL0     H40877  -1.285  10.038   5.359  0.0642 -0.6195 -0.2016
  310MOL0     H40878  -1.312   9.822   5.143  2.0690  0.4617 -0.4657
  310MOL0     H40879  -1.291   9.789   5.327 -1.0317  3.2307  1.9106
  310MOL0     H40880  -1.531   9.909   5.192 -0.2727  0.8269  1.3400
  310MOL0     H40881  -1.509   9.898   5.368  0.1145  1.3682 -1.5620
  310MOL0     H40882  -1.693   9.868   5.443 -3.2142  0.5540  0.6972
  310MOL0     H40883  -1.902   9.811   5.513  1.6059  0.3142  0.7424
  310MOL0     H40884  -2.306   9.566   5.407 -0.6436  0.6067  2.1431
  310MOL0     H40885  -2.543   9.457   5.449 -0.5829  0.7008 -1.6035
  310MOL0     H40886  -2.691   9.302   5.338  1.3038  1.6912  0.8681
  310MOL0     H40887  -2.748   9.303   5.511  0.6310 -0.8241  0.7671
  310MOL0     H40888  -2.809   9.074   5.502  1.0674 -2.4701 -1.5805
  310MOL0     H40889  -2.748   9.054   5.342  0.5448  0.8897 -0.9653
  310MOL0     H40890  -2.938   9.185   5.241  2.5389 -1.4412 -0.6333
  310MOL0     H40891  -2.965   9.261   5.395  1.0515 -0.1597  0.9623
  310MOL0     H40892  -3.001   8.956   5.387 -1.0931 -0.4048 -2.6132
  310MOL0     H40893  -3.051   9.066   5.511  0.9904  0.8878  0.0735
  310MOL0     H40894  -3.167   9.089   5.226  0.4155  2.9144  0.5813
  310MOL0     H40895  -3.225   9.165   5.368 -1.8014 -0.0124 -1.6030
  310MOL0     H40896  -3.289   8.927   5.454 -1.4743 -2.5656 -0.7242
  310MOL0     H40897  -3.236   8.860   5.302  0.7307 -0.2720  0.9845
  310MOL0     H40898  -3.409   8.967   5.174  1.3592 -2.7591 -0.8948
  310MOL0     H40899  -3.493   8.897   5.316 -1.0738  1.9797 -0.4920
  310MOL0     H40900  -3.423   9.194   5.292 -0.6830  0.2550 -3.4433
  310MOL0     H40901  -3.523   9.109   5.424 -0.0244 -0.1686 -0.3054
  310MOL0     H40902  -2.364   9.075   5.466 -1.3221 -0.4208 -2.0704
  310MOL0     H40903  -2.129   9.186   5.456  1.1962  2.0719  2.6507
  310MOL0     H40904  -1.847   9.402   5.340 -2.2643 -0.2350  3.0672
  310MOL0     H40905  -1.615   9.492   5.261 -0.6463 -1.3091  1.0474
  310MOL0     H40906  -0.228  10.889   6.276  1.3138 -0.1644 -1.8154
  310MOL0     H40907   0.001  10.920   6.336  1.1146 -0.5249 -0.5917
  310MOL0     H40908   0.445  10.787   6.036 -1.2605 -2.6762  0.2956
  310MOL0     H40909   0.694  10.845   6.084 -0.5376  1.7097  0.3660
  310MOL0     H40910   0.768  11.046   6.346  0.8965  0.3764 -0.1767
  310MOL0     H40911   0.877  11.011   6.224  0.4104 -0.9062  0.0565
  310MOL0     H40912   1.040  10.907   6.382  3.4413  1.6928  1.8116
  310MOL0     H40913   1.031  11.072   6.400 -0.7582 -1.0965 -1.5660
  310MOL0     H40914   0.930  10.875   6.595  0.8800  0.2674  0.5734
  310MOL0     H40915   0.855  11.043   6.591  0.9820  0.1810  3.2137
  310MOL0     H40916   1.066  11.145   6.659 -0.9973  0.7696  3.2374
  310MOL0     H40917   1.046  11.008   6.753 -0.6322  1.7194  0.2322
  310MOL0     H40918   1.388  10.902   6.525  2.0050  0.7906  2.2627
  310MOL0     H40919   0.614  10.829   6.498  0.8764  1.1062  0.1941
  310MOL0     H40920   0.404  10.750   6.463 -2.0189  1.1139 -0.3093
  311MOL0     O40921   5.628   3.638   2.825 -0.4684 -0.0706 -0.0970
  311MOL0     C40922   5.673   3.747   2.791  0.4054  0.5076  0.4685
  311MOL0     O40923   5.589   3.854   2.764  0.2137  0.1355 -0.1559
  311MOL0     C40924   5.452   3.828   2.761 -0.1386  0.0712  0.5240
  311MOL0     C40925   5.397   3.754   2.656 -0.1009 -0.0164  0.1891
  311MOL0     C40926   5.262   3.722   2.656  0.5520 -0.4390 -0.7868
  311MOL0     C40927   5.172   3.770   2.759  0.1576 -0.1767 -0.2458
  311MOL0     O40928   5.034   3.743   2.767  0.4632 -0.4320 -0.1329
  311MOL0     C40929   4.973   3.734   2.637  0.5397 -0.4745  1.4941
  311MOL0     C40930   4.823   3.764   2.650 -0.1593  0.2394 -0.5934
  311MOL0     C40931   4.740   3.817   2.529 -0.2811  0.8352 -0.2522
  311MOL0     C40932   4.594   3.833   2.585  0.3752  0.0822  0.6140
  311MOL0     C40933   4.507   3.884   2.467  0.3177 -0.0830 -0.0797
  311MOL0     C40934   4.366   3.917   2.520  0.0358  0.1036 -0.1299
  311MOL0     C40935   4.268   3.964   2.414 -0.4719  1.1700  0.0878
  311MOL0     C40936   4.154   4.051   2.475 -0.4988  0.3830  0.6688
  311MOL0     N40937   4.092   4.113   2.364  0.1685 -0.8450 -0.6903
  311MOL0     C40938   4.098   4.244   2.327  0.2728  0.1658 -0.3603
  311MOL0     C40939   4.005   4.258   2.229 -0.3658  1.0641 -0.7105
  311MOL0     C40940   4.004   4.390   2.157  1.7156  0.0744 -0.4409
  311MOL0     C40941   3.861   4.418   2.093  0.0245 -0.8208 -0.9814
  311MOL0     C40942   3.839   4.331   1.972 -0.0371 -0.1147  1.0478
  311MOL0     C40943   3.700   4.351   1.909 -0.2535  0.2379  0.4220
  311MOL0     O40944   3.699   4.474   1.840  0.1802 -1.1606  0.2806
  311MOL0     C40945   3.602   4.492   1.737  0.8403 -0.4381  0.2242
  311MOL0     C40946   3.473   4.424   1.740  0.1961  0.5819 -0.0207
  311MOL0     C40947   3.373   4.443   1.646 -0.0820  0.0610 -0.2110
  311MOL0     C40948   3.400   4.523   1.537  0.1635 -0.6435 -1.0747
  311MOL0     C40949   3.305   4.520   1.422 -0.3205  0.4416 -0.8315
  311MOL0     O40950   3.343   4.568   1.302  0.2519  0.5583 -0.0081
  311MOL0     C40951   3.263   4.555   1.189 -0.1248  1.0884 -1.1108
  311MOL0     C40952   3.239   4.422   1.140 -0.5753  0.2721 -0.3814
  311MOL0     C40953   3.152   4.397   1.039 -0.0999  0.5613 -0.0401
  311MOL0     C40954   3.113   4.511   0.957  0.8359  0.2859 -0.4228
  311MOL0     O40955   3.038   4.504   0.840  0.4952 -0.6289  0.0044
  311MOL0     C40956   3.057   4.388   0.757 -0.1237 -0.7035  0.0550
  311MOL0     C40957   2.990   4.423   0.621  0.3845 -0.4458 -0.3163
  311MOL0     C40958   3.059   4.353   0.505 -0.4484  0.0617  0.5343
  311MOL0     C40959   3.001   4.407   0.375  0.4097 -0.6862  0.3312
  311MOL0     C40960   3.050   4.344   0.243  0.0389 -0.3662  0.4144
  311MOL0     C40961   3.035   4.194   0.219  0.0618  0.1492 -0.6750
  311MOL0     C40962   3.050   4.172   0.065 -0.8405 -0.0589  0.0153
  311MOL0     C40963   3.021   4.036   0.009 -0.5944  0.3654 -0.1240
  311MOL0    Cl40964   3.140   3.911   0.068 -0.3857 -0.3341  0.0412
  311MOL0     C40965   3.141   4.645   1.005  0.2717  0.2694 -0.0982
  311MOL0     C40966   3.211   4.661   1.125  0.4374 -0.9987  0.1594
  311MOL0     O40967   3.212   4.445   1.444  0.1672 -0.3677 -0.2432
  311MOL0     C40968   3.523   4.592   1.537 -0.4844 -0.8459  0.7393
  311MOL0     C40969   3.623   4.582   1.637  1.0920 -0.2629 -0.0399
  311MOL0     N40970   3.941   4.138   2.212 -0.5513 -0.5138 -0.0836
  311MOL0     N40971   3.997   4.057   2.291 -0.3155 -0.2944 -0.9935
  311MOL0     C40972   5.230   3.853   2.859  0.5156  0.5230 -0.1138
  311MOL0     C40973   5.366   3.874   2.863  0.0211 -0.0575  0.6102
  311MOL0     C40974   5.821   3.764   2.771  0.4230  0.6835 -0.3012
  311MOL0     C40975   5.871   3.893   2.745 -0.1123 -0.2999 -0.0622
  311MOL0     C40976   6.010   3.904   2.727 -0.2946  0.0300  0.5382
  311MOL0     C40977   6.096   3.793   2.723 -0.5137  0.0248  0.2000
  311MOL0     O40978   6.234   3.803   2.712 -0.1251  0.3279  0.1713
  311MOL0     C40979   6.286   3.935   2.689 -0.7090 -0.0107 -0.0530
  311MOL0     C40980   6.438   3.939   2.681 -0.7966  0.0464 -0.0238
  311MOL0     C40981   6.498   3.888   2.808  0.1845 -0.3266  0.8171
  311MOL0     C40982   6.642   3.918   2.825 -0.6274 -0.3672  0.2380
  311MOL0     C40983   6.728   3.822   2.758  0.3364 -0.5007 -0.4631
  311MOL0     C40984   6.801   3.740   2.716 -0.2318 -0.0873  0.4557
  311MOL0     C40985   6.043   3.672   2.742 -0.2308  0.3235  0.2839
  311MOL0     C40986   5.913   3.652   2.777 -0.6662 -0.9553 -0.2888
  311MOL0     H40987   5.473   3.729   2.583 -0.3345 -1.2509  0.3421
  311MOL0     H40988   5.214   3.651   2.589  0.8560 -1.5367  0.1268
  311MOL0     H40989   4.987   3.634   2.594 -2.0862 -0.5878  0.7074
  311MOL0     H40990   5.019   3.812   2.576 -0.0265  1.7276  3.7078
  311MOL0     H40991   4.816   3.853   2.714  0.2168  1.5873 -2.3529
  311MOL0     H40992   4.763   3.692   2.706 -0.0580  0.9556  0.4655
  311MOL0     H40993   4.758   3.744   2.450 -1.0056  1.8404 -1.3695
  311MOL0     H40994   4.783   3.913   2.501  2.9045  0.3017  2.1877
  311MOL0     H40995   4.544   3.746   2.628  0.6591  1.3211  3.7004
  311MOL0     H40996   4.591   3.907   2.665 -0.7855 -0.2981  0.9442
  311MOL0     H40997   4.501   3.818   2.380 -0.8288  1.0587 -0.9047
  311MOL0     H40998   4.554   3.977   2.434 -1.0650  0.9989  0.8909
  311MOL0     H40999   4.388   3.997   2.593  2.6060  1.1223 -1.8964
  311MOL0     H41000   4.321   3.830   2.568 -1.7410  0.3894 -1.1795
  311MOL0     H41001   4.329   4.015   2.339  2.1020 -2.8762 -0.8335
  311MOL0     H41002   4.227   3.879   2.360  3.2190  0.0821 -1.3257
  311MOL0     H41003   4.185   4.124   2.551 -0.1107 -1.0106  1.9124
  311MOL0     H41004   4.079   3.986   2.522  0.6737 -1.0623  0.5977
  311MOL0     H41005   4.172   4.318   2.356  0.8540 -1.3176  2.2763
  311MOL0     H41006   4.081   4.399   2.080  1.3651  2.0844 -0.6166
  311MOL0     H41007   4.025   4.468   2.232  0.9688 -0.3586  0.2298
  311MOL0     H41008   3.843   4.526   2.084  3.9578  0.1736  0.8983
  311MOL0     H41009   3.785   4.395   2.169 -0.3226  0.6359 -0.8532
  311MOL0     H41010   3.918   4.354   1.900  0.7528  0.5829  2.1011
  311MOL0     H41011   3.837   4.225   2.000  0.1340  0.4070  3.2244
  311MOL0     H41012   3.621   4.341   1.984 -0.0983 -0.0131  0.5532
  311MOL0     H41013   3.680   4.266   1.843  0.2158 -0.3307  0.9950
  311MOL0     H41014   3.449   4.351   1.817 -0.8300  0.5298 -0.3804
  311MOL0     H41015   3.276   4.395   1.641 -0.0678  0.1455 -3.0440
  311MOL0     H41016   3.287   4.333   1.178 -0.7490 -0.6552 -2.2312
  311MOL0     H41017   3.126   4.298   1.004  0.7532 -0.0883  1.0967
  311MOL0     H41018   3.011   4.299   0.803  4.1515 -2.6169  1.1623
  311MOL0     H41019   3.164   4.374   0.740  0.3344  1.8712  0.4471
  311MOL0     H41020   2.988   4.530   0.600 -0.6099 -0.4919 -0.5258
  311MOL0     H41021   2.887   4.388   0.633  0.3029 -0.4979 -1.1038
  311MOL0     H41022   3.041   4.245   0.516 -0.9200 -0.0428 -1.0838
  311MOL0     H41023   3.166   4.373   0.511 -0.0972 -1.1566 -0.8853
  311MOL0     H41024   2.892   4.393   0.371  0.4559 -0.8522 -0.4171
  311MOL0     H41025   3.018   4.515   0.364 -1.6588 -0.5418 -3.0475
  311MOL0     H41026   3.157   4.368   0.237 -0.4563  1.9061 -0.6237
  311MOL0     H41027   3.002   4.402   0.163 -1.7751 -0.9443  1.0450
  311MOL0     H41028   2.932   4.161   0.237 -0.3054  0.5284 -2.0354
  311MOL0     H41029   3.101   4.142   0.289 -0.1798 -0.0578 -0.5974
  311MOL0     H41030   2.976   4.239   0.019 -0.9218 -0.6773 -0.7624
  311MOL0     H41031   3.153   4.189   0.034 -1.5268 -0.6285 -2.8284
  311MOL0     H41032   3.025   4.038  -0.101  0.8057  0.0755 -0.0943
  311MOL0     H41033   2.916   4.016   0.032 -0.3800 -0.3210  0.2951
  311MOL0     H41034   3.110   4.732   0.949 -1.9833 -0.3319  0.1142
  311MOL0     H41035   3.239   4.757   1.167 -0.8388 -0.8928  0.8013
  311MOL0     H41036   3.549   4.670   1.466  0.9114 -1.0355  1.0021
  311MOL0     H41037   3.699   4.659   1.642  0.9392 -0.1189  0.0975
  311MOL0     H41038   5.175   3.897   2.942  1.2149  2.4022 -0.5928
  311MOL0     H41039   5.412   3.925   2.947  1.0458  0.9449 -0.5165
  311MOL0     H41040   5.809   3.982   2.735  1.0974  0.7668  1.5001
  311MOL0     H41041   6.036   4.008   2.709 -2.4792  0.5960  0.3985
  311MOL0     H41042   6.254   3.996   2.775 -0.4820 -2.1753  1.6618
  311MOL0     H41043   6.246   3.979   2.597 -1.7929  0.8694  0.8019
  311MOL0     H41044   6.469   3.881   2.593 -0.7627  1.1456 -0.7614
  311MOL0     H41045   6.457   4.047   2.675 -2.6776  0.3308 -2.4753
  311MOL0     H41046   6.480   3.781   2.815 -0.8994 -0.2122  0.0126
  311MOL0     H41047   6.448   3.935   2.894  3.4417  0.9146  2.2009
  311MOL0     H41048   6.661   4.022   2.795 -1.5437 -0.2126  0.1537
  311MOL0     H41049   6.654   3.916   2.933 -2.7051  3.3307  0.7066
  311MOL0     H41050   6.867   3.664   2.680  1.8165  0.7401  2.2817
  311MOL0     H41051   6.104   3.584   2.727  1.9799  1.9793 -0.8803
  311MOL0     H41052   5.868   3.555   2.794 -0.8470 -0.3972  3.1543
  312MOL0     O41053   1.420   0.606   3.371  0.3750 -0.8006 -0.2209
  312MOL0     C41054   1.504   0.693   3.397 -0.4380  0.8557 -0.6863
  312MOL0     O41055   1.475   0.822   3.428 -0.4909  0.3824 -0.1654
  312MOL0     C41056   1.346   0.861   3.423  0.0003 -0.0087  0.6006
  312MOL0     C41057   1.255   0.817   3.525 -0.1890 -0.0357 -0.1224
  312MOL0     C41058   1.125   0.847   3.513 -0.3836 -0.8204 -0.2666
  312MOL0     C41059   1.081   0.935   3.407  0.6806  0.4817  0.4100
  312MOL0     O41060   0.951   0.986   3.391 -0.3895  0.0592 -0.1870
  312MOL0     C41061   0.831   0.914   3.433 -0.3535 -0.4457  0.1449
  312MOL0     C41062   0.717   1.021   3.437  0.1187  0.3096  0.7577
  312MOL0     C41063   0.566   0.965   3.444 -0.2594  0.7708 -0.2091
  312MOL0     C41064   0.460   1.085   3.437 -0.3671  0.1333 -0.1409
  312MOL0     C41065   0.327   1.044   3.513 -0.2668  0.2319 -0.0425
  312MOL0     C41066   0.236   1.172   3.540 -1.1801  0.7941 -0.4179
  312MOL0     C41067   0.160   1.167   3.673 -0.2632 -0.5565  0.1681
  312MOL0     C41068   0.244   1.172   3.801  0.6460  0.3839 -0.4960
  312MOL0     N41069   0.260   1.307   3.860 -0.3885 -0.4568  0.5436
  312MOL0     C41070   0.371   1.384   3.853 -0.3809 -0.2368  0.0083
  312MOL0     C41071   0.342   1.483   3.942 -0.9777 -0.0394  0.1691
  312MOL0     C41072   0.441   1.580   4.002  0.2187  0.2065  0.3456
  312MOL0     C41073   0.551   1.615   3.895  0.6059  0.3001  0.4354
  312MOL0     C41074   0.480   1.690   3.775 -0.1152  0.7478  0.0521
  312MOL0     C41075   0.581   1.759   3.683  0.5032 -0.9068 -0.4973
  312MOL0     O41076   0.651   1.863   3.755 -0.2197 -0.7387  0.4990
  312MOL0     C41077   0.747   1.938   3.685 -0.3274  0.7728  0.0473
  312MOL0     C41078   0.776   1.912   3.544  0.2979 -0.2381  0.2785
  312MOL0     C41079   0.870   1.990   3.480 -0.2715 -0.7746 -0.6633
  312MOL0     C41080   0.926   2.104   3.541 -0.3550  0.1633  0.3033
  312MOL0     C41081   1.016   2.187   3.468 -0.2408 -0.0236 -0.2004
  312MOL0     O41082   1.066   2.302   3.523 -0.3196  0.6115  0.2032
  312MOL0     C41083   1.158   2.382   3.463 -0.1540 -0.4718 -0.0786
  312MOL0     C41084   1.213   2.473   3.542  0.1733 -0.0750  0.9895
  312MOL0     C41085   1.309   2.558   3.481  0.3489  0.1330 -0.5646
  312MOL0     C41086   1.334   2.567   3.351  0.3270  0.2555 -0.4031
  312MOL0     O41087   1.414   2.672   3.317  0.6252  0.6616 -0.4794
  312MOL0     C41088   1.532   2.615   3.259  0.3902 -0.3082  0.5758
  312MOL0     C41089   1.642   2.724   3.238  0.9414 -0.4232 -0.4471
  312MOL0     C41090   1.757   2.653   3.166  0.3740  0.4791  0.0558
  312MOL0     C41091   1.900   2.722   3.164  0.1302 -0.1796  0.0817
  312MOL0     C41092   1.985   2.694   3.044 -0.1188 -0.4582  0.4885
  312MOL0     C41093   2.030   2.546   3.035  0.3983  0.7198  0.0199
  312MOL0     C41094   2.137   2.522   2.930 -0.5873  0.2574  0.2880
  312MOL0     C41095   2.187   2.389   2.925 -0.0140  0.3752 -0.5274
  312MOL0    Cl41096   2.268   2.369   2.770  0.0559  0.2115  0.0040
  312MOL0     C41097   1.271   2.482   3.269 -0.3658 -0.4500  0.3976
  312MOL0     C41098   1.181   2.391   3.318  0.3825 -0.0510 -0.9279
  312MOL0     O41099   1.060   2.139   3.359 -0.1628 -0.1121 -0.1629
  312MOL0     C41100   0.916   2.120   3.683  0.1225  0.8257 -0.3274
  312MOL0     C41101   0.822   2.037   3.749 -0.6811  0.4951 -0.2219
  312MOL0     N41102   0.214   1.470   3.993  0.1304 -0.2483 -0.4747
  312MOL0     N41103   0.166   1.366   3.943 -0.4511  0.0985 -0.1961
  312MOL0     C41104   1.170   0.966   3.304  0.0075  0.3753 -0.1383
  312MOL0     C41105   1.303   0.931   3.311  0.0662  0.2007 -0.0364
  312MOL0     C41106   1.646   0.658   3.399  0.3837 -0.2640 -0.8239
  312MOL0     C41107   1.739   0.737   3.456 -0.1205 -0.9163  0.4779
  312MOL0     C41108   1.873   0.700   3.450 -0.1597 -0.5664  0.4934
  312MOL0     C41109   1.914   0.588   3.381  0.1687 -0.1407  0.3116
  312MOL0     O41110   2.050   0.543   3.376 -0.2888 -0.0887 -0.7680
  312MOL0     C41111   2.149   0.597   3.472 -0.0569  1.1773 -0.2423
  312MOL0     C41112   2.278   0.617   3.414 -0.0387  0.2851 -0.8434
  312MOL0     C41113   2.381   0.681   3.512 -0.2093 -0.0168  0.5111
  312MOL0     C41114   2.506   0.724   3.437 -0.3739  0.5699  0.2232
  312MOL0     C41115   2.591   0.617   3.385  0.4358 -0.8308  0.2734
  312MOL0     C41116   2.663   0.531   3.337  0.5253  0.0605  0.0344
  312MOL0     C41117   1.823   0.495   3.330 -0.4110 -0.2105  0.1147
  312MOL0     C41118   1.688   0.536   3.335 -0.6761 -0.3654  0.0334
  312MOL0     H41119   1.297   0.747   3.596  1.4070 -0.1184 -1.0928
  312MOL0     H41120   1.065   0.816   3.597 -0.3111  1.2020  0.5634
  312MOL0     H41121   0.842   0.856   3.525 -2.6337 -1.5343 -0.2071
  312MOL0     H41122   0.807   0.847   3.349  1.7191 -1.5553  0.3552
  312MOL0     H41123   0.724   1.081   3.346 -1.1847 -0.2059  0.3060
  312MOL0     H41124   0.741   1.088   3.520 -1.3910  0.4900  1.0799
  312MOL0     H41125   0.547   0.920   3.542  0.3838  1.0890  0.0691
  312MOL0     H41126   0.554   0.896   3.360  1.9485 -0.4178  0.3648
  312MOL0     H41127   0.506   1.172   3.485 -0.0137 -0.1034 -0.0428
  312MOL0     H41128   0.435   1.114   3.335  0.1881  0.1518 -0.2757
  312MOL0     H41129   0.366   1.002   3.606  0.4604  0.4243 -0.2548
  312MOL0     H41130   0.271   0.962   3.467 -0.2034  0.5767 -0.7474
  312MOL0     H41131   0.167   1.178   3.455 -0.3729 -1.4626 -1.3078
  312MOL0     H41132   0.306   1.255   3.541  1.8354 -1.5927 -0.1753
  312MOL0     H41133   0.092   1.253   3.670  1.5384  0.9132 -2.0994
  312MOL0     H41134   0.112   1.069   3.678  1.8951 -1.6067  1.2045
  312MOL0     H41135   0.346   1.138   3.782  1.3848  1.4232  1.3241
  312MOL0     H41136   0.194   1.109   3.876  0.6956 -1.2369 -1.7790
  312MOL0     H41137   0.461   1.365   3.796 -0.5455 -0.8275 -0.0552
  312MOL0     H41138   0.493   1.540   4.090 -0.6038 -1.5478  0.0534
  312MOL0     H41139   0.391   1.672   4.034 -1.3967  0.7676 -3.3446
  312MOL0     H41140   0.608   1.532   3.852 -0.0583  0.9647 -1.8654
  312MOL0     H41141   0.618   1.680   3.952 -1.9694  0.7216  3.2583
  312MOL0     H41142   0.437   1.614   3.709 -2.8355  1.9746  0.2829
  312MOL0     H41143   0.405   1.765   3.802  1.7421  1.9760  2.2164
  312MOL0     H41144   0.531   1.816   3.604  2.8780  0.2329 -1.2776
  312MOL0     H41145   0.656   1.691   3.642 -0.6040 -1.6450 -1.3522
  312MOL0     H41146   0.717   1.844   3.483  0.6030 -0.1955 -0.0593
  312MOL0     H41147   0.892   1.974   3.374 -2.2553  1.0280 -1.4197
  312MOL0     H41148   1.190   2.471   3.648 -0.2007  0.5945  0.9277
  312MOL0     H41149   1.374   2.625   3.536  1.7472  1.3329 -3.5049
  312MOL0     H41150   1.519   2.570   3.160  0.2640 -2.2437  1.4315
  312MOL0     H41151   1.579   2.533   3.314 -1.2509 -1.3860  0.4219
  312MOL0     H41152   1.674   2.749   3.339 -1.1469 -2.5288  0.8484
  312MOL0     H41153   1.606   2.812   3.184  2.0657  0.6306  0.4735
  312MOL0     H41154   1.716   2.641   3.065 -0.6368  1.7754  0.2774
  312MOL0     H41155   1.768   2.551   3.205 -0.2957  0.1355 -0.6291
  312MOL0     H41156   1.887   2.830   3.177 -0.8468 -0.4541  1.6819
  312MOL0     H41157   1.957   2.691   3.252  0.5094  1.5136  0.4682
  312MOL0     H41158   2.067   2.763   3.064 -2.6010  1.7522  4.2507
  312MOL0     H41159   1.946   2.714   2.945  0.1462 -1.5834  0.1338
  312MOL0     H41160   1.947   2.477   3.016  0.8279  0.2779 -0.2730
  312MOL0     H41161   2.062   2.509   3.133 -2.4863 -0.7262  0.5120
  312MOL0     H41162   2.089   2.541   2.833  1.7060  1.8980 -0.6306
  312MOL0     H41163   2.219   2.594   2.930 -0.4863  0.2582 -2.5024
  312MOL0     H41164   2.095   2.329   2.922  1.0811 -1.3345 -1.3601
  312MOL0     H41165   2.252   2.363   3.009  0.9340  2.3901 -0.5730
  312MOL0     H41166   1.302   2.471   3.165  0.6435 -1.6705  0.7973
  312MOL0     H41167   1.117   2.336   3.249  0.4457 -2.8368  1.0802
  312MOL0     H41168   0.966   2.198   3.740  2.6831  1.4304 -3.1320
  312MOL0     H41169   0.811   2.076   3.850 -0.0247 -0.8474  0.3994
  312MOL0     H41170   1.148   1.040   3.227  1.3564  0.4764 -0.4660
  312MOL0     H41171   1.379   0.950   3.236  2.5175 -1.6174  1.8154
  312MOL0     H41172   1.709   0.826   3.510 -1.5045 -1.5606  0.8268
  312MOL0     H41173   1.939   0.761   3.511  1.5656 -1.4968 -0.3963
  312MOL0     H41174   2.168   0.521   3.549  0.6807  0.4740 -1.1029
  312MOL0     H41175   2.116   0.688   3.522 -2.0255  1.2995 -1.6555
  312MOL0     H41176   2.307   0.517   3.381  2.5641  0.8304 -0.4429
  312MOL0     H41177   2.262   0.678   3.324 -0.9231  2.0196  0.4148
  312MOL0     H41178   2.404   0.603   3.585 -0.6946 -2.2005 -1.5292
  312MOL0     H41179   2.350   0.769   3.568  0.0437 -0.4760  1.3924
  312MOL0     H41180   2.484   0.799   3.360  0.4872 -1.2327 -1.8726
  312MOL0     H41181   2.564   0.769   3.518  2.7738 -1.4817 -0.6954
  312MOL0     H41182   2.734   0.460   3.300  2.9818  2.5555 -0.4502
  312MOL0     H41183   1.837   0.399   3.281 -1.2565 -0.8772  1.1386
  312MOL0     H41184   1.618   0.471   3.282 -1.6021  0.7976 -0.2054
  313MOL0     O41185   4.406   5.441   7.630  0.2031  0.0998 -0.0830
  313MOL0     C41186   4.513   5.492   7.670 -0.6530 -0.1428  0.9839
  313MOL0     O41187   4.541   5.624   7.686 -0.1101  0.6974  0.0101
  313MOL0     C41188   4.428   5.705   7.675 -0.1629 -0.2044  0.0940
  313MOL0     C41189   4.385   5.756   7.549 -0.3697  1.0427  0.1580
  313MOL0     C41190   4.275   5.840   7.542 -0.1482  0.3520  0.3367
  313MOL0     C41191   4.219   5.887   7.662 -0.8414 -0.1347  0.5321
  313MOL0     O41192   4.116   5.977   7.665 -0.0302 -0.3827  0.4528
  313MOL0     C41193   4.057   6.027   7.542  0.5391  0.2274  0.2018
  313MOL0     C41194   3.947   5.931   7.499 -0.5260  0.1001  0.1682
  313MOL0     C41195   3.826   5.939   7.594 -0.8607  1.3070  1.3123
  313MOL0     C41196   3.841   5.880   7.737 -0.5802  0.1408 -0.4977
  313MOL0     C41197   3.716   5.894   7.831  0.1664 -0.2643 -0.6626
  313MOL0     C41198   3.599   5.800   7.795  0.4038  0.9859  0.4158
  313MOL0     C41199   3.462   5.846   7.850  0.2451 -0.5910  0.1381
  313MOL0     C41200   3.356   5.738   7.859 -0.0044 -0.2496 -0.6734
  313MOL0     N41201   3.225   5.790   7.919  0.5300  0.0829 -0.1887
  313MOL0     C41202   3.202   5.824   8.051 -0.4689  0.0727 -0.3427
  313MOL0     C41203   3.083   5.874   8.055  0.6560 -0.4420  0.2857
  313MOL0     C41204   3.004   5.914   8.181 -0.0359 -0.9594 -0.3253
  313MOL0     C41205   2.962   5.790   8.263 -0.2290  0.7641 -0.4433
  313MOL0     C41206   2.850   5.700   8.209  0.7788 -0.2212 -0.6845
  313MOL0     C41207   2.849   5.677   8.054  0.0191  0.3074 -0.5000
  313MOL0     O41208   2.760   5.571   8.009  0.2977 -0.1128 -0.3281
  313MOL0     C41209   2.776   5.538   7.877  0.3885 -0.2925  1.0223
  313MOL0     C41210   2.706   5.425   7.827 -0.4340  0.1083  0.2418
  313MOL0     C41211   2.727   5.386   7.691  0.3136 -1.2020  0.0847
  313MOL0     C41212   2.812   5.450   7.607  0.6080 -0.0855 -0.7848
  313MOL0     C41213   2.840   5.384   7.479 -0.0672 -0.0638 -0.2950
  313MOL0     O41214   2.855   5.459   7.363  0.4377 -0.5575 -0.5114
  313MOL0     C41215   2.931   5.434   7.250  0.4982  0.1270 -0.4181
  313MOL0     C41216   2.996   5.311   7.236 -0.3615 -1.2879 -0.5728
  313MOL0     C41217   3.069   5.290   7.120  0.3461  0.0698  0.5389
  313MOL0     C41218   3.082   5.393   7.020 -0.0894 -0.4745  0.1083
  313MOL0     O41219   3.156   5.386   6.905  0.9941  0.3519  0.4544
  313MOL0     C41220   3.273   5.311   6.907  0.6053 -0.2497  0.1073
  313MOL0     C41221   3.362   5.322   6.781  0.1346 -0.1021 -0.0475
  313MOL0     C41222   3.319   5.260   6.653 -0.3422  0.6824 -0.4198
  313MOL0     C41223   3.411   5.306   6.533 -0.5697 -0.5166 -0.2621
  313MOL0     C41224   3.411   5.224   6.407  1.3265  0.3688  0.4309
  313MOL0     C41225   3.272   5.191   6.368  0.2019  0.3189  0.6863
  313MOL0     C41226   3.265   5.124   6.229  0.7313  0.1201  0.9731
  313MOL0     C41227   3.190   4.986   6.223  0.3330 -0.3787  0.4730
  313MOL0    Cl41228   3.018   5.008   6.242  0.0054 -0.1247 -0.0168
  313MOL0     C41229   3.011   5.509   7.036 -0.1993 -0.8172  0.2764
  313MOL0     C41230   2.937   5.538   7.151 -0.5940  0.4014  0.6442
  313MOL0     O41231   2.842   5.260   7.486  0.2169  0.2766 -0.0380
  313MOL0     C41232   2.873   5.574   7.656 -0.2251 -0.3993  0.6650
  313MOL0     C41233   2.848   5.617   7.784  0.8480  0.5335 -0.6976
  313MOL0     N41234   3.033   5.876   7.920 -0.5792  0.1874  0.0105
  313MOL0     N41235   3.126   5.826   7.837  0.5219 -0.0133 -0.0536
  313MOL0     C41236   4.255   5.837   7.788 -0.4413  0.7765  0.9809
  313MOL0     C41237   4.365   5.748   7.798  0.1974 -0.1262  0.5204
  313MOL0     C41238   4.625   5.409   7.700 -0.3569 -0.1451 -0.2386
  313MOL0     C41239   4.749   5.459   7.740  0.9381  0.1210  0.4112
  313MOL0     C41240   4.861   5.378   7.780  0.5544  0.1466  0.3862
  313MOL0     C41241   4.849   5.233   7.768 -0.0783 -0.2640  0.4877
  313MOL0     O41242   4.939   5.137   7.798  0.6119  0.5391 -0.6894
  313MOL0     C41243   5.065   5.164   7.852  0.1648 -0.3804  0.0880
  313MOL0     C41244   5.151   5.046   7.805  0.0953 -0.1232 -0.3289
  313MOL0     C41245   5.292   5.043   7.869 -0.4124 -0.0819  0.7569
  313MOL0     C41246   5.357   4.904   7.860  0.4381 -0.6127  0.1990
  313MOL0     C41247   5.490   4.885   7.911 -0.1517  0.2071 -0.4106
  313MOL0     C41248   5.600   4.863   7.959  0.0746 -0.2484 -0.3377
  313MOL0     C41249   4.717   5.189   7.731  0.4663  0.5290 -0.7104
  313MOL0     C41250   4.615   5.271   7.695 -0.2563  0.6618 -1.1570
  313MOL0     H41251   4.437   5.722   7.459  0.3005 -0.3491  1.0391
  313MOL0     H41252   4.238   5.861   7.442 -0.0494 -2.1921 -0.3048
  313MOL0     H41253   4.124   6.038   7.456 -1.4918 -2.6098 -1.9727
  313MOL0     H41254   4.012   6.124   7.566 -1.0942 -0.7753  1.3998
  313MOL0     H41255   3.985   5.831   7.475 -2.7033 -0.3452 -1.8816
  313MOL0     H41256   3.903   5.962   7.403  0.8713 -4.2206 -2.1590
  313MOL0     H41257   3.747   5.887   7.539 -0.6044  1.7127  0.5427
  313MOL0     H41258   3.796   6.044   7.601  0.2150  1.6806  0.4978
  313MOL0     H41259   3.867   5.774   7.740 -2.5554 -0.4202  3.1134
  313MOL0     H41260   3.917   5.931   7.798 -1.8308  1.4304  0.0278
  313MOL0     H41261   3.680   5.997   7.831  2.3195  0.5398 -0.2660
  313MOL0     H41262   3.754   5.875   7.932 -0.4565 -1.8476 -0.6883
  313MOL0     H41263   3.613   5.696   7.825  1.5675  1.1841  0.5871
  313MOL0     H41264   3.586   5.793   7.687 -0.3439 -1.0200  0.5860
  313MOL0     H41265   3.477   5.889   7.949 -1.1483  1.9628 -0.6542
  313MOL0     H41266   3.422   5.930   7.792 -1.8956  0.1681  2.5305
  313MOL0     H41267   3.399   5.655   7.918  1.8719 -1.6813 -3.8066
  313MOL0     H41268   3.345   5.701   7.757 -1.8012  0.3823 -0.7458
  313MOL0     H41269   3.276   5.813   8.130  0.1686  4.0093 -0.1842
  313MOL0     H41270   2.907   5.957   8.155 -0.3696  0.1432  2.4398
  313MOL0     H41271   3.058   5.980   8.250 -2.1926  2.8481 -1.9586
  313MOL0     H41272   2.938   5.817   8.366  0.3683 -2.9877  0.8207
  313MOL0     H41273   3.052   5.727   8.270 -0.5537  0.2899 -0.5282
  313MOL0     H41274   2.838   5.607   8.267  0.9705 -1.4389 -2.5108
  313MOL0     H41275   2.758   5.758   8.222 -0.5801 -2.5856  1.1220
  313MOL0     H41276   2.951   5.660   8.017 -0.8329 -1.4693 -2.2029
  313MOL0     H41277   2.810   5.772   8.019  0.7014  1.0756  0.7219
  313MOL0     H41278   2.637   5.368   7.887 -0.3203  1.5119  1.7732
  313MOL0     H41279   2.679   5.293   7.664 -0.3320 -1.1800  1.1447
  313MOL0     H41280   2.985   5.229   7.306 -1.6363  0.9130  2.0047
  313MOL0     H41281   3.113   5.191   7.120 -0.7759 -0.4506  1.3611
  313MOL0     H41282   3.251   5.204   6.908 -0.0991 -0.1174 -0.0557
  313MOL0     H41283   3.324   5.330   7.001  2.0467 -1.3798 -0.4080
  313MOL0     H41284   3.460   5.280   6.807  0.8067  2.3821  1.8093
  313MOL0     H41285   3.380   5.427   6.756  3.3501 -0.6060 -0.2511
  313MOL0     H41286   3.213   5.280   6.640 -0.3628  0.5662 -0.4317
  313MOL0     H41287   3.321   5.150   6.653  1.1733  0.6804  0.4594
  313MOL0     H41288   3.378   5.405   6.500  0.1078 -0.8914 -2.1993
  313MOL0     H41289   3.514   5.314   6.568 -0.5889 -0.6857 -0.1694
  313MOL0     H41290   3.474   5.135   6.418  1.9131  0.7903  0.5646
  313MOL0     H41291   3.467   5.276   6.329  2.3723  2.9069  2.7153
  313MOL0     H41292   3.210   5.281   6.363  0.6263  0.5512 -0.9604
  313MOL0     H41293   3.231   5.121   6.442  2.1726 -2.2573 -0.4807
  313MOL0     H41294   3.212   5.192   6.163  0.2455 -0.1489  1.0795
  313MOL0     H41295   3.370   5.116   6.201  0.2632 -4.5818 -0.2759
  313MOL0     H41296   3.224   4.918   6.302  0.0303 -1.3806 -0.2458
  313MOL0     H41297   3.205   4.934   6.129  1.6678 -1.2708  1.1561
  313MOL0     H41298   3.030   5.584   6.959  3.1872 -0.9293  0.8510
  313MOL0     H41299   2.889   5.634   7.161  0.9584  1.4756 -1.4802
  313MOL0     H41300   2.946   5.627   7.594 -1.6710 -2.7430 -3.4552
  313MOL0     H41301   2.882   5.714   7.820 -1.4167  1.4232 -0.7788
  313MOL0     H41302   4.193   5.866   7.873 -0.3360  0.5676  1.1305
  313MOL0     H41303   4.390   5.709   7.896  0.5903  1.5694  1.1199
  313MOL0     H41304   4.771   5.565   7.739  2.2093 -0.1345 -0.3785
  313MOL0     H41305   4.948   5.432   7.816  0.5902  1.4868 -1.5480
  313MOL0     H41306   5.069   5.165   7.961 -3.0531 -1.3328  0.3318
  313MOL0     H41307   5.102   5.259   7.811 -3.3057  1.1145  0.0485
  313MOL0     H41308   5.092   4.956   7.826 -0.8080  0.8427  1.5524
  313MOL0     H41309   5.155   5.046   7.696  0.7364 -0.7900 -0.3121
  313MOL0     H41310   5.284   5.076   7.973 -0.1570  2.0621  0.1368
  313MOL0     H41311   5.359   5.114   7.820 -0.0828  0.7802  2.3876
  313MOL0     H41312   5.292   4.838   7.917 -0.9725  0.3025 -0.3042
  313MOL0     H41313   5.362   4.875   7.755  1.6743  0.3347 -0.0324
  313MOL0     H41314   5.699   4.842   7.996  0.8111  1.4217 -1.2493
  313MOL0     H41315   4.705   5.082   7.737  3.0796  0.2273  0.7380
  313MOL0     H41316   4.522   5.222   7.666 -0.2021 -1.3155  1.6133
  314MOL0     O41317  11.017   4.110   9.150 -0.3187  0.3735  0.4970
  314MOL0     C41318  10.977   4.225   9.126  0.1531  0.1353 -0.2760
  314MOL0     O41319  10.849   4.271   9.147  0.1702 -0.7140 -0.0086
  314MOL0     C41320  10.755   4.187   9.203 -0.4207 -0.1864  1.2356
  314MOL0     C41321  10.646   4.254   9.260 -0.5841 -0.1780 -0.9398
  314MOL0     C41322  10.532   4.192   9.315  1.0054 -0.5030  0.2677
  314MOL0     C41323  10.524   4.054   9.301  0.4054  0.8792  0.2307
  314MOL0     O41324  10.420   3.979   9.353 -0.1287 -0.2149  0.3909
  314MOL0     C41325  10.287   4.038   9.341 -0.6082  0.6044 -0.0445
  314MOL0     C41326  10.198   3.934   9.265  0.2959  0.6434 -0.1858
  314MOL0     C41327  10.049   3.966   9.286 -0.2598 -0.0901  0.0468
  314MOL0     C41328   9.964   3.888   9.193  0.6564  0.2902  0.0535
  314MOL0     C41329   9.822   3.943   9.176 -0.2166 -0.0765  0.5023
  314MOL0     C41330   9.811   4.068   9.093 -0.3873 -0.5990 -0.1235
  314MOL0     C41331   9.848   4.055   8.939  0.6657 -1.6582 -0.0594
  314MOL0     C41332   9.804   4.183   8.847  0.2878  1.2452 -0.5309
  314MOL0     N41333   9.657   4.189   8.848 -0.3652 -0.3557 -0.7601
  314MOL0     C41334   9.581   4.101   8.780  0.2321  0.1611 -0.4190
  314MOL0     C41335   9.453   4.141   8.800 -0.1826 -0.3752 -0.0984
  314MOL0     C41336   9.333   4.066   8.753 -0.0805 -0.4958 -0.0317
  314MOL0     C41337   9.206   4.112   8.817 -0.0923 -0.0770 -0.0537
  314MOL0     C41338   9.075   4.064   8.735 -0.1524  0.5644 -0.0659
  314MOL0     C41339   9.070   3.909   8.742  0.2654 -0.4073  0.0789
  314MOL0     O41340   8.949   3.868   8.676  0.3901  0.8600  0.5438
  314MOL0     C41341   8.826   3.872   8.740 -0.0232  0.1589 -0.5525
  314MOL0     C41342   8.719   3.842   8.658  0.1066 -0.3599  0.1293
  314MOL0     C41343   8.596   3.830   8.718 -0.1048 -0.9348 -0.3999
  314MOL0     C41344   8.565   3.863   8.851  1.3539 -0.6509 -0.0580
  314MOL0     C41345   8.429   3.875   8.910 -0.0518  0.4242  0.8480
  314MOL0     O41346   8.412   3.931   9.032  0.7572 -0.0336 -0.0768
  314MOL0     C41347   8.284   3.931   9.086  0.9888  0.3257 -0.0849
  314MOL0     C41348   8.246   4.034   9.172 -0.5347 -0.1636 -0.4106
  314MOL0     C41349   8.115   4.037   9.222 -0.6808 -0.5123  0.3049
  314MOL0     C41350   8.027   3.934   9.190 -0.5200  0.5188  0.3987
  314MOL0     O41351   7.898   3.924   9.238 -0.8262  0.2401  0.2075
  314MOL0     C41352   7.860   4.030   9.330  1.3934  0.0660  0.3887
  314MOL0     C41353   7.710   4.003   9.360  1.1022  0.0174 -0.5918
  314MOL0     C41354   7.623   4.058   9.249 -0.1601  0.4546  0.4191
  314MOL0     C41355   7.482   3.998   9.269  0.3948  0.0280  0.0628
  314MOL0     C41356   7.377   4.071   9.194  0.7092  0.5979  1.4488
  314MOL0     C41357   7.251   3.984   9.172  0.1510  0.9039  0.0260
  314MOL0     C41358   7.184   3.929   9.301  0.2487  0.2221  1.0673
  314MOL0     C41359   7.037   3.925   9.290  0.9633  0.0959 -0.5626
  314MOL0    Cl41360   6.986   3.818   9.150  0.1631  0.0070 -0.1035
  314MOL0     C41361   8.070   3.827   9.114 -0.1618 -0.6026 -0.5748
  314MOL0     C41362   8.201   3.823   9.070 -0.2957 -0.3682 -0.6617
  314MOL0     O41363   8.339   3.863   8.824 -0.2186  0.2361  0.8270
  314MOL0     C41364   8.671   3.903   8.934 -0.1664 -0.0625  0.6257
  314MOL0     C41365   8.804   3.910   8.872  0.1418  0.1437 -0.5361
  314MOL0     N41366   9.453   4.259   8.874  0.5299 -0.2970  0.4541
  314MOL0     N41367   9.573   4.284   8.900 -0.7928 -1.0286  0.3223
  314MOL0     C41368  10.625   3.991   9.232 -0.2819 -0.2913  0.1978
  314MOL0     C41369  10.742   4.050   9.187  0.2896  0.2677 -0.4141
  314MOL0     C41370  11.064   4.313   9.045 -0.6841  0.1623  0.2704
  314MOL0     C41371  11.187   4.257   8.995  0.2318  0.3765 -1.0310
  314MOL0     C41372  11.272   4.338   8.919  0.5316  0.7324  0.0624
  314MOL0     C41373  11.250   4.478   8.905 -0.0985  0.2660 -0.0399
  314MOL0     O41374  11.356   4.554   8.851  0.2065 -0.6326  0.1511
  314MOL0     C41375  11.374   4.691   8.899 -0.9597  0.7040  0.3683
  314MOL0     C41376  11.388   4.786   8.773 -0.3559  0.6254 -0.0789
  314MOL0     C41377  11.499   4.746   8.680  0.4855  0.2780  0.3507
  314MOL0     C41378  11.504   4.858   8.568 -0.8255  0.7669  0.6660
  314MOL0     C41379  11.624   4.822   8.485 -0.1020  0.2608  0.1078
  314MOL0     C41380  11.730   4.790   8.436 -0.7360 -0.3506 -0.6828
  314MOL0     C41381  11.124   4.520   8.934 -0.1502 -0.0857  0.7983
  314MOL0     C41382  11.032   4.443   9.006 -0.2413 -0.4834  0.6386
  314MOL0     H41383  10.632   4.362   9.253  0.2861 -0.0339 -0.5528
  314MOL0     H41384  10.447   4.245   9.358 -2.1325 -3.0918 -2.2020
  314MOL0     H41385  10.292   4.130   9.283 -0.0914 -0.0387 -1.0550
  314MOL0     H41386  10.253   4.051   9.444 -0.6377  0.4870 -0.0401
  314MOL0     H41387  10.204   3.841   9.322  0.1541  2.1414  2.4512
  314MOL0     H41388  10.232   3.921   9.162  1.8214 -0.2176  0.4065
  314MOL0     H41389  10.035   4.073   9.267  2.1001  0.0746 -1.0221
  314MOL0     H41390  10.024   3.944   9.391 -1.3890  0.4490 -0.0932
  314MOL0     H41391  10.015   3.868   9.098  1.5952 -0.5418  0.7093
  314MOL0     H41392   9.954   3.796   9.251  0.5255  0.3368  0.1056
  314MOL0     H41393   9.785   3.972   9.275 -1.4776 -0.4657  0.1616
  314MOL0     H41394   9.752   3.870   9.135 -0.5507 -0.6100  1.9593
  314MOL0     H41395   9.870   4.145   9.143 -0.9653 -1.8721  2.7087
  314MOL0     H41396   9.706   4.099   9.095  0.1255  1.2561  0.6097
  314MOL0     H41397   9.956   4.040   8.938  1.0212  0.2077  2.1112
  314MOL0     H41398   9.804   3.962   8.901 -0.9463 -1.3592  0.9775
  314MOL0     H41399   9.825   4.166   8.741 -3.1324  1.9271 -1.4287
  314MOL0     H41400   9.857   4.270   8.885  0.6380  1.8138 -2.2371
  314MOL0     H41401   9.601   4.012   8.720 -0.6090 -0.8139  0.7070
  314MOL0     H41402   9.345   3.959   8.772 -1.5569 -0.4669  1.2927
  314MOL0     H41403   9.332   4.085   8.645 -0.8159  0.3465  0.1198
  314MOL0     H41404   9.212   4.220   8.829  0.6257 -0.3341  2.1698
  314MOL0     H41405   9.205   4.073   8.919  2.4540  0.9277  0.4115
  314MOL0     H41406   8.995   4.118   8.786 -1.3226 -0.1948 -1.0389
  314MOL0     H41407   9.092   4.096   8.632  1.4521 -1.0312 -0.3500
  314MOL0     H41408   9.072   3.872   8.845  2.4218 -1.2725 -0.2237
  314MOL0     H41409   9.149   3.854   8.691  0.3547 -1.0459  0.8935
  314MOL0     H41410   8.740   3.795   8.563 -1.1763 -0.5444 -0.0713
  314MOL0     H41411   8.520   3.797   8.648  0.1327 -0.0327 -1.1113
  314MOL0     H41412   8.330   4.099   9.194  0.0613 -0.8642 -0.5670
  314MOL0     H41413   8.085   4.117   9.290 -1.5480 -1.1017  0.6288
  314MOL0     H41414   7.871   4.124   9.275 -0.4316  0.0453 -0.0884
  314MOL0     H41415   7.921   4.034   9.420  2.1426 -3.9861  0.2669
  314MOL0     H41416   7.678   4.053   9.452 -2.2603 -0.3979 -1.3969
  314MOL0     H41417   7.683   3.898   9.369 -0.1754 -0.1535 -4.3451
  314MOL0     H41418   7.663   4.038   9.149  3.0498  1.5892  1.3629
  314MOL0     H41419   7.611   4.167   9.254 -0.1761  0.5559 -1.1316
  314MOL0     H41420   7.478   3.893   9.239 -0.2161 -0.0043  0.2445
  314MOL0     H41421   7.451   4.003   9.373  0.5768 -2.8561  0.3212
  314MOL0     H41422   7.407   4.111   9.097  0.8357 -3.4208 -0.3479
  314MOL0     H41423   7.345   4.159   9.252 -4.8745  0.7995 -1.2479
  314MOL0     H41424   7.277   3.908   9.097  1.3085  3.4143 -2.2924
  314MOL0     H41425   7.175   4.049   9.128 -2.3831  0.6530  3.5827
  314MOL0     H41426   7.215   3.825   9.310 -1.1147 -0.0661  2.7281
  314MOL0     H41427   7.212   3.986   9.390  0.3400  0.7094  0.7357
  314MOL0     H41428   6.987   4.022   9.279  0.9782  0.0060 -1.5296
  314MOL0     H41429   7.007   3.883   9.387  0.8202  3.3468  0.9529
  314MOL0     H41430   8.005   3.746   9.080  1.8381 -1.5961 -2.2281
  314MOL0     H41431   8.234   3.738   9.010 -0.3053  0.1613 -1.4263
  314MOL0     H41432   8.649   3.937   9.035 -1.5399 -1.7561  0.9346
  314MOL0     H41433   8.886   3.939   8.937 -1.3483  0.8090  1.1022
  314MOL0     H41434  10.617   3.887   9.203  1.8739 -1.1652  2.3590
  314MOL0     H41435  10.817   3.994   9.132  1.5727  0.6127  0.9235
  314MOL0     H41436  11.221   4.159   9.027  0.6274  0.9071  0.2309
  314MOL0     H41437  11.371   4.303   8.892  0.7471  0.1904  1.5070
  314MOL0     H41438  11.461   4.707   8.962 -1.4854  1.8991  0.8245
  314MOL0     H41439  11.297   4.712   8.974  0.3698 -2.2191  2.7653
  314MOL0     H41440  11.294   4.787   8.717 -2.1496 -3.6191  2.4022
  314MOL0     H41441  11.405   4.883   8.822 -0.0549  0.1304  0.8343
  314MOL0     H41442  11.477   4.647   8.641  3.9859 -0.6832  0.5161
  314MOL0     H41443  11.595   4.736   8.732  1.2167 -3.6111 -1.4458
  314MOL0     H41444  11.414   4.850   8.507 -3.3811  0.4494  4.2144
  314MOL0     H41445  11.519   4.964   8.590  1.8016  0.5780  0.1393
  314MOL0     H41446  11.823   4.759   8.392 -0.0842 -0.7053  0.8572
  314MOL0     H41447  11.092   4.622   8.916  1.4020  0.6171  1.7115
  314MOL0     H41448  10.935   4.481   9.038 -1.5351 -3.2047  0.2978
  315MOL0     O41449   7.222   1.079   1.045  0.5096  0.5811 -0.0690
  315MOL0     C41450   7.292   1.159   1.103 -0.3975  0.0956  0.9192
  315MOL0     O41451   7.245   1.271   1.166  0.1362  0.1162  0.2464
  315MOL0     C41452   7.111   1.267   1.193 -0.7712  0.5378 -0.7994
  315MOL0     C41453   7.070   1.227   1.320  0.5954 -0.4920 -0.5906
  315MOL0     C41454   6.931   1.238   1.349 -0.3915 -0.8709  0.0633
  315MOL0     C41455   6.840   1.287   1.264  0.0813 -0.4931  0.6924
  315MOL0     O41456   6.705   1.298   1.282  0.0823 -0.6764 -0.8091
  315MOL0     C41457   6.656   1.288   1.420 -0.4720  0.6909  0.1276
  315MOL0     C41458   6.514   1.342   1.426 -0.3752  0.9160  0.1917
  315MOL0     C41459   6.414   1.264   1.335  0.3648  0.6026 -0.0811
  315MOL0     C41460   6.280   1.335   1.346 -0.4402  0.2828  0.3015
  315MOL0     C41461   6.174   1.238   1.288  0.5474 -0.6548  0.6191
  315MOL0     C41462   6.043   1.318   1.273 -0.4083 -0.7894 -0.8014
  315MOL0     C41463   5.992   1.385   1.396  1.2118 -0.2579 -1.0414
  315MOL0     C41464   5.968   1.272   1.508  0.3894  0.5858  0.2724
  315MOL0     N41465   5.847   1.290   1.593  0.3845 -0.1175  0.6338
  315MOL0     C41466   5.806   1.412   1.647  1.0048  0.5103 -0.6343
  315MOL0     C41467   5.684   1.384   1.709  0.5114  0.0511 -0.7746
  315MOL0     C41468   5.595   1.486   1.771 -0.5028 -0.5803  0.1758
  315MOL0     C41469   5.448   1.466   1.745  0.2665  0.1003  0.6691
  315MOL0     C41470   5.388   1.549   1.629  0.0357 -0.9034 -1.5230
  315MOL0     C41471   5.243   1.529   1.627  0.6797  0.4813  0.8054
  315MOL0     O41472   5.177   1.582   1.736  0.1597 -0.3331 -0.3573
  315MOL0     C41473   5.048   1.628   1.698  0.7399 -0.0732  0.2793
  315MOL0     C41474   5.022   1.730   1.604  0.6792 -0.6704  0.9912
  315MOL0     C41475   4.892   1.779   1.581  0.1335  0.3298  0.5147
  315MOL0     C41476   4.781   1.734   1.656 -0.2811  0.3972 -0.0805
  315MOL0     C41477   4.642   1.782   1.642  0.5593 -0.0387 -0.1824
  315MOL0     O41478   4.547   1.748   1.741  0.2365  0.3234 -0.1527
  315MOL0     C41479   4.419   1.795   1.715 -0.3501  0.8743  0.8399
  315MOL0     C41480   4.390   1.929   1.718 -0.8601 -0.5127  1.2243
  315MOL0     C41481   4.259   1.977   1.698  0.3956 -0.0508  0.2428
  315MOL0     C41482   4.160   1.888   1.662  0.3030 -0.2654  0.6327
  315MOL0     O41483   4.037   1.949   1.637  0.4601  0.5532 -0.3402
  315MOL0     C41484   3.920   1.865   1.621  0.6128  0.6010  0.1892
  315MOL0     C41485   3.786   1.951   1.599  0.1987 -0.5779  0.3765
  315MOL0     C41486   3.656   1.872   1.587 -0.5039  0.1803 -0.4110
  315MOL0     C41487   3.542   1.973   1.565 -0.4317 -0.0309  0.0683
  315MOL0     C41488   3.412   1.907   1.544 -0.8822 -0.0284 -0.9568
  315MOL0     C41489   3.288   2.008   1.530 -0.8172 -0.6369 -0.0131
  315MOL0     C41490   3.306   2.140   1.616  0.4970 -0.4000 -0.3630
  315MOL0     C41491   3.303   2.138   1.767  0.1969 -0.1204  0.1315
  315MOL0    Cl41492   3.152   2.058   1.807 -0.2604  0.0438  0.0955
  315MOL0     C41493   4.194   1.749   1.652 -0.0356 -0.1853 -0.5814
  315MOL0     C41494   4.324   1.703   1.680  0.0190 -0.2840  0.6874
  315MOL0     O41495   4.622   1.842   1.534  0.3245 -0.3662 -0.1364
  315MOL0     C41496   4.806   1.631   1.749  0.5992  0.0474  0.2039
  315MOL0     C41497   4.932   1.580   1.758  0.4045 -0.2463  0.7347
  315MOL0     N41498   5.659   1.249   1.696  0.0472 -0.4796 -0.1999
  315MOL0     N41499   5.758   1.193   1.631  0.4828 -0.1698  0.1649
  315MOL0     C41500   6.884   1.337   1.141 -0.1466  0.5822  0.0758
  315MOL0     C41501   7.019   1.318   1.103 -0.4744 -0.0888 -0.1873
  315MOL0     C41502   7.439   1.159   1.075  0.4089 -0.0980 -0.0657
  315MOL0     C41503   7.499   1.083   0.965 -0.4987  0.0253 -0.4387
  315MOL0     C41504   7.637   1.091   0.950 -0.3526  0.3806  0.6007
  315MOL0     C41505   7.713   1.178   1.028 -0.5475 -0.4225 -0.1941
  315MOL0     O41506   7.853   1.195   1.026 -0.0253 -0.5499  0.5992
  315MOL0     C41507   7.906   1.090   0.952 -0.5843 -0.7054  0.3964
  315MOL0     C41508   8.053   1.099   0.965  0.5036 -0.8767 -0.2999
  315MOL0     C41509   8.110   0.973   0.908  0.0741  0.2729  0.3791
  315MOL0     C41510   8.222   1.030   0.826 -0.3147 -0.0941  0.0600
  315MOL0     C41511   8.297   0.918   0.773  0.1184  0.0487  0.1853
  315MOL0     C41512   8.342   0.819   0.712 -0.4366  0.4758  0.2512
  315MOL0     C41513   7.648   1.246   1.130 -0.1235 -0.1306  0.5239
  315MOL0     C41514   7.512   1.238   1.163  0.0941 -0.6502 -0.2432
  315MOL0     H41515   7.124   1.197   1.409 -2.1645 -0.2316  1.3063
  315MOL0     H41516   6.900   1.200   1.445 -1.8086  1.1502  0.4654
  315MOL0     H41517   6.717   1.337   1.495  0.0980  3.8620 -2.2066
  315MOL0     H41518   6.656   1.181   1.444 -1.4943  0.4759 -0.7359
  315MOL0     H41519   6.511   1.449   1.403  0.4531  0.9105  0.0359
  315MOL0     H41520   6.480   1.327   1.529 -0.7899 -1.3980 -0.2118
  315MOL0     H41521   6.422   1.164   1.378  0.2088  0.6440  0.0450
  315MOL0     H41522   6.434   1.259   1.228  2.1634  1.3939  0.1820
  315MOL0     H41523   6.258   1.366   1.449 -4.0866  0.6415 -0.4524
  315MOL0     H41524   6.289   1.424   1.283 -0.5250 -0.5947 -0.9795
  315MOL0     H41525   6.155   1.145   1.342  1.1454 -2.4379 -2.0394
  315MOL0     H41526   6.207   1.203   1.190  1.1862  0.3732  0.4437
  315MOL0     H41527   5.973   1.239   1.243  2.2805 -4.3536  1.4663
  315MOL0     H41528   6.058   1.392   1.194 -0.6036 -1.1952 -1.2287
  315MOL0     H41529   6.053   1.464   1.440  2.5437 -2.5088  1.4646
  315MOL0     H41530   5.893   1.423   1.368  0.3022 -1.8074 -0.0939
  315MOL0     H41531   6.055   1.270   1.574 -1.4580  0.3407  2.8491
  315MOL0     H41532   5.961   1.176   1.455  2.6005 -0.0943  1.1092
  315MOL0     H41533   5.852   1.509   1.637  4.3344 -0.6981  1.1844
  315MOL0     H41534   5.631   1.582   1.735  0.7888 -1.8142 -2.0302
  315MOL0     H41535   5.608   1.481   1.880  0.8254 -0.6329  0.0319
  315MOL0     H41536   5.404   1.499   1.840  0.8876  2.8795  0.0776
  315MOL0     H41537   5.423   1.362   1.724 -1.9070  0.6921  0.1137
  315MOL0     H41538   5.400   1.655   1.654  1.8334 -1.5339  0.6572
  315MOL0     H41539   5.435   1.530   1.532  1.9544  2.1668 -1.3359
  315MOL0     H41540   5.225   1.421   1.626  0.8302  0.4357  2.0895
  315MOL0     H41541   5.215   1.578   1.532  0.5292 -0.0100  0.5944
  315MOL0     H41542   5.101   1.774   1.543 -1.7325  0.8316 -1.2265
  315MOL0     H41543   4.877   1.849   1.499  0.0326 -1.2512 -0.8686
  315MOL0     H41544   4.477   1.990   1.737 -0.1898 -0.9006 -0.4320
  315MOL0     H41545   4.238   2.084   1.701 -0.6811 -0.2524 -0.0023
  315MOL0     H41546   3.905   1.800   1.708 -0.2884 -0.4625 -0.7283
  315MOL0     H41547   3.935   1.805   1.531 -0.6600 -0.6371  0.7553
  315MOL0     H41548   3.800   2.011   1.508 -1.6299 -2.2536 -1.0919
  315MOL0     H41549   3.767   2.005   1.693 -0.9683 -2.4849  1.2829
  315MOL0     H41550   3.635   1.818   1.680  0.1429 -1.2182 -1.0529
  315MOL0     H41551   3.667   1.796   1.510  0.8292  0.2422 -0.3056
  315MOL0     H41552   3.533   2.042   1.650  0.5429  0.9301 -0.5792
  315MOL0     H41553   3.553   2.030   1.472 -0.0702 -0.3281 -0.0702
  315MOL0     H41554   3.389   1.852   1.635 -1.1107  0.8558 -0.4657
  315MOL0     H41555   3.415   1.835   1.461 -0.8920  0.4383 -1.3709
  315MOL0     H41556   3.197   1.956   1.561 -0.1796 -0.4321  2.4232
  315MOL0     H41557   3.271   2.049   1.430 -0.7360  3.0250  1.3004
  315MOL0     H41558   3.392   2.198   1.582 -0.0831  0.2975 -0.6734
  315MOL0     H41559   3.228   2.209   1.580  0.2853 -0.1546  0.5528
  315MOL0     H41560   3.311   2.238   1.812 -1.6170 -0.3167  0.9914
  315MOL0     H41561   3.386   2.076   1.802  0.4383 -1.3879 -2.4341
  315MOL0     H41562   4.120   1.673   1.630  0.4072 -0.1532 -2.3413
  315MOL0     H41563   4.356   1.602   1.661 -2.7057 -0.8736 -1.3710
  315MOL0     H41564   4.726   1.583   1.805 -2.6629  1.4912 -2.8053
  315MOL0     H41565   4.943   1.496   1.827  0.1235 -2.0773 -1.3537
  315MOL0     H41566   6.815   1.366   1.062 -1.2492 -4.3287 -1.0997
  315MOL0     H41567   7.066   1.361   1.015  5.0599  0.2001  2.4326
  315MOL0     H41568   7.442   1.028   0.890  0.7162  0.0042 -1.3867
  315MOL0     H41569   7.678   1.026   0.873  1.7731  0.3276  1.6877
  315MOL0     H41570   7.888   1.093   0.844  1.8108 -1.7763 -0.1055
  315MOL0     H41571   7.878   0.991   0.991  1.9966 -0.8139  2.2695
  315MOL0     H41572   8.083   1.197   0.924 -1.0268  0.4205  1.5034
  315MOL0     H41573   8.068   1.096   1.073  0.1363 -1.0884 -0.2552
  315MOL0     H41574   8.047   0.915   0.839  0.8570  0.7988 -0.7985
  315MOL0     H41575   8.147   0.904   0.985  0.0256  0.7788  0.8590
  315MOL0     H41576   8.191   1.085   0.737  0.0630 -2.0628 -1.3271
  315MOL0     H41577   8.292   1.086   0.889  1.3582 -0.0183 -1.7700
  315MOL0     H41578   8.379   0.738   0.653 -1.2310  1.6355 -1.9439
  315MOL0     H41579   7.709   1.308   1.194  0.5128 -0.5354  0.3257
  315MOL0     H41580   7.473   1.309   1.235 -1.6714 -0.2685 -1.4977
  316MOL0     O41581   9.860   4.422   3.331 -0.1348 -0.0841 -0.3351
  316MOL0     C41582   9.918   4.355   3.416 -0.4786 -0.5914 -0.0227
  316MOL0     O41583   9.864   4.249   3.491  0.2206  0.3674  0.0590
  316MOL0     C41584   9.725   4.226   3.494  0.1222 -0.2169 -0.0841
  316MOL0     C41585   9.684   4.094   3.518 -0.6271  0.4990 -0.8793
  316MOL0     C41586   9.561   4.045   3.512  0.4389  0.7314 -0.1402
  316MOL0     C41587   9.456   4.133   3.477 -0.3145 -1.2113  0.4500
  316MOL0     O41588   9.322   4.096   3.473  0.1471 -0.3785 -0.2535
  316MOL0     C41589   9.283   3.966   3.493  0.1027 -0.0694 -0.4595
  316MOL0     C41590   9.132   3.966   3.462  0.5157 -0.4687  0.5129
  316MOL0     C41591   9.073   3.826   3.461 -0.0009 -0.0119  0.3310
  316MOL0     C41592   8.932   3.823   3.399  0.2484 -1.1168  0.0876
  316MOL0     C41593   8.879   3.687   3.353  0.0330  0.0984 -0.1628
  316MOL0     C41594   8.849   3.588   3.459 -0.6311  0.5452 -0.3724
  316MOL0     C41595   8.803   3.462   3.389 -0.0883 -1.0879 -0.4559
  316MOL0     C41596   8.804   3.340   3.489 -0.4206 -0.3798  0.4838
  316MOL0     N41597   8.672   3.353   3.550 -0.5847  0.1874  0.2771
  316MOL0     C41598   8.559   3.307   3.491 -0.0523  1.0074  0.1255
  316MOL0     C41599   8.456   3.316   3.571 -0.4379  0.2684 -0.0951
  316MOL0     C41600   8.306   3.275   3.555 -0.5831  0.3010  0.5904
  316MOL0     C41601   8.208   3.394   3.578 -0.8598 -0.0740 -0.7688
  316MOL0     C41602   8.067   3.329   3.560  0.0500 -0.2205  0.1765
  316MOL0     C41603   7.957   3.433   3.585 -0.6500  0.3556 -0.0830
  316MOL0     O41604   7.829   3.364   3.549 -0.3570 -1.0643 -0.5472
  316MOL0     C41605   7.709   3.422   3.580  0.9224  0.4252  0.9572
  316MOL0     C41606   7.684   3.548   3.639 -0.5446  0.4960  0.2661
  316MOL0     C41607   7.552   3.584   3.672 -0.3087 -0.0017 -0.1041
  316MOL0     C41608   7.438   3.508   3.643 -0.2503  0.1795  0.1254
  316MOL0     C41609   7.292   3.541   3.688 -0.6149  0.0829  0.3168
  316MOL0     O41610   7.196   3.487   3.611  0.4671 -0.6078 -0.2717
  316MOL0     C41611   7.062   3.523   3.643 -0.5169 -0.4716  0.1392
  316MOL0     C41612   6.995   3.580   3.538  0.8104 -0.1503  0.0842
  316MOL0     C41613   6.859   3.625   3.544 -1.0808  0.9926 -0.1235
  316MOL0     C41614   6.795   3.603   3.665  0.3477 -0.1247 -0.5283
  316MOL0     O41615   6.661   3.631   3.682  0.0478  0.0543  0.4788
  316MOL0     C41616   6.639   3.750   3.761  0.2565 -0.7122  0.1660
  316MOL0     C41617   6.496   3.755   3.817  0.6958  0.0721 -0.3574
  316MOL0     C41618   6.383   3.801   3.723  0.6081  0.1576 -0.1578
  316MOL0     C41619   6.238   3.774   3.782  1.3312  0.4070  0.0977
  316MOL0     C41620   6.122   3.815   3.693 -0.1661 -0.3580  0.6352
  316MOL0     C41621   6.125   3.954   3.628 -0.3913 -0.5941  0.5648
  316MOL0     C41622   6.111   4.068   3.727  0.3828 -0.2088 -0.7059
  316MOL0     C41623   5.982   4.081   3.784 -0.8540 -0.5700  0.1947
  316MOL0    Cl41624   5.968   4.217   3.905  0.2398 -0.0378 -0.1481
  316MOL0     C41625   6.859   3.534   3.771  0.2633  0.4853 -0.1822
  316MOL0     C41626   6.999   3.502   3.764  1.1310  0.4440 -0.2639
  316MOL0     O41627   7.280   3.621   3.779  0.4106 -0.4643  0.3882
  316MOL0     C41628   7.466   3.385   3.578  0.1554 -0.0767 -0.6746
  316MOL0     C41629   7.597   3.339   3.550  0.3853 -0.5042 -1.0346
  316MOL0     N41630   8.506   3.392   3.673 -0.3604  0.4527  0.6142
  316MOL0     N41631   8.626   3.422   3.657  0.1453  0.2584  0.2162
  316MOL0     C41632   9.490   4.268   3.456  0.6688 -0.5547  0.6473
  316MOL0     C41633   9.622   4.314   3.463 -0.4044  0.5153  0.4979
  316MOL0     C41634  10.060   4.380   3.435  0.5164 -1.2300 -0.1213
  316MOL0     C41635  10.122   4.306   3.535 -0.1807 -0.0611 -1.1155
  316MOL0     C41636  10.263   4.322   3.561  0.0476 -0.6355  0.1363
  316MOL0     C41637  10.336   4.427   3.490 -0.6877  0.4340 -0.5632
  316MOL0     O41638  10.467   4.443   3.524  0.7413 -0.3443  0.4977
  316MOL0     C41639  10.553   4.483   3.425  0.4284 -0.4891  0.7474
  316MOL0     C41640  10.705   4.461   3.456  0.1839 -0.4220  0.2816
  316MOL0     C41641  10.794   4.534   3.347  0.2713 -0.7350  0.3688
  316MOL0     C41642  10.944   4.493   3.372  0.6388 -0.5746 -0.0805
  316MOL0     C41643  11.044   4.596   3.332  0.3206  1.1484  0.5730
  316MOL0     C41644  11.134   4.665   3.287  0.0872 -0.5435 -0.0540
  316MOL0     C41645  10.265   4.491   3.390  0.3526  0.1395 -0.3269
  316MOL0     C41646  10.134   4.465   3.358  0.2251  0.6732  0.0602
  316MOL0     H41647   9.764   4.032   3.559 -2.4882  0.1773  2.6412
  316MOL0     H41648   9.537   3.943   3.538 -1.4857  0.7416 -1.6690
  316MOL0     H41649   9.308   3.927   3.592  0.9705 -2.8325 -1.6599
  316MOL0     H41650   9.333   3.899   3.423 -0.0086  0.3937 -0.9832
  316MOL0     H41651   9.110   4.012   3.365 -1.7804 -0.2625  1.0823
  316MOL0     H41652   9.087   4.032   3.536 -0.7012 -0.4551 -0.2040
  316MOL0     H41653   9.055   3.807   3.568 -2.2686  2.1358  0.4315
  316MOL0     H41654   9.134   3.759   3.400 -1.3205 -1.3499  0.3921
  316MOL0     H41655   8.857   3.861   3.469 -0.8323  0.3238 -1.7660
  316MOL0     H41656   8.941   3.884   3.309  0.9831 -1.3081  0.0258
  316MOL0     H41657   8.955   3.648   3.284 -0.4524  0.0457 -0.6759
  316MOL0     H41658   8.789   3.697   3.292  1.8573  1.8529 -2.8084
  316MOL0     H41659   8.770   3.624   3.526  0.1195  3.2959 -0.8475
  316MOL0     H41660   8.943   3.575   3.512 -0.8192  0.7158  0.0126
  316MOL0     H41661   8.705   3.477   3.344 -0.7739  0.1795  1.3690
  316MOL0     H41662   8.876   3.432   3.312  1.2750 -3.3470  1.5825
  316MOL0     H41663   8.889   3.347   3.557 -1.1984  1.6235  1.3448
  316MOL0     H41664   8.793   3.244   3.437 -1.7657  0.9124 -1.8047
  316MOL0     H41665   8.536   3.272   3.390 -1.1947  1.8788  0.0657
  316MOL0     H41666   8.272   3.206   3.633 -0.2708  1.8423  2.1747
  316MOL0     H41667   8.292   3.225   3.459  0.1598  0.7754  0.2264
  316MOL0     H41668   8.219   3.476   3.506  2.7673  1.2117  1.0303
  316MOL0     H41669   8.206   3.424   3.683 -1.9257 -0.9327 -0.5283
  316MOL0     H41670   8.060   3.288   3.458  0.9984  0.0772 -0.0150
  316MOL0     H41671   8.057   3.252   3.636 -2.0595 -0.8291 -0.6315
  316MOL0     H41672   7.967   3.527   3.530  0.3586  0.2440 -0.0981
  316MOL0     H41673   7.958   3.455   3.692 -2.5353 -1.7149  0.4559
  316MOL0     H41674   7.776   3.602   3.659  0.1491 -1.8267  4.2359
  316MOL0     H41675   7.532   3.660   3.747  2.4011  1.4644 -0.7264
  316MOL0     H41676   7.051   3.601   3.447 -1.1568  2.3684 -0.6359
  316MOL0     H41677   6.803   3.660   3.457 -0.0345  0.7564 -0.9075
  316MOL0     H41678   6.650   3.840   3.701  0.0790 -2.0460 -1.9965
  316MOL0     H41679   6.700   3.742   3.851 -0.1481 -3.3504  0.2951
  316MOL0     H41680   6.501   3.835   3.891 -0.5281 -0.7527  0.6591
  316MOL0     H41681   6.477   3.661   3.869  0.1987 -0.0195 -0.6947
  316MOL0     H41682   6.402   3.748   3.629  1.1107  0.5337 -0.2705
  316MOL0     H41683   6.389   3.909   3.706  0.3472  0.0332 -1.1572
  316MOL0     H41684   6.225   3.666   3.794  1.4021  0.3717 -0.1405
  316MOL0     H41685   6.210   3.824   3.875 -0.5786 -1.0100  0.3369
  316MOL0     H41686   6.028   3.797   3.748 -1.8214 -0.2100 -1.9778
  316MOL0     H41687   6.130   3.758   3.600 -1.4055  0.3577  0.0618
  316MOL0     H41688   6.055   3.975   3.546  0.8763  3.4506  0.3136
  316MOL0     H41689   6.223   3.967   3.582 -1.0905  1.5009 -0.4493
  316MOL0     H41690   6.174   4.057   3.816 -0.3389  1.3162  0.0344
  316MOL0     H41691   6.128   4.169   3.687  0.2716  0.5665  1.1320
  316MOL0     H41692   5.961   3.990   3.841 -0.7005 -1.7276 -1.5220
  316MOL0     H41693   5.914   4.094   3.699  1.1736  1.7803 -1.1873
  316MOL0     H41694   6.819   3.527   3.872  2.6625  4.6216  1.2941
  316MOL0     H41695   7.049   3.469   3.854 -1.9656  2.9502  2.6274
  316MOL0     H41696   7.383   3.317   3.561 -0.0795 -0.2014  0.8628
  316MOL0     H41697   7.606   3.247   3.494  1.1766 -2.2779  1.8084
  316MOL0     H41698   9.404   4.329   3.430  0.0654 -1.3348  0.7804
  316MOL0     H41699   9.644   4.417   3.438 -0.5745  0.6085  0.7252
  316MOL0     H41700  10.075   4.236   3.603 -0.6868  0.0058 -1.3915
  316MOL0     H41701  10.316   4.271   3.641  0.8861 -0.6313 -0.4128
  316MOL0     H41702  10.539   4.590   3.403  0.6526 -0.5840  0.1387
  316MOL0     H41703  10.544   4.431   3.330  4.0785  1.5078 -0.9054
  316MOL0     H41704  10.720   4.502   3.557 -0.8550  0.1737  0.1968
  316MOL0     H41705  10.728   4.354   3.454  0.9432 -0.2504 -1.4003
  316MOL0     H41706  10.773   4.641   3.354  0.0429 -0.7838  0.4413
  316MOL0     H41707  10.760   4.500   3.249  0.5268 -0.8546  0.3222
  316MOL0     H41708  10.951   4.478   3.480 -2.2888 -0.3611  0.2212
  316MOL0     H41709  10.957   4.395   3.325  0.6058 -1.4664  1.6718
  316MOL0     H41710  11.204   4.720   3.229  1.4586 -2.5805 -0.4320
  316MOL0     H41711  10.310   4.578   3.345  0.7163  0.0743 -0.0891
  316MOL0     H41712  10.086   4.523   3.279 -1.9349  0.3109  1.0470
  317MOL0     O41713   9.676   9.205  10.673 -0.0905  0.3637  0.2844
  317MOL0     C41714   9.686   9.325  10.654 -0.7719 -0.2496  0.1830
  317MOL0     O41715   9.790   9.394  10.691 -0.1670 -0.2682  0.3445
  317MOL0     C41716   9.909   9.333  10.724 -0.1260 -0.1832 -0.3907
  317MOL0     C41717   9.986   9.381  10.826 -0.2790  0.1554 -0.0155
  317MOL0     C41718  10.104   9.312  10.859 -0.4261  0.1110 -1.0124
  317MOL0     C41719  10.156   9.207  10.786  1.1664 -0.0496 -0.4775
  317MOL0     O41720  10.271   9.145  10.833  0.2219 -0.3708 -0.1098
  317MOL0     C41721  10.283   9.007  10.794  0.2345  1.0689  0.3646
  317MOL0     C41722  10.404   8.949  10.869  0.6637 -0.1200 -0.8467
  317MOL0     C41723  10.361   8.908  11.002 -0.2213 -0.0333 -0.8740
  317MOL0     C41724  10.375   8.757  11.024 -0.4950  0.6070  0.2146
  317MOL0     C41725  10.353   8.718  11.167 -0.2622  1.0844  1.0139
  317MOL0     C41726  10.371   8.567  11.171 -0.2346  0.2137 -1.2550
  317MOL0     C41727  10.358   8.514  11.318  0.1029 -0.6132  0.6041
  317MOL0     C41728  10.467   8.556  11.418 -0.8730  0.4714  0.3714
  317MOL0     N41729  10.467   8.476  11.542  0.1457 -0.0534 -0.3973
  317MOL0     C41730  10.437   8.336  11.554  0.2209  0.0344 -0.5734
  317MOL0     C41731  10.459   8.314  11.681 -0.3552 -0.4202 -0.0685
  317MOL0     C41732  10.437   8.179  11.752 -0.5106  0.8758 -0.2972
  317MOL0     C41733  10.295   8.188  11.812  0.5500  0.2826 -0.4828
  317MOL0     C41734  10.185   8.166  11.710  0.1151 -0.1317  0.5076
  317MOL0     C41735  10.041   8.189  11.770 -0.1765 -0.6595  0.1630
  317MOL0     O41736   9.947   8.180  11.664 -0.5107  0.0214 -0.1685
  317MOL0     C41737   9.809   8.159  11.684 -0.2282  1.4018  0.2407
  317MOL0     C41738   9.738   8.172  11.805  0.0965  0.2632  0.7303
  317MOL0     C41739   9.597   8.156  11.801 -0.5492  0.0183 -1.1418
  317MOL0     C41740   9.528   8.142  11.677  0.3846 -0.1807 -0.7300
  317MOL0     C41741   9.375   8.129  11.673  0.8798 -0.0871  0.0393
  317MOL0     O41742   9.323   8.116  11.550  0.0333 -0.5101 -0.3739
  317MOL0     C41743   9.191   8.088  11.528 -0.1127  0.8366 -0.2926
  317MOL0     C41744   9.163   8.009  11.421 -0.3603  0.1565  0.1970
  317MOL0     C41745   9.033   7.998  11.370 -0.2042 -0.1862  0.3698
  317MOL0     C41746   8.920   8.049  11.435  0.2813 -0.2945  0.0237
  317MOL0     O41747   8.797   8.013  11.380 -0.5724 -0.6108 -0.7882
  317MOL0     C41748   8.690   8.048  11.467 -0.4555  0.0383  0.3765
  317MOL0     C41749   8.579   7.953  11.446 -0.6671 -1.0736 -0.1252
  317MOL0     C41750   8.471   7.985  11.535  0.0390  0.3092  0.0174
  317MOL0     C41751   8.375   7.867  11.532  0.0281  0.3484  0.5116
  317MOL0     C41752   8.247   7.899  11.603 -0.5701 -0.4716  0.0153
  317MOL0     C41753   8.165   7.766  11.625 -0.1058 -0.5248 -0.1909
  317MOL0     C41754   8.024   7.781  11.685 -0.0270 -0.3148 -0.4929
  317MOL0     C41755   7.988   7.650  11.755  0.1454 -0.3434 -0.4962
  317MOL0    Cl41756   7.822   7.636  11.800  0.3892  0.0002 -0.3896
  317MOL0     C41757   8.956   8.126  11.545  0.8245  0.3818 -0.0597
  317MOL0     C41758   9.087   8.148  11.595 -0.2688  0.1988 -0.3312
  317MOL0     O41759   9.305   8.143  11.773  0.5293 -0.5786  0.1051
  317MOL0     C41760   9.598   8.130  11.558 -0.5632  0.9582  0.3356
  317MOL0     C41761   9.738   8.135  11.564  0.8131  0.0725  0.2718
  317MOL0     N41762  10.491   8.430  11.747  0.4210  0.4301  0.0378
  317MOL0     N41763  10.494   8.528  11.660 -0.4210 -0.3189  0.5426
  317MOL0     C41764  10.078   9.171  10.676  0.1207 -0.0261  0.2959
  317MOL0     C41765   9.961   9.235  10.642 -0.0241  0.1989 -0.3424
  317MOL0     C41766   9.568   9.398  10.594  0.4527  0.3841  0.5268
  317MOL0     C41767   9.447   9.330  10.575  1.0797 -0.4089 -0.5000
  317MOL0     C41768   9.344   9.397  10.517  0.1514  0.1743  0.7953
  317MOL0     C41769   9.355   9.535  10.502  0.1350  0.4230  0.0080
  317MOL0     O41770   9.241   9.601  10.465  0.1777 -1.0020 -0.2776
  317MOL0     C41771   9.246   9.743  10.484 -0.4245  0.4180  0.8428
  317MOL0     C41772   9.105   9.809  10.467  1.1748  0.1269  0.0275
  317MOL0     C41773   9.024   9.749  10.347 -0.2780 -0.4377 -0.4753
  317MOL0     C41774   8.953   9.620  10.383 -0.5865 -0.0198  0.8111
  317MOL0     C41775   8.845   9.594  10.285  0.0695 -0.9387  0.1347
  317MOL0     C41776   8.756   9.583  10.207 -0.1152  0.8738  0.1371
  317MOL0     C41777   9.474   9.601  10.521  0.1883  0.2744  0.2419
  317MOL0     C41778   9.584   9.532  10.561 -0.6730  0.6119  0.5869
  317MOL0     H41779   9.962   9.475  10.875 -1.3207  0.5175 -1.1842
  317MOL0     H41780  10.155   9.348  10.948 -1.4434 -0.8705 -0.0055
  317MOL0     H41781  10.288   9.000  10.685 -1.2726  3.2774  0.0915
  317MOL0     H41782  10.195   8.941  10.798 -0.1113  1.2638 -2.4079
  317MOL0     H41783  10.480   9.028  10.879  0.5595 -0.1433  0.3137
  317MOL0     H41784  10.446   8.867  10.811  0.6201  0.5620 -1.8630
  317MOL0     H41785  10.262   8.948  11.027 -0.3109 -0.0720 -1.1617
  317MOL0     H41786  10.428   8.949  11.078 -2.1019  0.1677  0.7397
  317MOL0     H41787  10.303   8.715  10.952 -0.4681 -2.3620  1.7545
  317MOL0     H41788  10.473   8.726  10.986  0.1251  3.2295 -0.5182
  317MOL0     H41789  10.263   8.755  11.218 -0.1575  4.8253 -1.1729
  317MOL0     H41790  10.434   8.772  11.216  0.8181  1.1054 -0.7103
  317MOL0     H41791  10.469   8.538  11.134  0.0441 -0.4216 -0.0632
  317MOL0     H41792  10.296   8.518  11.108  2.0868 -2.0187 -2.4599
  317MOL0     H41793  10.258   8.531  11.358  0.6822 -2.1947  2.9111
  317MOL0     H41794  10.370   8.407  11.296 -0.3525 -0.6461  0.4933
  317MOL0     H41795  10.452   8.662  11.438 -1.3849  0.7245 -1.2198
  317MOL0     H41796  10.565   8.546  11.370 -0.5571  0.7157  0.9486
  317MOL0     H41797  10.390   8.267  11.484 -0.5274  1.0498 -1.0984
  317MOL0     H41798  10.508   8.169  11.834 -1.3157  1.0181  0.4400
  317MOL0     H41799  10.450   8.087  11.694 -0.6292 -1.2279  2.7731
  317MOL0     H41800  10.284   8.282  11.866 -0.8569  1.2732 -2.3585
  317MOL0     H41801  10.307   8.109  11.886  2.9474 -0.2427 -1.3539
  317MOL0     H41802  10.210   8.224  11.621  2.0439 -2.1973 -0.3716
  317MOL0     H41803  10.190   8.062  11.679 -1.4036  0.3280 -1.5028
  317MOL0     H41804  10.020   8.279  11.828  0.6960 -1.0229  1.0762
  317MOL0     H41805  10.029   8.107  11.841 -2.0474 -1.4623 -0.9922
  317MOL0     H41806   9.794   8.199  11.894 -1.5775  0.2616  1.8268
  317MOL0     H41807   9.546   8.173  11.895  0.7700 -0.1716 -0.3631
  317MOL0     H41808   9.249   7.977  11.362 -1.5023  0.4423 -1.6888
  317MOL0     H41809   9.025   7.932  11.284 -0.6088 -4.2210  3.2493
  317MOL0     H41810   8.672   8.154  11.446  0.8575 -0.2926 -3.0141
  317MOL0     H41811   8.715   8.038  11.573 -3.5370 -2.9233  1.0129
  317MOL0     H41812   8.618   7.854  11.472 -0.1706 -1.6623 -2.8056
  317MOL0     H41813   8.545   7.961  11.343 -2.3003  1.0750  0.5203
  317MOL0     H41814   8.420   8.078  11.507  0.5428  1.5985  3.0617
  317MOL0     H41815   8.510   7.993  11.637  2.2192  0.3208 -0.7669
  317MOL0     H41816   8.341   7.845  11.430 -0.8680  0.4824  0.7737
  317MOL0     H41817   8.425   7.776  11.568  0.1013 -0.4640 -1.4874
  317MOL0     H41818   8.178   7.968  11.553  0.0807 -0.4036 -0.8109
  317MOL0     H41819   8.268   7.953  11.696  0.3492  0.6950 -0.8394
  317MOL0     H41820   8.222   7.706  11.697  0.0509  0.3329  0.4076
  317MOL0     H41821   8.163   7.715  11.528  1.3678 -1.1109  0.0561
  317MOL0     H41822   8.022   7.868  11.751  0.4740  0.4904 -1.5072
  317MOL0     H41823   7.954   7.802  11.603 -0.2879 -2.4916 -0.8819
  317MOL0     H41824   8.044   7.632  11.847  0.2076 -2.6947 -0.9294
  317MOL0     H41825   8.018   7.570  11.688  0.3295 -2.6706  2.1494
  317MOL0     H41826   8.871   8.178  11.590 -1.8892 -2.6185 -1.3217
  317MOL0     H41827   9.105   8.225  11.669  1.9465  0.9536 -1.5720
  317MOL0     H41828   9.554   8.109  11.461 -0.0772  1.2909  0.0415
  317MOL0     H41829   9.780   8.109  11.468 -3.2050 -2.0636 -1.1360
  317MOL0     H41830  10.117   9.108  10.596 -2.3214  1.2168 -2.0188
  317MOL0     H41831   9.908   9.213  10.550 -0.2803  0.0262 -0.1537
  317MOL0     H41832   9.431   9.225  10.599 -0.4447 -0.8262 -2.9686
  317MOL0     H41833   9.248   9.350  10.503 -0.5702  2.3231 -2.4434
  317MOL0     H41834   9.318   9.787  10.415  0.4943 -0.8126  0.9836
  317MOL0     H41835   9.280   9.751  10.588  0.8820 -1.8144  0.6631
  317MOL0     H41836   9.046   9.796  10.558  2.0340  1.9998  0.8991
  317MOL0     H41837   9.120   9.916  10.454  1.4729  0.6680  3.7201
  317MOL0     H41838   9.095   9.740  10.265  1.6899  1.0319  0.9824
  317MOL0     H41839   8.952   9.825  10.313  2.8276  4.0333  1.8403
  317MOL0     H41840   9.020   9.535  10.370 -1.1817 -0.2334 -1.1557
  317MOL0     H41841   8.924   9.623  10.488 -0.9276 -0.8820  0.7555
  317MOL0     H41842   8.674   9.570  10.139 -0.2134 -2.9762  0.7821
  317MOL0     H41843   9.485   9.709  10.511  1.4268  0.0217 -1.6193
  317MOL0     H41844   9.679   9.585  10.566 -0.4497  0.1115  1.9152
  318MOL0     O41845  10.522   5.531   9.524  0.6506 -0.3526  0.0378
  318MOL0     C41846  10.534   5.466   9.623 -0.3409  0.4013  0.2400
  318MOL0     O41847  10.440   5.381   9.669 -0.2823  0.3473  0.2730
  318MOL0     C41848  10.316   5.365   9.594 -0.2057 -0.0694 -0.0728
  318MOL0     C41849  10.193   5.424   9.636 -1.1550  0.7016 -0.2765
  318MOL0     C41850  10.078   5.404   9.561  0.7184 -0.0535  0.5378
  318MOL0     C41851  10.069   5.319   9.453  0.1678 -0.6915 -0.3286
  318MOL0     O41852   9.960   5.285   9.383  0.3714  0.1446  0.2376
  318MOL0     C41853   9.828   5.327   9.421  0.0904 -0.5210 -0.2390
  318MOL0     C41854   9.718   5.293   9.317 -0.1214 -0.7477  0.9706
  318MOL0     C41855   9.582   5.330   9.383 -0.4781  0.0981 -0.3483
  318MOL0     C41856   9.471   5.319   9.273  0.1065 -0.2216  0.0824
  318MOL0     C41857   9.333   5.373   9.315 -0.0953 -0.0422  0.0384
  318MOL0     C41858   9.227   5.360   9.201  0.1087 -0.1924 -0.4570
  318MOL0     C41859   9.091   5.411   9.252  1.1552 -0.6137  0.0345
  318MOL0     C41860   8.996   5.414   9.131  0.2521 -0.5204  0.1441
  318MOL0     N41861   8.858   5.454   9.169  0.0001  0.5267  1.1072
  318MOL0     C41862   8.798   5.446   9.293 -0.4919  0.0750 -0.0643
  318MOL0     C41863   8.678   5.510   9.279 -0.0260 -0.5960  0.2767
  318MOL0     C41864   8.568   5.502   9.380 -0.1617 -0.2541 -0.5067
  318MOL0     C41865   8.435   5.448   9.312  0.3588  0.0310 -0.3264
  318MOL0     C41866   8.311   5.490   9.395  0.0577  0.0553 -0.0134
  318MOL0     C41867   8.171   5.453   9.342 -0.2981 -0.6056  0.4514
  318MOL0     O41868   8.103   5.568   9.299  0.5737  0.0960  0.6176
  318MOL0     C41869   7.976   5.550   9.238  1.0616 -0.1589  0.0234
  318MOL0     C41870   7.914   5.426   9.216 -0.5008  0.2065 -0.0281
  318MOL0     C41871   7.780   5.425   9.172  0.5352  0.4594  0.1437
  318MOL0     C41872   7.711   5.537   9.135  0.0397 -0.2161 -0.1213
  318MOL0     C41873   7.580   5.539   9.071  0.4418 -0.3129 -0.1443
  318MOL0     O41874   7.499   5.433   9.097 -0.6357 -0.6818  0.0193
  318MOL0     C41875   7.366   5.424   9.052 -0.7943 -0.3176  0.1303
  318MOL0     C41876   7.276   5.529   9.037 -0.6472  0.1689 -0.4546
  318MOL0     C41877   7.141   5.499   9.014 -0.2599  0.3332  0.1532
  318MOL0     C41878   7.097   5.368   8.993 -0.1124 -0.3338 -0.5286
  318MOL0     O41879   6.968   5.345   8.951  0.7765 -0.4103 -0.2415
  318MOL0     C41880   6.868   5.430   9.016 -0.0923 -0.0939  0.1393
  318MOL0     C41881   6.733   5.369   8.993  0.6138 -0.1690  0.4623
  318MOL0     C41882   6.704   5.339   8.840 -0.0540  0.1079  0.1492
  318MOL0     C41883   6.557   5.317   8.826  0.0924  0.0568  0.0480
  318MOL0     C41884   6.512   5.315   8.683 -0.6260 -0.3000 -0.2379
  318MOL0     C41885   6.590   5.224   8.591  0.8029 -0.2458 -0.2168
  318MOL0     C41886   6.519   5.173   8.466  0.1218 -0.2051  0.5080
  318MOL0     C41887   6.606   5.169   8.337  0.2490  0.5947  0.1007
  318MOL0    Cl41888   6.648   5.333   8.278 -0.3210 -0.3273  0.2099
  318MOL0     C41889   7.185   5.265   9.005 -0.1215 -0.6547 -0.3670
  318MOL0     C41890   7.319   5.296   9.034 -0.3212 -0.0676 -0.0543
  318MOL0     O41891   7.546   5.647   9.016 -0.6467  0.1526  0.5265
  318MOL0     C41892   7.772   5.661   9.159 -0.4708 -0.4783 -0.4143
  318MOL0     C41893   7.902   5.670   9.214  0.2958 -0.3300 -0.7060
  318MOL0     N41894   8.678   5.560   9.146  0.0214 -0.1822 -0.1747
  318MOL0     N41895   8.779   5.521   9.081  0.3174  0.4861  0.6077
  318MOL0     C41896  10.189   5.262   9.409  0.0723 -0.0366  0.8666
  318MOL0     C41897  10.309   5.282   9.482 -0.2806 -0.0857  0.4761
  318MOL0     C41898  10.656   5.463   9.707 -0.1343 -0.6862  0.3649
  318MOL0     C41899  10.679   5.365   9.806 -0.3466 -0.6330  0.0678
  318MOL0     C41900  10.810   5.358   9.863  0.0641 -0.1320 -0.4036
  318MOL0     C41901  10.907   5.436   9.828 -0.3941  0.1386 -0.0659
  318MOL0     O41902  11.023   5.418   9.901  0.0405 -0.3506  0.7425
  318MOL0     C41903  11.152   5.467   9.852  0.7114 -0.0914  0.3267
  318MOL0     C41904  11.265   5.392   9.918 -0.2343  0.0810  0.4684
  318MOL0     C41905  11.394   5.464   9.889 -0.4375 -0.1355 -0.6100
  318MOL0     C41906  11.492   5.478  10.004  0.4617  0.1685 -0.6625
  318MOL0     C41907  11.538   5.343  10.039 -0.2523  0.3800 -0.9308
  318MOL0     C41908  11.602   5.235  10.059  0.3832 -0.4104  0.0729
  318MOL0     C41909  10.891   5.535   9.730  0.2258 -0.8819 -0.8946
  318MOL0     C41910  10.763   5.546   9.668  1.1023  0.1259 -0.5503
  318MOL0     H41911  10.197   5.491   9.721  3.5101 -0.1960  0.4814
  318MOL0     H41912   9.986   5.460   9.576  0.9843  0.8772 -1.0210
  318MOL0     H41913   9.824   5.434   9.441 -1.8211 -0.7859  1.0634
  318MOL0     H41914   9.804   5.272   9.512 -0.1309  1.0764  0.6980
  318MOL0     H41915   9.716   5.192   9.276 -4.3734 -0.4772  0.0285
  318MOL0     H41916   9.728   5.358   9.229  0.6210 -0.0735  1.5427
  318MOL0     H41917   9.591   5.435   9.412 -2.1335  0.0624  0.4067
  318MOL0     H41918   9.569   5.266   9.471  0.8335 -0.9554 -0.8828
  318MOL0     H41919   9.500   5.377   9.185 -1.0255 -1.1145 -0.9154
  318MOL0     H41920   9.457   5.215   9.244 -1.1103  0.6560 -2.8034
  318MOL0     H41921   9.337   5.481   9.331  0.0420  0.3319 -2.1228
  318MOL0     H41922   9.307   5.320   9.407  0.1345  0.2095  0.2493
  318MOL0     H41923   9.222   5.256   9.169 -0.0121 -0.5051  0.5304
  318MOL0     H41924   9.260   5.422   9.117  0.1375  1.0112  0.4131
  318MOL0     H41925   9.071   5.350   9.341  1.1374 -1.7583 -0.7264
  318MOL0     H41926   9.101   5.516   9.281  1.8759 -0.8020  0.4885
  318MOL0     H41927   8.989   5.311   9.093  2.0433 -1.2005  1.5131
  318MOL0     H41928   9.036   5.486   9.059  3.1551 -1.4640  0.6827
  318MOL0     H41929   8.837   5.400   9.383  0.3082  1.8692  0.5494
  318MOL0     H41930   8.559   5.597   9.434  0.0298 -1.2804  1.3968
  318MOL0     H41931   8.599   5.431   9.457 -1.4152 -2.9121 -2.2928
  318MOL0     H41932   8.438   5.339   9.310 -0.0613 -0.2022  3.7916
  318MOL0     H41933   8.419   5.479   9.208 -1.3054 -2.5872 -0.9131
  318MOL0     H41934   8.316   5.437   9.490 -2.3071 -1.9687 -0.9003
  318MOL0     H41935   8.322   5.597   9.415  0.0998 -0.1512  1.1077
  318MOL0     H41936   8.111   5.410   9.423 -0.9387  0.0922  0.3547
  318MOL0     H41937   8.173   5.381   9.260 -0.6964 -1.0363  0.8135
  318MOL0     H41938   7.959   5.329   9.239  0.1500  0.9253  1.9345
  318MOL0     H41939   7.710   5.342   9.165 -0.5668  1.2126  1.5001
  318MOL0     H41940   7.320   5.628   9.047  1.0265 -0.4985 -0.8327
  318MOL0     H41941   7.070   5.581   9.000 -2.4593 -1.7962 -2.1358
  318MOL0     H41942   6.876   5.537   8.996  2.0072 -0.1829  0.2757
  318MOL0     H41943   6.891   5.432   9.123 -1.5737  0.0257  0.4744
  318MOL0     H41944   6.652   5.433   9.030 -0.6422 -1.2853 -0.2585
  318MOL0     H41945   6.726   5.274   9.046  2.0634  0.9865  2.8714
  318MOL0     H41946   6.756   5.252   8.799  1.2496  2.1891 -2.9902
  318MOL0     H41947   6.731   5.422   8.774 -5.1518  0.7578 -1.5456
  318MOL0     H41948   6.525   5.229   8.883 -3.7622  2.6809  2.4027
  318MOL0     H41949   6.511   5.407   8.869  0.0099  0.3917 -0.7208
  318MOL0     H41950   6.526   5.416   8.642  1.5207 -1.5936 -2.9681
  318MOL0     H41951   6.404   5.297   8.672 -0.5254 -1.3017  0.3276
  318MOL0     H41952   6.623   5.131   8.638 -0.9046 -1.0120 -0.4530
  318MOL0     H41953   6.681   5.276   8.560  0.0217  0.7372 -0.9215
  318MOL0     H41954   6.481   5.072   8.485  0.6029 -0.4401  0.2440
  318MOL0     H41955   6.429   5.234   8.454 -0.1733 -0.1152  2.8083
  318MOL0     H41956   6.544   5.117   8.263  0.9993 -0.6793  0.3433
  318MOL0     H41957   6.697   5.110   8.349 -1.0780 -1.3492  0.9389
  318MOL0     H41958   7.142   5.167   8.988  1.7779 -1.5805 -0.0758
  318MOL0     H41959   7.401   5.225   9.039  1.8301  2.2288 -0.6660
  318MOL0     H41960   7.722   5.757   9.149 -1.0028 -0.8621 -1.7458
  318MOL0     H41961   7.951   5.765   9.230 -0.9835 -0.1752  3.3977
  318MOL0     H41962  10.192   5.200   9.320  1.7067 -1.8141  2.0600
  318MOL0     H41963  10.401   5.243   9.441 -0.7140 -0.5735 -0.0469
  318MOL0     H41964  10.603   5.295   9.839  0.4433 -1.0280  1.1279
  318MOL0     H41965  10.828   5.284   9.941  0.7042  1.6317  1.2020
  318MOL0     H41966  11.147   5.575   9.871  0.3455  0.2388 -1.4655
  318MOL0     H41967  11.159   5.444   9.745  0.1267  1.0900  0.0073
  318MOL0     H41968  11.230   5.396  10.022 -0.7007  1.7841  0.2817
  318MOL0     H41969  11.257   5.292   9.875 -3.1817  1.1513 -1.8747
  318MOL0     H41970  11.371   5.567   9.859  1.9513  0.0904 -1.8608
  318MOL0     H41971  11.439   5.415   9.803  1.6655  0.4932  0.0742
  318MOL0     H41972  11.566   5.553   9.972 -2.8596  4.9727  1.7169
  318MOL0     H41973  11.447   5.524  10.092  0.6280  0.6768 -0.8352
  318MOL0     H41974  11.655   5.146  10.087 -1.3193 -1.4120  0.2749
  318MOL0     H41975  10.975   5.600   9.709  0.4316 -1.0501 -0.5991
  318MOL0     H41976  10.754   5.617   9.587 -0.0930  0.0513 -0.5050
  319MOL0     O41977   0.261  11.198   7.501 -0.7924  0.3803  0.6956
  319MOL0     C41978   0.286  11.083   7.537  0.2358  0.3039 -0.5888
  319MOL0     O41979   0.200  10.994   7.592 -0.5787 -1.0137  0.3792
  319MOL0     C41980   0.065  11.016   7.581  0.3428  0.1205 -1.1988
  319MOL0     C41981  -0.002  11.014   7.461  0.1610  0.1273  0.4819
  319MOL0     C41982  -0.143  11.040   7.466  0.3352  0.4546  0.0109
  319MOL0     C41983  -0.216  11.038   7.590  0.4613  0.1536  0.3686
  319MOL0     O41984  -0.351  11.071   7.576  0.0786  0.3881  0.4666
  319MOL0     C41985  -0.427  11.153   7.667  0.7372  0.5530 -0.3556
  319MOL0     C41986  -0.556  11.183   7.604  0.0045 -0.3949  0.6187
  319MOL0     C41987  -0.654  11.062   7.600  0.1458 -0.2002  0.7639
  319MOL0     C41988  -0.787  11.121   7.564 -0.4425  0.4949 -0.2683
  319MOL0     C41989  -0.896  11.021   7.577 -0.2468 -0.0466  0.4264
  319MOL0     C41990  -1.028  11.073   7.534 -0.2382 -0.7342  0.0387
  319MOL0     C41991  -1.140  10.972   7.560 -0.9602  0.2532  1.0041
  319MOL0     C41992  -1.162  10.937   7.711  0.2627  0.2948  0.2173
  319MOL0     N41993  -1.295  10.868   7.719  0.4900  0.0527 -0.0371
  319MOL0     C41994  -1.324  10.746   7.667  0.4533  0.4493  0.7026
  319MOL0     C41995  -1.453  10.727   7.705  0.2551 -0.1641  0.3136
  319MOL0     C41996  -1.539  10.609   7.678  0.2422  0.6615  0.0450
  319MOL0     C41997  -1.678  10.643   7.610 -0.4435  0.2611  0.5630
  319MOL0     C41998  -1.750  10.518   7.588 -0.2503 -0.1858 -0.6212
  319MOL0     C41999  -1.880  10.521   7.494  0.2672  0.7629 -0.1394
  319MOL0     O42000  -1.937  10.389   7.476 -0.4650  1.0694 -0.0450
  319MOL0     C42001  -2.044  10.379   7.396  0.2078  0.1303 -0.6006
  319MOL0     C42002  -2.110  10.257   7.390 -0.5393 -0.1902 -0.6863
  319MOL0     C42003  -2.230  10.247   7.317  0.4864  0.0378 -0.1116
  319MOL0     C42004  -2.290  10.354   7.252 -0.0369 -0.5108 -0.1765
  319MOL0     C42005  -2.421  10.339   7.191  0.3292  0.2021 -0.3816
  319MOL0     O42006  -2.462  10.214   7.170  0.0051 -0.0289 -0.5511
  319MOL0     C42007  -2.576  10.193   7.097 -0.0317  0.3704 -0.3881
  319MOL0     C42008  -2.702  10.184   7.155 -0.7625 -0.4218 -0.1162
  319MOL0     C42009  -2.816  10.168   7.076 -0.2352 -0.3449  0.1716
  319MOL0     C42010  -2.812  10.148   6.938  0.0965  0.1323 -0.2539
  319MOL0     O42011  -2.929  10.145   6.860  0.4007 -0.5398 -0.2138
  319MOL0     C42012  -3.040  10.084   6.925  0.7734 -0.1736  0.5990
  319MOL0     C42013  -3.138  10.052   6.816  0.2084 -0.3918 -0.2189
  319MOL0     C42014  -3.261   9.977   6.859  0.2252 -0.2624  0.5152
  319MOL0     C42015  -3.330  10.044   6.977  0.9424 -0.3614  0.3444
  319MOL0     C42016  -3.471   9.983   6.981  0.1843 -0.0373 -0.6686
  319MOL0     C42017  -3.570  10.036   7.091 -0.3690 -0.4025  0.1221
  319MOL0     C42018  -3.499  10.002   7.228  0.1097 -0.6448 -0.8527
  319MOL0     C42019  -3.591  10.031   7.339  0.3349 -0.0150 -0.4811
  319MOL0    Cl42020  -3.719   9.905   7.315 -0.0583 -0.0193  0.4084
  319MOL0     C42021  -2.685  10.155   6.877 -0.0035 -0.7268  0.1064
  319MOL0     C42022  -2.573  10.174   6.957 -0.1148  0.3028  0.5061
  319MOL0     O42023  -2.486  10.440   7.173  0.6898 -0.1731  0.7283
  319MOL0     C42024  -2.223  10.474   7.248  0.8010 -0.6343  0.0757
  319MOL0     C42025  -2.099  10.484   7.319 -0.2574  0.5526  0.4483
  319MOL0     N42026  -1.497  10.824   7.789  0.1916 -0.0832  0.4218
  319MOL0     N42027  -1.401  10.914   7.782  0.3704 -0.0142  0.6237
  319MOL0     C42028  -0.150  11.017   7.708  0.0405  0.5080 -0.7135
  319MOL0     C42029  -0.012  10.995   7.703 -0.2429 -0.1234 -0.2291
  319MOL0     C42030   0.424  11.041   7.524 -1.4819 -1.0028 -0.1051
  319MOL0     C42031   0.452  10.922   7.596  0.3076 -0.5773  0.1829
  319MOL0     C42032   0.582  10.873   7.575 -0.0179 -0.1799 -0.0462
  319MOL0     C42033   0.679  10.936   7.492 -0.2958 -0.1717  0.2408
  319MOL0     O42034   0.798  10.867   7.487  0.9483 -0.3418  0.7088
  319MOL0     C42035   0.923  10.941   7.476 -0.2219  0.5040  0.7958
  319MOL0     C42036   1.026  10.853   7.404 -0.0984  0.8777  0.7473
  319MOL0     C42037   0.998  10.844   7.263 -0.5903  0.4332  0.4312
  319MOL0     C42038   1.090  10.743   7.196  0.0720 -0.0125  0.0662
  319MOL0     C42039   1.055  10.604   7.225 -0.9075 -0.5135  1.1284
  319MOL0     C42040   1.024  10.496   7.236  0.2366  0.8007  0.2710
  319MOL0     C42041   0.653  11.058   7.435 -0.6695 -0.1023  0.3921
  319MOL0     C42042   0.526  11.109   7.454  0.0444 -0.5241 -0.0873
  319MOL0     H42043   0.053  11.000   7.368  1.1123  0.6352  0.9425
  319MOL0     H42044  -0.200  11.047   7.374 -0.0614 -1.5839  0.0709
  319MOL0     H42045  -0.364  11.241   7.682 -1.3048  2.1085 -0.5044
  319MOL0     H42046  -0.440  11.102   7.762  2.8855 -0.4761 -0.5491
  319MOL0     H42047  -0.547  11.225   7.504 -1.3275  0.9818  1.0384
  319MOL0     H42048  -0.608  11.263   7.657 -1.2830 -0.7046 -0.1244
  319MOL0     H42049  -0.652  11.006   7.694  0.9928  0.5848  1.2324
  319MOL0     H42050  -0.622  10.985   7.530  1.5857  1.4142 -0.4371
  319MOL0     H42051  -0.813  11.202   7.632 -2.2864  0.7900 -1.2516
  319MOL0     H42052  -0.777  11.170   7.466 -1.4058  2.4190  0.5423
  319MOL0     H42053  -0.898  10.988   7.681 -0.7703 -0.6928  0.2163
  319MOL0     H42054  -0.853  10.931   7.531  1.9413  0.0659  2.0452
  319MOL0     H42055  -1.022  11.095   7.427 -1.0747  0.0433  0.1443
  319MOL0     H42056  -1.068  11.160   7.586 -1.1265 -1.6271  0.8880
  319MOL0     H42057  -1.231  11.018   7.521 -1.7305 -1.6006  0.4793
  319MOL0     H42058  -1.124  10.873   7.516 -1.7649  1.1429 -1.4683
  319MOL0     H42059  -1.160  11.034   7.761 -2.4294  0.7740 -0.4353
  319MOL0     H42060  -1.080  10.875   7.749 -0.8548 -1.2654  0.1452
  319MOL0     H42061  -1.260  10.686   7.603 -0.9053  0.7781 -1.0662
  319MOL0     H42062  -1.563  10.559   7.772 -0.6568  0.4573 -0.2806
  319MOL0     H42063  -1.477  10.546   7.614 -0.8926  0.0579 -0.5024
  319MOL0     H42064  -1.672  10.686   7.509 -4.9586 -1.0990 -0.5118
  319MOL0     H42065  -1.738  10.714   7.667 -0.5428  0.6367 -0.0013
  319MOL0     H42066  -1.689  10.443   7.536  0.1519  0.3331 -0.9067
  319MOL0     H42067  -1.783  10.480   7.685 -1.2093  0.3930 -0.7080
  319MOL0     H42068  -1.855  10.560   7.395 -1.3806  3.5272  0.4561
  319MOL0     H42069  -1.955  10.593   7.526  0.7775  1.3131 -0.1705
  319MOL0     H42070  -2.065  10.174   7.442 -1.2421  0.3332  0.8074
  319MOL0     H42071  -2.268  10.146   7.310  0.9717 -0.3934  2.5225
  319MOL0     H42072  -2.698  10.209   7.261  3.3285  2.2272 -0.6898
  319MOL0     H42073  -2.907  10.173   7.135 -0.6721  1.0707 -0.5764
  319MOL0     H42074  -3.082  10.159   6.993  0.9539  2.0597 -1.5770
  319MOL0     H42075  -3.006   9.991   6.971 -2.5645 -2.6499 -1.5181
  319MOL0     H42076  -3.088   9.998   6.735  3.6189  0.5205  1.0855
  319MOL0     H42077  -3.167  10.151   6.778  2.4697  1.0023  1.4072
  319MOL0     H42078  -3.233   9.876   6.894 -3.9990 -1.0922  2.0684
  319MOL0     H42079  -3.322   9.961   6.770  3.0528 -0.6641 -1.5066
  319MOL0     H42080  -3.285  10.004   7.068  0.6005  0.9051  1.0836
  319MOL0     H42081  -3.344  10.152   6.969 -2.3807 -0.5962  1.5328
  319MOL0     H42082  -3.464   9.876   7.001  0.9442  0.4783  2.2991
  319MOL0     H42083  -3.518   9.990   6.882 -1.4759  1.3820  0.1602
  319MOL0     H42084  -3.668   9.992   7.073  0.6518 -1.5276 -3.4336
  319MOL0     H42085  -3.584  10.144   7.082 -0.0198 -0.5609 -3.2963
  319MOL0     H42086  -3.457   9.901   7.231  0.9570 -0.2810  0.4956
  319MOL0     H42087  -3.412  10.069   7.236 -1.3195  1.3248 -1.0882
  319MOL0     H42088  -3.627  10.134   7.345 -1.4624 -0.6270 -0.2415
  319MOL0     H42089  -3.540  10.009   7.434  0.7739  0.4637 -0.6036
  319MOL0     H42090  -2.676  10.133   6.771  2.9141 -0.8778  0.3067
  319MOL0     H42091  -2.473  10.176   6.915 -0.4646 -0.7388 -0.4430
  319MOL0     H42092  -2.265  10.563   7.203 -0.6579  0.1384  2.7240
  319MOL0     H42093  -2.056  10.583   7.305  0.3079  0.4404  1.3238
  319MOL0     H42094  -0.199  11.010   7.805 -0.7856  0.2585 -1.1387
  319MOL0     H42095   0.041  10.986   7.798 -1.4698  0.5703  0.5345
  319MOL0     H42096   0.400  10.865   7.674  1.2695 -0.8878  0.6084
  319MOL0     H42097   0.615  10.780   7.618  2.2360  0.0982 -1.0451
  319MOL0     H42098   0.959  10.976   7.573  0.1830 -2.9291  2.0268
  319MOL0     H42099   0.918  11.033   7.417  0.9796  0.1825  0.1675
  319MOL0     H42100   1.118  10.909   7.425 -0.9944  3.1038 -0.9228
  319MOL0     H42101   1.035  10.752   7.446  1.0729  1.3121  1.6085
  319MOL0     H42102   1.012  10.936   7.205 -0.8969 -0.2434 -0.7521
  319MOL0     H42103   0.895  10.819   7.238  0.4674 -1.4041 -2.5379
  319MOL0     H42104   1.060  10.757   7.092  1.7251  2.6850 -0.1426
  319MOL0     H42105   1.196  10.765   7.210 -0.0209 -0.3937  1.5571
  319MOL0     H42106   0.999  10.393   7.252  0.5258  0.8268  0.9467
  319MOL0     H42107   0.722  11.113   7.372 -2.3085  1.3017 -0.2564
  319MOL0     H42108   0.495  11.203   7.409  1.1012 -1.0514 -2.0771
  320MOL0     O42109   0.324  11.005   3.730  0.0850 -0.2351 -0.2791
  320MOL0     C42110   0.389  11.052   3.825  0.7540  0.3413  0.1178
  320MOL0     O42111   0.338  11.088   3.944  0.4539 -0.2707 -0.8355
  320MOL0     C42112   0.207  11.052   3.984  0.7270 -0.3041 -0.0103
  320MOL0     C42113   0.199  10.989   4.108  0.3104 -0.0759 -0.5935
  320MOL0     C42114   0.079  10.957   4.172 -0.0137 -0.7978  0.2487
  320MOL0     C42115  -0.040  10.964   4.096  0.2323 -0.1048  0.5372
  320MOL0     O42116  -0.159  10.908   4.142  0.0623 -0.5335 -0.1962
  320MOL0     C42117  -0.148  10.778   4.197 -0.3483  0.1112 -0.0350
  320MOL0     C42118  -0.279  10.709   4.209  0.4461 -0.1627 -0.2612
  320MOL0     C42119  -0.368  10.772   4.324  0.4367  0.7114  0.6968
  320MOL0     C42120  -0.514  10.719   4.332 -0.0256 -0.2242 -0.2767
  320MOL0     C42121  -0.587  10.832   4.411  0.4389 -0.4416  0.1718
  320MOL0     C42122  -0.730  10.800   4.454  0.6024  0.0411 -0.0475
  320MOL0     C42123  -0.797  10.936   4.492 -0.2281 -0.3272  0.0798
  320MOL0     C42124  -0.940  10.918   4.552  0.5159 -0.0270  0.4986
  320MOL0     N42125  -1.034  10.827   4.488  0.1748 -0.6069  0.4118
  320MOL0     C42126  -1.051  10.691   4.518  0.4509  0.3834 -0.1058
  320MOL0     C42127  -1.148  10.650   4.440 -0.6973  0.2138 -0.6387
  320MOL0     C42128  -1.196  10.508   4.437 -0.3037  0.1869 -0.2715
  320MOL0     C42129  -1.277  10.474   4.564  0.1988 -0.2580  0.0325
  320MOL0     C42130  -1.417  10.539   4.583  0.4928  0.6310  0.1586
  320MOL0     C42131  -1.466  10.496   4.729  0.4539 -0.6235  0.7862
  320MOL0     O42132  -1.581  10.585   4.752  0.8895  0.1075  0.8088
  320MOL0     C42133  -1.697  10.522   4.785  0.4189 -0.3719 -0.0750
  320MOL0     C42134  -1.803  10.538   4.700  0.1515 -0.6455  0.5953
  320MOL0     C42135  -1.931  10.502   4.734 -0.1533  0.7104 -0.1062
  320MOL0     C42136  -1.959  10.433   4.853 -0.3089 -0.1485  0.8272
  320MOL0     C42137  -2.091  10.388   4.891  0.0067 -0.0436  0.1405
  320MOL0     O42138  -2.097  10.299   4.994 -0.1052 -0.6494 -0.6625
  320MOL0     C42139  -2.215  10.292   5.068 -0.4041 -0.7133  0.4168
  320MOL0     C42140  -2.286  10.177   5.085  0.2750 -0.5953  0.6128
  320MOL0     C42141  -2.410  10.181   5.162 -0.0599  0.2579 -0.4307
  320MOL0     C42142  -2.448  10.295   5.230  0.3408 -0.1237 -1.1153
  320MOL0     O42143  -2.558  10.304   5.316  0.5033 -0.2192  0.0719
  320MOL0     C42144  -2.642  10.186   5.358 -0.4563 -0.4454  0.1108
  320MOL0     C42145  -2.768  10.231   5.426  0.4240 -0.5408 -0.5979
  320MOL0     C42146  -2.738  10.305   5.553  0.2069 -0.4029 -0.4554
  320MOL0     C42147  -2.866  10.312   5.635  0.6145 -0.0702 -0.4004
  320MOL0     C42148  -2.860  10.432   5.746 -1.1264  0.1887 -0.6686
  320MOL0     C42149  -2.983  10.421   5.842 -0.5866 -0.4384  0.5339
  320MOL0     C42150  -2.984  10.540   5.947 -0.4535 -0.2625  0.1250
  320MOL0     C42151  -2.906  10.505   6.089  0.6726 -0.0543  1.1992
  320MOL0    Cl42152  -3.007  10.383   6.165 -0.4690 -0.3611  0.0470
  320MOL0     C42153  -2.360  10.413   5.227  0.0464 -0.2657  0.6729
  320MOL0     C42154  -2.249  10.407   5.144  0.1246  0.0797  0.0421
  320MOL0     O42155  -2.182  10.413   4.825 -0.1467  0.1391  0.4725
  320MOL0     C42156  -1.850  10.416   4.943 -0.6500 -0.7299 -1.0020
  320MOL0     C42157  -1.718  10.457   4.903 -1.0963  0.2667  1.1787
  320MOL0     N42158  -1.191  10.761   4.361 -0.6013  0.5656  0.2415
  320MOL0     N42159  -1.117  10.864   4.386 -0.0114  0.6980 -0.9265
  320MOL0     C42160  -0.037  11.028   3.965  0.3988  0.1580 -0.4844
  320MOL0     C42161   0.087  11.077   3.920  0.1799 -0.7820  0.0163
  320MOL0     C42162   0.528  11.086   3.797 -0.4067  0.4366  0.8587
  320MOL0     C42163   0.579  11.082   3.667  0.1209  0.0663  0.2648
  320MOL0     C42164   0.710  11.125   3.650  0.1603 -0.6381 -0.6936
  320MOL0     C42165   0.788  11.175   3.752 -0.6418  0.5715 -0.4177
  320MOL0     O42166   0.906  11.240   3.718  0.0281  0.4118 -0.1828
  320MOL0     C42167   0.977  11.294   3.828 -0.0390  0.0278 -0.2506
  320MOL0     C42168   1.111  11.357   3.766  0.0901  0.3622 -0.3588
  320MOL0     C42169   1.236  11.282   3.806  0.1673 -0.2941 -0.8504
  320MOL0     C42170   1.367  11.334   3.743  0.3208 -0.9580 -0.2331
  320MOL0     C42171   1.408  11.464   3.785  0.0025  0.0891 -0.2371
  320MOL0     C42172   1.455  11.572   3.812  0.7033  0.3551  0.1719
  320MOL0     C42173   0.728  11.167   3.879 -0.1023 -0.3585  0.3514
  320MOL0     C42174   0.607  11.113   3.905  0.3117 -0.5514 -0.3649
  320MOL0     H42175   0.297  10.971   4.150  0.1765 -1.6996 -0.9263
  320MOL0     H42176   0.090  10.923   4.274 -0.2371  1.2695  1.0140
  320MOL0     H42177  -0.099  10.782   4.294 -0.5666  0.9075  0.0514
  320MOL0     H42178  -0.093  10.713   4.130  0.3932  1.2487 -0.5688
  320MOL0     H42179  -0.263  10.602   4.224 -1.9617 -1.0068 -2.7717
  320MOL0     H42180  -0.330  10.714   4.112 -0.4199 -3.9325 -0.1387
  320MOL0     H42181  -0.366  10.881   4.310 -0.3603  0.6560  0.0790
  320MOL0     H42182  -0.324  10.736   4.417  1.3338 -0.0906 -0.0252
  320MOL0     H42183  -0.560  10.702   4.234 -1.7810  1.1694  0.2523
  320MOL0     H42184  -0.509  10.627   4.390  1.7651  0.2767  0.4367
  320MOL0     H42185  -0.594  10.923   4.351  0.0602 -0.9404 -0.5638
  320MOL0     H42186  -0.528  10.864   4.497  1.2568 -0.2161 -0.4548
  320MOL0     H42187  -0.742  10.725   4.533 -1.5205  0.6201  0.2735
  320MOL0     H42188  -0.776  10.768   4.360  1.6988  2.2357 -1.4039
  320MOL0     H42189  -0.726  10.984   4.560  0.4325  1.2083 -1.6162
  320MOL0     H42190  -0.797  10.992   4.398 -1.4680  0.6905  0.6565
  320MOL0     H42191  -0.981  11.019   4.554  0.0092 -0.1351 -1.9488
  320MOL0     H42192  -0.935  10.883   4.656 -0.6283 -1.3466  0.1391
  320MOL0     H42193  -0.997  10.629   4.589 -0.7022 -3.7595 -2.5051
  320MOL0     H42194  -1.115  10.435   4.428 -1.4739 -1.6212  2.5583
  320MOL0     H42195  -1.261  10.486   4.352  0.6672 -1.5843 -0.6155
  320MOL0     H42196  -1.215  10.486   4.654 -2.0594 -3.3836  2.2231
  320MOL0     H42197  -1.289  10.366   4.566 -1.4792 -0.0900 -0.2908
  320MOL0     H42198  -1.398  10.646   4.568  1.8993  0.6380  1.6598
  320MOL0     H42199  -1.488  10.501   4.509 -1.6965  0.4916  2.2097
  320MOL0     H42200  -1.378  10.507   4.793  1.8180  1.5855 -1.2690
  320MOL0     H42201  -1.491  10.391   4.744  3.7266 -1.4560  1.2511
  320MOL0     H42202  -1.791  10.584   4.602 -0.2915  0.4585  1.0473
  320MOL0     H42203  -2.016  10.526   4.671 -0.8164  0.6417  0.7360
  320MOL0     H42204  -2.269  10.087   5.025 -3.2397 -0.4537 -0.8291
  320MOL0     H42205  -2.475  10.096   5.180 -0.8167  0.9878  0.4210
  320MOL0     H42206  -2.575  10.124   5.418  0.2140 -1.5073 -1.6788
  320MOL0     H42207  -2.677  10.135   5.268 -1.6578  1.1433 -0.3698
  320MOL0     H42208  -2.822  10.138   5.446  1.9120 -1.3870 -0.3866
  320MOL0     H42209  -2.829  10.291   5.357 -1.0183 -0.3121  0.7950
  320MOL0     H42210  -2.710  10.409   5.532 -1.3077  0.0412 -0.4731
  320MOL0     H42211  -2.657  10.261   5.612 -1.7571 -0.7852  2.1437
  320MOL0     H42212  -2.945  10.330   5.562  0.4340 -1.1011 -0.4766
  320MOL0     H42213  -2.884  10.220   5.692  1.9487  0.2110  0.5121
  320MOL0     H42214  -2.853  10.534   5.708  1.4066  1.2241  2.1472
  320MOL0     H42215  -2.770  10.417   5.806 -1.0699 -0.1385 -0.8362
  320MOL0     H42216  -2.979  10.324   5.893  2.0618 -0.0622  1.1742
  320MOL0     H42217  -3.070  10.431   5.775  0.0283 -1.7002 -0.4927
  320MOL0     H42218  -2.939  10.630   5.903  3.2789 -0.7696  2.4658
  320MOL0     H42219  -3.091  10.556   5.964 -1.2640 -1.7954 -2.9048
  320MOL0     H42220  -2.894  10.590   6.157 -1.1188  1.4112 -0.2134
  320MOL0     H42221  -2.804  10.471   6.069  0.8794  1.5206 -0.6932
  320MOL0     H42222  -2.380  10.500   5.288 -1.1757 -0.4759  0.5914
  320MOL0     H42223  -2.174  10.486   5.146  0.7993 -0.5705  1.5807
  320MOL0     H42224  -1.861  10.364   5.038 -0.9281  0.3038 -0.4527
  320MOL0     H42225  -1.632  10.436   4.965 -0.2300 -0.4355 -0.2011
  320MOL0     H42226  -0.127  11.023   3.904 -0.2567 -2.0325  0.5596
  320MOL0     H42227   0.096  11.131   3.827  1.1595 -1.4683 -0.2968
  320MOL0     H42228   0.523  11.056   3.578  0.9077 -0.1717 -0.1735
  320MOL0     H42229   0.752  11.146   3.553  1.8210  0.3322  0.1930
  320MOL0     H42230   1.006  11.223   3.906  2.9231 -0.9148 -2.0466
  320MOL0     H42231   0.922  11.373   3.880 -0.0953 -1.4327  2.0197
  320MOL0     H42232   1.109  11.373   3.657  3.5121 -0.1593 -0.5925
  320MOL0     H42233   1.124  11.460   3.800 -2.7313  0.8756 -0.5834
  320MOL0     H42234   1.222  11.178   3.775 -3.9652  0.2558 -1.3610
  320MOL0     H42235   1.240  11.288   3.916  2.9644 -4.1401 -0.5420
  320MOL0     H42236   1.455  11.271   3.755  0.1319 -1.1866 -0.0330
  320MOL0     H42237   1.355  11.341   3.634 -5.7464  1.9636  0.2014
  320MOL0     H42238   1.494  11.672   3.824  3.6377 -0.6911  0.2555
  320MOL0     H42239   0.774  11.213   3.965  0.6976 -0.8097  0.1799
  320MOL0     H42240   0.571  11.112   4.007 -2.7314  2.0176 -1.2508
  321MOL0     O42241   8.960   7.919   8.395 -0.0249  0.2334 -1.0855
  321MOL0     C42242   9.004   7.946   8.285 -0.3580 -0.0911 -0.5409
  321MOL0     O42243   8.931   7.970   8.175 -0.2335 -0.3585 -0.1513
  321MOL0     C42244   8.798   7.981   8.197  1.0363  0.5263  0.3941
  321MOL0     C42245   8.714   7.870   8.173 -0.1081  0.4219  0.0780
  321MOL0     C42246   8.577   7.875   8.194 -0.3735  0.2165  0.2490
  321MOL0     C42247   8.519   7.985   8.244  0.1174 -0.0868 -0.2823
  321MOL0     O42248   8.379   7.986   8.255 -0.5112  0.1376 -0.1611
  321MOL0     C42249   8.314   8.095   8.323 -0.0971 -0.2315 -0.7859
  321MOL0     C42250   8.168   8.065   8.293 -0.3426  0.0926  0.1415
  321MOL0     C42251   8.063   8.171   8.331 -0.6310 -0.5072  0.0587
  321MOL0     C42252   7.927   8.130   8.292  0.5884 -0.0640 -0.4734
  321MOL0     C42253   7.813   8.226   8.336 -0.0913  0.7970 -0.0363
  321MOL0     C42254   7.672   8.183   8.293 -0.4692 -0.1344  0.1462
  321MOL0     C42255   7.572   8.292   8.334 -0.9764 -0.4861 -0.2904
  321MOL0     C42256   7.424   8.254   8.314  0.4468  0.4118 -0.0276
  321MOL0     N42257   7.337   8.339   8.395  0.1485  0.0908 -0.7956
  321MOL0     C42258   7.257   8.444   8.351  0.2492  0.3846 -0.0366
  321MOL0     C42259   7.179   8.487   8.446 -0.6322 -1.3214 -1.3075
  321MOL0     C42260   7.072   8.592   8.445  0.8029 -0.0154  0.9992
  321MOL0     C42261   7.138   8.725   8.488 -0.5787 -0.1112  0.4849
  321MOL0     C42262   7.195   8.732   8.630 -0.1833  0.4311  0.0309
  321MOL0     C42263   7.291   8.854   8.654 -0.0226 -0.5101 -0.8347
  321MOL0     O42264   7.251   8.971   8.587  0.2721 -0.6053 -0.3921
  321MOL0     C42265   7.154   9.054   8.636 -0.2625 -0.0539  0.2689
  321MOL0     C42266   7.095   9.140   8.547  0.4243 -0.4621  0.8579
  321MOL0     C42267   7.009   9.252   8.592 -0.8147  0.2917 -0.4410
  321MOL0     C42268   6.966   9.255   8.730 -0.1707 -1.0381  0.5442
  321MOL0     C42269   6.861   9.346   8.774  0.0496 -0.4692  0.3880
  321MOL0     O42270   6.830   9.455   8.691 -0.0414  0.7438 -0.2520
  321MOL0     C42271   6.753   9.560   8.744  0.1775 -0.1455  0.5520
  321MOL0     C42272   6.775   9.625   8.859 -0.3318  0.4490 -0.2428
  321MOL0     C42273   6.706   9.743   8.893 -0.0215 -0.3302  1.0094
  321MOL0     C42274   6.612   9.800   8.804 -0.3182  0.8147  0.6847
  321MOL0     O42275   6.532   9.900   8.847  0.8824  0.3794  0.2630
  321MOL0     C42276   6.595  10.025   8.852 -0.1908 -0.1192 -0.6147
  321MOL0     C42277   6.539  10.099   8.969  0.3464 -0.2354 -0.5776
  321MOL0     C42278   6.389  10.130   8.944 -0.8694  0.3132  0.1081
  321MOL0     C42279   6.331  10.224   9.051 -0.4564  0.1158  0.0025
  321MOL0     C42280   6.193  10.261   8.996 -0.8044  0.6987 -0.2093
  321MOL0     C42281   6.095  10.138   8.982 -0.0652 -0.3176 -0.6628
  321MOL0     C42282   5.949  10.189   8.956  0.3800  0.3882  0.4446
  321MOL0     C42283   5.901  10.308   9.038 -0.1546  0.4808 -0.0121
  321MOL0    Cl42284   5.929  10.258   9.217  0.3137 -0.2964 -0.2829
  321MOL0     C42285   6.600   9.748   8.675  0.1506 -0.7319  0.1115
  321MOL0     C42286   6.666   9.627   8.651 -1.1011  1.2520  0.5745
  321MOL0     O42287   6.805   9.318   8.876  1.2626  1.2488  0.1608
  321MOL0     C42288   7.017   9.160   8.819 -0.2527 -0.0236  0.7117
  321MOL0     C42289   7.113   9.064   8.772 -0.0881 -0.1903 -0.9866
  321MOL0     N42290   7.206   8.409   8.554 -0.0531 -0.2244 -0.1041
  321MOL0     N42291   7.301   8.330   8.528 -0.2059 -0.1608  0.3613
  321MOL0     C42292   8.602   8.095   8.278  0.0106  0.1738 -0.0748
  321MOL0     C42293   8.742   8.095   8.257  0.0957  0.2868 -0.5766
  321MOL0     C42294   9.151   7.957   8.273 -0.4623 -0.3226  0.1705
  321MOL0     C42295   9.216   7.950   8.146  0.2824 -0.5539 -0.1877
  321MOL0     C42296   9.353   7.947   8.141  0.2679 -0.0618  0.4435
  321MOL0     C42297   9.437   7.959   8.255  1.1584 -0.2330 -0.0739
  321MOL0     O42298   9.572   7.961   8.230 -0.4813  0.0447 -0.0432
  321MOL0     C42299   9.662   7.970   8.342  0.4756 -0.3077 -0.0797
  321MOL0     C42300   9.802   7.930   8.303 -0.5071  0.0410 -0.2813
  321MOL0     C42301   9.905   7.988   8.400  0.0060 -0.0200 -0.2843
  321MOL0     C42302  10.040   7.918   8.389 -0.1173 -0.5406  0.3741
  321MOL0     C42303  10.106   7.936   8.262 -0.5616  0.6501  0.9204
  321MOL0     C42304  10.172   7.938   8.162  0.6912 -0.0830  1.1256
  321MOL0     C42305   9.372   7.981   8.379  0.2234  0.3473 -0.0955
  321MOL0     C42306   9.235   7.979   8.387  0.1371  0.1450  0.8897
  321MOL0     H42307   8.762   7.787   8.123  1.4759  1.5082 -0.2744
  321MOL0     H42308   8.512   7.794   8.161  0.3687 -0.0458 -0.6253
  321MOL0     H42309   8.351   8.186   8.275  2.1282 -0.6744 -0.0245
  321MOL0     H42310   8.332   8.099   8.430 -0.4774 -0.6882 -0.7018
  321MOL0     H42311   8.148   7.968   8.338  4.2107 -0.9038  0.4837
  321MOL0     H42312   8.161   8.066   8.184  0.5231  2.2480  0.0579
  321MOL0     H42313   8.086   8.264   8.277  0.1893 -1.1245 -0.6877
  321MOL0     H42314   8.059   8.182   8.439 -0.4199 -1.8651  0.2210
  321MOL0     H42315   7.945   8.123   8.184  1.0625 -1.3292 -0.3248
  321MOL0     H42316   7.906   8.035   8.341  1.3683 -0.0990 -0.2002
  321MOL0     H42317   7.829   8.330   8.305 -5.8588  2.5121  1.5273
  321MOL0     H42318   7.815   8.220   8.446 -0.4662 -3.4988 -0.0980
  321MOL0     H42319   7.646   8.084   8.333  2.1606 -1.5050 -1.1786
  321MOL0     H42320   7.670   8.174   8.184  1.5935 -3.2806  0.2251
  321MOL0     H42321   7.596   8.309   8.440  1.0862 -0.1678 -0.7765
  321MOL0     H42322   7.596   8.381   8.276  0.7335 -2.4719 -2.8175
  321MOL0     H42323   7.408   8.150   8.347 -1.7541  0.4257 -0.8791
  321MOL0     H42324   7.389   8.256   8.211  2.4517 -1.4859 -0.8299
  321MOL0     H42325   7.261   8.483   8.250 -1.7946 -1.5860 -0.9726
  321MOL0     H42326   6.993   8.579   8.520 -1.4581  0.6681 -1.1579
  321MOL0     H42327   7.033   8.602   8.343 -0.3539 -0.1640  1.4085
  321MOL0     H42328   7.068   8.807   8.472 -0.6832 -0.2144  0.4110
  321MOL0     H42329   7.215   8.754   8.415 -0.6739 -1.9272 -0.3981
  321MOL0     H42330   7.104   8.730   8.690 -0.7200 -4.6995 -0.4600
  321MOL0     H42331   7.248   8.638   8.650 -0.0737  0.6733  0.9209
  321MOL0     H42332   7.386   8.830   8.604  1.6057  1.9755  0.8199
  321MOL0     H42333   7.306   8.871   8.761 -3.4379  2.0228 -0.5896
  321MOL0     H42334   7.115   9.120   8.442  0.1036  2.4150  0.1489
  321MOL0     H42335   6.960   9.318   8.521 -3.3840  0.9650  1.8169
  321MOL0     H42336   6.850   9.573   8.919 -0.7374 -2.2135 -1.8863
  321MOL0     H42337   6.717   9.787   8.992 -2.1657 -1.2595  1.7111
  321MOL0     H42338   6.597  10.072   8.754 -0.2488  0.7388 -0.2163
  321MOL0     H42339   6.699  10.001   8.878 -0.0655  0.6528 -0.3547
  321MOL0     H42340   6.591  10.195   8.985 -0.5463 -0.1522  2.4303
  321MOL0     H42341   6.548  10.041   9.061  0.0511 -0.3868 -0.6453
  321MOL0     H42342   6.332  10.037   8.934 -0.9792  0.3516  0.3679
  321MOL0     H42343   6.391  10.179   8.846  1.0154 -0.6423 -0.3916
  321MOL0     H42344   6.331  10.167   9.144  2.6927  0.1993  0.1637
  321MOL0     H42345   6.379  10.321   9.061 -1.7704  0.7073  0.8649
  321MOL0     H42346   6.212  10.296   8.894 -0.8170  3.0219  0.5283
  321MOL0     H42347   6.161  10.346   9.057  2.9755  1.3988  1.0908
  321MOL0     H42348   6.110  10.083   9.075  0.3670  1.8635  0.6151
  321MOL0     H42349   6.126  10.071   8.901 -0.4761 -0.3221 -0.8165
  321MOL0     H42350   5.947  10.218   8.850  1.6642  1.7725  0.7606
  321MOL0     H42351   5.882  10.107   8.983  0.1363  0.6557  0.6657
  321MOL0     H42352   5.792  10.319   9.035 -0.3477 -1.4000 -0.7172
  321MOL0     H42353   5.944  10.406   9.015 -0.0344 -0.2632 -3.4427
  321MOL0     H42354   6.553   9.794   8.589  0.4249 -1.0543 -0.2152
  321MOL0     H42355   6.663   9.566   8.561  1.7243 -0.9343  1.8108
  321MOL0     H42356   6.988   9.157   8.924 -4.2391  2.9079 -0.1098
  321MOL0     H42357   7.159   9.005   8.851  0.0737  2.4418  1.0043
  321MOL0     H42358   8.564   8.192   8.310 -0.7962 -0.4519  0.9311
  321MOL0     H42359   8.804   8.179   8.284 -1.7257  1.9658 -1.3758
  321MOL0     H42360   9.164   7.945   8.051 -0.8315  0.1010  0.3690
  321MOL0     H42361   9.403   7.946   8.044 -1.0053 -0.4945 -0.2303
  321MOL0     H42362   9.633   7.892   8.413 -2.2643  1.6180  1.1232
  321MOL0     H42363   9.660   8.065   8.395 -0.0873 -0.3484 -0.0219
  321MOL0     H42364   9.810   7.822   8.292  3.7198  0.2286 -0.5768
  321MOL0     H42365   9.830   7.979   8.210  2.2928  0.0138  0.4511
  321MOL0     H42366   9.864   7.969   8.500 -1.0697  0.1192 -0.6832
  321MOL0     H42367   9.917   8.093   8.375  1.6414  0.0054  0.4714
  321MOL0     H42368  10.104   7.954   8.470 -1.1603  3.2192 -0.2724
  321MOL0     H42369  10.024   7.811   8.408 -0.9421 -0.4783  0.0655
  321MOL0     H42370  10.228   7.942   8.071 -2.5944  3.7620 -1.0635
  321MOL0     H42371   9.429   7.980   8.472 -0.6014 -3.0335  0.5276
  321MOL0     H42372   9.196   7.996   8.487 -1.6012 -0.5347  0.3542
  322MOL0     O42373   7.703   3.387   5.053 -0.0145 -0.2311  0.0615
  322MOL0     C42374   7.723   3.414   4.935  1.0197 -0.7251  0.1224
  322MOL0     O42375   7.649   3.507   4.861  0.0150 -1.0588  0.4439
  322MOL0     C42376   7.537   3.569   4.918 -0.4265  0.5614 -0.0248
  322MOL0     C42377   7.556   3.700   4.955 -0.6518 -0.3185 -0.6523
  322MOL0     C42378   7.454   3.780   5.011  0.0993  0.1522 -0.1931
  322MOL0     C42379   7.323   3.721   5.026  0.6635 -0.2845 -1.0665
  322MOL0     O42380   7.210   3.798   5.065  0.1204  0.1345  0.7443
  322MOL0     C42381   7.098   3.730   5.132 -0.6669  0.5156  0.5159
  322MOL0     C42382   6.989   3.693   5.037  0.4097 -0.1829 -0.3908
  322MOL0     C42383   6.861   3.667   5.114 -0.1574 -0.6993  0.0880
  322MOL0     C42384   6.752   3.631   5.018  0.9098 -0.7188 -0.1647
  322MOL0     C42385   6.617   3.636   5.085  0.0051  0.2696 -0.7975
  322MOL0     C42386   6.501   3.609   4.988 -0.5842  0.0637  0.0130
  322MOL0     C42387   6.366   3.623   5.058  0.0505  0.2330  0.0825
  322MOL0     C42388   6.253   3.626   4.948 -0.9553  0.0559 -0.0990
  322MOL0     N42389   6.120   3.624   5.018  0.2028 -0.5164 -0.5438
  322MOL0     C42390   6.020   3.720   5.018 -1.1362  0.1785  0.4769
  322MOL0     C42391   5.911   3.659   5.068  0.5272  0.0940 -0.1080
  322MOL0     C42392   5.778   3.731   5.091 -0.6539  0.6591 -0.8051
  322MOL0     C42393   5.689   3.686   5.202  0.4004 -0.5063 -0.2279
  322MOL0     C42394   5.613   3.560   5.156 -0.6928 -0.2483  0.0522
  322MOL0     C42395   5.479   3.531   5.222  1.3574 -0.0721 -0.3833
  322MOL0     O42396   5.390   3.642   5.214 -0.1995 -0.2613  0.0616
  322MOL0     C42397   5.262   3.628   5.277 -0.7534  0.1297  0.2227
  322MOL0     C42398   5.164   3.721   5.242 -0.0067  0.1293 -0.3143
  322MOL0     C42399   5.034   3.712   5.292 -0.1413  0.3706 -0.2417
  322MOL0     C42400   5.000   3.612   5.377 -0.4681 -0.0268 -1.0029
  322MOL0     C42401   4.857   3.597   5.413 -0.6294 -0.2540 -0.1339
  322MOL0     O42402   4.809   3.472   5.405  0.1256  0.2356  0.8598
  322MOL0     C42403   4.681   3.452   5.444  0.2392 -0.0988  0.2521
  322MOL0     C42404   4.642   3.369   5.549 -0.6251  1.2095  0.6658
  322MOL0     C42405   4.507   3.353   5.575  0.1219 -0.0839  0.9119
  322MOL0     C42406   4.409   3.415   5.508  0.0883 -0.6614 -0.0486
  322MOL0     O42407   4.271   3.385   5.538 -0.8575 -0.4213 -0.3318
  322MOL0     C42408   4.154   3.427   5.458  0.1611 -0.8304 -0.5641
  322MOL0     C42409   4.020   3.401   5.539  0.2619  0.0098 -0.1633
  322MOL0     C42410   3.897   3.446   5.465  0.5442  0.0919  0.1536
  322MOL0     C42411   3.762   3.412   5.531  0.4766 -0.1781 -0.7057
  322MOL0     C42412   3.646   3.511   5.489  0.6094 -0.2762 -0.2354
  322MOL0     C42413   3.520   3.504   5.578 -0.3688 -0.5726 -0.2907
  322MOL0     C42414   3.450   3.640   5.582  0.2550 -0.5504 -0.7083
  322MOL0     C42415   3.341   3.634   5.689 -0.1270  0.0679  0.2694
  322MOL0    Cl42416   3.185   3.576   5.628  0.4600 -0.2481  0.3825
  322MOL0     C42417   4.448   3.503   5.412  0.5293 -0.5492 -0.0434
  322MOL0     C42418   4.582   3.524   5.377  0.1516 -1.1541  0.0520
  322MOL0     O42419   4.794   3.699   5.447  0.3118 -0.0498 -0.1993
  322MOL0     C42420   5.093   3.519   5.425 -0.2901  0.4354  0.4108
  322MOL0     C42421   5.222   3.525   5.366 -0.5898  0.4094 -0.9472
  322MOL0     N42422   5.938   3.531   5.110 -0.1618  0.7150 -0.1720
  322MOL0     N42423   6.065   3.513   5.075 -0.4307 -0.2410 -0.2551
  322MOL0     C42424   7.304   3.580   4.985  0.5210  0.1500 -0.4005
  322MOL0     C42425   7.411   3.506   4.930  0.0372 -0.5059 -0.6328
  322MOL0     C42426   7.844   3.356   4.878  0.1029  0.1365  0.3762
  322MOL0     C42427   7.885   3.409   4.752  0.5512  0.6524  0.4360
  322MOL0     C42428   8.003   3.355   4.693  0.8353  0.1675 -1.0780
  322MOL0     C42429   8.074   3.243   4.747  0.5526  0.5380  0.3791
  322MOL0     O42430   8.182   3.208   4.670  0.6569 -0.3009 -0.1634
  322MOL0     C42431   8.276   3.117   4.725  0.0458  0.1071  0.1774
  322MOL0     C42432   8.414   3.120   4.667  0.3287  0.1888 -0.3660
  322MOL0     C42433   8.416   3.187   4.527 -0.1928  0.5954 -0.7456
  322MOL0     C42434   8.378   3.078   4.424 -0.8264 -0.2818 -0.5903
  322MOL0     C42435   8.481   2.971   4.418  0.6558  0.3720  0.6716
  322MOL0     C42436   8.572   2.893   4.403  0.2041 -1.0649  0.3760
  322MOL0     C42437   8.029   3.196   4.869  0.9472  0.3129 -0.3969
  322MOL0     C42438   7.920   3.252   4.936 -0.1973  0.1044  1.1837
  322MOL0     H42439   7.659   3.734   4.951 -0.5568 -0.6010 -0.6247
  322MOL0     H42440   7.454   3.885   5.038 -2.8190  0.2447 -0.1489
  322MOL0     H42441   7.061   3.797   5.209 -2.6020 -0.3373  0.3791
  322MOL0     H42442   7.136   3.644   5.189 -2.6393 -1.7018 -1.2823
  322MOL0     H42443   7.003   3.598   4.983  0.1261  0.2009 -1.1601
  322MOL0     H42444   6.963   3.770   4.963  0.0515  0.5407  0.4710
  322MOL0     H42445   6.836   3.757   5.170  0.3955 -0.7065  0.3481
  322MOL0     H42446   6.869   3.581   5.181  1.1273 -0.2324  0.5606
  322MOL0     H42447   6.735   3.701   4.937 -1.0789  0.7730  1.4417
  322MOL0     H42448   6.779   3.532   4.978 -2.9184 -2.0730  0.1850
  322MOL0     H42449   6.600   3.732   5.134 -0.5393  0.2871 -1.0046
  322MOL0     H42450   6.608   3.553   5.156 -1.1869 -0.7359 -2.0613
  322MOL0     H42451   6.523   3.515   4.936 -2.1444  0.0813 -0.7484
  322MOL0     H42452   6.514   3.692   4.919  1.1681 -2.3978 -2.8915
  322MOL0     H42453   6.353   3.541   5.129  1.6986  2.2687  2.9409
  322MOL0     H42454   6.373   3.720   5.108 -2.0306 -0.5190  1.9904
  322MOL0     H42455   6.261   3.536   4.885  1.3943  0.4870 -0.4937
  322MOL0     H42456   6.261   3.715   4.886  3.2205 -2.3098 -3.4962
  322MOL0     H42457   6.029   3.820   4.976 -0.3334  0.1020  0.4549
  322MOL0     H42458   5.722   3.716   4.998  0.1305 -3.7441 -0.8209
  322MOL0     H42459   5.785   3.836   5.118  1.6545  0.6262 -1.1098
  322MOL0     H42460   5.612   3.761   5.221 -1.0264 -1.9696  0.0187
  322MOL0     H42461   5.752   3.670   5.290  1.7445  0.2648 -1.0064
  322MOL0     H42462   5.593   3.568   5.048  0.5844 -0.7009 -0.2390
  322MOL0     H42463   5.696   3.489   5.156  4.2353  4.7795  0.4465
  322MOL0     H42464   5.485   3.498   5.326  0.0631 -0.0891 -0.3004
  322MOL0     H42465   5.427   3.448   5.174 -0.7695  1.2484 -0.4927
  322MOL0     H42466   5.192   3.800   5.173  2.1534  0.5593  0.9560
  322MOL0     H42467   4.952   3.777   5.266 -2.1810 -2.7652 -2.3056
  322MOL0     H42468   4.714   3.317   5.612  0.5283  0.6858 -1.0078
  322MOL0     H42469   4.477   3.300   5.664 -0.5414 -0.6419  0.3725
  322MOL0     H42470   4.169   3.357   5.375 -0.1822 -2.2415  0.5177
  322MOL0     H42471   4.163   3.533   5.434  1.6048 -0.4982  1.1647
  322MOL0     H42472   4.017   3.459   5.631 -0.4989  3.3303 -2.1305
  322MOL0     H42473   4.012   3.295   5.568 -0.9178  0.3594  0.8790
  322MOL0     H42474   3.893   3.402   5.365 -0.4982 -0.4499  0.4208
  322MOL0     H42475   3.902   3.554   5.452 -0.2903  0.5631  2.9932
  322MOL0     H42476   3.731   3.308   5.517 -0.4057 -0.6269  3.2706
  322MOL0     H42477   3.770   3.424   5.640  0.2726 -0.8378 -0.6134
  322MOL0     H42478   3.618   3.479   5.388 -0.2253 -0.4320  0.0410
  322MOL0     H42479   3.686   3.613   5.492  0.1913 -0.1287  1.9777
  322MOL0     H42480   3.554   3.489   5.681 -3.9262 -1.4193  0.8918
  322MOL0     H42481   3.457   3.419   5.554  1.6940 -2.2918  0.0533
  322MOL0     H42482   3.528   3.716   5.597 -0.3230  0.2197 -1.5250
  322MOL0     H42483   3.408   3.660   5.483 -3.1407  0.2197  0.7549
  322MOL0     H42484   3.333   3.730   5.739  0.1529 -0.1652  0.7678
  322MOL0     H42485   3.366   3.575   5.778 -2.8990 -2.2472 -0.3235
  322MOL0     H42486   4.378   3.550   5.343  0.7689 -1.4254 -0.9136
  322MOL0     H42487   4.595   3.589   5.291  1.0119 -0.6854  0.5289
  322MOL0     H42488   5.083   3.440   5.498  3.3574 -0.3617  0.2270
  322MOL0     H42489   5.287   3.445   5.399 -0.3832  0.1212 -2.0190
  322MOL0     H42490   7.214   3.526   5.012 -0.1788  1.4248 -0.1115
  322MOL0     H42491   7.388   3.403   4.903 -1.3842 -1.1425  2.5209
  322MOL0     H42492   7.841   3.496   4.704 -0.5272 -0.8808 -1.5085
  322MOL0     H42493   8.039   3.389   4.596 -0.4074 -1.7557 -2.2861
  322MOL0     H42494   8.234   3.016   4.720  0.3449  0.0195 -0.9829
  322MOL0     H42495   8.287   3.139   4.831 -1.0695  2.1160 -0.0810
  322MOL0     H42496   8.471   3.176   4.742 -0.8701  0.1441  0.6178
  322MOL0     H42497   8.446   3.016   4.672 -0.0280  0.1364  1.2396
  322MOL0     H42498   8.519   3.217   4.507 -0.2779  1.8165  0.5155
  322MOL0     H42499   8.355   3.278   4.520  2.0556  2.2609  0.2769
  322MOL0     H42500   8.281   3.037   4.454 -0.9473  0.4707  0.0519
  322MOL0     H42501   8.376   3.124   4.325 -1.4079  1.3641  0.1501
  322MOL0     H42502   8.657   2.831   4.382 -0.7848 -1.8443 -1.6045
  322MOL0     H42503   8.083   3.121   4.927  0.3221  0.0835 -0.1002
  322MOL0     H42504   7.889   3.205   5.029  1.6428 -1.0972  1.2307
  323MOL0     O42505  10.155   9.733   3.325  0.0522  0.4208  0.5741
  323MOL0     C42506  10.146   9.797   3.216 -0.3602  0.2178  0.6174
  323MOL0     O42507  10.031   9.824   3.140  0.1173  0.3413 -0.5342
  323MOL0     C42508   9.903   9.795   3.173 -0.3528 -0.0111 -0.0425
  323MOL0     C42509   9.872   9.695   3.266 -0.2878 -0.3046  0.4730
  323MOL0     C42510   9.745   9.682   3.307 -0.3200 -0.3072  0.1708
  323MOL0     C42511   9.645   9.772   3.261  0.3134  0.4892 -0.3720
  323MOL0     O42512   9.515   9.750   3.282 -0.0528  0.0165 -0.3062
  323MOL0     C42513   9.470   9.681   3.404  0.6429  0.5241  0.5960
  323MOL0     C42514   9.317   9.676   3.388  0.8579 -0.4456  0.4358
  323MOL0     C42515   9.237   9.623   3.510  0.6531 -0.2730  0.4849
  323MOL0     C42516   9.086   9.616   3.488  0.0478 -0.1256  0.2148
  323MOL0     C42517   9.023   9.504   3.575 -0.3795 -0.2411  0.1739
  323MOL0     C42518   8.871   9.485   3.535  0.2852 -0.1989  0.7091
  323MOL0     C42519   8.787   9.616   3.549  0.1999 -0.3136  0.1147
  323MOL0     C42520   8.636   9.588   3.572 -0.3626  1.1009 -0.3506
  323MOL0     N42521   8.555   9.712   3.580  0.1285 -0.7619  0.2013
  323MOL0     C42522   8.552   9.801   3.682  0.4423  0.2397  0.5084
  323MOL0     C42523   8.460   9.894   3.643 -0.9075  0.1812  0.9691
  323MOL0     C42524   8.436  10.030   3.704 -0.2698 -0.1386  0.0596
  323MOL0     C42525   8.299  10.032   3.766  1.1648  0.6702  0.6331
  323MOL0     C42526   8.289   9.968   3.901 -0.9595 -0.3446 -0.1764
  323MOL0     C42527   8.142   9.972   3.934  0.9524 -0.3533  0.1850
  323MOL0     O42528   8.077  10.103   3.937  0.8048  0.2979 -0.1975
  323MOL0     C42529   7.940  10.109   3.956  0.6453 -0.4717  0.2043
  323MOL0     C42530   7.873   9.989   3.998 -0.9294  0.0085  0.2237
  323MOL0     C42531   7.731   9.992   4.012 -0.4274  0.2080 -0.4887
  323MOL0     C42532   7.659  10.113   4.010  0.1859 -0.4473  0.2937
  323MOL0     C42533   7.511  10.123   4.036  0.0559 -0.2749  0.3598
  323MOL0     O42534   7.452  10.009   4.092  0.0506 -0.2975  0.2393
  323MOL0     C42535   7.316   9.996   4.106  0.4669 -0.6037 -0.4426
  323MOL0     C42536   7.250  10.032   4.221  0.1627 -0.0156 -0.1051
  323MOL0     C42537   7.113  10.020   4.241 -0.4916 -0.0962  0.0687
  323MOL0     C42538   7.036   9.965   4.139  0.4560 -0.0263  0.6469
  323MOL0     O42539   6.895   9.954   4.140  0.1807 -0.1637  0.1422
  323MOL0     C42540   6.829   9.978   4.264  0.2853  0.4005  0.0758
  323MOL0     C42541   6.842   9.852   4.355 -0.3419 -0.3329 -0.1002
  323MOL0     C42542   6.704   9.814   4.416 -0.2426 -0.5973 -0.0222
  323MOL0     C42543   6.715   9.691   4.501  0.4527  0.0853 -0.5663
  323MOL0     C42544   6.575   9.638   4.520 -0.2020  0.2249 -0.1477
  323MOL0     C42545   6.569   9.542   4.638  0.1302  0.8881 -0.4928
  323MOL0     C42546   6.432   9.479   4.654  0.5461 -0.2497 -0.3571
  323MOL0     C42547   6.406   9.454   4.804  0.1515  0.3564  0.5267
  323MOL0    Cl42548   6.250   9.381   4.819 -0.2993  0.2967 -0.1545
  323MOL0     C42549   7.096   9.947   4.015  1.0048  0.0467 -1.0123
  323MOL0     C42550   7.237   9.950   4.006 -0.4812  0.5546  0.2720
  323MOL0     O42551   7.446  10.228   4.012  0.6508  0.5262 -0.1049
  323MOL0     C42552   7.734  10.231   3.976  0.2858 -0.2651 -0.5072
  323MOL0     C42553   7.869  10.226   3.950 -0.1007 -0.2537 -0.0286
  323MOL0     N42554   8.398   9.848   3.525  0.3402  0.5274 -0.1108
  323MOL0     N42555   8.456   9.741   3.491  0.1001 -0.0689  0.2094
  323MOL0     C42556   9.676   9.871   3.172 -0.5023 -0.5538 -0.3295
  323MOL0     C42557   9.806   9.876   3.122 -0.3012 -0.3700  0.2258
  323MOL0     C42558  10.270   9.850   3.167 -0.0601 -0.4826 -0.3111
  323MOL0     C42559  10.289   9.889   3.032  1.0609 -0.2209 -0.8959
  323MOL0     C42560  10.413   9.939   2.989  0.1392  0.1720 -0.9922
  323MOL0     C42561  10.526   9.935   3.074 -0.2977  0.1673  0.0040
  323MOL0     O42562  10.652   9.972   3.033  0.1785  0.6587  0.4550
  323MOL0     C42563  10.667  10.030   2.898  0.8276 -0.0216  0.2029
  323MOL0     C42564  10.814  10.089   2.883  0.1185 -0.1119 -0.5153
  323MOL0     C42565  10.912   9.977   2.874 -0.4908 -0.1962 -0.6819
  323MOL0     C42566  10.929   9.894   2.741 -0.1622 -0.7165 -0.3171
  323MOL0     C42567  10.964   9.973   2.624  1.0091 -0.0101 -0.2092
  323MOL0     C42568  10.984  10.046   2.532  0.0309 -0.2112 -0.7722
  323MOL0     C42569  10.502   9.902   3.207 -1.0565 -1.0320 -1.2531
  323MOL0     C42570  10.384   9.863   3.251 -0.0778  0.9367 -0.5136
  323MOL0     H42571   9.946   9.630   3.311  0.2972  0.6240  0.8623
  323MOL0     H42572   9.711   9.595   3.361 -3.0509  0.5943  0.0213
  323MOL0     H42573   9.505   9.736   3.492  0.9014  0.5016  0.5075
  323MOL0     H42574   9.506   9.578   3.407  2.0352  0.8481 -2.0576
  323MOL0     H42575   9.297   9.606   3.307  0.4974  0.9157 -0.6863
  323MOL0     H42576   9.283   9.776   3.359  1.2524 -0.3228  0.3973
  323MOL0     H42577   9.247   9.678   3.604 -1.8214  1.1227  0.0197
  323MOL0     H42578   9.271   9.519   3.508 -1.9547 -1.1822 -0.8505
  323MOL0     H42579   9.033   9.708   3.512  0.6860  0.7057 -1.3768
  323MOL0     H42580   9.058   9.613   3.382  0.0870  3.1103  0.0083
  323MOL0     H42581   9.033   9.531   3.680 -2.4781  1.1851  0.0541
  323MOL0     H42582   9.086   9.416   3.561  2.0986  1.3366  0.7268
  323MOL0     H42583   8.825   9.401   3.588  2.6510  0.7204  4.6475
  323MOL0     H42584   8.875   9.453   3.431 -0.6008 -0.3593  0.7148
  323MOL0     H42585   8.815   9.671   3.639 -0.6179  0.6598 -0.2078
  323MOL0     H42586   8.792   9.682   3.462 -0.8768 -0.2112  0.1218
  323MOL0     H42587   8.624   9.533   3.666 -0.5571 -0.6020 -1.3394
  323MOL0     H42588   8.600   9.533   3.485 -0.5180  1.7592 -0.7089
  323MOL0     H42589   8.617   9.799   3.769  0.3294 -1.4895  0.5950
  323MOL0     H42590   8.449  10.105   3.625  2.5554 -2.1557 -1.5784
  323MOL0     H42591   8.508  10.039   3.785  0.4476 -0.6933 -0.4949
  323MOL0     H42592   8.239   9.974   3.696  2.3600 -0.9816  0.9086
  323MOL0     H42593   8.259  10.134   3.767  1.2382  0.7238  2.4606
  323MOL0     H42594   8.319   9.863   3.902 -1.5941 -0.5477 -1.4885
  323MOL0     H42595   8.364  10.022   3.960 -0.4626  0.1689 -1.2551
  323MOL0     H42596   8.134   9.937   4.037  2.6557 -1.5896 -0.0704
  323MOL0     H42597   8.084   9.913   3.862 -1.0900  2.0036 -0.2446
  323MOL0     H42598   7.927   9.897   4.018  2.0318  1.7436  0.8469
  323MOL0     H42599   7.676   9.902   4.037  0.1174 -1.0060 -3.3058
  323MOL0     H42600   7.310  10.084   4.294  2.3108 -1.1597 -0.9486
  323MOL0     H42601   7.062  10.061   4.327  0.5282  0.5056  0.3982
  323MOL0     H42602   6.725   9.995   4.234 -0.3581 -1.4504  1.0595
  323MOL0     H42603   6.859  10.069   4.317 -2.1937  2.0917 -1.2024
  323MOL0     H42604   6.918   9.868   4.432 -1.4071 -0.8769  1.0950
  323MOL0     H42605   6.871   9.767   4.291 -0.0159 -0.3544  0.0738
  323MOL0     H42606   6.631   9.794   4.338  0.2379 -1.9485 -0.1500
  323MOL0     H42607   6.663   9.895   4.478  1.0163 -0.5905  0.8595
  323MOL0     H42608   6.775   9.618   4.447 -0.4607  1.0866 -3.0551
  323MOL0     H42609   6.751   9.703   4.604 -1.2150 -2.9197  0.4918
  323MOL0     H42610   6.532   9.593   4.430 -3.5482 -1.5990  2.1097
  323MOL0     H42611   6.502   9.719   4.531  1.3622  1.8463 -1.1862
  323MOL0     H42612   6.586   9.606   4.725  1.8535 -0.8792  0.5451
  323MOL0     H42613   6.638   9.459   4.629  0.7507  1.3594 -0.1254
  323MOL0     H42614   6.360   9.547   4.607  0.5083 -0.0085  0.0508
  323MOL0     H42615   6.424   9.385   4.598 -0.2044  1.1534 -2.7523
  323MOL0     H42616   6.417   9.552   4.851  1.3463  0.7207 -0.4555
  323MOL0     H42617   6.483   9.388   4.845  1.3840  0.0436 -2.0711
  323MOL0     H42618   7.033   9.915   3.933 -1.0715 -0.0412  0.5467
  323MOL0     H42619   7.278   9.922   3.910 -1.4861  0.4870 -0.1553
  323MOL0     H42620   7.679  10.324   3.982 -2.3571 -1.5521 -2.4484
  323MOL0     H42621   7.913  10.323   3.929  0.1031  0.5190  3.3438
  323MOL0     H42622   9.607   9.949   3.142 -2.4531 -2.0429  0.0598
  323MOL0     H42623   9.835   9.959   3.058 -1.7288  0.3658  0.5156
  323MOL0     H42624  10.205   9.872   2.965  0.3317 -2.0712  0.3906
  323MOL0     H42625  10.416   9.972   2.885 -0.3204  0.0718 -1.0386
  323MOL0     H42626  10.600  10.114   2.876 -0.7520 -1.2393  0.1284
  323MOL0     H42627  10.645   9.951   2.826 -2.3913  1.6597 -0.8447
  323MOL0     H42628  10.819  10.148   2.792 -2.8176 -0.5511 -1.0677
  323MOL0     H42629  10.837  10.153   2.969  0.4668  1.7341 -1.9183
  323MOL0     H42630  10.889   9.903   2.951 -1.5536 -0.4849 -1.2626
  323MOL0     H42631  11.013  10.004   2.907 -1.2237 -1.9991  3.7377
  323MOL0     H42632  11.010   9.821   2.756 -1.8943 -2.2121  2.6191
  323MOL0     H42633  10.836   9.841   2.717  0.0879 -0.5383 -1.7778
  323MOL0     H42634  11.010  10.110   2.451 -2.4548  1.9659 -0.0348
  323MOL0     H42635  10.582   9.920   3.278 -2.0351 -1.0853 -0.1135
  323MOL0     H42636  10.366   9.843   3.357 -1.0545 -0.4605 -0.9149
  324MOL0     O42637   2.745   5.297   3.943 -0.0281 -0.5064 -0.2601
  324MOL0     C42638   2.828   5.205   3.940 -0.5285  0.5863 -0.9339
  324MOL0     O42639   2.810   5.083   3.881  0.1343  0.2451  0.7744
  324MOL0     C42640   2.685   5.043   3.853  0.2315 -1.0700  0.6779
  324MOL0     C42641   2.658   4.994   3.726  0.1330  0.0752  0.0078
  324MOL0     C42642   2.540   4.932   3.697 -0.3458  0.4936  0.0806
  324MOL0     C42643   2.434   4.921   3.787  0.2081 -1.4391  0.3271
  324MOL0     O42644   2.313   4.868   3.746 -0.0063  0.2198  0.2866
  324MOL0     C42645   2.205   4.847   3.837 -0.0339  0.2901  0.4414
  324MOL0     C42646   2.077   4.806   3.768  0.2528 -0.4313 -0.1883
  324MOL0     C42647   1.954   4.782   3.861  0.5910 -0.3215 -0.5455
  324MOL0     C42648   1.836   4.738   3.780  0.1330  1.1001  0.1270
  324MOL0     C42649   1.708   4.739   3.865 -0.2138 -0.3424 -0.2515
  324MOL0     C42650   1.594   4.690   3.777 -0.0636 -0.0531  0.1567
  324MOL0     C42651   1.453   4.731   3.818 -0.9935  0.5593  0.4324
  324MOL0     C42652   1.409   4.678   3.944  0.7918 -0.7851  0.0633
  324MOL0     N42653   1.271   4.723   3.982  0.7312  0.1372 -0.3640
  324MOL0     C42654   1.234   4.745   4.112  0.1259  0.1503 -0.1302
  324MOL0     C42655   1.105   4.784   4.103  0.3224  0.7880  0.7637
  324MOL0     C42656   1.023   4.824   4.224  0.0280  0.5107  0.6607
  324MOL0     C42657   0.917   4.929   4.179  0.6485 -0.4336  0.3242
  324MOL0     C42658   0.824   4.990   4.286 -0.5021  0.6517 -0.2060
  324MOL0     C42659   0.716   4.886   4.325 -0.2693 -0.0894 -0.8591
  324MOL0     O42660   0.617   4.875   4.223  0.3271 -0.1102 -0.1595
  324MOL0     C42661   0.509   4.796   4.241  0.7652  0.0227 -0.6370
  324MOL0     C42662   0.433   4.779   4.128 -0.1491  0.1514 -0.0048
  324MOL0     C42663   0.325   4.695   4.133 -0.6013 -0.2308  0.6455
  324MOL0     C42664   0.281   4.632   4.249 -0.2971  0.2843  0.6945
  324MOL0     C42665   0.155   4.548   4.254 -1.0939 -0.7602  1.1712
  324MOL0     O42666   0.105   4.528   4.132 -0.8149 -0.1500  0.2054
  324MOL0     C42667   0.025   4.414   4.126 -0.6965 -0.8314 -0.6748
  324MOL0     C42668  -0.112   4.421   4.136 -0.1503  0.8480  0.3500
  324MOL0     C42669  -0.194   4.311   4.121  0.0204 -0.4464  0.1406
  324MOL0     C42670  -0.138   4.185   4.113  0.3680  1.1724  1.0912
  324MOL0     O42671  -0.198   4.064   4.097  0.3665  0.2546 -0.0556
  324MOL0     C42672  -0.340   4.064   4.110  0.0854 -0.4869  0.2363
  324MOL0     C42673  -0.383   3.908   4.101  0.1368 -0.0799  0.4863
  324MOL0     C42674  -0.535   3.889   4.127 -0.4323  0.5141  0.0590
  324MOL0     C42675  -0.579   3.741   4.123 -0.7238 -0.3857 -0.0124
  324MOL0     C42676  -0.732   3.735   4.120  0.3792 -0.0130 -0.4073
  324MOL0     C42677  -0.762   3.592   4.150  0.8139  0.2761 -0.2360
  324MOL0     C42678  -0.909   3.568   4.113  0.2199 -0.2492 -0.6213
  324MOL0     C42679  -0.951   3.421   4.153 -0.4404  0.0591 -0.6990
  324MOL0    Cl42680  -1.119   3.388   4.146  0.2261  0.4229  0.2348
  324MOL0     C42681  -0.003   4.172   4.095  0.4144 -1.2599 -0.2737
  324MOL0     C42682   0.080   4.287   4.102 -0.6200 -0.3445  0.7138
  324MOL0     O42683   0.104   4.520   4.365 -0.6644 -0.3107  0.1361
  324MOL0     C42684   0.353   4.653   4.360 -0.0459  0.4989  0.1781
  324MOL0     C42685   0.468   4.732   4.356 -0.7425  0.2936 -0.6680
  324MOL0     N42686   1.067   4.781   3.972  0.3023  0.1825 -0.3269
  324MOL0     N42687   1.166   4.748   3.904 -0.3755  1.0956  0.1130
  324MOL0     C42688   2.461   4.973   3.917  0.1451  0.1164  0.2422
  324MOL0     C42689   2.583   5.033   3.949 -0.2945  0.4456  0.5500
  324MOL0     C42690   2.950   5.215   4.016  0.0530  0.3882  1.4607
  324MOL0     C42691   3.069   5.142   3.983 -0.1604 -0.8412 -0.0915
  324MOL0     C42692   3.178   5.148   4.062 -0.4328 -0.5873 -0.8660
  324MOL0     C42693   3.184   5.245   4.164  0.1190 -0.2791 -0.3020
  324MOL0     O42694   3.292   5.262   4.244  0.0943 -0.5108 -0.3582
  324MOL0     C42695   3.411   5.177   4.237 -0.1019 -0.0900  1.1003
  324MOL0     C42696   3.495   5.196   4.362 -0.2101  0.3887 -0.7927
  324MOL0     C42697   3.431   5.125   4.484  0.5480 -0.5906 -0.3697
  324MOL0     C42698   3.500   4.990   4.514 -0.0618  0.2873  0.3908
  324MOL0     C42699   3.446   4.883   4.433  0.0195  0.0263  0.0770
  324MOL0     C42700   3.384   4.792   4.386 -0.6509 -0.1592  0.1416
  324MOL0     C42701   3.072   5.330   4.181 -0.6567  0.4536  0.3809
  324MOL0     C42702   2.953   5.313   4.112  0.4281  0.6222  0.1315
  324MOL0     H42703   2.725   5.024   3.646  1.1918  0.3023  0.9737
  324MOL0     H42704   2.524   4.889   3.598 -0.8325  0.9795 -0.0577
  324MOL0     H42705   2.176   4.945   3.877  0.4198 -0.4786  2.8122
  324MOL0     H42706   2.243   4.782   3.917  1.2021 -0.8752 -1.0317
  324MOL0     H42707   2.100   4.715   3.712 -1.5527  0.0210 -1.7908
  324MOL0     H42708   2.043   4.876   3.691 -1.5402 -2.0538 -0.9607
  324MOL0     H42709   1.924   4.873   3.913  1.3891  1.2404 -2.7011
  324MOL0     H42710   1.974   4.711   3.942 -2.6918  2.1777  2.8336
  324MOL0     H42711   1.830   4.810   3.698 -0.0580 -0.5097 -1.3282
  324MOL0     H42712   1.859   4.640   3.737 -2.5420 -0.2275  1.5136
  324MOL0     H42713   1.697   4.836   3.914  0.3753 -0.6291  0.4716
  324MOL0     H42714   1.735   4.677   3.951  1.9279 -3.1590 -2.7444
  324MOL0     H42715   1.600   4.582   3.763  2.0960 -0.2022  1.6697
  324MOL0     H42716   1.604   4.733   3.677 -0.2404 -1.7330 -0.6219
  324MOL0     H42717   1.446   4.840   3.828  0.8773  0.5905  1.9015
  324MOL0     H42718   1.382   4.692   3.744 -0.7473 -0.7386  0.8694
  324MOL0     H42719   1.474   4.700   4.030 -1.0848 -0.9280  1.5838
  324MOL0     H42720   1.418   4.569   3.940 -0.3359 -0.9317  1.0225
  324MOL0     H42721   1.298   4.726   4.198  1.5391 -1.4227 -1.4630
  324MOL0     H42722   1.086   4.868   4.301 -1.0144  0.9038  1.3149
  324MOL0     H42723   0.978   4.737   4.272 -0.8281  0.3263 -0.4243
  324MOL0     H42724   0.853   4.879   4.105 -0.2855  1.6815 -0.3749
  324MOL0     H42725   0.962   5.015   4.129 -1.5357  1.5119  1.4960
  324MOL0     H42726   0.880   5.029   4.372  1.4177 -0.5518 -0.8335
  324MOL0     H42727   0.775   5.077   4.241  1.3469  1.7123 -0.2658
  324MOL0     H42728   0.664   4.932   4.409  1.1540  0.0694 -0.0382
  324MOL0     H42729   0.750   4.785   4.348  0.2641 -0.1564 -1.8852
  324MOL0     H42730   0.471   4.825   4.037 -1.5022  2.2728  0.4211
  324MOL0     H42731   0.268   4.684   4.041  0.6252  0.3665 -0.2167
  324MOL0     H42732  -0.164   4.516   4.149 -0.9858  0.6635 -1.3281
  324MOL0     H42733  -0.301   4.323   4.114  0.2098  0.2541 -5.3155
  324MOL0     H42734  -0.390   4.126   4.036  0.5272 -0.1414  0.2204
  324MOL0     H42735  -0.363   4.106   4.208  0.1636  1.3321 -0.4941
  324MOL0     H42736  -0.328   3.862   4.184  0.3971 -0.8901 -0.1254
  324MOL0     H42737  -0.358   3.858   4.007 -0.3438 -1.2241  0.9358
  324MOL0     H42738  -0.593   3.937   4.048 -1.1275 -2.5982 -1.4763
  324MOL0     H42739  -0.559   3.912   4.231  1.4499 -2.4876  1.3060
  324MOL0     H42740  -0.533   3.696   4.035  0.8253 -1.2727  1.2028
  324MOL0     H42741  -0.533   3.682   4.203  1.6413 -0.9610 -1.7018
  324MOL0     H42742  -0.756   3.776   4.021  1.0261  4.6265  1.0881
  324MOL0     H42743  -0.786   3.799   4.191 -0.6684 -1.9550  0.6214
  324MOL0     H42744  -0.761   3.576   4.258  0.8303  0.3034 -0.2324
  324MOL0     H42745  -0.693   3.524   4.099 -0.5817 -3.4861  2.4478
  324MOL0     H42746  -0.973   3.649   4.148  0.7705  0.5411 -1.4036
  324MOL0     H42747  -0.915   3.565   4.003 -1.0555 -2.5199 -0.5647
  324MOL0     H42748  -0.916   3.411   4.257 -0.3718 -1.2985 -0.8252
  324MOL0     H42749  -0.906   3.348   4.085  2.0759  0.2560  0.6340
  324MOL0     H42750   0.038   4.075   4.069 -1.2932 -1.0976 -4.1251
  324MOL0     H42751   0.186   4.286   4.082 -0.5486 -0.8201  1.1071
  324MOL0     H42752   0.324   4.597   4.449  0.1183  0.6455  0.3244
  324MOL0     H42753   0.511   4.747   4.454 -1.0917  1.2516 -0.6517
  324MOL0     H42754   2.384   4.968   3.993  0.4130  1.1350  0.5967
  324MOL0     H42755   2.607   5.068   4.049 -0.8319  0.5442  0.6494
  324MOL0     H42756   3.064   5.074   3.899 -0.6022  0.0998 -0.8472
  324MOL0     H42757   3.260   5.080   4.041  1.4419  1.7490 -1.5753
  324MOL0     H42758   3.471   5.199   4.148  0.2985  1.3530  1.6958
  324MOL0     H42759   3.379   5.073   4.225 -3.6819  1.0062  0.0501
  324MOL0     H42760   3.590   5.143   4.352  0.6330  1.8231 -0.6743
  324MOL0     H42761   3.503   5.305   4.369  0.6476  0.3594 -1.2676
  324MOL0     H42762   3.324   5.121   4.462  0.5304 -0.4904 -0.3038
  324MOL0     H42763   3.443   5.187   4.573 -2.9097 -1.3502  0.8026
  324MOL0     H42764   3.609   4.987   4.514 -0.0809 -1.3451 -0.8088
  324MOL0     H42765   3.474   4.964   4.617 -0.1541 -2.5845 -0.2719
  324MOL0     H42766   3.326   4.710   4.349 -0.2205 -0.3038 -0.2260
  324MOL0     H42767   3.078   5.409   4.255 -1.3012 -0.9184  1.9654
  324MOL0     H42768   2.867   5.377   4.132 -0.8519 -1.4753  1.7286
  325MOL0     O42769   2.522   7.328   6.068 -1.3232  0.1043 -0.9461
  325MOL0     C42770   2.558   7.263   6.167  0.8459  0.0864  0.1917
  325MOL0     O42771   2.485   7.171   6.230 -0.5558 -0.5266 -0.0047
  325MOL0     C42772   2.355   7.155   6.203  0.1366  0.0847  0.2531
  325MOL0     C42773   2.317   7.094   6.085 -0.0231  0.0707  0.1547
  325MOL0     C42774   2.187   7.058   6.071 -0.7165  0.0708  0.9550
  325MOL0     C42775   2.084   7.091   6.160  0.4687  0.3348 -0.0223
  325MOL0     O42776   1.950   7.071   6.137 -0.6987  0.7013 -0.5012
  325MOL0     C42777   1.898   7.066   6.008 -0.4832 -0.2730  0.3762
  325MOL0     C42778   1.754   7.022   6.009 -0.1809  0.9664 -1.2172
  325MOL0     C42779   1.677   7.144   6.063 -0.0369  0.7363 -0.0740
  325MOL0     C42780   1.527   7.103   6.060 -0.4913  0.2939  0.2143
  325MOL0     C42781   1.437   7.223   6.110 -0.3670  0.2921  0.3193
  325MOL0     C42782   1.435   7.240   6.255  0.3462  0.5214 -0.3992
  325MOL0     C42783   1.317   7.328   6.307 -0.6010 -0.6156  0.5138
  325MOL0     C42784   1.332   7.472   6.251  0.4088  0.2944 -0.0530
  325MOL0     N42785   1.238   7.573   6.301  0.2510 -0.0877  0.2265
  325MOL0     C42786   1.154   7.657   6.223  0.3599 -0.3585 -0.1746
  325MOL0     C42787   1.131   7.755   6.304 -0.3845 -0.0989 -0.0169
  325MOL0     C42788   1.054   7.871   6.268  0.9094  0.2308  0.6546
  325MOL0     C42789   0.900   7.836   6.275 -0.1576 -0.3632 -0.5578
  325MOL0     C42790   0.843   7.822   6.134  0.4482 -0.8631  0.8189
  325MOL0     C42791   0.694   7.778   6.137 -0.3011 -0.0016  0.1597
  325MOL0     O42792   0.641   7.748   6.007  0.5329  0.2529 -0.8280
  325MOL0     C42793   0.505   7.704   6.007 -0.4546 -0.9921 -0.8724
  325MOL0     C42794   0.432   7.643   6.111 -0.7951  0.3703 -0.1552
  325MOL0     C42795   0.297   7.608   6.101  1.1947 -1.1607 -0.8517
  325MOL0     C42796   0.232   7.612   5.970  0.2507  0.1196 -0.3452
  325MOL0     C42797   0.091   7.575   5.939  0.8825 -0.8039  0.3668
  325MOL0     O42798   0.043   7.582   5.809 -0.4685  0.3879 -0.5472
  325MOL0     C42799  -0.082   7.531   5.793  0.5205  0.0582  0.0386
  325MOL0     C42800  -0.173   7.598   5.718  0.3519 -0.9548 -1.2996
  325MOL0     C42801  -0.303   7.548   5.699 -0.1392  0.2322  1.0989
  325MOL0     C42802  -0.345   7.422   5.753 -0.0114 -0.2555 -0.6749
  325MOL0     O42803  -0.475   7.377   5.743  0.2859  0.5485  0.1422
  325MOL0     C42804  -0.576   7.470   5.691 -0.0842  0.3476 -0.8480
  325MOL0     C42805  -0.715   7.409   5.695 -0.1452 -0.7911 -0.1483
  325MOL0     C42806  -0.807   7.440   5.821  0.3613 -0.7406  0.0126
  325MOL0     C42807  -0.957   7.426   5.794  0.3287  0.0073 -0.1088
  325MOL0     C42808  -1.034   7.476   5.919  0.0108  0.3258 -0.5006
  325MOL0     C42809  -1.190   7.472   5.906 -0.2371 -0.0980  0.7743
  325MOL0     C42810  -1.241   7.333   5.904 -0.1457 -0.7737  0.2037
  325MOL0     C42811  -1.393   7.328   5.918 -0.3132  1.2479 -0.1265
  325MOL0    Cl42812  -1.442   7.166   5.860 -0.4226  0.1457 -0.6288
  325MOL0     C42813  -0.253   7.343   5.822  0.1029 -0.7586  0.1328
  325MOL0     C42814  -0.122   7.405   5.838  0.0607  0.0650 -0.5404
  325MOL0     O42815   0.029   7.533   6.035  0.2046 -0.0155 -0.2150
  325MOL0     C42816   0.306   7.666   5.861 -0.6823  0.3720  1.1423
  325MOL0     C42817   0.437   7.710   5.886  0.4332 -0.1332 -1.1059
  325MOL0     N42818   1.184   7.727   6.425 -0.0745 -0.9949  0.2558
  325MOL0     N42819   1.245   7.622   6.423  0.7807  0.5930 -0.7214
  325MOL0     C42820   2.128   7.143   6.280  0.6301 -0.0787  0.7893
  325MOL0     C42821   2.259   7.163   6.310 -0.2705 -0.3447 -0.4304
  325MOL0     C42822   2.699   7.281   6.220  0.3927  0.6615 -0.6076
  325MOL0     C42823   2.792   7.353   6.154  0.4260 -1.1653  0.2100
  325MOL0     C42824   2.920   7.374   6.199  0.6551  0.1580  0.0053
  325MOL0     C42825   2.959   7.319   6.318  0.3071  0.7240 -0.3834
  325MOL0     O42826   3.094   7.324   6.365 -0.1920 -0.0243  0.0241
  325MOL0     C42827   3.197   7.406   6.303  0.3154  0.3386  0.2945
  325MOL0     C42828   3.278   7.319   6.200  0.2940  0.4281  0.8642
  325MOL0     C42829   3.431   7.314   6.230 -0.0876 -0.2193  0.3292
  325MOL0     C42830   3.495   7.200   6.145 -0.0956  0.2834  0.4938
  325MOL0     C42831   3.638   7.235   6.140 -0.6148  0.2449  0.3909
  325MOL0     C42832   3.752   7.280   6.121 -0.6807 -0.1184  0.1203
  325MOL0     C42833   2.867   7.249   6.395 -0.2920  0.4389  0.3589
  325MOL0     C42834   2.737   7.236   6.348 -0.3603  0.5493 -0.7730
  325MOL0     H42835   2.396   7.086   6.011 -0.0881 -1.2283  0.2108
  325MOL0     H42836   2.172   7.002   5.979  2.7542 -0.3605  0.5315
  325MOL0     H42837   1.949   6.989   5.949 -1.5152  1.0584 -2.3828
  325MOL0     H42838   1.914   7.164   5.964  1.3893  0.0197  1.5804
  325MOL0     H42839   1.732   6.938   6.075 -1.4812  1.2263 -1.2915
  325MOL0     H42840   1.720   6.991   5.910  0.4866  0.8140 -1.4034
  325MOL0     H42841   1.692   7.230   5.997 -1.4327  0.6600 -0.5137
  325MOL0     H42842   1.702   7.168   6.167  2.7004 -2.3243  0.1203
  325MOL0     H42843   1.512   7.072   5.956 -3.1801 -0.2588  0.6772
  325MOL0     H42844   1.504   7.011   6.115  1.2269 -0.5508 -0.3870
  325MOL0     H42845   1.334   7.204   6.078 -0.2669 -0.6444  0.5367
  325MOL0     H42846   1.471   7.321   6.076  2.0971 -0.1026  1.4853
  325MOL0     H42847   1.529   7.294   6.270  0.5754  0.5947 -1.9959
  325MOL0     H42848   1.426   7.146   6.310 -4.3136  0.5436 -0.7038
  325MOL0     H42849   1.221   7.295   6.267 -0.0943 -2.1642  0.5085
  325MOL0     H42850   1.317   7.318   6.416  1.5678 -2.0212  0.4593
  325MOL0     H42851   1.326   7.474   6.142 -1.3759 -1.1583 -0.0409
  325MOL0     H42852   1.432   7.500   6.284 -0.0545 -0.9017  2.6012
  325MOL0     H42853   1.108   7.643   6.126  0.5501  4.1118 -1.1300
  325MOL0     H42854   1.078   7.892   6.164 -2.4242 -1.0117 -0.4724
  325MOL0     H42855   1.071   7.965   6.322 -1.0198  0.7683  0.3859
  325MOL0     H42856   0.847   7.921   6.320  2.6602  1.8039 -1.0829
  325MOL0     H42857   0.874   7.745   6.330 -1.8387 -1.0885 -2.4356
  325MOL0     H42858   0.840   7.923   6.092  0.9775  0.2802  3.3559
  325MOL0     H42859   0.898   7.752   6.070  0.2221  0.7494 -1.2440
  325MOL0     H42860   0.634   7.852   6.191 -1.6870 -0.5708 -0.5519
  325MOL0     H42861   0.688   7.688   6.199  1.5959 -1.5170 -1.6983
  325MOL0     H42862   0.478   7.619   6.206  1.4483 -1.0515 -1.5037
  325MOL0     H42863   0.246   7.571   6.190 -0.0244  1.9537 -0.1234
  325MOL0     H42864  -0.142   7.696   5.684 -0.8156  0.4820  1.4730
  325MOL0     H42865  -0.364   7.611   5.636  0.0728  1.1099  1.7536
  325MOL0     H42866  -0.547   7.490   5.587  3.9187 -0.1888  0.0322
  325MOL0     H42867  -0.573   7.564   5.747  0.1915 -1.4916  2.4400
  325MOL0     H42868  -0.720   7.303   5.667 -1.0534 -0.1563 -2.6346
  325MOL0     H42869  -0.754   7.469   5.613  2.2147 -1.2309 -1.6898
  325MOL0     H42870  -0.795   7.543   5.856 -1.1049 -1.2667  2.3339
  325MOL0     H42871  -0.776   7.374   5.903 -2.1806 -1.2480  0.6784
  325MOL0     H42872  -0.991   7.487   5.709 -0.8657 -1.2624 -0.5770
  325MOL0     H42873  -0.961   7.318   5.779 -3.1342 -0.3429  2.1195
  325MOL0     H42874  -1.000   7.576   5.945 -0.9347  0.9489 -1.5872
  325MOL0     H42875  -1.007   7.400   5.994 -1.3631 -0.1119 -0.4159
  325MOL0     H42876  -1.225   7.525   5.817 -1.9488 -2.1826  0.0981
  325MOL0     H42877  -1.223   7.533   5.991  0.4300  1.3698  0.0087
  325MOL0     H42878  -1.208   7.297   5.806  3.2741  2.6439 -0.1253
  325MOL0     H42879  -1.202   7.274   5.988 -1.5027 -2.3605 -0.2265
  325MOL0     H42880  -1.444   7.407   5.863  2.0534  1.6955 -1.8379
  325MOL0     H42881  -1.426   7.332   6.022  2.2640 -0.0731  0.8410
  325MOL0     H42882  -0.290   7.245   5.850 -3.6511  0.8766  1.4806
  325MOL0     H42883  -0.049   7.347   5.894 -0.2157  0.5501  0.3430
  325MOL0     H42884   0.270   7.699   5.764 -0.6050 -0.8546  0.6718
  325MOL0     H42885   0.497   7.738   5.800  2.7984 -0.8372  0.2179
  325MOL0     H42886   2.048   7.176   6.345 -0.8732  0.9789 -1.4811
  325MOL0     H42887   2.303   7.202   6.401  0.4865 -0.8571 -0.5631
  325MOL0     H42888   2.757   7.398   6.061 -0.9653 -2.3367  0.1149
  325MOL0     H42889   2.987   7.431   6.136 -0.9105  1.4111 -0.5989
  325MOL0     H42890   3.263   7.430   6.387  0.6524 -1.4016  0.5653
  325MOL0     H42891   3.155   7.502   6.272 -1.4223  0.4511  2.7245
  325MOL0     H42892   3.239   7.217   6.209  0.2178  0.4415  0.6864
  325MOL0     H42893   3.257   7.364   6.103  0.1604  0.3432  0.8532
  325MOL0     H42894   3.434   7.286   6.336  2.4109 -2.5416 -0.2266
  325MOL0     H42895   3.469   7.415   6.212 -2.6940  0.7444 -0.1028
  325MOL0     H42896   3.498   7.105   6.200 -3.3298  1.0330  2.1955
  325MOL0     H42897   3.452   7.185   6.046 -0.0270 -3.5834  0.9117
  325MOL0     H42898   3.852   7.316   6.104  0.7997 -3.0942  1.7041
  325MOL0     H42899   2.892   7.201   6.489  1.1098 -0.5050 -0.4693
  325MOL0     H42900   2.659   7.211   6.419  1.4440  0.7630  1.4105
  326MOL0     O42901   6.290   9.992   1.123 -0.1241  0.3298 -0.3236
  326MOL0     C42902   6.300   9.890   1.066  0.5653  0.1714  0.6875
  326MOL0     O42903   6.200   9.792   1.061 -0.1420  0.0330  0.3468
  326MOL0     C42904   6.082   9.793   1.127  0.4026  1.1579  0.0050
  326MOL0     C42905   6.019   9.890   1.205  0.6060 -0.3386  0.5644
  326MOL0     C42906   5.892   9.859   1.262  0.2025  0.2993 -0.1470
  326MOL0     C42907   5.826   9.737   1.237  0.0757  0.0555 -0.0637
  326MOL0     O42908   5.707   9.698   1.288 -0.1009 -0.8997 -0.1556
  326MOL0     C42909   5.611   9.793   1.322 -0.2417 -0.5029 -0.6129
  326MOL0     C42910   5.475   9.728   1.321  0.1516  1.8431  0.0331
  326MOL0     C42911   5.455   9.592   1.398  0.1094 -0.2953  0.4633
  326MOL0     C42912   5.309   9.530   1.387  0.7133 -0.3856 -0.5747
  326MOL0     C42913   5.211   9.612   1.473  1.3650  0.1210 -0.0389
  326MOL0     C42914   5.062   9.556   1.457 -0.4572  0.4624  0.0706
  326MOL0     C42915   4.967   9.660   1.518 -0.1122  0.2492  0.6758
  326MOL0     C42916   4.977   9.696   1.668 -0.0958 -0.7049 -0.1538
  326MOL0     N42917   4.852   9.754   1.723 -0.2950  0.2987 -0.4634
  326MOL0     C42918   4.791   9.869   1.682  0.4063 -0.2369 -0.2908
  326MOL0     C42919   4.680   9.884   1.758  1.3979  1.0129 -0.2234
  326MOL0     C42920   4.602  10.010   1.759  0.9199 -0.2115 -0.4049
  326MOL0     C42921   4.688  10.133   1.797  0.1477 -0.1625  0.7460
  326MOL0     C42922   4.605  10.260   1.820  0.2316 -0.6463  0.5124
  326MOL0     C42923   4.533  10.309   1.694 -0.1188 -0.5176  0.4204
  326MOL0     O42924   4.641  10.339   1.593 -0.0862  0.1626 -0.2631
  326MOL0     C42925   4.697  10.460   1.611 -0.1267 -0.1898 -0.1029
  326MOL0     C42926   4.781  10.502   1.507 -0.0334 -0.0151  0.0682
  326MOL0     C42927   4.843  10.623   1.516 -0.3259 -0.2332 -0.0958
  326MOL0     C42928   4.814  10.720   1.618  0.2198  0.2716  0.1319
  326MOL0     C42929   4.876  10.853   1.623 -0.6706 -0.3492 -0.2009
  326MOL0     O42930   4.969  10.864   1.530  0.1032  0.0411  0.1022
  326MOL0     C42931   5.082  10.934   1.559  0.4321  0.1834  0.0855
  326MOL0     C42932   5.123  11.013   1.452 -0.0401  0.5509  0.2919
  326MOL0     C42933   5.242  11.084   1.463 -0.6255  0.8535 -0.0716
  326MOL0     C42934   5.321  11.077   1.580 -0.0090  0.1722 -0.0247
  326MOL0     O42935   5.443  11.144   1.582 -0.4279  0.3450 -0.1431
  326MOL0     C42936   5.541  11.126   1.482 -0.2589 -0.1893 -0.0813
  326MOL0     C42937   5.656  11.206   1.524  0.5260  0.4670  0.1496
  326MOL0     C42938   5.781  11.170   1.453 -0.4347  0.8745 -0.1369
  326MOL0     C42939   5.907  11.193   1.527  0.4683 -0.4101  0.2043
  326MOL0     C42940   6.023  11.101   1.472  0.3574 -0.3605 -0.1298
  326MOL0     C42941   6.156  11.168   1.510  0.9029  0.6871  0.4605
  326MOL0     C42942   6.274  11.082   1.468  0.3545  0.9047 -0.5960
  326MOL0     C42943   6.396  11.163   1.515 -0.4645  0.0967  0.8205
  326MOL0    Cl42944   6.542  11.079   1.496 -0.6074  0.4073  0.3534
  326MOL0     C42945   5.282  10.990   1.684  0.9095 -0.6166 -0.0539
  326MOL0     C42946   5.153  10.928   1.681 -0.0822 -0.3430 -0.5816
  326MOL0     O42947   4.855  10.941   1.710  1.0103 -0.1107  0.4622
  326MOL0     C42948   4.722  10.682   1.721 -0.2004 -0.5088 -0.2140
  326MOL0     C42949   4.665  10.556   1.715  0.4112  0.3498  0.2393
  326MOL0     N42950   4.678   9.780   1.846  0.8530 -0.0569 -0.7166
  326MOL0     N42951   4.779   9.702   1.826  0.1338 -0.1067  0.4126
  326MOL0     C42952   5.883   9.644   1.154 -0.2521 -0.4743  0.2035
  326MOL0     C42953   6.014   9.668   1.106 -0.3696 -0.7027 -0.5781
  326MOL0     C42954   6.424   9.851   0.986 -0.1571 -0.7745  0.3071
  326MOL0     C42955   6.522   9.948   0.956 -0.2521 -0.1038  0.1016
  326MOL0     C42956   6.637   9.923   0.893  0.1416 -0.9901 -0.6629
  326MOL0     C42957   6.672   9.799   0.865  0.6237  0.1414 -0.2799
  326MOL0     O42958   6.792   9.757   0.813 -0.3417  0.2709  0.0227
  326MOL0     C42959   6.884   9.848   0.756 -0.4860 -0.1676  0.1322
  326MOL0     C42960   7.023   9.780   0.721  0.4423 -0.5681 -0.5100
  326MOL0     C42961   7.121   9.872   0.642 -0.5566  1.1407 -0.2427
  326MOL0     C42962   7.269   9.816   0.629 -0.2378 -0.7083  0.2912
  326MOL0     C42963   7.374   9.921   0.637  0.9442  0.3308 -0.8913
  326MOL0     C42964   7.458  10.004   0.652 -0.0990 -0.6588  0.4228
  326MOL0     C42965   6.570   9.696   0.882 -0.2369  0.3107 -0.2283
  326MOL0     C42966   6.445   9.721   0.936 -0.1846  0.5435  0.2386
  326MOL0     H42967   6.061   9.987   1.231 -3.5891  1.2619  2.0931
  326MOL0     H42968   5.845   9.926   1.334 -0.5757 -2.0506  1.6618
  326MOL0     H42969   5.598   9.870   1.245 -0.6579  0.1714  0.1244
  326MOL0     H42970   5.625   9.828   1.425  1.7055 -4.3116  0.6062
  326MOL0     H42971   5.456   9.711   1.215 -0.5887 -0.8038  0.5176
  326MOL0     H42972   5.394   9.798   1.344 -2.0925 -0.7468  0.4862
  326MOL0     H42973   5.479   9.602   1.505  0.2548 -1.7225  0.5746
  326MOL0     H42974   5.518   9.517   1.351 -1.7227 -2.5909  1.4567
  326MOL0     H42975   5.270   9.537   1.285 -0.6036  3.2032  0.0229
  326MOL0     H42976   5.314   9.429   1.427  2.8911  0.7025  2.2994
  326MOL0     H42977   5.203   9.716   1.441  0.6079 -0.1084 -0.6182
  326MOL0     H42978   5.240   9.607   1.579 -0.1017  0.6910  0.4185
  326MOL0     H42979   5.047   9.461   1.508  0.6955 -0.0754 -0.5531
  326MOL0     H42980   5.040   9.545   1.350 -0.8526  0.4907  0.1495
  326MOL0     H42981   4.973   9.752   1.459  2.8154 -0.7668 -0.8228
  326MOL0     H42982   4.866   9.618   1.509  0.5507 -1.6360  1.6100
  326MOL0     H42983   5.064   9.761   1.680 -0.8605  0.8246 -2.2578
  326MOL0     H42984   5.003   9.607   1.727  3.7804  1.5075  1.8723
  326MOL0     H42985   4.835   9.936   1.608  1.9753 -0.5628  0.3022
  326MOL0     H42986   4.523   9.993   1.833  1.9020 -0.1499  0.6970
  326MOL0     H42987   4.563  10.031   1.659 -1.8871 -1.0463  0.4102
  326MOL0     H42988   4.765  10.162   1.725 -1.0496  4.0679  0.9397
  326MOL0     H42989   4.734  10.093   1.887 -0.8596 -2.5335  0.3036
  326MOL0     H42990   4.525  10.236   1.891 -1.6691  3.3322  0.0189
  326MOL0     H42991   4.676  10.330   1.865  1.2344 -2.0163  1.1137
  326MOL0     H42992   4.463  10.389   1.721 -1.8185 -2.1590  1.0120
  326MOL0     H42993   4.467  10.231   1.656  3.7241 -2.6520 -2.6843
  326MOL0     H42994   4.801  10.439   1.421 -1.5690 -0.9369  0.3458
  326MOL0     H42995   4.914  10.655   1.441 -2.1714  0.9731 -1.4361
  326MOL0     H42996   5.077  11.015   1.353 -1.3433  0.8703  0.8859
  326MOL0     H42997   5.283  11.139   1.380  3.1838 -0.4667  0.7239
  326MOL0     H42998   5.501  11.156   1.384  1.7804 -1.1284 -1.2754
  326MOL0     H42999   5.567  11.021   1.467 -0.7538 -0.5689  1.5882
  326MOL0     H43000   5.679  11.183   1.628  1.8947  2.4865  0.3511
  326MOL0     H43001   5.625  11.309   1.503  0.4537  0.0205 -2.1657
  326MOL0     H43002   5.777  11.231   1.361 -1.3742  1.0150 -0.0185
  326MOL0     H43003   5.778  11.065   1.424  1.8539  0.4145  1.1008
  326MOL0     H43004   5.938  11.297   1.509 -1.0557  0.3159  1.4973
  326MOL0     H43005   5.895  11.172   1.634 -1.3945  0.6286  0.2360
  326MOL0     H43006   6.014  11.089   1.364  1.2767  1.4362 -0.4510
  326MOL0     H43007   6.016  11.002   1.518  1.3176 -0.9158 -1.1314
  326MOL0     H43008   6.152  11.194   1.616 -1.8399 -1.4181  0.9729
  326MOL0     H43009   6.161  11.261   1.452 -2.1629 -0.5900 -2.1492
  326MOL0     H43010   6.274  10.984   1.517 -0.1237  0.5883 -1.2135
  326MOL0     H43011   6.284  11.062   1.361 -0.3870  1.2664 -0.7429
  326MOL0     H43012   6.389  11.185   1.622  3.7153 -1.5569  1.6410
  326MOL0     H43013   6.400  11.256   1.457  2.3695 -0.6228 -0.2633
  326MOL0     H43014   5.349  10.977   1.769  0.1174  0.2514  0.7244
  326MOL0     H43015   5.122  10.878   1.773  2.0092  2.8243  2.0797
  326MOL0     H43016   4.684  10.753   1.794  2.2006  1.0027 -0.3026
  326MOL0     H43017   4.590  10.537   1.791 -1.3720  2.5818 -0.8439
  326MOL0     H43018   5.828   9.560   1.112 -3.1097  1.0179  0.6923
  326MOL0     H43019   6.064   9.587   1.054  0.5283 -1.4557  1.3254
  326MOL0     H43020   6.502  10.052   0.983 -1.2320 -0.4452  0.7683
  326MOL0     H43021   6.708  10.002   0.871 -1.1431  0.0500 -1.2382
  326MOL0     H43022   6.897   9.937   0.818 -1.1577 -1.0311  1.5429
  326MOL0     H43023   6.836   9.898   0.671 -1.0518 -0.7537  0.0991
  326MOL0     H43024   7.067   9.746   0.815  1.5168 -0.7743 -1.0666
  326MOL0     H43025   6.994   9.687   0.672 -0.8217  0.2072 -1.2896
  326MOL0     H43026   7.122   9.970   0.691 -0.7105  2.5295 -2.8531
  326MOL0     H43027   7.080   9.888   0.542  0.3231  0.7471 -0.6880
  326MOL0     H43028   7.286   9.756   0.719  2.0008 -0.6548 -0.0350
  326MOL0     H43029   7.280   9.747   0.545  0.1163 -1.0245  0.5967
  326MOL0     H43030   7.537  10.076   0.657  0.6450 -1.3168 -1.2888
  326MOL0     H43031   6.583   9.593   0.851  1.3246  1.2208 -2.9108
  326MOL0     H43032   6.369   9.645   0.947 -1.7940  2.3138  2.1791
  327MOL0     O43033   4.631   2.268   9.214 -0.0708 -0.1014  0.1337
  327MOL0     C43034   4.640   2.373   9.162 -0.2832  0.6713  0.6397
  327MOL0     O43035   4.749   2.460   9.177  0.4258 -0.0356 -0.1668
  327MOL0     C43036   4.848   2.424   9.262 -0.5458 -0.7406 -0.1795
  327MOL0     C43037   4.974   2.413   9.201 -0.5910 -0.0630  0.7543
  327MOL0     C43038   5.076   2.360   9.270 -0.8121 -0.9339  0.8983
  327MOL0     C43039   5.069   2.346   9.407 -0.6194 -0.0443  0.8585
  327MOL0     O43040   5.194   2.312   9.471  0.2707 -0.1134 -0.2345
  327MOL0     C43041   5.200   2.316   9.616  0.0498 -0.7599 -0.8687
  327MOL0     C43042   5.349   2.347   9.664  0.4609 -0.6475  0.3622
  327MOL0     C43043   5.408   2.474   9.612 -0.6292  0.1226 -0.4581
  327MOL0     C43044   5.532   2.527   9.695  0.6098 -0.3365 -0.5826
  327MOL0     C43045   5.561   2.676   9.662  0.3906  0.0757 -0.0712
  327MOL0     C43046   5.596   2.691   9.513  0.4831  0.8596 -0.3086
  327MOL0     C43047   5.628   2.836   9.482 -0.5213 -0.5717  0.3907
  327MOL0     C43048   5.745   2.900   9.550 -0.0572  0.1966  0.0279
  327MOL0     N43049   5.865   2.817   9.544 -0.1479 -0.2808  0.5475
  327MOL0     C43050   5.953   2.787   9.649  0.2364  0.7845 -0.4475
  327MOL0     C43051   6.050   2.706   9.594  0.6878 -0.0530 -0.3817
  327MOL0     C43052   6.170   2.656   9.678  0.3957  0.1591  0.2919
  327MOL0     C43053   6.197   2.501   9.661 -0.7055  0.1957  0.1471
  327MOL0     C43054   6.072   2.412   9.700 -0.6156  0.8923  0.6673
  327MOL0     C43055   5.966   2.383   9.578 -0.3051  0.0592 -0.4770
  327MOL0     O43056   5.882   2.281   9.621 -0.3332  0.1866  0.4102
  327MOL0     C43057   5.772   2.247   9.547  0.5582 -0.1202 -0.6534
  327MOL0     C43058   5.715   2.334   9.449  0.2079  0.4674 -0.3078
  327MOL0     C43059   5.593   2.292   9.382 -0.0803 -0.3407  0.3033
  327MOL0     C43060   5.545   2.159   9.396 -0.4160  0.9397 -0.5165
  327MOL0     C43061   5.422   2.128   9.321 -0.0878 -0.0418 -0.3769
  327MOL0     O43062   5.355   2.018   9.358 -0.4403 -0.6684 -0.5635
  327MOL0     C43063   5.240   1.987   9.291 -0.2274 -0.2615 -0.4446
  327MOL0     C43064   5.240   1.920   9.172  0.5866  0.1861  0.4278
  327MOL0     C43065   5.115   1.887   9.113  0.1886 -0.0729  0.3314
  327MOL0     C43066   4.989   1.908   9.181 -0.4815  0.3131  0.4647
  327MOL0     O43067   4.868   1.873   9.124 -0.5404 -0.2114  0.3431
  327MOL0     C43068   4.748   1.928   9.175  0.0988 -1.3876 -0.1605
  327MOL0     C43069   4.632   1.868   9.093 -0.5129  0.3888 -0.6063
  327MOL0     C43070   4.494   1.904   9.152  0.3586  0.6678  0.2526
  327MOL0     C43071   4.375   1.875   9.049 -0.3509  1.2241  0.1967
  327MOL0     C43072   4.253   1.948   9.095  0.8796  0.0242  0.1034
  327MOL0     C43073   4.133   1.873   9.039  0.3098  0.2271  0.4594
  327MOL0     C43074   3.993   1.933   9.078  0.0576  0.2752  0.1962
  327MOL0     C43075   3.894   1.871   8.985  0.0413  0.9162  0.5670
  327MOL0    Cl43076   3.734   1.942   8.986  0.3291  0.0753  0.6139
  327MOL0     C43077   4.999   1.971   9.302 -0.5777  0.3832 -0.1660
  327MOL0     C43078   5.125   2.005   9.364 -0.8390 -0.0743 -0.2257
  327MOL0     O43079   5.388   2.199   9.225 -0.0504  0.3707  0.6679
  327MOL0     C43080   5.613   2.069   9.490  0.0932 -0.0343  0.5095
  327MOL0     C43081   5.718   2.116   9.564 -0.3974  0.2300  0.3605
  327MOL0     N43082   6.025   2.697   9.463  0.8289 -0.4438 -0.0147
  327MOL0     N43083   5.915   2.757   9.429 -0.8341  0.0840  0.4958
  327MOL0     C43084   4.951   2.374   9.465  0.3307  0.0255  0.3625
  327MOL0     C43085   4.833   2.412   9.398  0.7133  0.7246 -0.0140
  327MOL0     C43086   4.527   2.428   9.087 -0.3401  0.2585 -0.3100
  327MOL0     C43087   4.434   2.336   9.040 -0.1523 -0.2260  0.6350
  327MOL0     C43088   4.319   2.398   8.986 -1.0456  0.3430  0.0600
  327MOL0     C43089   4.291   2.531   9.000  0.5089  0.0357  0.5159
  327MOL0     O43090   4.164   2.568   8.959 -0.7324  0.6291  0.3256
  327MOL0     C43091   4.148   2.704   8.940 -0.4226 -1.4787  0.0941
  327MOL0     C43092   4.012   2.725   8.873  0.4243 -0.9552  0.0894
  327MOL0     C43093   3.898   2.721   8.972 -0.3561  0.7109  0.4337
  327MOL0     C43094   3.767   2.681   8.911  0.0030  0.0551  0.8632
  327MOL0     C43095   3.721   2.777   8.806  0.3984 -0.1834 -0.4727
  327MOL0     C43096   3.674   2.849   8.722 -0.4054 -0.2776  1.0423
  327MOL0     C43097   4.388   2.616   9.056 -0.2069  0.0916  0.0219
  327MOL0     C43098   4.511   2.575   9.079 -0.0351  0.4413  0.5584
  327MOL0     H43099   4.987   2.421   9.093  1.5699  2.1974  1.1146
  327MOL0     H43100   5.167   2.348   9.212 -3.0654  0.6503 -3.3966
  327MOL0     H43101   5.169   2.232   9.679  1.8613  0.3466  1.6670
  327MOL0     H43102   5.149   2.407   9.647  3.9681  1.6509 -0.8948
  327MOL0     H43103   5.413   2.268   9.622  2.0737  2.0498 -2.7839
  327MOL0     H43104   5.358   2.347   9.773 -0.9420  1.2282  0.5287
  327MOL0     H43105   5.334   2.554   9.605 -1.1672 -0.2935  0.3567
  327MOL0     H43106   5.447   2.446   9.514  1.3871  0.5069  0.1937
  327MOL0     H43107   5.517   2.518   9.803  4.4326  1.6446  0.2891
  327MOL0     H43108   5.620   2.472   9.661 -0.7691 -1.1454 -3.0683
  327MOL0     H43109   5.643   2.710   9.725  0.5471 -2.3246  1.1424
  327MOL0     H43110   5.472   2.736   9.682  0.6798  0.3523  0.4006
  327MOL0     H43111   5.509   2.669   9.450  1.0737  0.5268 -1.0174
  327MOL0     H43112   5.673   2.620   9.485 -0.7491 -0.2410 -1.0283
  327MOL0     H43113   5.655   2.857   9.378  0.4043  0.5656  0.8390
  327MOL0     H43114   5.539   2.898   9.500 -1.6017 -1.0721 -2.6457
  327MOL0     H43115   5.720   2.931   9.652 -2.7477 -0.4933 -0.3525
  327MOL0     H43116   5.766   2.997   9.503  2.3009 -0.7361 -0.9925
  327MOL0     H43117   5.941   2.801   9.756 -3.1787 -2.7162 -0.1507
  327MOL0     H43118   6.160   2.693   9.780  2.0991  2.8366 -0.4031
  327MOL0     H43119   6.261   2.707   9.644  0.6469  0.6291  1.6142
  327MOL0     H43120   6.285   2.469   9.719 -1.2333  2.5707  2.4845
  327MOL0     H43121   6.223   2.488   9.556  1.9980 -0.4261  0.8120
  327MOL0     H43122   6.113   2.314   9.727  0.2161  1.1681  0.4384
  327MOL0     H43123   6.021   2.452   9.788 -0.1378  2.2704  0.3497
  327MOL0     H43124   6.023   2.349   9.491 -2.2787 -0.5390 -1.6072
  327MOL0     H43125   5.911   2.474   9.553 -2.1150 -1.0975 -0.9011
  327MOL0     H43126   5.748   2.433   9.419  0.6641  0.4899  0.2603
  327MOL0     H43127   5.545   2.363   9.315 -1.7050 -2.6050 -1.0306
  327MOL0     H43128   5.333   1.892   9.121  1.1387  0.2668  1.3627
  327MOL0     H43129   5.115   1.846   9.012 -0.5663  1.3690 -0.2774
  327MOL0     H43130   4.745   2.037   9.169  0.6217 -1.4429 -2.0595
  327MOL0     H43131   4.739   1.901   9.280  0.1568  1.6892  0.7547
  327MOL0     H43132   4.649   1.760   9.097  4.1630  0.9170 -0.6192
  327MOL0     H43133   4.639   1.906   8.990 -0.7161 -0.0086 -0.7707
  327MOL0     H43134   4.489   2.011   9.174  0.8711  0.9779 -1.0349
  327MOL0     H43135   4.473   1.854   9.247 -2.1394 -0.8295 -0.9766
  327MOL0     H43136   4.401   1.897   8.945 -1.0807 -0.6128 -0.4075
  327MOL0     H43137   4.345   1.770   9.053 -2.1784  1.7354  0.7266
  327MOL0     H43138   4.272   2.051   9.066  0.1465  0.4097  0.9491
  327MOL0     H43139   4.252   1.947   9.204 -1.0451  1.7724  0.1592
  327MOL0     H43140   4.143   1.771   9.078  2.4350  0.5632  0.9106
  327MOL0     H43141   4.142   1.875   8.930  2.3757  1.4315  0.5935
  327MOL0     H43142   3.968   1.887   9.174 -3.3406 -2.5911 -1.7668
  327MOL0     H43143   3.992   2.042   9.073 -1.5410  0.3570  1.5019
  327MOL0     H43144   3.883   1.765   9.010  0.6413  0.4656 -0.9489
  327MOL0     H43145   3.924   1.882   8.880  2.4801  1.7635  1.2839
  327MOL0     H43146   4.913   1.997   9.363  0.2017 -1.0189  1.6185
  327MOL0     H43147   5.131   2.051   9.462  0.6040  0.3127 -0.4662
  327MOL0     H43148   5.560   1.976   9.504  0.3635 -0.0708  1.3858
  327MOL0     H43149   5.758   2.041   9.631 -1.4794  0.2849  1.0898
  327MOL0     H43150   4.939   2.378   9.572  2.7953  0.7982  0.6530
  327MOL0     H43151   4.739   2.427   9.450  0.3502 -0.7094 -0.1994
  327MOL0     H43152   4.446   2.231   9.062 -3.0591 -0.4779  1.4945
  327MOL0     H43153   4.248   2.324   8.949  1.2342 -1.5216 -0.8873
  327MOL0     H43154   4.235   2.749   8.891  0.1487 -0.5663  1.8681
  327MOL0     H43155   4.146   2.739   9.044  1.9859 -0.1114 -0.2484
  327MOL0     H43156   4.002   2.823   8.826  0.1850 -0.0869  1.8872
  327MOL0     H43157   4.002   2.657   8.788 -1.5728  1.5786 -1.8574
  327MOL0     H43158   3.907   2.814   9.029  2.2651 -0.0006  1.3369
  327MOL0     H43159   3.934   2.649   9.046  2.8288  2.8646  1.2155
  327MOL0     H43160   3.788   2.586   8.861 -0.1999  0.9498 -0.9933
  327MOL0     H43161   3.688   2.663   8.985  0.4234 -0.4700  1.1961
  327MOL0     H43162   3.618   2.897   8.644  0.9251 -0.6624 -0.1889
  327MOL0     H43163   4.369   2.719   9.081  0.4704  0.1232  0.4303
  327MOL0     H43164   4.584   2.632   9.136  2.0665 -1.6566  0.1523
  328MOL0     O43165   0.150   1.276   5.462  0.1155 -0.3982 -1.0433
  328MOL0     C43166   0.050   1.278   5.384  0.1513 -0.6206 -0.1697
  328MOL0     O43167   0.059   1.295   5.249  0.4391 -0.1006  0.0559
  328MOL0     C43168   0.177   1.350   5.203  0.5074  0.6840 -0.9694
  328MOL0     C43169   0.215   1.475   5.249 -0.1467  1.2259 -0.0618
  328MOL0     C43170   0.339   1.529   5.206 -0.3763 -0.5483  1.0928
  328MOL0     C43171   0.416   1.459   5.114 -0.5840 -0.2885  0.3010
  328MOL0     O43172   0.524   1.526   5.068  0.4837 -0.8434 -0.3456
  328MOL0     C43173   0.622   1.455   4.990  0.3548 -0.9102  0.3317
  328MOL0     C43174   0.731   1.562   4.964  0.5258  0.5091 -0.3121
  328MOL0     C43175   0.840   1.498   4.880 -0.0711  0.3682  0.3024
  328MOL0     C43176   0.947   1.610   4.843  0.6235  1.3137 -0.0012
  328MOL0     C43177   1.068   1.547   4.768  0.3596 -0.3399 -0.3083
  328MOL0     C43178   1.158   1.655   4.696  0.0413  1.2645  1.0014
  328MOL0     C43179   1.264   1.574   4.608 -0.3294 -0.2578 -0.2766
  328MOL0     C43180   1.224   1.575   4.455  0.0578  0.1826 -1.0303
  328MOL0     N43181   1.227   1.710   4.405  0.9945 -0.1367 -0.6182
  328MOL0     C43182   1.317   1.815   4.419 -0.1276 -0.1059  0.0390
  328MOL0     C43183   1.282   1.907   4.331  0.3024 -0.2195  0.4629
  328MOL0     C43184   1.344   2.045   4.325  0.6671  0.0903 -0.0189
  328MOL0     C43185   1.299   2.122   4.451 -0.1986 -0.0832  0.4041
  328MOL0     C43186   1.201   2.227   4.431 -0.4614  0.2432 -0.0770
  328MOL0     C43187   1.061   2.182   4.421  0.8075 -0.6369  0.5285
  328MOL0     O43188   1.008   2.142   4.549 -0.0564 -0.5056  0.2728
  328MOL0     C43189   0.871   2.115   4.562 -1.3520  0.1838  0.6025
  328MOL0     C43190   0.769   2.193   4.503 -0.0253 -0.0980 -0.2945
  328MOL0     C43191   0.634   2.175   4.529  0.2372 -1.2433  0.8803
  328MOL0     C43192   0.603   2.067   4.617 -0.1520  0.9553  0.0698
  328MOL0     C43193   0.462   2.041   4.657 -0.4741  0.2471  0.0586
  328MOL0     O43194   0.361   2.124   4.629  0.4334 -0.2562  0.2838
  328MOL0     C43195   0.238   2.076   4.656  0.0516 -0.0028 -0.5139
  328MOL0     C43196   0.198   2.049   4.787  0.4305 -0.4222 -0.1772
  328MOL0     C43197   0.070   2.023   4.809  0.6895 -0.3318  0.6948
  328MOL0     C43198  -0.020   1.999   4.704  0.1686 -0.3135  1.2668
  328MOL0     O43199  -0.147   1.950   4.703 -0.1366 -0.4889  0.0477
  328MOL0     C43200  -0.208   1.886   4.814  0.4083  0.0307  1.0180
  328MOL0     C43201  -0.303   1.779   4.758  0.5992  0.4450  0.0836
  328MOL0     C43202  -0.415   1.831   4.659 -0.2902 -0.4538 -1.3065
  328MOL0     C43203  -0.496   1.947   4.721  0.1497  0.3350 -0.5901
  328MOL0     C43204  -0.623   1.976   4.643  0.4010  0.5144  0.6325
  328MOL0     C43205  -0.687   2.110   4.683  0.5703  0.1760  0.5643
  328MOL0     C43206  -0.757   2.118   4.813 -0.4501 -0.6430 -0.1624
  328MOL0     C43207  -0.808   2.258   4.831  0.8910  0.3279  0.5338
  328MOL0    Cl43208  -0.673   2.349   4.883 -0.0129  0.0032  0.0639
  328MOL0     C43209   0.025   2.017   4.579  0.3949 -0.7120  0.0819
  328MOL0     C43210   0.149   2.065   4.556  0.0815  0.2768  0.6000
  328MOL0     O43211   0.442   1.931   4.707  0.6219 -0.2917  0.1003
  328MOL0     C43212   0.707   1.990   4.679  0.1294 -0.3756 -0.3258
  328MOL0     C43213   0.838   2.019   4.659 -0.7762 -0.4558 -0.5075
  328MOL0     N43214   1.178   1.856   4.260 -0.0723  0.1204 -0.1865
  328MOL0     N43215   1.151   1.737   4.297 -0.6542  0.6478 -0.1488
  328MOL0     C43216   0.378   1.339   5.069  0.1659 -0.3755  0.1308
  328MOL0     C43217   0.257   1.278   5.113  0.6179 -0.7700  0.2685
  328MOL0     C43218  -0.088   1.273   5.439  0.6299 -0.3683  0.5486
  328MOL0     C43219  -0.126   1.316   5.572 -1.0649  0.7832 -0.1553
  328MOL0     C43220  -0.256   1.309   5.618  0.4110 -0.8804  0.3431
  328MOL0     C43221  -0.358   1.257   5.535  0.0395  0.7646 -0.2480
  328MOL0     O43222  -0.483   1.228   5.569  0.2966  0.0674 -0.8783
  328MOL0     C43223  -0.531   1.250   5.700 -0.8646 -0.5217 -0.3750
  328MOL0     C43224  -0.670   1.200   5.716  0.0961 -0.2850  0.1535
  328MOL0     C43225  -0.708   1.219   5.861  0.4500 -0.1138 -0.3139
  328MOL0     C43226  -0.836   1.139   5.901  0.2131 -0.0056  0.4316
  328MOL0     C43227  -0.951   1.164   5.813  0.3893  0.3996 -0.3498
  328MOL0     C43228  -1.056   1.170   5.754  0.1656  0.5343  0.3056
  328MOL0     C43229  -0.321   1.215   5.405 -0.5624 -0.7566 -1.1221
  328MOL0     C43230  -0.190   1.227   5.354  0.3508  0.1135  0.4057
  328MOL0     H43231   0.152   1.514   5.329 -0.5329 -1.7438  1.2280
  328MOL0     H43232   0.363   1.631   5.234 -0.8627  0.3904 -1.6375
  328MOL0     H43233   0.578   1.437   4.892 -1.9855  4.3971  0.0723
  328MOL0     H43234   0.671   1.381   5.054 -0.1243 -0.0570  1.7466
  328MOL0     H43235   0.775   1.588   5.061  0.2093 -0.6802  0.1667
  328MOL0     H43236   0.696   1.654   4.917  1.0099  0.0984 -1.5024
  328MOL0     H43237   0.802   1.446   4.792  0.6252 -0.8113  0.6763
  328MOL0     H43238   0.893   1.424   4.943  1.1112 -0.8029 -1.9450
  328MOL0     H43239   0.899   1.675   4.769 -0.7611  1.4262  0.9476
  328MOL0     H43240   0.982   1.673   4.925 -3.0301  1.9377  1.2797
  328MOL0     H43241   1.025   1.488   4.686 -0.2267 -0.9244  0.4022
  328MOL0     H43242   1.122   1.480   4.835 -3.5021 -3.0568  0.4550
  328MOL0     H43243   1.213   1.709   4.773  3.3426  2.2074 -1.7666
  328MOL0     H43244   1.102   1.734   4.646 -1.3164  0.2424  0.8592
  328MOL0     H43245   1.362   1.619   4.628  1.6516 -4.2109 -0.1295
  328MOL0     H43246   1.279   1.473   4.648 -1.7399  0.1491  1.4070
  328MOL0     H43247   1.123   1.535   4.444  0.3364 -0.9899  0.4633
  328MOL0     H43248   1.284   1.508   4.393  0.0744  1.5869 -2.6239
  328MOL0     H43249   1.405   1.825   4.481 -2.1491  1.6037  2.8710
  328MOL0     H43250   1.311   2.086   4.230  2.2307  0.1944 -0.5537
  328MOL0     H43251   1.453   2.038   4.320  0.7286  0.9237 -0.0111
  328MOL0     H43252   1.385   2.180   4.488  0.7029 -0.6590 -0.7073
  328MOL0     H43253   1.255   2.059   4.529 -3.6773  0.3563 -1.0389
  328MOL0     H43254   1.196   2.296   4.515  1.7931  0.6921 -0.2463
  328MOL0     H43255   1.222   2.281   4.338 -6.5154  1.9173 -0.8425
  328MOL0     H43256   1.043   2.106   4.344 -3.7014 -0.0103  0.7075
  328MOL0     H43257   1.010   2.266   4.374  2.1323 -1.2794 -2.2797
  328MOL0     H43258   0.805   2.276   4.443  4.0158 -0.4878  1.2612
  328MOL0     H43259   0.559   2.244   4.490  1.1451  0.2690  1.7149
  328MOL0     H43260   0.272   2.066   4.865 -0.2354  2.3109 -0.0324
  328MOL0     H43261   0.040   2.015   4.913 -2.7632  0.4089 -0.1082
  328MOL0     H43262  -0.272   1.956   4.868 -1.6939  1.7238 -3.2098
  328MOL0     H43263  -0.134   1.839   4.880 -3.4119 -1.5590  4.6686
  328MOL0     H43264  -0.347   1.746   4.853 -0.2936 -0.9163 -0.7725
  328MOL0     H43265  -0.253   1.689   4.721 -0.4406 -0.2808  0.4021
  328MOL0     H43266  -0.483   1.747   4.643  0.9988 -2.2719  1.8037
  328MOL0     H43267  -0.366   1.860   4.565 -0.5094 -2.2614 -2.0289
  328MOL0     H43268  -0.519   1.927   4.826  0.7918  1.0501 -0.3075
  328MOL0     H43269  -0.432   2.035   4.725 -0.3658  0.6708  0.3193
  328MOL0     H43270  -0.706   1.907   4.662 -0.8742  2.2997  1.9012
  328MOL0     H43271  -0.604   1.971   4.536 -0.6237 -1.0519  0.4868
  328MOL0     H43272  -0.746   2.147   4.599  1.7270  3.5930  1.1317
  328MOL0     H43273  -0.604   2.180   4.678  1.4003 -0.8498 -1.4501
  328MOL0     H43274  -0.843   2.049   4.813  0.9107 -2.4005 -0.0485
  328MOL0     H43275  -0.692   2.093   4.897  0.9762 -1.0644 -1.3511
  328MOL0     H43276  -0.893   2.260   4.900 -0.5474 -0.2021 -1.1657
  328MOL0     H43277  -0.844   2.290   4.733 -0.2168 -1.4240  0.3334
  328MOL0     H43278  -0.048   2.010   4.500 -1.0268  2.1335  0.9781
  328MOL0     H43279   0.176   2.079   4.452 -2.3199 -1.2453 -0.3248
  328MOL0     H43280   0.671   1.905   4.736 -3.1910  0.2238 -1.2901
  328MOL0     H43281   0.919   1.953   4.688  0.2289  0.4924 -1.0321
  328MOL0     H43282   0.437   1.296   4.988  3.4154  1.5990  1.2886
  328MOL0     H43283   0.233   1.177   5.078 -0.4519 -0.7155  0.7825
  328MOL0     H43284  -0.049   1.362   5.633  3.3908 -3.7618 -1.5971
  328MOL0     H43285  -0.285   1.353   5.712  0.5233 -0.8210  0.3500
  328MOL0     H43286  -0.500   1.348   5.736  0.9656 -2.0852  2.8017
  328MOL0     H43287  -0.474   1.180   5.762 -1.3149  0.3837  1.1229
  328MOL0     H43288  -0.728   1.255   5.642 -0.6423 -2.1350 -0.7188
  328MOL0     H43289  -0.667   1.096   5.681  1.7232  0.3484 -1.7716
  328MOL0     H43290  -0.726   1.322   5.893 -2.1389 -1.2034  2.1783
  328MOL0     H43291  -0.629   1.184   5.928 -0.6093  1.2677  1.7753
  328MOL0     H43292  -0.806   1.034   5.901  0.5708  0.0842  1.3935
  328MOL0     H43293  -0.860   1.166   6.005  1.5394  0.5825  0.6142
  328MOL0     H43294  -1.138   1.192   5.689  0.2753 -0.4662 -0.2023
  328MOL0     H43295  -0.393   1.156   5.349  0.3436 -1.8526 -1.1763
  328MOL0     H43296  -0.172   1.198   5.251 -2.6359  1.8449 -0.7203
  329MOL0     O43297   3.472   7.148   2.190 -0.3009 -0.1014 -0.0580
  329MOL0     C43298   3.510   7.075   2.104  0.1256  0.2867  1.0017
  329MOL0     O43299   3.435   6.994   2.032 -0.2160 -0.8366 -0.4636
  329MOL0     C43300   3.303   6.996   2.046  0.5320  0.4933  0.2139
  329MOL0     C43301   3.241   7.116   2.008 -0.0578  0.0636 -1.5781
  329MOL0     C43302   3.103   7.123   2.028 -0.3481 -0.4800  0.2592
  329MOL0     C43303   3.029   7.025   2.093 -0.6871 -0.1411  1.0098
  329MOL0     O43304   2.894   7.026   2.111  0.7704 -0.4239  0.2560
  329MOL0     C43305   2.818   7.147   2.076 -0.3522  1.1059  0.1856
  329MOL0     C43306   2.672   7.138   2.115  0.1043 -0.3302 -0.5275
  329MOL0     C43307   2.617   7.003   2.072  0.7142  0.9394 -0.1516
  329MOL0     C43308   2.461   7.016   2.073  1.1793  0.2907 -0.8655
  329MOL0     C43309   2.382   6.890   2.032 -0.4161 -0.5557 -0.6866
  329MOL0     C43310   2.409   6.839   1.890 -0.5009 -0.3161  0.9492
  329MOL0     C43311   2.291   6.759   1.823  0.5864  0.0781 -0.0344
  329MOL0     C43312   2.155   6.831   1.802 -0.0029  0.8646  0.6054
  329MOL0     N43313   2.080   6.775   1.690  0.0905 -0.3055  0.7832
  329MOL0     C43314   2.030   6.647   1.685  0.4000 -0.0192 -1.4558
  329MOL0     C43315   1.953   6.638   1.575  0.5042 -0.1188 -0.3077
  329MOL0     C43316   1.873   6.514   1.549 -0.7536  0.7044 -0.6980
  329MOL0     C43317   1.727   6.519   1.573  0.3961 -0.6752 -0.3728
  329MOL0     C43318   1.693   6.566   1.712  0.4118  0.0531  0.6236
  329MOL0     C43319   1.545   6.567   1.750  0.3292 -0.2481 -0.4532
  329MOL0     O43320   1.474   6.656   1.661  0.0627  0.2048 -0.6838
  329MOL0     C43321   1.342   6.675   1.681 -0.1490  0.3275 -0.3048
  329MOL0     C43322   1.264   6.748   1.593 -0.7848  0.2453  0.0408
  329MOL0     C43323   1.128   6.765   1.622  0.3962 -0.1754 -0.8728
  329MOL0     C43324   1.061   6.712   1.734 -0.0147  0.3159 -0.6644
  329MOL0     C43325   0.915   6.727   1.768  0.3460  0.9435  0.0219
  329MOL0     O43326   0.838   6.797   1.678 -0.5665  0.3722  0.0833
  329MOL0     C43327   0.704   6.827   1.704 -0.0735  0.7965 -0.7661
  329MOL0     C43328   0.612   6.734   1.757  0.2434  0.4831  0.5212
  329MOL0     C43329   0.482   6.773   1.776  0.2424 -0.8623 -0.1685
  329MOL0     C43330   0.435   6.902   1.742 -0.1278  0.5673 -0.1259
  329MOL0     O43331   0.308   6.950   1.745  0.2627 -0.1869 -0.9746
  329MOL0     C43332   0.219   6.861   1.821  0.5356 -0.3779  0.0746
  329MOL0     C43333   0.080   6.925   1.816 -0.0363 -0.7470  0.0770
  329MOL0     C43334  -0.015   6.840   1.904  0.5041  0.9999  0.3519
  329MOL0     C43335  -0.155   6.820   1.853 -0.7570 -0.3056  0.5510
  329MOL0     C43336  -0.235   6.735   1.962 -0.4441  0.0820 -0.3113
  329MOL0     C43337  -0.382   6.755   1.945 -0.1184  0.6876 -0.4627
  329MOL0     C43338  -0.449   6.665   1.839  0.0858  0.0064 -0.6165
  329MOL0     C43339  -0.474   6.745   1.701  0.1280 -0.0458 -0.7508
  329MOL0    Cl43340  -0.569   6.651   1.588 -0.2432 -0.1398 -0.3671
  329MOL0     C43341   0.517   6.976   1.667  0.7461 -0.1144 -0.2341
  329MOL0     C43342   0.654   6.947   1.650 -0.5378 -0.5014  0.1801
  329MOL0     O43343   0.876   6.696   1.881  0.9397 -0.1987  0.3282
  329MOL0     C43344   1.149   6.644   1.818 -0.4347  0.5328  0.3903
  329MOL0     C43345   1.281   6.621   1.795  0.2476 -0.8955 -0.0529
  329MOL0     N43346   1.960   6.763   1.507 -0.1887  0.1243 -0.5262
  329MOL0     N43347   2.028   6.844   1.586 -0.7050  0.3807  0.5987
  329MOL0     C43348   3.097   6.902   2.125  0.1349  0.4182  0.2895
  329MOL0     C43349   3.227   6.885   2.102  0.2149  0.1905  0.4687
  329MOL0     C43350   3.650   7.065   2.073 -0.7084 -0.6911  0.0315
  329MOL0     C43351   3.741   7.162   2.126  0.1868 -0.0958 -0.8843
  329MOL0     C43352   3.881   7.144   2.110 -0.0285  0.4479 -0.2126
  329MOL0     C43353   3.941   7.045   2.040 -0.7103  0.2718  0.1200
  329MOL0     O43354   4.081   7.044   2.039  0.3010 -0.2278  0.3423
  329MOL0     C43355   4.164   6.941   1.983 -0.2491 -0.2547 -0.2054
  329MOL0     C43356   4.272   6.997   1.892 -1.0876  1.0415  0.8843
  329MOL0     C43357   4.359   6.882   1.820  0.6282 -0.4055  0.3684
  329MOL0     C43358   4.506   6.877   1.856  0.1026 -0.5723 -0.3082
  329MOL0     C43359   4.520   6.851   2.001  0.7494 -0.6356 -1.5865
  329MOL0     C43360   4.530   6.849   2.120  0.1993  1.2928 -0.2877
  329MOL0     C43361   3.852   6.950   1.982  0.4684  0.1669  0.4595
  329MOL0     C43362   3.710   6.957   2.000  0.3962  0.5661 -0.3277
  329MOL0     H43363   3.294   7.198   1.962  1.9316 -0.2373  0.0270
  329MOL0     H43364   3.047   7.213   2.004 -1.2986 -1.4197 -1.1369
  329MOL0     H43365   2.820   7.178   1.971  0.5760  0.6617  0.0665
  329MOL0     H43366   2.861   7.231   2.132  2.9108 -0.8261  0.8203
  329MOL0     H43367   2.621   7.226   2.075 -2.4970 -0.6307  1.7777
  329MOL0     H43368   2.668   7.157   2.223 -0.3107  0.7205 -0.7200
  329MOL0     H43369   2.656   6.930   2.144  5.8407  0.8276 -2.6431
  329MOL0     H43370   2.650   6.971   1.973  0.6996 -1.1630  0.4778
  329MOL0     H43371   2.432   7.046   2.174  1.5311 -0.3642 -0.5642
  329MOL0     H43372   2.431   7.094   2.002  2.4828  0.7931 -0.8886
  329MOL0     H43373   2.276   6.910   2.051 -0.1688 -1.3507  1.9051
  329MOL0     H43374   2.388   6.807   2.103  1.3170  1.0706  1.2196
  329MOL0     H43375   2.486   6.766   1.919  0.2853 -1.1759 -2.7741
  329MOL0     H43376   2.454   6.908   1.818  2.9990 -1.3855  1.9084
  329MOL0     H43377   2.317   6.720   1.724  0.4115  0.5838 -0.2839
  329MOL0     H43378   2.268   6.671   1.882  0.9490 -0.6785 -0.9917
  329MOL0     H43379   2.179   6.938   1.794 -0.2492  0.9635  1.1681
  329MOL0     H43380   2.095   6.807   1.890  0.9635 -0.1095  1.0250
  329MOL0     H43381   2.033   6.563   1.753  1.8155  1.7226  0.7799
  329MOL0     H43382   1.922   6.432   1.602 -1.5768  0.6206 -0.0443
  329MOL0     H43383   1.890   6.499   1.442 -1.7663 -0.4792 -0.7275
  329MOL0     H43384   1.677   6.421   1.574  0.8467 -0.9070  0.5288
  329MOL0     H43385   1.670   6.582   1.504 -2.6422 -2.5024  0.2861
  329MOL0     H43386   1.755   6.519   1.789  1.7951  1.3219  0.3228
  329MOL0     H43387   1.713   6.673   1.721  0.1290  0.1601  0.0473
  329MOL0     H43388   1.549   6.611   1.850  0.0947  1.8843 -1.3320
  329MOL0     H43389   1.511   6.463   1.741  0.8265 -0.4775  0.1763
  329MOL0     H43390   1.303   6.793   1.502 -1.9901  1.7965  0.2593
  329MOL0     H43391   1.069   6.838   1.566 -0.1355 -1.1623 -1.6210
  329MOL0     H43392   0.647   6.636   1.788 -0.0099  0.6396  1.3180
  329MOL0     H43393   0.412   6.710   1.830  2.1509 -2.1033  0.9858
  329MOL0     H43394   0.254   6.854   1.925  1.2604 -1.5492 -0.2306
  329MOL0     H43395   0.217   6.765   1.769  2.5813  0.6973 -2.1963
  329MOL0     H43396   0.048   6.938   1.712 -0.1256 -1.1025  0.0577
  329MOL0     H43397   0.090   7.027   1.852  1.1712 -1.5169  2.1094
  329MOL0     H43398  -0.036   6.891   1.998 -2.2926 -0.4630  0.6278
  329MOL0     H43399   0.032   6.743   1.922 -3.3177 -1.5460 -1.9291
  329MOL0     H43400  -0.195   6.921   1.840  0.7414  0.3632  1.0482
  329MOL0     H43401  -0.158   6.782   1.750 -1.8149  4.2571 -1.3208
  329MOL0     H43402  -0.210   6.765   2.064  1.2293  2.9995 -1.4604
  329MOL0     H43403  -0.207   6.631   1.942  1.4495  0.5373 -0.1803
  329MOL0     H43404  -0.408   6.862   1.940 -2.0182  0.3984  1.8174
  329MOL0     H43405  -0.426   6.732   2.042 -0.4995  0.7454 -0.6189
  329MOL0     H43406  -0.376   6.585   1.825  1.4274  0.9716  0.6034
  329MOL0     H43407  -0.544   6.631   1.881  0.1997 -1.0136 -1.1533
  329MOL0     H43408  -0.377   6.765   1.654  1.4340 -0.9917  1.4113
  329MOL0     H43409  -0.528   6.839   1.714  0.8314  0.5468 -1.9063
  329MOL0     H43410   0.485   7.074   1.632  0.6917  0.0479  0.2625
  329MOL0     H43411   0.726   7.014   1.605  0.0394 -1.3281 -0.1582
  329MOL0     H43412   1.110   6.606   1.912 -0.3235 -1.1120 -0.2095
  329MOL0     H43413   1.326   6.564   1.876  1.1258  0.0677  0.1571
  329MOL0     H43414   3.033   6.827   2.171  0.8205 -2.2877 -2.8307
  329MOL0     H43415   3.283   6.796   2.130 -1.1982 -0.2468  2.0636
  329MOL0     H43416   3.699   7.249   2.175  1.7530 -0.4771  1.2579
  329MOL0     H43417   3.943   7.220   2.155  1.0077 -0.9963  0.8918
  329MOL0     H43418   4.111   6.867   1.923 -1.6025  0.3877  0.1617
  329MOL0     H43419   4.210   6.894   2.070  1.3784  0.3287 -0.7113
  329MOL0     H43420   4.226   7.063   1.817  0.5422 -2.0591 -3.2172
  329MOL0     H43421   4.340   7.058   1.953  0.1748  2.1493 -1.4882
  329MOL0     H43422   4.356   6.893   1.711  0.8190 -3.1999  0.0064
  329MOL0     H43423   4.311   6.787   1.848 -1.2420 -0.5702 -2.9295
  329MOL0     H43424   4.557   6.805   1.792  2.6678 -3.4573  4.3884
  329MOL0     H43425   4.562   6.970   1.843  2.3120 -1.0827  3.7227
  329MOL0     H43426   4.544   6.844   2.226 -0.7097  2.4791 -0.0823
  329MOL0     H43427   3.889   6.862   1.930 -0.1616 -0.6008  1.2824
  329MOL0     H43428   3.648   6.878   1.961 -1.0307  0.1661  2.5334
  330MOL0     O43429   4.445   3.206  11.041 -0.0545 -0.3098  0.0393
  330MOL0     C43430   4.391   3.229  11.148 -0.2613  0.5784 -0.0861
  330MOL0     O43431   4.463   3.253  11.266  0.5180 -0.5409  0.7571
  330MOL0     C43432   4.599   3.265  11.277 -0.0650  0.6571  0.0617
  330MOL0     C43433   4.682   3.331  11.182  0.4809 -0.5348 -0.3846
  330MOL0     C43434   4.821   3.332  11.206  0.2974  0.4620 -0.4176
  330MOL0     C43435   4.873   3.269  11.316 -0.2727 -0.1232  0.2721
  330MOL0     O43436   5.011   3.276  11.323  0.6290  0.6059  0.1790
  330MOL0     C43437   5.070   3.203  11.429 -0.7630 -0.0753  0.3349
  330MOL0     C43438   5.226   3.190  11.429 -0.0569 -0.2046  0.4875
  330MOL0     C43439   5.276   3.117  11.308 -0.1454  0.3418  0.4082
  330MOL0     C43440   5.435   3.117  11.307  0.0832  0.3519 -0.3111
  330MOL0     C43441   5.509   3.241  11.236  0.4749  0.6108  0.4303
  330MOL0     C43442   5.662   3.245  11.264 -0.5099 -0.4742  0.0927
  330MOL0     C43443   5.721   3.294  11.402 -0.5893  1.1924  0.9405
  330MOL0     C43444   5.674   3.435  11.439 -0.5129 -0.7605  1.1128
  330MOL0     N43445   5.600   3.439  11.559  0.1574  0.0860  0.0594
  330MOL0     C43446   5.459   3.448  11.576 -0.2058  0.6895  0.0439
  330MOL0     C43447   5.429   3.443  11.712 -0.2601 -0.3153  0.2613
  330MOL0     C43448   5.298   3.431  11.784  0.1869 -0.1145 -0.2628
  330MOL0     C43449   5.178   3.455  11.687 -1.0671 -1.1602  0.8287
  330MOL0     C43450   5.052   3.487  11.761  0.1082 -0.2635  0.0302
  330MOL0     C43451   4.932   3.505  11.665  0.7946 -0.8401  0.4743
  330MOL0     O43452   4.830   3.572  11.731 -0.4825 -0.1045 -0.0288
  330MOL0     C43453   4.705   3.581  11.678  0.1346 -0.2166 -1.1651
  330MOL0     C43454   4.653   3.515  11.561  0.5541 -0.4569  0.8128
  330MOL0     C43455   4.512   3.510  11.548 -0.2820 -0.8506  0.2314
  330MOL0     C43456   4.423   3.576  11.632 -0.3401 -0.2946 -0.8744
  330MOL0     C43457   4.276   3.557  11.633 -0.1104  0.3787 -0.1163
  330MOL0     O43458   4.207   3.663  11.686 -0.0218  0.4908 -0.4711
  330MOL0     C43459   4.073   3.652  11.685  0.1618 -0.1447 -0.1277
  330MOL0     C43460   4.006   3.669  11.810 -0.3259 -0.0540  0.8121
  330MOL0     C43461   3.866   3.662  11.816  0.7735 -0.1738  0.2283
  330MOL0     C43462   3.795   3.638  11.697 -0.1574  0.6385 -0.7858
  330MOL0     O43463   3.652   3.614  11.708 -0.3960  0.0754 -0.7117
  330MOL0     C43464   3.581   3.542  11.604 -0.2593 -0.0929  0.2038
  330MOL0     C43465   3.429   3.539  11.621 -0.0547  0.4671  0.1153
  330MOL0     C43466   3.370   3.675  11.659  0.1091  1.4877  0.0472
  330MOL0     C43467   3.220   3.668  11.693 -0.0770 -0.2483 -0.0321
  330MOL0     C43468   3.148   3.799  11.657 -0.5701 -0.7346 -0.4070
  330MOL0     C43469   3.004   3.795  11.724 -0.8722  0.3476  0.6419
  330MOL0     C43470   2.914   3.914  11.685 -0.6785  0.1943 -1.1873
  330MOL0     C43471   2.791   3.908  11.771 -0.6214 -0.0675  0.1962
  330MOL0    Cl43472   2.680   3.784  11.722  0.1942  0.0788  0.0154
  330MOL0     C43473   3.858   3.645  11.575 -0.2922 -0.4270 -0.4696
  330MOL0     C43474   3.997   3.663  11.569 -0.3660  0.2199 -0.4646
  330MOL0     O43475   4.232   3.463  11.568  0.1793  0.2007 -0.0042
  330MOL0     C43476   4.483   3.634  11.749 -0.0687  0.1674  1.0159
  330MOL0     C43477   4.622   3.642  11.766  0.6363 -0.3402 -0.5044
  330MOL0     N43478   5.555   3.436  11.774  0.4829 -0.0806  0.0043
  330MOL0     N43479   5.654   3.445  11.684  0.2916  0.1616 -0.4603
  330MOL0     C43480   4.791   3.202  11.405 -0.1569 -0.5924 -0.3952
  330MOL0     C43481   4.653   3.193  11.381 -0.6812  0.2835 -0.1131
  330MOL0     C43482   4.244   3.216  11.154  0.1717  0.9887  0.1265
  330MOL0     C43483   4.172   3.167  11.041  0.4793 -0.8610 -0.6177
  330MOL0     C43484   4.035   3.150  11.046  0.0413  0.9049 -0.6137
  330MOL0     C43485   3.962   3.198  11.158  0.1197 -0.0391 -0.6392
  330MOL0     O43486   3.825   3.192  11.166 -0.0216 -0.3815  0.5981
  330MOL0     C43487   3.774   3.114  11.281 -0.4561  0.2125  0.4825
  330MOL0     C43488   3.628   3.098  11.284  0.3427  0.1543 -0.0122
  330MOL0     C43489   3.570   3.242  11.288 -0.2623  0.5296  0.0284
  330MOL0     C43490   3.422   3.250  11.327  0.3315 -0.9361  0.5804
  330MOL0     C43491   3.402   3.193  11.460 -0.0026 -0.6769  0.1578
  330MOL0     C43492   3.403   3.177  11.578  0.1534 -0.1250  0.2544
  330MOL0     C43493   4.037   3.246  11.266 -0.3302  0.4181  0.8732
  330MOL0     C43494   4.179   3.248  11.268  0.2720 -0.3501 -1.1353
  330MOL0     H43495   4.649   3.390  11.097  0.3434  1.4277  0.9659
  330MOL0     H43496   4.885   3.379  11.133 -0.7336  0.1642 -1.5315
  330MOL0     H43497   5.041   3.098  11.434  0.2092 -0.3341  0.7705
  330MOL0     H43498   5.043   3.256  11.521 -0.1502  1.6017 -0.4198
  330MOL0     H43499   5.261   3.146  11.523  0.3560 -1.0850 -0.0665
  330MOL0     H43500   5.276   3.286  11.414  0.1012 -0.6289 -2.1824
  330MOL0     H43501   5.233   3.144  11.211 -2.8220 -1.2431  1.0557
  330MOL0     H43502   5.238   3.016  11.323 -0.2603  0.0082 -1.7638
  330MOL0     H43503   5.470   3.107  11.410 -2.0326  2.4310  0.7099
  330MOL0     H43504   5.467   3.030  11.249 -2.1222 -1.7196  1.4031
  330MOL0     H43505   5.468   3.334  11.277 -0.9742  1.2500 -2.2540
  330MOL0     H43506   5.486   3.247  11.129  0.7526  0.7557  0.3768
  330MOL0     H43507   5.706   3.302  11.182  4.3903  0.8781  3.2629
  330MOL0     H43508   5.704   3.144  11.252  2.2374  0.4924  0.9362
  330MOL0     H43509   5.702   3.225  11.484  2.3383  2.4318  2.8590
  330MOL0     H43510   5.829   3.297  11.386 -0.8875  1.6045 -1.1999
  330MOL0     H43511   5.617   3.482  11.358 -0.6658  0.9196  2.1305
  330MOL0     H43512   5.767   3.492  11.445 -0.4703 -0.6153 -0.4389
  330MOL0     H43513   5.389   3.464  11.495 -1.0524  2.2117  1.0343
  330MOL0     H43514   5.294   3.512  11.857  1.3172  0.7659 -1.1388
  330MOL0     H43515   5.288   3.336  11.836 -0.3525  0.3519  0.5064
  330MOL0     H43516   5.174   3.359  11.634  0.1666 -0.9924  0.3950
  330MOL0     H43517   5.198   3.529  11.609  0.0026  0.0682  2.2238
  330MOL0     H43518   5.029   3.407  11.832 -2.6047  0.3978  0.0271
  330MOL0     H43519   5.059   3.578  11.822 -1.1572  0.4581 -0.8583
  330MOL0     H43520   4.908   3.403  11.635 -1.0781 -0.6734  1.3138
  330MOL0     H43521   4.954   3.552  11.568  0.6747 -2.4116 -0.3465
  330MOL0     H43522   4.718   3.461  11.493 -0.9708  1.2671 -2.1838
  330MOL0     H43523   4.482   3.447  11.465  0.6091 -0.8914 -0.0759
  330MOL0     H43524   4.061   3.662  11.903  0.6781  0.4499  0.2709
  330MOL0     H43525   3.819   3.642  11.912 -1.2459 -3.0130 -1.2038
  330MOL0     H43526   3.618   3.440  11.589  0.4302  0.3821 -1.6915
  330MOL0     H43527   3.609   3.593  11.511  3.0592 -1.2491  0.4229
  330MOL0     H43528   3.414   3.465  11.700 -0.0819 -0.7145 -0.9581
  330MOL0     H43529   3.377   3.499  11.533 -0.1723  0.5667  0.1398
  330MOL0     H43530   3.375   3.745  11.575 -0.6643  3.6376  1.7036
  330MOL0     H43531   3.423   3.707  11.750 -0.5424 -0.6751  1.2681
  330MOL0     H43532   3.166   3.590  11.640 -0.8496 -1.4916  2.3993
  330MOL0     H43533   3.210   3.642  11.799 -0.5175  1.1426  0.2910
  330MOL0     H43534   3.136   3.817  11.550 -2.6490  1.4348  0.0766
  330MOL0     H43535   3.208   3.883  11.695  1.7515 -2.6193  0.2887
  330MOL0     H43536   3.015   3.778  11.832  0.4042  0.7133  0.5813
  330MOL0     H43537   2.956   3.705  11.685 -0.4899  0.1039  0.7317
  330MOL0     H43538   2.963   4.009  11.705 -0.2601 -0.1500 -0.5228
  330MOL0     H43539   2.880   3.913  11.581 -1.2845  0.3656 -0.9994
  330MOL0     H43540   2.736   4.003  11.765 -0.5170  0.0031  0.3403
  330MOL0     H43541   2.810   3.888  11.877 -2.3660  1.5878  0.8973
  330MOL0     H43542   3.804   3.642  11.481 -1.8016  2.6594  0.1656
  330MOL0     H43543   4.035   3.678  11.468  0.4316 -0.2104 -0.2405
  330MOL0     H43544   4.413   3.666  11.827 -0.3942  4.3540 -0.7594
  330MOL0     H43545   4.667   3.674  11.860  3.2914 -0.6336 -1.5830
  330MOL0     H43546   4.835   3.146  11.487  1.2541 -0.5325 -1.0781
  330MOL0     H43547   4.589   3.136  11.447 -1.1910  2.6739  1.5632
  330MOL0     H43548   4.233   3.131  10.958  2.4849  0.7921  0.0691
  330MOL0     H43549   3.980   3.088  10.976  0.1767  0.7416 -0.5760
  330MOL0     H43550   3.804   3.168  11.371 -1.3333  0.3221  0.7144
  330MOL0     H43551   3.811   3.011  11.286  2.3065  1.1460  1.2171
  330MOL0     H43552   3.606   3.042  11.193  2.8092 -1.6626  0.4091
  330MOL0     H43553   3.587   3.058  11.377 -0.1880  0.0588 -0.2843
  330MOL0     H43554   3.585   3.286  11.188  0.5714 -3.5381 -1.8471
  330MOL0     H43555   3.629   3.310  11.350  1.2776 -0.4382 -0.3180
  330MOL0     H43556   3.397   3.356  11.326  0.0147 -1.0101  0.5077
  330MOL0     H43557   3.365   3.197  11.250 -0.7900 -1.4850  1.7433
  330MOL0     H43558   3.414   3.147  11.680  3.1302 -2.3400 -0.5773
  330MOL0     H43559   3.984   3.270  11.358 -0.7482 -3.3693  1.8255
  330MOL0     H43560   4.221   3.289  11.359  2.7087  1.7279 -3.0644
  331MOL0     O43561   8.566   8.176   2.014  0.0657  0.2307 -0.5315
  331MOL0     C43562   8.495   8.082   2.040  0.1139 -0.4212 -0.0889
  331MOL0     O43563   8.547   7.963   2.064 -0.3356  0.3870 -0.0301
  331MOL0     C43564   8.677   7.943   2.091  0.7767  0.7242  0.2611
  331MOL0     C43565   8.748   8.028   2.169  0.3205  0.4173 -0.1563
  331MOL0     C43566   8.883   8.006   2.207 -0.7077  0.3448  0.0461
  331MOL0     C43567   8.948   7.889   2.160 -0.1813  0.1837 -1.0479
  331MOL0     O43568   9.078   7.858   2.214  0.4965 -0.5581  0.0093
  331MOL0     C43569   9.158   7.767   2.136 -0.1799 -0.5893 -0.0371
  331MOL0     C43570   9.203   7.812   1.993 -0.5649  0.2842  0.2188
  331MOL0     C43571   9.267   7.953   2.004 -1.0072 -0.7090  0.8508
  331MOL0     C43572   9.332   8.007   1.880  0.3399 -0.3320 -0.3866
  331MOL0     C43573   9.457   7.929   1.831 -0.2953  0.3485 -0.2462
  331MOL0     C43574   9.584   8.019   1.831 -0.4813  0.1620 -0.3955
  331MOL0     C43575   9.623   8.060   1.976 -0.3868 -1.1956  0.2699
  331MOL0     C43576   9.754   8.143   1.982  0.1976 -0.6351 -0.8115
  331MOL0     N43577   9.887   8.082   1.968  0.3648 -0.0587  0.6009
  331MOL0     C43578  10.001   8.165   1.984  0.6025  1.7750 -0.4049
  331MOL0     C43579  10.104   8.070   1.980 -0.4086  0.7397 -0.1317
  331MOL0     C43580  10.253   8.090   2.011 -0.2031  0.1116 -0.6908
  331MOL0     C43581  10.288   8.009   2.141 -0.6826 -0.4170 -0.0967
  331MOL0     C43582  10.283   8.078   2.280  0.3171  0.7317 -0.5881
  331MOL0     C43583  10.143   8.129   2.316  0.2466 -0.2771 -0.1044
  331MOL0     O43584  10.150   8.274   2.300 -0.3327  0.1874  0.3169
  331MOL0     C43585  10.032   8.344   2.299  0.0985 -0.3757 -0.8699
  331MOL0     C43586  10.033   8.480   2.276  0.4943 -0.5798  0.4670
  331MOL0     C43587   9.914   8.560   2.274  0.3505  0.0451 -0.3916
  331MOL0     C43588   9.796   8.503   2.325  0.7395 -0.7849  0.2087
  331MOL0     C43589   9.671   8.580   2.334 -0.7596  0.7629 -1.0331
  331MOL0     O43590   9.683   8.706   2.291 -0.1305 -0.2365  0.1921
  331MOL0     C43591   9.563   8.769   2.271 -0.4864 -0.3059  0.1342
  331MOL0     C43592   9.560   8.895   2.321  0.3541 -0.4174  0.3947
  331MOL0     C43593   9.444   8.974   2.305 -0.1685 -0.9942  0.5796
  331MOL0     C43594   9.331   8.931   2.228  0.2193  0.3757  0.1337
  331MOL0     O43595   9.216   9.018   2.225 -0.1123 -0.7456  0.0791
  331MOL0     C43596   9.107   8.985   2.146 -0.7575 -0.1934  0.5589
  331MOL0     C43597   9.134   9.039   2.006 -0.7247 -0.1461  0.2401
  331MOL0     C43598   9.022   9.002   1.907 -0.4155  0.1061  0.8125
  331MOL0     C43599   9.049   9.047   1.762  0.4973  0.6790  0.7189
  331MOL0     C43600   8.936   9.032   1.649  0.0816  0.6444 -0.8414
  331MOL0     C43601   8.845   9.156   1.627 -0.3971  0.3399 -0.0779
  331MOL0     C43602   8.756   9.139   1.507  0.5481 -0.7752 -0.4172
  331MOL0     C43603   8.691   9.272   1.477  0.0574  0.0398 -0.4130
  331MOL0    Cl43604   8.794   9.408   1.433  0.4881  0.1656  0.2530
  331MOL0     C43605   9.340   8.796   2.178 -0.3092 -0.7218 -0.7745
  331MOL0     C43606   9.449   8.721   2.200  0.0184 -0.4436  0.0571
  331MOL0     O43607   9.575   8.520   2.379 -0.4638 -0.0023 -0.0482
  331MOL0     C43608   9.798   8.370   2.358  0.5137  0.3402 -1.2729
  331MOL0     C43609   9.911   8.290   2.342 -0.8999 -0.8364 -0.3610
  331MOL0     N43610  10.047   7.943   1.951 -0.3622 -0.0041 -0.0710
  331MOL0     N43611   9.915   7.953   1.959 -1.0220  0.3687  0.2170
  331MOL0     C43612   8.877   7.810   2.071  0.4653 -1.0871 -0.5224
  331MOL0     C43613   8.744   7.837   2.035 -1.3645  0.5791  0.3093
  331MOL0     C43614   8.349   8.083   2.035  0.4952 -0.3492 -0.2589
  331MOL0     C43615   8.294   8.175   1.944  0.1151 -0.2003  0.5102
  331MOL0     C43616   8.155   8.196   1.943  0.0145 -0.6723 -1.3301
  331MOL0     C43617   8.071   8.140   2.043  0.3798  0.1429 -0.0222
  331MOL0     O43618   7.935   8.161   2.065  0.2704 -0.2717 -0.0856
  331MOL0     C43619   7.868   8.236   1.960  0.8031  0.2365  0.5959
  331MOL0     C43620   7.717   8.224   1.979 -0.5276 -0.6060  0.4308
  331MOL0     C43621   7.660   8.268   2.106 -1.0982  0.2200 -0.1651
  331MOL0     C43622   7.513   8.235   2.097  0.7264  0.8588 -0.2867
  331MOL0     C43623   7.439   8.288   2.211 -0.3019  0.0276 -0.0966
  331MOL0     C43624   7.362   8.337   2.290  0.5648 -0.1893  0.0491
  331MOL0     C43625   8.127   8.042   2.127 -0.3756 -0.5415 -1.4120
  331MOL0     C43626   8.268   8.004   2.118 -0.0309  0.0840  1.2568
  331MOL0     H43627   8.693   8.109   2.217  0.7344 -0.9027  2.6948
  331MOL0     H43628   8.948   8.072   2.264  0.1029 -0.1616 -0.2780
  331MOL0     H43629   9.094   7.680   2.122  0.1102 -0.7761 -0.2151
  331MOL0     H43630   9.238   7.728   2.199 -0.2076 -0.9002 -0.1950
  331MOL0     H43631   9.127   7.802   1.914  0.8539  0.6098 -1.2467
  331MOL0     H43632   9.277   7.739   1.960  0.7018  1.3695  0.5992
  331MOL0     H43633   9.344   7.952   2.081 -0.3395  0.6564  0.2365
  331MOL0     H43634   9.196   8.031   2.033  2.3164  1.7998  3.0234
  331MOL0     H43635   9.262   8.005   1.796  0.7313  1.1870 -0.7858
  331MOL0     H43636   9.351   8.113   1.897  1.1925 -0.1751 -2.1139
  331MOL0     H43637   9.446   7.909   1.725  0.9559  1.6501 -0.6498
  331MOL0     H43638   9.462   7.832   1.881  2.4550  0.4319 -0.2057
  331MOL0     H43639   9.560   8.114   1.783 -1.7782  0.8675  1.4999
  331MOL0     H43640   9.663   7.965   1.777 -0.4797  0.6677 -0.9056
  331MOL0     H43641   9.545   8.122   2.021  2.6249  3.7695 -0.5362
  331MOL0     H43642   9.653   7.969   2.028  3.0810 -0.5175 -0.3303
  331MOL0     H43643   9.754   8.193   2.079  0.2518 -0.8782 -0.6863
  331MOL0     H43644   9.760   8.223   1.908 -0.4316 -0.8501 -1.1020
  331MOL0     H43645  10.001   8.273   1.989 -2.8435  2.0067 -2.0358
  331MOL0     H43646  10.271   8.195   2.034  1.9878 -0.4809  0.5683
  331MOL0     H43647  10.314   8.058   1.926  0.3152  1.1669 -0.7359
  331MOL0     H43648  10.394   7.985   2.127 -0.0383  1.0154  1.8929
  331MOL0     H43649  10.230   7.917   2.133 -0.5614 -0.4023 -1.3479
  331MOL0     H43650  10.312   8.010   2.360 -1.5237  2.6379  1.8512
  331MOL0     H43651  10.355   8.160   2.282 -1.3947  2.2939  2.4288
  331MOL0     H43652  10.118   8.100   2.418  1.2138  1.5316  0.7024
  331MOL0     H43653  10.077   8.096   2.236 -0.6134  2.5162 -0.6770
  331MOL0     H43654  10.121   8.532   2.240 -0.8695  0.2408 -1.8908
  331MOL0     H43655   9.930   8.664   2.245 -3.1996  0.8743  0.1778
  331MOL0     H43656   9.642   8.919   2.388  2.1212  0.3523 -1.9151
  331MOL0     H43657   9.453   9.075   2.344 -1.2984 -0.3360 -0.7777
  331MOL0     H43658   9.027   9.055   2.172 -2.6003 -1.6732 -0.7848
  331MOL0     H43659   9.081   8.878   2.140  0.2677 -0.4558  0.5578
  331MOL0     H43660   9.223   8.988   1.969  0.1051  1.8615 -0.6673
  331MOL0     H43661   9.150   9.147   2.013 -0.4147 -0.0246 -1.8171
  331MOL0     H43662   8.928   9.049   1.938 -2.0957 -1.5337 -1.5064
  331MOL0     H43663   9.009   8.894   1.910  0.5416 -0.0300  0.4359
  331MOL0     H43664   9.076   9.153   1.765 -0.9002  1.3395 -3.4609
  331MOL0     H43665   9.134   8.985   1.730 -0.6482 -0.6545  0.1471
  331MOL0     H43666   8.871   8.946   1.669 -1.5288  1.7019 -1.3121
  331MOL0     H43667   8.988   9.014   1.554  0.6713  1.6944 -0.7314
  331MOL0     H43668   8.910   9.241   1.603 -0.2998  0.6573  1.2335
  331MOL0     H43669   8.789   9.172   1.719  0.6624 -0.4339  0.7344
  331MOL0     H43670   8.809   9.093   1.423  0.5617 -2.5292  0.4934
  331MOL0     H43671   8.675   9.072   1.538 -1.4997  2.1212  0.9488
  331MOL0     H43672   8.642   9.295   1.572 -0.3090 -2.7406  0.1574
  331MOL0     H43673   8.604   9.259   1.411 -1.1775 -2.5974  1.5450
  331MOL0     H43674   9.263   8.747   2.119  1.5201 -0.6689 -3.4102
  331MOL0     H43675   9.451   8.620   2.161  0.5628  0.0124 -1.1241
  331MOL0     H43676   9.707   8.319   2.389  0.1183  1.9177  0.3524
  331MOL0     H43677   9.902   8.182   2.349  2.0613 -1.0659  1.7579
  331MOL0     H43678   8.915   7.716   2.032  2.9128  0.1083 -1.2224
  331MOL0     H43679   8.708   7.753   1.977 -0.4539  0.2003  0.2660
  331MOL0     H43680   8.355   8.226   1.871 -0.3996 -0.5185 -0.1611
  331MOL0     H43681   8.129   8.263   1.861 -0.6071 -0.8187 -1.2521
  331MOL0     H43682   7.887   8.188   1.864  0.8981 -2.7274  2.0047
  331MOL0     H43683   7.888   8.344   1.958  2.6796 -0.0732  0.9977
  331MOL0     H43684   7.674   8.292   1.906 -0.4398 -0.5251  0.4534
  331MOL0     H43685   7.688   8.123   1.951 -1.0047  0.1645 -2.1208
  331MOL0     H43686   7.677   8.375   2.120 -1.0524  0.0266  1.4553
  331MOL0     H43687   7.707   8.219   2.192 -2.5535 -2.5601 -0.8374
  331MOL0     H43688   7.462   8.282   2.013 -1.5223  0.1044  0.5703
  331MOL0     H43689   7.505   8.126   2.092  0.3781  0.9272 -1.6117
  331MOL0     H43690   7.292   8.384   2.356  0.1687 -0.8293  0.0952
  331MOL0     H43691   8.050   7.994   2.187 -1.1732  0.0578 -1.9381
  331MOL0     H43692   8.298   7.921   2.180  0.6737 -0.6274  0.0140
  332MOL0     O43693   9.205   1.867   6.209  0.0133  0.3995  0.1780
  332MOL0     C43694   9.226   1.914   6.102 -0.7942 -0.1427  1.0354
  332MOL0     O43695   9.151   1.891   5.987  0.2236  0.9041  0.1020
  332MOL0     C43696   9.060   1.789   5.984  0.3333  0.2457  0.2943
  332MOL0     C43697   8.943   1.784   6.058  0.9603  0.3043  0.2612
  332MOL0     C43698   8.850   1.683   6.036 -0.4323 -0.1312 -0.0266
  332MOL0     C43699   8.881   1.587   5.940 -0.0104 -0.0612 -0.2653
  332MOL0     O43700   8.793   1.483   5.913 -0.3045 -0.0962 -0.2955
  332MOL0     C43701   8.656   1.488   5.944 -0.8142  0.3799  0.2540
  332MOL0     C43702   8.603   1.343   5.933  0.3526 -0.1522  0.2960
  332MOL0     C43703   8.669   1.236   6.024  0.2778  0.4210  0.1986
  332MOL0     C43704   8.611   1.097   5.989 -0.3975 -0.0409 -0.2181
  332MOL0     C43705   8.666   0.985   6.083  0.7391  0.2458  0.7634
  332MOL0     C43706   8.553   0.885   6.126 -0.6814 -0.1278  0.1883
  332MOL0     C43707   8.610   0.754   6.182 -0.7384 -0.4471  0.0656
  332MOL0     C43708   8.509   0.660   6.255 -0.3304 -0.5364 -0.0631
  332MOL0     N43709   8.393   0.631   6.180  0.2081 -1.0176  0.2922
  332MOL0     C43710   8.358   0.516   6.122 -0.0384  0.5208 -0.2437
  332MOL0     C43711   8.239   0.529   6.055  0.5327 -0.5378  0.0867
  332MOL0     C43712   8.155   0.432   5.974 -0.5106  0.7827  0.0919
  332MOL0     C43713   8.218   0.399   5.836  0.6327  0.5620  0.1847
  332MOL0     C43714   8.219   0.527   5.754  1.6018 -0.5393  0.1760
  332MOL0     C43715   8.285   0.529   5.611  0.1998  0.8905 -1.0117
  332MOL0     O43716   8.410   0.456   5.624  0.0085 -0.2494  0.7333
  332MOL0     C43717   8.520   0.532   5.616  0.7448 -0.0981 -0.1778
  332MOL0     C43718   8.559   0.611   5.723  0.2497 -1.0607  0.0247
  332MOL0     C43719   8.661   0.700   5.715 -0.1445  0.3808  0.5118
  332MOL0     C43720   8.728   0.710   5.591  0.2891  1.2638  0.2588
  332MOL0     C43721   8.830   0.804   5.582  1.0688  0.0289  0.0019
  332MOL0     O43722   8.891   0.832   5.701  0.0186  0.1823  0.3401
  332MOL0     C43723   8.997   0.923   5.711  0.3563 -0.7344  0.0923
  332MOL0     C43724   9.130   0.881   5.706 -0.1976 -0.5546  0.4876
  332MOL0     C43725   9.232   0.969   5.743 -0.4838 -1.0589  0.4523
  332MOL0     C43726   9.211   1.095   5.787 -0.2530  0.2460  0.2743
  332MOL0     O43727   9.313   1.172   5.834 -0.3033 -0.2215  0.1265
  332MOL0     C43728   9.281   1.295   5.902  0.0474 -0.3653 -0.0513
  332MOL0     C43729   9.398   1.351   5.985  0.3957 -0.4508  0.0541
  332MOL0     C43730   9.370   1.490   6.043  0.1796 -0.2658 -0.2876
  332MOL0     C43731   9.502   1.539   6.112 -0.2024 -0.5359  0.0311
  332MOL0     C43732   9.470   1.641   6.221  0.1023  0.1518  0.4272
  332MOL0     C43733   9.588   1.681   6.311  0.7891  0.8086  0.9001
  332MOL0     C43734   9.713   1.743   6.230 -0.7058  0.9544 -0.2217
  332MOL0     C43735   9.819   1.820   6.318  0.2413  0.9353  0.3913
  332MOL0    Cl43736   9.944   1.874   6.205  0.0046  0.2617  0.2543
  332MOL0     C43737   9.078   1.141   5.781  0.2271 -0.2134 -0.4860
  332MOL0     C43738   8.972   1.058   5.747  0.4027  0.7409  0.5559
  332MOL0     O43739   8.849   0.864   5.475  0.2421  0.1764 -0.5635
  332MOL0     C43740   8.690   0.631   5.476  0.0632 -0.1039 -0.2928
  332MOL0     C43741   8.586   0.533   5.492 -0.1016 -0.1548  0.8707
  332MOL0     N43742   8.199   0.664   6.072  0.5125  0.3669  0.3894
  332MOL0     N43743   8.293   0.719   6.138 -0.2431 -0.4660 -0.2123
  332MOL0     C43744   8.996   1.593   5.865  0.2354  0.6773 -0.6767
  332MOL0     C43745   9.085   1.688   5.896  0.0013 -0.5234 -0.6944
  332MOL0     C43746   9.347   2.009   6.104  0.9031  0.0450  0.6759
  332MOL0     C43747   9.442   2.017   6.209  0.2392 -0.0132 -0.4699
  332MOL0     C43748   9.564   2.077   6.194 -0.3715 -0.6204  0.2144
  332MOL0     C43749   9.602   2.136   6.067 -0.4082 -0.5775  0.0408
  332MOL0     O43750   9.732   2.180   6.072 -0.1015  0.3837 -0.0026
  332MOL0     C43751   9.768   2.266   5.972  0.2019 -0.4401  0.1907
  332MOL0     C43752   9.920   2.289   5.990 -0.1647  0.3832  0.5092
  332MOL0     C43753   9.966   2.374   6.111  0.5420 -0.2947  0.3749
  332MOL0     C43754   9.968   2.315   6.251 -0.6571  0.3203  0.1218
  332MOL0     C43755  10.045   2.397   6.341 -0.5230  1.0904 -0.7970
  332MOL0     C43756  10.113   2.451   6.427  0.2408  0.3586  0.8466
  332MOL0     C43757   9.509   2.130   5.960 -0.0906  1.1137  0.6428
  332MOL0     C43758   9.388   2.059   5.977  0.9983 -0.2684 -0.8051
  332MOL0     H43759   8.927   1.856   6.138  0.1020 -0.7192  1.0336
  332MOL0     H43760   8.754   1.684   6.087  0.6595 -0.5762  2.1657
  332MOL0     H43761   8.599   1.554   5.878 -1.0229  1.1652  1.2026
  332MOL0     H43762   8.635   1.526   6.044 -0.8556 -0.1845  0.4634
  332MOL0     H43763   8.613   1.333   5.824  0.1712  1.5963  0.0918
  332MOL0     H43764   8.498   1.332   5.961 -0.0917  1.5923 -0.5310
  332MOL0     H43765   8.650   1.257   6.130 -1.1918  0.4073 -0.0427
  332MOL0     H43766   8.778   1.239   6.018  0.3743  0.8934  1.5654
  332MOL0     H43767   8.504   1.104   6.014 -0.2351 -0.2856  0.5344
  332MOL0     H43768   8.624   1.081   5.881 -2.6696  2.2971 -0.9637
  332MOL0     H43769   8.700   1.036   6.174  0.6648  0.7806  0.4995
  332MOL0     H43770   8.757   0.935   6.049  0.8651 -0.2482  1.7932
  332MOL0     H43771   8.492   0.849   6.042 -1.4353  1.5264 -0.0101
  332MOL0     H43772   8.493   0.941   6.198  0.8591  3.5334 -1.1802
  332MOL0     H43773   8.652   0.706   6.093 -0.8841 -0.4144 -0.0213
  332MOL0     H43774   8.685   0.784   6.256 -0.6044 -0.4347 -0.0739
  332MOL0     H43775   8.485   0.708   6.350  2.4268  0.4439  0.2447
  332MOL0     H43776   8.564   0.571   6.284  3.5391  1.6658  0.0540
  332MOL0     H43777   8.422   0.428   6.120  0.9488  1.2346 -2.4846
  332MOL0     H43778   8.062   0.485   5.949 -0.4687  1.4417  1.2479
  332MOL0     H43779   8.137   0.341   6.032  2.5679 -1.2898 -1.9080
  332MOL0     H43780   8.152   0.328   5.785  0.9231  0.8981 -0.6641
  332MOL0     H43781   8.314   0.349   5.846 -1.2809 -3.6302 -0.3287
  332MOL0     H43782   8.117   0.562   5.738  2.3947  2.0822  0.3656
  332MOL0     H43783   8.276   0.599   5.814  0.4696  1.7031 -1.2931
  332MOL0     H43784   8.293   0.632   5.577  2.7766  0.3766 -2.2097
  332MOL0     H43785   8.233   0.480   5.528 -1.0179  0.9151 -0.2810
  332MOL0     H43786   8.500   0.600   5.813 -1.8138 -1.8564 -1.3326
  332MOL0     H43787   8.693   0.761   5.798 -0.5100 -1.2608  1.9163
  332MOL0     H43788   9.156   0.779   5.681  0.6572 -1.3237  3.9666
  332MOL0     H43789   9.336   0.939   5.756 -0.3565 -0.6190  0.4444
  332MOL0     H43790   9.196   1.277   5.968  1.1599  1.2010  1.8836
  332MOL0     H43791   9.249   1.373   5.833  1.7544  0.5077  0.0780
  332MOL0     H43792   9.490   1.357   5.924  0.4593 -1.0416  0.0889
  332MOL0     H43793   9.415   1.278   6.064  1.4388 -2.3213 -1.7709
  332MOL0     H43794   9.286   1.480   6.112  0.2377 -0.1663 -0.2027
  332MOL0     H43795   9.348   1.563   5.965  1.3073 -0.1432 -0.5074
  332MOL0     H43796   9.560   1.459   6.159  3.0818  1.0879 -0.9870
  332MOL0     H43797   9.571   1.579   6.037 -0.0904 -1.3086 -0.2879
  332MOL0     H43798   9.396   1.605   6.293  2.5945 -1.7287  2.2449
  332MOL0     H43799   9.426   1.731   6.177 -0.3600 -0.7105 -0.9229
  332MOL0     H43800   9.624   1.592   6.365 -0.1731  1.0714  2.0102
  332MOL0     H43801   9.543   1.749   6.384 -1.9193 -1.2878  1.3567
  332MOL0     H43802   9.764   1.671   6.165  1.2667 -1.0354  3.2527
  332MOL0     H43803   9.672   1.819   6.162 -1.4991  0.2251 -0.5812
  332MOL0     H43804   9.860   1.753   6.394  0.9757 -1.5850 -2.0256
  332MOL0     H43805   9.775   1.915   6.348 -2.6506  0.2286 -1.2198
  332MOL0     H43806   9.059   1.246   5.803  0.0214 -0.3043 -0.2300
  332MOL0     H43807   8.872   1.099   5.748  0.0495  0.0941 -2.0611
  332MOL0     H43808   8.736   0.640   5.378 -1.0324  0.8495 -0.7540
  332MOL0     H43809   8.559   0.465   5.412  0.5979  1.3950 -0.7708
  332MOL0     H43810   9.027   1.512   5.800 -0.0244 -1.0456  1.2483
  332MOL0     H43811   9.175   1.699   5.836 -0.0642  1.3312 -0.4990
  332MOL0     H43812   9.427   1.971   6.307  2.3102  1.3253  0.5471
  332MOL0     H43813   9.641   2.078   6.270  3.0975 -0.8129 -3.0172
  332MOL0     H43814   9.713   2.358   5.953 -0.8593 -1.5279 -2.4799
  332MOL0     H43815   9.749   2.210   5.879 -0.7993  0.9159 -0.4490
  332MOL0     H43816   9.970   2.192   5.999  0.6854  0.5921 -1.4219
  332MOL0     H43817   9.963   2.339   5.902 -0.3405  0.9150  0.7203
  332MOL0     H43818   9.893   2.454   6.122  0.1938 -0.4456 -0.6980
  332MOL0     H43819  10.066   2.412   6.089  0.8919 -1.2566  0.2470
  332MOL0     H43820   9.862   2.309   6.277 -0.8191 -1.8065 -0.7911
  332MOL0     H43821  10.006   2.213   6.256 -0.6551  0.3611  1.0613
  332MOL0     H43822  10.173   2.479   6.510 -0.9165 -0.8837  2.1689
  332MOL0     H43823   9.532   2.154   5.857 -0.4268 -2.8208 -0.4999
  332MOL0     H43824   9.322   2.059   5.892  1.5696  1.9540 -1.3185
  333MOL0     O43825   2.624   3.529   7.755  0.0490  0.1505  0.2197
  333MOL0     C43826   2.660   3.465   7.656  0.3392  0.2515 -0.2796
  333MOL0     O43827   2.573   3.405   7.563 -0.1829 -0.3887  0.5998
  333MOL0     C43828   2.439   3.403   7.587  0.3669 -0.1427 -0.0541
  333MOL0     C43829   2.373   3.523   7.612 -0.0039  0.2726 -0.2842
  333MOL0     C43830   2.236   3.520   7.598  0.7530 -0.4824  0.6736
  333MOL0     C43831   2.161   3.404   7.573 -0.2077  0.5750  0.0118
  333MOL0     O43832   2.029   3.399   7.555  0.3875  0.3810 -0.6502
  333MOL0     C43833   1.943   3.437   7.668 -0.3935 -1.0935  0.2418
  333MOL0     C43834   1.806   3.404   7.619  0.3435 -0.1569  0.1265
  333MOL0     C43835   1.697   3.393   7.732  0.3818  0.0027  0.5935
  333MOL0     C43836   1.556   3.347   7.684 -0.1510 -0.2521  0.2646
  333MOL0     C43837   1.446   3.340   7.788 -0.7752  0.6095 -0.2749
  333MOL0     C43838   1.297   3.287   7.750 -0.1496 -0.6543 -0.0339
  333MOL0     C43839   1.198   3.303   7.866 -0.3953  0.1887  0.1328
  333MOL0     C43840   1.071   3.240   7.808  0.5229 -0.7196  0.8615
  333MOL0     N43841   0.948   3.297   7.873  0.7294 -0.0935  0.3782
  333MOL0     C43842   0.835   3.222   7.905 -0.7336 -0.0160 -0.6899
  333MOL0     C43843   0.767   3.304   7.983 -0.2905 -1.1203 -0.1063
  333MOL0     C43844   0.649   3.265   8.067 -0.5140 -0.2521 -0.1433
  333MOL0     C43845   0.535   3.369   8.071  0.3159  0.0798 -0.7556
  333MOL0     C43846   0.414   3.298   8.126  0.0866 -0.0056  0.2594
  333MOL0     C43847   0.306   3.402   8.163  0.8669  0.4024  0.2778
  333MOL0     O43848   0.171   3.335   8.171  0.0676  0.6649  0.1477
  333MOL0     C43849   0.059   3.420   8.198 -0.7871  0.1991 -0.2122
  333MOL0     C43850   0.070   3.539   8.277 -0.1938  0.2174 -0.1147
  333MOL0     C43851  -0.038   3.622   8.294 -0.0557 -0.0132  0.3456
  333MOL0     C43852  -0.167   3.586   8.250  1.0472  0.2174 -0.5966
  333MOL0     C43853  -0.286   3.680   8.273  0.9709  0.5420  1.0127
  333MOL0     O43854  -0.266   3.791   8.343  0.4870 -0.8895  0.1910
  333MOL0     C43855  -0.365   3.891   8.360  0.4366  0.5488 -0.4074
  333MOL0     C43856  -0.508   3.883   8.355  1.0093  0.4910 -0.3715
  333MOL0     C43857  -0.588   3.990   8.383  0.6840 -0.3006  0.9454
  333MOL0     C43858  -0.530   4.117   8.423 -0.2448 -0.4863 -0.0339
  333MOL0     O43859  -0.600   4.237   8.448 -0.2364  0.1795 -0.3577
  333MOL0     C43860  -0.720   4.267   8.375 -0.3054 -0.3759  0.3183
  333MOL0     C43861  -0.791   4.389   8.432 -0.4028 -1.1637  0.1371
  333MOL0     C43862  -0.899   4.457   8.339  0.4031  0.5863 -0.3118
  333MOL0     C43863  -0.942   4.587   8.408  0.1943 -0.5158  0.2021
  333MOL0     C43864  -1.076   4.629   8.346  1.0646 -0.5030 -0.0594
  333MOL0     C43865  -1.103   4.770   8.406 -0.7923 -0.2293  0.4863
  333MOL0     C43866  -1.221   4.847   8.336 -0.1377 -0.6596 -0.5568
  333MOL0     C43867  -1.348   4.786   8.352  0.2345  0.8735 -0.2144
  333MOL0    Cl43868  -1.484   4.909   8.291  0.2726  0.0565  0.1418
  333MOL0     C43869  -0.386   4.130   8.432 -0.0733  0.1396  0.5924
  333MOL0     C43870  -0.308   4.016   8.396 -0.7327 -0.3183 -0.9492
  333MOL0     O43871  -0.390   3.647   8.213 -0.3155 -0.4679  0.0755
  333MOL0     C43872  -0.186   3.456   8.187 -0.6589 -0.4878 -0.6161
  333MOL0     C43873  -0.072   3.376   8.167  0.1017 -0.6972  0.4943
  333MOL0     N43874   0.832   3.423   8.006  0.1913  0.2514 -0.2053
  333MOL0     N43875   0.941   3.411   7.941 -0.0476  0.4641  0.2330
  333MOL0     C43876   2.229   3.280   7.553  0.5550 -0.2667  0.6749
  333MOL0     C43877   2.363   3.280   7.557 -0.1945 -0.2958 -0.2310
  333MOL0     C43878   2.806   3.435   7.642  0.4662  0.7449  0.0603
  333MOL0     C43879   2.900   3.467   7.745  0.3963  0.1404  0.5308
  333MOL0     C43880   3.037   3.432   7.736 -1.1116  1.0806 -0.7627
  333MOL0     C43881   3.083   3.355   7.630 -0.2123  0.5216  0.7884
  333MOL0     O43882   3.215   3.307   7.632  0.2279 -0.0779 -0.2613
  333MOL0     C43883   3.309   3.347   7.724 -0.5166  0.3660 -0.5809
  333MOL0     C43884   3.454   3.316   7.669 -0.0144 -0.3713  0.3398
  333MOL0     C43885   3.491   3.168   7.661  0.2532 -0.4142 -0.1663
  333MOL0     C43886   3.621   3.136   7.597 -0.2081  0.1264 -0.4285
  333MOL0     C43887   3.738   3.214   7.651  0.4979 -0.0182  0.6706
  333MOL0     C43888   3.839   3.263   7.698 -0.3930 -0.7115  0.6682
  333MOL0     C43889   2.997   3.334   7.520 -0.0380 -0.5244 -0.1800
  333MOL0     C43890   2.857   3.368   7.531 -0.9157  0.8704  0.6142
  333MOL0     H43891   2.433   3.614   7.615  1.0749 -0.3794 -1.0724
  333MOL0     H43892   2.181   3.614   7.605  1.0293 -0.4528  3.6802
  333MOL0     H43893   1.958   3.545   7.681  1.1767 -1.1859 -0.5454
  333MOL0     H43894   1.952   3.384   7.763 -1.4459  0.2077  1.1038
  333MOL0     H43895   1.820   3.309   7.568  2.4532  0.1697 -0.0075
  333MOL0     H43896   1.781   3.475   7.540 -0.7292 -2.2960 -1.5313
  333MOL0     H43897   1.679   3.487   7.785 -1.6250 -0.0841  0.1531
  333MOL0     H43898   1.720   3.311   7.800 -0.7108 -0.6686  0.1996
  333MOL0     H43899   1.520   3.405   7.598 -1.3818 -0.1567  0.8243
  333MOL0     H43900   1.563   3.242   7.655  1.7330 -0.4530  1.2428
  333MOL0     H43901   1.430   3.439   7.831  1.9760  0.7012  0.6876
  333MOL0     H43902   1.481   3.281   7.873 -1.9181 -0.1807 -0.3239
  333MOL0     H43903   1.308   3.184   7.716 -1.3400 -0.9208  0.3535
  333MOL0     H43904   1.270   3.351   7.666  0.0516 -1.2546 -0.5589
  333MOL0     H43905   1.240   3.249   7.951  0.4556  0.3533 -0.1643
  333MOL0     H43906   1.185   3.410   7.885 -1.4050  0.3593 -1.3599
  333MOL0     H43907   1.086   3.132   7.819  2.3514 -0.3450  2.5275
  333MOL0     H43908   1.056   3.257   7.701  0.8184 -2.6397  0.4824
  333MOL0     H43909   0.811   3.117   7.900 -0.1126 -0.2473  0.5446
  333MOL0     H43910   0.692   3.233   8.162 -1.6310 -2.3543 -0.2904
  333MOL0     H43911   0.613   3.166   8.035 -0.7597 -0.5621  1.0314
  333MOL0     H43912   0.519   3.412   7.972 -1.4098 -1.4239 -1.1821
  333MOL0     H43913   0.563   3.448   8.142  0.1566  0.2797 -0.9116
  333MOL0     H43914   0.377   3.222   8.056 -1.9023  1.6064 -0.5054
  333MOL0     H43915   0.431   3.260   8.227 -1.3253  1.2421  1.0005
  333MOL0     H43916   0.290   3.469   8.079 -0.4023  0.0602  0.2223
  333MOL0     H43917   0.334   3.462   8.249  2.4591  0.5765 -0.3285
  333MOL0     H43918   0.167   3.581   8.301 -1.3747  2.0201  1.8278
  333MOL0     H43919  -0.036   3.723   8.333 -1.7597  0.5807 -0.9765
  333MOL0     H43920  -0.564   3.792   8.339  1.6236  0.2294 -1.1359
  333MOL0     H43921  -0.695   3.977   8.368  0.9816 -0.2266 -1.5819
  333MOL0     H43922  -0.794   4.187   8.369 -0.1150 -0.4567 -1.5340
  333MOL0     H43923  -0.692   4.286   8.271 -1.4163 -1.0654 -0.1265
  333MOL0     H43924  -0.718   4.469   8.448  1.3706 -2.2610 -2.0106
  333MOL0     H43925  -0.826   4.354   8.530  1.6030 -2.3931  0.4604
  333MOL0     H43926  -0.976   4.379   8.335  2.9823 -2.4968  3.2972
  333MOL0     H43927  -0.866   4.482   8.237  0.9807  2.2276  0.2458
  333MOL0     H43928  -0.951   4.586   8.517  1.8269 -0.0318  0.3800
  333MOL0     H43929  -0.867   4.666   8.394 -1.8485  1.6682  1.0072
  333MOL0     H43930  -1.163   4.567   8.367 -1.4517  3.1511  1.2181
  333MOL0     H43931  -1.077   4.648   8.238 -1.6730  0.9228  0.1569
  333MOL0     H43932  -1.009   4.825   8.396 -0.8308 -0.4343 -1.3261
  333MOL0     H43933  -1.121   4.779   8.513 -0.2979  1.1455  0.4771
  333MOL0     H43934  -1.221   4.949   8.375 -1.3345  0.3845 -3.0292
  333MOL0     H43935  -1.214   4.856   8.227 -1.3820  1.8608 -0.5056
  333MOL0     H43936  -1.376   4.754   8.453  2.2491  1.7051  0.6476
  333MOL0     H43937  -1.339   4.701   8.285 -0.5834  1.8604 -1.6439
  333MOL0     H43938  -0.361   4.234   8.454 -1.3275  0.7292 -0.5732
  333MOL0     H43939  -0.201   4.031   8.384 -0.1823 -1.5822  1.6255
  333MOL0     H43940  -0.285   3.414   8.177 -0.8710  0.1932 -1.4382
  333MOL0     H43941  -0.066   3.282   8.113 -0.3114 -2.0910  2.7460
  333MOL0     H43942   2.170   3.189   7.546  0.4275 -0.2836  1.7899
  333MOL0     H43943   2.414   3.187   7.533  0.0700 -1.1604  3.1311
  333MOL0     H43944   2.866   3.524   7.831 -1.5364  0.4933 -0.4098
  333MOL0     H43945   3.104   3.455   7.819 -2.4926  0.3466  0.6161
  333MOL0     H43946   3.293   3.290   7.816 -1.2790  1.9254  0.3083
  333MOL0     H43947   3.316   3.454   7.747 -3.7147  0.2189  1.6395
  333MOL0     H43948   3.474   3.351   7.567  1.6432  0.3228  0.8820
  333MOL0     H43949   3.527   3.357   7.738  0.1359 -1.0388  0.5860
  333MOL0     H43950   3.411   3.114   7.610  0.5859 -0.0309 -1.0989
  333MOL0     H43951   3.494   3.121   7.760 -1.9555  3.7307  2.1729
  333MOL0     H43952   3.635   3.033   7.633  0.3193  0.1333 -0.6168
  333MOL0     H43953   3.626   3.135   7.488 -0.7236 -1.4207 -0.4655
  333MOL0     H43954   3.936   3.299   7.726 -0.1288 -0.9028  0.0108
  333MOL0     H43955   3.029   3.277   7.434 -0.1060 -1.7980  0.6117
  333MOL0     H43956   2.796   3.352   7.443 -1.1449 -3.2238  1.3310
  334MOL0     O43957   4.036   0.317   7.463 -0.5528 -0.6303 -0.1491
  334MOL0     C43958   4.048   0.409   7.379  0.7744  0.1455 -0.1393
  334MOL0     O43959   3.937   0.482   7.325  0.6943 -0.1930 -0.9264
  334MOL0     C43960   3.815   0.435   7.356 -0.0048  0.0832  0.1595
  334MOL0     C43961   3.771   0.302   7.347 -0.1786  1.0098  0.1918
  334MOL0     C43962   3.641   0.262   7.390  0.3357  0.1281 -0.4712
  334MOL0     C43963   3.552   0.360   7.436 -0.3770  0.1870  0.1305
  334MOL0     O43964   3.431   0.317   7.478  0.3280  0.1157 -0.4039
  334MOL0     C43965   3.314   0.405   7.484  0.4574  0.0342  0.2580
  334MOL0     C43966   3.195   0.323   7.539 -0.4007 -0.4892  0.4335
  334MOL0     C43967   3.173   0.218   7.428  0.5649 -0.9155 -0.1832
  334MOL0     C43968   3.032   0.155   7.440 -0.5211  0.6603 -0.1684
  334MOL0     C43969   3.006   0.062   7.331  0.7908 -0.7065  1.3096
  334MOL0     C43970   2.928  -0.067   7.360 -0.2013  0.1422 -0.3563
  334MOL0     C43971   2.784  -0.034   7.361 -0.0664 -0.2189 -0.0911
  334MOL0     C43972   2.706  -0.139   7.433  0.5369  0.2628 -0.6683
  334MOL0     N43973   2.660  -0.251   7.343 -0.3306 -0.1649  0.2855
  334MOL0     C43974   2.534  -0.259   7.288 -0.5203  0.3056  0.0336
  334MOL0     C43975   2.530  -0.380   7.219  0.0171 -0.8495  0.0800
  334MOL0     C43976   2.412  -0.427   7.143 -0.6318  0.2828  0.4269
  334MOL0     C43977   2.376  -0.574   7.166 -0.0513  0.5610 -0.4396
  334MOL0     C43978   2.306  -0.644   7.052 -0.1896  0.2205  0.5956
  334MOL0     C43979   2.172  -0.584   7.015  0.5260 -0.0953 -0.0675
  334MOL0     O43980   2.066  -0.615   7.111  0.7867 -0.0013 -0.2030
  334MOL0     C43981   1.956  -0.538   7.112  0.3188  0.3823  0.4861
  334MOL0     C43982   1.904  -0.468   7.002 -1.1236  0.6430 -0.2699
  334MOL0     C43983   1.781  -0.398   7.018 -0.6494  0.9968  0.0255
  334MOL0     C43984   1.710  -0.398   7.140 -0.0912 -0.2761 -0.2487
  334MOL0     C43985   1.576  -0.331   7.158 -0.5260  0.7377  0.1409
  334MOL0     O43986   1.534  -0.267   7.044 -0.3455  0.3060 -0.4129
  334MOL0     C43987   1.420  -0.196   7.062  0.0484 -0.8384 -0.3877
  334MOL0     C43988   1.297  -0.228   6.999 -0.3287 -0.5973 -0.6670
  334MOL0     C43989   1.181  -0.160   7.032  0.5768  0.5246  1.1061
  334MOL0     C43990   1.178  -0.050   7.115 -0.9144  0.1003 -0.9869
  334MOL0     O43991   1.070   0.033   7.129  0.4981 -0.4097  0.4201
  334MOL0     C43992   1.081   0.144   7.219 -0.0073  0.3575 -0.5146
  334MOL0     C43993   1.139   0.268   7.144  0.0893 -0.2478  0.4289
  334MOL0     C43994   1.038   0.345   7.053  0.0101  0.7487 -0.8659
  334MOL0     C43995   0.960   0.455   7.137 -0.3616  0.5908  0.4759
  334MOL0     C43996   0.846   0.516   7.043 -0.2795  0.1956 -0.3397
  334MOL0     C43997   0.780   0.638   7.117  0.2681  0.1329 -0.0892
  334MOL0     C43998   0.869   0.751   7.110 -0.1398 -0.2970  0.3699
  334MOL0     C43999   0.797   0.884   7.134  0.1873  0.7508 -0.9004
  334MOL0    Cl44000   0.906   1.020   7.118 -0.5229  0.0285 -0.1834
  334MOL0     C44001   1.299  -0.018   7.183  0.0304  0.5395 -0.1057
  334MOL0     C44002   1.416  -0.090   7.151  0.5983  0.4587  0.4645
  334MOL0     O44003   1.510  -0.349   7.268 -0.6783 -0.4353 -0.1877
  334MOL0     C44004   1.754  -0.485   7.240  0.2241  0.3317  0.6409
  334MOL0     C44005   1.878  -0.551   7.232 -0.3042 -0.2020 -0.0101
  334MOL0     N44006   2.649  -0.449   7.246  0.9940 -0.0582  0.4163
  334MOL0     N44007   2.725  -0.368   7.322 -0.4762 -0.7316 -0.3568
  334MOL0     C44008   3.587   0.494   7.439  0.3468 -0.0065 -0.3005
  334MOL0     C44009   3.717   0.531   7.399  0.0876  0.8287  0.2413
  334MOL0     C44010   4.179   0.444   7.339  0.6604 -0.2651  0.1686
  334MOL0     C44011   4.217   0.553   7.255 -0.3892 -0.2604 -0.2054
  334MOL0     C44012   4.353   0.592   7.218 -0.3202  0.0424  0.9920
  334MOL0     C44013   4.453   0.513   7.274  0.1273  0.8653 -0.0266
  334MOL0     O44014   4.581   0.548   7.247  0.4304 -0.5128 -0.4216
  334MOL0     C44015   4.692   0.486   7.311 -0.3117  0.9422  0.8378
  334MOL0     C44016   4.818   0.568   7.285 -1.6417  0.6221  0.6495
  334MOL0     C44017   4.950   0.509   7.349 -0.6792  0.3701 -0.3274
  334MOL0     C44018   5.073   0.547   7.261  0.5991  0.1620 -0.2310
  334MOL0     C44019   5.090   0.694   7.274 -1.3163  0.1215  0.2191
  334MOL0     C44020   5.100   0.814   7.273  1.2638  0.4378  0.0389
  334MOL0     C44021   4.415   0.405   7.357  0.2117  0.0521  0.0877
  334MOL0     C44022   4.289   0.375   7.391 -0.0334  0.7954 -0.7654
  334MOL0     H44023   3.850   0.240   7.305 -1.4354 -0.1445 -0.5260
  334MOL0     H44024   3.609   0.159   7.372 -0.4877  0.6527 -2.2628
  334MOL0     H44025   3.288   0.443   7.385 -1.3407 -2.9294 -0.5427
  334MOL0     H44026   3.334   0.484   7.557  0.9581 -1.7975  2.1946
  334MOL0     H44027   3.114   0.394   7.558 -0.1753 -0.0676 -0.1624
  334MOL0     H44028   3.227   0.282   7.635 -0.8405  1.4838  1.4755
  334MOL0     H44029   3.252   0.142   7.435  3.7406  1.9205 -2.3014
  334MOL0     H44030   3.178   0.265   7.330  1.3767 -1.2622 -0.3164
  334MOL0     H44031   3.026   0.105   7.537  0.1414 -0.7926 -0.8455
  334MOL0     H44032   2.962   0.238   7.424 -0.9195  0.1466 -1.1928
  334MOL0     H44033   3.099   0.034   7.281  0.9529  1.0729  0.5623
  334MOL0     H44034   2.962   0.116   7.247 -0.4635  2.1268  3.6152
  334MOL0     H44035   2.956  -0.094   7.462  1.8376  2.4650 -0.2229
  334MOL0     H44036   2.951  -0.148   7.290 -3.9336 -2.7244  1.3763
  334MOL0     H44037   2.769   0.056   7.421 -0.3673  0.1177 -0.6641
  334MOL0     H44038   2.755  -0.011   7.258 -2.6624 -0.6322  0.4811
  334MOL0     H44039   2.608  -0.094   7.455  0.0182 -0.2648 -1.7782
  334MOL0     H44040   2.747  -0.179   7.526  0.6310 -0.8329 -1.1700
  334MOL0     H44041   2.455  -0.186   7.274 -1.5100 -0.9997 -1.5636
  334MOL0     H44042   2.429  -0.423   7.035 -1.3387  2.0960  0.3567
  334MOL0     H44043   2.318  -0.375   7.166 -0.8508 -0.8219  2.3067
  334MOL0     H44044   2.312  -0.586   7.254  0.4076  0.2354 -0.1432
  334MOL0     H44045   2.466  -0.634   7.187 -0.0492  0.2553 -1.2661
  334MOL0     H44046   2.369  -0.640   6.963  1.5253  2.1204  1.8237
  334MOL0     H44047   2.298  -0.751   7.076 -0.9873 -0.3008 -1.7000
  334MOL0     H44048   2.138  -0.619   6.918 -0.3998  1.6339 -0.4077
  334MOL0     H44049   2.172  -0.475   7.009  1.0375 -0.1288 -0.7278
  334MOL0     H44050   1.960  -0.469   6.909  1.9743  1.8164  1.4219
  334MOL0     H44051   1.745  -0.330   6.942  2.3360  1.0171 -1.5424
  334MOL0     H44052   1.303  -0.314   6.932  1.2568 -1.1714  0.1406
  334MOL0     H44053   1.087  -0.185   6.983 -1.2602  0.7486  4.2442
  334MOL0     H44054   1.126   0.111   7.313  1.5817  1.4953 -0.8295
  334MOL0     H44055   0.975   0.164   7.237 -0.6507 -2.6634 -0.5251
  334MOL0     H44056   1.219   0.235   7.077 -0.1855  1.7988 -1.0094
  334MOL0     H44057   1.185   0.340   7.213 -0.1042 -0.3728  0.6908
  334MOL0     H44058   0.966   0.273   7.013 -0.5251  0.0147  1.2798
  334MOL0     H44059   1.085   0.387   6.963 -0.2273  0.9145 -0.9138
  334MOL0     H44060   0.914   0.408   7.225  1.6593  0.8615  1.7494
  334MOL0     H44061   1.032   0.532   7.166  1.8904 -1.8269  1.7315
  334MOL0     H44062   0.766   0.448   7.015  0.7719 -2.2582  2.1051
  334MOL0     H44063   0.903   0.548   6.956  1.2286 -1.1713  0.0963
  334MOL0     H44064   0.773   0.603   7.220  1.4360 -3.3495 -1.0295
  334MOL0     H44065   0.677   0.653   7.082 -0.2863 -1.7039  0.6318
  334MOL0     H44066   0.948   0.753   7.185 -0.8264  1.4624  1.1016
  334MOL0     H44067   0.914   0.754   7.011 -0.1541 -0.7299  0.3480
  334MOL0     H44068   0.761   0.871   7.237  0.1177 -1.2107 -1.1382
  334MOL0     H44069   0.712   0.899   7.066 -0.1670 -1.2014 -0.9591
  334MOL0     H44070   1.316   0.064   7.252  1.3231  1.8593 -1.9346
  334MOL0     H44071   1.499  -0.051   7.209  1.2297 -0.8020  0.4314
  334MOL0     H44072   1.686  -0.498   7.323 -2.0451 -0.6005 -1.2535
  334MOL0     H44073   1.930  -0.603   7.312  0.8553  2.0447  0.8096
  334MOL0     H44074   3.520   0.575   7.464  0.4948 -0.1668  0.6273
  334MOL0     H44075   3.759   0.631   7.400 -0.0681  0.8970  0.0807
  334MOL0     H44076   4.145   0.621   7.211  1.0738  1.8592  0.5250
  334MOL0     H44077   4.390   0.681   7.168 -1.0487 -0.0236  0.3138
  334MOL0     H44078   4.711   0.382   7.280 -1.5091  0.6542  1.0111
  334MOL0     H44079   4.675   0.487   7.419 -0.4826 -3.2235  1.0452
  334MOL0     H44080   4.834   0.586   7.178 -0.6011 -3.0858  0.0291
  334MOL0     H44081   4.815   0.666   7.333  4.2694 -0.0298  3.2535
  334MOL0     H44082   4.947   0.400   7.355  1.9372  0.2569 -0.0126
  334MOL0     H44083   4.959   0.549   7.450 -2.4369 -1.3734  0.5904
  334MOL0     H44084   5.164   0.489   7.279  0.0438 -0.7547 -0.3162
  334MOL0     H44085   5.055   0.516   7.158 -2.4366 -2.0262  0.7866
  334MOL0     H44086   5.099   0.918   7.301 -2.2616  0.1206  1.5588
  334MOL0     H44087   4.500   0.359   7.406  1.2724  2.5738  0.7755
  334MOL0     H44088   4.296   0.295   7.463  4.5595 -0.5003 -2.3381
  335MOL0     O44089   4.956  11.212  10.510 -0.0152  0.3480  0.7124
  335MOL0     C44090   5.001  11.135  10.425  1.3715 -0.3680  0.1967
  335MOL0     O44091   4.945  11.118  10.298  0.1691 -0.2857  0.2503
  335MOL0     C44092   4.819  11.162  10.260 -0.9921 -0.3355  0.5863
  335MOL0     C44093   4.785  11.138  10.128 -1.0168 -0.0915  0.4516
  335MOL0     C44094   4.668  11.173  10.079  1.2179  0.9749 -0.0805
  335MOL0     C44095   4.575  11.243  10.164  0.2182 -0.3188  0.0184
  335MOL0     O44096   4.450  11.276  10.122 -0.5018  0.1236 -0.7086
  335MOL0     C44097   4.421  11.272   9.981 -0.0363 -0.0415 -0.2559
  335MOL0     C44098   4.290  11.364   9.955  1.0021 -0.6246 -0.5079
  335MOL0     C44099   4.168  11.281  10.018 -0.2337  0.3144  0.0082
  335MOL0     C44100   4.042  11.366  10.013 -0.8078 -0.0674  0.8578
  335MOL0     C44101   3.928  11.291  10.080  1.9970  0.5406 -0.3593
  335MOL0     C44102   3.802  11.376  10.054  0.3750 -0.0781 -0.0512
  335MOL0     C44103   3.681  11.314  10.135  0.3416 -0.4271  0.2600
  335MOL0     C44104   3.550  11.353  10.059  0.4362  0.2131  0.1798
  335MOL0     N44105   3.427  11.288  10.105  0.3201  0.4339 -0.6625
  335MOL0     C44106   3.363  11.172  10.054  0.1862 -0.9984  0.1621
  335MOL0     C44107   3.256  11.171  10.132  0.5537  0.6990  0.0383
  335MOL0     C44108   3.150  11.064  10.148  0.2640  0.4932  0.1998
  335MOL0     C44109   3.025  11.106  10.061  0.4114  0.4511  0.7951
  335MOL0     C44110   2.954  10.983  10.003  0.0457  0.5825 -0.8400
  335MOL0     C44111   2.803  11.018   9.981  0.2487  0.8031 -0.5275
  335MOL0     O44112   2.721  10.982  10.098  0.8167 -0.1835  0.6780
  335MOL0     C44113   2.581  10.990  10.089 -0.4540  0.7735  0.8459
  335MOL0     C44114   2.522  10.998  10.214  0.5069 -0.1601  0.0839
  335MOL0     C44115   2.385  11.027  10.227 -0.3797  0.9860  0.3986
  335MOL0     C44116   2.304  11.047  10.112  1.0620  0.2387 -0.0469
  335MOL0     C44117   2.157  11.091  10.132  0.4315  0.2200  0.0991
  335MOL0     O44118   2.093  11.124  10.014 -0.1286 -0.8575  0.0561
  335MOL0     C44119   1.973  11.192  10.014  0.0537  0.4157  0.5497
  335MOL0     C44120   1.891  11.180   9.899 -0.1738  0.5401  1.2934
  335MOL0     C44121   1.764  11.235   9.890 -0.4546 -0.3046  0.8910
  335MOL0     C44122   1.722  11.320   9.991 -0.9769  0.7286  0.7663
  335MOL0     O44123   1.599  11.381   9.999 -0.4196  0.6259  0.3704
  335MOL0     C44124   1.504  11.355   9.902 -0.6468  0.4927  0.3468
  335MOL0     C44125   1.382  11.429   9.934  0.3159 -0.2464  0.5773
  335MOL0     C44126   1.287  11.362  10.029 -0.5565  0.5646 -0.1951
  335MOL0     C44127   1.163  11.448  10.038 -0.1511  0.0367  0.0418
  335MOL0     C44128   1.092  11.431  10.171  0.6227  0.0613  1.1550
  335MOL0     C44129   0.958  11.511  10.177 -0.6559  0.0967 -0.1074
  335MOL0     C44130   0.859  11.457  10.286 -1.2831  0.1587 -0.6959
  335MOL0     C44131   0.719  11.509  10.294 -0.8616 -0.0807  0.4110
  335MOL0    Cl44132   0.702  11.673  10.376 -0.2590 -0.0073  0.2315
  335MOL0     C44133   1.803  11.334  10.109 -0.4468 -1.0779 -0.1719
  335MOL0     C44134   1.926  11.276  10.121  0.3432  1.2786  0.4322
  335MOL0     O44135   2.111  11.093  10.248 -0.6648  0.5978  0.6531
  335MOL0     C44136   2.371  11.038   9.988  0.2155  0.2489  0.4736
  335MOL0     C44137   2.503  11.008   9.975 -0.0240 -0.2464  0.1795
  335MOL0     N44138   3.252  11.277  10.219  0.3861  0.4450 -0.2555
  335MOL0     N44139   3.355  11.349  10.200  0.7420  0.6427 -0.0715
  335MOL0     C44140   4.605  11.261  10.298  0.9464 -0.1977  0.0656
  335MOL0     C44141   4.728  11.218  10.349  0.3858 -0.1174  0.2272
  335MOL0     C44142   5.128  11.065  10.454 -1.0263 -0.5965 -0.0840
  335MOL0     C44143   5.201  10.986  10.362  1.0417  0.6580  0.4323
  335MOL0     C44144   5.320  10.923  10.390  0.6988 -0.6691 -1.0679
  335MOL0     C44145   5.378  10.933  10.519  0.4274 -0.1108 -0.5941
  335MOL0     O44146   5.500  10.866  10.540 -0.5299 -0.5404 -0.1664
  335MOL0     C44147   5.565  10.890  10.668 -0.0853 -0.0418 -0.1900
  335MOL0     C44148   5.668  10.775  10.702 -0.4285 -0.5252 -0.3252
  335MOL0     C44149   5.743  10.728  10.569 -0.5023  0.8306  0.4813
  335MOL0     C44150   5.867  10.643  10.600 -0.4384  0.1700 -0.6431
  335MOL0     C44151   5.919  10.589  10.476  0.2931 -0.0693 -0.1505
  335MOL0     C44152   5.944  10.553  10.365 -0.4024  0.9684 -0.0818
  335MOL0     C44153   5.316  11.018  10.614  0.5543  0.3824  0.3981
  335MOL0     C44154   5.199  11.091  10.575  0.0892 -0.0422  0.4168
  335MOL0     H44155   4.857  11.080  10.071  0.7979  0.5929  1.9310
  335MOL0     H44156   4.642  11.129   9.983  0.1942 -0.6546  0.8894
  335MOL0     H44157   4.416  11.169   9.945  2.3867 -0.2667 -0.1028
  335MOL0     H44158   4.501  11.310   9.917  0.5717 -1.7993 -0.6099
  335MOL0     H44159   4.269  11.378   9.849 -3.0070  1.2202  0.3557
  335MOL0     H44160   4.302  11.453  10.017 -0.9452 -1.0257  0.5511
  335MOL0     H44161   4.186  11.250  10.121 -2.0451 -0.6535  0.0745
  335MOL0     H44162   4.151  11.184   9.970  4.3714 -0.6175 -0.2025
  335MOL0     H44163   4.062  11.463  10.058  1.4167  0.2643 -0.6785
  335MOL0     H44164   4.024  11.396   9.909  0.9450 -1.5187  0.0812
  335MOL0     H44165   3.948  11.288  10.188 -0.9513 -1.8738  0.2315
  335MOL0     H44166   3.916  11.189  10.044 -1.2389  0.8933 -0.6193
  335MOL0     H44167   3.778  11.376   9.947 -0.7270 -1.4552  0.1729
  335MOL0     H44168   3.823  11.472  10.102 -1.0688 -0.2148  0.9171
  335MOL0     H44169   3.681  11.205  10.128 -0.1689 -0.5212  1.4843
  335MOL0     H44170   3.674  11.335  10.242  0.6980 -0.7878  0.3581
  335MOL0     H44171   3.565  11.349   9.950  1.2614  1.0157  0.2532
  335MOL0     H44172   3.541  11.460  10.077  1.6279 -0.0159  2.4591
  335MOL0     H44173   3.383  11.109   9.967  1.4668 -0.0457 -0.2530
  335MOL0     H44174   3.128  11.059  10.255  0.8135  1.7487  0.3947
  335MOL0     H44175   3.181  10.963  10.121 -0.3423  0.9936 -2.7892
  335MOL0     H44176   3.057  11.171   9.980  0.3584 -0.1028  0.3181
  335MOL0     H44177   2.957  11.169  10.119 -3.3761  0.8220 -3.5288
  335MOL0     H44178   2.996  10.942   9.911 -1.9532 -1.4010 -0.9543
  335MOL0     H44179   2.956  10.907  10.082  1.5696 -1.2448 -2.5204
  335MOL0     H44180   2.774  10.948   9.902  1.6897 -1.3390  0.7222
  335MOL0     H44181   2.780  11.122   9.958  3.8716  2.0282  0.6927
  335MOL0     H44182   2.581  10.985  10.304  0.0117 -0.3387  0.3833
  335MOL0     H44183   2.341  11.042  10.325 -1.2679 -2.7827  0.7087
  335MOL0     H44184   1.923  11.119   9.815 -0.6811 -0.1875  1.6201
  335MOL0     H44185   1.700  11.225   9.802 -2.4136 -1.0685  2.3303
  335MOL0     H44186   1.498  11.246   9.892  0.6216 -0.1190  4.3800
  335MOL0     H44187   1.545  11.392   9.807  2.1139 -0.7758  0.9396
  335MOL0     H44188   1.329  11.452   9.841 -0.7023  0.1132  1.2267
  335MOL0     H44189   1.414  11.523   9.981  0.5168 -0.7196  1.4027
  335MOL0     H44190   1.342  11.361  10.124  2.3070  1.9302 -1.7223
  335MOL0     H44191   1.267  11.258  10.000 -1.6566  1.0995 -1.4784
  335MOL0     H44192   1.194  11.553  10.043 -0.1233  0.0491 -0.3270
  335MOL0     H44193   1.096  11.425   9.954  0.3100  0.2095 -0.3825
  335MOL0     H44194   1.162  11.451  10.253  2.0295 -2.0916  0.5661
  335MOL0     H44195   1.079  11.322  10.170  3.8470 -0.4322 -0.0918
  335MOL0     H44196   0.910  11.494  10.081  1.9615 -0.1225 -1.4767
  335MOL0     H44197   0.990  11.615  10.168 -0.9343  0.0514 -2.1580
  335MOL0     H44198   0.866  11.352  10.254  0.9504 -0.4660  1.4841
  335MOL0     H44199   0.900  11.467  10.387 -1.3930 -0.5869 -0.5732
  335MOL0     H44200   0.656  11.431  10.339 -0.3053 -0.4734  0.5179
  335MOL0     H44201   0.676  11.519  10.195 -3.0282  0.5869  1.3627
  335MOL0     H44202   1.773  11.401  10.188  3.6358 -1.1213  1.6232
  335MOL0     H44203   1.985  11.298  10.209  0.5405 -0.7358  0.8539
  335MOL0     H44204   2.319  11.069   9.898  1.1629  1.2895  0.2572
  335MOL0     H44205   2.552  11.011   9.878 -0.6625 -1.4032 -0.1968
  335MOL0     H44206   4.527  11.310  10.355 -0.5989  0.1856 -2.2299
  335MOL0     H44207   4.747  11.226  10.455  1.5316  2.1680 -0.0800
  335MOL0     H44208   5.176  10.963  10.259  2.4570 -3.1914  0.7774
  335MOL0     H44209   5.357  10.850  10.319  1.8621  1.6819 -3.0012
  335MOL0     H44210   5.491  10.887  10.749 -0.5799  0.5335 -0.6056
  335MOL0     H44211   5.609  10.991  10.664 -1.6214  0.6304 -1.0908
  335MOL0     H44212   5.751  10.807  10.765 -0.7776 -0.8490  0.3041
  335MOL0     H44213   5.612  10.704  10.764  1.4080  0.0143  2.0853
  335MOL0     H44214   5.767  10.816  10.507  0.6139  0.9098  0.9990
  335MOL0     H44215   5.663  10.668  10.526 -0.6841  1.2444  0.2281
  335MOL0     H44216   5.942  10.700  10.655 -0.7744  0.5826 -0.6096
  335MOL0     H44217   5.855  10.565  10.676  1.5784  0.4488  0.0278
  335MOL0     H44218   5.963  10.524  10.263  0.4666  2.3638 -0.3430
  335MOL0     H44219   5.345  11.047  10.715  0.7617 -1.2713  0.8589
  335MOL0     H44220   5.163  11.155  10.655  1.2966  1.0892  0.0871
  336MOL0     O44221   9.585  10.812   5.097  0.5163  0.8236 -0.2950
  336MOL0     C44222   9.628  10.702   5.130 -1.0607  0.5469  0.5103
  336MOL0     O44223   9.569  10.615   5.218 -0.1260 -0.8818  0.5564
  336MOL0     C44224   9.439  10.636   5.263 -0.0080  0.0120  0.9893
  336MOL0     C44225   9.330  10.667   5.183 -0.6881  0.0637 -0.3311
  336MOL0     C44226   9.203  10.693   5.241  0.1679 -0.2681  0.0016
  336MOL0     C44227   9.175  10.668   5.383 -0.1149 -0.0415 -0.2371
  336MOL0     O44228   9.044  10.675   5.429  0.5593  0.6976  0.3434
  336MOL0     C44229   9.031  10.703   5.564  0.0828  0.3182  0.3487
  336MOL0     C44230   8.891  10.759   5.600 -0.2210 -0.0850 -0.1755
  336MOL0     C44231   8.787  10.650   5.604  0.7407 -0.6821  0.1657
  336MOL0     C44232   8.651  10.712   5.587  0.1997  0.0444 -0.7034
  336MOL0     C44233   8.610  10.784   5.718 -0.9273 -0.5286  1.4754
  336MOL0     C44234   8.469  10.853   5.701  0.2006 -0.2248  0.0459
  336MOL0     C44235   8.435  10.945   5.824 -0.0233 -1.1954  0.2422
  336MOL0     C44236   8.497  11.090   5.816  0.2423  0.2611  0.5305
  336MOL0     N44237   8.462  11.160   5.940  0.0484  0.1755 -0.4692
  336MOL0     C44238   8.494  11.131   6.071 -0.4874 -0.7041  0.0882
  336MOL0     C44239   8.462  11.237   6.150 -0.3666  0.0295 -0.1604
  336MOL0     C44240   8.500  11.243   6.301 -0.4824  0.5611 -0.5163
  336MOL0     C44241   8.566  11.375   6.347 -0.8093 -0.5789 -0.2584
  336MOL0     C44242   8.719  11.386   6.324  0.1753  0.6689 -0.1193
  336MOL0     C44243   8.754  11.380   6.180 -0.5605 -0.0450  0.9060
  336MOL0     O44244   8.696  11.496   6.119 -0.3036  0.5500 -0.1645
  336MOL0     C44245   8.755  11.537   6.005 -1.1000 -0.4230 -0.2787
  336MOL0     C44246   8.717  11.476   5.885  0.9306 -0.6422 -0.1109
  336MOL0     C44247   8.758  11.520   5.764 -0.2591 -0.9156 -0.4486
  336MOL0     C44248   8.856  11.619   5.755 -0.3172 -0.0043 -0.5302
  336MOL0     C44249   8.910  11.667   5.615  0.0970 -0.5029 -0.6985
  336MOL0     O44250   8.875  11.586   5.511 -0.7584 -0.1868  0.3115
  336MOL0     C44251   8.926  11.620   5.387  0.1050 -0.3035  0.3706
  336MOL0     C44252   8.836  11.604   5.281 -0.0973  0.2415  0.1234
  336MOL0     C44253   8.882  11.607   5.150  0.0570  0.1294 -0.0521
  336MOL0     C44254   9.019  11.621   5.117 -0.4477 -0.0659  0.4583
  336MOL0     O44255   9.063  11.625   4.983  0.5876  0.2949  0.0817
  336MOL0     C44256   9.186  11.695   4.947  0.2232  1.1116  0.0446
  336MOL0     C44257   9.182  11.743   4.802  0.7853 -0.2221 -0.5978
  336MOL0     C44258   9.262  11.870   4.779 -0.2362 -0.8857  0.1107
  336MOL0     C44259   9.394  11.893   4.837  0.0275  0.1809 -0.9455
  336MOL0     C44260   9.472  12.007   4.760 -0.1422  0.9521 -0.0883
  336MOL0     C44261   9.610  12.019   4.814 -0.3665 -0.7679 -0.5930
  336MOL0     C44262   9.622  12.111   4.946  0.2990  0.1591  0.1755
  336MOL0     C44263   9.755  12.104   5.018 -0.4592  0.2471 -0.7313
  336MOL0    Cl44264   9.886  12.133   4.910 -0.3760 -0.4206 -0.2822
  336MOL0     C44265   9.106  11.642   5.222 -0.6158  0.2344 -1.5327
  336MOL0     C44266   9.060  11.630   5.352  0.3548  0.1712 -0.0806
  336MOL0     O44267   8.993  11.761   5.620 -0.2442  0.5738 -0.0197
  336MOL0     C44268   8.911  11.673   5.880 -0.3457 -0.2697  0.7640
  336MOL0     C44269   8.859  11.632   6.000  0.3016 -0.3069 -1.2448
  336MOL0     N44270   8.400  11.330   6.073 -0.1857  0.9212 -0.1571
  336MOL0     N44271   8.402  11.283   5.948  0.4331  0.0118 -0.2993
  336MOL0     C44272   9.278  10.631   5.461 -0.7916  0.1905  0.0303
  336MOL0     C44273   9.412  10.616   5.401 -0.4502 -0.4393 -0.3557
  336MOL0     C44274   9.763  10.654   5.074  0.1286  0.0197  0.7676
  336MOL0     C44275   9.828  10.723   4.962  0.6522  0.0203 -0.9027
  336MOL0     C44276   9.960  10.698   4.922  0.8806  0.1506 -0.3737
  336MOL0     C44277  10.026  10.586   4.974 -1.1430 -0.7059  0.7567
  336MOL0     O44278  10.148  10.576   4.906 -0.1019 -0.1661  0.2032
  336MOL0     C44279  10.222  10.457   4.942  0.2903 -0.3990 -0.2357
  336MOL0     C44280  10.361  10.454   4.879  0.4576  0.0288 -0.1202
  336MOL0     C44281  10.449  10.342   4.918 -0.1392  0.6565 -0.1225
  336MOL0     C44282  10.403  10.192   4.888 -0.3958 -0.5526  0.0893
  336MOL0     C44283  10.392  10.162   4.745  0.9802  0.6439 -0.0358
  336MOL0     C44284  10.393  10.169   4.627 -0.1075 -0.2217  0.2866
  336MOL0     C44285   9.958  10.501   5.061 -0.0596  0.1190 -0.6601
  336MOL0     C44286   9.831  10.533   5.108 -0.2277 -0.3172  0.2958
  336MOL0     H44287   9.359  10.688   5.080  2.3830  0.9988  0.6237
  336MOL0     H44288   9.120  10.711   5.174 -0.0624  0.0489  0.3662
  336MOL0     H44289   9.102  10.782   5.589 -0.1229  1.5224 -2.4712
  336MOL0     H44290   9.055  10.619   5.630 -0.6534 -0.5177 -0.4056
  336MOL0     H44291   8.872  10.843   5.533 -0.2755 -0.0047 -0.0577
  336MOL0     H44292   8.900  10.803   5.700 -4.1499  0.5707  0.0422
  336MOL0     H44293   8.781  10.582   5.690  0.1227 -1.8949 -0.8071
  336MOL0     H44294   8.803  10.595   5.511 -1.4029 -0.8430 -0.1691
  336MOL0     H44295   8.660  10.788   5.509 -1.4467  0.7523 -0.2509
  336MOL0     H44296   8.576  10.634   5.570 -0.7374  0.0820  2.6481
  336MOL0     H44297   8.677  10.865   5.748 -1.4832 -0.1938  1.8425
  336MOL0     H44298   8.599  10.706   5.794  1.5763 -1.3175  1.1149
  336MOL0     H44299   8.406  10.764   5.688  0.2157  0.1037 -3.2721
  336MOL0     H44300   8.461  10.919   5.614  0.7650  0.3156  0.3980
  336MOL0     H44301   8.326  10.950   5.834  0.1255 -0.8314  1.8845
  336MOL0     H44302   8.474  10.894   5.913  5.0424  0.6143 -0.6146
  336MOL0     H44303   8.461  11.140   5.725 -0.8670 -2.0835 -0.4260
  336MOL0     H44304   8.605  11.085   5.806  0.3193  0.1802  1.3590
  336MOL0     H44305   8.554  11.048   6.107  3.6514  1.5359 -1.0368
  336MOL0     H44306   8.573  11.171   6.340  0.5097  1.6743 -0.2469
  336MOL0     H44307   8.407  11.222   6.354  0.5653 -1.1918  0.7111
  336MOL0     H44308   8.554  11.381   6.456  0.6101 -1.6402 -0.0190
  336MOL0     H44309   8.503  11.455   6.307 -0.2204 -0.1211 -0.2698
  336MOL0     H44310   8.744  11.480   6.374  0.6559 -0.5931  2.1233
  336MOL0     H44311   8.776  11.305   6.370  0.7785  1.0680 -0.1508
  336MOL0     H44312   8.725  11.291   6.125  0.8850  1.3162 -2.3350
  336MOL0     H44313   8.863  11.376   6.172 -0.3162  1.0733  2.9300
  336MOL0     H44314   8.652  11.390   5.881  0.7369 -0.4967 -0.1080
  336MOL0     H44315   8.721  11.468   5.676 -0.2129 -3.1194  0.7769
  336MOL0     H44316   8.731  11.599   5.310 -0.9216  4.1366 -1.4918
  336MOL0     H44317   8.813  11.596   5.067  0.6771  0.3167 -0.5994
  336MOL0     H44318   9.269  11.626   4.963 -1.1457 -0.6212 -0.0719
  336MOL0     H44319   9.201  11.775   5.021 -0.0799  1.1314  0.0868
  336MOL0     H44320   9.078  11.759   4.773  1.6253  0.5126 -3.5259
  336MOL0     H44321   9.215  11.667   4.731 -0.4272 -2.0179  0.6595
  336MOL0     H44322   9.215  11.960   4.820  1.7616  1.1282 -1.7628
  336MOL0     H44323   9.270  11.881   4.670 -0.0760 -1.2274  0.0864
  336MOL0     H44324   9.376  11.902   4.945 -0.4837 -2.1043 -0.8018
  336MOL0     H44325   9.450  11.800   4.829  0.1593 -0.1601  2.3397
  336MOL0     H44326   9.419  12.103   4.763 -1.3897  0.2804  1.8318
  336MOL0     H44327   9.482  11.974   4.656 -0.4688 -2.2741  0.7820
  336MOL0     H44328   9.664  12.065   4.731 -1.7155 -2.5025 -2.5105
  336MOL0     H44329   9.652  11.921   4.835  0.2966 -0.0595  1.7539
  336MOL0     H44330   9.592  12.213   4.923  1.2220  0.3487 -0.2263
  336MOL0     H44331   9.544  12.073   5.013  0.9086  1.1574  1.4878
  336MOL0     H44332   9.785  12.006   5.056  0.1912  1.1265  1.1378
  336MOL0     H44333   9.774  12.167   5.105  3.5680 -0.0906 -1.1811
  336MOL0     H44334   9.212  11.663   5.212  0.7658 -3.4895  2.5266
  336MOL0     H44335   9.138  11.618   5.426  0.9745 -1.4857 -0.9618
  336MOL0     H44336   8.985  11.751   5.883  0.5880 -1.1279  0.4144
  336MOL0     H44337   8.912  11.676   6.084  1.5747 -1.7187 -1.2625
  336MOL0     H44338   9.273  10.608   5.567 -0.8598 -1.8776 -0.3732
  336MOL0     H44339   9.492  10.587   5.469 -1.7189  0.5009  1.6199
  336MOL0     H44340   9.770  10.811   4.935 -1.3324 -1.0347 -0.3272
  336MOL0     H44341  10.010  10.761   4.850 -2.5552  0.4503 -2.7143
  336MOL0     H44342  10.167  10.375   4.897  0.3718 -0.1185 -0.8473
  336MOL0     H44343  10.232  10.453   5.051 -0.4598  4.9477  0.3138
  336MOL0     H44344  10.349  10.446   4.770 -0.2534 -1.0351  0.0209
  336MOL0     H44345  10.402  10.554   4.899 -0.2745  0.1765  0.7002
  336MOL0     H44346  10.462  10.350   5.026 -1.2158  0.6202  0.0163
  336MOL0     H44347  10.543  10.365   4.866 -0.9382  0.9618 -1.4936
  336MOL0     H44348  10.474  10.119   4.928 -2.0007 -2.0626  0.3052
  336MOL0     H44349  10.306  10.177   4.936 -1.5363  2.9649 -0.8243
  336MOL0     H44350  10.393  10.184   4.521 -2.1599  1.3616  0.4636
  336MOL0     H44351   9.999  10.407   5.097  2.2324  1.4246  0.3951
  336MOL0     H44352   9.765  10.466   5.163 -0.4269  0.1107  0.5840
  337MOL0     O44353   7.270   2.634   8.121  0.8360 -0.2539  0.2417
  337MOL0     C44354   7.297   2.727   8.189 -0.5649 -0.3321 -0.7069
  337MOL0     O44355   7.208   2.809   8.251 -0.4201 -0.8808 -0.2714
  337MOL0     C44356   7.075   2.815   8.224  0.1852  0.4521 -0.6255
  337MOL0     C44357   7.001   2.739   8.128  0.1289  0.0696 -0.8203
  337MOL0     C44358   6.867   2.770   8.102 -0.0703 -1.0382  0.2592
  337MOL0     C44359   6.800   2.880   8.168  0.6153  1.2821 -0.2324
  337MOL0     O44360   6.666   2.899   8.132 -0.0176 -0.0064 -0.2292
  337MOL0     C44361   6.585   2.999   8.197  0.1239 -0.3286  0.1663
  337MOL0     C44362   6.447   2.978   8.138 -0.0292 -0.3563  0.2792
  337MOL0     C44363   6.388   2.830   8.143  0.2257 -0.1419 -0.3092
  337MOL0     C44364   6.248   2.827   8.081  0.1509  0.8294 -0.5140
  337MOL0     C44365   6.195   2.683   8.061  0.2160 -0.0619  0.4026
  337MOL0     C44366   6.050   2.682   7.998 -0.2706  0.5506 -0.0423
  337MOL0     C44367   5.996   2.541   7.984  0.2517  0.4385 -1.0790
  337MOL0     C44368   6.057   2.466   7.855  0.0206 -0.3767 -0.4942
  337MOL0     N44369   5.985   2.500   7.732 -1.3582 -0.2229 -0.7890
  337MOL0     C44370   5.866   2.451   7.696  0.8738  0.0578  0.0516
  337MOL0     C44371   5.831   2.510   7.581  0.0689 -0.3000 -0.5970
  337MOL0     C44372   5.704   2.482   7.490  0.0575 -0.1059  0.4201
  337MOL0     C44373   5.727   2.390   7.372 -0.1569 -0.5971 -0.3252
  337MOL0     C44374   5.601   2.370   7.292 -0.1643 -0.0786  0.6989
  337MOL0     C44375   5.625   2.276   7.180 -0.5417 -0.6633  0.1259
  337MOL0     O44376   5.712   2.327   7.083 -0.0880 -0.3060 -0.0507
  337MOL0     C44377   5.671   2.432   7.009 -0.5204 -0.0238 -0.1900
  337MOL0     C44378   5.541   2.472   7.001 -0.2770  0.1632 -0.5042
  337MOL0     C44379   5.498   2.576   6.919 -0.6750 -0.4124 -0.2428
  337MOL0     C44380   5.597   2.629   6.837  0.5460  1.1706  0.1679
  337MOL0     C44381   5.564   2.733   6.745 -0.5607  0.5142 -0.5238
  337MOL0     O44382   5.438   2.713   6.695  0.6436 -0.1491  0.1966
  337MOL0     C44383   5.378   2.806   6.614  0.2802 -0.4823  0.1986
  337MOL0     C44384   5.298   2.756   6.512 -0.7280 -0.3536  0.5554
  337MOL0     C44385   5.245   2.839   6.411 -1.2491 -0.5147 -0.0913
  337MOL0     C44386   5.280   2.974   6.408  0.2475 -0.3493 -0.8786
  337MOL0     O44387   5.204   3.050   6.320 -0.9281 -0.0867  0.9993
  337MOL0     C44388   5.210   3.197   6.330 -0.2501  1.1829 -0.6054
  337MOL0     C44389   5.117   3.255   6.228  0.0444 -0.5040  0.3676
  337MOL0     C44390   5.090   3.404   6.264  1.0289  0.1635 -0.6100
  337MOL0     C44391   4.979   3.461   6.184  0.1538 -0.3041  0.1677
  337MOL0     C44392   4.949   3.605   6.225 -0.0218  0.2904  0.1717
  337MOL0     C44393   5.060   3.709   6.190  0.3708  0.7167 -0.6168
  337MOL0     C44394   5.155   3.688   6.068 -0.4103 -0.3769 -0.0326
  337MOL0     C44395   5.114   3.726   5.931  0.6824  0.4007 -0.3125
  337MOL0    Cl44396   5.232   3.690   5.809  0.0751 -0.1992  0.4359
  337MOL0     C44397   5.366   3.025   6.505  0.4908  0.0667  0.4016
  337MOL0     C44398   5.415   2.942   6.610  0.2164  0.1226  0.4922
  337MOL0     O44399   5.644   2.826   6.715 -0.3456  0.6870 -0.3037
  337MOL0     C44400   5.737   2.591   6.851  0.4814 -0.1571  0.4240
  337MOL0     C44401   5.773   2.491   6.940 -0.3251  0.0043 -0.3391
  337MOL0     N44402   5.941   2.578   7.544  0.1650  1.1193  0.2190
  337MOL0     N44403   6.032   2.563   7.630  0.6415 -0.1164 -0.3091
  337MOL0     C44404   6.872   2.950   8.265 -1.0271 -0.3800  0.0955
  337MOL0     C44405   7.010   2.916   8.301  0.1572  0.4157  0.5759
  337MOL0     C44406   7.440   2.760   8.217  0.8298 -0.0316  0.0079
  337MOL0     C44407   7.484   2.887   8.267 -0.3612  1.0233 -0.2798
  337MOL0     C44408   7.625   2.908   8.285  0.5274  0.2244  0.3926
  337MOL0     C44409   7.717   2.804   8.266  0.6459 -0.3779  0.5522
  337MOL0     O44410   7.852   2.832   8.289  0.2628  0.4808  0.5996
  337MOL0     C44411   7.952   2.723   8.294  0.2830  0.1115  0.2616
  337MOL0     C44412   8.096   2.767   8.299  0.8159  0.0672  0.2925
  337MOL0     C44413   8.140   2.822   8.150  0.0531  0.2418  0.6361
  337MOL0     C44414   8.274   2.898   8.146 -0.0086  0.0872  0.3717
  337MOL0     C44415   8.381   2.795   8.146 -0.6414 -0.6062  0.6803
  337MOL0     C44416   8.469   2.712   8.165  0.1134 -1.0756 -0.5027
  337MOL0     C44417   7.668   2.674   8.236  0.3694  0.4559  0.3660
  337MOL0     C44418   7.532   2.654   8.207  0.4285  0.0718  0.5397
  337MOL0     H44419   7.046   2.661   8.067  2.6048 -1.6539  2.8186
  337MOL0     H44420   6.820   2.708   8.027 -1.5149  0.6993 -0.3363
  337MOL0     H44421   6.619   3.103   8.194  0.0684 -0.3239 -2.1140
  337MOL0     H44422   6.581   2.974   8.304 -0.6715 -1.1171 -0.0354
  337MOL0     H44423   6.460   2.993   8.030  0.4462 -1.4141  0.1744
  337MOL0     H44424   6.384   3.059   8.177 -1.3533 -1.5397  0.6771
  337MOL0     H44425   6.384   2.786   8.243  0.8231  0.2102 -0.1291
  337MOL0     H44426   6.449   2.764   8.081  1.3727 -0.1909  0.8318
  337MOL0     H44427   6.188   2.876   8.158  0.5935  1.7768 -0.7657
  337MOL0     H44428   6.252   2.885   7.988 -2.7686 -0.5991 -1.6958
  337MOL0     H44429   6.189   2.617   8.148  1.0791  2.7563  2.7354
  337MOL0     H44430   6.256   2.627   7.989  1.3723  0.7959  0.6838
  337MOL0     H44431   6.051   2.732   7.901 -1.3385  1.0824  0.2044
  337MOL0     H44432   5.981   2.741   8.059  2.4551  1.1545  2.7594
  337MOL0     H44433   6.015   2.477   8.070  0.4783 -3.8772 -4.0465
  337MOL0     H44434   5.888   2.561   7.983 -0.0159 -0.7091  0.9162
  337MOL0     H44435   6.045   2.360   7.880 -1.1675  0.4445  2.8855
  337MOL0     H44436   6.165   2.480   7.843  0.1041 -0.6502 -0.0995
  337MOL0     H44437   5.804   2.383   7.754  0.6920 -0.4139 -0.6807
  337MOL0     H44438   5.662   2.570   7.439 -0.0783  0.2808  1.1949
  337MOL0     H44439   5.615   2.453   7.547 -1.2533 -0.4413 -1.6521
  337MOL0     H44440   5.766   2.299   7.418 -1.7276 -1.5164 -0.7517
  337MOL0     H44441   5.807   2.422   7.304  0.6182 -1.0611  0.3453
  337MOL0     H44442   5.528   2.322   7.357 -0.8382 -0.2515 -0.1680
  337MOL0     H44443   5.560   2.462   7.250 -0.1734 -0.8490 -1.0533
  337MOL0     H44444   5.528   2.247   7.139 -0.1384 -2.0113  0.0716
  337MOL0     H44445   5.679   2.192   7.227  3.5430  1.7916  0.3450
  337MOL0     H44446   5.461   2.422   7.055  1.2713 -2.7782 -0.7085
  337MOL0     H44447   5.396   2.610   6.911  0.0850  2.5724  1.4629
  337MOL0     H44448   5.259   2.654   6.521 -3.8860  0.6283 -0.4438
  337MOL0     H44449   5.187   2.797   6.329  2.7097 -0.8125 -3.0245
  337MOL0     H44450   5.310   3.230   6.302  0.5033 -1.6049 -1.5794
  337MOL0     H44451   5.185   3.233   6.430  0.9345 -1.6194  0.8217
  337MOL0     H44452   5.020   3.206   6.233 -0.7173  0.9804  0.8204
  337MOL0     H44453   5.151   3.252   6.124  0.6702 -2.0912  0.5964
  337MOL0     H44454   5.178   3.468   6.253  0.9186  0.1775 -1.4589
  337MOL0     H44455   5.063   3.404   6.370 -1.0219  0.3158 -1.1027
  337MOL0     H44456   5.009   3.461   6.079  2.4615 -0.1728  0.7841
  337MOL0     H44457   4.893   3.397   6.205  0.4657  0.0924  3.0319
  337MOL0     H44458   4.934   3.609   6.333  0.6017 -0.6207  0.2991
  337MOL0     H44459   4.866   3.644   6.165  1.3912 -0.2620 -2.2822
  337MOL0     H44460   5.131   3.705   6.273  0.3874 -1.8794 -0.6727
  337MOL0     H44461   5.020   3.811   6.188  0.5508  0.7756 -1.4221
  337MOL0     H44462   5.251   3.736   6.092  1.4979 -3.1271 -1.6246
  337MOL0     H44463   5.186   3.584   6.058 -0.7715 -0.4520 -0.3649
  337MOL0     H44464   5.107   3.835   5.937  0.0150  0.3699 -0.5722
  337MOL0     H44465   5.015   3.686   5.907  0.9226 -0.0613 -0.5470
  337MOL0     H44466   5.400   3.128   6.491  2.0216 -0.4555  0.0298
  337MOL0     H44467   5.487   2.984   6.679  1.6799  0.9162 -1.4129
  337MOL0     H44468   5.815   2.631   6.787 -1.9753 -0.8658 -3.3532
  337MOL0     H44469   5.872   2.452   6.958 -0.6701  0.1182  2.2784
  337MOL0     H44470   6.828   3.034   8.317 -1.4732  0.2528 -1.2503
  337MOL0     H44471   7.064   2.974   8.376 -0.6216  0.3917  1.1626
  337MOL0     H44472   7.412   2.962   8.296 -0.5834  0.6173  0.2480
  337MOL0     H44473   7.666   3.005   8.309  3.6431 -0.0940 -2.7371
  337MOL0     H44474   7.930   2.652   8.214 -0.4244  0.4755  0.1246
  337MOL0     H44475   7.945   2.664   8.385  0.4770  1.4046  1.1503
  337MOL0     H44476   8.114   2.841   8.377  1.0000  0.5416 -0.1946
  337MOL0     H44477   8.164   2.689   8.332  2.2478  1.8333  1.6788
  337MOL0     H44478   8.055   2.885   8.122 -0.3098 -0.5748 -0.1682
  337MOL0     H44479   8.145   2.745   8.072 -1.0703 -0.2594  1.0467
  337MOL0     H44480   8.285   2.973   8.067  0.1305  1.5361  1.7268
  337MOL0     H44481   8.278   2.956   8.238 -2.7415 -0.4591  0.9251
  337MOL0     H44482   8.553   2.650   8.191  0.5406  0.1721  1.2194
  337MOL0     H44483   7.731   2.586   8.230 -2.5187 -1.8591  1.5468
  337MOL0     H44484   7.493   2.560   8.169 -2.8713  0.7178  1.9010
  338MOL0     O44485   4.947   4.549   8.968  0.0021 -1.0403  0.1902
  338MOL0     C44486   4.900   4.463   9.035  0.2382 -0.2766 -0.4480
  338MOL0     O44487   4.772   4.410   9.025  0.7466  0.5791 -0.1269
  338MOL0     C44488   4.688   4.458   8.925  0.1406  0.0618  0.0389
  338MOL0     C44489   4.553   4.429   8.959 -0.2467  0.5037 -0.4525
  338MOL0     C44490   4.446   4.478   8.882 -0.4525  0.1483  0.1076
  338MOL0     C44491   4.466   4.568   8.778 -0.3198 -0.1989  0.5144
  338MOL0     O44492   4.374   4.631   8.704  0.1705 -0.4719  0.2168
  338MOL0     C44493   4.234   4.599   8.729 -0.5342 -0.2188  0.1338
  338MOL0     C44494   4.187   4.679   8.853  0.2863 -0.1715 -0.6371
  338MOL0     C44495   4.046   4.624   8.898  0.6579 -0.8725 -0.5221
  338MOL0     C44496   3.933   4.642   8.790 -0.2258  0.6881 -0.8360
  338MOL0     C44497   3.811   4.550   8.824  0.4742  0.1671  1.0372
  338MOL0     C44498   3.733   4.591   8.950  0.1159 -0.0098 -0.6615
  338MOL0     C44499   3.605   4.514   8.965  0.3730 -0.5386 -0.6658
  338MOL0     C44500   3.529   4.577   9.087  0.2065 -1.1256 -0.4498
  338MOL0     N44501   3.386   4.539   9.105 -0.1546  0.2650  0.0946
  338MOL0     C44502   3.311   4.478   9.002  0.1038 -0.3226 -0.8009
  338MOL0     C44503   3.189   4.527   9.026  0.6437  0.2609  0.2366
  338MOL0     C44504   3.055   4.469   8.974  1.0419 -0.5747  0.7345
  338MOL0     C44505   3.026   4.333   9.041  0.3299 -0.0122 -0.1742
  338MOL0     C44506   3.114   4.217   8.997  0.8984 -0.2832 -0.7398
  338MOL0     C44507   3.100   4.102   9.094  0.3571  0.6343  0.1258
  338MOL0     O44508   3.142   4.142   9.225  0.1035 -0.5077 -0.4135
  338MOL0     C44509   3.279   4.163   9.245 -0.0282  1.2606  0.3712
  338MOL0     C44510   3.318   4.210   9.368 -0.9184  0.0391 -0.3146
  338MOL0     C44511   3.448   4.244   9.391 -0.4197  0.6389 -0.7225
  338MOL0     C44512   3.550   4.223   9.294  0.0463 -0.5446  0.2247
  338MOL0     C44513   3.694   4.256   9.319  0.5040  0.0223  0.2332
  338MOL0     O44514   3.775   4.256   9.212 -0.1665  0.6662 -0.3042
  338MOL0     C44515   3.916   4.258   9.226  0.5894  0.1103 -0.8156
  338MOL0     C44516   3.979   4.311   9.115  0.2738  0.4466 -0.2936
  338MOL0     C44517   4.120   4.330   9.113 -0.8629 -0.6613  0.1290
  338MOL0     C44518   4.207   4.299   9.223  0.4272 -0.0498 -0.8540
  338MOL0     O44519   4.340   4.305   9.200 -0.7177 -0.2462 -0.2588
  338MOL0     C44520   4.440   4.244   9.291  0.1758 -0.8347  0.8694
  338MOL0     C44521   4.527   4.131   9.227 -0.1837  0.1116  0.3419
  338MOL0     C44522   4.632   4.067   9.315 -0.0486  0.5425 -0.8760
  338MOL0     C44523   4.695   3.945   9.252 -0.4770 -0.0508  0.2260
  338MOL0     C44524   4.806   3.896   9.342  0.3870 -0.0329  0.3751
  338MOL0     C44525   4.860   3.771   9.284  0.5877 -0.6721  0.4867
  338MOL0     C44526   4.967   3.716   9.378  0.1612 -0.0364 -0.3298
  338MOL0     C44527   5.100   3.797   9.389 -0.4496  0.8979  0.3261
  338MOL0    Cl44528   5.229   3.707   9.481 -0.1114 -0.1073 -0.1411
  338MOL0     C44529   4.139   4.248   9.340 -0.1197  0.1581 -0.1569
  338MOL0     C44530   3.999   4.228   9.337 -0.2840 -0.1165 -0.2408
  338MOL0     O44531   3.724   4.292   9.435 -0.2420 -0.5378 -0.3997
  338MOL0     C44532   3.510   4.154   9.176 -0.9296  0.4334  0.0867
  338MOL0     C44533   3.380   4.118   9.154 -0.1228  1.5573 -0.2640
  338MOL0     N44534   3.187   4.625   9.126  0.4958 -0.0454 -0.0620
  338MOL0     N44535   3.308   4.620   9.184  0.7985 -0.3945 -0.1506
  338MOL0     C44536   4.600   4.607   8.752  1.1868 -0.3995  0.1999
  338MOL0     C44537   4.706   4.552   8.821 -0.6241  0.0920  0.9060
  338MOL0     C44538   4.981   4.411   9.153 -1.0307 -0.4902 -0.4041
  338MOL0     C44539   4.931   4.305   9.239 -0.0276 -0.6551 -0.1399
  338MOL0     C44540   5.008   4.262   9.345  0.1770 -1.0746  0.3388
  338MOL0     C44541   5.130   4.319   9.377 -0.6132  0.0870 -0.3276
  338MOL0     O44542   5.171   4.266   9.496 -0.8502 -0.2891  0.0198
  338MOL0     C44543   5.300   4.312   9.546 -0.0434  0.0717  0.4925
  338MOL0     C44544   5.343   4.241   9.674  0.0961 -0.5916 -0.3481
  338MOL0     C44545   5.336   4.091   9.681 -0.2696 -0.3328 -0.2029
  338MOL0     C44546   5.401   4.014   9.557  0.0328  0.0944 -0.3371
  338MOL0     C44547   5.532   4.057   9.530 -0.4336 -0.6054  0.1468
  338MOL0     C44548   5.656   4.077   9.527  0.3351  0.2519  0.3390
  338MOL0     C44549   5.184   4.422   9.296 -0.7829  0.2052  0.1159
  338MOL0     C44550   5.108   4.472   9.186 -0.7948  1.4206  0.6890
  338MOL0     H44551   4.535   4.367   9.046 -1.1473  1.1270 -0.1818
  338MOL0     H44552   4.351   4.425   8.888  0.6833 -2.2736 -1.5355
  338MOL0     H44553   4.204   4.494   8.732 -2.6493  0.3219 -0.5788
  338MOL0     H44554   4.186   4.642   8.641  0.4798 -0.2583 -0.4574
  338MOL0     H44555   4.179   4.788   8.845 -1.5187 -0.2700 -0.5751
  338MOL0     H44556   4.259   4.665   8.934 -0.2273 -0.9490 -0.3080
  338MOL0     H44557   4.004   4.669   8.988  0.1319 -1.9650 -0.2107
  338MOL0     H44558   4.059   4.518   8.923  0.1295 -0.4406  1.7691
  338MOL0     H44559   3.903   4.747   8.785 -2.1643  0.1926 -0.3484
  338MOL0     H44560   3.981   4.618   8.695  0.0967 -0.7050 -0.3334
  338MOL0     H44561   3.847   4.448   8.838  0.0328 -0.1722 -0.1078
  338MOL0     H44562   3.744   4.549   8.737 -0.7952 -3.1753  1.8996
  338MOL0     H44563   3.707   4.695   8.931  1.8419  0.5551 -0.1876
  338MOL0     H44564   3.787   4.593   9.045 -0.5695  2.1546 -0.2643
  338MOL0     H44565   3.535   4.520   8.881 -1.0314  1.2884  0.5423
  338MOL0     H44566   3.639   4.415   8.996  0.6966 -0.2487 -0.0842
  338MOL0     H44567   3.530   4.686   9.077 -1.1508 -1.0912 -0.5112
  338MOL0     H44568   3.582   4.565   9.181 -2.8901 -0.2608  1.5522
  338MOL0     H44569   3.343   4.415   8.920 -1.5774 -2.1449 -0.1370
  338MOL0     H44570   3.066   4.459   8.866  0.3319  1.3266  0.4486
  338MOL0     H44571   2.976   4.542   8.993  1.2689 -0.0491 -0.2730
  338MOL0     H44572   2.918   4.320   9.030 -0.0496  2.7583 -0.3330
  338MOL0     H44573   3.044   4.344   9.149  2.0313 -2.7007 -0.0992
  338MOL0     H44574   3.075   4.189   8.899 -1.1422  3.1213 -1.0394
  338MOL0     H44575   3.220   4.245   8.993  0.9256 -0.0027  1.0555
  338MOL0     H44576   3.157   4.012   9.069  0.4047  0.2191  1.6429
  338MOL0     H44577   2.997   4.064   9.099  1.3181 -2.2018  0.1313
  338MOL0     H44578   3.239   4.240   9.436 -0.3462 -0.2918  0.4986
  338MOL0     H44579   3.480   4.289   9.484 -0.8367  0.9902 -0.7487
  338MOL0     H44580   3.920   4.341   9.029 -0.4010  1.1867  0.4124
  338MOL0     H44581   4.163   4.359   9.018 -1.5196 -1.9370 -0.5885
  338MOL0     H44582   4.398   4.201   9.382  4.6406 -2.0204  2.6334
  338MOL0     H44583   4.505   4.328   9.319  1.0792 -0.0044 -3.0663
  338MOL0     H44584   4.580   4.164   9.137 -1.9488 -1.1970 -1.2610
  338MOL0     H44585   4.458   4.053   9.197  1.8234 -2.1760  1.3648
  338MOL0     H44586   4.589   4.033   9.410  3.6518 -2.7178 -0.1381
  338MOL0     H44587   4.712   4.138   9.341  0.4956 -1.0990  2.4476
  338MOL0     H44588   4.616   3.870   9.244 -0.4661 -0.0897  0.4900
  338MOL0     H44589   4.741   3.982   9.160  0.2292  0.2592  0.6948
  338MOL0     H44590   4.775   3.883   9.446 -1.2936  0.1458 -0.0707
  338MOL0     H44591   4.884   3.973   9.350 -1.1385  1.3807  3.6526
  338MOL0     H44592   4.906   3.798   9.189 -1.1934 -1.2528 -0.5812
  338MOL0     H44593   4.784   3.694   9.272 -1.3724  1.3323 -0.6955
  338MOL0     H44594   4.928   3.702   9.479  0.3738  0.2298 -0.2096
  338MOL0     H44595   4.995   3.616   9.344  0.6917  0.4935 -1.5409
  338MOL0     H44596   5.081   3.891   9.442 -1.0626  0.1693  1.4339
  338MOL0     H44597   5.150   3.814   9.293  1.7798 -2.4907  0.7315
  338MOL0     H44598   4.193   4.222   9.430 -1.7518 -0.9585  0.5457
  338MOL0     H44599   3.947   4.196   9.427  0.2467  1.6655  0.7505
  338MOL0     H44600   3.585   4.126   9.104  0.6866  3.2310  0.5461
  338MOL0     H44601   3.359   4.071   9.059  2.0512  2.1692 -1.1174
  338MOL0     H44602   4.616   4.683   8.676 -1.6248 -0.3334 -0.4387
  338MOL0     H44603   4.805   4.585   8.791  0.1848 -2.4315  0.5222
  338MOL0     H44604   4.828   4.275   9.225 -1.3237  3.7958 -1.8484
  338MOL0     H44605   4.971   4.183   9.410  0.8253 -0.2716  1.7365
  338MOL0     H44606   5.285   4.419   9.562 -0.8147  0.0541 -0.0220
  338MOL0     H44607   5.381   4.288   9.477 -0.5009  0.2538 -0.1218
  338MOL0     H44608   5.445   4.269   9.702 -1.4339  3.6501  1.8232
  338MOL0     H44609   5.285   4.281   9.758  0.7781  0.4603 -0.3662
  338MOL0     H44610   5.231   4.063   9.689 -0.3803 -0.6537 -2.1913
  338MOL0     H44611   5.386   4.061   9.774  0.2288  0.0720 -0.3358
  338MOL0     H44612   5.411   3.910   9.587  1.3696  0.4902  0.7192
  338MOL0     H44613   5.336   4.020   9.469 -0.2126  2.2807 -0.0759
  338MOL0     H44614   5.761   4.094   9.516  0.7644 -2.6678 -0.9948
  338MOL0     H44615   5.283   4.458   9.320  0.0126 -1.6386 -0.1905
  338MOL0     H44616   5.151   4.552   9.126 -0.2958  1.5449  1.2080
  339MOL0     O44617   6.116   3.457   2.984  0.5091 -0.1702  0.7298
  339MOL0     C44618   6.176   3.355   2.943  0.0175 -0.6403  0.2284
  339MOL0     O44619   6.116   3.237   2.891 -0.3628 -0.1392 -0.1229
  339MOL0     C44620   5.981   3.236   2.874 -0.6629  0.2761  0.3183
  339MOL0     C44621   5.907   3.155   2.956  0.1794 -0.6841 -0.3537
  339MOL0     C44622   5.777   3.136   2.935  0.1124 -0.0998 -0.1414
  339MOL0     C44623   5.712   3.199   2.818 -0.2993  0.2850 -1.1733
  339MOL0     O44624   5.585   3.176   2.783 -0.0780 -0.1261  0.3697
  339MOL0     C44625   5.490   3.262   2.852  0.8789 -0.6993 -0.2272
  339MOL0     C44626   5.356   3.230   2.808  0.7544  1.5828  0.2487
  339MOL0     C44627   5.250   3.322   2.870 -0.3258 -0.2724 -0.0495
  339MOL0     C44628   5.105   3.261   2.836 -0.1453 -0.2602  0.3312
  339MOL0     C44629   4.994   3.362   2.872  0.9951 -0.6388  0.2303
  339MOL0     C44630   4.972   3.344   3.027 -0.2423  0.4863  0.1849
  339MOL0     C44631   4.848   3.422   3.067 -0.7251  0.7845  0.2781
  339MOL0     C44632   4.882   3.575   3.068 -1.5165  0.9912 -0.6908
  339MOL0     N44633   4.770   3.669   3.093  0.3030  0.0173  0.3541
  339MOL0     C44634   4.681   3.656   3.189  0.0977  0.2281 -0.1712
  339MOL0     C44635   4.610   3.770   3.181  0.3691  0.3683  0.2355
  339MOL0     C44636   4.500   3.812   3.262 -0.0960 -0.0732  0.2919
  339MOL0     C44637   4.487   3.716   3.386  0.2051  0.2630  0.7998
  339MOL0     C44638   4.387   3.771   3.491 -0.3968 -0.0188  0.4642
  339MOL0     C44639   4.238   3.764   3.443  0.8891 -0.4406 -0.5045
  339MOL0     O44640   4.138   3.805   3.547  0.1413 -0.0719 -0.1769
  339MOL0     C44641   3.999   3.804   3.520 -0.7207  0.4770  0.0556
  339MOL0     C44642   3.931   3.767   3.398 -0.0721  0.1103  0.1918
  339MOL0     C44643   3.799   3.808   3.380 -0.4925 -0.0962  0.4220
  339MOL0     C44644   3.727   3.865   3.489 -0.1742  0.0012  0.1325
  339MOL0     C44645   3.584   3.912   3.465 -0.1770  1.1830 -0.9678
  339MOL0     O44646   3.544   3.957   3.342  0.0993 -0.0849  0.2139
  339MOL0     C44647   3.410   3.972   3.311  0.6270  0.2092 -0.5603
  339MOL0     C44648   3.353   3.896   3.208  0.5879  0.1341 -0.0474
  339MOL0     C44649   3.212   3.912   3.176 -0.1030 -0.1463  0.5561
  339MOL0     C44650   3.126   4.001   3.248 -0.3942  0.6104 -1.1478
  339MOL0     O44651   2.995   4.020   3.212  0.6338  0.0134 -0.6234
  339MOL0     C44652   2.934   3.908   3.148 -0.0384 -0.5120 -0.0906
  339MOL0     C44653   2.795   3.961   3.123 -0.1719 -0.2594 -0.7053
  339MOL0     C44654   2.725   3.874   3.007  0.4683  0.4037 -0.2855
  339MOL0     C44655   2.571   3.891   3.022  0.5027 -0.2663  0.3531
  339MOL0     C44656   2.514   4.024   2.966  0.5257 -1.0535 -0.3566
  339MOL0     C44657   2.358   4.022   2.969  0.1812  0.7919 -0.6726
  339MOL0     C44658   2.283   4.013   3.104 -0.0152  0.3496 -0.0324
  339MOL0     C44659   2.129   4.025   3.077  0.8076  0.1859 -0.3653
  339MOL0    Cl44660   2.052   3.867   3.038  0.4787  0.1051 -0.0521
  339MOL0     C44661   3.188   4.090   3.340  0.8150  0.2085 -0.6192
  339MOL0     C44662   3.327   4.075   3.374 -0.1895  0.4614  0.1910
  339MOL0     O44663   3.502   3.895   3.557 -0.0431 -0.4830 -0.3997
  339MOL0     C44664   3.783   3.886   3.613 -0.1132 -1.1352 -0.9845
  339MOL0     C44665   3.922   3.863   3.623  0.4131  0.1903  0.9225
  339MOL0     N44666   4.654   3.851   3.080 -0.6995  0.2229  1.1280
  339MOL0     N44667   4.742   3.779   3.021 -0.7620 -0.5528  0.2289
  339MOL0     C44668   5.790   3.280   2.735  0.1307 -0.0490  0.0552
  339MOL0     C44669   5.923   3.292   2.753 -0.2259 -0.0936 -0.2780
  339MOL0     C44670   6.316   3.370   2.910 -0.5170  0.4158 -0.1306
  339MOL0     C44671   6.394   3.478   2.962 -0.4285  0.2550 -0.4133
  339MOL0     C44672   6.524   3.496   2.922  0.4622  0.7341  0.5848
  339MOL0     C44673   6.584   3.401   2.837  0.5882  0.2297  0.0466
  339MOL0     O44674   6.716   3.400   2.803 -0.6680 -0.9397  0.1237
  339MOL0     C44675   6.801   3.330   2.899  0.0290 -0.4047 -0.2396
  339MOL0     C44676   6.882   3.219   2.823 -0.4768 -0.5239 -0.2057
  339MOL0     C44677   6.977   3.276   2.723 -0.2762 -0.1006 -0.1723
  339MOL0     C44678   7.015   3.183   2.610 -0.5193  0.4120 -0.2718
  339MOL0     C44679   7.108   3.080   2.650 -0.3025  0.0059  0.6960
  339MOL0     C44680   7.199   3.010   2.688  0.2228 -0.2691 -0.2915
  339MOL0     C44681   6.507   3.294   2.794 -0.0032 -0.1206  0.6182
  339MOL0     C44682   6.373   3.279   2.825 -0.6992  0.0430  1.3872
  339MOL0     H44683   5.956   3.097   3.033 -1.9393 -0.1726  1.4584
  339MOL0     H44684   5.724   3.066   2.998 -2.1523 -1.2803 -3.1091
  339MOL0     H44685   5.514   3.367   2.829  0.2398 -0.6951 -0.8959
  339MOL0     H44686   5.519   3.244   2.956  1.6458 -1.9841 -0.6458
  339MOL0     H44687   5.333   3.124   2.823 -2.2818  1.9642 -1.0554
  339MOL0     H44688   5.343   3.245   2.701 -3.9627  1.3920  0.5826
  339MOL0     H44689   5.249   3.425   2.833 -2.4127 -0.5421 -0.8898
  339MOL0     H44690   5.268   3.326   2.978  0.9328  0.0047 -0.2497
  339MOL0     H44691   5.109   3.242   2.728  0.3070  2.3531 -0.1784
  339MOL0     H44692   5.098   3.171   2.898 -1.7327 -0.0676  0.4669
  339MOL0     H44693   4.899   3.342   2.822  0.1696 -1.8511  2.1530
  339MOL0     H44694   5.032   3.462   2.850  2.0594 -0.7583  1.3833
  339MOL0     H44695   5.058   3.381   3.083 -0.3591 -0.5352  1.0879
  339MOL0     H44696   4.958   3.236   3.044 -1.6074  0.3370 -1.5931
  339MOL0     H44697   4.772   3.408   2.990  0.4696 -1.4831 -0.5910
  339MOL0     H44698   4.808   3.383   3.160 -2.8411  1.9172 -0.1003
  339MOL0     H44699   4.938   3.601   2.978  1.0182  2.7842  1.2555
  339MOL0     H44700   4.955   3.588   3.149  0.8247 -0.1065 -2.4952
  339MOL0     H44701   4.674   3.577   3.263  0.0494  0.7289  0.3702
  339MOL0     H44702   4.416   3.796   3.193  0.5607 -1.2429 -0.2683
  339MOL0     H44703   4.517   3.917   3.288  0.5459 -0.3844  1.1745
  339MOL0     H44704   4.584   3.702   3.434 -0.0776  0.6024  1.4768
  339MOL0     H44705   4.449   3.618   3.357  0.8199 -0.2470  1.6829
  339MOL0     H44706   4.390   3.709   3.581  1.4213 -0.1665  0.3477
  339MOL0     H44707   4.402   3.877   3.513 -0.2931  0.9591 -3.4823
  339MOL0     H44708   4.215   3.660   3.418  2.6597 -0.2365 -3.4969
  339MOL0     H44709   4.217   3.835   3.363 -1.4363  1.4696  1.6325
  339MOL0     H44710   3.985   3.727   3.314 -1.5978 -0.7785 -0.4048
  339MOL0     H44711   3.761   3.791   3.280  2.1859  1.3435 -0.9497
  339MOL0     H44712   3.416   3.820   3.163  0.4899 -1.0836  1.7603
  339MOL0     H44713   3.175   3.844   3.101  0.1410 -0.1275  0.4175
  339MOL0     H44714   2.933   3.823   3.216  0.6034 -0.2190  0.2975
  339MOL0     H44715   2.978   3.881   3.051  1.9924 -0.4376  0.7487
  339MOL0     H44716   2.796   4.068   3.097  1.0667 -0.2582 -0.7060
  339MOL0     H44717   2.735   3.951   3.214 -2.1652 -1.2810 -2.0544
  339MOL0     H44718   2.753   3.769   2.998  0.9253  0.6512 -2.2321
  339MOL0     H44719   2.762   3.911   2.911  0.7202  0.8389 -0.0256
  339MOL0     H44720   2.523   3.814   2.960 -1.1705  0.2791  0.9059
  339MOL0     H44721   2.530   3.879   3.123  1.0769 -1.5579  0.4481
  339MOL0     H44722   2.549   4.035   2.863  1.2397 -1.6234 -0.1855
  339MOL0     H44723   2.542   4.111   3.025  0.6480 -0.1662 -1.6761
  339MOL0     H44724   2.326   3.937   2.907  0.1422  0.5324 -0.2977
  339MOL0     H44725   2.336   4.117   2.920 -0.8406 -0.3764 -2.6398
  339MOL0     H44726   2.302   3.920   3.158 -1.4350  1.1117  1.8808
  339MOL0     H44727   2.307   4.098   3.167 -0.7986 -0.8174  1.9323
  339MOL0     H44728   2.114   4.096   2.995  0.5174 -0.4768 -0.8905
  339MOL0     H44729   2.079   4.058   3.169 -0.4799  2.3031 -1.7307
  339MOL0     H44730   3.134   4.165   3.397  3.7626  2.3756 -0.3928
  339MOL0     H44731   3.387   4.141   3.436  2.1676 -2.0089  0.7264
  339MOL0     H44732   3.728   3.934   3.693  3.7587  0.5260  0.9276
  339MOL0     H44733   3.966   3.885   3.719  1.0184 -0.5608  0.8269
  339MOL0     H44734   5.747   3.329   2.648  0.6948  2.1251  0.9204
  339MOL0     H44735   5.992   3.341   2.686 -0.9761  0.7053 -0.4676
  339MOL0     H44736   6.351   3.555   3.027  2.0645  2.1799 -0.9018
  339MOL0     H44737   6.571   3.588   2.956  2.1538 -0.3728  1.3511
  339MOL0     H44738   6.741   3.279   2.976  0.6041 -1.7813 -0.6857
  339MOL0     H44739   6.871   3.397   2.950  1.0936 -2.8362  1.7807
  339MOL0     H44740   6.939   3.163   2.898 -1.8158 -2.3825 -0.5139
  339MOL0     H44741   6.817   3.150   2.770  1.3874 -0.5870 -2.6090
  339MOL0     H44742   7.066   3.320   2.769 -0.2949  0.0818 -0.3101
  339MOL0     H44743   6.927   3.359   2.672  0.1698  0.7434  0.7429
  339MOL0     H44744   6.922   3.140   2.572 -1.3895  0.5273  1.6311
  339MOL0     H44745   7.068   3.241   2.534  0.7917  0.1411  0.4113
  339MOL0     H44746   7.272   2.947   2.733  0.4396  0.4670  0.4113
  339MOL0     H44747   6.555   3.222   2.729 -1.0790  0.5508 -0.9843
  339MOL0     H44748   6.326   3.193   2.778 -0.6041  0.1214  1.1484
  340MOL0     O44749   2.378   3.250   1.048 -1.1745 -0.0787 -0.5018
  340MOL0     C44750   2.302   3.342   1.042  0.6693  0.2491 -0.3283
  340MOL0     O44751   2.165   3.331   1.074  0.1917 -0.9218  0.1131
  340MOL0     C44752   2.106   3.208   1.080  0.8628 -0.0395  0.4203
  340MOL0     C44753   2.109   3.110   0.975 -0.4278  0.2576 -0.1446
  340MOL0     C44754   2.035   2.992   0.986  1.2621 -0.3439 -0.0724
  340MOL0     C44755   1.944   2.978   1.090 -0.0096 -0.4113  0.7105
  340MOL0     O44756   1.851   2.880   1.117  0.1631 -0.0488  0.2034
  340MOL0     C44757   1.861   2.752   1.053  0.2195  0.3289  0.2676
  340MOL0     C44758   1.769   2.644   1.106 -0.3417 -0.4565 -1.0935
  340MOL0     C44759   1.797   2.597   1.254  0.0390 -0.2393 -0.1766
  340MOL0     C44760   1.944   2.562   1.285  0.3130 -0.2948  0.3600
  340MOL0     C44761   1.968   2.472   1.406 -0.4787 -0.2022  0.6763
  340MOL0     C44762   2.124   2.471   1.429  0.2240  0.6390 -0.3066
  340MOL0     C44763   2.171   2.370   1.538  0.3077  0.0792  0.5585
  340MOL0     C44764   2.183   2.238   1.478  0.1179 -0.4873 -0.3894
  340MOL0     N44765   2.243   2.140   1.566  0.2032  0.3589  0.2965
  340MOL0     C44766   2.249   2.144   1.707  0.5667 -0.4979  0.2319
  340MOL0     C44767   2.291   2.021   1.741 -0.1655 -0.4917 -0.7056
  340MOL0     C44768   2.320   1.977   1.881 -0.2777  0.2508 -0.8737
  340MOL0     C44769   2.206   1.995   1.976  0.3776 -0.5394 -0.0803
  340MOL0     C44770   2.090   1.906   1.932  0.1601 -0.0729  0.2735
  340MOL0     C44771   2.007   1.884   2.061 -0.0241  0.3461 -0.1045
  340MOL0     O44772   1.944   1.996   2.119  0.1992 -0.3739  0.0097
  340MOL0     C44773   1.815   2.024   2.072  0.1015 -0.5893 -0.5652
  340MOL0     C44774   1.751   2.138   2.128  0.1106  0.4886  0.5947
  340MOL0     C44775   1.617   2.164   2.095  0.0916 -0.3838 -0.4581
  340MOL0     C44776   1.549   2.095   2.000  0.1825 -0.3368 -0.7374
  340MOL0     C44777   1.412   2.140   1.950 -0.1236  0.1504  0.6142
  340MOL0     O44778   1.339   2.242   2.012  0.2843 -0.4653  0.5928
  340MOL0     C44779   1.214   2.281   1.969  0.6901  0.2133  0.0932
  340MOL0     C44780   1.105   2.200   1.920 -0.0103 -0.1046 -0.1576
  340MOL0     C44781   0.983   2.255   1.882  0.3863  0.1699 -0.3452
  340MOL0     C44782   0.961   2.393   1.891 -0.7874  0.6621  0.5389
  340MOL0     O44783   0.833   2.439   1.860  0.1764 -0.3794 -0.2885
  340MOL0     C44784   0.760   2.382   1.758 -0.1507  0.2638 -0.1911
  340MOL0     C44785   0.644   2.478   1.719 -0.9122 -0.1173  0.1544
  340MOL0     C44786   0.548   2.414   1.627  0.3663  0.2280  0.6625
  340MOL0     C44787   0.418   2.488   1.623 -0.0392  0.6347  0.4709
  340MOL0     C44788   0.310   2.425   1.539  0.5252 -0.1447 -0.4805
  340MOL0     C44789   0.182   2.517   1.523 -0.0353 -0.4087  0.4049
  340MOL0     C44790   0.084   2.542   1.640 -0.5283  0.4322 -0.4158
  340MOL0     C44791  -0.014   2.642   1.593  0.0325  0.0855 -0.3653
  340MOL0    Cl44792  -0.121   2.679   1.726 -0.0649  0.0625  0.2988
  340MOL0     C44793   1.061   2.475   1.941  0.7756 -0.2503 -0.4895
  340MOL0     C44794   1.185   2.423   1.980 -0.5469  0.4920 -0.1156
  340MOL0     O44795   1.364   2.069   1.858 -0.0252 -0.0197  0.1911
  340MOL0     C44796   1.612   1.985   1.946  0.2642 -0.4805  0.2447
  340MOL0     C44797   1.747   1.948   1.976  0.8617  0.1416  0.1181
  340MOL0     N44798   2.325   1.949   1.627  0.3128  0.5330 -0.3339
  340MOL0     N44799   2.293   2.021   1.527 -0.3011  0.2452  0.7053
  340MOL0     C44800   1.927   3.076   1.189  0.3818  0.1420 -0.2944
  340MOL0     C44801   2.021   3.177   1.188 -0.6935 -0.5793  0.1246
  340MOL0     C44802   2.353   3.477   1.008  0.3550  0.0728 -0.1353
  340MOL0     C44803   2.262   3.581   0.976  0.6326 -0.9707 -0.3277
  340MOL0     C44804   2.298   3.711   0.943 -0.3929 -0.5204 -0.6267
  340MOL0     C44805   2.436   3.742   0.943  0.0301  0.7352 -0.0949
  340MOL0     O44806   2.484   3.868   0.929 -0.3904 -0.3249  0.0184
  340MOL0     C44807   2.391   3.965   0.875  0.3389 -0.4054  0.9546
  340MOL0     C44808   2.362   3.947   0.722 -0.0641 -0.9232  0.8116
  340MOL0     C44809   2.288   4.078   0.681  0.4997  0.9706 -1.1097
  340MOL0     C44810   2.244   4.063   0.545 -0.6494 -0.3715 -0.0448
  340MOL0     C44811   2.126   3.975   0.546 -0.2264 -0.5084 -0.8055
  340MOL0     C44812   2.023   3.908   0.564 -0.4197  0.1558 -0.5498
  340MOL0     C44813   2.531   3.630   0.968 -0.3918  0.5818  0.3889
  340MOL0     C44814   2.491   3.500   1.002  0.3978  0.7305 -0.4733
  340MOL0     H44815   2.166   3.139   0.887 -0.3053  1.1146  0.2065
  340MOL0     H44816   2.031   2.913   0.912 -0.1253  1.2341 -1.7646
  340MOL0     H44817   1.964   2.719   1.069  0.2989  0.4698  0.0445
  340MOL0     H44818   1.843   2.753   0.945  0.9283 -3.4626 -0.0563
  340MOL0     H44819   1.772   2.552   1.047  0.7306 -1.8246  0.9556
  340MOL0     H44820   1.669   2.687   1.097  1.0776  3.9824  1.3169
  340MOL0     H44821   1.728   2.513   1.267 -0.3295 -0.9095 -4.7604
  340MOL0     H44822   1.776   2.673   1.330  2.2778  0.2824  0.0025
  340MOL0     H44823   1.985   2.526   1.191 -2.1552  0.4673 -1.1013
  340MOL0     H44824   1.999   2.656   1.296 -1.4941  0.7277  1.2270
  340MOL0     H44825   1.930   2.370   1.390 -1.7328  0.4082 -0.4310
  340MOL0     H44826   1.927   2.504   1.502  1.4089  0.0351  1.4579
  340MOL0     H44827   2.150   2.570   1.468 -0.4680  1.7007 -2.3895
  340MOL0     H44828   2.178   2.462   1.334  1.2766  1.7272  0.1642
  340MOL0     H44829   2.266   2.400   1.583 -0.5780 -1.9381  4.1236
  340MOL0     H44830   2.100   2.370   1.621 -1.6243 -0.2686 -1.0099
  340MOL0     H44831   2.252   2.245   1.393  0.9706  1.4835  0.4144
  340MOL0     H44832   2.092   2.196   1.433 -1.6670  1.8385  0.8347
  340MOL0     H44833   2.218   2.236   1.756 -0.5662 -0.4221 -0.5696
  340MOL0     H44834   2.410   2.031   1.912  2.1002 -3.2931 -0.9932
  340MOL0     H44835   2.367   1.878   1.886  3.4996  1.8768 -0.8742
  340MOL0     H44836   2.181   2.101   1.975  4.2127  0.5124 -1.0366
  340MOL0     H44837   2.244   1.967   2.075  0.4776  1.4529  0.4798
  340MOL0     H44838   2.030   1.958   1.857  1.3556  1.1240  0.1142
  340MOL0     H44839   2.121   1.808   1.896 -0.2135 -0.9857  2.2783
  340MOL0     H44840   2.078   1.849   2.137 -0.7554  0.4834  0.6579
  340MOL0     H44841   1.940   1.803   2.031  1.4901 -1.2268  0.5673
  340MOL0     H44842   1.804   2.204   2.197  2.1379  0.4140 -0.8125
  340MOL0     H44843   1.580   2.250   2.149  0.9323  1.4484 -2.6414
  340MOL0     H44844   1.122   2.093   1.923  1.9187  0.1751  0.7963
  340MOL0     H44845   0.905   2.190   1.844  0.2054 -0.4791  1.0548
  340MOL0     H44846   0.721   2.287   1.794  0.5320 -0.2924 -0.8740
  340MOL0     H44847   0.810   2.370   1.661 -0.1753  0.8094 -0.2749
  340MOL0     H44848   0.689   2.565   1.670  0.4655 -1.2511 -0.6863
  340MOL0     H44849   0.593   2.514   1.808  0.0666 -1.3473  1.2507
  340MOL0     H44850   0.525   2.314   1.664  0.0131 -0.3168 -0.9683
  340MOL0     H44851   0.585   2.395   1.527 -1.5236 -2.7715  0.4232
  340MOL0     H44852   0.379   2.507   1.724  0.2116  0.8687  0.5243
  340MOL0     H44853   0.440   2.579   1.567 -0.2234  0.2886 -0.1691
  340MOL0     H44854   0.272   2.325   1.564 -2.2358  0.9574  0.1256
  340MOL0     H44855   0.349   2.403   1.439  1.0809 -2.3703  0.1635
  340MOL0     H44856   0.124   2.466   1.445  1.0648  0.1900 -0.8676
  340MOL0     H44857   0.224   2.608   1.479  1.5281 -1.9030 -1.4404
  340MOL0     H44858   0.029   2.448   1.651 -0.3679  0.3507 -0.3152
  340MOL0     H44859   0.135   2.570   1.732 -1.5524  1.8682 -0.2530
  340MOL0     H44860  -0.069   2.594   1.511  0.8435 -1.3076 -0.1199
  340MOL0     H44861   0.038   2.728   1.550 -1.7123  0.1044 -2.6487
  340MOL0     H44862   1.044   2.582   1.948  1.4989 -0.2357  1.6232
  340MOL0     H44863   1.257   2.491   2.026 -0.9036  2.0081 -1.6840
  340MOL0     H44864   1.563   1.924   1.871 -0.5658 -1.6243  1.6483
  340MOL0     H44865   1.783   1.869   1.911 -2.6868  0.3150 -2.3272
  340MOL0     H44866   1.850   3.067   1.266 -0.9017 -2.7487 -1.7658
  340MOL0     H44867   2.019   3.257   1.261  4.0272  0.4449 -0.5172
  340MOL0     H44868   2.156   3.558   0.975  0.4684 -0.6143  2.3314
  340MOL0     H44869   2.231   3.778   0.891  1.4997 -0.4949 -3.2637
  340MOL0     H44870   2.432   4.065   0.889  1.7890 -0.5616 -1.5958
  340MOL0     H44871   2.291   3.954   0.919 -0.2949  0.5205 -0.1947
  340MOL0     H44872   2.463   3.942   0.679  0.4052 -0.2905  1.7994
  340MOL0     H44873   2.312   3.854   0.695  0.1656 -0.2323 -2.3734
  340MOL0     H44874   2.346   4.171   0.677 -0.5325  1.6204 -1.7486
  340MOL0     H44875   2.208   4.108   0.750  1.4800 -0.8051  0.9055
  340MOL0     H44876   2.208   4.161   0.513  2.4241  1.2318  1.0472
  340MOL0     H44877   2.321   4.030   0.475 -0.1152 -1.0997  0.8633
  340MOL0     H44878   1.925   3.865   0.563 -0.4003  0.0914 -0.1444
  340MOL0     H44879   2.637   3.652   0.968  1.0880 -4.8545 -1.5864
  340MOL0     H44880   2.561   3.418   1.019 -0.4012  0.4164  1.7724
  341MOL0     O44881   5.336   0.980   5.883  0.3456 -0.1503  0.0494
  341MOL0     C44882   5.436   0.929   5.838  0.0572 -0.7988 -0.3429
  341MOL0     O44883   5.473   0.796   5.852  0.4069  0.2194  0.3912
  341MOL0     C44884   5.380   0.713   5.920 -0.8530  0.4091 -0.1354
  341MOL0     C44885   5.240   0.697   5.899 -0.2189 -0.1179  0.1188
  341MOL0     C44886   5.167   0.591   5.956  0.3263 -0.0091  0.2808
  341MOL0     C44887   5.242   0.508   6.045  0.2119 -0.0307 -0.6830
  341MOL0     O44888   5.181   0.407   6.115 -0.4927  0.8542 -0.2245
  341MOL0     C44889   5.036   0.389   6.100 -0.4057 -0.1262  1.3251
  341MOL0     C44890   4.985   0.282   6.195  0.2761 -0.3223 -0.4510
  341MOL0     C44891   4.853   0.227   6.140  0.5395 -0.6659 -0.2819
  341MOL0     C44892   4.756   0.331   6.084  0.4742 -0.4351  0.7517
  341MOL0     C44893   4.638   0.247   6.030 -0.8685  0.5065 -0.2348
  341MOL0     C44894   4.528   0.343   5.985  0.4197 -0.2278 -0.3989
  341MOL0     C44895   4.411   0.272   5.931 -0.3606 -0.2194  0.1174
  341MOL0     C44896   4.294   0.371   5.927 -0.5756 -0.1106  1.1146
  341MOL0     N44897   4.171   0.314   5.882 -0.2253  0.3769 -0.1752
  341MOL0     C44898   4.139   0.175   5.875 -0.1564 -0.1978  0.0500
  341MOL0     C44899   4.014   0.169   5.832 -0.0191  0.4673  0.7908
  341MOL0     C44900   3.928   0.045   5.831  0.6267  0.4280  0.4959
  341MOL0     C44901   3.844   0.029   5.706  0.0103  0.3513  0.3280
  341MOL0     C44902   3.708   0.114   5.709  0.0745  0.7156  0.7647
  341MOL0     C44903   3.601   0.085   5.596 -0.5053 -0.5660 -0.1593
  341MOL0     O44904   3.490   0.173   5.608  0.4570 -0.0281 -0.1087
  341MOL0     C44905   3.362   0.133   5.567 -0.2586 -0.6768  0.6369
  341MOL0     C44906   3.331   0.024   5.483  0.3347  0.0291  0.6671
  341MOL0     C44907   3.192   0.001   5.455  0.2239 -0.5381 -0.3518
  341MOL0     C44908   3.089   0.085   5.496  1.1554 -0.0386  0.0462
  341MOL0     C44909   2.952   0.054   5.456 -0.2899 -0.4161  1.2495
  341MOL0     O44910   2.864   0.143   5.512  0.1267  0.8638  0.4874
  341MOL0     C44911   2.724   0.144   5.483 -0.7307 -0.2907 -0.5861
  341MOL0     C44912   2.643   0.214   5.582  0.3507 -0.0683  0.0604
  341MOL0     C44913   2.507   0.229   5.573 -0.0520  1.5160 -0.5228
  341MOL0     C44914   2.435   0.170   5.464 -0.2198  0.2766 -0.7599
  341MOL0     O44915   2.306   0.195   5.437 -0.0617  0.0505 -0.3225
  341MOL0     C44916   2.231   0.262   5.532 -1.1761  0.4840 -0.2486
  341MOL0     C44917   2.097   0.292   5.479  0.1439  0.4713 -0.8036
  341MOL0     C44918   2.012   0.370   5.586  0.7464  0.2638 -0.2571
  341MOL0     C44919   1.863   0.357   5.546  0.2769  0.7405  0.3759
  341MOL0     C44920   1.780   0.455   5.636  0.2621  0.4239 -0.0483
  341MOL0     C44921   1.628   0.468   5.598 -0.1737 -0.8299  0.1373
  341MOL0     C44922   1.554   0.572   5.677  0.2553  0.1512 -0.0885
  341MOL0     C44923   1.401   0.579   5.631 -0.4846 -0.2559 -0.7597
  341MOL0    Cl44924   1.381   0.584   5.455 -0.0041 -0.0137  0.1145
  341MOL0     C44925   2.513   0.113   5.364 -0.4346  0.2243  0.2654
  341MOL0     C44926   2.653   0.096   5.369 -0.0808  0.0443  0.4971
  341MOL0     O44927   2.929  -0.033   5.369  0.7245 -0.8068  0.1575
  341MOL0     C44928   3.120   0.202   5.566 -0.4666  0.2810 -0.6562
  341MOL0     C44929   3.254   0.225   5.605 -0.4086 -0.2866 -0.0698
  341MOL0     N44930   3.976   0.295   5.798  0.5037 -0.4637  0.4588
  341MOL0     N44931   4.073   0.380   5.822 -0.1962 -0.0702  0.5058
  341MOL0     C44932   5.377   0.525   6.066 -0.0219 -0.2366 -0.3236
  341MOL0     C44933   5.449   0.624   6.002  0.1408  0.0665 -0.4643
  341MOL0     C44934   5.539   1.025   5.784  0.0592 -0.5680 -0.3704
  341MOL0     C44935   5.643   0.979   5.701  0.2064  0.9392 -0.3192
  341MOL0     C44936   5.736   1.072   5.645 -0.0805  0.1568  0.2836
  341MOL0     C44937   5.734   1.205   5.687 -0.1130  0.2802 -0.1732
  341MOL0     O44938   5.836   1.296   5.654  0.7274 -0.3047 -0.2588
  341MOL0     C44939   5.909   1.282   5.534 -0.4819  0.7369 -0.2208
  341MOL0     C44940   5.880   1.386   5.427  0.5915 -0.7985  0.0157
  341MOL0     C44941   5.733   1.385   5.387  0.5926  0.2055 -0.7200
  341MOL0     C44942   5.714   1.496   5.286 -0.2406 -0.8424 -0.1369
  341MOL0     C44943   5.575   1.506   5.243 -0.1925 -0.5607  1.6012
  341MOL0     C44944   5.457   1.511   5.205 -0.7711 -0.0853 -0.3126
  341MOL0     C44945   5.639   1.248   5.781 -0.7143  0.1693 -0.4513
  341MOL0     C44946   5.537   1.160   5.828  0.4492 -0.0302  0.6364
  341MOL0     H44947   5.196   0.756   5.819  1.3837 -1.0380 -1.5360
  341MOL0     H44948   5.060   0.593   5.941  0.5437  2.1589 -1.6688
  341MOL0     H44949   5.019   0.353   5.998 -1.1207 -0.3727  1.5216
  341MOL0     H44950   4.994   0.487   6.125 -0.4108  0.3971 -0.6067
  341MOL0     H44951   4.976   0.339   6.288  1.5526 -1.8015  0.6458
  341MOL0     H44952   5.054   0.198   6.204 -0.2601 -0.5561  3.1008
  341MOL0     H44953   4.802   0.177   6.223 -1.4054 -1.6483 -1.9495
  341MOL0     H44954   4.885   0.156   6.063  0.8060  0.2603 -1.0489
  341MOL0     H44955   4.722   0.413   6.148  1.7677 -0.1155  1.0464
  341MOL0     H44956   4.793   0.385   5.996 -0.1892 -1.1033  0.0424
  341MOL0     H44957   4.605   0.187   6.115  1.9080  1.2962  1.5305
  341MOL0     H44958   4.663   0.175   5.952 -1.9648 -2.4491  1.9908
  341MOL0     H44959   4.561   0.416   5.911 -1.5159 -1.6556 -2.8213
  341MOL0     H44960   4.504   0.405   6.073  0.4885  0.8574 -1.1328
  341MOL0     H44961   4.440   0.230   5.834 -1.2171 -0.5146 -0.0232
  341MOL0     H44962   4.384   0.193   6.002 -0.1260  1.5536  2.2684
  341MOL0     H44963   4.311   0.454   5.858 -2.7425  1.0063  1.8225
  341MOL0     H44964   4.270   0.418   6.023 -2.2782  0.3767  0.4794
  341MOL0     H44965   4.211   0.100   5.907  3.2946  2.7308 -0.1642
  341MOL0     H44966   3.871   0.039   5.924 -0.5045  1.6529 -0.0921
  341MOL0     H44967   4.002  -0.036   5.830  2.2140  1.8064 -0.8493
  341MOL0     H44968   3.821  -0.078   5.708 -0.2564  0.3820 -0.6350
  341MOL0     H44969   3.903   0.045   5.615  0.3276  0.5071  0.5554
  341MOL0     H44970   3.663   0.097   5.807  0.0481  1.1413  0.8274
  341MOL0     H44971   3.743   0.216   5.692  3.5151 -0.3552  0.5587
  341MOL0     H44972   3.571  -0.020   5.594  1.0245 -1.3472  4.5561
  341MOL0     H44973   3.646   0.107   5.499  0.6011  1.4097  0.7496
  341MOL0     H44974   3.406  -0.048   5.454  0.4916 -0.2016  1.5935
  341MOL0     H44975   3.163  -0.076   5.384 -1.9751  1.6051 -1.9275
  341MOL0     H44976   2.689   0.263   5.667 -1.0530 -1.5067  1.7071
  341MOL0     H44977   2.457   0.294   5.644 -0.2294  1.0917 -0.2524
  341MOL0     H44978   2.273   0.358   5.564 -0.2756 -0.0427  0.2199
  341MOL0     H44979   2.225   0.195   5.618  0.8782  2.3960  1.5170
  341MOL0     H44980   2.050   0.196   5.456 -2.7832  1.6126 -0.0402
  341MOL0     H44981   2.107   0.352   5.387  2.8489  2.0924  0.4220
  341MOL0     H44982   2.043   0.475   5.582  3.0002 -0.1733  2.4408
  341MOL0     H44983   2.016   0.338   5.690 -1.1408  1.4746  0.2453
  341MOL0     H44984   1.841   0.377   5.441 -1.4033  2.9015  1.0801
  341MOL0     H44985   1.815   0.259   5.557 -1.2383  1.1540 -1.8685
  341MOL0     H44986   1.823   0.555   5.624 -0.4359  0.9395  1.4657
  341MOL0     H44987   1.786   0.438   5.744  1.0925  0.9135 -0.0106
  341MOL0     H44988   1.595   0.364   5.606  1.6610 -1.6321 -1.9034
  341MOL0     H44989   1.619   0.500   5.494 -0.3483 -0.0527  0.3861
  341MOL0     H44990   1.555   0.553   5.785 -0.3812 -1.7082 -0.3702
  341MOL0     H44991   1.611   0.664   5.660 -0.8239  1.0826  1.1423
  341MOL0     H44992   1.346   0.668   5.664 -0.1933  0.4267 -2.0560
  341MOL0     H44993   1.345   0.497   5.678  0.3718  0.9645  2.6748
  341MOL0     H44994   2.463   0.103   5.268 -0.7678  2.6935  0.1386
  341MOL0     H44995   2.691   0.057   5.275 -4.0126  0.9918 -1.6913
  341MOL0     H44996   3.050   0.275   5.605  0.3558  0.8033 -0.1128
  341MOL0     H44997   3.286   0.317   5.653 -2.0467  0.7095 -0.8051
  341MOL0     H44998   5.420   0.465   6.145 -1.2896  2.1827  2.3789
  341MOL0     H44999   5.555   0.645   6.009 -0.4329  3.0475  0.5856
  341MOL0     H45000   5.648   0.872   5.689 -0.0641  0.8516  0.3025
  341MOL0     H45001   5.811   1.035   5.576 -1.6857 -0.3306 -1.2755
  341MOL0     H45002   5.900   1.184   5.487 -0.3015 -0.8429  2.7977
  341MOL0     H45003   6.011   1.287   5.574  0.1935 -3.0025 -1.1208
  341MOL0     H45004   5.900   1.488   5.461 -1.3157 -0.1062 -0.8490
  341MOL0     H45005   5.931   1.347   5.338  0.0774 -0.4297 -0.4425
  341MOL0     H45006   5.662   1.387   5.470  2.6687  1.1860  1.1500
  341MOL0     H45007   5.719   1.286   5.343 -3.2695  0.8588 -1.3514
  341MOL0     H45008   5.737   1.594   5.328  0.8169 -0.3301 -1.7952
  341MOL0     H45009   5.783   1.480   5.203 -0.7292 -1.7084 -0.3834
  341MOL0     H45010   5.357   1.525   5.168 -1.0489  1.5444  0.9032
  341MOL0     H45011   5.644   1.347   5.826 -2.2423 -0.0017  0.1818
  341MOL0     H45012   5.452   1.187   5.890 -1.7215 -0.8532 -1.7830
  342MOL0     O45013   6.071   4.072   0.363 -0.3298  0.0461 -0.2207
  342MOL0     C45014   6.144   4.039   0.268 -0.1892 -0.3812 -0.1512
  342MOL0     O45015   6.109   4.046   0.136 -1.1691 -1.0645 -0.1824
  342MOL0     C45016   5.987   4.105   0.114 -0.3177  0.1178  1.0795
  342MOL0     C45017   5.865   4.031   0.144  0.2196  0.1251  0.2525
  342MOL0     C45018   5.737   4.087   0.106 -0.0925  0.1819  0.5105
  342MOL0     C45019   5.729   4.204   0.029 -0.1676 -0.5076  1.0422
  342MOL0     O45020   5.607   4.239  -0.020 -0.3599 -0.7644  0.2149
  342MOL0     C45021   5.568   4.375  -0.011  0.6844 -0.5537  0.5378
  342MOL0     C45022   5.446   4.403  -0.105 -0.3494  0.5296  0.1229
  342MOL0     C45023   5.343   4.293  -0.107 -0.3873 -0.4030  0.4866
  342MOL0     C45024   5.261   4.307   0.019 -0.1288  0.0844  0.5527
  342MOL0     C45025   5.143   4.207   0.032  0.1359 -0.7577  0.4281
  342MOL0     C45026   5.005   4.250  -0.009  0.1242  0.4560  0.2409
  342MOL0     C45027   4.905   4.139   0.035  0.7908  0.3199  0.4242
  342MOL0     C45028   4.762   4.180  -0.018 -0.3098 -0.0285  0.5808
  342MOL0     N45029   4.706   4.308   0.033 -0.2902 -0.2831 -0.0192
  342MOL0     C45030   4.654   4.331   0.158 -0.8329 -0.5406  0.3236
  342MOL0     C45031   4.620   4.465   0.162  0.1584  0.5889  0.3527
  342MOL0     C45032   4.569   4.537   0.279  0.3395 -0.5834 -0.0694
  342MOL0     C45033   4.413   4.532   0.276  1.2235 -0.8413 -0.3955
  342MOL0     C45034   4.338   4.632   0.376 -0.9542 -0.3343  0.1214
  342MOL0     C45035   4.190   4.614   0.353 -0.4863  0.3295  0.5237
  342MOL0     O45036   4.151   4.666   0.224  0.2292 -0.1161 -0.9111
  342MOL0     C45037   4.026   4.711   0.214 -0.3974  0.8429 -0.4273
  342MOL0     C45038   3.986   4.790   0.101  0.1182 -0.5920 -0.2359
  342MOL0     C45039   3.856   4.818   0.077 -0.5945 -0.9826 -0.7846
  342MOL0     C45040   3.752   4.780   0.162 -0.0272 -0.3321 -0.5391
  342MOL0     C45041   3.605   4.792   0.149  0.5201  0.3812 -0.3639
  342MOL0     O45042   3.525   4.758   0.249 -0.3628 -0.3611 -0.4308
  342MOL0     C45043   3.390   4.778   0.226 -0.1432 -0.1849  0.3194
  342MOL0     C45044   3.338   4.909   0.231 -0.5207  1.5518 -0.2189
  342MOL0     C45045   3.206   4.931   0.211 -0.1238 -0.1104  0.6448
  342MOL0     C45046   3.112   4.827   0.195  0.6050  0.1754 -0.8885
  342MOL0     O45047   2.976   4.830   0.192  0.2669  0.2353 -0.2298
  342MOL0     C45048   2.937   4.953   0.125  0.1502  0.2386  0.4364
  342MOL0     C45049   2.792   4.958   0.065 -0.2157 -0.3205  0.3473
  342MOL0     C45050   2.689   4.952   0.182 -0.0028 -0.4056  0.8578
  342MOL0     C45051   2.549   5.004   0.156  0.6351  0.5079  0.1331
  342MOL0     C45052   2.485   4.940   0.028  0.0781 -0.0774 -0.4145
  342MOL0     C45053   2.334   4.966   0.032 -0.0073  0.4740 -0.1004
  342MOL0     C45054   2.262   4.900  -0.095 -0.0417  0.4613  0.6499
  342MOL0     C45055   2.112   4.926  -0.088  0.3170  0.2199  0.9816
  342MOL0    Cl45056   2.028   4.875   0.062 -0.4078 -0.3377  0.3694
  342MOL0     C45057   3.163   4.701   0.204  0.3626 -0.3035  0.6386
  342MOL0     C45058   3.298   4.676   0.199 -1.0448 -0.4887 -0.0946
  342MOL0     O45059   3.574   4.846   0.045  0.0605  0.3518  0.2259
  342MOL0     C45060   3.785   4.709   0.279  0.0367  0.8096 -0.0580
  342MOL0     C45061   3.921   4.674   0.301 -0.3193 -0.0999  0.5840
  342MOL0     N45062   4.665   4.518   0.041  0.2116  0.5838 -0.1862
  342MOL0     N45063   4.702   4.430  -0.036 -0.2320 -0.2636 -0.2500
  342MOL0     C45064   5.849   4.271  -0.004 -0.1046 -0.3582 -0.0852
  342MOL0     C45065   5.974   4.226   0.040 -0.0114  0.7479  0.0651
  342MOL0     C45066   6.265   3.968   0.304  0.2967 -0.7926 -0.1805
  342MOL0     C45067   6.326   3.894   0.204  0.0272 -0.2679 -0.3753
  342MOL0     C45068   6.447   3.833   0.231  1.0532  0.5122 -0.5910
  342MOL0     C45069   6.508   3.833   0.358  1.2379  0.4241  0.8690
  342MOL0     O45070   6.631   3.779   0.383 -0.7920 -0.2045 -0.4671
  342MOL0     C45071   6.743   3.837   0.317 -0.2287  0.4268  0.3884
  342MOL0     C45072   6.757   3.990   0.337  0.3262  0.4401  0.9592
  342MOL0     C45073   6.770   4.031   0.478 -0.3038  0.0540 -0.0564
  342MOL0     C45074   6.748   4.186   0.503 -0.3015 -0.6737 -0.3262
  342MOL0     C45075   6.610   4.232   0.490  0.1721 -0.7681  0.0798
  342MOL0     C45076   6.500   4.282   0.475  0.4900 -0.0823  0.1050
  342MOL0     C45077   6.444   3.911   0.459 -1.1590  1.4691  0.4379
  342MOL0     C45078   6.320   3.973   0.435  0.2987 -0.2553  0.1644
  342MOL0     H45079   5.870   3.941   0.205  0.6378 -2.0597 -2.7680
  342MOL0     H45080   5.654   4.028   0.145 -2.3840  1.1198 -2.6192
  342MOL0     H45081   5.646   4.446  -0.039 -1.5644  1.6899 -0.4886
  342MOL0     H45082   5.539   4.392   0.093  0.3488 -1.2579  0.5723
  342MOL0     H45083   5.487   4.423  -0.204 -1.8775  2.2419 -0.2303
  342MOL0     H45084   5.404   4.499  -0.073 -1.4341  0.1801 -0.2093
  342MOL0     H45085   5.388   4.194  -0.120 -0.5336 -0.5276  0.8985
  342MOL0     H45086   5.277   4.314  -0.192 -0.3826  1.6017  0.9387
  342MOL0     H45087   5.328   4.275   0.100  0.0394 -0.6379  0.1288
  342MOL0     H45088   5.231   4.412   0.031  1.4939  0.5016  1.3615
  342MOL0     H45089   5.147   4.201   0.141 -0.1070 -1.4441  0.4071
  342MOL0     H45090   5.172   4.107  -0.004  0.8831 -0.5255  0.3695
  342MOL0     H45091   5.013   4.261  -0.118  2.3896 -0.8923  0.2141
  342MOL0     H45092   4.985   4.349   0.034  1.7685 -0.5639  3.6932
  342MOL0     H45093   4.929   4.047  -0.019  0.9789  0.0682  0.9325
  342MOL0     H45094   4.913   4.134   0.144  0.0527  0.7004  0.5021
  342MOL0     H45095   4.692   4.100   0.007 -0.1957  0.0782  1.2656
  342MOL0     H45096   4.773   4.193  -0.126 -2.5457 -0.1494  0.2922
  342MOL0     H45097   4.656   4.258   0.239 -1.3837  1.8799  2.6629
  342MOL0     H45098   4.592   4.644   0.279  0.8034 -0.6498  1.4448
  342MOL0     H45099   4.607   4.501   0.376  0.7126  2.2999  0.9374
  342MOL0     H45100   4.376   4.433   0.306  2.3225 -1.6208 -1.5190
  342MOL0     H45101   4.388   4.558   0.172  0.2401  1.1571  0.2925
  342MOL0     H45102   4.371   4.609   0.477  2.8281 -0.2062 -0.9252
  342MOL0     H45103   4.356   4.739   0.359  1.6825 -0.8714 -1.0331
  342MOL0     H45104   4.139   4.669   0.432  0.6615  0.9921  0.8245
  342MOL0     H45105   4.160   4.510   0.364 -3.1779  0.7978 -1.4872
  342MOL0     H45106   4.058   4.831   0.032 -0.3651  0.1542 -0.3131
  342MOL0     H45107   3.825   4.877  -0.008  0.1510 -0.6661 -0.8416
  342MOL0     H45108   3.409   4.982   0.270 -0.3082 -0.4122  3.5465
  342MOL0     H45109   3.177   5.036   0.218  1.9264  0.7128 -1.6709
  342MOL0     H45110   3.004   4.982   0.044  0.5230 -0.2365  0.5708
  342MOL0     H45111   2.946   5.033   0.199  0.4013  0.9174 -0.3232
  342MOL0     H45112   2.777   4.876  -0.006 -1.2433 -1.0518  1.3576
  342MOL0     H45113   2.780   5.050   0.008 -0.9543  0.7301  2.1000
  342MOL0     H45114   2.731   5.025   0.252 -0.4400  0.5592  0.1323
  342MOL0     H45115   2.691   4.849   0.218  1.4029 -1.9180 -3.0145
  342MOL0     H45116   2.484   4.971   0.238 -2.5891  1.0589 -2.0142
  342MOL0     H45117   2.539   5.111   0.139 -1.6410  0.4729  0.9363
  342MOL0     H45118   2.505   4.833   0.028  0.3947 -0.0283  0.5073
  342MOL0     H45119   2.531   4.982  -0.063  2.2742 -1.9071 -0.2510
  342MOL0     H45120   2.312   5.073   0.027 -0.5588  0.4422  1.2177
  342MOL0     H45121   2.292   4.936   0.129  2.0169 -1.1499  0.3474
  342MOL0     H45122   2.307   4.941  -0.186 -0.2336  1.4612  0.9999
  342MOL0     H45123   2.277   4.792  -0.094 -4.5669 -0.4065  3.4609
  342MOL0     H45124   2.068   4.865  -0.168 -0.0782  0.1087  1.2802
  342MOL0     H45125   2.092   5.029  -0.122  2.1280 -0.2967 -2.0606
  342MOL0     H45126   3.083   4.628   0.190 -2.6745  2.9524 -0.3860
  342MOL0     H45127   3.341   4.576   0.199  0.2289  0.0116  1.8503
  342MOL0     H45128   3.716   4.665   0.349  4.3631 -3.2465  2.2422
  342MOL0     H45129   3.933   4.609   0.387 -3.6813 -0.2462  1.0816
  342MOL0     H45130   5.847   4.360  -0.066  1.3259 -0.5649 -0.4654
  342MOL0     H45131   6.062   4.273  -0.002 -0.2632  0.1477 -1.1715
  342MOL0     H45132   6.274   3.881   0.109 -1.6820  1.1609  0.3313
  342MOL0     H45133   6.472   3.770   0.146  0.6039 -1.1897  0.4939
  342MOL0     H45134   6.734   3.810   0.211 -0.5309  2.6865 -0.2099
  342MOL0     H45135   6.839   3.790   0.341 -1.0181  0.0193  3.1041
  342MOL0     H45136   6.849   4.019   0.286  0.8623  0.3393  1.8473
  342MOL0     H45137   6.675   4.043   0.288  0.9737  0.0125 -0.6588
  342MOL0     H45138   6.871   4.005   0.510 -0.2155 -1.3968 -1.4155
  342MOL0     H45139   6.698   3.989   0.550  1.6951 -0.6929  1.6036
  342MOL0     H45140   6.783   4.213   0.603 -2.2318 -0.7377  0.3975
  342MOL0     H45141   6.812   4.230   0.425 -0.6954 -1.3641 -1.0549
  342MOL0     H45142   6.401   4.322   0.465 -0.3079 -1.6544  1.1770
  342MOL0     H45143   6.488   3.918   0.558  1.5577  2.3122 -0.7124
  342MOL0     H45144   6.278   4.034   0.514 -1.3671  0.8013 -1.4559
  343MOL0     O45145   2.838   4.373   9.548  0.5121  0.2986  0.1252
  343MOL0     C45146   2.934   4.393   9.477 -0.5531 -0.3555  0.6144
  343MOL0     O45147   2.929   4.411   9.346  0.3060  0.7101  0.2334
  343MOL0     C45148   2.806   4.396   9.289  0.2782 -0.3804 -0.1446
  343MOL0     C45149   2.754   4.504   9.221 -0.2532  0.1280  0.3538
  343MOL0     C45150   2.631   4.504   9.151 -0.2589 -0.0875 -0.1501
  343MOL0     C45151   2.553   4.384   9.149 -0.7038 -0.5349 -0.5495
  343MOL0     O45152   2.438   4.383   9.073  0.5428 -0.5042  0.5990
  343MOL0     C45153   2.391   4.257   9.029 -0.3766  0.0511 -0.9657
  343MOL0     C45154   2.275   4.260   8.923  0.1444  0.5609 -0.4959
  343MOL0     C45155   2.207   4.125   8.903 -0.4196  0.5369 -0.0374
  343MOL0     C45156   2.081   4.159   8.822  0.0745 -0.2696 -0.1230
  343MOL0     C45157   2.004   4.038   8.776  0.1309 -0.6188  0.1947
  343MOL0     C45158   2.071   3.948   8.675  0.5358  0.0287 -0.5793
  343MOL0     C45159   2.055   3.978   8.530 -0.6676  0.6427  0.8598
  343MOL0     C45160   2.163   3.891   8.456  0.6690 -0.8802  0.7696
  343MOL0     N45161   2.155   3.749   8.475  0.6607  0.2232 -0.2426
  343MOL0     C45162   2.065   3.660   8.425  0.2812 -0.5065 -0.4914
  343MOL0     C45163   2.119   3.538   8.441  0.0098  0.8157 -0.9864
  343MOL0     C45164   2.058   3.409   8.398  0.3636 -0.8578  0.2458
  343MOL0     C45165   1.915   3.387   8.453  0.1233  0.2665 -0.5549
  343MOL0     C45166   1.867   3.249   8.423 -0.3893  0.6714 -0.3604
  343MOL0     C45167   1.726   3.234   8.453  0.2778 -0.3176 -0.4024
  343MOL0     O45168   1.696   3.258   8.592 -1.2299  0.9119  0.0753
  343MOL0     C45169   1.568   3.227   8.635 -0.0150 -0.8949 -0.8221
  343MOL0     C45170   1.466   3.180   8.545  0.1541  1.0083 -0.0304
  343MOL0     C45171   1.338   3.176   8.601 -0.2953  0.2751  0.4972
  343MOL0     C45172   1.306   3.201   8.730  0.1729 -0.9788  0.1242
  343MOL0     C45173   1.171   3.201   8.768  1.3069  0.5618 -0.3667
  343MOL0     O45174   1.068   3.144   8.694  0.0770 -0.1861 -0.0581
  343MOL0     C45175   0.937   3.131   8.746  0.0274  0.1855  0.0599
  343MOL0     C45176   0.906   3.077   8.873 -0.3787  0.4180  0.1246
  343MOL0     C45177   0.773   3.058   8.909 -0.4330 -0.5261  0.1434
  343MOL0     C45178   0.665   3.090   8.828  0.8897 -0.7406  0.1044
  343MOL0     O45179   0.540   3.094   8.886  0.3163  0.8455  0.1619
  343MOL0     C45180   0.435   3.147   8.811 -0.2912  0.1786 -0.8959
  343MOL0     C45181   0.306   3.154   8.892 -0.8686 -0.0038 -1.4076
  343MOL0     C45182   0.291   3.049   9.005  0.1538 -0.2915 -1.8862
  343MOL0     C45183   0.148   3.035   9.043  0.1907  0.4713  0.0418
  343MOL0     C45184   0.123   2.987   9.187 -0.4510  0.0053  0.4397
  343MOL0     C45185   0.153   2.840   9.187 -0.4154 -0.2845  0.2499
  343MOL0     C45186   0.133   2.790   9.328 -0.2267  0.2626 -0.2922
  343MOL0     C45187   0.139   2.645   9.345  0.2257  0.6234  1.2609
  343MOL0    Cl45188  -0.001   2.564   9.252 -0.0372 -0.3798  0.2143
  343MOL0     C45189   0.695   3.127   8.693 -0.3143  0.1969  0.4944
  343MOL0     C45190   0.825   3.148   8.651 -0.1668 -0.3428  0.2605
  343MOL0     O45191   1.161   3.240   8.888 -1.0460  0.5139  0.2552
  343MOL0     C45192   1.410   3.251   8.810 -0.1745 -0.7880  0.4905
  343MOL0     C45193   1.545   3.261   8.762  0.3735 -0.6755 -0.4887
  343MOL0     N45194   2.237   3.549   8.510  1.0146  0.2112  0.5237
  343MOL0     N45195   2.256   3.677   8.536 -0.5444  0.3245 -0.1940
  343MOL0     C45196   2.609   4.271   9.207  0.3179  0.3648  0.3968
  343MOL0     C45197   2.735   4.271   9.277 -0.2522 -0.1107 -1.0537
  343MOL0     C45198   3.073   4.417   9.543 -0.1195  0.2590  0.2459
  343MOL0     C45199   3.118   4.359   9.662 -0.4092  0.2096  0.6221
  343MOL0     C45200   3.243   4.388   9.715 -0.4701 -0.6425 -0.0851
  343MOL0     C45201   3.324   4.486   9.662 -0.9781 -0.2760 -0.5438
  343MOL0     O45202   3.442   4.515   9.733  0.5179  0.4176 -0.4942
  343MOL0     C45203   3.528   4.620   9.689  0.8677  0.2221  0.3369
  343MOL0     C45204   3.621   4.603   9.572 -0.5734  0.7382  0.6041
  343MOL0     C45205   3.690   4.744   9.555 -0.1948 -0.7816 -0.4302
  343MOL0     C45206   3.736   4.776   9.408 -0.1265 -0.1451 -0.6155
  343MOL0     C45207   3.845   4.686   9.352  0.0737  0.0586 -0.0199
  343MOL0     C45208   3.919   4.610   9.301 -0.1978 -0.0714 -0.2144
  343MOL0     C45209   3.283   4.546   9.541  0.2340  0.1390 -0.4313
  343MOL0     C45210   3.160   4.512   9.484  0.4189  0.3483 -0.0823
  343MOL0     H45211   2.812   4.596   9.226  4.0712 -2.1987 -1.6077
  343MOL0     H45212   2.599   4.596   9.103  0.6459 -0.1678 -0.9343
  343MOL0     H45213   2.360   4.201   9.118  3.1146  1.2820  1.2774
  343MOL0     H45214   2.480   4.205   8.991 -1.7852 -0.9838 -2.9976
  343MOL0     H45215   2.317   4.290   8.827  3.2240  1.1511  0.9172
  343MOL0     H45216   2.199   4.329   8.960 -0.0836 -1.1193  2.5200
  343MOL0     H45217   2.183   4.089   9.004  0.3090  1.6409  0.5490
  343MOL0     H45218   2.277   4.059   8.851 -0.2957  1.0591 -0.5317
  343MOL0     H45219   2.014   4.211   8.891 -0.3131  0.4176 -0.9999
  343MOL0     H45220   2.095   4.239   8.750 -0.7980  2.0985  2.1660
  343MOL0     H45221   1.906   4.068   8.739 -0.5614  0.6635  2.8508
  343MOL0     H45222   1.978   3.987   8.869 -0.5188  1.9065  1.4581
  343MOL0     H45223   2.017   3.857   8.702 -1.2662  1.3348  0.4248
  343MOL0     H45224   2.177   3.934   8.695  0.7404  2.0588  0.0367
  343MOL0     H45225   1.959   3.940   8.493  0.1738 -1.5501  0.7911
  343MOL0     H45226   2.071   4.086   8.520 -0.4807  1.3382  5.8662
  343MOL0     H45227   2.267   3.915   8.478  1.3135 -0.7620 -2.0039
  343MOL0     H45228   2.157   3.909   8.348  0.9217 -2.4304  0.4756
  343MOL0     H45229   1.977   3.683   8.367  1.1441 -2.0892 -2.5475
  343MOL0     H45230   2.127   3.328   8.425  1.1384  0.0864  1.1732
  343MOL0     H45231   2.059   3.419   8.290  0.9644 -0.9007  0.2423
  343MOL0     H45232   1.852   3.458   8.398 -2.4599 -1.6149 -0.2177
  343MOL0     H45233   1.916   3.404   8.561  5.2862  0.6074 -0.4305
  343MOL0     H45234   1.877   3.236   8.315  0.4581 -3.0163  0.0444
  343MOL0     H45235   1.926   3.169   8.467  1.3031  0.6216 -2.5370
  343MOL0     H45236   1.700   3.131   8.426  1.7227 -0.8497  0.1566
  343MOL0     H45237   1.676   3.307   8.388  3.5630  1.5820 -1.0190
  343MOL0     H45238   1.490   3.174   8.439 -1.5849 -1.1252 -0.3814
  343MOL0     H45239   1.272   3.139   8.523  1.0893  3.0732 -2.2481
  343MOL0     H45240   0.977   3.039   8.946 -0.8274 -0.2668  0.2160
  343MOL0     H45241   0.742   3.014   9.004 -1.9085  1.2960  0.5723
  343MOL0     H45242   0.420   3.084   8.723  0.3361  0.9562 -1.5743
  343MOL0     H45243   0.463   3.246   8.774 -0.9150  0.9459  0.5820
  343MOL0     H45244   0.224   3.161   8.821 -2.2581  0.7870  0.2046
  343MOL0     H45245   0.293   3.255   8.932 -0.1963 -0.0903 -0.9554
  343MOL0     H45246   0.353   3.086   9.088 -0.3812 -1.8622 -0.7256
  343MOL0     H45247   0.337   2.952   8.986  2.8296  0.7357 -1.1412
  343MOL0     H45248   0.110   3.137   9.033 -0.2925  0.3494  0.6193
  343MOL0     H45249   0.099   2.964   8.976 -0.1835  0.1958  0.6104
  343MOL0     H45250   0.023   3.012   9.223 -1.2644 -1.1526 -0.9130
  343MOL0     H45251   0.198   3.039   9.248  0.3197  0.2694 -0.6880
  343MOL0     H45252   0.257   2.816   9.166 -0.8514  0.0646 -2.6877
  343MOL0     H45253   0.091   2.791   9.110 -1.3553 -0.1801  0.9183
  343MOL0     H45254   0.211   2.828   9.393 -0.5498 -1.0098  0.8935
  343MOL0     H45255   0.035   2.818   9.366  0.0292 -2.2888  2.6455
  343MOL0     H45256   0.143   2.631   9.454 -1.9326 -1.5200  1.1271
  343MOL0     H45257   0.233   2.614   9.299  0.2490  3.2815 -0.6968
  343MOL0     H45258   0.617   3.156   8.623  1.1409  2.7124 -0.2299
  343MOL0     H45259   0.853   3.161   8.547 -0.1354 -0.0055  0.3089
  343MOL0     H45260   1.390   3.293   8.909  1.3257 -0.2001  0.5653
  343MOL0     H45261   1.618   3.314   8.822 -0.4179  0.6409 -0.6506
  343MOL0     H45262   2.571   4.169   9.212 -0.0441  0.5491  1.7704
  343MOL0     H45263   2.776   4.180   9.320 -3.1837  0.4026  3.4661
  343MOL0     H45264   3.058   4.279   9.705 -0.5053 -1.1218 -1.8360
  343MOL0     H45265   3.277   4.341   9.807  0.6609  0.3743  0.0563
  343MOL0     H45266   3.593   4.646   9.773 -0.3070 -0.3772  1.4615
  343MOL0     H45267   3.466   4.709   9.674 -0.8061 -1.0811 -0.8594
  343MOL0     H45268   3.691   4.523   9.598 -0.1923  0.5522 -0.9071
  343MOL0     H45269   3.561   4.568   9.487 -1.1723  2.1654  0.4192
  343MOL0     H45270   3.766   4.753   9.633 -0.5844  1.0483 -0.2102
  343MOL0     H45271   3.620   4.827   9.571  2.2294  0.9023  2.4994
  343MOL0     H45272   3.646   4.768   9.347 -0.7436  1.8781 -0.0268
  343MOL0     H45273   3.756   4.883   9.405 -1.7707  0.2978  1.8202
  343MOL0     H45274   3.974   4.535   9.248  0.1320  0.8948 -1.2681
  343MOL0     H45275   3.339   4.618   9.482  1.1663 -2.5005 -2.9795
  343MOL0     H45276   3.130   4.558   9.390 -0.4140  1.4792  0.7034
  344MOL0     O45277   9.268   1.066   8.685  0.2062 -0.0754  0.0233
  344MOL0     C45278   9.314   0.981   8.754  0.4572 -0.5263 -0.6499
  344MOL0     O45279   9.399   0.883   8.712  0.0942 -0.5071  1.0338
  344MOL0     C45280   9.451   0.903   8.584 -0.1927  0.4545  0.7372
  344MOL0     C45281   9.405   0.828   8.480  0.1405  0.5952  0.2889
  344MOL0     C45282   9.472   0.826   8.352 -0.3658  0.4148  0.0385
  344MOL0     C45283   9.587   0.914   8.340 -0.9576 -0.3716 -0.2009
  344MOL0     O45284   9.653   0.921   8.217  0.2952 -0.0340 -0.3862
  344MOL0     C45285   9.698   1.052   8.186 -1.0337 -0.4296  0.7475
  344MOL0     C45286   9.731   1.053   8.046  0.0785  0.2222  0.5934
  344MOL0     C45287   9.771   1.187   7.990  0.3436 -0.7510  0.2430
  344MOL0     C45288   9.658   1.279   7.960  0.4307  1.1696  0.4263
  344MOL0     C45289   9.600   1.354   8.078  0.7122  0.1125  0.7203
  344MOL0     C45290   9.505   1.468   8.038  0.1295 -0.4877  0.0137
  344MOL0     C45291   9.458   1.552   8.155  0.1226 -0.4838 -0.4178
  344MOL0     C45292   9.496   1.700   8.143  0.2511 -0.8832  0.9828
  344MOL0     N45293   9.441   1.784   8.250 -0.3527  0.0481  0.0293
  344MOL0     C45294   9.307   1.798   8.279 -0.1272  0.1947  0.2412
  344MOL0     C45295   9.290   1.899   8.370 -0.0558  0.3223 -0.7550
  344MOL0     C45296   9.156   1.944   8.435 -0.0730  0.4180 -0.3551
  344MOL0     C45297   9.060   2.014   8.341  0.5790 -0.4036 -0.0939
  344MOL0     C45298   9.120   2.133   8.276  0.4354 -0.1282 -0.2643
  344MOL0     C45299   9.011   2.243   8.276 -0.5479  1.1562  0.5725
  344MOL0     O45300   8.914   2.205   8.171  0.5963 -0.0773  0.1094
  344MOL0     C45301   8.943   2.233   8.039 -0.2054 -0.2786  0.2683
  344MOL0     C45302   9.034   2.332   7.994 -0.7547  0.4438 -1.4318
  344MOL0     C45303   9.071   2.345   7.853  0.9246 -0.5155  0.2574
  344MOL0     C45304   9.023   2.255   7.755 -0.1200 -0.0026  0.4479
  344MOL0     C45305   9.052   2.271   7.605  0.0774  0.2999  0.1729
  344MOL0     O45306   9.017   2.158   7.532  0.0012 -0.7558 -0.0655
  344MOL0     C45307   9.015   2.151   7.394 -0.1574  0.8636  0.8661
  344MOL0     C45308   9.133   2.105   7.329  0.7144 -0.2311  0.3645
  344MOL0     C45309   9.138   2.082   7.195 -0.1435  0.2149  0.9410
  344MOL0     C45310   9.023   2.087   7.108  0.1742  0.2574 -0.0541
  344MOL0     O45311   9.022   2.067   6.971  0.0115 -0.1125  0.2233
  344MOL0     C45312   9.148   2.070   6.908 -0.3321 -0.0674  0.8317
  344MOL0     C45313   9.153   2.099   6.760  0.1084 -0.1342  0.2776
  344MOL0     C45314   9.111   2.241   6.719  0.4071 -0.0340 -0.3807
  344MOL0     C45315   9.109   2.258   6.569  0.1490 -0.0527 -0.1561
  344MOL0     C45316   9.043   2.381   6.524 -0.8100  0.3808 -0.8761
  344MOL0     C45317   9.115   2.505   6.578  0.2246 -0.5312  0.3203
  344MOL0     C45318   9.031   2.632   6.551 -0.5891  0.3557  0.1134
  344MOL0     C45319   9.104   2.765   6.567  0.7727  1.2383  0.2837
  344MOL0    Cl45320   9.175   2.824   6.416 -0.0788  0.2390 -0.4164
  344MOL0     C45321   8.906   2.119   7.175 -0.3834 -0.4738  0.4444
  344MOL0     C45322   8.900   2.143   7.316  0.3593 -0.5118 -0.4194
  344MOL0     O45323   9.116   2.367   7.560 -0.7281  0.0162 -1.2655
  344MOL0     C45324   8.937   2.154   7.806 -0.3675  0.1263  0.8191
  344MOL0     C45325   8.901   2.137   7.945  0.9877 -1.5771 -0.2160
  344MOL0     N45326   9.417   1.944   8.396  0.5820 -0.8198 -0.0327
  344MOL0     N45327   9.502   1.880   8.326 -0.0345 -0.0067  0.4753
  344MOL0     C45328   9.630   0.993   8.449  0.3018  0.6856  0.4881
  344MOL0     C45329   9.560   0.984   8.567 -0.8254 -0.2300  0.5815
  344MOL0     C45330   9.274   0.996   8.900  0.4609  0.4734 -0.2701
  344MOL0     C45331   9.338   0.913   8.993 -0.0740  0.2626 -0.2540
  344MOL0     C45332   9.281   0.908   9.125 -0.3236 -0.2204  0.0601
  344MOL0     C45333   9.169   0.979   9.155 -1.0059 -0.0160 -0.1608
  344MOL0     O45334   9.129   0.959   9.286 -0.4599  0.6721 -0.0499
  344MOL0     C45335   8.995   0.921   9.295  0.3394  0.1420  0.7334
  344MOL0     C45336   9.007   0.805   9.393  0.1094  0.0768 -0.3545
  344MOL0     C45337   8.872   0.798   9.466  0.1864  0.4891  0.5339
  344MOL0     C45338   8.757   0.733   9.388  0.1334  0.4302  0.4397
  344MOL0     C45339   8.789   0.600   9.348 -0.8609 -0.4942  0.8185
  344MOL0     C45340   8.836   0.492   9.316 -0.0570 -0.2595  0.2311
  344MOL0     C45341   9.108   1.064   9.062  0.4573  0.4763  0.5409
  344MOL0     C45342   9.163   1.081   8.939  0.4845 -0.0942 -0.6107
  344MOL0     H45343   9.317   0.767   8.499  1.2689 -0.4077  2.8765
  344MOL0     H45344   9.455   0.760   8.268 -1.0081  0.6206 -0.0018
  344MOL0     H45345   9.785   1.085   8.243 -1.4498  2.5176 -0.1211
  344MOL0     H45346   9.614   1.118   8.210 -0.9961  1.4782 -3.3718
  344MOL0     H45347   9.653   1.007   7.984 -0.0441  1.7127 -0.4269
  344MOL0     H45348   9.816   0.984   8.038 -0.4878 -0.4989  0.7256
  344MOL0     H45349   9.811   1.175   7.889 -1.8542 -2.9103 -0.4723
  344MOL0     H45350   9.851   1.234   8.049  0.7720 -1.0982 -0.0591
  344MOL0     H45351   9.697   1.344   7.882 -2.1053  1.2818 -0.8370
  344MOL0     H45352   9.576   1.225   7.911  0.7621  0.5434  0.5418
  344MOL0     H45353   9.683   1.389   8.140 -1.5285  1.0420  3.3973
  344MOL0     H45354   9.537   1.282   8.132  1.3990 -1.5980 -0.6529
  344MOL0     H45355   9.419   1.427   7.984  1.2586 -1.7770 -0.8938
  344MOL0     H45356   9.548   1.535   7.964 -0.7493 -1.4874 -1.4566
  344MOL0     H45357   9.349   1.544   8.148 -0.1614  2.4969 -0.7421
  344MOL0     H45358   9.498   1.500   8.243 -0.5655  1.3705  1.0527
  344MOL0     H45359   9.452   1.744   8.053 -0.4751  1.5581  2.4146
  344MOL0     H45360   9.605   1.704   8.134  0.1148 -1.0029 -1.2188
  344MOL0     H45361   9.227   1.733   8.244  0.5688 -1.9084  2.3268
  344MOL0     H45362   9.173   2.008   8.522 -0.6485 -0.2652  0.2705
  344MOL0     H45363   9.112   1.852   8.474 -0.6313  0.4219 -0.9695
  344MOL0     H45364   8.971   2.044   8.396  1.2423 -0.4795  1.0541
  344MOL0     H45365   9.034   1.940   8.264 -1.0308  0.1932 -0.1432
  344MOL0     H45366   9.208   2.171   8.328  2.7635 -0.0816 -3.9046
  344MOL0     H45367   9.158   2.108   8.177  1.7050  0.6121  0.0062
  344MOL0     H45368   9.055   2.338   8.246 -0.0005  0.0305 -2.5320
  344MOL0     H45369   8.963   2.244   8.375  0.5874  0.8657  1.1516
  344MOL0     H45370   9.070   2.409   8.062 -1.3215  1.2006 -1.9666
  344MOL0     H45371   9.127   2.434   7.823 -0.4129 -0.5992 -2.9203
  344MOL0     H45372   9.227   2.104   7.382  0.5934 -2.1038  0.6243
  344MOL0     H45373   9.233   2.053   7.152  0.1038  1.9799  0.1859
  344MOL0     H45374   9.204   1.978   6.921 -0.6635 -0.3173  0.5288
  344MOL0     H45375   9.204   2.150   6.956 -1.8120  1.0562  0.7615
  344MOL0     H45376   9.090   2.022   6.714  0.5629  0.5979 -1.6552
  344MOL0     H45377   9.254   2.091   6.720  0.4615  1.2409  0.8332
  344MOL0     H45378   9.183   2.302   6.774 -0.4561 -2.6213  4.1502
  344MOL0     H45379   9.011   2.257   6.758 -0.3252 -2.0205 -1.2885
  344MOL0     H45380   9.210   2.247   6.529  0.2845  2.0282 -0.4900
  344MOL0     H45381   9.066   2.168   6.524 -0.4771  1.2096 -2.2108
  344MOL0     H45382   8.936   2.378   6.545 -0.7619 -1.4020 -0.7333
  344MOL0     H45383   9.060   2.376   6.416  3.2550 -0.8408 -0.3691
  344MOL0     H45384   9.211   2.512   6.526  0.6596  0.1898  1.1886
  344MOL0     H45385   9.130   2.492   6.686 -1.0891  0.8647  0.7094
  344MOL0     H45386   8.994   2.623   6.449 -3.9461  0.4983  1.1962
  344MOL0     H45387   8.957   2.640   6.631  0.0741 -0.5925  0.8344
  344MOL0     H45388   9.185   2.763   6.641 -0.1469  1.2846  1.3258
  344MOL0     H45389   9.032   2.836   6.610 -0.4447 -0.4226  1.0798
  344MOL0     H45390   8.809   2.125   7.127 -1.2412  0.4998  2.1967
  344MOL0     H45391   8.801   2.164   7.355  0.8543  1.7437 -0.2376
  344MOL0     H45392   8.898   2.083   7.734 -1.5417  0.5500  1.0138
  344MOL0     H45393   8.852   2.048   7.983  0.1486 -1.4360 -0.9395
  344MOL0     H45394   9.720   1.054   8.445 -0.4544  1.7917 -0.2525
  344MOL0     H45395   9.596   1.046   8.648 -3.6482  2.0718  0.2322
  344MOL0     H45396   9.413   0.840   8.965 -2.7533 -3.3778  1.2728
  344MOL0     H45397   9.327   0.852   9.206 -2.1600 -2.2185 -0.1958
  344MOL0     H45398   8.949   0.902   9.198 -2.2612 -0.3108  1.9719
  344MOL0     H45399   8.936   1.000   9.342  1.1346  1.7705 -0.8731
  344MOL0     H45400   9.049   0.714   9.348  1.3363  0.4345  0.0138
  344MOL0     H45401   9.088   0.825   9.464  0.0634 -0.7825 -0.0417
  344MOL0     H45402   8.841   0.899   9.495  2.4873  1.2907  0.4208
  344MOL0     H45403   8.895   0.741   9.557  1.8613  0.4799  0.1489
  344MOL0     H45404   8.662   0.732   9.442 -1.5377 -1.3427 -2.2835
  344MOL0     H45405   8.739   0.797   9.301 -1.1874  0.9598  1.0670
  344MOL0     H45406   8.887   0.400   9.297  1.3640  0.0257  2.3007
  344MOL0     H45407   9.017   1.119   9.082  0.0788  0.7439 -1.6808
  344MOL0     H45408   9.098   1.138   8.873  0.7476  3.4349  1.9151
  345MOL0     O45409   4.501   8.901   5.387 -0.1401 -0.5528  0.6604
  345MOL0     C45410   4.410   8.982   5.377 -0.4083 -0.1131 -0.6923
  345MOL0     O45411   4.423   9.105   5.315 -0.4341 -0.1987 -0.1767
  345MOL0     C45412   4.545   9.156   5.280 -0.1272 -0.4280  0.2674
  345MOL0     C45413   4.653   9.140   5.359 -0.9508  0.8957  0.1778
  345MOL0     C45414   4.783   9.184   5.322  0.1706 -0.5102 -0.4590
  345MOL0     C45415   4.799   9.250   5.198  0.3543  0.3250 -0.7374
  345MOL0     O45416   4.921   9.307   5.172  0.0777 -0.7084  0.4796
  345MOL0     C45417   4.946   9.381   5.053  0.0739  0.2334 -0.2368
  345MOL0     C45418   5.092   9.417   5.059  0.2451 -0.4739  0.5986
  345MOL0     C45419   5.117   9.520   4.945 -0.3539  0.1683 -0.0922
  345MOL0     C45420   5.249   9.597   4.971  1.0269  0.0436  0.5708
  345MOL0     C45421   5.281   9.697   4.861 -0.7112  0.4670  0.4934
  345MOL0     C45422   5.200   9.825   4.861 -0.2496 -0.6272  0.0942
  345MOL0     C45423   5.241   9.930   4.761  1.1532  0.2566  0.2877
  345MOL0     C45424   5.243   9.868   4.620 -0.9809 -0.0443  0.3185
  345MOL0     N45425   5.122   9.792   4.586 -0.3015 -0.1651  0.9727
  345MOL0     C45426   4.998   9.836   4.606  0.4788 -0.7829  0.5574
  345MOL0     C45427   4.918   9.750   4.544  0.4985  0.2091 -0.6116
  345MOL0     C45428   4.761   9.748   4.549  0.4589 -0.1769 -0.0764
  345MOL0     C45429   4.704   9.664   4.664  0.5625  0.3381 -0.1552
  345MOL0     C45430   4.749   9.736   4.790  1.0548  0.9389  0.0115
  345MOL0     C45431   4.667   9.699   4.906  0.0338  0.4870  0.2230
  345MOL0     O45432   4.751   9.712   5.022 -0.2191 -0.6186  0.4774
  345MOL0     C45433   4.697   9.669   5.138 -0.4983  0.3905  0.6480
  345MOL0     C45434   4.792   9.632   5.238  0.2472  0.4492 -0.4920
  345MOL0     C45435   4.738   9.567   5.351 -0.3087 -0.3852 -0.2688
  345MOL0     C45436   4.603   9.560   5.386 -0.4978 -0.2919 -0.4141
  345MOL0     C45437   4.571   9.482   5.499 -0.0817  0.5900 -0.9345
  345MOL0     O45438   4.671   9.417   5.570 -0.0704 -0.3801  0.3965
  345MOL0     C45439   4.637   9.360   5.690 -0.0562 -0.1807  0.3397
  345MOL0     C45440   4.705   9.394   5.802 -0.1264 -0.0825 -0.1150
  345MOL0     C45441   4.667   9.345   5.928 -0.5201 -1.0992  0.2645
  345MOL0     C45442   4.580   9.242   5.938 -0.4502 -0.1005 -0.4759
  345MOL0     O45443   4.563   9.185   6.066  0.3330 -0.1892  0.3188
  345MOL0     C45444   4.431   9.132   6.100 -0.4627 -0.8511 -0.0853
  345MOL0     C45445   4.437   9.095   6.244  0.1197  0.6214 -0.0871
  345MOL0     C45446   4.297   9.068   6.296  0.4516  0.3204 -0.5720
  345MOL0     C45447   4.298   9.031   6.447 -0.6358 -0.1641  0.5969
  345MOL0     C45448   4.154   8.976   6.480 -0.0429 -0.4774 -0.8243
  345MOL0     C45449   4.155   8.961   6.641 -0.0876 -0.4542  0.2054
  345MOL0     C45450   4.021   8.895   6.677  0.2359 -0.0638 -0.2768
  345MOL0     C45451   4.011   8.898   6.828 -0.7364  0.2694  0.1367
  345MOL0    Cl45452   3.848   8.830   6.861 -0.1048 -0.0019 -0.0069
  345MOL0     C45453   4.513   9.205   5.823  0.9805 -0.4289  0.2143
  345MOL0     C45454   4.536   9.262   5.698  0.1345 -0.5072 -0.1420
  345MOL0     O45455   4.456   9.486   5.527 -0.1893  0.5357 -0.1087
  345MOL0     C45456   4.508   9.612   5.292  0.7981 -0.5016  0.2798
  345MOL0     C45457   4.559   9.658   5.166 -0.3936 -0.0590 -0.3761
  345MOL0     N45458   4.996   9.645   4.495 -0.0050 -0.7004 -0.2660
  345MOL0     N45459   5.116   9.678   4.519  0.3859  0.5978 -0.8488
  345MOL0     C45460   4.692   9.261   5.116 -0.3181 -0.3269  0.1273
  345MOL0     C45461   4.562   9.221   5.156  0.4740 -0.3873 -0.3401
  345MOL0     C45462   4.277   8.952   5.435  0.6355 -0.5374  0.0442
  345MOL0     C45463   4.163   9.034   5.400  0.7375  0.6358  0.5247
  345MOL0     C45464   4.039   9.022   5.459  0.3517 -0.0778 -0.2533
  345MOL0     C45465   4.032   8.926   5.563  0.4318 -0.1698 -0.1520
  345MOL0     O45466   3.906   8.929   5.626 -0.0401  0.0481  0.2300
  345MOL0     C45467   3.870   8.812   5.705  0.1386 -0.1451  0.2070
  345MOL0     C45468   3.757   8.871   5.801  0.3057 -0.0392  0.1729
  345MOL0     C45469   3.671   8.753   5.851  0.0217 -0.1248 -0.1853
  345MOL0     C45470   3.731   8.689   5.971  1.7763  0.7560 -0.6822
  345MOL0     C45471   3.630   8.598   6.034 -0.2427 -1.0024 -0.3755
  345MOL0     C45472   3.544   8.528   6.080  0.3807 -1.0804  0.7936
  345MOL0     C45473   4.138   8.835   5.591  0.1268 -0.0755 -0.9567
  345MOL0     C45474   4.250   8.850   5.521 -0.3870  0.1695 -1.2930
  345MOL0     H45475   4.637   9.110   5.462 -0.6325  0.9414  0.2425
  345MOL0     H45476   4.869   9.175   5.389  0.4019 -1.7298 -0.8876
  345MOL0     H45477   4.888   9.474   5.058  0.7680  0.6262  1.0259
  345MOL0     H45478   4.925   9.315   4.969  4.0941  0.4554 -1.6371
  345MOL0     H45479   5.148   9.324   5.044 -1.9059 -1.9543  1.2051
  345MOL0     H45480   5.124   9.475   5.146  1.2176  0.7906 -0.5562
  345MOL0     H45481   5.029   9.584   4.939  0.2647  1.0478 -0.0344
  345MOL0     H45482   5.112   9.465   4.851 -2.2572 -0.1285  0.1584
  345MOL0     H45483   5.257   9.638   5.072  1.6573 -1.0115  0.9694
  345MOL0     H45484   5.322   9.515   4.974  0.2410 -0.6627  0.8279
  345MOL0     H45485   5.263   9.643   4.768 -1.0600  1.9090 -0.3022
  345MOL0     H45486   5.388   9.718   4.864 -0.3822 -0.5587 -1.8026
  345MOL0     H45487   5.203   9.865   4.963 -1.8024 -0.4983  0.1054
  345MOL0     H45488   5.095   9.797   4.849 -1.1695  1.7057  1.7917
  345MOL0     H45489   5.159  10.002   4.760 -2.4328 -3.4065 -1.6824
  345MOL0     H45490   5.341   9.971   4.777  0.7101  0.3633  3.4925
  345MOL0     H45491   5.336   9.812   4.609  0.0095  1.7719 -1.2793
  345MOL0     H45492   5.246   9.960   4.560 -0.8135  1.2375  2.1973
  345MOL0     H45493   4.974   9.928   4.659 -0.7712 -1.4844  1.2514
  345MOL0     H45494   4.729   9.695   4.459  2.3266 -1.4101 -0.0521
  345MOL0     H45495   4.717   9.848   4.549  0.7490 -0.0453 -1.0866
  345MOL0     H45496   4.744   9.562   4.656  1.3542  0.6340 -0.0755
  345MOL0     H45497   4.595   9.667   4.655  0.6507  1.1811 -1.3279
  345MOL0     H45498   4.855   9.713   4.804  1.4286  1.6193 -1.4961
  345MOL0     H45499   4.732   9.844   4.783 -2.4595  0.8071  3.3095
  345MOL0     H45500   4.638   9.594   4.891 -0.0459  0.4652  0.5209
  345MOL0     H45501   4.577   9.759   4.894 -0.9150 -0.9745 -0.2317
  345MOL0     H45502   4.898   9.628   5.215  0.0808 -0.2970 -1.1878
  345MOL0     H45503   4.811   9.527   5.422 -2.0250 -1.8642  0.7529
  345MOL0     H45504   4.780   9.471   5.786 -2.0491  1.7103 -0.9540
  345MOL0     H45505   4.723   9.379   6.015 -0.3261  2.1003 -1.0026
  345MOL0     H45506   4.408   9.043   6.041 -1.0791 -0.1534 -0.9279
  345MOL0     H45507   4.363   9.213   6.072 -1.7516 -1.8996 -0.0688
  345MOL0     H45508   4.490   9.172   6.301  0.1126 -0.4854  1.4872
  345MOL0     H45509   4.490   9.000   6.259  1.5946  1.5759  1.0995
  345MOL0     H45510   4.246   8.990   6.239  1.7871 -0.5624 -0.6019
  345MOL0     H45511   4.236   9.159   6.287 -1.7825 -0.8151  1.8942
  345MOL0     H45512   4.367   8.946   6.448  0.4343  0.6453 -1.1215
  345MOL0     H45513   4.336   9.097   6.526  0.2870 -0.5586  0.4918
  345MOL0     H45514   4.137   8.874   6.446  3.3605 -1.1930 -0.7123
  345MOL0     H45515   4.076   9.049   6.454  1.1513  2.1734  2.2958
  345MOL0     H45516   4.161   9.053   6.700  1.2411 -0.2247 -0.2491
  345MOL0     H45517   4.240   8.902   6.677  3.1120  3.5874  0.0311
  345MOL0     H45518   3.938   8.958   6.644 -0.2662  1.0609  2.7973
  345MOL0     H45519   4.007   8.792   6.641  1.2964 -0.8709  1.4592
  345MOL0     H45520   4.017   8.996   6.877  1.1064 -0.1345  0.8318
  345MOL0     H45521   4.084   8.840   6.885 -2.1883 -1.2563  0.5063
  345MOL0     H45522   4.434   9.130   5.822  0.5672 -0.0381 -1.5031
  345MOL0     H45523   4.479   9.231   5.611  0.5954 -0.9797 -0.2765
  345MOL0     H45524   4.400   9.601   5.305  0.6878 -0.2912 -0.4498
  345MOL0     H45525   4.479   9.685   5.097 -1.8855 -1.2326  0.8001
  345MOL0     H45526   4.705   9.316   5.024  0.2523 -2.4521 -1.1391
  345MOL0     H45527   4.479   9.224   5.086  0.6922 -0.1389 -0.5870
  345MOL0     H45528   4.165   9.122   5.336  0.0250 -0.2977 -0.8274
  345MOL0     H45529   3.960   9.093   5.438 -1.3136 -0.7093  3.2556
  345MOL0     H45530   3.950   8.762   5.762 -1.3514 -0.7224  1.8744
  345MOL0     H45531   3.826   8.730   5.648  0.9513 -0.7078  0.3611
  345MOL0     H45532   3.817   8.918   5.879 -0.1490  1.5718 -0.4074
  345MOL0     H45533   3.698   8.947   5.750  0.7832 -0.0995 -0.4913
  345MOL0     H45534   3.652   8.679   5.773 -0.1250  0.2745 -0.5338
  345MOL0     H45535   3.570   8.790   5.874 -1.1713 -3.3375  0.3733
  345MOL0     H45536   3.813   8.630   5.930  1.7772  0.0734  0.2707
  345MOL0     H45537   3.778   8.756   6.043  1.8287  0.0398 -0.0387
  345MOL0     H45538   3.469   8.462   6.118 -1.1255  0.1390  0.0684
  345MOL0     H45539   4.139   8.765   5.674  2.5616  0.5924 -0.3279
  345MOL0     H45540   4.330   8.787   5.559 -1.2757 -0.1485  0.1232
  346MOL0     O45541   6.037   8.117   5.041  0.1334  0.1450 -0.1618
  346MOL0     C45542   6.069   7.998   5.050  0.0176  0.5512 -0.1174
  346MOL0     O45543   5.990   7.901   5.107 -0.1412  0.3157 -0.5349
  346MOL0     C45544   5.868   7.939   5.154 -0.1576 -0.2214 -0.2738
  346MOL0     C45545   5.854   8.034   5.259 -0.6431  0.7382  0.3323
  346MOL0     C45546   5.731   8.074   5.303  0.2833 -0.9740  0.1983
  346MOL0     C45547   5.616   8.016   5.241 -0.3215 -0.1290 -1.1127
  346MOL0     O45548   5.492   8.056   5.293 -0.0776 -0.2609 -0.0618
  346MOL0     C45549   5.373   7.982   5.252 -0.0990  0.0338 -0.1213
  346MOL0     C45550   5.264   8.020   5.359  0.1280  0.2232 -0.4640
  346MOL0     C45551   5.135   7.943   5.340 -0.5043 -1.0603 -0.4902
  346MOL0     C45552   5.037   7.979   5.447 -0.2827  0.3138 -0.1757
  346MOL0     C45553   4.886   7.949   5.408  0.5629  0.4121  0.5478
  346MOL0     C45554   4.851   7.818   5.343 -0.7391 -0.3308 -0.0833
  346MOL0     C45555   4.707   7.778   5.344 -0.2982  0.0462  0.0484
  346MOL0     C45556   4.615   7.867   5.268 -0.7954 -0.0784 -1.5840
  346MOL0     N45557   4.482   7.804   5.255  0.7999  0.1935 -0.1402
  346MOL0     C45558   4.451   7.701   5.160 -0.3678 -0.5497 -0.5175
  346MOL0     C45559   4.322   7.656   5.192 -0.4087 -0.5027 -0.2137
  346MOL0     C45560   4.241   7.553   5.127 -0.3519  0.3658  1.0146
  346MOL0     C45561   4.175   7.609   5.004 -0.0774 -0.7283 -0.0853
  346MOL0     C45562   4.023   7.636   5.040 -0.7536  0.8424  0.0948
  346MOL0     C45563   3.939   7.677   4.922  0.3013  0.6545  0.2445
  346MOL0     O45564   3.806   7.708   4.956 -0.7113 -0.3192 -0.1981
  346MOL0     C45565   3.711   7.720   4.855 -0.1301 -0.2287  0.1682
  346MOL0     C45566   3.594   7.766   4.905  0.1675 -0.1017 -0.0863
  346MOL0     C45567   3.491   7.784   4.823 -0.0278  0.5615 -0.3878
  346MOL0     C45568   3.489   7.758   4.683 -0.0931  0.1057  0.4098
  346MOL0     C45569   3.369   7.796   4.603 -0.7291  0.0599 -0.7144
  346MOL0     O45570   3.261   7.848   4.672  0.0169  0.3052 -0.4446
  346MOL0     C45571   3.144   7.883   4.608  0.4136  0.9571  0.2294
  346MOL0     C45572   3.021   7.864   4.676  0.4235  0.2743  0.4642
  346MOL0     C45573   2.894   7.893   4.620 -0.2124 -0.3281  0.2766
  346MOL0     C45574   2.889   7.950   4.492  0.2315 -0.2523 -0.1606
  346MOL0     O45575   2.771   7.986   4.428  0.1966  0.2229 -0.4488
  346MOL0     C45576   2.637   7.966   4.483  0.4447  0.2578 -0.1280
  346MOL0     C45577   2.543   8.024   4.386  0.0580  1.0922  0.2113
  346MOL0     C45578   2.402   8.026   4.446 -0.5680  0.3477 -0.0502
  346MOL0     C45579   2.309   8.070   4.329  0.3736  0.6703  0.7881
  346MOL0     C45580   2.154   8.056   4.358  0.9365 -0.5404  0.7801
  346MOL0     C45581   2.068   8.089   4.235  0.2960 -0.2479  0.4425
  346MOL0     C45582   2.039   8.244   4.224  0.4008  0.3707 -0.0899
  346MOL0     C45583   1.952   8.271   4.106 -0.4409  1.1438  0.0518
  346MOL0    Cl45584   1.804   8.182   4.137  0.8346  0.1770  0.0053
  346MOL0     C45585   3.004   7.974   4.426 -0.6365  0.0229 -0.5354
  346MOL0     C45586   3.128   7.939   4.477  0.5432  0.2823  0.3875
  346MOL0     O45587   3.375   7.772   4.485 -0.5049 -0.2613  0.5618
  346MOL0     C45588   3.605   7.700   4.633  0.3252 -0.2430 -0.0694
  346MOL0     C45589   3.710   7.669   4.719 -0.7438 -0.2056 -0.1711
  346MOL0     N45590   4.278   7.720   5.306 -0.1768  0.1262  0.6742
  346MOL0     N45591   4.374   7.796   5.342  0.1069 -0.1364 -0.0562
  346MOL0     C45592   5.628   7.924   5.137  0.4601  0.0883 -0.7189
  346MOL0     C45593   5.753   7.882   5.102  0.1782 -0.7661 -0.1386
  346MOL0     C45594   6.203   7.956   5.002 -0.3067 -0.6097  0.0801
  346MOL0     C45595   6.267   7.837   5.036  0.4289 -0.2039  0.3578
  346MOL0     C45596   6.396   7.804   4.997 -0.2022 -0.1652  1.0820
  346MOL0     C45597   6.470   7.887   4.911 -0.0834  0.8794 -0.8258
  346MOL0     O45598   6.589   7.868   4.850 -0.1199 -0.2266  0.1493
  346MOL0     C45599   6.671   7.768   4.897 -0.5781 -0.2545  1.7575
  346MOL0     C45600   6.667   7.632   4.822 -0.4581  0.1976  0.1375
  346MOL0     C45601   6.722   7.643   4.676  0.5485 -0.6923 -0.7634
  346MOL0     C45602   6.871   7.681   4.670 -0.3149  0.0908  0.2912
  346MOL0     C45603   6.910   7.673   4.533 -0.7946  0.1032  0.4199
  346MOL0     C45604   6.957   7.677   4.420 -0.4789 -0.2787  0.0370
  346MOL0     C45605   6.405   8.006   4.870 -0.5106  0.6714 -0.0438
  346MOL0     C45606   6.278   8.039   4.919 -0.4492 -0.4770  0.4053
  346MOL0     H45607   5.942   8.080   5.304 -0.5550 -1.1675  2.2833
  346MOL0     H45608   5.732   8.138   5.391  2.1387  0.6221 -0.9107
  346MOL0     H45609   5.398   7.876   5.259 -1.8970 -0.3265  1.6710
  346MOL0     H45610   5.344   8.005   5.149 -2.0810 -0.1135  0.3736
  346MOL0     H45611   5.235   8.125   5.366  1.1461  0.4337  1.1869
  346MOL0     H45612   5.303   8.008   5.461 -1.3209  0.8881  0.1882
  346MOL0     H45613   5.143   7.835   5.348 -2.0267 -1.3333 -2.0640
  346MOL0     H45614   5.104   7.968   5.238  0.8138 -3.9081 -1.7027
  346MOL0     H45615   5.058   7.919   5.537 -1.2599  3.2850  2.1923
  346MOL0     H45616   5.053   8.083   5.477 -0.2474  0.4033 -0.5039
  346MOL0     H45617   4.854   8.034   5.347  2.1001  0.0699 -0.8165
  346MOL0     H45618   4.832   7.964   5.502  0.7327 -2.6621  1.2408
  346MOL0     H45619   4.905   7.738   5.394  2.1529  0.5380 -1.5316
  346MOL0     H45620   4.897   7.820   5.244 -0.9293  1.7085 -0.1862
  346MOL0     H45621   4.701   7.679   5.299 -3.3501 -1.5523  3.4564
  346MOL0     H45622   4.680   7.777   5.450 -0.5721  0.3632 -0.0164
  346MOL0     H45623   4.655   7.899   5.171 -0.1436  1.1531 -0.9289
  346MOL0     H45624   4.587   7.951   5.331 -0.8452 -1.0258 -0.3081
  346MOL0     H45625   4.511   7.669   5.075  1.1026 -1.3526  0.7552
  346MOL0     H45626   4.172   7.512   5.201 -2.0697  1.6749  0.2015
  346MOL0     H45627   4.303   7.471   5.088  1.6235  2.7392 -1.1811
  346MOL0     H45628   4.177   7.545   4.916  3.4017  0.4697 -1.0114
  346MOL0     H45629   4.223   7.702   4.972  0.9767 -0.5651  1.8371
  346MOL0     H45630   3.969   7.548   5.075 -1.5914  0.2178 -2.5419
  346MOL0     H45631   4.012   7.711   5.120 -2.7973 -0.5129  1.1612
  346MOL0     H45632   3.934   7.592   4.853 -0.5665  0.8204  0.0939
  346MOL0     H45633   3.972   7.763   4.862 -2.5236  1.1329 -0.7556
  346MOL0     H45634   3.592   7.789   5.011  1.5598 -0.0839 -0.0455
  346MOL0     H45635   3.412   7.842   4.870  1.3374  2.2386 -0.0347
  346MOL0     H45636   3.030   7.837   4.780 -0.4000  0.8800  0.6996
  346MOL0     H45637   2.811   7.893   4.690 -1.1615  2.3312 -0.6837
  346MOL0     H45638   2.627   8.003   4.585 -0.3976 -0.0823 -0.0776
  346MOL0     H45639   2.622   7.858   4.493 -0.9093  0.4227 -0.2701
  346MOL0     H45640   2.541   7.960   4.297  2.2289  1.3702 -0.0965
  346MOL0     H45641   2.575   8.123   4.354 -0.2116  1.2623  0.4712
  346MOL0     H45642   2.382   8.098   4.526  5.2464  1.3525  0.9368
  346MOL0     H45643   2.381   7.923   4.477  1.4169  0.0261  0.3177
  346MOL0     H45644   2.321   8.176   4.309 -0.6765  0.5925 -0.3578
  346MOL0     H45645   2.337   8.013   4.239  1.1600 -1.6933  2.4138
  346MOL0     H45646   2.126   8.124   4.439  0.5100  1.6824 -1.1348
  346MOL0     H45647   2.146   7.954   4.395 -1.3381  0.1403  2.3591
  346MOL0     H45648   1.976   8.031   4.247  1.9255 -2.8984  0.6890
  346MOL0     H45649   2.121   8.063   4.143 -0.8964 -0.8349 -0.1069
  346MOL0     H45650   1.992   8.285   4.314  0.7144  3.7744 -1.3050
  346MOL0     H45651   2.135   8.292   4.206  1.2317 -0.0710  2.6555
  346MOL0     H45652   1.993   8.229   4.013  0.1235  0.7907  0.4528
  346MOL0     H45653   1.942   8.380   4.094 -2.2909  0.7796 -2.3693
  346MOL0     H45654   2.992   8.016   4.326  0.0439  0.4408 -0.4481
  346MOL0     H45655   3.206   7.962   4.405 -0.6167 -0.2046 -1.0770
  346MOL0     H45656   3.601   7.681   4.527 -3.6172  2.9296 -0.7324
  346MOL0     H45657   3.800   7.629   4.674  0.7806 -0.3672  2.7684
  346MOL0     H45658   5.542   7.886   5.083  1.4947 -1.6756 -1.2213
  346MOL0     H45659   5.764   7.806   5.025  1.7058 -2.6777  1.8510
  346MOL0     H45660   6.209   7.760   5.086 -2.6944  2.2388  0.8293
  346MOL0     H45661   6.425   7.705   5.031 -1.2932 -0.6511  0.6722
  346MOL0     H45662   6.659   7.750   5.005  0.4879 -2.4127  1.5683
  346MOL0     H45663   6.770   7.813   4.897 -0.8840  0.4400  0.9713
  346MOL0     H45664   6.735   7.563   4.874  0.1153 -0.7118 -1.7103
  346MOL0     H45665   6.564   7.601   4.838 -0.8981 -0.1399 -2.8185
  346MOL0     H45666   6.663   7.711   4.614  1.9205  2.4940  1.1814
  346MOL0     H45667   6.711   7.551   4.619 -1.9393 -0.3950 -0.8698
  346MOL0     H45668   6.901   7.776   4.715 -2.5980  0.5924  0.8965
  346MOL0     H45669   6.926   7.605   4.726  0.4161  0.9979  0.8338
  346MOL0     H45670   6.996   7.686   4.320  1.2830  0.7731  0.7589
  346MOL0     H45671   6.460   8.075   4.805  2.4958  1.4458  3.0289
  346MOL0     H45672   6.243   8.140   4.899  1.0307 -0.3970 -2.2670
  347MOL0     O45673   5.739   9.083   9.026  0.3604  0.7476 -0.9244
  347MOL0     C45674   5.846   9.142   9.060 -0.0434  0.2856  0.0796
  347MOL0     O45675   5.852   9.252   9.139  0.1476 -0.3453  0.1926
  347MOL0     C45676   5.744   9.323   9.185 -0.3163  0.5058 -0.1432
  347MOL0     C45677   5.783   9.452   9.213  0.2933  0.2340 -0.0434
  347MOL0     C45678   5.700   9.537   9.282 -0.2752  0.0799 -0.7513
  347MOL0     C45679   5.571   9.497   9.320  0.3365 -0.3615  0.2608
  347MOL0     O45680   5.486   9.586   9.372  0.6305  0.5042  1.0121
  347MOL0     C45681   5.411   9.554   9.498  0.1838 -0.3617  0.0940
  347MOL0     C45682   5.274   9.604   9.471  0.1735  0.7046 -0.0004
  347MOL0     C45683   5.185   9.582   9.590 -0.4762  0.8025 -0.8733
  347MOL0     C45684   5.037   9.598   9.537 -0.1914 -0.2680  0.7987
  347MOL0     C45685   4.948   9.602   9.657  0.4912  1.0611 -0.8359
  347MOL0     C45686   4.809   9.640   9.612  0.7458 -0.2685 -0.0543
  347MOL0     C45687   4.697   9.626   9.712 -0.7052  0.4500  0.2581
  347MOL0     C45688   4.561   9.615   9.642  0.2353  0.3547 -0.8740
  347MOL0     N45689   4.455   9.637   9.746  0.3340  0.0107 -0.5019
  347MOL0     C45690   4.410   9.752   9.799 -0.0514 -0.1135  0.4613
  347MOL0     C45691   4.364   9.734   9.916  0.1863  0.0923 -0.6294
  347MOL0     C45692   4.301   9.821  10.019  0.7109 -0.1067 -0.3247
  347MOL0     C45693   4.162   9.775  10.043 -0.0743 -1.0950 -0.4781
  347MOL0     C45694   4.080   9.863  10.145 -0.7684 -0.6734 -1.1625
  347MOL0     C45695   4.081   9.781  10.275 -0.3868 -0.5576 -0.9752
  347MOL0     O45696   3.989   9.675  10.260  0.4336 -0.5520  0.5182
  347MOL0     C45697   3.861   9.695  10.300 -0.6088  0.0294  0.0580
  347MOL0     C45698   3.803   9.827  10.319 -0.7156  0.1070  0.6822
  347MOL0     C45699   3.672   9.832  10.353  0.2686 -1.1544 -0.5981
  347MOL0     C45700   3.593   9.720  10.394 -0.6087 -0.2490  0.4637
  347MOL0     C45701   3.461   9.748  10.444 -1.0185  0.4960  0.0013
  347MOL0     O45702   3.406   9.646  10.520 -0.2210 -0.2781 -0.9794
  347MOL0     C45703   3.271   9.645  10.541  0.5231 -0.1298  0.1552
  347MOL0     C45704   3.230   9.588  10.659 -0.2812 -0.1958  0.3264
  347MOL0     C45705   3.100   9.586  10.690  0.4087  0.0234 -0.8451
  347MOL0     C45706   2.999   9.632  10.608 -0.1667 -0.1626  0.2351
  347MOL0     O45707   2.859   9.634  10.646 -0.3673  0.3337 -0.4405
  347MOL0     C45708   2.762   9.613  10.550 -0.8829 -0.8623  0.3512
  347MOL0     C45709   2.618   9.602  10.593  0.1132 -0.6166  0.3932
  347MOL0     C45710   2.523   9.605  10.472  0.1965  0.4097 -0.3121
  347MOL0     C45711   2.375   9.578  10.511 -0.7115 -0.2839  0.3132
  347MOL0     C45712   2.293   9.575  10.386 -0.3509  0.0865  0.0172
  347MOL0     C45713   2.275   9.702  10.302 -0.1121  0.3735  0.5790
  347MOL0     C45714   2.235   9.819  10.395 -0.4712 -0.3879  0.3106
  347MOL0     C45715   2.152   9.918  10.323 -0.6421  0.4215  0.1472
  347MOL0    Cl45716   2.004   9.835  10.266  0.3491 -0.1819  0.1934
  347MOL0     C45717   3.036   9.682  10.479 -0.3080  0.9029 -0.6379
  347MOL0     C45718   3.171   9.689  10.445  0.3766  0.4549 -0.2237
  347MOL0     O45719   3.410   9.859  10.417 -0.4516  0.1199  0.3587
  347MOL0     C45720   3.652   9.591  10.370  0.2668 -1.0312 -0.1755
  347MOL0     C45721   3.783   9.585  10.323 -0.5604  0.3512 -0.1846
  347MOL0     N45722   4.374   9.598   9.940  0.3839  0.9181 -0.0694
  347MOL0     N45723   4.430   9.545   9.834  0.5848  0.1805 -0.3502
  347MOL0     C45724   5.524   9.370   9.274 -0.6866 -0.7496  0.2353
  347MOL0     C45725   5.616   9.286   9.205 -0.1748  0.8172  0.0542
  347MOL0     C45726   5.974   9.094   9.002 -0.5591  0.5198 -0.2527
  347MOL0     C45727   5.975   8.986   8.910 -0.1731  1.1848 -0.8058
  347MOL0     C45728   6.092   8.937   8.850  0.5621  0.5898 -0.3385
  347MOL0     C45729   6.223   8.980   8.905  0.8205 -0.2076  0.0367
  347MOL0     O45730   6.339   8.928   8.850  0.6507 -0.2384 -0.6858
  347MOL0     C45731   6.455   8.940   8.935 -0.2720  0.1811 -0.1467
  347MOL0     C45732   6.580   8.891   8.871  0.7496 -0.1995  0.4536
  347MOL0     C45733   6.634   8.993   8.766  0.0178 -0.7055  0.1332
  347MOL0     C45734   6.770   8.951   8.709  0.6103  0.5013  0.3024
  347MOL0     C45735   6.796   8.803   8.680  0.4209 -0.8923 -0.8393
  347MOL0     C45736   6.814   8.681   8.674 -0.5840 -0.5128 -0.6049
  347MOL0     C45737   6.217   9.087   8.996 -0.4587 -0.0546 -1.1824
  347MOL0     C45738   6.098   9.139   9.051 -0.4442 -0.2943  0.0798
  347MOL0     H45739   5.877   9.485   9.172  1.7778  0.3101  3.1349
  347MOL0     H45740   5.731   9.638   9.305 -0.0148  0.1981 -1.5745
  347MOL0     H45741   5.452   9.600   9.589 -3.0861 -1.2038  2.1809
  347MOL0     H45742   5.414   9.445   9.504 -0.0173 -0.4445 -1.0422
  347MOL0     H45743   5.227   9.549   9.389 -1.6369  1.4013  0.5265
  347MOL0     H45744   5.277   9.711   9.448  0.7591  0.9237  1.0031
  347MOL0     H45745   5.212   9.654   9.668 -1.6702 -0.5420  0.8697
  347MOL0     H45746   5.202   9.477   9.618  3.9788  1.7391  0.8129
  347MOL0     H45747   5.028   9.689   9.477 -1.9896 -2.1894 -2.0727
  347MOL0     H45748   5.019   9.512   9.472 -1.1822  1.2640 -1.0549
  347MOL0     H45749   4.989   9.670   9.732  0.1705  0.9925 -0.5984
  347MOL0     H45750   4.949   9.511   9.717  1.0994  2.1167  0.8546
  347MOL0     H45751   4.783   9.576   9.527 -0.3525 -0.0189  0.0812
  347MOL0     H45752   4.802   9.744   9.577 -0.0452 -0.4766 -0.5438
  347MOL0     H45753   4.717   9.524   9.745  0.6802  0.2000 -1.1808
  347MOL0     H45754   4.714   9.708   9.783 -0.8839  0.0532  0.7626
  347MOL0     H45755   4.545   9.513   9.604 -0.7915 -0.5080  1.7009
  347MOL0     H45756   4.545   9.688   9.562  1.2678 -1.3549 -2.7380
  347MOL0     H45757   4.400   9.851   9.755  1.8300 -0.0380  0.1443
  347MOL0     H45758   4.300   9.922   9.977 -0.7371  0.6004  1.2984
  347MOL0     H45759   4.350   9.815  10.116 -1.8219 -1.2804  0.9816
  347MOL0     H45760   4.147   9.676  10.087 -0.0624 -0.1393  1.7679
  347MOL0     H45761   4.120   9.784   9.942 -0.4820 -0.6612 -0.2690
  347MOL0     H45762   4.108   9.967  10.163 -1.8526 -0.5775  0.2464
  347MOL0     H45763   3.974   9.873  10.117  0.0710  1.1690 -4.0455
  347MOL0     H45764   4.050   9.843  10.360  1.3977  0.9628 -1.3874
  347MOL0     H45765   4.178   9.739  10.302  1.3416  3.1813 -0.7732
  347MOL0     H45766   3.861   9.917  10.302 -0.8462  0.0466 -0.1241
  347MOL0     H45767   3.625   9.930  10.356 -0.3161 -1.4450  0.2367
  347MOL0     H45768   3.302   9.533  10.718  1.6000  2.1941  0.4283
  347MOL0     H45769   3.079   9.532  10.782  0.7515  1.4953  0.1237
  347MOL0     H45770   2.790   9.519  10.502  1.8050 -1.3148  2.5673
  347MOL0     H45771   2.760   9.694  10.477 -0.2996 -1.8821 -0.8226
  347MOL0     H45772   2.592   9.679  10.667 -1.5150  0.9387 -1.6390
  347MOL0     H45773   2.598   9.504  10.636 -1.2038 -0.2880  0.5932
  347MOL0     H45774   2.554   9.530  10.399  0.3728  1.4146 -1.2972
  347MOL0     H45775   2.544   9.693  10.410  1.7455  1.4492  1.5371
  347MOL0     H45776   2.357   9.493  10.577 -1.8913  1.1925  2.0231
  347MOL0     H45777   2.353   9.672  10.563  0.2865  1.0189 -1.5210
  347MOL0     H45778   2.192   9.548  10.418  0.4047 -2.1742  0.6723
  347MOL0     H45779   2.317   9.490  10.321 -0.1015  0.2039 -0.0456
  347MOL0     H45780   2.192   9.672  10.237  1.1671  1.0795 -1.4966
  347MOL0     H45781   2.358   9.711  10.231  1.3078 -3.6144  1.4926
  347MOL0     H45782   2.178   9.774  10.477 -0.6716 -1.5508 -0.4401
  347MOL0     H45783   2.321   9.876  10.432 -0.8322  2.0920 -2.3429
  347MOL0     H45784   2.196   9.965  10.235 -0.4854 -0.9440 -0.5256
  347MOL0     H45785   2.131   9.998  10.395  2.0655 -0.9713  2.6946
  347MOL0     H45786   2.967   9.720  10.405 -2.6898 -3.1075 -0.7929
  347MOL0     H45787   3.199   9.706  10.342  2.4175 -2.7586 -0.3516
  347MOL0     H45788   3.601   9.499  10.397  1.4114 -1.6764 -0.1510
  347MOL0     H45789   3.839   9.492  10.318  0.5351  0.7061  3.0769
  347MOL0     H45790   5.418   9.350   9.278 -0.7297 -0.5599  0.0956
  347MOL0     H45791   5.600   9.184   9.171  1.7833 -0.4134  2.5231
  347MOL0     H45792   5.882   8.956   8.864  0.3948 -0.6609 -0.8312
  347MOL0     H45793   6.091   8.875   8.761 -0.6262  1.3127 -0.8476
  347MOL0     H45794   6.449   8.898   9.035 -0.6231  3.2882  1.2582
  347MOL0     H45795   6.477   9.046   8.954 -1.8479  1.0300 -2.5617
  347MOL0     H45796   6.651   8.877   8.954 -0.1196  0.6117  1.3694
  347MOL0     H45797   6.557   8.793   8.828  2.5699 -0.0590 -0.9861
  347MOL0     H45798   6.655   9.091   8.809  1.7503 -0.9045 -0.1948
  347MOL0     H45799   6.556   8.995   8.689  0.7220  5.1343 -0.9136
  347MOL0     H45800   6.782   8.998   8.611 -1.1076  0.0616 -0.1447
  347MOL0     H45801   6.852   8.985   8.774  0.3556 -2.0184  2.0785
  347MOL0     H45802   6.816   8.574   8.673  1.4786 -0.5371  0.3310
  347MOL0     H45803   6.308   9.134   9.031 -1.1997  0.6034 -0.0878
  347MOL0     H45804   6.095   9.214   9.130 -1.6992  0.4426 -0.6405
  348MOL0     O45805   7.632   8.421   0.843 -0.1205  1.2309  0.1930
  348MOL0     C45806   7.650   8.320   0.773 -0.4909 -0.4202  0.0728
  348MOL0     O45807   7.554   8.238   0.717  0.5137 -0.5732 -0.1495
  348MOL0     C45808   7.416   8.248   0.726  0.9546 -0.6030 -0.8079
  348MOL0     C45809   7.354   8.364   0.782 -0.5519  0.9136 -0.8538
  348MOL0     C45810   7.211   8.367   0.788  0.6281 -0.0104 -0.3903
  348MOL0     C45811   7.128   8.265   0.744 -0.1590 -0.4424 -0.1901
  348MOL0     O45812   6.984   8.285   0.752  0.3324  0.2725  0.0856
  348MOL0     C45813   6.900   8.197   0.674 -0.3494 -0.6924  0.6709
  348MOL0     C45814   6.769   8.256   0.627  0.3781 -0.9568  0.0569
  348MOL0     C45815   6.679   8.150   0.560  0.2100  0.2416  0.4630
  348MOL0     C45816   6.600   8.056   0.656 -0.2717  0.1021 -0.4466
  348MOL0     C45817   6.516   7.953   0.571 -0.7598  0.2791  0.0904
  348MOL0     C45818   6.387   8.000   0.496 -0.6516 -0.2140  0.1576
  348MOL0     C45819   6.294   8.087   0.582  0.0282 -0.0422 -0.6488
  348MOL0     C45820   6.150   8.101   0.528  0.0311  0.0133  0.7243
  348MOL0     N45821   6.079   8.208   0.607  0.0845  0.2716 -1.0709
  348MOL0     C45822   6.024   8.323   0.566  0.0611  0.2465  0.2077
  348MOL0     C45823   5.975   8.383   0.679  0.6234  0.1626 -0.4131
  348MOL0     C45824   5.912   8.519   0.682  0.5192  0.0947  0.1745
  348MOL0     C45825   5.758   8.521   0.666 -1.3774  0.4192  0.1988
  348MOL0     C45826   5.696   8.592   0.783 -0.5641 -0.2508 -0.0921
  348MOL0     C45827   5.544   8.598   0.751  0.0877  0.6249 -0.5140
  348MOL0     O45828   5.483   8.657   0.861  0.1486 -0.3822  0.5108
  348MOL0     C45829   5.344   8.667   0.859  0.0292 -0.3998 -0.3730
  348MOL0     C45830   5.293   8.678   0.989 -0.2564  0.2438  0.4460
  348MOL0     C45831   5.157   8.695   1.010 -0.5397 -0.1063  0.3990
  348MOL0     C45832   5.065   8.691   0.897 -0.4654 -0.1331  1.0085
  348MOL0     C45833   4.921   8.696   0.911 -0.1165  0.4754  0.0541
  348MOL0     O45834   4.856   8.674   1.028  0.0925  0.0970 -0.4348
  348MOL0     C45835   4.715   8.681   1.024 -0.2910  0.3566  0.1078
  348MOL0     C45836   4.636   8.578   0.988 -0.7770 -0.1242 -0.5936
  348MOL0     C45837   4.499   8.589   0.965 -0.3255 -0.8776  0.6312
  348MOL0     C45838   4.435   8.716   0.997  1.0601  0.2314  0.1600
  348MOL0     O45839   4.302   8.735   0.982  0.0305  0.2640 -0.4564
  348MOL0     C45840   4.207   8.637   0.997  0.1143 -0.9676 -0.3275
  348MOL0     C45841   4.161   8.587   0.860 -0.5555 -0.3978 -0.6317
  348MOL0     C45842   4.064   8.471   0.882 -0.7896 -0.0370  0.0600
  348MOL0     C45843   4.001   8.423   0.746  0.0384 -0.0017 -0.1230
  348MOL0     C45844   3.911   8.293   0.760 -1.0277  0.1924  0.4468
  348MOL0     C45845   3.992   8.166   0.805  0.6666 -0.3683 -0.4092
  348MOL0     C45846   4.123   8.140   0.731  0.5686 -0.4275  0.2145
  348MOL0     C45847   4.185   8.012   0.786 -0.0193  0.0094 -1.0300
  348MOL0    Cl45848   4.316   7.962   0.677 -0.1481 -0.3808  0.4201
  348MOL0     C45849   4.513   8.816   1.043  0.7171  0.1396 -0.0698
  348MOL0     C45850   4.645   8.802   1.042 -0.7551 -0.0178  0.4659
  348MOL0     O45851   4.859   8.711   0.805  0.4926  0.2243 -0.7372
  348MOL0     C45852   5.125   8.682   0.768  0.1402  0.1700 -0.2512
  348MOL0     C45853   5.259   8.674   0.748 -0.3287  0.0527 -1.3313
  348MOL0     N45854   5.998   8.292   0.781  0.3363 -0.0232  0.0166
  348MOL0     N45855   6.052   8.181   0.734 -0.3011 -0.0248 -0.4129
  348MOL0     C45856   7.197   8.154   0.689  0.1603  0.5064 -0.2349
  348MOL0     C45857   7.335   8.141   0.682 -0.8910 -0.4158 -0.4892
  348MOL0     C45858   7.791   8.311   0.720  0.2414  0.7752  0.3113
  348MOL0     C45859   7.891   8.402   0.752 -0.2178  0.5392 -0.3663
  348MOL0     C45860   8.022   8.386   0.717 -1.5548  0.0707 -0.7014
  348MOL0     C45861   8.064   8.278   0.634 -0.4857  1.3489  0.6126
  348MOL0     O45862   8.194   8.259   0.587 -0.2202  0.3801 -0.4201
  348MOL0     C45863   8.313   8.314   0.655  0.0684  0.6044 -0.6400
  348MOL0     C45864   8.431   8.243   0.593  0.1429  1.1646 -0.6045
  348MOL0     C45865   8.562   8.281   0.665  0.1135  0.2237  0.5144
  348MOL0     C45866   8.672   8.180   0.622 -0.4456 -0.3493 -0.1239
  348MOL0     C45867   8.807   8.224   0.664  0.5918  0.4400  0.1195
  348MOL0     C45868   8.914   8.266   0.701  0.0759 -0.6851  0.1000
  348MOL0     C45869   7.969   8.183   0.593  0.2939  0.7251 -0.0596
  348MOL0     C45870   7.833   8.205   0.634 -0.1475  0.6793  0.1668
  348MOL0     H45871   7.408   8.456   0.803 -0.0589  0.1511  1.5328
  348MOL0     H45872   7.155   8.455   0.818  0.1809  0.1075 -1.5305
  348MOL0     H45873   6.883   8.105   0.732 -2.3875 -0.3160  0.7343
  348MOL0     H45874   6.945   8.164   0.580 -2.0256 -1.8434  0.2356
  348MOL0     H45875   6.779   8.340   0.558 -3.3024 -0.3586  0.0523
  348MOL0     H45876   6.717   8.290   0.717 -1.0603 -1.2153 -0.6528
  348MOL0     H45877   6.732   8.089   0.487 -1.9157 -0.2186 -0.8009
  348MOL0     H45878   6.592   8.196   0.512  0.2534 -0.6927 -0.5407
  348MOL0     H45879   6.675   8.003   0.716 -1.1626 -1.3458 -0.5578
  348MOL0     H45880   6.532   8.110   0.721  0.5506 -1.5072  1.9122
  348MOL0     H45881   6.493   7.870   0.638 -2.5462 -2.4642 -3.5809
  348MOL0     H45882   6.582   7.905   0.499 -1.8498 -1.4520  0.1873
  348MOL0     H45883   6.336   7.906   0.470  3.5628 -2.9378  0.7338
  348MOL0     H45884   6.408   8.059   0.406 -1.0943 -0.3897 -0.0648
  348MOL0     H45885   6.303   8.042   0.681  2.4282 -1.0087 -1.2278
  348MOL0     H45886   6.342   8.183   0.602  0.8273 -1.0433  2.7936
  348MOL0     H45887   6.093   8.009   0.541  1.0051 -1.3601 -3.2745
  348MOL0     H45888   6.159   8.131   0.423  1.8174 -2.5349  0.0579
  348MOL0     H45889   6.019   8.361   0.464  4.1672  0.2409 -0.1297
  348MOL0     H45890   5.955   8.584   0.605  0.4195  1.5782  1.3357
  348MOL0     H45891   5.944   8.562   0.777 -0.8804  1.3865  0.1005
  348MOL0     H45892   5.718   8.419   0.661 -2.7359  0.9533 -0.1647
  348MOL0     H45893   5.727   8.569   0.573  0.6767  0.0231 -0.7601
  348MOL0     H45894   5.711   8.535   0.875 -2.2500 -0.5046  0.0577
  348MOL0     H45895   5.733   8.694   0.793 -0.4414  0.0366 -2.6651
  348MOL0     H45896   5.505   8.496   0.754 -1.7975  1.3397  0.9478
  348MOL0     H45897   5.534   8.650   0.656 -0.9322  2.1388  0.3855
  348MOL0     H45898   5.366   8.687   1.070  1.0728  2.1278 -0.8579
  348MOL0     H45899   5.117   8.683   1.110 -1.6020 -2.7715 -0.2579
  348MOL0     H45900   4.680   8.481   0.965  0.6599  0.6547 -1.2287
  348MOL0     H45901   4.449   8.498   0.934 -0.5748 -1.5072  2.7084
  348MOL0     H45902   4.120   8.680   1.048 -0.7223 -1.5167 -1.2758
  348MOL0     H45903   4.246   8.551   1.053  0.6211  0.5066  1.7274
  348MOL0     H45904   4.245   8.561   0.796  1.9254  2.2530  1.2690
  348MOL0     H45905   4.101   8.665   0.811 -0.9702  0.8535  1.6611
  348MOL0     H45906   3.985   8.503   0.952  0.9090 -0.7897  2.4616
  348MOL0     H45907   4.114   8.385   0.928  0.0074  0.5220  0.2540
  348MOL0     H45908   3.933   8.499   0.707  2.1237  1.1121 -1.8081
  348MOL0     H45909   4.085   8.398   0.680 -1.1586  0.6933 -1.9741
  348MOL0     H45910   3.874   8.277   0.658  1.7083 -1.7795 -0.3644
  348MOL0     H45911   3.825   8.308   0.826 -0.5284  0.3352  1.0720
  348MOL0     H45912   3.934   8.074   0.789  1.6727 -1.1415  0.3196
  348MOL0     H45913   4.002   8.182   0.913 -0.1861 -1.1128 -0.2058
  348MOL0     H45914   4.099   8.127   0.625  2.1339 -0.4123 -0.1707
  348MOL0     H45915   4.192   8.225   0.739  0.1134  0.1912 -1.9400
  348MOL0     H45916   4.110   7.934   0.801  0.5466 -0.6368 -1.4910
  348MOL0     H45917   4.236   8.022   0.883  1.5312  0.7651 -1.8756
  348MOL0     H45918   4.471   8.911   1.073  1.1749 -0.3344  2.2767
  348MOL0     H45919   4.707   8.883   1.078  1.8012 -0.5602 -2.3225
  348MOL0     H45920   5.065   8.675   0.678  2.5294  1.8085 -2.0962
  348MOL0     H45921   5.307   8.666   0.651 -0.5395 -0.1499 -1.4202
  348MOL0     H45922   7.141   8.069   0.650 -0.7122 -1.2640  4.2727
  348MOL0     H45923   7.366   8.048   0.637  0.5031 -2.0931  3.4723
  348MOL0     H45924   7.863   8.484   0.816 -0.1269  0.4734 -0.2416
  348MOL0     H45925   8.087   8.468   0.747 -1.5179 -1.1314  2.9978
  348MOL0     H45926   8.311   8.294   0.762 -0.4549  1.8409 -0.4044
  348MOL0     H45927   8.325   8.422   0.643 -0.3841  0.6644 -0.5832
  348MOL0     H45928   8.416   8.135   0.605  0.0059  1.1417 -0.9829
  348MOL0     H45929   8.443   8.252   0.485  1.9105  1.0802 -0.4326
  348MOL0     H45930   8.550   8.278   0.774 -0.5090 -0.2882  0.4316
  348MOL0     H45931   8.590   8.383   0.636  0.9142  0.0828  0.7536
  348MOL0     H45932   8.648   8.081   0.663 -1.2632 -1.7945 -3.7097
  348MOL0     H45933   8.686   8.176   0.514  0.5935  0.6419 -0.0393
  348MOL0     H45934   9.006   8.313   0.726 -0.6806  1.8658 -1.5900
  348MOL0     H45935   7.998   8.107   0.522 -0.5763  0.5842 -0.2725
  348MOL0     H45936   7.760   8.134   0.597  0.5478  0.1880 -0.2831
  349MOL0     O45937   8.862   4.568   6.645 -0.0484  0.2728 -0.1670
  349MOL0     C45938   8.920   4.515   6.736 -0.8509  0.5669  0.4930
  349MOL0     O45939   8.867   4.438   6.836  0.4255 -0.4116 -0.3110
  349MOL0     C45940   8.733   4.416   6.843 -0.2745 -0.1453 -0.4277
  349MOL0     C45941   8.692   4.298   6.894 -0.5518  0.0341 -0.4892
  349MOL0     C45942   8.556   4.282   6.926 -0.8031  0.8154  0.4398
  349MOL0     C45943   8.465   4.386   6.908  0.7842 -0.8239 -1.2674
  349MOL0     O45944   8.332   4.377   6.934 -0.1377 -0.3255  0.1706
  349MOL0     C45945   8.274   4.253   6.991  0.1336  1.1508  0.4984
  349MOL0     C45946   8.126   4.241   6.956 -0.4625 -0.2545  0.3557
  349MOL0     C45947   8.040   4.359   7.012  0.5739 -0.2893  0.1521
  349MOL0     C45948   7.886   4.335   7.004  0.3083 -0.3987  0.1371
  349MOL0     C45949   7.842   4.223   7.104  0.5841  0.2269  0.4655
  349MOL0     C45950   7.690   4.226   7.102  0.4496 -0.2860  0.2749
  349MOL0     C45951   7.643   4.121   7.210  0.3721  0.5701 -0.1445
  349MOL0     C45952   7.514   4.152   7.286  0.3259  0.0644 -0.4152
  349MOL0     N45953   7.407   4.218   7.204 -0.0877  0.1960 -0.4122
  349MOL0     C45954   7.340   4.161   7.099 -0.1159 -1.1172  0.1062
  349MOL0     C45955   7.237   4.242   7.068 -0.6314 -0.9120 -0.2144
  349MOL0     C45956   7.125   4.208   6.966 -0.3670  0.1958  0.3116
  349MOL0     C45957   6.996   4.290   6.995  0.1010  0.6110  0.0133
  349MOL0     C45958   6.883   4.265   6.895 -0.4541  0.5836  0.7062
  349MOL0     C45959   6.752   4.350   6.918 -1.5423 -0.0566 -0.7140
  349MOL0     O45960   6.711   4.349   7.050  0.7502  0.3033 -0.2196
  349MOL0     C45961   6.590   4.403   7.088 -0.3337  0.1255  0.5345
  349MOL0     C45962   6.477   4.408   7.008  0.2500 -1.3076 -0.3946
  349MOL0     C45963   6.363   4.477   7.051 -0.5287 -0.3252  0.0244
  349MOL0     C45964   6.352   4.516   7.185 -0.2128 -0.1229 -0.4164
  349MOL0     C45965   6.231   4.587   7.233  0.4141  0.0004  0.5023
  349MOL0     O45966   6.136   4.587   7.141 -0.8930 -0.0504  0.0230
  349MOL0     C45967   6.026   4.673   7.152  0.7682  0.1838  0.4253
  349MOL0     C45968   5.917   4.639   7.064 -0.1181  0.3417 -0.1415
  349MOL0     C45969   5.804   4.720   7.044  0.3560  0.0868 -0.4009
  349MOL0     C45970   5.790   4.835   7.136 -0.1408 -0.5822 -0.2677
  349MOL0     O45971   5.686   4.915   7.131 -0.2994 -0.4123  0.0931
  349MOL0     C45972   5.578   4.856   7.195  0.2962  0.1271  0.0063
  349MOL0     C45973   5.468   4.960   7.231  0.3830 -0.3763 -0.0185
  349MOL0     C45974   5.440   5.067   7.134  0.6877 -1.1305 -0.1957
  349MOL0     C45975   5.331   5.157   7.180 -0.6112  0.2573  0.7875
  349MOL0     C45976   5.309   5.278   7.086  0.9323 -0.5875  0.5271
  349MOL0     C45977   5.193   5.371   7.124  0.5064 -0.1782  0.5946
  349MOL0     C45978   5.207   5.500   7.044 -0.7620  0.8431  0.3666
  349MOL0     C45979   5.089   5.522   6.968 -0.6527 -0.1696  1.2257
  349MOL0    Cl45980   5.100   5.436   6.808 -0.1759  0.2468 -0.1164
  349MOL0     C45981   5.898   4.866   7.216  0.3214  0.5212 -0.5596
  349MOL0     C45982   6.009   4.786   7.231 -0.0762 -0.3506 -0.3289
  349MOL0     O45983   6.227   4.632   7.344  0.2380 -0.2742 -0.9384
  349MOL0     C45984   6.460   4.490   7.277  0.6487  0.1322  0.7970
  349MOL0     C45985   6.577   4.435   7.224 -0.7554 -0.3916  0.4494
  349MOL0     N45986   7.248   4.362   7.140  0.0729  0.9069 -0.3228
  349MOL0     N45987   7.347   4.340   7.227 -0.2813 -0.3005 -0.2924
  349MOL0     C45988   8.504   4.513   6.864 -0.7621  0.4021  0.3125
  349MOL0     C45989   8.639   4.527   6.822  1.2112  0.2163 -0.7454
  349MOL0     C45990   9.070   4.531   6.749  0.5293 -0.4899 -0.2874
  349MOL0     C45991   9.144   4.467   6.847 -0.6020 -0.7932 -0.7981
  349MOL0     C45992   9.281   4.501   6.868 -1.1545  0.0155 -0.4276
  349MOL0     C45993   9.348   4.595   6.785 -0.1264  0.8350  0.2769
  349MOL0     O45994   9.480   4.619   6.790 -0.4392  0.5472  0.1945
  349MOL0     C45995   9.562   4.519   6.849  0.3567  0.2519  0.8871
  349MOL0     C45996   9.706   4.504   6.794 -0.5930  0.3456  0.1221
  349MOL0     C45997   9.778   4.643   6.780 -0.1385  0.2909  0.3398
  349MOL0     C45998   9.935   4.623   6.774  1.3171 -0.0179 -0.6559
  349MOL0     C45999   9.998   4.743   6.727  0.9483 -0.1089 -0.2905
  349MOL0     C46000  10.067   4.841   6.694  0.2237  1.3582  0.5956
  349MOL0     C46001   9.270   4.662   6.693 -0.5175 -0.1285  0.2021
  349MOL0     C46002   9.137   4.632   6.673 -0.4648 -0.6355  0.5088
  349MOL0     H46003   8.766   4.218   6.902  1.8238  2.3057  2.7131
  349MOL0     H46004   8.525   4.183   6.957 -1.9407  0.8332 -0.5835
  349MOL0     H46005   8.290   4.256   7.099  1.5788 -0.7956  0.3916
  349MOL0     H46006   8.328   4.162   6.962  0.8324  1.2877  1.3233
  349MOL0     H46007   8.087   4.148   6.999 -1.0500 -0.1485  0.0628
  349MOL0     H46008   8.112   4.235   6.848 -1.4071  0.8222  0.3880
  349MOL0     H46009   8.058   4.444   6.945 -0.5447 -1.0489 -1.1482
  349MOL0     H46010   8.069   4.392   7.112  2.0635  1.5576 -0.8054
  349MOL0     H46011   7.824   4.417   7.042 -1.2461 -2.0561  1.3918
  349MOL0     H46012   7.854   4.314   6.902  0.3962  0.6189 -0.1017
  349MOL0     H46013   7.875   4.225   7.208  1.3365 -2.9843  0.3640
  349MOL0     H46014   7.875   4.130   7.057 -0.3347 -0.0460  0.3382
  349MOL0     H46015   7.650   4.209   7.002  1.1147  3.0339 -0.6673
  349MOL0     H46016   7.659   4.322   7.145  1.6666  0.4929 -0.5211
  349MOL0     H46017   7.627   4.031   7.150  1.4488  0.1756  0.1319
  349MOL0     H46018   7.721   4.096   7.282 -0.4184 -0.9624  0.2154
  349MOL0     H46019   7.553   4.224   7.360  2.2756 -2.4267  1.1687
  349MOL0     H46020   7.470   4.069   7.342  1.3902  0.4314  1.0326
  349MOL0     H46021   7.348   4.065   7.049 -2.4488 -0.9755 -0.6749
  349MOL0     H46022   7.101   4.102   6.960  1.8450 -0.2938 -1.1482
  349MOL0     H46023   7.172   4.231   6.870 -2.9137  3.2734 -0.3806
  349MOL0     H46024   7.019   4.397   6.995  1.3933  0.3896  2.3621
  349MOL0     H46025   6.965   4.260   7.096 -0.2980 -1.2182 -0.6211
  349MOL0     H46026   6.924   4.286   6.796 -1.5777  0.6262  0.2378
  349MOL0     H46027   6.840   4.164   6.905 -0.9225  0.8980  2.1072
  349MOL0     H46028   6.678   4.316   6.846 -1.3218 -4.3384  0.7594
  349MOL0     H46029   6.775   4.454   6.895 -0.8653  0.3710  1.5972
  349MOL0     H46030   6.469   4.375   6.905  0.8256 -2.6451 -0.0287
  349MOL0     H46031   6.284   4.484   6.976  1.1251  0.6980 -1.7187
  349MOL0     H46032   5.923   4.545   7.011 -1.3295  0.0690  0.1659
  349MOL0     H46033   5.715   4.690   6.989 -0.6404 -0.0516  1.2297
  349MOL0     H46034   5.616   4.809   7.286 -0.2901 -0.0507  0.1646
  349MOL0     H46035   5.543   4.784   7.120  1.3388  3.2750 -3.8933
  349MOL0     H46036   5.479   5.011   7.328 -0.8176  2.5025 -1.2831
  349MOL0     H46037   5.374   4.905   7.237  0.4875 -0.8309 -2.0447
  349MOL0     H46038   5.413   5.041   7.031  2.2451  3.1151 -1.9214
  349MOL0     H46039   5.532   5.126   7.132  0.3520 -0.3570  2.7732
  349MOL0     H46040   5.237   5.102   7.194 -0.7501 -0.0926 -1.1676
  349MOL0     H46041   5.356   5.200   7.278  1.8563  0.0277  0.3315
  349MOL0     H46042   5.288   5.242   6.985  1.0779 -1.9803  0.9732
  349MOL0     H46043   5.397   5.342   7.079 -0.4184  1.3375  0.4475
  349MOL0     H46044   5.192   5.384   7.233 -0.2043 -0.1605  0.5941
  349MOL0     H46045   5.096   5.323   7.106  0.2312  0.2715  0.8447
  349MOL0     H46046   5.216   5.576   7.122  1.0823  1.4547 -0.4002
  349MOL0     H46047   5.290   5.506   6.973  1.3095  2.2687  2.7526
  349MOL0     H46048   5.085   5.628   6.940 -2.7825 -0.6883 -0.8425
  349MOL0     H46049   4.999   5.489   7.022 -2.1510 -1.4010 -1.7492
  349MOL0     H46050   5.882   4.958   7.272 -0.2146 -0.5816  1.1611
  349MOL0     H46051   6.087   4.823   7.296  0.0824 -3.0524  1.1594
  349MOL0     H46052   6.466   4.521   7.381 -0.3472  1.5623  0.4489
  349MOL0     H46053   6.667   4.415   7.280  0.4744  0.4083 -1.1613
  349MOL0     H46054   8.433   4.595   6.857  0.1087  1.0347 -2.2325
  349MOL0     H46055   8.675   4.622   6.784  3.1370 -1.3767 -3.2280
  349MOL0     H46056   9.097   4.388   6.905 -0.0104 -0.9983 -0.5941
  349MOL0     H46057   9.330   4.451   6.951  0.6228  3.2181  0.6006
  349MOL0     H46058   9.523   4.418   6.834 -0.0156  0.4222  0.7145
  349MOL0     H46059   9.563   4.533   6.958  0.9908 -1.8013  1.1830
  349MOL0     H46060   9.760   4.440   6.863  0.5623  2.5526  1.4006
  349MOL0     H46061   9.712   4.458   6.695 -0.2687 -1.7903  1.0797
  349MOL0     H46062   9.739   4.709   6.858  0.1815  1.0344 -0.1260
  349MOL0     H46063   9.746   4.683   6.684 -1.3025  2.1045  1.4339
  349MOL0     H46064   9.962   4.594   6.876 -0.1266  0.0999 -0.2132
  349MOL0     H46065   9.962   4.546   6.701  2.0152  1.3180 -1.8561
  349MOL0     H46066  10.130   4.919   6.658  2.6588 -1.1864 -1.1009
  349MOL0     H46067   9.330   4.732   6.635  2.7156  0.2419  3.5478
  349MOL0     H46068   9.077   4.693   6.606  1.4218  1.0065  0.2288
  350MOL0     O46069   7.242   4.955   1.559 -0.3659  0.2126 -0.3828
  350MOL0     C46070   7.330   5.035   1.604  0.4148 -0.4056 -0.1957
  350MOL0     O46071   7.305   5.169   1.642 -0.1602  0.1217  0.5928
  350MOL0     C46072   7.178   5.210   1.640  1.0526 -0.1134  0.3927
  350MOL0     C46073   7.144   5.328   1.571 -0.4223  0.9457  0.4080
  350MOL0     C46074   7.011   5.377   1.575 -0.4227  0.0300 -0.1799
  350MOL0     C46075   6.915   5.321   1.658  0.4787 -0.3176  0.2926
  350MOL0     O46076   6.788   5.379   1.669 -0.3063  0.4530 -0.0124
  350MOL0     C46077   6.690   5.317   1.748  0.0936 -0.1617 -0.2602
  350MOL0     C46078   6.558   5.379   1.704  0.2581  0.6191 -0.5231
  350MOL0     C46079   6.435   5.311   1.769  0.0004 -0.8751  0.3514
  350MOL0     C46080   6.311   5.381   1.702  1.1303 -1.0370 -0.5172
  350MOL0     C46081   6.171   5.344   1.756  0.0240  0.5037  0.7042
  350MOL0     C46082   6.124   5.418   1.880  0.1808 -0.2926 -0.5447
  350MOL0     C46083   5.992   5.359   1.933 -0.1318  0.0506 -0.6637
  350MOL0     C46084   6.015   5.215   1.986  0.2634  0.6497 -0.9806
  350MOL0     N46085   5.896   5.142   2.027 -0.1205 -0.3292  0.3917
  350MOL0     C46086   5.823   5.069   1.934 -0.5780  0.4645 -0.6878
  350MOL0     C46087   5.723   5.021   2.010  0.6026 -0.1178 -0.5839
  350MOL0     C46088   5.632   4.911   1.969 -0.0378  0.6218  0.8116
  350MOL0     C46089   5.702   4.779   2.008  0.3127  0.0428 -0.3036
  350MOL0     C46090   5.624   4.657   1.954 -0.5720 -0.3169  0.4422
  350MOL0     C46091   5.478   4.666   1.980 -0.3085  0.2748  0.9761
  350MOL0     O46092   5.422   4.736   1.876  0.0720 -0.9121  0.0049
  350MOL0     C46093   5.286   4.752   1.866 -0.0494 -0.6387  0.3435
  350MOL0     C46094   5.246   4.843   1.762  0.4124  0.3646  0.2443
  350MOL0     C46095   5.109   4.867   1.757 -0.1306  0.2572 -0.1012
  350MOL0     C46096   5.011   4.807   1.845  0.5957 -1.2733  0.6628
  350MOL0     C46097   4.864   4.832   1.813 -0.0698  0.0281 -0.5998
  350MOL0     O46098   4.833   4.884   1.693 -0.1963 -0.0606  1.1171
  350MOL0     C46099   4.700   4.921   1.671 -0.6825 -0.1764 -0.1198
  350MOL0     C46100   4.623   5.006   1.755 -0.5013  0.1309 -0.0128
  350MOL0     C46101   4.488   5.033   1.729 -0.1617 -0.0930 -0.7035
  350MOL0     C46102   4.427   4.994   1.611 -0.2169  0.1114  0.1809
  350MOL0     O46103   4.300   5.024   1.585 -0.8091  0.5560 -1.2261
  350MOL0     C46104   4.253   5.152   1.617  0.5310  0.8920 -0.7400
  350MOL0     C46105   4.104   5.149   1.585  0.4812  0.7652  0.0959
  350MOL0     C46106   4.053   5.294   1.582 -0.0496  0.4214  0.3011
  350MOL0     C46107   4.014   5.335   1.724 -0.1856  0.6426 -0.0128
  350MOL0     C46108   4.019   5.489   1.726  0.1284 -0.3447  0.5851
  350MOL0     C46109   3.993   5.552   1.865  0.3227 -0.2754  0.3436
  350MOL0     C46110   3.854   5.568   1.930  0.0307 -0.0727  0.3444
  350MOL0     C46111   3.737   5.502   1.854  1.2736  1.1376 -0.1009
  350MOL0    Cl46112   3.590   5.541   1.948 -0.4330  0.1568  0.0162
  350MOL0     C46113   4.500   4.924   1.520 -0.1615 -0.6630  0.1166
  350MOL0     C46114   4.636   4.894   1.542  0.6358 -0.3488 -0.3921
  350MOL0     O46115   4.777   4.791   1.891 -0.6231  0.0720 -0.0798
  350MOL0     C46116   5.054   4.737   1.951 -0.1948  0.0394 -0.4663
  350MOL0     C46117   5.194   4.698   1.961  0.1518 -0.1993 -0.0225
  350MOL0     N46118   5.729   5.076   2.138  0.9957  0.2030  0.1547
  350MOL0     N46119   5.835   5.151   2.145  0.7467  0.0065  0.0129
  350MOL0     C46120   6.955   5.206   1.729  0.4234  0.0412 -0.4219
  350MOL0     C46121   7.082   5.149   1.721 -0.0671  0.8704  0.4681
  350MOL0     C46122   7.470   4.992   1.604 -0.2658 -0.6798  0.4725
  350MOL0     C46123   7.582   5.076   1.627  0.0517 -0.4851 -0.0983
  350MOL0     C46124   7.715   5.044   1.605  0.5222 -0.0598 -0.2204
  350MOL0     C46125   7.743   4.908   1.589 -0.0568 -0.0530  0.1890
  350MOL0     O46126   7.870   4.849   1.573  1.0013 -0.1641 -0.6903
  350MOL0     C46127   7.981   4.924   1.597 -0.7189  0.6771  0.3129
  350MOL0     C46128   8.088   4.819   1.601 -0.9061 -0.2314  0.1162
  350MOL0     C46129   8.224   4.874   1.543  0.3351 -1.1239 -0.0412
  350MOL0     C46130   8.337   4.778   1.559  0.3374  0.3029 -0.6784
  350MOL0     C46131   8.469   4.832   1.525  0.7671 -0.6988  0.5947
  350MOL0     C46132   8.573   4.889   1.489  0.0292 -0.5361 -0.0495
  350MOL0     C46133   7.637   4.825   1.565  0.8317  0.0921  0.5818
  350MOL0     C46134   7.500   4.858   1.578  0.3881 -1.0196  1.1212
  350MOL0     H46135   7.224   5.373   1.514 -0.6126 -2.0402 -2.4432
  350MOL0     H46136   6.982   5.469   1.527  1.4532  1.1319  0.6824
  350MOL0     H46137   6.717   5.332   1.853 -0.6334 -1.2446  0.0886
  350MOL0     H46138   6.681   5.210   1.731  2.8815 -1.0309  2.6566
  350MOL0     H46139   6.561   5.356   1.597 -1.1772 -2.7855  0.0416
  350MOL0     H46140   6.549   5.488   1.709 -2.3202  0.4231  1.9019
  350MOL0     H46141   6.427   5.339   1.874 -1.8820 -0.3670  0.1232
  350MOL0     H46142   6.422   5.202   1.760  1.0703 -0.9222 -0.8130
  350MOL0     H46143   6.324   5.489   1.707  1.4743 -1.1210  1.2731
  350MOL0     H46144   6.320   5.354   1.597  1.3331  2.9614 -1.6855
  350MOL0     H46145   6.183   5.235   1.762 -0.3212  0.4423  0.3301
  350MOL0     H46146   6.095   5.359   1.679  0.9670 -1.6943 -0.7575
  350MOL0     H46147   6.105   5.524   1.860  0.7950  0.0274  0.4547
  350MOL0     H46148   6.208   5.413   1.950  1.8327 -0.1464 -2.4619
  350MOL0     H46149   5.943   5.418   2.012 -1.6128 -0.6239 -1.0323
  350MOL0     H46150   5.920   5.343   1.852 -1.1299 -0.0656  0.2125
  350MOL0     H46151   6.086   5.233   2.067 -0.6433 -2.9481  0.8111
  350MOL0     H46152   6.064   5.159   1.905 -1.7038  0.7252 -2.2906
  350MOL0     H46153   5.848   5.032   1.835 -1.6704 -4.4651  0.6392
  350MOL0     H46154   5.612   4.910   1.861 -0.7929  1.4706  0.9362
  350MOL0     H46155   5.539   4.927   2.024  0.5557  0.1187  2.0033
  350MOL0     H46156   5.717   4.768   2.116  0.3623  0.7707 -0.2326
  350MOL0     H46157   5.802   4.771   1.964  0.7223  0.5820  0.5096
  350MOL0     H46158   5.642   4.659   1.846 -0.9315  3.6280  0.2802
  350MOL0     H46159   5.663   4.564   1.995 -1.8367  0.2572  3.1408
  350MOL0     H46160   5.458   4.711   2.078 -0.5388 -1.5780  1.8162
  350MOL0     H46161   5.440   4.564   1.974  1.0015 -0.2061  0.4963
  350MOL0     H46162   5.317   4.880   1.689 -0.9550 -0.2970 -1.4920
  350MOL0     H46163   5.077   4.931   1.675  1.8560  0.5827 -0.6798
  350MOL0     H46164   4.656   5.038   1.853  0.9119  1.6996 -0.9326
  350MOL0     H46165   4.437   5.088   1.808  0.2643  0.1797 -0.6179
  350MOL0     H46166   4.305   5.228   1.557  1.5093  1.4131  0.6989
  350MOL0     H46167   4.260   5.173   1.724 -3.1344  3.6470 -0.8797
  350MOL0     H46168   4.054   5.087   1.660  1.1154 -2.0163 -1.6295
  350MOL0     H46169   4.087   5.101   1.488  0.8028  2.4643 -0.8307
  350MOL0     H46170   3.956   5.286   1.531 -0.3646  2.0650  0.5708
  350MOL0     H46171   4.119   5.361   1.526  1.7753 -0.3400  1.4642
  350MOL0     H46172   3.911   5.298   1.735  0.9741 -3.1130 -0.6928
  350MOL0     H46173   4.083   5.297   1.800 -0.3035  0.9076  0.2311
  350MOL0     H46174   3.942   5.521   1.655  1.3046 -0.5958 -0.8413
  350MOL0     H46175   4.114   5.527   1.686 -0.4998 -0.2657 -0.8830
  350MOL0     H46176   4.026   5.656   1.863 -1.7284  0.4102 -0.8575
  350MOL0     H46177   4.055   5.504   1.941  1.5670  1.4213  0.4562
  350MOL0     H46178   3.858   5.521   2.029 -0.4785  0.4670  0.6275
  350MOL0     H46179   3.828   5.673   1.944  0.3749 -0.1827  1.9755
  350MOL0     H46180   3.758   5.395   1.857  0.2761  0.9246 -0.2096
  350MOL0     H46181   3.748   5.536   1.750  2.5782 -0.2259 -0.4361
  350MOL0     H46182   4.438   4.908   1.432  0.8920  2.4765 -1.3292
  350MOL0     H46183   4.696   4.833   1.476  2.1740  0.1991  0.4354
  350MOL0     H46184   4.980   4.708   2.025 -0.3263  0.7959 -0.2914
  350MOL0     H46185   5.212   4.640   2.051  1.0097  2.5339  1.7112
  350MOL0     H46186   6.883   5.156   1.794 -0.0223  0.2331 -0.7636
  350MOL0     H46187   7.107   5.061   1.778  0.1002 -0.9594 -2.2882
  350MOL0     H46188   7.546   5.176   1.650 -1.8981 -1.9411  3.9924
  350MOL0     H46189   7.795   5.113   1.632  0.7116  0.3473 -1.6875
  350MOL0     H46190   7.985   4.975   1.694 -0.1454 -2.8603  2.3111
  350MOL0     H46191   7.990   4.995   1.514 -1.8227 -1.1896 -1.4969
  350MOL0     H46192   8.103   4.776   1.701 -0.5524 -0.1143  0.1140
  350MOL0     H46193   8.059   4.746   1.525 -0.3769  1.1013 -1.4197
  350MOL0     H46194   8.243   4.964   1.603 -1.3737 -1.1870  0.6307
  350MOL0     H46195   8.221   4.909   1.439  1.6357 -0.9033 -0.0302
  350MOL0     H46196   8.340   4.741   1.662  1.8075  1.0086 -0.4469
  350MOL0     H46197   8.308   4.693   1.497 -1.3738  1.9365 -2.2791
  350MOL0     H46198   8.658   4.948   1.461  1.3223 -1.6992  1.2449
  350MOL0     H46199   7.662   4.725   1.532  0.1497 -0.5170  1.8221
  350MOL0     H46200   7.421   4.785   1.563  0.9025 -1.4363  0.4159
  351MOL0     O46201   9.105   0.708   7.304  0.2748  0.0327  0.4670
  351MOL0     C46202   9.224   0.710   7.334  0.8928 -0.0990  0.3535
  351MOL0     O46203   9.271   0.694   7.459  0.1312 -0.3141 -0.0294
  351MOL0     C46204   9.178   0.698   7.561 -0.0905 -0.2438  0.3893
  351MOL0     C46205   9.123   0.583   7.613  0.4337  0.3255  0.7054
  351MOL0     C46206   9.040   0.589   7.728 -0.5753  0.2849  0.5437
  351MOL0     C46207   9.000   0.712   7.780 -0.1528 -0.0096 -1.2613
  351MOL0     O46208   8.907   0.707   7.882  0.2866  0.1357 -0.4409
  351MOL0     C46209   8.862   0.831   7.936 -0.2698  0.2177 -0.0368
  351MOL0     C46210   8.748   0.817   8.036 -0.2033 -0.7262 -0.8108
  351MOL0     C46211   8.648   0.711   7.994 -0.1928  0.0712 -0.0166
  351MOL0     C46212   8.537   0.670   8.094  0.1734  1.0365 -0.0084
  351MOL0     C46213   8.419   0.765   8.102 -0.7362 -0.4207 -0.1118
  351MOL0     C46214   8.336   0.777   7.980  1.1872  0.7719  0.5417
  351MOL0     C46215   8.199   0.843   8.018  0.3526 -0.7033 -0.0054
  351MOL0     C46216   8.164   0.940   7.910 -0.9129 -0.4988 -0.4033
  351MOL0     N46217   8.258   1.057   7.904  0.7417  0.3528 -0.8081
  351MOL0     C46218   8.277   1.158   7.995 -0.2173 -0.1051  0.4904
  351MOL0     C46219   8.378   1.234   7.942 -0.2312  0.6334 -0.1901
  351MOL0     C46220   8.430   1.357   7.994 -0.8585 -0.4804  0.3899
  351MOL0     C46221   8.559   1.347   8.072 -0.6259  0.3978  1.0899
  351MOL0     C46222   8.661   1.253   8.021 -0.2040 -0.2086  0.2517
  351MOL0     C46223   8.770   1.221   8.126  0.2179  0.1190 -0.4415
  351MOL0     O46224   8.822   1.344   8.186 -0.6963  1.0926 -0.6077
  351MOL0     C46225   8.899   1.424   8.110 -0.5535  0.2590  0.1005
  351MOL0     C46226   8.872   1.565   8.115 -0.2182  0.0594  0.3268
  351MOL0     C46227   8.977   1.649   8.065  0.8435 -0.3269 -0.0074
  351MOL0     C46228   9.093   1.595   8.006  1.2440  0.0029  0.1318
  351MOL0     C46229   9.198   1.680   7.962  0.0282 -0.6085  0.4048
  351MOL0     O46230   9.170   1.808   7.991  0.5816 -0.4332  0.6331
  351MOL0     C46231   9.208   1.900   7.893  0.2517  0.1289  0.5231
  351MOL0     C46232   9.164   1.895   7.757 -0.3214  0.3718 -0.4714
  351MOL0     C46233   9.225   1.971   7.658  0.5985  0.3830 -0.2361
  351MOL0     C46234   9.341   2.045   7.686 -0.3244  0.4061 -0.2865
  351MOL0     O46235   9.415   2.099   7.578  0.2603  0.1115 -0.1225
  351MOL0     C46236   9.526   2.192   7.597 -0.1343 -0.1171  0.1385
  351MOL0     C46237   9.597   2.233   7.463  0.4856 -0.2694  0.1931
  351MOL0     C46238   9.670   2.116   7.393 -0.7082 -0.1124 -0.3133
  351MOL0     C46239   9.666   2.131   7.241 -0.0325 -0.3916  0.1008
  351MOL0     C46240   9.708   1.998   7.180  0.8939  0.8915  0.7942
  351MOL0     C46241   9.737   2.013   7.035 -0.2185 -0.0676  0.1810
  351MOL0     C46242   9.754   1.880   6.965  0.8651  0.2974 -0.6110
  351MOL0     C46243   9.713   1.882   6.818 -0.9373  0.6486 -0.2669
  351MOL0    Cl46244   9.534   1.842   6.806 -0.1820  0.0688 -0.2679
  351MOL0     C46245   9.384   2.057   7.820  0.8259 -0.5246 -0.2297
  351MOL0     C46246   9.317   1.989   7.924  0.5340  1.0777  1.0266
  351MOL0     O46247   9.297   1.642   7.903  0.2954 -0.3311 -0.0550
  351MOL0     C46248   9.109   1.462   7.985 -0.1111  0.6264 -0.2663
  351MOL0     C46249   9.012   1.375   8.033 -0.1728  0.1602  0.2825
  351MOL0     N46250   8.417   1.180   7.825  1.5100  0.3985  0.1903
  351MOL0     N46251   8.342   1.072   7.799  0.0865  0.6461  0.0477
  351MOL0     C46252   9.063   0.831   7.728  0.7386 -0.3520  0.2295
  351MOL0     C46253   9.150   0.823   7.621  0.0693 -0.2327 -0.0982
  351MOL0     C46254   9.332   0.733   7.232  0.2843 -0.1609  0.0997
  351MOL0     C46255   9.446   0.804   7.264  0.2910  0.2140  0.4662
  351MOL0     C46256   9.541   0.836   7.162  0.5813  0.7650  0.2187
  351MOL0     C46257   9.506   0.809   7.031 -0.1860 -0.4579  1.0287
  351MOL0     O46258   9.593   0.865   6.944  0.4388  0.5112 -0.1074
  351MOL0     C46259   9.565   0.872   6.805  0.5532 -0.6024  0.1345
  351MOL0     C46260   9.678   0.945   6.735  0.7985 -0.5449 -0.1377
  351MOL0     C46261   9.759   0.852   6.645 -0.6012  0.3491  0.1330
  351MOL0     C46262   9.888   0.923   6.600  0.9260  0.4533 -0.4534
  351MOL0     C46263   9.992   0.830   6.566  0.1046  1.2517 -0.2154
  351MOL0     C46264  10.079   0.748   6.532 -0.1265  0.5917 -0.1703
  351MOL0     C46265   9.399   0.739   6.994  0.2160  0.0899 -0.5087
  351MOL0     C46266   9.308   0.695   7.096 -1.0977  0.5181  0.5740
  351MOL0     H46267   9.147   0.480   7.586  2.3689  0.5434  1.4882
  351MOL0     H46268   8.990   0.495   7.752  0.3125 -0.9469 -2.0531
  351MOL0     H46269   8.826   0.898   7.857  0.7248  1.1150  0.2566
  351MOL0     H46270   8.945   0.876   7.990 -0.2398 -1.1440  1.1042
  351MOL0     H46271   8.697   0.914   8.031  1.6297  0.7577  3.7430
  351MOL0     H46272   8.791   0.802   8.135  1.2360  0.9835 -1.1233
  351MOL0     H46273   8.700   0.617   7.971 -1.9235 -0.6855 -1.0881
  351MOL0     H46274   8.605   0.739   7.898 -1.0199  0.3991  0.4369
  351MOL0     H46275   8.499   0.571   8.069 -1.0841  1.1418  1.3497
  351MOL0     H46276   8.589   0.664   8.190  0.2051  1.0321 -0.0263
  351MOL0     H46277   8.460   0.865   8.121 -0.9135 -0.4380  0.3585
  351MOL0     H46278   8.367   0.731   8.191 -0.1674  0.5359  0.6032
  351MOL0     H46279   8.313   0.680   7.936  2.6531 -0.0240  1.4537
  351MOL0     H46280   8.384   0.843   7.908 -1.4285  1.4043 -0.7695
  351MOL0     H46281   8.122   0.767   8.027  1.4719 -2.0180 -1.1572
  351MOL0     H46282   8.199   0.897   8.114 -1.1785 -0.4677 -0.1186
  351MOL0     H46283   8.063   0.980   7.926 -1.1684  0.1690 -3.1451
  351MOL0     H46284   8.158   0.891   7.812 -1.4781  1.5849 -1.4816
  351MOL0     H46285   8.215   1.184   8.080  1.2333  0.2495  1.4746
  351MOL0     H46286   8.364   1.407   8.065  0.9127  1.7587  0.5843
  351MOL0     H46287   8.433   1.427   7.910 -2.3389 -1.8001 -0.8114
  351MOL0     H46288   8.540   1.303   8.171 -0.9288 -1.1035  0.3901
  351MOL0     H46289   8.609   1.444   8.084  0.2090  0.2704 -0.9008
  351MOL0     H46290   8.619   1.155   7.999  1.0545 -0.9099  0.8375
  351MOL0     H46291   8.701   1.295   7.928 -2.2519  0.3286 -0.4322
  351MOL0     H46292   8.850   1.162   8.080  1.1773  0.2721  0.9481
  351MOL0     H46293   8.726   1.149   8.196 -2.6086  2.2504  0.1210
  351MOL0     H46294   8.787   1.608   8.166  1.9240  1.8159  2.6473
  351MOL0     H46295   8.951   1.754   8.054  0.6313 -0.6443 -3.6494
  351MOL0     H46296   9.075   1.833   7.761 -1.0503  1.4290  0.0546
  351MOL0     H46297   9.192   1.964   7.555  3.0739  1.2496 -1.1624
  351MOL0     H46298   9.606   2.149   7.658 -0.2067  0.2570  0.5067
  351MOL0     H46299   9.486   2.284   7.642 -2.2238 -1.1775  0.6047
  351MOL0     H46300   9.663   2.317   7.483  0.3062 -0.6029  2.4525
  351MOL0     H46301   9.516   2.265   7.396 -1.3865 -2.2380  1.3932
  351MOL0     H46302   9.604   2.030   7.406 -2.5375  0.7904 -2.9226
  351MOL0     H46303   9.771   2.105   7.434 -0.5736 -0.2728 -0.6872
  351MOL0     H46304   9.560   2.137   7.215  0.3198  0.0498 -1.3262
  351MOL0     H46305   9.727   2.213   7.202  0.3041 -2.2160 -3.6523
  351MOL0     H46306   9.622   1.934   7.197 -2.4440  5.3418  2.8756
  351MOL0     H46307   9.796   1.967   7.237 -1.2998 -3.3588  2.2622
  351MOL0     H46308   9.834   2.062   7.019  0.0406 -0.2544  1.1421
  351MOL0     H46309   9.661   2.080   6.995 -2.4061 -0.3282  3.5118
  351MOL0     H46310   9.856   1.842   6.975  1.3619  1.6614 -0.2847
  351MOL0     H46311   9.697   1.800   7.012  1.4003 -0.0796 -0.5951
  351MOL0     H46312   9.756   1.795   6.767 -0.1323  2.0791 -2.1513
  351MOL0     H46313   9.741   1.977   6.772  1.4352  0.0191 -0.2242
  351MOL0     H46314   9.473   2.118   7.831  0.6995  0.1728 -2.4896
  351MOL0     H46315   9.356   1.996   8.025  0.9684  3.6236  0.7365
  351MOL0     H46316   9.189   1.429   7.919  0.6342  4.9684 -1.8749
  351MOL0     H46317   9.022   1.267   8.024 -2.8462 -0.2180  0.8111
  351MOL0     H46318   9.027   0.924   7.771 -2.6866 -1.8912  0.9744
  351MOL0     H46319   9.190   0.910   7.571 -0.0245 -1.4464 -2.4626
  351MOL0     H46320   9.460   0.821   7.370  0.0421 -2.1945  0.9315
  351MOL0     H46321   9.640   0.875   7.183  1.3928 -1.1010  0.0669
  351MOL0     H46322   9.469   0.921   6.793  0.5060 -0.8628 -0.5721
  351MOL0     H46323   9.547   0.768   6.776 -0.2154 -1.3032  2.8320
  351MOL0     H46324   9.633   1.016   6.664  3.5443 -1.0005 -2.5374
  351MOL0     H46325   9.736   1.002   6.808 -0.7369  3.6581 -1.8554
  351MOL0     H46326   9.704   0.831   6.553  1.2205 -0.5654 -0.7861
  351MOL0     H46327   9.783   0.765   6.708  3.5491 -0.2314 -1.9105
  351MOL0     H46328   9.869   0.995   6.520 -1.7587 -0.7419 -0.9850
  351MOL0     H46329   9.935   0.981   6.681  1.4853 -2.7283  1.6920
  351MOL0     H46330  10.159   0.686   6.496 -0.7492  0.9357 -2.3185
  351MOL0     H46331   9.372   0.728   6.889  0.3947 -0.4357 -0.4993
  351MOL0     H46332   9.219   0.635   7.085 -0.1806 -0.9154  0.7694
  352MOL0     O46333   2.132   7.551   5.168  0.1901 -0.3911  0.9091
  352MOL0     C46334   2.138   7.553   5.291  0.3268 -0.2883 -0.6859
  352MOL0     O46335   2.063   7.479   5.376  0.3721 -0.6014 -0.2694
  352MOL0     C46336   1.995   7.374   5.325  0.9699  0.6739  1.2786
  352MOL0     C46337   1.883   7.389   5.241  0.2411 -0.3309  0.2876
  352MOL0     C46338   1.819   7.275   5.189  0.0206  0.1976 -0.5205
  352MOL0     C46339   1.860   7.146   5.226  0.2727 -0.0685  0.4803
  352MOL0     O46340   1.792   7.038   5.167 -0.0847 -0.4814 -1.0105
  352MOL0     C46341   1.827   6.907   5.201  0.5707 -0.0547 -0.5965
  352MOL0     C46342   1.770   6.861   5.335  0.1112 -0.2848 -0.0239
  352MOL0     C46343   1.834   6.725   5.370 -0.1862 -0.2908 -1.4580
  352MOL0     C46344   1.782   6.657   5.503  0.0029 -0.0725  1.2039
  352MOL0     C46345   1.626   6.623   5.490  0.6813 -0.5004  0.5833
  352MOL0     C46346   1.575   6.509   5.586 -0.4814 -0.2677  0.5400
  352MOL0     C46347   1.442   6.454   5.541 -0.0967 -0.1457 -0.4104
  352MOL0     C46348   1.319   6.547   5.566  0.2094 -0.3315 -0.0426
  352MOL0     N46349   1.195   6.496   5.502 -0.6674 -1.0882 -0.1113
  352MOL0     C46350   1.147   6.377   5.551 -0.4620 -0.0413 -0.2106
  352MOL0     C46351   1.057   6.350   5.453  0.9550 -0.3764 -0.4299
  352MOL0     C46352   0.960   6.236   5.429  0.2641  0.2751  0.7081
  352MOL0     C46353   1.035   6.128   5.358  0.3546  0.7327 -0.0040
  352MOL0     C46354   1.053   6.148   5.209  0.2501 -0.7431  0.0977
  352MOL0     C46355   0.926   6.157   5.120  0.3809 -0.4662  0.1222
  352MOL0     O46356   0.835   6.047   5.142 -0.0278 -0.0810  0.3556
  352MOL0     C46357   0.710   6.062   5.076  0.4944  0.6416 -0.1588
  352MOL0     C46358   0.690   6.121   4.949 -0.0825 -0.1576  0.0337
  352MOL0     C46359   0.563   6.133   4.888  0.1928  0.1817  0.4186
  352MOL0     C46360   0.454   6.089   4.963 -1.2596  0.4027  0.1081
  352MOL0     C46361   0.315   6.091   4.915  0.3126  0.1057  0.8767
  352MOL0     O46362   0.237   5.997   4.963 -0.0063  0.6199  0.4382
  352MOL0     C46363   0.112   5.980   4.922  0.8361  0.4731  0.2602
  352MOL0     C46364   0.011   5.966   5.018 -0.1300 -0.2147 -0.5584
  352MOL0     C46365  -0.125   5.939   4.982  0.2704 -0.6821 -0.4823
  352MOL0     C46366  -0.159   5.935   4.854 -0.3835 -0.0472  0.2077
  352MOL0     O46367  -0.295   5.925   4.832  0.3069 -0.2429  0.9625
  352MOL0     C46368  -0.344   5.889   4.704 -0.3508 -0.4112  0.2522
  352MOL0     C46369  -0.489   5.854   4.687 -0.1685  0.1771  0.1209
  352MOL0     C46370  -0.581   5.948   4.765  0.9219 -0.8294 -0.9622
  352MOL0     C46371  -0.723   5.943   4.709  0.3166 -0.9618  0.0611
  352MOL0     C46372  -0.804   6.068   4.768 -1.0374  0.0366  0.0478
  352MOL0     C46373  -0.928   6.093   4.688  1.0222 -0.2952  0.1732
  352MOL0     C46374  -1.042   6.006   4.745 -0.4518 -0.5113 -0.7218
  352MOL0     C46375  -1.147   5.984   4.637 -0.7090 -0.0203 -0.0600
  352MOL0    Cl46376  -1.086   5.877   4.515  0.3484 -0.1411  0.2897
  352MOL0     C46377  -0.066   5.958   4.744  0.7502  0.4153  0.4255
  352MOL0     C46378   0.064   5.979   4.790 -0.0611  0.3788  0.6548
  352MOL0     O46379   0.274   6.176   4.834 -0.0144  0.2098  0.3484
  352MOL0     C46380   0.478   6.011   5.073  0.4803 -0.3215 -1.3047
  352MOL0     C46381   0.601   6.006   5.139 -0.2644 -0.4227  0.4759
  352MOL0     N46382   1.054   6.447   5.354  0.6583  0.5733 -0.0465
  352MOL0     N46383   1.144   6.528   5.384 -0.0361 -0.4768 -0.7267
  352MOL0     C46384   1.958   7.123   5.317  0.1044 -0.7692 -0.2959
  352MOL0     C46385   2.023   7.238   5.367 -0.2478 -0.2096 -0.5056
  352MOL0     C46386   2.227   7.652   5.351  0.0829  0.0315 -0.2839
  352MOL0     C46387   2.223   7.675   5.489  1.0125 -0.0831 -0.1367
  352MOL0     C46388   2.295   7.774   5.553  0.0509  0.1878  0.5799
  352MOL0     C46389   2.393   7.847   5.486 -0.3740  0.4351 -0.1792
  352MOL0     O46390   2.486   7.940   5.545 -0.2617  0.0039 -0.1725
  352MOL0     C46391   2.484   7.966   5.691  0.2627 -0.1308  0.5908
  352MOL0     C46392   2.625   8.019   5.729 -0.3120 -0.1109 -0.5580
  352MOL0     C46393   2.625   8.168   5.695 -1.2448 -0.5082 -0.5767
  352MOL0     C46394   2.761   8.229   5.732  0.5673 -0.2063 -0.0013
  352MOL0     C46395   2.776   8.221   5.878 -0.2872  0.2018  0.9336
  352MOL0     C46396   2.808   8.202   5.991 -0.3323 -0.4056  0.4753
  352MOL0     C46397   2.403   7.816   5.344  0.0638 -0.0417 -0.8195
  352MOL0     C46398   2.328   7.720   5.280 -0.7155  0.8906  0.3217
  352MOL0     H46399   1.851   7.484   5.200  1.0935 -0.8744 -1.7801
  352MOL0     H46400   1.734   7.284   5.122 -0.8603 -0.1937  0.5216
  352MOL0     H46401   1.932   6.878   5.189  0.2547 -2.3293  1.2841
  352MOL0     H46402   1.775   6.849   5.124 -0.2751 -0.2402  0.1050
  352MOL0     H46403   1.661   6.854   5.331  0.1691 -1.2720 -0.1233
  352MOL0     H46404   1.800   6.932   5.412 -0.7691 -0.6944  0.7148
  352MOL0     H46405   1.941   6.748   5.382 -0.7604  2.2515 -0.4644
  352MOL0     H46406   1.822   6.652   5.290  0.0404 -1.3149 -0.5851
  352MOL0     H46407   1.838   6.570   5.539  1.2691 -0.9131 -2.3522
  352MOL0     H46408   1.792   6.731   5.583  1.4739 -0.1573  1.1224
  352MOL0     H46409   1.605   6.580   5.392 -0.3257  0.2621  0.4538
  352MOL0     H46410   1.579   6.721   5.507  1.7679 -0.0841  1.2927
  352MOL0     H46411   1.572   6.543   5.690  0.4552 -0.6257  0.6952
  352MOL0     H46412   1.653   6.432   5.577  0.6221  1.0894 -3.0934
  352MOL0     H46413   1.449   6.420   5.438  0.5226  1.3370 -0.8933
  352MOL0     H46414   1.435   6.358   5.593  0.2533 -0.8298 -1.5916
  352MOL0     H46415   1.346   6.650   5.543 -3.2519  1.1786  1.9289
  352MOL0     H46416   1.302   6.548   5.675 -0.3198  0.5277 -0.1271
  352MOL0     H46417   1.185   6.329   5.641 -1.0368 -0.6196 -0.2660
  352MOL0     H46418   0.871   6.266   5.372 -0.9085 -1.0757  1.7834
  352MOL0     H46419   0.922   6.196   5.523 -0.0509 -0.1738  0.3940
  352MOL0     H46420   0.983   6.033   5.374  0.7436  0.0759 -2.2545
  352MOL0     H46421   1.137   6.126   5.398 -0.1490 -1.3498  1.3391
  352MOL0     H46422   1.104   6.243   5.189 -1.4932 -0.1868 -2.2857
  352MOL0     H46423   1.111   6.062   5.177  0.4691 -0.5758  0.0431
  352MOL0     H46424   0.966   6.154   5.018  0.4741  1.2391  0.0708
  352MOL0     H46425   0.886   6.258   5.134 -1.4628 -1.1661  0.2980
  352MOL0     H46426   0.769   6.150   4.881 -1.5787  1.6906 -1.0192
  352MOL0     H46427   0.546   6.179   4.791 -0.4993 -1.0490 -0.0687
  352MOL0     H46428   0.026   5.957   5.125  0.4787  1.2934 -0.4961
  352MOL0     H46429  -0.220   5.924   5.033 -0.6953  0.4228 -1.8619
  352MOL0     H46430  -0.280   5.803   4.681 -0.2361 -0.1084 -0.5812
  352MOL0     H46431  -0.320   5.959   4.623  3.0422  0.3948  1.7907
  352MOL0     H46432  -0.505   5.751   4.720  0.2542 -0.4961 -1.6684
  352MOL0     H46433  -0.510   5.858   4.580  1.5697  0.7135 -0.2343
  352MOL0     H46434  -0.540   6.049   4.758 -1.1967 -0.0141 -2.8879
  352MOL0     H46435  -0.583   5.926   4.873 -2.3632 -1.3364 -1.0060
  352MOL0     H46436  -0.718   5.934   4.600  0.0693  0.9790 -0.1342
  352MOL0     H46437  -0.784   5.860   4.746 -3.7381  1.6549 -0.1031
  352MOL0     H46438  -0.738   6.154   4.751 -0.9029 -0.7094 -4.7809
  352MOL0     H46439  -0.824   6.065   4.875  2.1023  0.5350  0.7503
  352MOL0     H46440  -0.909   6.074   4.581  3.8123  0.4797  0.4615
  352MOL0     H46441  -0.957   6.198   4.688 -2.4813 -1.1544  1.1213
  352MOL0     H46442  -1.007   5.911   4.788 -0.4367 -1.1211 -2.0221
  352MOL0     H46443  -1.086   6.066   4.824  2.0862 -1.1069  1.2999
  352MOL0     H46444  -1.180   6.080   4.597 -0.8785  0.7584  1.8439
  352MOL0     H46445  -1.234   5.939   4.686 -0.4581  0.2616  0.6431
  352MOL0     H46446  -0.094   5.957   4.639  1.0107  1.8947  0.3107
  352MOL0     H46447   0.139   5.990   4.712  0.1573 -1.5860  0.5215
  352MOL0     H46448   0.401   5.955   5.124  0.1970 -1.8989 -3.3383
  352MOL0     H46449   0.609   5.964   5.239 -1.7837 -1.0879  0.3499
  352MOL0     H46450   1.988   7.027   5.358  0.8945 -0.5998 -0.4626
  352MOL0     H46451   2.086   7.227   5.455 -1.0288 -2.5039 -0.1691
  352MOL0     H46452   2.155   7.612   5.546 -1.1701  0.9262 -1.4859
  352MOL0     H46453   2.284   7.804   5.656  0.5676  0.6027  0.5163
  352MOL0     H46454   2.480   7.875   5.751 -1.3710  1.5538  3.2121
  352MOL0     H46455   2.411   8.040   5.724  1.6856  2.2619 -1.2466
  352MOL0     H46456   2.647   8.014   5.836  1.2878 -2.6931 -0.9296
  352MOL0     H46457   2.695   7.956   5.673 -1.2788 -0.6643 -1.1782
  352MOL0     H46458   2.548   8.206   5.762  0.3979  2.3200 -0.1270
  352MOL0     H46459   2.607   8.200   5.591  1.9427 -1.6404 -1.5963
  352MOL0     H46460   2.842   8.170   5.688 -0.9559 -1.8748 -0.6999
  352MOL0     H46461   2.760   8.335   5.706  2.1890  0.3442  1.9534
  352MOL0     H46462   2.826   8.180   6.095  1.9896  0.0556  0.2183
  352MOL0     H46463   2.488   7.852   5.288  1.9618 -1.2654  1.1064
  352MOL0     H46464   2.349   7.695   5.176 -0.8371 -0.7842  0.6766
  353MOL0     O46465   9.671   9.047   8.479  0.6610 -0.4976 -0.0779
  353MOL0     C46466   9.731   8.959   8.414 -0.4690 -0.1239 -0.2109
  353MOL0     O46467   9.683   8.883   8.317  0.2597 -0.0487  0.1909
  353MOL0     C46468   9.548   8.872   8.303 -0.4089 -0.3641  0.0669
  353MOL0     C46469   9.471   8.797   8.390 -0.2206 -0.2286  0.7511
  353MOL0     C46470   9.335   8.780   8.370  0.4253  0.7211 -0.0729
  353MOL0     C46471   9.264   8.841   8.261 -0.0615  1.3491  1.1448
  353MOL0     O46472   9.129   8.811   8.261 -0.4042  0.5716 -0.3451
  353MOL0     C46473   9.031   8.875   8.169  0.2835  0.0536 -0.9949
  353MOL0     C46474   8.962   8.770   8.082 -0.4804  0.0818  0.3173
  353MOL0     C46475   8.843   8.824   7.994 -0.4756 -0.3862 -0.7034
  353MOL0     C46476   8.735   8.897   8.068  0.3143  0.1916 -1.3771
  353MOL0     C46477   8.613   8.893   7.983  0.6276  0.7607  0.5549
  353MOL0     C46478   8.497   8.947   8.065  0.2953  0.5985  0.2853
  353MOL0     C46479   8.380   8.989   7.969  0.4504  0.3323 -1.0046
  353MOL0     C46480   8.334   8.886   7.871 -0.0008 -0.6068 -0.7007
  353MOL0     N46481   8.302   8.750   7.933  0.4930  0.0393  0.0213
  353MOL0     C46482   8.348   8.623   7.892  0.3619 -0.1878 -0.5267
  353MOL0     C46483   8.276   8.525   7.950  1.0486 -0.2908  0.2281
  353MOL0     C46484   8.290   8.383   7.920 -0.2774  0.3618  0.1075
  353MOL0     C46485   8.162   8.294   7.914 -1.0143 -0.1210  0.3509
  353MOL0     C46486   8.076   8.333   7.798 -0.2826  0.3542 -0.2400
  353MOL0     C46487   7.957   8.228   7.800 -0.5337 -0.7993  0.7892
  353MOL0     O46488   7.902   8.213   7.934 -0.5467 -0.2777  0.9267
  353MOL0     C46489   7.792   8.289   7.948  0.5549  0.1339 -0.2923
  353MOL0     C46490   7.780   8.413   8.009 -0.0477  0.4335  0.8334
  353MOL0     C46491   7.659   8.476   8.032  0.9198 -0.4271 -0.0724
  353MOL0     C46492   7.540   8.407   7.985 -0.4615  0.8713 -0.7346
  353MOL0     C46493   7.399   8.464   8.003 -0.1216 -0.6551  0.1198
  353MOL0     O46494   7.292   8.394   7.950 -0.5475  0.5093  0.6440
  353MOL0     C46495   7.165   8.434   7.982 -0.0447  0.0206  0.7652
  353MOL0     C46496   7.114   8.546   7.922 -0.2888 -1.2150  0.3130
  353MOL0     C46497   6.992   8.600   7.967  0.1524  0.3421 -0.1154
  353MOL0     C46498   6.916   8.532   8.057  0.2701 -0.3512 -0.0287
  353MOL0     O46499   6.802   8.598   8.099 -0.1280 -0.0979  0.5770
  353MOL0     C46500   6.719   8.548   8.204  0.4350  0.0388 -0.1425
  353MOL0     C46501   6.644   8.676   8.253 -0.4427 -0.2602  0.2659
  353MOL0     C46502   6.515   8.646   8.331  0.1336 -0.1119  0.6750
  353MOL0     C46503   6.422   8.770   8.366 -0.7008 -0.1629  0.4011
  353MOL0     C46504   6.314   8.735   8.468 -0.2209  0.8857  0.1193
  353MOL0     C46505   6.198   8.654   8.396 -0.9249 -0.2941  0.2710
  353MOL0     C46506   6.071   8.614   8.479 -0.0196 -0.7917 -0.1140
  353MOL0     C46507   5.951   8.599   8.388 -1.1115  0.1123 -0.4034
  353MOL0    Cl46508   5.882   8.762   8.358  0.0130  0.4764 -0.0338
  353MOL0     C46509   6.948   8.400   8.098 -0.2913 -0.3454 -0.2513
  353MOL0     C46510   7.081   8.360   8.071  0.6876  0.9991  0.8137
  353MOL0     O46511   7.387   8.570   8.065  0.4626  0.9898  0.3856
  353MOL0     C46512   7.548   8.274   7.944  0.2795 -0.8250  0.0905
  353MOL0     C46513   7.670   8.219   7.923 -0.0855  0.8357 -0.3238
  353MOL0     N46514   8.181   8.595   8.026 -0.3210 -0.2134  0.1011
  353MOL0     N46515   8.208   8.721   8.025 -0.8671 -0.0852 -0.1510
  353MOL0     C46516   9.344   8.919   8.175 -0.0830  0.6994 -0.1980
  353MOL0     C46517   9.485   8.932   8.193  1.0078  1.0101  0.1233
  353MOL0     C46518   9.874   8.928   8.461 -0.0049 -0.5791  0.1224
  353MOL0     C46519   9.936   8.998   8.560 -0.9063 -0.7724  0.0412
  353MOL0     C46520  10.069   8.972   8.604  0.4220  0.0173 -0.2727
  353MOL0     C46521  10.147   8.876   8.538  0.8837 -1.1127  0.0608
  353MOL0     O46522  10.275   8.830   8.566  0.4163 -0.2107  0.2620
  353MOL0     C46523  10.331   8.862   8.695 -0.0682  0.4554  0.1162
  353MOL0     C46524  10.418   8.976   8.687 -0.1452 -0.2181  0.4870
  353MOL0     C46525  10.535   8.970   8.595 -0.4618  0.1282  0.1698
  353MOL0     C46526  10.643   8.874   8.658  0.4791 -0.4451  0.0531
  353MOL0     C46527  10.768   8.876   8.590  0.5384 -0.5486 -0.7523
  353MOL0     C46528  10.874   8.898   8.541 -0.1641  0.6108  0.4816
  353MOL0     C46529  10.086   8.810   8.425  0.1020 -0.0018 -0.4576
  353MOL0     C46530   9.952   8.834   8.388  0.8523 -0.2380 -0.2545
  353MOL0     H46531   9.516   8.748   8.476  0.6613 -0.4996  0.1451
  353MOL0     H46532   9.276   8.725   8.442 -0.2239  1.7220  0.1741
  353MOL0     H46533   9.072   8.958   8.111 -0.0073  1.5925  0.8968
  353MOL0     H46534   8.949   8.918   8.227  0.7705 -0.3589  0.0138
  353MOL0     H46535   8.910   8.701   8.149 -1.6156 -1.4642 -2.0312
  353MOL0     H46536   9.036   8.718   8.020 -1.0025  1.3873 -1.4926
  353MOL0     H46537   8.791   8.742   7.944 -0.7559  1.2259 -3.2970
  353MOL0     H46538   8.870   8.890   7.911 -2.3681  1.5428  0.0979
  353MOL0     H46539   8.711   8.846   8.161 -1.3132  1.5752 -0.9872
  353MOL0     H46540   8.764   8.999   8.095 -0.4192 -0.2137  1.1460
  353MOL0     H46541   8.599   8.790   7.949  0.4708  0.6932  0.8212
  353MOL0     H46542   8.645   8.957   7.900 -0.1332  0.5018  0.0498
  353MOL0     H46543   8.520   9.046   8.106 -1.3851  1.5506 -0.9317
  353MOL0     H46544   8.458   8.883   8.144  2.2715  0.5749  1.3009
  353MOL0     H46545   8.286   9.006   8.021 -0.8583 -3.2761 -1.9226
  353MOL0     H46546   8.414   9.075   7.910  1.4200  0.1874 -0.6804
  353MOL0     H46547   8.416   8.880   7.798 -1.0136  0.5435 -1.9868
  353MOL0     H46548   8.247   8.913   7.810 -0.0656 -1.0315 -0.8028
  353MOL0     H46549   8.430   8.612   7.822 -0.5596  0.6153 -1.7969
  353MOL0     H46550   8.350   8.334   7.997  0.2401  0.2827 -0.3340
  353MOL0     H46551   8.359   8.376   7.835 -0.4576  0.3776 -0.0407
  353MOL0     H46552   8.099   8.302   8.003 -1.5518 -0.8361  0.0483
  353MOL0     H46553   8.201   8.192   7.903 -1.1997 -0.1560  0.0320
  353MOL0     H46554   8.038   8.435   7.809 -2.0753 -0.3655  0.4989
  353MOL0     H46555   8.127   8.331   7.701 -0.5298 -1.1792 -0.3623
  353MOL0     H46556   7.993   8.136   7.752 -1.4302  0.6327 -3.0170
  353MOL0     H46557   7.882   8.266   7.730  1.5241  1.4527 -0.3201
  353MOL0     H46558   7.873   8.460   8.040 -0.0282  2.7938 -2.3609
  353MOL0     H46559   7.658   8.563   8.097 -0.1703 -1.1596  0.9260
  353MOL0     H46560   7.156   8.603   7.840 -0.6211 -0.4405  0.6686
  353MOL0     H46561   6.950   8.690   7.923 -1.0570  0.0212  0.3668
  353MOL0     H46562   6.782   8.518   8.289 -1.2590 -0.4577  0.9870
  353MOL0     H46563   6.657   8.466   8.167  0.9025 -0.5539  0.3692
  353MOL0     H46564   6.632   8.746   8.170  1.8740 -1.9662 -1.6494
  353MOL0     H46565   6.715   8.725   8.320  1.3831  0.9943 -2.4223
  353MOL0     H46566   6.561   8.611   8.424  3.0499  0.5364 -0.4360
  353MOL0     H46567   6.476   8.561   8.274  3.3647 -0.8082 -0.6750
  353MOL0     H46568   6.492   8.837   8.417  0.3411 -1.4913  0.7499
  353MOL0     H46569   6.387   8.819   8.274  1.4600  0.3077 -0.2241
  353MOL0     H46570   6.275   8.828   8.511  0.0213  0.8483  0.4271
  353MOL0     H46571   6.357   8.680   8.553  1.6067 -1.6656 -2.3025
  353MOL0     H46572   6.250   8.569   8.352  0.6553  0.1654  1.1719
  353MOL0     H46573   6.165   8.712   8.310  1.3414  0.0593 -0.4375
  353MOL0     H46574   6.080   8.522   8.537 -0.2996 -2.0615 -1.9768
  353MOL0     H46575   6.060   8.695   8.552  3.0058  1.3172 -1.7538
  353MOL0     H46576   5.871   8.533   8.422 -0.0661 -2.2402 -2.2175
  353MOL0     H46577   5.988   8.554   8.295  1.4168  1.4195 -0.0930
  353MOL0     H46578   6.884   8.337   8.159 -2.9315  0.4389 -2.0359
  353MOL0     H46579   7.116   8.268   8.117  0.4867  1.9889  3.1299
  353MOL0     H46580   7.450   8.233   7.920  0.3227  0.5282 -2.7829
  353MOL0     H46581   7.673   8.114   7.896  1.2484  0.1947  2.0708
  353MOL0     H46582   9.294   8.975   8.096  1.0287  0.4246 -1.1280
  353MOL0     H46583   9.553   8.989   8.131  3.0387  2.1249  3.1548
  353MOL0     H46584   9.886   9.073   8.620 -0.7143  0.9892 -1.8665
  353MOL0     H46585  10.109   9.028   8.687 -0.1066  1.5679 -1.0330
  353MOL0     H46586  10.389   8.781   8.741 -1.7135 -1.2980 -0.7735
  353MOL0     H46587  10.256   8.892   8.769 -3.5401 -2.7578 -1.7745
  353MOL0     H46588  10.351   9.053   8.648  0.9305  0.7609  0.5042
  353MOL0     H46589  10.457   9.011   8.784  0.9675 -0.2730  0.0714
  353MOL0     H46590  10.570   9.074   8.590  1.1981 -0.4586 -1.9525
  353MOL0     H46591  10.514   8.945   8.491 -0.8287 -0.5816  0.4089
  353MOL0     H46592  10.667   8.901   8.761  1.0285 -4.1691  1.0833
  353MOL0     H46593  10.601   8.772   8.655 -0.0143 -0.2802  1.1182
  353MOL0     H46594  10.965   8.897   8.484  0.6355 -1.6826  1.6818
  353MOL0     H46595  10.149   8.743   8.368  3.0126  2.0386  0.0969
  353MOL0     H46596   9.896   8.791   8.305 -0.8045  1.9983 -0.3613
  354MOL0     O46597   9.695   7.579   6.149  0.7301 -0.3269 -0.4321
  354MOL0     C46598   9.703   7.687   6.207 -0.1330 -0.2552 -0.8082
  354MOL0     O46599   9.610   7.775   6.229  0.2438 -0.3326  0.6098
  354MOL0     C46600   9.506   7.765   6.138  0.8387 -0.1754  0.7158
  354MOL0     C46601   9.393   7.670   6.142  0.4775  0.0635  0.1357
  354MOL0     C46602   9.279   7.685   6.055 -0.1197 -0.3063  0.1819
  354MOL0     C46603   9.282   7.782   5.956 -0.1197  0.3430  0.2630
  354MOL0     O46604   9.169   7.787   5.874  0.8197  0.0058 -0.5442
  354MOL0     C46605   9.138   7.904   5.804  0.1358  0.2261 -0.1547
  354MOL0     C46606   9.004   7.901   5.738 -0.3487 -0.6991 -1.2954
  354MOL0     C46607   8.990   8.024   5.650 -0.5872 -0.0777  0.3451
  354MOL0     C46608   8.860   8.019   5.567 -0.6846  0.4458 -0.2913
  354MOL0     C46609   8.863   8.137   5.464  0.2574  0.4209  0.1020
  354MOL0     C46610   8.830   8.279   5.517 -1.0112  0.8262 -0.1551
  354MOL0     C46611   8.809   8.395   5.418 -0.2791  0.6951 -0.2553
  354MOL0     C46612   8.799   8.534   5.485  0.1698  0.0827 -0.1239
  354MOL0     N46613   8.780   8.629   5.383  0.0234 -0.6698 -0.4492
  354MOL0     C46614   8.871   8.697   5.313  0.0195 -0.5296  0.9825
  354MOL0     C46615   8.799   8.797   5.251  0.2008 -0.4271 -0.4419
  354MOL0     C46616   8.854   8.912   5.169  0.8157  0.7261  0.3821
  354MOL0     C46617   8.755   9.030   5.161 -0.8070  0.2936  0.4685
  354MOL0     C46618   8.664   9.015   5.041 -0.7555  0.4208  0.5098
  354MOL0     C46619   8.572   9.136   5.042 -0.3102  0.3755 -0.1346
  354MOL0     O46620   8.476   9.140   4.931  0.5489 -0.0102 -0.0727
  354MOL0     C46621   8.365   9.065   4.940  0.6268 -0.1335  0.3916
  354MOL0     C46622   8.326   8.984   5.047 -0.6941 -0.1212 -0.1170
  354MOL0     C46623   8.213   8.895   5.040 -0.3287 -0.2180 -0.1239
  354MOL0     C46624   8.117   8.912   4.940 -0.1043  0.1177  0.2964
  354MOL0     C46625   7.994   8.833   4.940 -0.0424  0.1704 -0.3028
  354MOL0     O46626   8.009   8.706   5.005  0.9821 -0.4164 -0.1890
  354MOL0     C46627   7.896   8.625   5.011 -0.6266  0.2004  0.4327
  354MOL0     C46628   7.839   8.567   4.902  0.4142 -0.1774  0.2236
  354MOL0     C46629   7.737   8.467   4.914  0.6775 -0.9041  1.3961
  354MOL0     C46630   7.706   8.415   5.037  0.1334  0.8232 -0.3855
  354MOL0     O46631   7.612   8.324   5.047 -0.4407  0.1733 -0.3255
  354MOL0     C46632   7.506   8.339   5.149  0.4554 -0.2338  0.2807
  354MOL0     C46633   7.392   8.244   5.116  0.5340  0.3616 -0.4344
  354MOL0     C46634   7.298   8.232   5.231  0.0953 -0.4556 -0.1291
  354MOL0     C46635   7.189   8.335   5.228  0.2463 -0.1098  0.0255
  354MOL0     C46636   7.116   8.329   5.355 -0.1641  0.6083 -0.3439
  354MOL0     C46637   7.008   8.425   5.360  0.7436  0.3423  0.7580
  354MOL0     C46638   6.939   8.406   5.493  0.6985  0.4043 -0.0658
  354MOL0     C46639   6.816   8.489   5.522 -0.3592 -0.8075  1.0949
  354MOL0    Cl46640   6.766   8.503   5.694 -0.2167  0.1929  0.1648
  354MOL0     C46641   7.766   8.468   5.156 -0.5591  0.2289  0.2134
  354MOL0     C46642   7.856   8.580   5.137  0.3227  0.3769  0.0011
  354MOL0     O46643   7.899   8.871   4.865 -0.3333 -0.2706  0.3378
  354MOL0     C46644   8.156   9.000   4.836  1.1740 -1.0698  0.3312
  354MOL0     C46645   8.272   9.083   4.834 -0.8146  0.3989  0.0279
  354MOL0     N46646   8.669   8.778   5.283  0.1536  0.2788  0.2640
  354MOL0     N46647   8.663   8.692   5.375  0.1792  0.0596  0.4215
  354MOL0     C46648   9.381   7.876   5.960  0.2998 -0.5522 -0.2237
  354MOL0     C46649   9.495   7.869   6.046 -0.6610 -0.1295  0.6360
  354MOL0     C46650   9.825   7.701   6.284  0.3900  0.3159  0.3296
  354MOL0     C46651   9.898   7.590   6.324  0.1628 -0.4113 -0.2259
  354MOL0     C46652  10.008   7.605   6.407 -0.0548 -0.1094 -0.4640
  354MOL0     C46653  10.043   7.727   6.462  0.1918 -0.4560 -0.7150
  354MOL0     O46654  10.144   7.755   6.555  0.9099 -0.1427  0.1343
  354MOL0     C46655  10.198   7.642   6.624  0.2248 -0.5988  0.1368
  354MOL0     C46656  10.325   7.695   6.690 -0.1392  0.1870 -0.7559
  354MOL0     C46657  10.413   7.583   6.750  0.1114 -0.9735  0.0184
  354MOL0     C46658  10.560   7.622   6.790 -0.1697 -0.0268 -0.8598
  354MOL0     C46659  10.576   7.738   6.876 -0.5348 -0.2455  0.3815
  354MOL0     C46660  10.598   7.834   6.939 -0.1980 -0.0678 -0.9279
  354MOL0     C46661   9.972   7.837   6.421  0.2932  0.2228  0.1924
  354MOL0     C46662   9.871   7.830   6.323  0.1659 -0.2122 -0.6602
  354MOL0     H46663   9.392   7.598   6.224  2.9776  1.2652  1.3451
  354MOL0     H46664   9.201   7.611   6.073  0.2386 -0.5168  0.9299
  354MOL0     H46665   9.219   7.919   5.733  2.0479 -0.9264  1.6735
  354MOL0     H46666   9.143   7.991   5.870  1.5630 -0.5467  0.7926
  354MOL0     H46667   8.926   7.883   5.811  2.2924 -2.1602  1.3876
  354MOL0     H46668   9.006   7.814   5.671 -0.5490 -1.3501 -0.4743
  354MOL0     H46669   9.072   8.023   5.578 -0.9290 -0.3150 -0.0486
  354MOL0     H46670   8.992   8.119   5.704  2.8079 -0.5353  1.2642
  354MOL0     H46671   8.848   7.925   5.512 -0.5851  0.9458 -1.1954
  354MOL0     H46672   8.775   8.033   5.634 -1.1085  2.0368 -1.0915
  354MOL0     H46673   8.784   8.119   5.391  0.5763 -2.2634  0.3136
  354MOL0     H46674   8.961   8.139   5.414  0.2777 -2.5306 -0.1606
  354MOL0     H46675   8.904   8.297   5.595 -0.5527  2.4457 -0.9192
  354MOL0     H46676   8.733   8.265   5.565 -2.2613  2.8056 -1.8965
  354MOL0     H46677   8.885   8.392   5.339  0.7945  0.0338  0.7819
  354MOL0     H46678   8.709   8.378   5.376 -0.4804  0.8217  0.1656
  354MOL0     H46679   8.889   8.555   5.543  1.3169 -0.0218 -1.7882
  354MOL0     H46680   8.713   8.536   5.552 -0.8224  0.9749 -1.3722
  354MOL0     H46681   8.980   8.693   5.319 -0.0287 -0.8016  1.8064
  354MOL0     H46682   8.874   8.875   5.068 -1.5090  1.6708 -0.4992
  354MOL0     H46683   8.945   8.954   5.212  1.2232 -0.6128  0.8935
  354MOL0     H46684   8.826   9.111   5.143 -0.7160 -0.0437 -0.8610
  354MOL0     H46685   8.702   9.055   5.253 -0.6477  2.5634 -0.0115
  354MOL0     H46686   8.724   9.022   4.950 -1.8555  3.7214 -0.0984
  354MOL0     H46687   8.606   8.922   5.041 -0.1107 -0.0702  3.4490
  354MOL0     H46688   8.634   9.226   5.049 -1.5115  1.0958  4.4289
  354MOL0     H46689   8.529   9.131   5.142  0.0717 -0.5048 -0.0075
  354MOL0     H46690   8.390   8.960   5.131  0.9119  0.7728 -1.0514
  354MOL0     H46691   8.198   8.822   5.119  0.5662  1.0964  1.3254
  354MOL0     H46692   7.877   8.583   4.802  0.0298 -3.2448 -0.5216
  354MOL0     H46693   7.688   8.421   4.828 -0.9318  0.3907  1.5948
  354MOL0     H46694   7.486   8.446   5.145  2.5754  0.1891 -0.4635
  354MOL0     H46695   7.539   8.323   5.252 -2.2969  1.5258  1.5508
  354MOL0     H46696   7.438   8.146   5.101 -0.1728  0.0816 -0.7945
  354MOL0     H46697   7.332   8.273   5.029  2.0779  3.2085 -0.6540
  354MOL0     H46698   7.351   8.247   5.326 -0.6763  1.9059  0.0001
  354MOL0     H46699   7.252   8.134   5.234 -0.6528 -0.0893  1.4399
  354MOL0     H46700   7.223   8.438   5.216 -1.6022  0.9481  2.8394
  354MOL0     H46701   7.117   8.311   5.149  0.6040 -0.7275 -0.1176
  354MOL0     H46702   7.186   8.348   5.437  0.0102 -2.5863  0.3628
  354MOL0     H46703   7.072   8.230   5.365  0.2301  0.3314 -1.3127
  354MOL0     H46704   6.943   8.410   5.274  2.3421 -0.7909 -0.2825
  354MOL0     H46705   7.054   8.524   5.365 -3.0126  2.2592  1.2355
  354MOL0     H46706   6.923   8.298   5.502  3.6044 -0.1567 -0.8222
  354MOL0     H46707   7.012   8.426   5.572 -0.4367 -1.5403  1.5856
  354MOL0     H46708   6.735   8.452   5.459  1.0245  1.3831 -2.2747
  354MOL0     H46709   6.842   8.587   5.480  1.2051 -2.2758 -1.7027
  354MOL0     H46710   7.740   8.425   5.252 -0.5586 -2.1065 -0.7743
  354MOL0     H46711   7.913   8.625   5.218  4.2248 -1.5033 -1.4303
  354MOL0     H46712   8.081   9.006   4.758 -3.2761 -0.6747  4.2459
  354MOL0     H46713   8.271   9.150   4.749  0.9278  0.7467  0.2399
  354MOL0     H46714   9.391   7.961   5.893  0.6272  0.7827  1.4192
  354MOL0     H46715   9.567   7.948   6.025  0.2931 -1.2353 -0.3990
  354MOL0     H46716   9.877   7.493   6.280  0.5128 -0.8816  0.6231
  354MOL0     H46717  10.052   7.512   6.440 -0.3170  0.2238  0.8887
  354MOL0     H46718  10.221   7.559   6.557 -1.8409 -0.3768 -0.9176
  354MOL0     H46719  10.136   7.608   6.707  2.2597  1.6404  2.8147
  354MOL0     H46720  10.384   7.734   6.607  2.3295 -0.2026  0.7420
  354MOL0     H46721  10.302   7.775   6.761  1.1540  2.0556 -2.3346
  354MOL0     H46722  10.408   7.499   6.681  0.6111 -1.3743  0.4512
  354MOL0     H46723  10.366   7.544   6.841 -2.2938 -2.1365 -1.6244
  354MOL0     H46724  10.613   7.535   6.832  0.4482  0.7433  0.0156
  354MOL0     H46725  10.623   7.640   6.703  0.8963  1.0481  0.1055
  354MOL0     H46726  10.598   7.915   7.009  2.3888 -1.6845  1.1484
  354MOL0     H46727  10.002   7.939   6.440  2.2510  0.6125 -3.8619
  354MOL0     H46728   9.821   7.920   6.288 -0.6355 -0.2173  0.3986
  355MOL0     O46729  10.458   4.452   0.623  0.7760  0.5139 -0.5699
  355MOL0     C46730  10.553   4.424   0.560 -0.0286 -0.3544  0.3343
  355MOL0     O46731  10.559   4.342   0.451 -0.0331 -0.3652 -0.1800
  355MOL0     C46732  10.450   4.273   0.401 -0.2588 -0.2650 -0.6485
  355MOL0     C46733  10.339   4.346   0.353  0.1383 -0.0452 -0.1959
  355MOL0     C46734  10.226   4.273   0.303  0.6421 -0.7561  0.4319
  355MOL0     C46735  10.224   4.137   0.299 -0.4282 -0.0876  0.7802
  355MOL0     O46736  10.117   4.081   0.226 -0.6057 -0.1670 -0.2792
  355MOL0     C46737  10.072   3.951   0.259  0.0435 -0.2656 -0.2589
  355MOL0     C46738   9.942   3.929   0.189  0.2506 -0.0533  0.6208
  355MOL0     C46739   9.841   4.041   0.215  0.1893  0.3484  0.2138
  355MOL0     C46740   9.782   4.015   0.357  0.5751 -0.1788  0.0144
  355MOL0     C46741   9.672   4.115   0.396  0.0676  0.0121 -1.4438
  355MOL0     C46742   9.601   4.071   0.529  0.3812 -0.5190 -0.1087
  355MOL0     C46743   9.475   4.164   0.558 -0.3967  0.0856  0.3388
  355MOL0     C46744   9.352   4.127   0.493 -0.0971 -0.1856  0.2325
  355MOL0     N46745   9.259   4.239   0.517 -0.8048 -0.5071  0.3765
  355MOL0     C46746   9.271   4.366   0.452  0.0169  0.4514 -0.4103
  355MOL0     C46747   9.165   4.439   0.502  0.8056 -0.6106  0.4151
  355MOL0     C46748   9.142   4.590   0.472 -1.1659 -0.4401  0.0990
  355MOL0     C46749   9.000   4.611   0.445 -0.5959 -0.7149 -0.3434
  355MOL0     C46750   8.960   4.763   0.458 -0.5151 -0.7654 -0.2322
  355MOL0     C46751   8.821   4.793   0.409 -0.5568  0.0651  0.4346
  355MOL0     O46752   8.724   4.726   0.489 -0.0319  0.8303  0.5046
  355MOL0     C46753   8.586   4.730   0.451 -0.0862  0.5881 -0.1238
  355MOL0     C46754   8.489   4.698   0.551  0.0634  0.3468  0.0964
  355MOL0     C46755   8.348   4.704   0.531 -0.3636  0.6870 -0.8918
  355MOL0     C46756   8.307   4.744   0.399 -0.2919 -1.0293 -0.2300
  355MOL0     C46757   8.161   4.754   0.385 -0.3564  0.4234 -0.4788
  355MOL0     O46758   8.092   4.746   0.496 -0.4417 -0.5870 -0.2063
  355MOL0     C46759   7.958   4.732   0.493  0.2310 -0.0807 -0.1486
  355MOL0     C46760   7.881   4.843   0.481  0.4253  0.2796  0.2412
  355MOL0     C46761   7.743   4.830   0.477  0.5091  0.6121  0.6685
  355MOL0     C46762   7.679   4.704   0.482 -0.3908  0.2237 -0.1606
  355MOL0     O46763   7.544   4.691   0.463 -0.8677  0.0860 -0.2426
  355MOL0     C46764   7.464   4.808   0.467 -0.7282  0.3475 -0.2360
  355MOL0     C46765   7.315   4.770   0.438  0.0622  0.6932  0.5245
  355MOL0     C46766   7.232   4.893   0.413 -0.2430 -0.9765 -0.7875
  355MOL0     C46767   7.098   4.868   0.352 -0.2661  0.3418  0.1260
  355MOL0     C46768   7.025   4.991   0.294 -0.8280 -0.0511 -0.8010
  355MOL0     C46769   6.963   5.086   0.402 -0.6752  0.7166  0.7033
  355MOL0     C46770   6.862   5.174   0.329  0.8240  0.0011 -0.3320
  355MOL0     C46771   6.744   5.212   0.413  0.1417  0.5693 -0.6095
  355MOL0    Cl46772   6.635   5.305   0.307  0.3752  0.1115  0.3440
  355MOL0     C46773   7.756   4.597   0.491 -0.4783 -0.0388 -1.3915
  355MOL0     C46774   7.901   4.612   0.498  0.5292  0.4269 -0.1956
  355MOL0     O46775   8.112   4.765   0.273 -0.1509  0.3711  0.3074
  355MOL0     C46776   8.398   4.778   0.296  0.3255  0.5551  0.5263
  355MOL0     C46777   8.537   4.763   0.326  0.9215  0.3491  0.4507
  355MOL0     N46778   9.102   4.361   0.601  0.2641  0.0477  0.0298
  355MOL0     N46779   9.158   4.244   0.611 -0.4951  0.6780 -0.4826
  355MOL0     C46780  10.340   4.062   0.338  0.6794  0.0208 -0.0856
  355MOL0     C46781  10.444   4.131   0.405  0.5230 -0.0942 -0.2218
  355MOL0     C46782  10.685   4.485   0.594 -0.7754  0.0851  0.5513
  355MOL0     C46783  10.804   4.420   0.538 -0.7933 -0.1055  0.4791
  355MOL0     C46784  10.930   4.472   0.546 -0.3896  0.6057 -0.0770
  355MOL0     C46785  10.947   4.588   0.621  0.3057 -0.5725 -0.8708
  355MOL0     O46786  11.061   4.659   0.644 -0.7241  0.7170 -0.7751
  355MOL0     C46787  11.151   4.677   0.536 -0.2601 -0.3185  0.7837
  355MOL0     C46788  11.271   4.763   0.586 -0.7254 -0.1732 -0.8014
  355MOL0     C46789  11.233   4.909   0.625  0.1575  0.2827 -0.5809
  355MOL0     C46790  11.347   4.980   0.686  0.2434 -0.0315 -0.3552
  355MOL0     C46791  11.449   5.020   0.585 -0.5910 -0.3368  0.0115
  355MOL0     C46792  11.526   5.069   0.508  0.1337 -0.2818  1.1069
  355MOL0     C46793  10.836   4.652   0.677  0.5421  0.0355  0.0464
  355MOL0     C46794  10.705   4.599   0.665 -0.4097  0.8023  0.8681
  355MOL0     H46795  10.340   4.455   0.345 -1.9554  0.0476  0.3866
  355MOL0     H46796  10.138   4.323   0.265 -0.0399 -0.7296  1.9476
  355MOL0     H46797  10.066   3.944   0.368  1.0550  0.7878 -0.1110
  355MOL0     H46798  10.139   3.870   0.229 -2.4674 -1.5470 -2.8330
  355MOL0     H46799   9.906   3.834   0.229  0.7992 -0.6722 -0.3107
  355MOL0     H46800   9.956   3.921   0.081 -1.8878  0.6212  0.2348
  355MOL0     H46801   9.759   4.033   0.142  1.2252 -3.3258 -0.7884
  355MOL0     H46802   9.884   4.141   0.208  1.4654 -0.2158 -0.3075
  355MOL0     H46803   9.740   3.914   0.363  0.7910 -0.2796 -0.2023
  355MOL0     H46804   9.866   4.015   0.427  0.0130 -1.4755  0.7312
  355MOL0     H46805   9.590   4.132   0.326 -1.1994  1.7118  0.3468
  355MOL0     H46806   9.724   4.207   0.421  3.1180 -1.9039 -0.1498
  355MOL0     H46807   9.678   4.078   0.606  0.6844 -1.2635 -0.3375
  355MOL0     H46808   9.572   3.965   0.524  3.3728 -1.4740  0.9875
  355MOL0     H46809   9.460   4.159   0.667 -0.4677  0.8852  0.3729
  355MOL0     H46810   9.500   4.267   0.530  0.6374 -0.8524 -2.4493
  355MOL0     H46811   9.319   4.029   0.529  1.8584 -1.8772 -2.2471
  355MOL0     H46812   9.360   4.117   0.384 -0.5582 -1.0098  0.2656
  355MOL0     H46813   9.359   4.396   0.396  1.2205 -0.6822  0.7963
  355MOL0     H46814   9.211   4.619   0.393  0.0587 -2.3401  0.4214
  355MOL0     H46815   9.165   4.639   0.568 -2.3893 -0.7889  0.5984
  355MOL0     H46816   8.938   4.544   0.505 -0.5923 -0.3664  0.0494
  355MOL0     H46817   8.989   4.593   0.338 -1.7347 -1.0648 -0.1822
  355MOL0     H46818   8.957   4.789   0.564 -1.1243 -1.9284  0.0435
  355MOL0     H46819   9.032   4.821   0.398 -1.2996 -0.1388 -0.5861
  355MOL0     H46820   8.818   4.757   0.306 -0.4555 -0.1901  0.5215
  355MOL0     H46821   8.805   4.900   0.421  3.9398  1.1485 -1.3741
  355MOL0     H46822   8.516   4.657   0.648  0.0506  0.9899  0.3722
  355MOL0     H46823   8.288   4.661   0.611 -0.4060  1.5586 -0.4427
  355MOL0     H46824   7.923   4.943   0.476 -0.5909  0.6897 -0.4164
  355MOL0     H46825   7.690   4.925   0.478  2.1921  1.5964  2.4451
  355MOL0     H46826   7.491   4.876   0.385  1.0964 -0.7239 -0.5846
  355MOL0     H46827   7.474   4.860   0.563 -1.4292 -0.0129  0.0356
  355MOL0     H46828   7.275   4.721   0.527 -2.5910 -1.1420 -1.5092
  355MOL0     H46829   7.324   4.695   0.359  4.6718 -0.5508  1.9376
  355MOL0     H46830   7.282   4.946   0.331  0.7553 -1.3539 -0.4320
  355MOL0     H46831   7.229   4.952   0.504 -0.3354  0.6305 -1.7984
  355MOL0     H46832   7.117   4.797   0.271 -0.7351  0.1414  0.1898
  355MOL0     H46833   7.040   4.805   0.420  1.6444 -0.7463  0.8180
  355MOL0     H46834   6.947   4.951   0.228 -1.5597  1.0074 -0.6064
  355MOL0     H46835   7.085   5.050   0.224  0.7242  1.6553  1.8071
  355MOL0     H46836   7.047   5.132   0.454  3.2049 -3.2862 -1.3429
  355MOL0     H46837   6.923   5.012   0.472  2.6933 -0.7449  1.2553
  355MOL0     H46838   6.914   5.268   0.306  0.4791  1.1463  2.9735
  355MOL0     H46839   6.824   5.123   0.240 -0.9274 -1.5262  1.2119
  355MOL0     H46840   6.773   5.275   0.498  0.9072  2.7867 -2.4021
  355MOL0     H46841   6.699   5.119   0.449  1.6867 -0.3325 -0.8805
  355MOL0     H46842   7.722   4.495   0.506  0.4696 -0.2752 -0.7698
  355MOL0     H46843   7.955   4.523   0.528 -1.6342 -0.7349  0.5329
  355MOL0     H46844   8.357   4.800   0.198 -2.2706 -0.5146  1.2840
  355MOL0     H46845   8.605   4.796   0.249 -0.5693  3.0589  0.1784
  355MOL0     H46846  10.348   3.957   0.361  3.1365  0.9148  4.3501
  355MOL0     H46847  10.530   4.085   0.453  0.5845 -1.1529 -1.2890
  355MOL0     H46848  10.794   4.334   0.473 -0.7828 -1.0536  1.6814
  355MOL0     H46849  11.017   4.428   0.499 -0.3199  1.1757 -0.5078
  355MOL0     H46850  11.104   4.709   0.443  1.9726 -1.4844 -0.8597
  355MOL0     H46851  11.188   4.576   0.515 -0.1293 -0.6583  2.4983
  355MOL0     H46852  11.306   4.718   0.680 -3.5597  2.2000  1.6326
  355MOL0     H46853  11.349   4.762   0.510 -0.3110 -0.6723 -0.3758
  355MOL0     H46854  11.150   4.914   0.697  1.5827  0.6880  1.0896
  355MOL0     H46855  11.195   4.964   0.539  0.3646  2.8918  0.8981
  355MOL0     H46856  11.306   5.073   0.726  1.3369  0.1702  0.3375
  355MOL0     H46857  11.390   4.930   0.773  1.8179  2.7252  0.5638
  355MOL0     H46858  11.600   5.118   0.448  0.4922 -1.6483  0.4095
  355MOL0     H46859  10.847   4.754   0.713  1.9452 -0.5610  1.4379
  355MOL0     H46860  10.630   4.660   0.714  0.1514  0.2637  2.4792
  356MOL0     O46861   8.848   8.423  10.116  0.5184 -0.7173 -0.5040
  356MOL0     C46862   8.921   8.330  10.095  0.9601 -0.2381  0.4898
  356MOL0     O46863   8.883   8.199  10.090 -0.1088 -0.5152  0.2568
  356MOL0     C46864   8.746   8.167  10.072 -0.9180 -0.2163  0.7009
  356MOL0     C46865   8.711   8.043  10.126 -0.5158 -0.7515  0.0833
  356MOL0     C46866   8.588   7.995  10.112  0.5668 -0.2048 -1.0304
  356MOL0     C46867   8.493   8.054  10.033  0.3383 -0.3975 -0.4705
  356MOL0     O46868   8.372   7.989  10.025 -0.0830  0.1318 -0.2384
  356MOL0     C46869   8.356   7.934   9.896  0.4561  0.2909 -0.6845
  356MOL0     C46870   8.209   7.885   9.888  0.2804  0.0988 -0.5926
  356MOL0     C46871   8.175   7.849   9.746 -0.5886  0.3139  0.5719
  356MOL0     C46872   8.041   7.770   9.724 -0.6160 -0.8165  0.4586
  356MOL0     C46873   8.057   7.705   9.584  0.1176  0.1171  0.1230
  356MOL0     C46874   7.938   7.611   9.555  0.5850 -0.0064  0.6873
  356MOL0     C46875   7.802   7.693   9.553  0.7799 -0.0315  0.3434
  356MOL0     C46876   7.685   7.611   9.486  0.5748  0.1667  0.0604
  356MOL0     N46877   7.555   7.682   9.461 -0.2203  0.5358 -0.4126
  356MOL0     C46878   7.561   7.802   9.392  0.1988  0.6820  0.4642
  356MOL0     C46879   7.433   7.849   9.407  1.3612 -0.0695 -0.7208
  356MOL0     C46880   7.386   7.988   9.369  0.0209  1.0670  0.5390
  356MOL0     C46881   7.230   8.009   9.379 -0.6887 -0.1788  0.5846
  356MOL0     C46882   7.165   7.936   9.262 -0.9251  0.7778 -0.0180
  356MOL0     C46883   7.010   7.971   9.266 -0.5518 -0.2825  0.0275
  356MOL0     O46884   6.958   7.906   9.389  0.4230  0.2211  0.0767
  356MOL0     C46885   6.823   7.913   9.416 -0.3669 -0.2439  0.4186
  356MOL0     C46886   6.725   7.925   9.316  0.9179 -0.2947 -0.5367
  356MOL0     C46887   6.585   7.910   9.359  0.2136 -0.3412  0.8055
  356MOL0     C46888   6.541   7.929   9.494  0.0901 -0.1541  0.9480
  356MOL0     C46889   6.403   7.942   9.537  0.0395  1.1571 -1.2632
  356MOL0     O46890   6.312   7.911   9.444  0.4822 -0.3429 -0.2587
  356MOL0     C46891   6.182   7.953   9.472 -0.1478  0.4763  0.7705
  356MOL0     C46892   6.085   7.854   9.488 -0.1626 -0.1809 -0.0729
  356MOL0     C46893   5.949   7.882   9.494  0.1160  0.2041 -0.2220
  356MOL0     C46894   5.908   8.016   9.495 -0.5385  0.8167 -0.0036
  356MOL0     O46895   5.772   8.052   9.506 -0.8644 -0.4251  0.2406
  356MOL0     C46896   5.671   7.963   9.470  0.7097 -0.1913  0.0905
  356MOL0     C46897   5.542   8.028   9.525  0.7421 -0.5795  0.0652
  356MOL0     C46898   5.414   7.959   9.483  1.2290 -0.0415  0.6864
  356MOL0     C46899   5.301   7.980   9.579 -0.3965 -0.1545 -0.4863
  356MOL0     C46900   5.168   7.923   9.541  1.1242 -0.2506 -1.1642
  356MOL0     C46901   5.054   7.971   9.630  0.1464  1.2897  0.1877
  356MOL0     C46902   4.931   7.922   9.561 -0.0894  0.6191 -0.5779
  356MOL0     C46903   4.808   7.989   9.610  0.3553 -0.4776 -0.5706
  356MOL0    Cl46904   4.783   7.919   9.773  0.0452 -0.0600 -0.2172
  356MOL0     C46905   6.007   8.113   9.503 -0.5650 -0.0460  0.2789
  356MOL0     C46906   6.142   8.083   9.479 -0.0785  0.3215 -0.1252
  356MOL0     O46907   6.376   7.976   9.657  0.0663  0.3024 -0.6702
  356MOL0     C46908   6.642   7.924   9.587 -0.1347 -0.5197 -0.0726
  356MOL0     C46909   6.777   7.915   9.551 -0.4103 -0.9532  0.1284
  356MOL0     N46910   7.349   7.757   9.476  0.5747  1.0572  0.2859
  356MOL0     N46911   7.425   7.655   9.508  0.5513  0.4598 -0.7349
  356MOL0     C46912   8.526   8.170   9.972  0.4582  0.6996  0.2107
  356MOL0     C46913   8.653   8.232   9.993  1.1183  0.0335  0.1029
  356MOL0     C46914   9.068   8.366  10.087  0.5819 -0.0016 -0.3974
  356MOL0     C46915   9.163   8.263  10.109 -0.4479  0.8929  0.6921
  356MOL0     C46916   9.302   8.290  10.104  0.4277 -0.1243  0.5223
  356MOL0     C46917   9.355   8.416  10.095 -0.2210 -0.1266 -0.3868
  356MOL0     O46918   9.492   8.428  10.088 -0.5100  0.4514  0.7219
  356MOL0     C46919   9.560   8.556  10.100  0.2945  0.1647 -0.6543
  356MOL0     C46920   9.709   8.540  10.104  0.1421 -0.9560 -1.3722
  356MOL0     C46921   9.764   8.464  10.232  0.7381 -0.0280  0.7863
  356MOL0     C46922   9.902   8.409  10.192 -0.0686  0.1476 -0.2824
  356MOL0     C46923   9.956   8.317  10.293 -0.4978  0.4023 -0.1569
  356MOL0     C46924  10.016   8.256  10.377 -0.5534  0.0908 -0.7562
  356MOL0     C46925   9.264   8.520  10.087  1.2534 -0.2755  0.5133
  356MOL0     C46926   9.121   8.500  10.081  0.4972  1.1835  0.7565
  356MOL0     H46927   8.778   7.990  10.192  2.0707  1.8786 -0.1973
  356MOL0     H46928   8.576   7.901  10.166 -1.2212  0.7127  0.2880
  356MOL0     H46929   8.422   7.850   9.870 -2.8694 -1.0329 -6.8496
  356MOL0     H46930   8.371   8.013   9.822  0.5919  0.5531 -0.3760
  356MOL0     H46931   8.137   7.958   9.925 -1.9899 -0.6577 -3.1915
  356MOL0     H46932   8.191   7.797   9.951 -2.0933  0.7815 -0.2278
  356MOL0     H46933   8.260   7.789   9.712 -0.7909  1.0254 -1.2999
  356MOL0     H46934   8.163   7.938   9.684  0.5655 -0.5791 -0.9989
  356MOL0     H46935   8.041   7.699   9.807  1.3033 -2.3459 -0.7503
  356MOL0     H46936   7.950   7.830   9.730 -0.3367 -0.3361  0.0183
  356MOL0     H46937   8.148   7.644   9.582  1.8482  2.5202  0.4080
  356MOL0     H46938   8.060   7.781   9.506  4.2367  1.1393  1.0505
  356MOL0     H46939   7.933   7.530   9.628 -0.0236 -1.9987 -1.4504
  356MOL0     H46940   7.959   7.577   9.453 -0.2688  0.4620  0.3421
  356MOL0     H46941   7.763   7.712   9.653 -1.0522  0.3581 -0.4119
  356MOL0     H46942   7.817   7.790   9.505  3.7105  0.0159  1.1259
  356MOL0     H46943   7.680   7.534   9.563  2.1495 -0.3684 -0.3241
  356MOL0     H46944   7.710   7.560   9.392 -0.6158 -1.0016  0.3533
  356MOL0     H46945   7.647   7.859   9.360  0.9166 -0.3439  0.4881
  356MOL0     H46946   7.419   8.016   9.268 -0.9861 -2.7801 -1.0286
  356MOL0     H46947   7.432   8.057   9.441  0.1013  0.5142  1.0236
  356MOL0     H46948   7.198   8.113   9.382  0.0949  0.1090 -0.5732
  356MOL0     H46949   7.197   7.961   9.472 -2.3134  1.6764  1.0320
  356MOL0     H46950   7.212   7.963   9.167  3.2599  2.1758  2.1668
  356MOL0     H46951   7.188   7.831   9.281 -1.2432  0.6995 -0.0654
  356MOL0     H46952   6.967   7.924   9.178 -0.7388 -2.9090  1.4037
  356MOL0     H46953   6.997   8.079   9.273  0.2183 -0.2448  1.1439
  356MOL0     H46954   6.752   7.911   9.212 -0.6427 -3.4990 -0.6090
  356MOL0     H46955   6.519   7.890   9.275  2.3564 -1.9413 -0.5886
  356MOL0     H46956   6.128   7.754   9.498  4.6929  1.5035 -1.3622
  356MOL0     H46957   5.890   7.791   9.506  1.3973 -0.2562  5.0558
  356MOL0     H46958   5.684   7.858   9.498 -1.3516 -0.7593 -0.8488
  356MOL0     H46959   5.659   7.963   9.361 -0.9036 -1.0749  0.2438
  356MOL0     H46960   5.537   8.131   9.489 -1.7228 -0.0662  1.6571
  356MOL0     H46961   5.542   8.035   9.634  0.6012 -1.7149  0.1509
  356MOL0     H46962   5.431   7.851   9.476 -4.4189 -1.4591  3.1505
  356MOL0     H46963   5.380   7.981   9.381  0.4677 -0.6065  0.8086
  356MOL0     H46964   5.333   7.934   9.673  5.4427  0.6897 -1.6743
  356MOL0     H46965   5.296   8.088   9.600  2.4072 -0.0059 -0.1636
  356MOL0     H46966   5.176   7.814   9.543 -1.5801 -0.5449  1.3734
  356MOL0     H46967   5.146   7.944   9.435  1.1597 -2.7108 -1.7010
  356MOL0     H46968   5.051   8.079   9.644  1.7194  0.9770  4.9716
  356MOL0     H46969   5.075   7.913   9.721  0.7844 -1.3173 -1.5152
  356MOL0     H46970   4.924   7.932   9.452  0.1158 -0.2534 -0.6773
  356MOL0     H46971   4.924   7.815   9.579  0.1370  0.8636  1.0875
  356MOL0     H46972   4.728   7.995   9.535  0.3264  0.6716 -0.4608
  356MOL0     H46973   4.833   8.094   9.623  3.3866 -1.1788 -0.1514
  356MOL0     H46974   5.978   8.217   9.503  3.0403  1.0939  1.4545
  356MOL0     H46975   6.216   8.160   9.460  1.4465 -1.4391 -1.8493
  356MOL0     H46976   6.617   7.927   9.693  0.9168 -0.7508  0.1998
  356MOL0     H46977   6.867   7.900   9.609  0.7866  0.1631 -1.3700
  356MOL0     H46978   8.444   8.215   9.917 -0.3388 -2.2212 -1.2173
  356MOL0     H46979   8.684   8.326   9.947  0.2026  0.6042  0.6269
  356MOL0     H46980   9.143   8.157  10.110  2.1334  0.2948 -0.9333
  356MOL0     H46981   9.363   8.200  10.108 -0.7085 -1.0459 -1.4142
  356MOL0     H46982   9.521   8.595  10.194 -1.3355 -0.0729 -1.1809
  356MOL0     H46983   9.528   8.623  10.019  2.1135 -0.8653 -2.3256
  356MOL0     H46984   9.732   8.492  10.008 -1.1843 -3.0740 -0.6835
  356MOL0     H46985   9.752   8.641  10.109 -0.6216 -0.6740  2.9954
  356MOL0     H46986   9.686   8.388  10.242  0.0059  0.0070 -3.0931
  356MOL0     H46987   9.775   8.524  10.323  0.6642 -1.1499  1.5446
  356MOL0     H46988   9.897   8.360  10.095  0.0716  0.4542 -0.4471
  356MOL0     H46989   9.974   8.492  10.189  1.2612 -1.0047 -1.9150
  356MOL0     H46990  10.076   8.211  10.453  1.5597 -0.4688 -2.6518
  356MOL0     H46991   9.289   8.626  10.077 -2.1921  0.6401  0.5698
  356MOL0     H46992   9.054   8.583  10.060 -1.0684  0.2128  1.6894
  357MOL0     O46993   8.353   4.407   0.722 -0.1253 -0.1733 -0.3259
  357MOL0     C46994   8.373   4.336   0.830 -0.3501 -0.7062  0.6256
  357MOL0     O46995   8.275   4.297   0.911 -0.5078 -0.4082  0.3956
  357MOL0     C46996   8.148   4.314   0.873 -0.3797  0.4422 -0.1564
  357MOL0     C46997   8.067   4.365   0.972  0.4791  0.6282  1.0183
  357MOL0     C46998   7.937   4.401   0.943 -0.0919  0.5632  0.4040
  357MOL0     C46999   7.883   4.375   0.815 -0.1981  0.7323  0.1275
  357MOL0     O47000   7.748   4.405   0.791  1.0016  0.2770  0.6798
  357MOL0     C47001   7.669   4.475   0.890 -0.6775 -0.2552 -0.3936
  357MOL0     C47002   7.547   4.516   0.816  0.1194 -0.3571  0.4523
  357MOL0     C47003   7.435   4.583   0.902 -0.3807  0.4498  0.5367
  357MOL0     C47004   7.340   4.663   0.809  0.5094 -0.0783 -0.1661
  357MOL0     C47005   7.223   4.723   0.890 -0.6813 -0.2322  0.3448
  357MOL0     C47006   7.130   4.822   0.800  0.4739 -0.5937 -0.0901
  357MOL0     C47007   7.025   4.886   0.886 -0.3902 -1.0623  0.0980
  357MOL0     C47008   6.910   4.780   0.903 -0.0193 -0.0060 -0.1245
  357MOL0     N47009   6.850   4.713   0.786 -0.0279 -0.4702  0.2550
  357MOL0     C47010   6.828   4.774   0.665 -0.5341 -0.1112  0.0350
  357MOL0     C47011   6.759   4.687   0.597  0.8149  0.3329  0.1751
  357MOL0     C47012   6.714   4.725   0.460 -0.5430 -0.0436  0.1380
  357MOL0     C47013   6.560   4.705   0.446  0.7438 -0.3784  0.2265
  357MOL0     C47014   6.508   4.726   0.309 -0.7778 -0.2152  0.0292
  357MOL0     C47015   6.527   4.867   0.236 -0.5427  1.0278 -1.0416
  357MOL0     O47016   6.517   4.975   0.328 -0.0391 -0.2846  0.2578
  357MOL0     C47017   6.384   5.006   0.357 -0.5815 -0.0821  0.8292
  357MOL0     C47018   6.362   5.094   0.463 -0.1686 -0.0768  0.2155
  357MOL0     C47019   6.234   5.133   0.504 -0.5464  0.0640 -0.5362
  357MOL0     C47020   6.117   5.076   0.442  0.5590  0.4000  0.4908
  357MOL0     C47021   5.976   5.100   0.491  0.1983  0.7670  0.3935
  357MOL0     O47022   5.875   5.072   0.409  0.0404 -0.1214  0.1051
  357MOL0     C47023   5.739   5.081   0.437  0.0436  0.1926  0.0771
  357MOL0     C47024   5.677   5.144   0.543  0.7506  0.3853  0.0760
  357MOL0     C47025   5.534   5.152   0.544  0.1345  0.3337  0.5068
  357MOL0     C47026   5.455   5.091   0.449  0.2463 -0.3953 -0.5325
  357MOL0     O47027   5.319   5.116   0.464  0.3446 -0.0124 -0.0680
  357MOL0     C47028   5.237   5.070   0.358  0.1478 -0.1684 -0.1321
  357MOL0     C47029   5.094   5.061   0.397  0.1019 -0.1263 -0.3613
  357MOL0     C47030   5.004   5.032   0.278  0.8101  0.6640  0.7784
  357MOL0     C47031   4.854   5.022   0.321 -0.3479 -0.2675  0.3150
  357MOL0     C47032   4.764   5.020   0.197 -0.2209 -0.0373  0.2624
  357MOL0     C47033   4.614   5.021   0.226 -0.1939 -0.2611  0.3798
  357MOL0     C47034   4.528   5.011   0.103  0.0121 -0.1274  0.1193
  357MOL0     C47035   4.397   4.953   0.122  1.0357 -0.2367  0.4586
  357MOL0    Cl47036   4.291   5.016  -0.014  0.0298 -0.1021 -0.5574
  357MOL0     C47037   5.518   5.028   0.341  0.5132 -0.2500  0.1491
  357MOL0     C47038   5.659   5.021   0.337  0.3150 -0.0494  0.2769
  357MOL0     O47039   5.968   5.154   0.601  0.6121  0.1124 -0.0727
  357MOL0     C47040   6.145   5.005   0.319  0.9221  0.6084  0.1066
  357MOL0     C47041   6.271   4.978   0.282 -0.3153  0.0910 -0.2105
  357MOL0     N47042   6.727   4.573   0.673  0.0485  0.2689  0.0164
  357MOL0     N47043   6.798   4.586   0.783 -0.3514 -0.3362 -0.1712
  357MOL0     C47044   7.955   4.319   0.717  0.1034  0.6658 -0.4585
  357MOL0     C47045   8.091   4.299   0.743  0.1793 -0.0409  0.5638
  357MOL0     C47046   8.512   4.299   0.865 -0.0777  0.0708  0.8430
  357MOL0     C47047   8.538   4.251   0.991 -0.5749 -0.1067  0.4960
  357MOL0     C47048   8.669   4.209   1.020 -0.1099  0.0664 -0.1027
  357MOL0     C47049   8.775   4.213   0.929 -0.1535  0.2742 -0.1101
  357MOL0     O47050   8.893   4.189   0.981  0.3920 -0.0244  0.6420
  357MOL0     C47051   9.010   4.215   0.900 -0.1547 -0.5963  0.9040
  357MOL0     C47052   9.136   4.216   0.990 -0.1014  0.3299 -0.3565
  357MOL0     C47053   9.268   4.230   0.919  0.1396  0.1751  0.1385
  357MOL0     C47054   9.374   4.260   1.024 -0.7861  0.0224  0.3204
  357MOL0     C47055   9.506   4.272   0.967 -0.2092  0.6274  0.8790
  357MOL0     C47056   9.619   4.291   0.933 -0.3626 -0.3592 -0.2772
  357MOL0     C47057   8.742   4.246   0.786  0.0967 -0.3552 -0.9484
  357MOL0     C47058   8.612   4.294   0.762 -0.1738  0.6185 -0.2740
  357MOL0     H47059   8.109   4.395   1.068 -1.1770  1.9382  1.3912
  357MOL0     H47060   7.878   4.455   1.017 -1.8140 -0.7368  0.0117
  357MOL0     H47061   7.722   4.564   0.926 -3.2065  0.5618  1.5762
  357MOL0     H47062   7.637   4.414   0.975 -0.2288  0.8237  0.5731
  357MOL0     H47063   7.503   4.421   0.785 -0.3563 -1.4795  4.0773
  357MOL0     H47064   7.574   4.571   0.725  1.7050 -2.4667 -0.4202
  357MOL0     H47065   7.468   4.654   0.979 -0.5914 -1.4443  2.4757
  357MOL0     H47066   7.376   4.508   0.954 -1.3015 -1.2453 -2.7076
  357MOL0     H47067   7.397   4.749   0.775  2.6399 -1.2011  0.4153
  357MOL0     H47068   7.310   4.595   0.729  3.8723 -0.5392 -1.1896
  357MOL0     H47069   7.273   4.781   0.968  1.7887 -1.3032 -0.3223
  357MOL0     H47070   7.166   4.634   0.918 -0.1998 -0.7708 -0.3291
  357MOL0     H47071   7.080   4.774   0.716  0.7410 -2.1772  0.6141
  357MOL0     H47072   7.193   4.900   0.758  0.5035 -1.7052 -2.2564
  357MOL0     H47073   7.065   4.913   0.984 -0.5439  0.3055 -0.2018
  357MOL0     H47074   6.980   4.976   0.843  1.5518 -0.3092 -0.4332
  357MOL0     H47075   6.832   4.810   0.974  2.1855  0.5933  2.1717
  357MOL0     H47076   6.962   4.697   0.952  1.9361  1.7820  0.9763
  357MOL0     H47077   6.860   4.877   0.647  1.0937 -0.2952  1.5808
  357MOL0     H47078   6.763   4.664   0.383 -1.1227 -0.6713  0.2514
  357MOL0     H47079   6.741   4.827   0.432  0.1206 -0.9396 -2.8925
  357MOL0     H47080   6.513   4.782   0.508  1.4550  1.2733 -1.1860
  357MOL0     H47081   6.524   4.607   0.477 -1.9976  0.4681  0.0003
  357MOL0     H47082   6.560   4.657   0.242 -0.9702 -2.1284  1.7811
  357MOL0     H47083   6.400   4.711   0.301 -0.6712 -0.6475 -0.7794
  357MOL0     H47084   6.467   4.872   0.144 -0.6067 -2.5725 -1.3353
  357MOL0     H47085   6.632   4.865   0.207 -0.0761  1.2101  0.5742
  357MOL0     H47086   6.457   5.130   0.502  0.8227  0.6403 -2.6358
  357MOL0     H47087   6.213   5.204   0.583  0.2792 -0.7916  0.4881
  357MOL0     H47088   5.732   5.189   0.625  2.5995  1.9064 -1.9069
  357MOL0     H47089   5.478   5.194   0.626  1.1267  3.7906 -0.4338
  357MOL0     H47090   5.270   4.969   0.334  0.1843 -0.6555  1.8434
  357MOL0     H47091   5.239   5.150   0.282 -0.2442  1.8330  1.8588
  357MOL0     H47092   5.067   5.153   0.450 -0.4339 -0.1162 -0.6437
  357MOL0     H47093   5.087   4.988   0.479  1.3699  2.5247  2.3036
  357MOL0     H47094   5.030   4.938   0.230 -2.1257 -0.6151  1.4818
  357MOL0     H47095   5.029   5.119   0.216  2.2160  1.1900  2.0276
  357MOL0     H47096   4.833   4.929   0.375 -2.1175 -1.4689 -2.2492
  357MOL0     H47097   4.830   5.110   0.382 -0.1385 -2.2796  3.5585
  357MOL0     H47098   4.794   4.929   0.143  0.6131  0.0253  0.6130
  357MOL0     H47099   4.796   5.096   0.124  2.2508 -2.5218 -1.4441
  357MOL0     H47100   4.584   5.110   0.282 -2.2564  0.3664 -1.5935
  357MOL0     H47101   4.597   4.939   0.296  0.5517 -0.0128  0.8689
  357MOL0     H47102   4.511   5.117   0.082 -1.1885 -0.2873  0.2063
  357MOL0     H47103   4.596   4.970   0.028  2.1586 -1.1371  2.4866
  357MOL0     H47104   4.347   4.991   0.212 -0.8188 -0.7642 -0.2949
  357MOL0     H47105   4.393   4.844   0.118 -0.9484 -0.1605 -1.4104
  357MOL0     H47106   5.472   4.991   0.250  1.1637  2.6775 -1.5421
  357MOL0     H47107   5.703   4.980   0.247  0.6307 -2.0692  1.2985
  357MOL0     H47108   6.061   4.968   0.261  1.3641 -2.0159  0.9860
  357MOL0     H47109   6.290   4.948   0.179  0.6298  2.7372 -0.8716
  357MOL0     H47110   7.911   4.279   0.626  0.0265  0.5939 -0.3891
  357MOL0     H47111   8.158   4.257   0.668 -1.3594  0.3510 -1.0759
  357MOL0     H47112   8.461   4.250   1.067  0.3861 -0.5252  1.4793
  357MOL0     H47113   8.699   4.180   1.120 -0.0163  2.8745  0.7769
  357MOL0     H47114   8.999   4.316   0.859  1.9567 -0.1436  1.3357
  357MOL0     H47115   9.023   4.147   0.815  0.9716 -2.1117  2.2256
  357MOL0     H47116   9.134   4.289   1.071 -0.2537 -1.9410  1.7697
  357MOL0     H47117   9.136   4.115   1.032  1.7714 -1.0132 -3.2343
  357MOL0     H47118   9.258   4.314   0.850  1.9228  1.4817  1.3956
  357MOL0     H47119   9.279   4.135   0.866  2.3921  0.6065 -0.2677
  357MOL0     H47120   9.350   4.354   1.074 -0.0815  0.6778 -0.5424
  357MOL0     H47121   9.370   4.176   1.094 -0.5882 -1.7048 -1.6380
  357MOL0     H47122   9.721   4.307   0.902 -0.6217  2.2646  0.0586
  357MOL0     H47123   8.814   4.246   0.704  0.8140  0.1560 -0.3374
  357MOL0     H47124   8.584   4.329   0.663 -1.8689  0.9703  0.2953
  358MOL0     O47125   8.282   1.880   3.974  0.9427 -0.0925 -0.4543
  358MOL0     C47126   8.330   1.976   4.035  0.3201 -0.9179 -0.0160
  358MOL0     O47127   8.266   2.067   4.106  0.3582 -0.1680 -0.6654
  358MOL0     C47128   8.127   2.066   4.124 -0.6155  0.1514 -0.6943
  358MOL0     C47129   8.077   2.186   4.178  0.6744 -0.1369 -0.2667
  358MOL0     C47130   7.939   2.210   4.184  0.6516 -0.2529 -0.7964
  358MOL0     C47131   7.842   2.109   4.141  0.4789  0.4986 -0.6706
  358MOL0     O47132   7.711   2.131   4.141  0.6787 -0.2818  0.2895
  358MOL0     C47133   7.613   2.028   4.191  0.0738 -0.5471  0.0493
  358MOL0     C47134   7.467   2.059   4.135  0.7263 -0.1838  1.0262
  358MOL0     C47135   7.449   2.053   3.980 -0.1061  0.1140 -0.0976
  358MOL0     C47136   7.366   2.157   3.916  0.5579 -0.0018 -0.3944
  358MOL0     C47137   7.383   2.172   3.769 -0.0764 -1.2050 -0.1419
  358MOL0     C47138   7.305   2.072   3.687 -0.0510 -0.3233  0.7304
  358MOL0     C47139   7.284   2.126   3.542 -0.2789 -0.8111 -0.0369
  358MOL0     C47140   7.211   2.046   3.439  0.7194  0.2575  0.1829
  358MOL0     N47141   7.273   1.929   3.387  0.0356 -0.1751  0.2739
  358MOL0     C47142   7.221   1.810   3.410  0.5752  0.3504 -0.1589
  358MOL0     C47143   7.285   1.724   3.331 -0.2796 -0.1046  0.1940
  358MOL0     C47144   7.278   1.577   3.308  0.1634 -0.1972  0.1805
  358MOL0     C47145   7.293   1.551   3.161  0.1593 -0.4380  0.1651
  358MOL0     C47146   7.276   1.402   3.115 -0.3404 -0.7868 -0.7094
  358MOL0     C47147   7.131   1.346   3.150  0.5964 -0.2985 -1.3863
  358MOL0     O47148   7.046   1.428   3.077  0.1841 -0.9418 -0.0597
  358MOL0     C47149   6.909   1.400   3.101  0.0913 -0.3927  0.5270
  358MOL0     C47150   6.813   1.489   3.055  0.0844  0.2029  0.5780
  358MOL0     C47151   6.677   1.452   3.062 -0.1586  0.2086  0.0821
  358MOL0     C47152   6.635   1.331   3.113  0.6908  0.3130 -0.0876
  358MOL0     C47153   6.487   1.298   3.117  0.1345 -0.4339  0.3834
  358MOL0     O47154   6.405   1.369   3.022 -0.1401  0.4271 -0.8569
  358MOL0     C47155   6.264   1.352   3.013  1.1977  0.7264  0.4442
  358MOL0     C47156   6.194   1.436   2.922 -0.4784  0.4280 -1.2570
  358MOL0     C47157   6.059   1.427   2.907 -0.5338 -0.1000 -0.1166
  358MOL0     C47158   5.983   1.328   2.980  0.1800 -0.2827  0.4382
  358MOL0     O47159   5.850   1.301   2.953  0.4367  0.0173  0.3358
  358MOL0     C47160   5.766   1.419   2.935  0.6385 -0.3937 -0.4811
  358MOL0     C47161   5.620   1.393   2.980 -0.4540 -0.0903 -0.5306
  358MOL0     C47162   5.515   1.497   2.937  0.8942 -0.4269 -0.7098
  358MOL0     C47163   5.382   1.466   2.997 -0.6921 -0.1693  0.0411
  358MOL0     C47164   5.265   1.561   2.972 -0.1742  0.2413 -0.0340
  358MOL0     C47165   5.166   1.540   3.085  0.0348  0.6527  0.1788
  358MOL0     C47166   5.048   1.635   3.063 -0.0050 -0.6313 -0.0389
  358MOL0     C47167   4.922   1.607   3.146 -0.3597 -0.3920  0.4224
  358MOL0    Cl47168   4.806   1.743   3.133 -0.1604  0.1870  0.3115
  358MOL0     C47169   6.054   1.247   3.073  0.3570 -0.5963 -0.4185
  358MOL0     C47170   6.193   1.252   3.080 -0.0153 -1.2250  0.1872
  358MOL0     O47171   6.450   1.228   3.207 -0.4060 -0.2526 -0.0144
  358MOL0     C47172   6.730   1.242   3.172  0.2576  0.1745  0.5257
  358MOL0     C47173   6.867   1.280   3.162 -0.3583  0.1918 -0.0328
  358MOL0     N47174   7.391   1.793   3.274  0.1911 -0.1507  0.2322
  358MOL0     N47175   7.382   1.915   3.309  0.0749 -0.0685  0.2909
  358MOL0     C47176   7.896   1.989   4.094  0.3517  0.4706 -0.4829
  358MOL0     C47177   8.032   1.968   4.089 -0.3473 -0.4308  0.0052
  358MOL0     C47178   8.478   2.002   4.021 -0.0510  0.2744  0.9850
  358MOL0     C47179   8.528   2.132   4.033 -0.3024  1.6708  0.3131
  358MOL0     C47180   8.665   2.158   4.021 -0.3583 -0.3478  0.2502
  358MOL0     C47181   8.755   2.055   3.981  0.1014 -1.0376 -0.4456
  358MOL0     O47182   8.890   2.080   3.957  0.4655  0.5238 -0.1499
  358MOL0     C47183   8.947   2.202   3.978  0.7481  0.3199 -0.2783
  358MOL0     C47184   9.100   2.200   3.975 -0.4052 -0.5681  0.4110
  358MOL0     C47185   9.151   2.168   3.833  0.0932 -0.3787  0.1659
  358MOL0     C47186   9.298   2.206   3.816  0.0367  0.7197  0.3791
  358MOL0     C47187   9.389   2.138   3.914  0.3947 -0.1905  0.7315
  358MOL0     C47188   9.456   2.061   3.982 -0.6895 -0.1634 -0.0086
  358MOL0     C47189   8.704   1.930   3.959 -0.4830 -0.8896 -0.0338
  358MOL0     C47190   8.571   1.905   3.981 -0.4720  0.2684  0.3235
  358MOL0     H47191   8.143   2.264   4.213  1.9816 -1.0733 -0.5559
  358MOL0     H47192   7.896   2.295   4.235  0.9307  0.3667 -1.5677
  358MOL0     H47193   7.600   2.029   4.299 -2.2876  0.4785 -0.1773
  358MOL0     H47194   7.655   1.930   4.168 -1.3639 -1.0525 -0.5146
  358MOL0     H47195   7.433   2.157   4.171 -1.8846 -0.0918 -1.4262
  358MOL0     H47196   7.397   1.984   4.171 -1.4421  0.0667 -2.3410
  358MOL0     H47197   7.416   1.953   3.949  1.2414 -0.2489 -0.4209
  358MOL0     H47198   7.543   2.050   3.924 -1.9590  0.1621 -3.4793
  358MOL0     H47199   7.261   2.131   3.931  0.3998 -0.2805 -1.8334
  358MOL0     H47200   7.386   2.253   3.964 -0.2569  0.8568 -1.6994
  358MOL0     H47201   7.489   2.160   3.744  0.4063  0.3793  1.0399
  358MOL0     H47202   7.354   2.271   3.732 -3.3193 -2.2988 -0.8244
  358MOL0     H47203   7.207   2.048   3.731 -0.8871 -0.9656 -1.3681
  358MOL0     H47204   7.363   1.979   3.682  0.2968 -0.0534 -0.4329
  358MOL0     H47205   7.217   2.213   3.553  1.5904  0.5064  1.5125
  358MOL0     H47206   7.381   2.160   3.504 -0.6349  0.5777  0.2109
  358MOL0     H47207   7.184   2.108   3.353  0.8342 -0.4953 -0.3943
  358MOL0     H47208   7.122   2.016   3.495  0.4064  0.8445  0.0060
  358MOL0     H47209   7.140   1.794   3.480 -0.3375  1.9236 -0.8150
  358MOL0     H47210   7.179   1.549   3.345 -1.0447  3.8795  0.5436
  358MOL0     H47211   7.354   1.515   3.356  1.2278  1.1307  0.2681
  358MOL0     H47212   7.392   1.581   3.126  0.8452  0.6880  2.7990
  358MOL0     H47213   7.213   1.603   3.107 -0.0564 -1.7341 -0.8209
  358MOL0     H47214   7.300   1.401   3.009  1.3283  1.0780 -0.4003
  358MOL0     H47215   7.352   1.340   3.164 -1.9163 -2.0052  0.3309
  358MOL0     H47216   7.109   1.357   3.257  1.9426  1.9483 -1.2905
  358MOL0     H47217   7.114   1.239   3.134 -1.8470  0.2140 -2.6061
  358MOL0     H47218   6.848   1.569   2.991 -0.0113 -1.9729 -2.4543
  358MOL0     H47219   6.607   1.521   3.017 -1.4756  0.0333  1.7536
  358MOL0     H47220   6.249   1.518   2.877  2.1242  0.8671  2.2449
  358MOL0     H47221   6.008   1.487   2.832 -1.4821  0.0389  0.6157
  358MOL0     H47222   5.765   1.442   2.828 -0.5086 -3.1994 -1.1754
  358MOL0     H47223   5.812   1.493   3.001  1.7946 -3.2111  2.1102
  358MOL0     H47224   5.617   1.389   3.090 -0.6910 -0.3749 -0.5444
  358MOL0     H47225   5.585   1.303   2.929 -1.2541 -0.2897  0.3173
  358MOL0     H47226   5.513   1.508   2.829 -2.7518  0.4668 -0.6660
  358MOL0     H47227   5.550   1.593   2.975 -0.2192 -1.1057  2.3188
  358MOL0     H47228   5.349   1.368   2.960  0.7247  0.2538 -2.5704
  358MOL0     H47229   5.403   1.456   3.104  2.1926 -0.4237 -0.4587
  358MOL0     H47230   5.231   1.544   2.869 -1.8970  1.4459  0.2966
  358MOL0     H47231   5.309   1.661   2.966 -0.0178  0.1163 -1.6014
  358MOL0     H47232   5.208   1.560   3.184  1.0808 -0.5714 -0.0021
  358MOL0     H47233   5.128   1.438   3.092  0.5888  0.4626  0.4472
  358MOL0     H47234   5.065   1.742   3.056 -0.9552 -0.5681 -5.1431
  358MOL0     H47235   5.022   1.617   2.958 -0.6038  0.5901 -0.1041
  358MOL0     H47236   4.945   1.601   3.253 -0.3269  1.7741  0.5758
  358MOL0     H47237   4.891   1.510   3.106  0.6813 -1.0147  1.0794
  358MOL0     H47238   6.001   1.172   3.132 -0.0157 -0.1821 -0.2235
  358MOL0     H47239   6.242   1.183   3.149  4.7797  0.4096 -1.1356
  358MOL0     H47240   6.710   1.141   3.208  1.3081 -0.7928 -1.4088
  358MOL0     H47241   6.931   1.211   3.216  0.0516  2.0032  1.9346
  358MOL0     H47242   7.822   1.917   4.058 -1.9935  2.0132  0.9609
  358MOL0     H47243   8.057   1.872   4.046  0.9971 -0.6673  1.2511
  358MOL0     H47244   8.466   2.217   4.058  1.0729  2.2468  1.9919
  358MOL0     H47245   8.705   2.259   4.029 -1.8412  0.7015 -3.3860
  358MOL0     H47246   8.902   2.239   4.071  0.1661 -1.7270  0.3069
  358MOL0     H47247   8.919   2.270   3.897  0.4575  0.3316 -0.1694
  358MOL0     H47248   9.140   2.292   4.019 -2.2479  0.4514  0.0698
  358MOL0     H47249   9.140   2.131   4.050  2.3612 -1.7650 -1.9352
  358MOL0     H47250   9.091   2.227   3.764  0.3043 -0.1793  0.1525
  358MOL0     H47251   9.137   2.060   3.818  0.3416 -0.5649  1.1370
  358MOL0     H47252   9.329   2.173   3.717  2.8346  0.5148  1.2180
  358MOL0     H47253   9.307   2.315   3.819 -3.3427  1.1402 -1.1713
  358MOL0     H47254   9.490   1.986   4.050 -0.7685 -0.5737 -0.4162
  358MOL0     H47255   8.767   1.852   3.916  4.1539  2.0366  0.8103
  358MOL0     H47256   8.530   1.811   3.945 -0.4296 -0.6125  2.4210
  359MOL0     O47257   0.673   8.066   9.627  1.2155  0.2184  0.5876
  359MOL0     C47258   0.683   8.012   9.735  0.1091 -0.3140 -0.4281
  359MOL0     O47259   0.586   7.936   9.791  0.0034 -0.3124  0.1156
  359MOL0     C47260   0.503   7.870   9.703  0.9792 -0.8651  0.3355
  359MOL0     C47261   0.385   7.820   9.763 -0.0561 -0.0250 -0.0348
  359MOL0     C47262   0.289   7.745   9.702  0.0696 -0.5537 -0.5608
  359MOL0     C47263   0.309   7.698   9.563 -0.7941  0.1205 -0.6057
  359MOL0     O47264   0.201   7.635   9.499 -0.2114  0.2418 -0.2555
  359MOL0     C47265   0.217   7.615   9.357  0.5772  0.4228  0.3471
  359MOL0     C47266   0.094   7.545   9.303  0.0876 -0.4173  0.5750
  359MOL0     C47267  -0.016   7.650   9.280  0.8107  1.0012  0.2100
  359MOL0     C47268  -0.146   7.593   9.214 -0.2709 -0.2680  0.0734
  359MOL0     C47269  -0.248   7.712   9.179 -1.1257  0.7255 -0.5905
  359MOL0     C47270  -0.372   7.660   9.119  0.2127 -0.3349  0.5224
  359MOL0     C47271  -0.353   7.629   8.972 -1.1688  0.5065 -0.0190
  359MOL0     C47272  -0.494   7.584   8.912 -0.4153  0.5669  0.2602
  359MOL0     N47273  -0.481   7.581   8.772  0.4177  0.1939 -0.3592
  359MOL0     C47274  -0.493   7.469   8.691  0.3215 -0.6133 -0.3389
  359MOL0     C47275  -0.454   7.506   8.570 -0.3651 -0.1903  0.1724
  359MOL0     C47276  -0.454   7.416   8.444 -0.5542  0.0836  0.0793
  359MOL0     C47277  -0.527   7.488   8.338  1.1706  0.1179  0.1028
  359MOL0     C47278  -0.511   7.421   8.194 -0.0284  0.8446 -0.0034
  359MOL0     C47279  -0.560   7.281   8.175  0.4500  0.2791  0.8899
  359MOL0     O47280  -0.568   7.250   8.036 -0.1397 -0.2676 -0.9508
  359MOL0     C47281  -0.671   7.170   7.994 -0.5961 -0.1617 -0.0281
  359MOL0     C47282  -0.717   7.063   8.065  0.3719 -0.2034  0.1256
  359MOL0     C47283  -0.830   6.986   8.026 -0.2576  0.2860 -0.4537
  359MOL0     C47284  -0.904   7.027   7.917  0.3244  0.6679 -0.3425
  359MOL0     C47285  -1.027   6.959   7.875 -0.4915  0.2672 -0.2463
  359MOL0     O47286  -1.124   7.036   7.818 -0.1726  0.1785 -0.0349
  359MOL0     C47287  -1.207   6.961   7.740  0.2655 -0.6314 -0.2079
  359MOL0     C47288  -1.317   6.909   7.803  0.5867 -0.1451  0.2467
  359MOL0     C47289  -1.401   6.813   7.744  0.9206 -0.4794  1.6261
  359MOL0     C47290  -1.365   6.759   7.617 -0.0202 -0.4552 -0.4825
  359MOL0     O47291  -1.436   6.658   7.561 -0.2311 -0.5400 -0.3304
  359MOL0     C47292  -1.474   6.677   7.419  0.3799  0.2260  0.6686
  359MOL0     C47293  -1.596   6.595   7.395 -0.6722 -0.0791  0.4325
  359MOL0     C47294  -1.714   6.637   7.478  0.8138  0.5606  0.6024
  359MOL0     C47295  -1.750   6.548   7.605 -0.3044  0.5854  0.7175
  359MOL0     C47296  -1.809   6.414   7.557  0.4629  0.4806 -0.3332
  359MOL0     C47297  -1.855   6.332   7.668 -0.5863  0.3295  0.4093
  359MOL0     C47298  -1.998   6.370   7.711  0.4341  0.3549 -0.2527
  359MOL0     C47299  -2.042   6.302   7.843 -0.8654  0.7197 -0.7218
  359MOL0    Cl47300  -2.083   6.128   7.814 -0.2130  0.0142 -0.1876
  359MOL0     C47301  -1.253   6.816   7.547 -0.6554 -0.0033 -0.0332
  359MOL0     C47302  -1.177   6.916   7.609 -0.4825 -0.7814 -0.0337
  359MOL0     O47303  -1.040   6.841   7.891  0.1065 -0.6776  0.3545
  359MOL0     C47304  -0.869   7.144   7.851 -1.2955  0.8804 -0.7646
  359MOL0     C47305  -0.748   7.214   7.883 -0.0249  0.4252 -0.1455
  359MOL0     N47306  -0.428   7.644   8.571 -0.2701  0.2780  0.8006
  359MOL0     N47307  -0.444   7.683   8.689  0.5223  0.1011  0.2168
  359MOL0     C47308   0.434   7.738   9.502  0.5767  0.0088 -0.6168
  359MOL0     C47309   0.519   7.825   9.568 -0.4852  0.1847 -0.2081
  359MOL0     C47310   0.803   8.040   9.816  0.7841 -0.2106  0.0508
  359MOL0     C47311   0.900   8.139   9.772  0.1502 -0.0944  0.4997
  359MOL0     C47312   1.019   8.157   9.840  0.1913 -0.2307  0.2557
  359MOL0     C47313   1.034   8.093   9.965 -0.7990  0.7233  0.3671
  359MOL0     O47314   1.137   8.112  10.060 -0.1825  0.4740  0.5699
  359MOL0     C47315   1.242   8.204  10.033  0.3634 -0.2774  1.1192
  359MOL0     C47316   1.324   8.248  10.154 -0.6071  0.6680 -0.2943
  359MOL0     C47317   1.439   8.344  10.117 -0.2010 -0.1785 -0.6731
  359MOL0     C47318   1.547   8.352  10.227 -0.3970 -0.0917  0.9433
  359MOL0     C47319   1.622   8.226  10.226  0.3376 -0.5853  0.6122
  359MOL0     C47320   1.701   8.134  10.220  0.0791 -0.4578 -0.2863
  359MOL0     C47321   0.946   7.999  10.011  0.4055 -0.2986  0.5722
  359MOL0     C47322   0.831   7.971   9.935 -0.5811 -0.0498  0.9306
  359MOL0     H47323   0.360   7.849   9.865 -2.6191  2.3859 -1.2090
  359MOL0     H47324   0.196   7.708   9.744 -0.8552  0.3453 -1.7187
  359MOL0     H47325   0.299   7.551   9.325  0.0398 -0.7298  1.1905
  359MOL0     H47326   0.219   7.714   9.311 -1.4111  0.6611  0.6633
  359MOL0     H47327   0.051   7.474   9.374 -1.5617  0.6650  0.7017
  359MOL0     H47328   0.123   7.494   9.211 -0.1157  0.4652  0.0070
  359MOL0     H47329   0.032   7.729   9.222 -0.4375  1.3924 -0.3136
  359MOL0     H47330  -0.041   7.696   9.376  2.2622  3.6019 -0.5675
  359MOL0     H47331  -0.117   7.544   9.120 -0.6291  3.2954 -2.1071
  359MOL0     H47332  -0.192   7.517   9.278 -1.4248  0.1145 -0.2636
  359MOL0     H47333  -0.197   7.781   9.112  0.9934 -0.6748 -0.5412
  359MOL0     H47334  -0.277   7.762   9.271  0.6531  0.8953 -0.0876
  359MOL0     H47335  -0.450   7.735   9.132  0.6711 -0.1175  2.1390
  359MOL0     H47336  -0.398   7.577   9.186  2.6585 -0.6611  1.1888
  359MOL0     H47337  -0.324   7.721   8.921  0.1573  1.2375  1.9509
  359MOL0     H47338  -0.285   7.545   8.955 -1.5411 -0.0837  1.2702
  359MOL0     H47339  -0.575   7.652   8.940  0.4780  1.5082  0.6163
  359MOL0     H47340  -0.523   7.489   8.959  2.1411  0.7006  2.3597
  359MOL0     H47341  -0.516   7.371   8.730  2.9698 -1.3615 -0.4819
  359MOL0     H47342  -0.489   7.313   8.458 -1.0537  0.0771 -1.1259
  359MOL0     H47343  -0.347   7.419   8.423 -0.2797 -2.1204  0.8569
  359MOL0     H47344  -0.489   7.590   8.331 -0.7976  1.0299  1.7630
  359MOL0     H47345  -0.633   7.491   8.365  1.6964  1.9321  2.1925
  359MOL0     H47346  -0.572   7.473   8.120  0.1770  0.0209 -0.7745
  359MOL0     H47347  -0.406   7.433   8.166  0.5271 -1.8378  0.5771
  359MOL0     H47348  -0.658   7.281   8.222 -0.3908  3.1821 -0.6116
  359MOL0     H47349  -0.493   7.209   8.223  1.1528 -1.1964 -2.0269
  359MOL0     H47350  -0.659   7.036   8.153  1.6198 -0.3519 -0.7265
  359MOL0     H47351  -0.850   6.895   8.083  0.0571  0.9105  0.6853
  359MOL0     H47352  -1.326   6.942   7.906  3.1558 -1.9006  1.1650
  359MOL0     H47353  -1.488   6.768   7.792 -1.4325  3.3668  1.3736
  359MOL0     H47354  -1.397   6.643   7.350  0.0862 -1.2162  1.0299
  359MOL0     H47355  -1.495   6.783   7.398 -0.0724  0.0257  0.0874
  359MOL0     H47356  -1.572   6.489   7.410 -0.7931  0.1469  2.5712
  359MOL0     H47357  -1.628   6.613   7.292 -0.5566  1.6509  0.6790
  359MOL0     H47358  -1.810   6.628   7.426  1.8072 -2.0729 -0.9352
  359MOL0     H47359  -1.708   6.742   7.508 -2.4309  1.0783 -0.1605
  359MOL0     H47360  -1.661   6.540   7.669 -0.3340  0.8775  0.7953
  359MOL0     H47361  -1.823   6.603   7.665 -1.4588 -0.3449  0.2088
  359MOL0     H47362  -1.743   6.353   7.495  1.2041 -1.4646  2.1703
  359MOL0     H47363  -1.898   6.429   7.496 -2.0944 -0.5101  2.8407
  359MOL0     H47364  -1.773   6.348   7.739  1.8906  2.9210 -2.7482
  359MOL0     H47365  -1.858   6.227   7.636  2.4557  0.5173 -0.8560
  359MOL0     H47366  -2.011   6.477   7.726 -0.8010 -0.0414  1.7919
  359MOL0     H47367  -2.070   6.353   7.631 -1.7901  0.9957  1.5339
  359MOL0     H47368  -2.138   6.346   7.872 -0.7832 -0.0735  0.8291
  359MOL0     H47369  -1.962   6.305   7.918 -1.7684 -1.9357  0.4386
  359MOL0     H47370  -1.217   6.782   7.450  2.0980 -1.0898  1.2403
  359MOL0     H47371  -1.086   6.954   7.565 -1.0512  0.6685 -0.0120
  359MOL0     H47372  -0.923   7.181   7.765 -0.1506 -1.7091 -2.7235
  359MOL0     H47373  -0.707   7.298   7.827 -3.2090  1.6104 -0.9237
  359MOL0     H47374   0.465   7.696   9.407  0.2762  1.8824 -1.5851
  359MOL0     H47375   0.607   7.860   9.515  0.1300 -1.8948 -0.6376
  359MOL0     H47376   0.871   8.197   9.685  2.3631  1.1146  0.5113
  359MOL0     H47377   1.086   8.239   9.814  0.2325  0.4451  2.2901
  359MOL0     H47378   1.210   8.299   9.989  0.8604 -0.3436  0.6071
  359MOL0     H47379   1.307   8.164   9.955 -2.0146 -0.6750 -0.7626
  359MOL0     H47380   1.258   8.299  10.224  0.3754 -0.1021  1.2341
  359MOL0     H47381   1.359   8.157  10.203 -0.9522  1.1996  0.9808
  359MOL0     H47382   1.398   8.445  10.111 -0.0964  0.0908  1.8707
  359MOL0     H47383   1.490   8.323  10.023  1.9401 -2.5468  0.8836
  359MOL0     H47384   1.618   8.433  10.207  2.0737 -1.6399  2.8469
  359MOL0     H47385   1.499   8.373  10.323 -2.2932  3.7199 -0.6262
  359MOL0     H47386   1.785   8.070  10.203  0.4793  0.8119 -3.7755
  359MOL0     H47387   0.963   7.959  10.111  2.2978  1.7368  1.1274
  359MOL0     H47388   0.761   7.894   9.965 -1.3784  0.7799  1.2652
  360MOL0     O47389   9.889   5.636   5.433  0.4744 -0.2865 -0.5562
  360MOL0     C47390   9.894   5.547   5.354 -0.9321 -0.4317  1.1869
  360MOL0     O47391   9.792   5.466   5.313  0.6122 -0.5679 -0.0395
  360MOL0     C47392   9.668   5.494   5.363  0.9132  0.3568 -0.6534
  360MOL0     C47393   9.625   5.448   5.492  0.1475  0.3142  0.8603
  360MOL0     C47394   9.499   5.479   5.546 -0.2299 -0.0906  0.6037
  360MOL0     C47395   9.409   5.548   5.464  1.2709  0.1829  0.1407
  360MOL0     O47396   9.274   5.566   5.487 -0.1006 -0.4150 -0.1059
  360MOL0     C47397   9.212   5.522   5.612  0.1339 -0.6436  1.0622
  360MOL0     C47398   9.057   5.554   5.596  0.6221  0.9026  0.5438
  360MOL0     C47399   8.985   5.521   5.723  0.1379 -0.3404 -0.5985
  360MOL0     C47400   8.851   5.578   5.715 -0.5367 -0.3765  1.0295
  360MOL0     C47401   8.756   5.517   5.824 -0.7053  0.5780  0.0396
  360MOL0     C47402   8.612   5.539   5.791  0.3079 -0.4473 -0.4065
  360MOL0     C47403   8.525   5.488   5.911 -0.5185  0.4770  0.3899
  360MOL0     C47404   8.377   5.478   5.879 -0.1708 -0.9344  1.0349
  360MOL0     N47405   8.299   5.589   5.928  0.0988 -0.5037 -0.0304
  360MOL0     C47406   8.159   5.591   5.914  0.3299 -0.0553 -0.0674
  360MOL0     C47407   8.112   5.709   5.966  0.1152  0.0914  0.3831
  360MOL0     C47408   7.979   5.778   5.977  1.0367  0.3650 -0.2285
  360MOL0     C47409   7.980   5.920   6.032 -0.4075  0.1794  0.2718
  360MOL0     C47410   7.838   5.980   6.031 -0.0671 -0.2173 -0.0541
  360MOL0     C47411   7.743   5.911   6.135 -0.2360  0.4847  0.0080
  360MOL0     O47412   7.638   6.007   6.141 -0.1302 -0.1869  0.6022
  360MOL0     C47413   7.563   6.013   6.251 -0.4956 -1.1501  0.1897
  360MOL0     C47414   7.457   6.099   6.240  0.0263 -0.3034  0.3752
  360MOL0     C47415   7.361   6.098   6.332  0.3066 -0.1711 -0.3657
  360MOL0     C47416   7.370   6.009   6.443  0.9876  0.4425 -0.2252
  360MOL0     C47417   7.255   6.010   6.534  0.4972  0.4561 -0.2960
  360MOL0     O47418   7.137   6.082   6.506 -0.4936 -0.2100 -0.3805
  360MOL0     C47419   7.029   6.086   6.586  0.6853  0.4349  1.2975
  360MOL0     C47420   6.898   6.066   6.539  0.0301 -0.2672  0.4228
  360MOL0     C47421   6.791   6.087   6.621  1.0331  1.1528  0.2849
  360MOL0     C47422   6.810   6.140   6.751  0.2919 -0.1723  1.2440
  360MOL0     O47423   6.705   6.148   6.830  0.5618  0.0734 -0.0501
  360MOL0     C47424   6.627   6.264   6.803  0.5159  0.4497  0.2998
  360MOL0     C47425   6.493   6.259   6.884 -0.7052 -0.6640  1.0437
  360MOL0     C47426   6.408   6.382   6.851  0.0891 -0.2264  0.1836
  360MOL0     C47427   6.276   6.391   6.950  0.3937 -0.1886  0.1077
  360MOL0     C47428   6.185   6.513   6.910 -0.3656  0.4403  0.5679
  360MOL0     C47429   6.097   6.493   6.782 -0.2775  0.6875  0.7630
  360MOL0     C47430   6.021   6.616   6.732  0.2163  0.1543 -0.2259
  360MOL0     C47431   5.950   6.598   6.587  0.1270 -0.8351 -0.4714
  360MOL0    Cl47432   6.065   6.526   6.476  0.5123  0.0359  0.1766
  360MOL0     C47433   6.941   6.163   6.796  0.1318  0.5394 -0.2036
  360MOL0     C47434   7.050   6.135   6.713 -0.5719 -0.4734  0.8657
  360MOL0     O47435   7.269   5.938   6.635 -0.3010 -0.1179 -0.6327
  360MOL0     C47436   7.479   5.928   6.464 -0.3676  0.0536  0.0790
  360MOL0     C47437   7.573   5.926   6.365  0.3554 -0.8137 -0.0716
  360MOL0     N47438   8.230   5.777   6.008 -0.1107 -0.2779 -0.2128
  360MOL0     N47439   8.339   5.700   6.001  0.2552  0.0871 -0.3785
  360MOL0     C47440   9.450   5.602   5.340 -1.0377  0.2824  0.1280
  360MOL0     C47441   9.575   5.574   5.294 -0.8514 -0.6247  0.3331
  360MOL0     C47442  10.026   5.503   5.312 -0.2814 -0.5453  0.5095
  360MOL0     C47443  10.148   5.574   5.342  0.3122 -0.3273 -0.9121
  360MOL0     C47444  10.274   5.535   5.296 -0.4837 -0.0643  0.1196
  360MOL0     C47445  10.281   5.409   5.234 -0.3863  0.3018  0.3203
  360MOL0     O47446  10.402   5.374   5.189 -0.5625  0.2587  0.0226
  360MOL0     C47447  10.457   5.265   5.261 -0.3709  0.0616  0.3472
  360MOL0     C47448  10.605   5.234   5.197 -0.2739  0.4434 -0.3435
  360MOL0     C47449  10.702   5.344   5.241 -0.8297  0.5226 -0.2790
  360MOL0     C47450  10.833   5.321   5.168  0.9818  0.0526  0.6339
  360MOL0     C47451  10.922   5.435   5.173  0.7159 -0.0016  1.3301
  360MOL0     C47452  10.999   5.527   5.177 -0.2699 -0.2513 -1.1414
  360MOL0     C47453  10.164   5.345   5.197 -0.2518 -0.2544 -0.1988
  360MOL0     C47454  10.040   5.382   5.238  0.4378  1.1216 -0.4809
  360MOL0     H47455   9.692   5.388   5.551  2.8529  1.5098 -0.8026
  360MOL0     H47456   9.465   5.450   5.645  1.3923 -3.1211  0.3913
  360MOL0     H47457   9.256   5.581   5.693  0.3223 -1.0126  1.2272
  360MOL0     H47458   9.232   5.417   5.632 -0.9429 -0.5526  2.8119
  360MOL0     H47459   9.012   5.495   5.516  2.3142 -2.8082  2.0792
  360MOL0     H47460   9.041   5.658   5.567  2.3019  1.6612  2.0798
  360MOL0     H47461   9.039   5.560   5.810 -0.8349  1.2140 -0.6520
  360MOL0     H47462   8.981   5.412   5.724  1.3232 -0.3960 -0.6663
  360MOL0     H47463   8.862   5.683   5.744 -0.3992 -0.0589 -0.1346
  360MOL0     H47464   8.816   5.571   5.611  0.0118  0.8898  0.7392
  360MOL0     H47465   8.777   5.542   5.928 -0.2515  0.9610 -0.1409
  360MOL0     H47466   8.788   5.412   5.819  1.0590  1.0760  0.2060
  360MOL0     H47467   8.590   5.495   5.694 -1.3290  2.7560 -1.6552
  360MOL0     H47468   8.579   5.643   5.785  0.1422 -0.2515  2.4916
  360MOL0     H47469   8.574   5.392   5.928 -0.2049  0.1938 -1.8672
  360MOL0     H47470   8.541   5.557   5.994  1.6803  1.8217 -1.0606
  360MOL0     H47471   8.332   5.390   5.925  1.0151 -1.8450  0.5285
  360MOL0     H47472   8.354   5.471   5.772 -0.9201  1.5603  0.9747
  360MOL0     H47473   8.091   5.513   5.881 -1.0040  0.9402  0.2253
  360MOL0     H47474   7.906   5.724   6.038  3.5436 -0.3355  2.3870
  360MOL0     H47475   7.928   5.779   5.881 -0.5836 -1.8802  0.5279
  360MOL0     H47476   8.049   5.981   5.974  0.0405  2.1141  2.7043
  360MOL0     H47477   8.017   5.926   6.134  0.5153  2.0366 -0.1389
  360MOL0     H47478   7.854   6.083   6.066 -2.0383 -0.5819  2.1750
  360MOL0     H47479   7.788   5.981   5.934 -1.0265  1.6692  0.4056
  360MOL0     H47480   7.797   5.890   6.227  0.1712  1.4156 -0.0047
  360MOL0     H47481   7.711   5.816   6.091 -2.1025  0.5205  1.2227
  360MOL0     H47482   7.434   6.157   6.151  1.7986  1.6025  1.0721
  360MOL0     H47483   7.277   6.166   6.319 -0.5710 -0.3609  3.1018
  360MOL0     H47484   6.892   6.031   6.437  0.7282  0.6086  0.0610
  360MOL0     H47485   6.693   6.085   6.576  1.9230  2.0508 -1.8564
  360MOL0     H47486   6.602   6.279   6.698  2.1983  0.6086 -0.1073
  360MOL0     H47487   6.676   6.355   6.837 -1.9632  2.9778 -2.3058
  360MOL0     H47488   6.520   6.242   6.989 -2.2754 -2.4574  1.2181
  360MOL0     H47489   6.436   6.173   6.847 -1.6865  1.1450 -1.9468
  360MOL0     H47490   6.382   6.364   6.746  1.9101  0.4158 -0.4245
  360MOL0     H47491   6.470   6.472   6.851  1.3719 -1.0820 -0.7029
  360MOL0     H47492   6.221   6.296   6.955 -0.7629  0.3609 -1.4265
  360MOL0     H47493   6.316   6.408   7.051  0.7277  4.6159 -0.6306
  360MOL0     H47494   6.256   6.595   6.906  2.2473 -1.7117 -0.1521
  360MOL0     H47495   6.118   6.540   6.992  1.3757  3.0345  1.2394
  360MOL0     H47496   6.035   6.405   6.800 -0.0195 -0.4729 -3.1058
  360MOL0     H47497   6.165   6.446   6.710 -0.6589 -1.8205  1.9220
  360MOL0     H47498   5.945   6.640   6.807 -0.5776 -1.3543 -0.4858
  360MOL0     H47499   6.100   6.691   6.726  1.4737 -1.0580  0.3870
  360MOL0     H47500   5.917   6.690   6.539  0.9617  0.3913  1.2016
  360MOL0     H47501   5.860   6.536   6.597  1.2589 -2.2132  2.3350
  360MOL0     H47502   6.957   6.198   6.898 -0.3899 -0.4561  0.2353
  360MOL0     H47503   7.151   6.134   6.753  0.2250 -0.8993 -1.0884
  360MOL0     H47504   7.487   5.860   6.549  0.8608  0.6048  0.4341
  360MOL0     H47505   7.660   5.863   6.384  0.6598  0.0007  1.3934
  360MOL0     H47506   9.381   5.658   5.277 -3.3638 -2.6415 -0.1659
  360MOL0     H47507   9.605   5.621   5.201  2.8142 -1.8221  0.7365
  360MOL0     H47508  10.141   5.656   5.413 -0.0720 -1.6477  0.6290
  360MOL0     H47509  10.363   5.593   5.317  0.9789 -2.4638  0.9192
  360MOL0     H47510  10.391   5.182   5.235 -0.0109  0.1485 -0.9472
  360MOL0     H47511  10.466   5.283   5.368  2.4752 -0.3674  0.2609
  360MOL0     H47512  10.654   5.142   5.229 -0.0071  0.8269  0.3831
  360MOL0     H47513  10.601   5.219   5.089 -0.0943 -3.8574  0.0624
  360MOL0     H47514  10.723   5.372   5.345 -0.0859 -0.5781 -0.1237
  360MOL0     H47515  10.662   5.432   5.190  0.1791  0.5901 -0.9695
  360MOL0     H47516  10.879   5.234   5.216  2.1667  0.6580  0.6139
  360MOL0     H47517  10.817   5.293   5.063  2.6559 -1.1431  0.6441
  360MOL0     H47518  11.065   5.610   5.195 -1.5919  0.0415  3.8749
  360MOL0     H47519  10.178   5.256   5.137 -0.8876 -0.9985  0.7327
  360MOL0     H47520   9.956   5.320   5.209 -0.2811  2.9787 -2.7185
  361MOL0     O47521   4.810   8.258   0.978 -0.3734  0.0251 -0.0060
  361MOL0     C47522   4.850   8.275   1.096  0.7597  0.0482  0.0662
  361MOL0     O47523   4.769   8.263   1.205 -0.9248  0.6182  0.5164
  361MOL0     C47524   4.646   8.215   1.189  0.9931 -0.0205  1.2349
  361MOL0     C47525   4.615   8.087   1.141  0.2229  1.1018 -0.5754
  361MOL0     C47526   4.486   8.039   1.128  0.6120 -1.1626 -0.6449
  361MOL0     C47527   4.382   8.117   1.179 -0.0590  0.2025 -0.0796
  361MOL0     O47528   4.258   8.063   1.155  0.7624 -0.5019  0.5583
  361MOL0     C47529   4.129   8.117   1.195  0.3929 -0.4352  0.2733
  361MOL0     C47530   4.028   8.012   1.153 -0.2963  0.2628 -0.0344
  361MOL0     C47531   3.882   8.062   1.160 -0.7383 -0.2016 -0.2007
  361MOL0     C47532   3.783   7.956   1.114 -0.0388  0.1994  0.0141
  361MOL0     C47533   3.637   7.994   1.134 -0.4984  0.0501 -0.1936
  361MOL0     C47534   3.583   7.981   1.274 -0.5222  0.2496 -0.4487
  361MOL0     C47535   3.428   8.002   1.277  0.0980  0.6069 -0.1158
  361MOL0     C47536   3.351   7.967   1.402 -0.5561 -0.1993 -0.0116
  361MOL0     N47537   3.211   7.999   1.369 -0.3247 -0.5400  0.5905
  361MOL0     C47538   3.153   8.123   1.387 -0.5651 -0.2052 -0.0707
  361MOL0     C47539   3.017   8.105   1.378 -0.0043  0.4058 -0.1218
  361MOL0     C47540   2.919   8.217   1.381  0.1985 -0.5663 -0.1029
  361MOL0     C47541   2.780   8.181   1.439  0.0988  0.2352  0.3015
  361MOL0     C47542   2.676   8.289   1.396  0.2977 -0.2712  0.0617
  361MOL0     C47543   2.525   8.258   1.440  0.1700  0.4869 -0.2749
  361MOL0     O47544   2.439   8.348   1.366  0.8346  0.0212 -0.6686
  361MOL0     C47545   2.371   8.431   1.445 -0.1137 -0.2212 -0.8504
  361MOL0     C47546   2.232   8.430   1.444  0.8241  0.1953  0.0756
  361MOL0     C47547   2.163   8.507   1.534 -0.3053  0.4307  0.4187
  361MOL0     C47548   2.233   8.610   1.603 -0.1591  0.4875 -0.0411
  361MOL0     C47549   2.152   8.702   1.682 -0.9432  0.1154  0.1006
  361MOL0     O47550   2.032   8.661   1.715 -0.2628 -0.0674 -0.3228
  361MOL0     C47551   1.960   8.747   1.798 -0.7224  0.7280  0.5545
  361MOL0     C47552   1.930   8.879   1.758 -0.5263 -0.2298 -0.1257
  361MOL0     C47553   1.861   8.960   1.853 -0.7055 -0.2410 -0.0481
  361MOL0     C47554   1.809   8.899   1.970  0.2669 -0.0163  0.3486
  361MOL0     O47555   1.731   8.961   2.056 -0.3790  0.2160 -0.1849
  361MOL0     C47556   1.627   9.053   2.003 -0.7788  0.3133 -1.0086
  361MOL0     C47557   1.552   9.129   2.120  1.4449 -0.2991  0.0243
  361MOL0     C47558   1.424   9.202   2.074 -0.1976 -0.1552 -0.5688
  361MOL0     C47559   1.321   9.108   2.003  0.3596 -1.0716  0.3991
  361MOL0     C47560   1.177   9.157   2.011  0.0212 -0.1453 -0.8465
  361MOL0     C47561   1.155   9.305   1.973 -0.3136 -0.5376 -0.6850
  361MOL0     C47562   1.207   9.341   1.838  0.2361  0.2079  0.8980
  361MOL0     C47563   1.158   9.474   1.775 -0.5135 -0.0911 -0.3176
  361MOL0    Cl47564   1.005   9.429   1.699  0.1445  0.3183 -0.0825
  361MOL0     C47565   1.832   8.762   2.000  0.3757  0.0830 -0.3861
  361MOL0     C47566   1.907   8.686   1.915  1.0786 -0.4136  1.1992
  361MOL0     O47567   2.211   8.796   1.730  0.3541  0.2527  0.4157
  361MOL0     C47568   2.371   8.625   1.592 -0.1118  0.4940  1.4794
  361MOL0     C47569   2.444   8.531   1.519 -0.1641  0.1510 -0.3997
  361MOL0     N47570   2.994   7.967   1.361 -0.2869  0.0228  0.3251
  361MOL0     N47571   3.117   7.909   1.360  0.9207  0.5114 -0.2336
  361MOL0     C47572   4.405   8.249   1.225  0.0722  0.0676  0.0681
  361MOL0     C47573   4.538   8.292   1.233  1.1698 -0.5234 -0.4407
  361MOL0     C47574   4.995   8.313   1.110  0.7905 -0.9096  0.8734
  361MOL0     C47575   5.057   8.301   1.229  0.0431  0.1208 -0.6192
  361MOL0     C47576   5.199   8.314   1.253  0.0634 -0.5443  0.6486
  361MOL0     C47577   5.281   8.330   1.138  0.2278  0.6321  0.5090
  361MOL0     O47578   5.420   8.328   1.148  0.0022  0.4323  0.1836
  361MOL0     C47579   5.511   8.329   1.040  0.0064  0.3971 -0.0367
  361MOL0     C47580   5.653   8.294   1.077  0.6339  0.3221 -0.1264
  361MOL0     C47581   5.696   8.374   1.197 -0.5086  0.3218  0.2968
  361MOL0     C47582   5.833   8.360   1.240 -0.7784 -0.0221  0.1969
  361MOL0     C47583   5.929   8.432   1.148  0.6523  0.1167 -0.5822
  361MOL0     C47584   6.017   8.481   1.083  0.3180 -0.2213 -0.5733
  361MOL0     C47585   5.213   8.345   1.015  0.2918 -0.6284  0.3568
  361MOL0     C47586   5.069   8.346   1.002 -0.5186  0.5950  0.3394
  361MOL0     H47587   4.694   8.020   1.107  0.4306  0.6450  0.7340
  361MOL0     H47588   4.485   7.949   1.068  0.3556 -1.7500  0.2171
  361MOL0     H47589   4.102   8.207   1.138  1.4659 -1.8551 -2.6508
  361MOL0     H47590   4.138   8.138   1.302  0.1051 -1.4967  0.5139
  361MOL0     H47591   4.052   7.931   1.223  4.2650 -0.8072 -2.4758
  361MOL0     H47592   4.045   7.984   1.049  0.5708  0.3019  0.0878
  361MOL0     H47593   3.871   8.157   1.106  1.7127  0.3513  0.1441
  361MOL0     H47594   3.867   8.084   1.266 -1.1281 -1.7092  0.0731
  361MOL0     H47595   3.803   7.930   1.010  2.4735  0.9800  0.2465
  361MOL0     H47596   3.802   7.864   1.169 -0.0255 -1.1022 -2.0501
  361MOL0     H47597   3.574   7.938   1.065 -0.8249 -0.2355  0.3281
  361MOL0     H47598   3.629   8.101   1.110 -0.4408 -0.0767 -0.7731
  361MOL0     H47599   3.627   8.053   1.344 -1.2685 -1.5511  2.0152
  361MOL0     H47600   3.610   7.881   1.310  0.5563  0.7451  0.1688
  361MOL0     H47601   3.399   8.107   1.264 -2.9484 -0.1320  0.0262
  361MOL0     H47602   3.387   7.936   1.201  2.6606 -0.6960 -0.4745
  361MOL0     H47603   3.381   8.033   1.484  0.4650 -1.2431  0.4886
  361MOL0     H47604   3.370   7.861   1.423  0.7858 -0.2756 -1.4366
  361MOL0     H47605   3.190   8.225   1.390 -0.8825  0.0112 -2.0804
  361MOL0     H47606   2.887   8.246   1.280 -1.4720 -1.0819  0.2529
  361MOL0     H47607   2.959   8.303   1.435  0.5330 -0.1436 -1.0037
  361MOL0     H47608   2.780   8.164   1.547 -1.2189  0.2332  0.3173
  361MOL0     H47609   2.753   8.085   1.393  1.8858 -1.7732  3.1523
  361MOL0     H47610   2.704   8.388   1.435  0.0340 -0.7628  1.5620
  361MOL0     H47611   2.686   8.294   1.287  1.4413  2.9198  0.2008
  361MOL0     H47612   2.531   8.282   1.547  0.8675 -0.4354 -0.1004
  361MOL0     H47613   2.501   8.151   1.431  0.5152  0.4472 -0.7652
  361MOL0     H47614   2.187   8.353   1.381 -2.2936  2.4895 -0.7632
  361MOL0     H47615   2.056   8.489   1.535 -0.7348  2.0849 -3.2318
  361MOL0     H47616   1.963   8.918   1.662  0.2175 -2.1832 -0.7241
  361MOL0     H47617   1.852   9.067   1.838  0.5312 -0.0330  0.5446
  361MOL0     H47618   1.555   8.984   1.958  0.2017  0.5098 -2.9860
  361MOL0     H47619   1.662   9.124   1.928  0.3268  1.7072  0.7526
  361MOL0     H47620   1.606   9.217   2.154 -0.5126  0.4313  1.4311
  361MOL0     H47621   1.530   9.058   2.200  4.2960 -0.6630  0.5911
  361MOL0     H47622   1.443   9.281   2.001 -1.3803 -2.1375 -3.2461
  361MOL0     H47623   1.390   9.241   2.170  1.9614  0.9056 -0.1747
  361MOL0     H47624   1.356   9.083   1.903  3.6394  0.0761  1.1368
  361MOL0     H47625   1.314   9.018   2.064  0.0250  0.2631  2.4284
  361MOL0     H47626   1.139   9.162   2.113 -0.3933  3.5220 -1.0680
  361MOL0     H47627   1.108   9.091   1.958  0.5615 -2.8665  1.5778
  361MOL0     H47628   1.201   9.369   2.049 -0.1373 -0.2300 -1.0453
  361MOL0     H47629   1.047   9.321   1.975 -0.8970 -3.8623  0.4433
  361MOL0     H47630   1.316   9.341   1.840  0.3140 -0.8940 -1.2242
  361MOL0     H47631   1.173   9.261   1.772 -0.4248  0.0878  1.3728
  361MOL0     H47632   1.224   9.503   1.692 -0.5900 -0.6416 -0.5787
  361MOL0     H47633   1.157   9.553   1.850 -0.6839 -2.2379  2.0862
  361MOL0     H47634   1.789   8.714   2.087  0.8592  2.2707  1.1374
  361MOL0     H47635   1.934   8.582   1.934  0.5314 -0.3406  2.4754
  361MOL0     H47636   2.421   8.711   1.634 -0.5483  2.1407 -1.1614
  361MOL0     H47637   2.548   8.558   1.502 -0.1809  0.9124  0.5894
  361MOL0     H47638   4.318   8.312   1.243 -0.5363 -1.0543  1.2591
  361MOL0     H47639   4.551   8.395   1.262 -0.4077  0.0922 -1.6975
  361MOL0     H47640   4.995   8.283   1.316 -2.3648 -1.9394 -2.6255
  361MOL0     H47641   5.250   8.294   1.347  1.0773 -1.4841 -0.0700
  361MOL0     H47642   5.504   8.433   1.007  0.1138  1.0079  1.7720
  361MOL0     H47643   5.486   8.268   0.953  2.5369 -2.7154  1.2388
  361MOL0     H47644   5.657   8.190   1.111  0.4028  0.6236  0.8574
  361MOL0     H47645   5.724   8.313   0.996  1.3110  2.2841  0.8504
  361MOL0     H47646   5.626   8.339   1.274 -0.9034  0.6606  0.0919
  361MOL0     H47647   5.667   8.479   1.189 -1.0493  0.0839 -1.0809
  361MOL0     H47648   5.847   8.404   1.339  4.4405 -1.0077  0.1868
  361MOL0     H47649   5.873   8.258   1.249 -1.1920 -0.9412 -5.1474
  361MOL0     H47650   6.093   8.526   1.023  0.9454  2.9220  2.2729
  361MOL0     H47651   5.267   8.363   0.922 -2.0154  3.3396 -0.4267
  361MOL0     H47652   5.016   8.354   0.907  1.9938 -1.4715 -1.3753
  362MOL0     O47653   3.706   4.561   6.503 -0.2008  0.2344  0.0925
  362MOL0     C47654   3.745   4.681   6.511  0.4561 -0.8612 -0.3655
  362MOL0     O47655   3.663   4.784   6.562 -0.3977  0.3407 -0.9693
  362MOL0     C47656   3.538   4.738   6.584 -0.3445  0.4400 -0.0672
  362MOL0     C47657   3.495   4.719   6.718  0.3737  0.2708 -0.7298
  362MOL0     C47658   3.363   4.677   6.751  1.0796 -0.1086  0.3647
  362MOL0     C47659   3.274   4.650   6.647 -0.8393  0.4335 -0.1326
  362MOL0     O47660   3.145   4.612   6.685 -0.6898  0.1698  0.4668
  362MOL0     C47661   3.039   4.592   6.588 -0.3796  0.0259 -0.1445
  362MOL0     C47662   2.953   4.710   6.544 -0.4757 -0.2176 -0.0319
  362MOL0     C47663   2.924   4.809   6.660 -0.1582  0.5888  0.4869
  362MOL0     C47664   2.849   4.932   6.610 -0.1476 -0.6801 -0.3453
  362MOL0     C47665   2.825   5.032   6.725  0.1094  0.1511  0.5675
  362MOL0     C47666   2.932   5.145   6.747 -0.9443  0.2838  0.0801
  362MOL0     C47667   2.923   5.273   6.663 -0.1437 -0.2244 -0.1277
  362MOL0     C47668   2.792   5.350   6.664  0.9255 -0.1833  1.7198
  362MOL0     N47669   2.740   5.379   6.794 -0.3755  1.0226  0.0543
  362MOL0     C47670   2.728   5.503   6.851  0.7165  0.2111 -0.2290
  362MOL0     C47671   2.674   5.474   6.977  0.3549 -0.1044  0.7678
  362MOL0     C47672   2.633   5.588   7.058 -0.3102  0.2629 -0.0332
  362MOL0     C47673   2.487   5.584   7.087  0.7275 -0.1242  0.0440
  362MOL0     C47674   2.399   5.652   6.980 -0.6157  1.5170  0.3608
  362MOL0     C47675   2.250   5.611   7.007  0.2775 -0.7743  0.0701
  362MOL0     O47676   2.211   5.627   7.149  0.7793 -0.6212 -0.2746
  362MOL0     C47677   2.081   5.598   7.181  0.5125 -0.4696  0.0122
  362MOL0     C47678   2.047   5.578   7.318  1.0070  1.0152 -0.6513
  362MOL0     C47679   1.916   5.546   7.365 -0.3948 -0.3932 -0.7939
  362MOL0     C47680   1.809   5.557   7.272  0.1359  0.0829  0.3093
  362MOL0     C47681   1.670   5.548   7.316 -0.5311 -0.8002 -0.5387
  362MOL0     O47682   1.585   5.516   7.214 -0.8957  0.8906 -0.0322
  362MOL0     C47683   1.454   5.518   7.231  0.5428 -0.4407 -0.5311
  362MOL0     C47684   1.379   5.475   7.119  0.5103 -0.2511 -0.0664
  362MOL0     C47685   1.238   5.473   7.122  0.2809  0.2968  0.0341
  362MOL0     C47686   1.160   5.503   7.232 -0.3270 -1.1110  0.0302
  362MOL0     O47687   1.026   5.497   7.243  0.4747 -0.1412  0.0803
  362MOL0     C47688   0.951   5.437   7.131  0.9651  0.0906 -0.0585
  362MOL0     C47689   0.809   5.416   7.163  0.7664 -0.1349  0.5644
  362MOL0     C47690   0.729   5.346   7.048 -0.4423 -0.4911  0.2269
  362MOL0     C47691   0.586   5.391   7.049  0.9057 -0.1275 -0.5677
  362MOL0     C47692   0.488   5.314   6.948 -0.3204  0.5304  0.2229
  362MOL0     C47693   0.343   5.327   6.988  0.3601  0.0534  0.1147
  362MOL0     C47694   0.260   5.204   6.930  0.3964 -0.2901 -0.8312
  362MOL0     C47695   0.102   5.225   6.922 -0.1525 -0.4327 -0.3248
  362MOL0    Cl47696   0.038   5.362   6.837 -0.5815  0.3133 -0.0465
  362MOL0     C47697   1.231   5.557   7.341  0.8369  0.7509  0.1170
  362MOL0     C47698   1.373   5.558   7.350  0.0115  0.1073  0.8676
  362MOL0     O47699   1.642   5.554   7.437 -1.0105  0.5373 -0.2777
  362MOL0     C47700   1.842   5.576   7.133  0.0986  0.6653  0.4984
  362MOL0     C47701   1.971   5.596   7.091 -1.0731 -0.7289 -0.0321
  362MOL0     N47702   2.628   5.347   6.978 -0.3244 -0.3297  0.1810
  362MOL0     N47703   2.678   5.292   6.873  0.2888 -0.8033 -0.4995
  362MOL0     C47704   3.320   4.660   6.513  0.1208  0.3989 -0.2361
  362MOL0     C47705   3.449   4.700   6.485  0.4626 -0.8733 -0.2401
  362MOL0     C47706   3.885   4.705   6.466 -0.0020 -0.1130 -0.4702
  362MOL0     C47707   3.936   4.834   6.436 -0.9826 -0.1522  0.0104
  362MOL0     C47708   4.063   4.856   6.377  0.1217  0.6834 -0.1422
  362MOL0     C47709   4.148   4.743   6.367  0.2243 -0.5216  0.1652
  362MOL0     O47710   4.278   4.771   6.331 -0.5361  0.6992 -0.0753
  362MOL0     C47711   4.381   4.675   6.360 -0.4093 -0.3990 -0.9359
  362MOL0     C47712   4.526   4.744   6.339 -0.4161  0.1017  0.3444
  362MOL0     C47713   4.541   4.872   6.428 -0.0640  0.8491 -0.2363
  362MOL0     C47714   4.675   4.947   6.407  0.0337  0.0492  0.2021
  362MOL0     C47715   4.790   4.897   6.480 -0.0435 -0.0646  0.5062
  362MOL0     C47716   4.893   4.872   6.536 -0.7832  0.0418  0.3578
  362MOL0     C47717   4.102   4.616   6.407  0.5803  0.4347  0.5392
  362MOL0     C47718   3.965   4.597   6.446 -0.2596  0.1301  0.2750
  362MOL0     H47719   3.559   4.751   6.799 -2.1226  0.4676  1.3116
  362MOL0     H47720   3.340   4.670   6.857 -0.0050 -2.2071  0.0513
  362MOL0     H47721   2.966   4.528   6.639 -1.4308  0.1666 -1.4273
  362MOL0     H47722   3.076   4.537   6.501  3.0168  0.7920  0.6615
  362MOL0     H47723   2.858   4.669   6.509 -0.8125 -0.6805  1.3632
  362MOL0     H47724   3.004   4.757   6.459  0.7187 -1.7756 -0.2373
  362MOL0     H47725   3.014   4.852   6.704 -0.1093  3.0099 -1.6925
  362MOL0     H47726   2.864   4.751   6.730  1.1498 -1.1695  0.2033
  362MOL0     H47727   2.890   4.978   6.519  2.6824 -0.1089  1.1116
  362MOL0     H47728   2.754   4.885   6.580 -0.9045  1.0654 -0.7967
  362MOL0     H47729   2.808   4.975   6.816 -3.3992 -0.9550 -0.6124
  362MOL0     H47730   2.730   5.078   6.696  0.5580 -0.5017 -2.1692
  362MOL0     H47731   3.033   5.104   6.739 -0.0773  2.1362  1.0660
  362MOL0     H47732   2.923   5.168   6.853  2.0094 -0.6642  0.6238
  362MOL0     H47733   3.001   5.339   6.703 -0.0836 -0.1218 -0.4114
  362MOL0     H47734   2.956   5.252   6.560  2.1017 -0.4930  0.5999
  362MOL0     H47735   2.715   5.299   6.605  0.5918  2.6146 -0.4970
  362MOL0     H47736   2.800   5.445   6.610 -0.9601 -1.5258 -1.1844
  362MOL0     H47737   2.763   5.600   6.817  0.2867  0.5785  0.3560
  362MOL0     H47738   2.658   5.684   7.013 -0.4604  0.4915  0.3647
  362MOL0     H47739   2.679   5.561   7.153  1.6824  0.0485 -1.0166
  362MOL0     H47740   2.474   5.642   7.178 -1.0966 -1.1026  0.4513
  362MOL0     H47741   2.452   5.484   7.117  0.9483  0.5002  2.6135
  362MOL0     H47742   2.407   5.761   6.977  0.4912  1.4904  1.4059
  362MOL0     H47743   2.440   5.619   6.884  0.8263  1.4152  0.9795
  362MOL0     H47744   2.247   5.503   6.989  1.8870 -0.9421  0.6402
  362MOL0     H47745   2.190   5.670   6.937  1.2553  0.9031  0.5775
  362MOL0     H47746   2.130   5.574   7.387  0.8690 -0.6049 -0.5375
  362MOL0     H47747   1.903   5.517   7.469  0.3447  1.1672 -0.2502
  362MOL0     H47748   1.432   5.462   7.025  1.3262  1.3191  0.1529
  362MOL0     H47749   1.180   5.435   7.038  0.0283 -1.2177  0.8462
  362MOL0     H47750   0.987   5.334   7.126  0.5926 -0.0953  0.9728
  362MOL0     H47751   0.963   5.498   7.040  0.1199 -0.8574 -0.8208
  362MOL0     H47752   0.753   5.503   7.198 -0.5689 -1.1214  0.9627
  362MOL0     H47753   0.806   5.347   7.247 -1.3995  0.7999  1.3331
  362MOL0     H47754   0.744   5.239   7.062  0.6609 -0.2232  1.3610
  362MOL0     H47755   0.770   5.371   6.950 -0.9039  2.3238  0.6550
  362MOL0     H47756   0.538   5.387   7.147  0.3391 -1.9194 -0.8887
  362MOL0     H47757   0.584   5.495   7.013 -1.0683 -0.3114 -1.0881
  362MOL0     H47758   0.508   5.207   6.942 -0.0045  0.6364 -0.6681
  362MOL0     H47759   0.503   5.363   6.852  1.4440  0.6791  0.5339
  362MOL0     H47760   0.313   5.421   6.940 -1.3222 -1.1466 -1.3330
  362MOL0     H47761   0.325   5.343   7.095 -1.6477 -0.1276 -0.1683
  362MOL0     H47762   0.295   5.167   6.833  3.1328  1.0724 -0.4528
  362MOL0     H47763   0.280   5.112   6.987 -2.0997 -2.4863 -3.2067
  362MOL0     H47764   0.065   5.225   7.025 -0.2306 -4.8811 -0.1934
  362MOL0     H47765   0.049   5.143   6.874 -1.2802  0.6613 -0.9980
  362MOL0     H47766   1.169   5.596   7.422  3.2192  2.7503  1.1030
  362MOL0     H47767   1.422   5.602   7.436  1.9680 -1.3592  0.5933
  362MOL0     H47768   1.761   5.578   7.061 -0.1687  0.1703  0.7763
  362MOL0     H47769   1.977   5.616   6.984  0.1901 -1.0353 -0.0316
  362MOL0     H47770   3.271   4.619   6.425 -0.1097 -0.9441  0.4890
  362MOL0     H47771   3.479   4.703   6.381 -2.9573  2.9116 -1.3624
  362MOL0     H47772   3.862   4.914   6.443  0.7191  1.9209 -3.0384
  362MOL0     H47773   4.096   4.951   6.338  1.7564 -0.3549 -1.4505
  362MOL0     H47774   4.372   4.591   6.292  0.1687 -0.6362 -0.7291
  362MOL0     H47775   4.373   4.636   6.461  0.5854 -0.0068 -0.6884
  362MOL0     H47776   4.600   4.667   6.363  0.4487  0.9539  0.4986
  362MOL0     H47777   4.539   4.759   6.231 -0.2631 -3.8098 -0.3298
  362MOL0     H47778   4.530   4.824   6.526 -0.2124 -0.5635 -0.9185
  362MOL0     H47779   4.460   4.944   6.410 -1.4434  0.2238  2.8218
  362MOL0     H47780   4.687   4.942   6.298  3.3986 -2.3955  0.5345
  362MOL0     H47781   4.657   5.051   6.436  0.5163  0.4227 -0.7697
  362MOL0     H47782   4.981   4.867   6.597 -1.3510 -3.8040  1.0929
  362MOL0     H47783   4.152   4.520   6.398 -2.2884 -1.0886 -0.5148
  362MOL0     H47784   3.921   4.500   6.465 -1.7514  0.2482 -2.1533
  363MOL0     O47785   2.942   7.676   0.980  0.0404  0.0243  0.6150
  363MOL0     C47786   3.016   7.572   0.987  0.8502  0.4728 -0.2676
  363MOL0     O47787   2.969   7.446   1.002  0.4888  0.1361  0.2400
  363MOL0     C47788   2.848   7.404   1.042 -0.0495 -0.6794 -0.0678
  363MOL0     C47789   2.784   7.463   1.149  0.4151  0.5502 -0.1141
  363MOL0     C47790   2.666   7.405   1.213 -0.1046 -0.6542 -0.0610
  363MOL0     C47791   2.612   7.284   1.155 -0.0883 -0.1641  0.0984
  363MOL0     O47792   2.507   7.216   1.204 -1.2176 -0.1012  0.3201
  363MOL0     C47793   2.393   7.286   1.252  0.1995  0.0089  0.7410
  363MOL0     C47794   2.300   7.355   1.143 -0.2693 -0.3373  1.2005
  363MOL0     C47795   2.210   7.255   1.065  0.5875  0.1470 -0.8394
  363MOL0     C47796   2.098   7.200   1.161 -0.9396 -0.1041  0.0323
  363MOL0     C47797   2.015   7.106   1.066  0.9381 -0.4506  0.0523
  363MOL0     C47798   1.914   7.015   1.149  0.6417  0.1925 -0.4209
  363MOL0     C47799   1.797   6.957   1.074 -0.3077 -1.6082  0.1040
  363MOL0     C47800   1.704   6.868   1.161  0.2729 -0.3202 -0.1206
  363MOL0     N47801   1.560   6.895   1.158 -0.1186  0.0414  0.2881
  363MOL0     C47802   1.474   6.914   1.055  0.6620 -0.1280 -0.0664
  363MOL0     C47803   1.351   6.940   1.109  0.2639 -0.3706  0.3206
  363MOL0     C47804   1.226   6.964   1.029  0.3533  0.7344 -0.0515
  363MOL0     C47805   1.231   7.095   0.961  0.0050 -0.3883  0.8479
  363MOL0     C47806   1.100   7.121   0.888  0.2479  0.9828  0.0931
  363MOL0     C47807   0.981   7.119   0.993 -0.1407 -0.8267 -0.1742
  363MOL0     O47808   0.869   7.133   0.901  0.4345 -0.8688 -0.1122
  363MOL0     C47809   0.759   7.071   0.943 -0.0400  0.7374  0.1618
  363MOL0     C47810   0.637   7.130   0.967  0.4977 -0.1993 -0.6769
  363MOL0     C47811   0.518   7.055   0.989 -0.4823  0.0795  0.0754
  363MOL0     C47812   0.530   6.911   1.001  0.2265 -0.1440 -0.1735
  363MOL0     C47813   0.404   6.831   1.002  0.0578 -0.0259  0.3898
  363MOL0     O47814   0.406   6.706   0.951 -0.4707 -0.0850 -0.5611
  363MOL0     C47815   0.297   6.632   0.973  0.5331  0.4429  1.1039
  363MOL0     C47816   0.312   6.498   1.008 -0.3970  0.0230  0.5419
  363MOL0     C47817   0.200   6.412   1.014 -0.0559 -0.4922  0.3384
  363MOL0     C47818   0.071   6.454   0.973 -0.5401  0.0620 -0.2466
  363MOL0     O47819  -0.042   6.379   0.972 -0.0150  0.0692 -0.2005
  363MOL0     C47820  -0.027   6.237   0.968 -0.6099  0.3206 -0.1229
  363MOL0     C47821  -0.153   6.163   0.919 -0.0437 -0.2764 -0.2468
  363MOL0     C47822  -0.148   6.015   0.963  0.3652  0.2312 -0.6944
  363MOL0     C47823  -0.018   5.946   0.929 -0.6042 -0.1479  0.9380
  363MOL0     C47824  -0.030   5.794   0.906  0.1173  0.1010  0.1361
  363MOL0     C47825  -0.067   5.729   1.041  0.2871  0.8092  0.0881
  363MOL0     C47826  -0.147   5.594   1.027  0.1442 -0.2665 -0.4917
  363MOL0     C47827  -0.295   5.627   1.011 -0.0705 -0.3109 -0.0878
  363MOL0    Cl47828  -0.389   5.663   1.161  0.3039 -0.2547 -0.0341
  363MOL0     C47829   0.057   6.585   0.943 -0.3304 -0.0135  0.7570
  363MOL0     C47830   0.165   6.675   0.930 -0.1180  0.2672 -0.6858
  363MOL0     O47831   0.305   6.885   1.054 -0.5361  0.6720 -0.0427
  363MOL0     C47832   0.655   6.855   0.985 -0.8957 -0.6520 -0.3983
  363MOL0     C47833   0.763   6.934   0.953 -0.2220  0.6673 -0.1427
  363MOL0     N47834   1.356   6.927   1.243  0.2216  0.3078 -0.0796
  363MOL0     N47835   1.482   6.893   1.270  0.1745 -0.2244 -0.5325
  363MOL0     C47836   2.686   7.230   1.051  0.0054  0.1238  0.3427
  363MOL0     C47837   2.801   7.287   1.002  0.7576  0.1941  0.1263
  363MOL0     C47838   3.163   7.595   0.977 -0.6358  0.6574  0.7012
  363MOL0     C47839   3.220   7.715   0.977 -0.1386  0.2502 -0.0135
  363MOL0     C47840   3.360   7.727   0.982 -0.2588  0.6031 -0.2532
  363MOL0     C47841   3.443   7.617   0.994 -0.4644 -0.3785  0.0766
  363MOL0     O47842   3.576   7.646   1.006  0.0111  0.1603 -0.3585
  363MOL0     C47843   3.673   7.545   0.986  1.0180 -0.2974  0.1529
  363MOL0     C47844   3.810   7.607   1.003 -0.3095  0.3311  0.2558
  363MOL0     C47845   3.916   7.488   1.022 -0.2664  0.1905 -0.0249
  363MOL0     C47846   4.034   7.534   1.100 -0.4718  0.2062 -0.7712
  363MOL0     C47847   4.130   7.598   1.012 -0.4267 -0.0173 -0.1887
  363MOL0     C47848   4.208   7.671   0.954  0.4810  0.2180  0.3199
  363MOL0     C47849   3.391   7.492   1.008 -0.0295 -0.5111  0.1050
  363MOL0     C47850   3.251   7.481   0.991  0.5956  0.2151 -0.4149
  363MOL0     H47851   2.826   7.560   1.171  0.8345  0.8029 -1.8636
  363MOL0     H47852   2.609   7.455   1.290 -1.4375 -1.2163 -0.6533
  363MOL0     H47853   2.427   7.355   1.330  0.5283 -1.5163  1.9897
  363MOL0     H47854   2.325   7.216   1.301  1.6367 -1.8930  0.1659
  363MOL0     H47855   2.368   7.403   1.072 -1.9561 -1.2862 -1.1826
  363MOL0     H47856   2.234   7.426   1.194  0.9341  2.6265 -1.0951
  363MOL0     H47857   2.273   7.173   1.030  1.5450 -0.8347  2.8021
  363MOL0     H47858   2.170   7.307   0.978  0.1954  0.1788 -0.6432
  363MOL0     H47859   2.137   7.161   1.256 -0.4291  3.2409  1.3235
  363MOL0     H47860   2.030   7.282   1.186 -0.1627 -0.0482  2.2285
  363MOL0     H47861   2.069   7.039   1.000 -3.0430 -3.0190 -0.9527
  363MOL0     H47862   1.962   7.176   1.000  1.4721 -2.1949 -2.3627
  363MOL0     H47863   1.875   7.078   1.230 -1.6325  1.9616 -2.6953
  363MOL0     H47864   1.979   6.937   1.188  1.9067  0.8809 -1.0931
  363MOL0     H47865   1.734   7.039   1.038 -1.8175 -1.4401  2.8189
  363MOL0     H47866   1.836   6.889   0.997  0.6527  2.4481 -3.3675
  363MOL0     H47867   1.738   6.873   1.265  1.8711  0.8160 -0.6604
  363MOL0     H47868   1.715   6.764   1.128  4.7053  0.0763 -0.4263
  363MOL0     H47869   1.492   6.917   0.948 -0.8436  0.3720 -0.3213
  363MOL0     H47870   1.145   6.948   1.100  0.6090 -0.2733  0.0341
  363MOL0     H47871   1.213   6.881   0.959  0.0137 -0.3228  1.2269
  363MOL0     H47872   1.315   7.090   0.891 -0.9664 -1.8560 -0.2785
  363MOL0     H47873   1.256   7.176   1.031  0.6688  0.8482 -0.7541
  363MOL0     H47874   1.104   7.206   0.819 -0.6624  0.9084 -0.0672
  363MOL0     H47875   1.094   7.029   0.828  3.9864  0.0301  0.9101
  363MOL0     H47876   0.986   7.200   1.066  3.5520  0.1621 -1.3061
  363MOL0     H47877   0.970   7.029   1.055 -1.3337 -0.7733 -0.2803
  363MOL0     H47878   0.619   7.237   0.963 -1.5710 -0.5442 -2.0490
  363MOL0     H47879   0.423   7.105   0.998 -0.9761 -1.0884  2.0207
  363MOL0     H47880   0.410   6.462   1.038 -0.1382  0.7381  0.5821
  363MOL0     H47881   0.222   6.316   1.059  0.9996 -1.8478 -2.8150
  363MOL0     H47882   0.006   6.197   1.065 -2.1493  0.0680  0.3205
  363MOL0     H47883   0.061   6.209   0.909  0.7356  2.4187  0.7583
  363MOL0     H47884  -0.156   6.173   0.810  1.4096  0.8508 -0.2259
  363MOL0     H47885  -0.248   6.204   0.954 -0.5052  0.6501 -2.4062
  363MOL0     H47886  -0.239   5.958   0.944  0.1281 -0.2580  1.5793
  363MOL0     H47887  -0.150   6.023   1.072 -1.5532 -0.6306 -0.6264
  363MOL0     H47888   0.008   5.993   0.834 -1.4375  0.1315  0.8392
  363MOL0     H47889   0.052   5.971   1.010  0.4909 -0.5056  0.1296
  363MOL0     H47890   0.058   5.751   0.858  0.6283 -0.9255  1.8696
  363MOL0     H47891  -0.111   5.783   0.833 -0.4284 -1.8808  0.9537
  363MOL0     H47892  -0.125   5.794   1.107 -0.3984 -0.4866  0.7964
  363MOL0     H47893   0.032   5.707   1.082  0.2316 -1.5976 -0.8945
  363MOL0     H47894  -0.108   5.536   0.943 -0.6766 -1.8721  0.1766
  363MOL0     H47895  -0.148   5.528   1.115 -2.8198  2.5169  1.7918
  363MOL0     H47896  -0.345   5.535   0.981 -1.6976 -0.4478  2.7261
  363MOL0     H47897  -0.310   5.703   0.935 -0.3583  0.1440  0.4165
  363MOL0     H47898  -0.038   6.627   0.911  1.0350  1.4107 -1.6838
  363MOL0     H47899   0.164   6.775   0.887  2.0873  0.7958  0.3241
  363MOL0     H47900   0.665   6.749   1.010  0.9385 -0.9773 -2.3104
  363MOL0     H47901   0.859   6.884   0.938 -0.1887 -0.1281  2.3269
  363MOL0     H47902   2.636   7.141   1.012  0.5478  0.1976 -0.5576
  363MOL0     H47903   2.851   7.228   0.925 -0.6271 -1.1707  0.2148
  363MOL0     H47904   3.174   7.813   0.973 -1.4336 -0.3601 -0.5881
  363MOL0     H47905   3.402   7.827   0.975 -1.2389  1.0358 -0.0596
  363MOL0     H47906   3.668   7.500   0.886  1.7564 -1.3139  0.5493
  363MOL0     H47907   3.664   7.465   1.060 -1.5289 -1.3268 -1.1223
  363MOL0     H47908   3.846   7.671   0.921 -2.0415  0.8081 -0.1726
  363MOL0     H47909   3.817   7.666   1.095  3.3321 -0.7593  0.8687
  363MOL0     H47910   3.937   7.444   0.924 -2.3572  2.6781 -1.7217
  363MOL0     H47911   3.867   7.411   1.083 -0.8039  0.8821  0.4375
  363MOL0     H47912   4.008   7.609   1.175 -3.2124 -1.2437 -0.1467
  363MOL0     H47913   4.084   7.445   1.139  0.2118  0.4072 -1.1614
  363MOL0     H47914   4.280   7.733   0.905 -1.9840  1.9072 -1.4540
  363MOL0     H47915   3.448   7.405   1.037 -2.1134 -0.7351  4.2795
  363MOL0     H47916   3.204   7.383   0.994 -2.8966  1.7267  0.0509
  364MOL0     O47917  10.557  10.736  10.176  0.0131  0.4168  0.6787
  364MOL0     C47918  10.610  10.840  10.217  0.1170 -0.4080 -0.1216
  364MOL0     O47919  10.574  10.970  10.186 -0.3041  0.4622 -0.4829
  364MOL0     C47920  10.454  11.012  10.136  0.3224  1.1023 -0.0129
  364MOL0     C47921  10.332  10.944  10.166  0.3550 -0.3078  0.5041
  364MOL0     C47922  10.209  11.001  10.120 -0.0948 -0.1007 -0.6577
  364MOL0     C47923  10.210  11.121  10.056  0.2717  0.1911  0.8559
  364MOL0     O47924  10.100  11.197  10.025  0.4966 -0.1600 -0.3239
  364MOL0     C47925   9.976  11.130  10.019 -0.2923 -0.4235  0.1475
  364MOL0     C47926   9.896  11.226   9.942  0.3039  0.3856 -0.0364
  364MOL0     C47927   9.751  11.175   9.913  0.4105 -0.7515  0.6646
  364MOL0     C47928   9.678  11.301   9.847 -0.2189  0.3377  0.5394
  364MOL0     C47929   9.546  11.267   9.779  0.5780 -0.6518  1.0667
  364MOL0     C47930   9.430  11.231   9.876 -0.0184  0.6941 -0.8698
  364MOL0     C47931   9.290  11.243   9.822 -0.0283 -0.9035 -0.0511
  364MOL0     C47932   9.249  11.121   9.735  0.3985  0.2944 -0.1032
  364MOL0     N47933   9.109  11.102   9.704  0.2041 -0.4759 -0.3338
  364MOL0     C47934   9.021  11.068   9.808 -0.0879 -0.0225  0.6488
  364MOL0     C47935   8.905  11.064   9.740 -0.3702 -0.0706  1.2953
  364MOL0     C47936   8.784  10.999   9.788  0.0244 -0.2923  0.3785
  364MOL0     C47937   8.699  10.951   9.673  0.4054  0.1629 -0.2068
  364MOL0     C47938   8.575  10.872   9.715 -0.5618  0.6279  0.5457
  364MOL0     C47939   8.450  10.960   9.725 -0.4292 -0.5523  0.2693
  364MOL0     O47940   8.343  10.874   9.759  0.2843 -0.2668 -0.2845
  364MOL0     C47941   8.216  10.913   9.714 -0.1307  0.0082  0.0339
  364MOL0     C47942   8.172  10.868   9.585 -0.7804  0.2549 -0.0172
  364MOL0     C47943   8.051  10.928   9.529 -0.0967  0.1899  0.3041
  364MOL0     C47944   7.987  11.038   9.590  0.2852 -0.5866  0.1763
  364MOL0     C47945   7.879  11.115   9.522 -0.8295  0.4109  1.0447
  364MOL0     O47946   7.810  11.207   9.587  0.2351 -0.2479 -1.0427
  364MOL0     C47947   7.714  11.294   9.537 -0.4460 -0.4969  0.2944
  364MOL0     C47948   7.691  11.414   9.603 -0.7865 -1.0913  0.4422
  364MOL0     C47949   7.584  11.497   9.563 -0.4315  0.1519 -0.6952
  364MOL0     C47950   7.500  11.455   9.459  0.0412 -0.3719 -0.6137
  364MOL0     O47951   7.381  11.525   9.432 -0.0448 -0.0188  0.0860
  364MOL0     C47952   7.348  11.655   9.487  0.7662 -0.3297  0.0864
  364MOL0     C47953   7.203  11.680   9.439 -0.5295 -0.3903  0.3441
  364MOL0     C47954   7.147  11.795   9.516  0.2891  0.1805 -0.1981
  364MOL0     C47955   6.993  11.820   9.486  1.1065 -0.6008 -0.0752
  364MOL0     C47956   6.945  11.950   9.548  0.0503 -0.3580 -0.5116
  364MOL0     C47957   6.797  11.989   9.525 -0.5136 -0.0748  0.9066
  364MOL0     C47958   6.762  12.122   9.600  0.3636  0.8385  0.3062
  364MOL0     C47959   6.622  12.154   9.544 -0.5951 -0.3163  0.3272
  364MOL0    Cl47960   6.482  12.053   9.592 -0.0487  0.1775  0.2337
  364MOL0     C47961   7.526  11.342   9.383 -0.7998 -0.1286  0.1075
  364MOL0     C47962   7.634  11.262   9.423 -0.6486  0.5923  0.3132
  364MOL0     O47963   7.866  11.079   9.404  0.3835  0.1371 -0.7800
  364MOL0     C47964   8.029  11.075   9.719  0.0632 -0.7321 -0.1003
  364MOL0     C47965   8.145  11.017   9.773 -0.0295 -0.1873  0.1384
  364MOL0     N47966   8.925  11.109   9.603 -0.0389  0.6408  0.3953
  364MOL0     N47967   9.053  11.118   9.585 -0.8796 -0.1838 -0.0399
  364MOL0     C47968  10.333  11.184  10.023 -1.0955  1.4928  0.5138
  364MOL0     C47969  10.453  11.130  10.070  0.7327 -0.4921 -0.0006
  364MOL0     C47970  10.725  10.819  10.307  0.2454  1.3594 -0.0878
  364MOL0     C47971  10.773  10.687  10.324 -0.2060  0.0463 -0.7188
  364MOL0     C47972  10.876  10.669  10.415 -0.8907 -0.6831 -0.0950
  364MOL0     C47973  10.941  10.779  10.487 -0.5933 -0.7900  0.4741
  364MOL0     O47974  11.044  10.775  10.572 -0.6356 -0.0403  0.4705
  364MOL0     C47975  11.113  10.650  10.592  0.2804 -0.2572 -0.2279
  364MOL0     C47976  11.213  10.676  10.704  0.2514  0.2841  0.1802
  364MOL0     C47977  11.278  10.545  10.758  0.4411 -0.5228  0.0438
  364MOL0     C47978  11.391  10.572  10.860 -0.9897  0.2844 -0.6778
  364MOL0     C47979  11.486  10.460  10.831  0.0494  0.5982 -0.7170
  364MOL0     C47980  11.569  10.367  10.819  0.4722 -0.4278  0.5981
  364MOL0     C47981  10.892  10.905  10.463  0.0309  0.3109  0.2865
  364MOL0     C47982  10.777  10.921  10.387  0.0385 -0.4579  0.1910
  364MOL0     H47983  10.342  10.860  10.235  2.2261  0.0871  0.7644
  364MOL0     H47984  10.118  10.953  10.152  0.7163 -0.7874  0.7151
  364MOL0     H47985   9.936  11.111  10.119  0.0377 -3.5064 -0.2206
  364MOL0     H47986   9.997  11.041   9.959  2.8713 -0.1625  0.6747
  364MOL0     H47987   9.950  11.252   9.851  0.1290 -2.5610 -1.0691
  364MOL0     H47988   9.892  11.311  10.011  2.3434  0.7920 -0.3620
  364MOL0     H47989   9.700  11.146  10.005  0.5839  1.3324  1.4693
  364MOL0     H47990   9.750  11.094   9.839  0.2627 -2.2396  2.2399
  364MOL0     H47991   9.657  11.388   9.910 -1.9493  0.1964  0.2155
  364MOL0     H47992   9.748  11.331   9.769 -1.6780 -1.9157 -1.7730
  364MOL0     H47993   9.561  11.194   9.699  0.1453 -0.7234  1.0460
  364MOL0     H47994   9.514  11.364   9.738  2.5050 -0.5287 -0.2653
  364MOL0     H47995   9.436  11.302   9.959 -3.5234  0.0682  0.1275
  364MOL0     H47996   9.443  11.132   9.922  0.8664  0.8634 -0.7375
  364MOL0     H47997   9.218  11.260   9.901  1.8018  2.2676  1.1219
  364MOL0     H47998   9.287  11.341   9.774  2.8283 -0.7874 -0.2047
  364MOL0     H47999   9.274  11.027   9.786 -1.2000  0.1411  0.4334
  364MOL0     H48000   9.304  11.132   9.641  0.3772  2.1562  0.0644
  364MOL0     H48001   9.042  11.049   9.912 -1.0561 -1.1112  0.6789
  364MOL0     H48002   8.736  11.063   9.863  0.1818 -0.1668  0.3736
  364MOL0     H48003   8.810  10.912   9.850 -0.5934 -0.1452  0.8579
  364MOL0     H48004   8.764  10.894   9.607  2.4687  1.0498  0.9803
  364MOL0     H48005   8.672  11.043   9.620  3.9354 -0.0042 -2.6529
  364MOL0     H48006   8.554  10.796   9.640 -1.9218 -1.0824  2.5323
  364MOL0     H48007   8.590  10.807   9.802  0.5909 -0.2580 -0.2786
  364MOL0     H48008   8.449  11.018   9.633 -0.6089 -2.7121 -1.1609
  364MOL0     H48009   8.474  11.025   9.810  0.7232 -0.5853 -0.0081
  364MOL0     H48010   8.237  10.798   9.534  0.2664 -0.2825  1.9476
  364MOL0     H48011   8.019  10.901   9.429 -2.5793 -1.3286  1.4167
  364MOL0     H48012   7.749  11.442   9.690  0.7229  0.3836 -0.9698
  364MOL0     H48013   7.568  11.590   9.616  1.5006  0.6300 -0.8593
  364MOL0     H48014   7.417  11.733   9.452  1.4233 -0.0600  1.9042
  364MOL0     H48015   7.352  11.645   9.595 -0.5975  3.3597  0.6328
  364MOL0     H48016   7.139  11.592   9.445 -1.1981  0.1690  2.2225
  364MOL0     H48017   7.193  11.697   9.331  1.8890  0.1206  0.1541
  364MOL0     H48018   7.214  11.881   9.502  2.8235 -1.8825 -1.6460
  364MOL0     H48019   7.155  11.773   9.623  3.4278 -0.1591 -0.4206
  364MOL0     H48020   6.976  11.838   9.380 -1.1990  2.8515  0.7227
  364MOL0     H48021   6.936  11.732   9.519 -0.1861 -0.2003 -1.1531
  364MOL0     H48022   7.012  12.026   9.506 -0.3678 -1.2122 -2.9093
  364MOL0     H48023   6.965  11.955   9.655 -0.0040  2.1314 -0.5479
  364MOL0     H48024   6.728  11.914   9.564 -1.8055  2.2996  3.5499
  364MOL0     H48025   6.784  12.015   9.419 -2.9695  1.6252  1.5355
  364MOL0     H48026   6.741  12.102   9.705 -0.7856 -0.1915 -0.0966
  364MOL0     H48027   6.838  12.200   9.592 -0.0306  1.2889  0.9608
  364MOL0     H48028   6.624  12.160   9.435 -1.5576  0.3622  0.3337
  364MOL0     H48029   6.600  12.256   9.578  0.7898  0.7890 -1.8418
  364MOL0     H48030   7.462  11.320   9.298 -2.5140 -0.8676  1.5352
  364MOL0     H48031   7.651  11.174   9.361 -0.2937  0.2440  0.8974
  364MOL0     H48032   7.990  11.160   9.775 -0.5412  0.4707 -2.2195
  364MOL0     H48033   8.198  11.056   9.860 -2.7689 -1.9760  2.8114
  364MOL0     H48034  10.343  11.280   9.973  0.3001  1.6906  1.1297
  364MOL0     H48035  10.546  11.185  10.057 -0.2026  1.4712  1.0015
  364MOL0     H48036  10.732  10.602  10.271 -0.1889  1.4600 -3.1304
  364MOL0     H48037  10.924  10.572  10.422 -1.8689 -1.1194  1.0420
  364MOL0     H48038  11.177  10.617  10.509 -0.8913 -1.2462 -0.7633
  364MOL0     H48039  11.045  10.570  10.623  0.3397  0.2890  1.4328
  364MOL0     H48040  11.299  10.728  10.663  0.3758  0.4709  0.6670
  364MOL0     H48041  11.166  10.727  10.789  0.2457  2.2158 -0.9367
  364MOL0     H48042  11.310  10.495  10.667 -0.4487 -0.7216 -0.1744
  364MOL0     H48043  11.208  10.479  10.810 -1.3719  0.1409 -1.4201
  364MOL0     H48044  11.442  10.668  10.852  1.4024 -0.6622  1.6018
  364MOL0     H48045  11.368  10.574  10.967 -0.2024  0.3477 -0.4996
  364MOL0     H48046  11.644  10.295  10.792  0.8415 -0.5283  1.8488
  364MOL0     H48047  10.929  10.985  10.526 -0.7053 -0.9500  2.3996
  364MOL0     H48048  10.738  11.021  10.371  0.5025 -0.1407  1.0247
  365MOL0     O48049   2.979   6.026   9.171  0.2991  0.2427  0.3651
  365MOL0     C48050   3.055   5.941   9.118 -0.2571  0.2129  0.3706
  365MOL0     O48051   3.016   5.822   9.065 -0.8387  0.4342 -0.3114
  365MOL0     C48052   2.889   5.774   9.082  0.9026  0.0368  0.3014
  365MOL0     C48053   2.836   5.702   8.975  0.5921 -0.0104 -0.5703
  365MOL0     C48054   2.709   5.652   8.974 -0.8671  0.9463  0.2917
  365MOL0     C48055   2.627   5.677   9.084 -0.0270 -0.1827  0.7669
  365MOL0     O48056   2.494   5.635   9.080 -0.0013  0.0395 -0.1951
  365MOL0     C48057   2.413   5.648   9.201  0.1683 -0.0044 -0.1808
  365MOL0     C48058   2.282   5.578   9.158  0.9000  0.0845  0.2455
  365MOL0     C48059   2.180   5.585   9.275  0.1722  0.0447  0.5174
  365MOL0     C48060   2.044   5.533   9.243 -0.2922 -0.2974  0.0039
  365MOL0     C48061   1.936   5.578   9.333 -0.2450 -0.0978  0.3300
  365MOL0     C48062   1.810   5.504   9.280  0.4572 -0.5950 -0.0788
  365MOL0     C48063   1.694   5.504   9.380  0.3052 -0.5329 -0.5011
  365MOL0     C48064   1.659   5.366   9.437 -0.0774 -0.0054  0.5617
  365MOL0     N48065   1.551   5.357   9.543 -0.3179 -0.2387  0.5449
  365MOL0     C48066   1.422   5.402   9.543  0.4590  0.4183  0.1762
  365MOL0     C48067   1.365   5.366   9.664  0.5991  0.2910  0.5243
  365MOL0     C48068   1.212   5.386   9.691  0.0479 -0.1164  1.2541
  365MOL0     C48069   1.171   5.529   9.711  0.0330 -0.7406 -0.4015
  365MOL0     C48070   1.205   5.571   9.859  0.1591 -0.3481  0.0591
  365MOL0     C48071   1.353   5.601   9.884  0.1233 -0.4359 -0.2027
  365MOL0     O48072   1.418   5.704   9.805 -0.3353 -0.1531  0.5359
  365MOL0     C48073   1.554   5.688   9.775  0.2262 -1.1356 -0.2059
  365MOL0     C48074   1.640   5.580   9.801 -0.0475  0.1781 -0.9246
  365MOL0     C48075   1.776   5.573   9.751 -0.5063 -0.2453  0.5030
  365MOL0     C48076   1.835   5.688   9.694  0.8622  1.4969  0.0863
  365MOL0     C48077   1.980   5.702   9.648  0.2760 -1.1963  0.5005
  365MOL0     O48078   2.015   5.810   9.577 -0.1597 -0.2490 -0.0013
  365MOL0     C48079   2.148   5.831   9.546 -0.0021 -0.2513  0.4523
  365MOL0     C48080   2.254   5.788   9.623  0.8588 -0.4996  0.6924
  365MOL0     C48081   2.389   5.821   9.590  0.1284  0.0114  0.5831
  365MOL0     C48082   2.417   5.918   9.487 -0.3108 -0.2235 -0.8317
  365MOL0     O48083   2.547   5.949   9.469 -0.4485 -0.1135 -0.0918
  365MOL0     C48084   2.581   6.082   9.477  0.1880  0.1124 -0.1304
  365MOL0     C48085   2.688   6.096   9.580 -0.3419  0.8587  0.0027
  365MOL0     C48086   2.815   6.012   9.546 -0.7412  0.3753  0.6690
  365MOL0     C48087   2.923   6.037   9.655  0.2310  0.0626  0.0617
  365MOL0     C48088   3.051   5.962   9.616 -0.9677  0.0434 -0.6292
  365MOL0     C48089   3.168   5.990   9.710  0.5975  1.3915 -0.8522
  365MOL0     C48090   3.161   5.885   9.826  0.3824 -0.1141  0.6104
  365MOL0     C48091   3.274   5.900   9.924 -0.7516 -0.6944 -0.3503
  365MOL0    Cl48092   3.266   5.785  10.055  0.2647 -0.0077  0.2047
  365MOL0     C48093   2.305   5.957   9.409  1.0269 -0.3724 -0.0036
  365MOL0     C48094   2.173   5.920   9.435  0.4600 -0.4535  0.4206
  365MOL0     O48095   2.043   5.605   9.663 -0.2941 -0.2418 -0.7222
  365MOL0     C48096   1.750   5.798   9.661  1.3249  0.0485 -0.0941
  365MOL0     C48097   1.609   5.793   9.694 -0.2669 -0.2587  0.5518
  365MOL0     N48098   1.463   5.289   9.726  0.0042  0.5139 -0.1859
  365MOL0     N48099   1.573   5.289   9.659 -0.0973  0.2146 -0.0267
  365MOL0     C48100   2.680   5.744   9.193 -0.1802  0.4893 -0.2053
  365MOL0     C48101   2.810   5.792   9.199  0.4174  0.6235  0.0527
  365MOL0     C48102   3.202   5.980   9.110  0.7391 -0.0875  0.2205
  365MOL0     C48103   3.291   5.869   9.073 -0.6887 -0.1176 -0.3599
  365MOL0     C48104   3.419   5.902   9.034  0.2853 -0.0862  0.0763
  365MOL0     C48105   3.463   6.036   9.041 -0.2179 -0.5109  0.0174
  365MOL0     O48106   3.588   6.077   9.016  0.4787  0.1640 -0.9681
  365MOL0     C48107   3.674   5.982   8.956  0.0864  0.4558 -0.6936
  365MOL0     C48108   3.809   6.038   8.932 -0.0915  0.3282  0.0091
  365MOL0     C48109   3.907   5.948   8.855 -0.3503  0.7627 -0.5344
  365MOL0     C48110   3.849   5.894   8.729  0.4500 -0.3923 -0.2781
  365MOL0     C48111   3.936   5.822   8.637  0.8841 -0.1358 -0.2048
  365MOL0     C48112   3.989   5.777   8.541  0.7082  0.4168  0.3453
  365MOL0     C48113   3.382   6.137   9.098  0.7230 -0.2490  0.2021
  365MOL0     C48114   3.251   6.110   9.122  0.2780 -0.6004 -0.5927
  365MOL0     H48115   2.894   5.692   8.884 -1.4762  1.4191 -2.1467
  365MOL0     H48116   2.665   5.599   8.891 -2.1429  1.7741  0.4133
  365MOL0     H48117   2.403   5.753   9.230 -0.4609 -0.0800 -0.1093
  365MOL0     H48118   2.458   5.589   9.282 -0.3830 -1.0732 -0.6344
  365MOL0     H48119   2.300   5.474   9.129  0.9713 -0.4987  2.2446
  365MOL0     H48120   2.241   5.630   9.070  0.3939  0.3557  0.6329
  365MOL0     H48121   2.169   5.687   9.313 -1.4048 -0.8517  2.6393
  365MOL0     H48122   2.230   5.537   9.359  2.9171  2.1242  0.2350
  365MOL0     H48123   2.013   5.561   9.142 -0.2467  0.2144  0.1295
  365MOL0     H48124   2.049   5.424   9.254 -1.1871 -0.3818 -0.3616
  365MOL0     H48125   1.920   5.686   9.327 -2.4669 -0.3793  0.5032
  365MOL0     H48126   1.954   5.549   9.437  3.5287  3.0910  0.8053
  365MOL0     H48127   1.831   5.400   9.252 -1.2340 -0.8002 -0.7047
  365MOL0     H48128   1.786   5.559   9.189  2.2127 -0.6951 -0.6446
  365MOL0     H48129   1.716   5.568   9.465 -0.9339  0.5827 -0.9711
  365MOL0     H48130   1.607   5.547   9.329 -0.9764 -0.7485  1.4191
  365MOL0     H48131   1.749   5.315   9.472  0.5184 -1.2041 -2.3953
  365MOL0     H48132   1.616   5.300   9.361 -1.6685 -0.2053  1.5726
  365MOL0     H48133   1.377   5.465   9.467 -0.4245  0.1905  0.4979
  365MOL0     H48134   1.182   5.326   9.777  0.3202 -0.7410  0.9267
  365MOL0     H48135   1.154   5.339   9.611  0.8030 -0.2236  0.7483
  365MOL0     H48136   1.062   5.537   9.704 -0.6243  0.6432  5.8307
  365MOL0     H48137   1.218   5.601   9.643  0.0977  1.0519  1.4248
  365MOL0     H48138   1.151   5.666   9.868  0.6708 -0.1067  0.6816
  365MOL0     H48139   1.168   5.501   9.935 -1.7758 -0.6732 -1.1089
  365MOL0     H48140   1.398   5.502   9.880  0.9958 -0.0461 -0.4506
  365MOL0     H48141   1.369   5.635   9.987 -1.9682  1.7042 -0.4968
  365MOL0     H48142   1.600   5.491   9.849  0.6426 -0.0393 -0.7456
  365MOL0     H48143   1.838   5.485   9.766 -0.6001 -0.7245 -1.5975
  365MOL0     H48144   2.246   5.732   9.716  0.8738  2.6893  2.8117
  365MOL0     H48145   2.475   5.790   9.648 -0.7582 -0.0991  1.8894
  365MOL0     H48146   2.494   6.140   9.509  0.2040  0.8177 -1.2845
  365MOL0     H48147   2.599   6.126   9.379 -1.6659 -1.3808 -1.2151
  365MOL0     H48148   2.645   6.056   9.672  1.6242  0.2081  0.6889
  365MOL0     H48149   2.718   6.201   9.589  1.2575  0.4500 -0.2059
  365MOL0     H48150   2.843   6.049   9.447 -1.5031 -0.2446  0.2087
  365MOL0     H48151   2.793   5.906   9.527 -1.5579  0.8552 -1.3483
  365MOL0     H48152   2.946   6.143   9.672 -2.9153  0.3375  3.8716
  365MOL0     H48153   2.885   6.010   9.754 -3.7237  3.7631 -0.1913
  365MOL0     H48154   3.085   5.997   9.518 -2.2898 -0.5871 -1.3325
  365MOL0     H48155   3.032   5.855   9.612  2.5528 -0.7018 -0.9390
  365MOL0     H48156   3.157   6.093   9.746 -1.5405  0.5681  1.0704
  365MOL0     H48157   3.263   5.969   9.660  0.4256 -2.3454  0.1524
  365MOL0     H48158   3.066   5.897   9.879 -0.3272 -0.0980 -0.6297
  365MOL0     H48159   3.166   5.784   9.782 -2.2248 -0.9613  2.0552
  365MOL0     H48160   3.281   5.999   9.969 -1.7374 -0.0234 -1.6020
  365MOL0     H48161   3.368   5.880   9.873  0.5627  2.5098  0.5675
  365MOL0     H48162   2.326   6.022   9.324 -0.7168 -0.0927 -0.2413
  365MOL0     H48163   2.083   5.946   9.380 -0.6629 -3.1362  0.8220
  365MOL0     H48164   1.786   5.880   9.600 -3.9173  3.6210  0.9355
  365MOL0     H48165   1.542   5.877   9.674  1.4806  0.8540 -0.8916
  365MOL0     H48166   2.620   5.760   9.282 -0.0173  3.0890 -0.4828
  365MOL0     H48167   2.842   5.845   9.288 -1.2440 -0.5820  1.4332
  365MOL0     H48168   3.254   5.767   9.077  3.5954 -1.8845  4.5613
  365MOL0     H48169   3.477   5.823   8.987  0.9626  1.1130 -1.2010
  365MOL0     H48170   3.621   5.942   8.870  1.8033 -0.9273 -1.1713
  365MOL0     H48171   3.690   5.890   9.015  0.5689  0.9764  0.0104
  365MOL0     H48172   3.794   6.127   8.871 -0.1764  0.7985  0.7131
  365MOL0     H48173   3.855   6.053   9.030  0.0813  0.4128 -0.0842
  365MOL0     H48174   3.920   5.856   8.913 -1.6359 -0.7235 -2.4426
  365MOL0     H48175   4.005   5.993   8.842  1.5251 -2.8475 -0.2052
  365MOL0     H48176   3.766   5.829   8.757  0.8504 -1.1859 -0.9137
  365MOL0     H48177   3.804   5.988   8.694  0.2578  0.8946  3.0043
  365MOL0     H48178   4.036   5.733   8.456 -2.0526  0.0302 -1.0770
  365MOL0     H48179   3.420   6.239   9.092 -1.3145  0.4644 -2.3129
  365MOL0     H48180   3.180   6.189   9.143  1.9969  0.7920  0.2317
  366MOL0     O48181   6.845   4.182   5.780 -0.6520 -0.0224  0.9732
  366MOL0     C48182   6.901   4.169   5.886 -0.8307 -0.0792 -0.8762
  366MOL0     O48183   6.845   4.195   6.002 -0.0039 -0.4401 -0.2648
  366MOL0     C48184   6.711   4.218   6.023 -0.0774 -0.1435  0.0535
  366MOL0     C48185   6.673   4.291   6.136  0.9199 -0.3278 -0.2014
  366MOL0     C48186   6.542   4.303   6.175  0.6328 -0.1388  0.5657
  366MOL0     C48187   6.432   4.252   6.085  0.5405  0.4105  0.3606
  366MOL0     O48188   6.296   4.265   6.101 -0.5885  0.0821  0.4979
  366MOL0     C48189   6.255   4.376   6.183 -1.0914 -0.2532 -0.6158
  366MOL0     C48190   6.101   4.363   6.201 -0.3562  0.5498  0.0855
  366MOL0     C48191   6.048   4.501   6.244  0.2993  0.0279  0.5242
  366MOL0     C48192   5.895   4.511   6.247  0.0080  0.2035 -0.5866
  366MOL0     C48193   5.843   4.515   6.109  0.5946 -0.9680 -0.0499
  366MOL0     C48194   5.696   4.576   6.106  0.1912 -0.0873 -0.0971
  366MOL0     C48195   5.664   4.624   5.963 -0.2702 -0.2200  0.2826
  366MOL0     C48196   5.523   4.585   5.930 -0.3018  0.5507 -0.2252
  366MOL0     N48197   5.417   4.650   6.004 -0.7575 -0.7256  0.7700
  366MOL0     C48198   5.393   4.788   6.005 -0.4332 -0.0700  0.4492
  366MOL0     C48199   5.287   4.801   6.083  0.1391  0.1899  0.6044
  366MOL0     C48200   5.202   4.920   6.111  0.8146 -0.2152 -0.6042
  366MOL0     C48201   5.078   4.914   6.029  0.2364  1.4272  0.7884
  366MOL0     C48202   4.966   4.991   6.088  0.1477 -0.2734 -0.0904
  366MOL0     C48203   4.835   4.974   6.005 -0.7685  0.2672  0.6127
  366MOL0     O48204   4.719   5.049   6.063 -0.5153 -0.3111  0.4839
  366MOL0     C48205   4.592   5.060   6.014 -0.5478 -0.9964  0.0342
  366MOL0     C48206   4.484   5.066   6.096  0.3721  0.3979  0.0114
  366MOL0     C48207   4.355   5.097   6.050 -0.1412  0.1262  0.5602
  366MOL0     C48208   4.328   5.140   5.921  0.2683  0.2773  0.2580
  366MOL0     C48209   4.199   5.194   5.876 -0.6718 -0.1413  0.4916
  366MOL0     O48210   4.201   5.255   5.754  0.0307 -0.2420 -0.1755
  366MOL0     C48211   4.089   5.323   5.715  0.4175 -0.6076  0.8845
  366MOL0     C48212   4.063   5.445   5.769  0.1975 -0.3204 -0.9190
  366MOL0     C48213   3.947   5.514   5.731 -0.1305 -0.2092  0.9386
  366MOL0     C48214   3.860   5.465   5.630  0.0442  0.0231 -0.0605
  366MOL0     O48215   3.746   5.530   5.581 -0.1301  0.0277 -0.1031
  366MOL0     C48216   3.706   5.653   5.639  0.6708 -0.5570 -0.2458
  366MOL0     C48217   3.583   5.701   5.556 -0.0546 -0.5499  0.3726
  366MOL0     C48218   3.458   5.614   5.586 -1.0052  0.2689  0.0010
  366MOL0     C48219   3.343   5.654   5.493  0.1042 -0.2671 -0.2552
  366MOL0     C48220   3.209   5.614   5.553 -0.1050  0.2927  0.4209
  366MOL0     C48221   3.089   5.636   5.452 -0.1842  0.6087 -0.0824
  366MOL0     C48222   2.954   5.623   5.531  0.7424 -0.6103 -0.5674
  366MOL0     C48223   2.821   5.620   5.458  0.2786 -0.2754  0.3898
  366MOL0    Cl48224   2.748   5.786   5.454  0.0298 -0.3807 -0.2255
  366MOL0     C48225   3.891   5.343   5.573 -0.3726 -0.2405 -0.0118
  366MOL0     C48226   4.005   5.270   5.610  0.6428 -0.1742 -0.0956
  366MOL0     O48227   4.108   5.197   5.956  0.1498  0.4484 -0.7679
  366MOL0     C48228   4.437   5.130   5.833  0.1909 -0.4330  0.1695
  366MOL0     C48229   4.569   5.097   5.883  0.9009 -0.7047  0.0970
  366MOL0     N48230   5.243   4.676   6.123 -0.2374  0.0238  0.2442
  366MOL0     N48231   5.317   4.585   6.067 -0.8871  0.0838 -0.4479
  366MOL0     C48232   6.475   4.172   5.982  1.0542  0.4218 -0.6847
  366MOL0     C48233   6.611   4.165   5.946  1.0555  0.1551  0.3431
  366MOL0     C48234   7.052   4.144   5.895  0.4077 -0.1120 -0.6823
  366MOL0     C48235   7.122   4.117   5.769 -0.9085 -0.1300  0.5029
  366MOL0     C48236   7.261   4.112   5.765 -0.1037  0.2632 -0.3589
  366MOL0     C48237   7.328   4.134   5.885 -0.6352 -0.1703  0.0647
  366MOL0     O48238   7.468   4.152   5.906  0.4453 -0.5572  0.6629
  366MOL0     C48239   7.545   4.165   5.787 -0.4141  1.2138  0.0227
  366MOL0     C48240   7.683   4.209   5.832 -0.8747 -0.4399 -0.8732
  366MOL0     C48241   7.794   4.197   5.719 -0.5906 -0.1694 -0.0963
  366MOL0     C48242   7.775   4.292   5.604 -0.2179  0.1899 -0.7132
  366MOL0     C48243   7.907   4.301   5.523  0.0221 -0.2580 -0.4595
  366MOL0     C48244   8.005   4.317   5.454  0.3498  0.2650  0.5380
  366MOL0     C48245   7.268   4.136   6.006  0.4477  0.3342  0.5394
  366MOL0     C48246   7.129   4.143   6.011  0.3925  0.1443  0.3461
  366MOL0     H48247   6.744   4.323   6.212 -0.8926  0.8821  1.0855
  366MOL0     H48248   6.520   4.340   6.274 -0.7979  2.4520 -0.6210
  366MOL0     H48249   6.284   4.472   6.140  0.5015  0.0396  1.0067
  366MOL0     H48250   6.303   4.367   6.281 -0.8674 -2.7864 -0.8786
  366MOL0     H48251   6.075   4.287   6.275 -4.1124  2.8832  1.4453
  366MOL0     H48252   6.056   4.344   6.103  1.0160 -0.5591 -0.3602
  366MOL0     H48253   6.091   4.577   6.178  2.2615 -0.9699  0.5726
  366MOL0     H48254   6.084   4.524   6.345  1.1197  3.2944 -0.3817
  366MOL0     H48255   5.844   4.427   6.295  1.4227 -0.1793  0.2826
  366MOL0     H48256   5.863   4.602   6.300  2.0996  0.9621 -0.5566
  366MOL0     H48257   5.854   4.417   6.061 -1.3004 -1.3523  0.1892
  366MOL0     H48258   5.900   4.588   6.051 -2.8110  0.8953 -1.3740
  366MOL0     H48259   5.684   4.656   6.180  2.7335 -2.3130  3.0027
  366MOL0     H48260   5.623   4.497   6.126 -0.0525 -0.2463 -1.5315
  366MOL0     H48261   5.681   4.732   5.957  0.9424 -0.4239 -0.3776
  366MOL0     H48262   5.733   4.577   5.891  2.5048  1.3602  1.7565
  366MOL0     H48263   5.503   4.478   5.944 -2.9967  1.0537  0.1868
  366MOL0     H48264   5.496   4.595   5.824  2.1493 -0.4904 -1.0447
  366MOL0     H48265   5.443   4.873   5.960 -1.8984  1.8878  2.3088
  366MOL0     H48266   5.255   5.015   6.103 -0.3618  0.2862 -3.7774
  366MOL0     H48267   5.176   4.903   6.216 -0.4628 -2.9288 -1.2627
  366MOL0     H48268   5.041   4.812   6.016  0.1613  1.5654 -0.1670
  366MOL0     H48269   5.115   4.948   5.931 -0.4963 -0.8662 -0.3582
  366MOL0     H48270   4.938   4.953   6.187 -2.8013  1.3761 -0.1936
  366MOL0     H48271   5.000   5.093   6.109  1.8071 -0.4767 -1.5442
  366MOL0     H48272   4.807   4.869   6.014 -0.2675 -0.0788 -1.3804
  366MOL0     H48273   4.852   5.004   5.901  1.9808 -1.7987  0.3475
  366MOL0     H48274   4.500   5.044   6.201 -0.2519  1.9350  0.4570
  366MOL0     H48275   4.279   5.104   6.127 -1.2920 -0.1789 -0.5112
  366MOL0     H48276   4.134   5.484   5.842 -0.0133 -1.8388  0.1489
  366MOL0     H48277   3.925   5.612   5.772  0.5075  0.0204  0.7370
  366MOL0     H48278   3.784   5.730   5.635 -0.9669  1.1700 -0.3445
  366MOL0     H48279   3.682   5.631   5.743 -0.3703  0.1552 -0.3249
  366MOL0     H48280   3.616   5.684   5.453  2.3470  0.6930  0.8655
  366MOL0     H48281   3.566   5.809   5.562  2.5067 -0.1563  2.0703
  366MOL0     H48282   3.429   5.625   5.691  1.7288  1.1697  0.7336
  366MOL0     H48283   3.485   5.509   5.575 -0.8480  0.2332  0.6890
  366MOL0     H48284   3.331   5.763   5.484  1.0152  0.1535  2.5736
  366MOL0     H48285   3.359   5.617   5.391  0.7571 -0.0833 -0.2227
  366MOL0     H48286   3.187   5.670   5.644 -2.4565  2.6685 -1.4614
  366MOL0     H48287   3.224   5.506   5.566  2.3812 -0.0950 -3.8750
  366MOL0     H48288   3.091   5.560   5.373 -0.6065  0.4620  0.0484
  366MOL0     H48289   3.093   5.734   5.404 -2.8783  0.9328  0.2301
  366MOL0     H48290   2.960   5.520   5.569 -1.7345 -0.8965 -0.7882
  366MOL0     H48291   2.953   5.694   5.615  1.9776 -1.7290  0.4396
  366MOL0     H48292   2.751   5.551   5.506  1.7883 -0.5025  2.3683
  366MOL0     H48293   2.848   5.584   5.358  0.6490  1.6999 -0.2650
  366MOL0     H48294   3.837   5.301   5.489  1.9059 -0.3297 -1.5236
  366MOL0     H48295   4.042   5.179   5.563 -1.0972 -0.9414 -0.0930
  366MOL0     H48296   4.417   5.158   5.729 -2.2276 -0.4460  0.5702
  366MOL0     H48297   4.659   5.090   5.823 -1.1757  1.0486 -3.5988
  366MOL0     H48298   6.394   4.120   5.932 -1.2531  0.5643  2.5783
  366MOL0     H48299   6.619   4.099   5.860 -0.0087  0.0460  0.3166
  366MOL0     H48300   7.072   4.106   5.674  0.8114 -0.0785 -0.4499
  366MOL0     H48301   7.325   4.097   5.678  1.6581 -1.1351  1.1072
  366MOL0     H48302   7.512   4.236   5.711 -0.7866  0.1868 -0.8127
  366MOL0     H48303   7.556   4.069   5.734 -0.0060  3.1286 -3.7268
  366MOL0     H48304   7.681   4.313   5.869 -2.2104 -0.7913  0.1486
  366MOL0     H48305   7.711   4.145   5.916 -0.7671  2.9051  1.8868
  366MOL0     H48306   7.807   4.092   5.695  0.6004 -0.0144 -0.2085
  366MOL0     H48307   7.882   4.224   5.779 -1.3806 -1.1934  1.5799
  366MOL0     H48308   7.691   4.261   5.542  0.5443  0.7318 -2.0757
  366MOL0     H48309   7.746   4.391   5.640 -0.6972 -0.2990  0.2727
  366MOL0     H48310   8.073   4.337   5.373 -0.9555 -0.0578 -0.6736
  366MOL0     H48311   7.314   4.151   6.103  0.6181 -0.0725  0.5248
  366MOL0     H48312   7.066   4.156   6.099 -1.1447  0.8777 -0.7918
  367MOL0     O48313   3.453   4.907   2.779 -0.3212 -0.3493  0.1635
  367MOL0     C48314   3.520   4.981   2.714 -0.0799  0.0820 -0.7475
  367MOL0     O48315   3.483   5.016   2.582  0.2122 -0.1344  0.0404
  367MOL0     C48316   3.363   4.973   2.544  0.2622  0.5018  0.5570
  367MOL0     C48317   3.248   5.038   2.599 -0.1158 -0.1887  0.2777
  367MOL0     C48318   3.130   4.961   2.606 -0.5280 -0.1417 -0.2655
  367MOL0     C48319   3.110   4.849   2.525 -0.4951 -0.1227  0.0258
  367MOL0     O48320   2.989   4.785   2.536  0.7523 -0.2325  0.6094
  367MOL0     C48321   2.949   4.708   2.426  0.6024  0.3567  0.4847
  367MOL0     C48322   2.802   4.649   2.451 -0.2530  0.2296 -0.0225
  367MOL0     C48323   2.710   4.761   2.487 -0.1587 -1.4415  0.3528
  367MOL0     C48324   2.565   4.717   2.492 -0.5753 -0.6151  0.2354
  367MOL0     C48325   2.479   4.829   2.553 -0.0656  0.5965  0.8109
  367MOL0     C48326   2.326   4.789   2.549 -0.0050 -0.1379  0.8983
  367MOL0     C48327   2.234   4.915   2.573 -0.2894 -0.2985 -0.4601
  367MOL0     C48328   2.087   4.886   2.592  1.0029  0.5058 -0.2449
  367MOL0     N48329   2.031   4.793   2.501  0.5007  0.1299  0.9257
  367MOL0     C48330   1.998   4.815   2.365  0.0554 -0.2883 -0.5366
  367MOL0     C48331   1.914   4.719   2.331  0.0645  0.6538  0.4066
  367MOL0     C48332   1.866   4.696   2.192  0.4179 -0.3590 -0.4182
  367MOL0     C48333   1.737   4.609   2.189  0.3942  0.2044  1.0972
  367MOL0     C48334   1.660   4.605   2.053  0.3178  0.4658  0.0635
  367MOL0     C48335   1.551   4.493   2.059  0.1790  0.0382 -0.1648
  367MOL0     O48336   1.443   4.524   2.149  0.4846 -0.2134 -0.6446
  367MOL0     C48337   1.342   4.429   2.172 -0.1088 -0.1002  0.1923
  367MOL0     C48338   1.364   4.292   2.165  1.1927  1.0863 -1.0591
  367MOL0     C48339   1.270   4.199   2.198  0.9565  0.5836 -0.2770
  367MOL0     C48340   1.146   4.231   2.262  1.0024 -0.5802  0.4560
  367MOL0     C48341   1.043   4.134   2.307 -0.4217  0.7650 -0.3109
  367MOL0     O48342   0.915   4.180   2.313  0.3599 -0.3148 -0.0298
  367MOL0     C48343   0.817   4.088   2.353 -0.2310 -0.2659  0.8848
  367MOL0     C48344   0.729   4.033   2.253 -0.0001 -0.5856  0.2006
  367MOL0     C48345   0.621   3.957   2.295 -0.3532  0.2034  0.5258
  367MOL0     C48346   0.609   3.918   2.433  0.4147 -1.0440  0.5870
  367MOL0     O48347   0.487   3.850   2.461 -0.7338 -0.6154 -0.4079
  367MOL0     C48348   0.461   3.794   2.593  1.2975  0.5743  0.2840
  367MOL0     C48349   0.337   3.712   2.607 -0.3529  0.1884 -0.3524
  367MOL0     C48350   0.360   3.596   2.707  1.3111  0.6600 -0.0861
  367MOL0     C48351   0.223   3.528   2.735  0.1363 -0.6010 -0.5366
  367MOL0     C48352   0.131   3.608   2.833  0.0242 -0.1411  0.7331
  367MOL0     C48353  -0.003   3.532   2.864 -0.0250  0.3580 -0.0664
  367MOL0     C48354   0.017   3.412   2.950 -1.0038 -0.5225  0.5488
  367MOL0     C48355  -0.114   3.344   2.987 -0.7654 -0.2364  0.0270
  367MOL0    Cl48356  -0.214   3.441   3.089 -0.0531 -0.0579  0.0579
  367MOL0     C48357   0.704   3.954   2.526  0.6543  0.3423 -0.0757
  367MOL0     C48358   0.805   4.043   2.481 -0.2669  0.3112 -0.4610
  367MOL0     O48359   1.079   4.017   2.328  0.2810 -0.0815  0.1802
  367MOL0     C48360   1.122   4.371   2.252 -0.8441  0.3612  0.6409
  367MOL0     C48361   1.213   4.468   2.205 -0.8593  0.1741  0.9077
  367MOL0     N48362   1.884   4.640   2.439 -0.3347  0.3313  0.8766
  367MOL0     N48363   1.948   4.690   2.537 -0.5226 -0.3462 -0.0295
  367MOL0     C48364   3.226   4.797   2.463  0.1540  0.0424  0.1205
  367MOL0     C48365   3.350   4.869   2.454 -0.5123  0.3624 -0.5599
  367MOL0     C48366   3.624   5.062   2.782 -0.5115  0.6603 -0.1851
  367MOL0     C48367   3.643   5.049   2.922  0.3055  0.3986 -0.0232
  367MOL0     C48368   3.747   5.125   2.984  0.1345 -0.5890 -0.6808
  367MOL0     C48369   3.834   5.210   2.910 -1.2220 -0.2774  0.4325
  367MOL0     O48370   3.945   5.278   2.963 -0.1241  0.0429 -0.0483
  367MOL0     C48371   3.989   5.245   3.093 -0.1298  0.7242  0.1444
  367MOL0     C48372   4.045   5.097   3.101  0.7777 -0.7584  0.3166
  367MOL0     C48373   4.202   5.090   3.096 -0.5151  0.8732  0.2931
  367MOL0     C48374   4.269   5.140   2.968  0.7939 -0.5236 -0.2994
  367MOL0     C48375   4.404   5.174   3.012 -0.3530  0.5468  0.0197
  367MOL0     C48376   4.519   5.202   3.025 -1.3983  0.2775  0.4937
  367MOL0     C48377   3.792   5.227   2.776  0.3781  0.1215 -0.3210
  367MOL0     C48378   3.693   5.161   2.709 -0.2381 -0.4985  0.3779
  367MOL0     H48379   3.258   5.131   2.655 -0.9916  0.5953 -0.8270
  367MOL0     H48380   3.039   4.991   2.657 -0.7994 -0.3128 -0.6539
  367MOL0     H48381   3.012   4.620   2.407 -1.2196 -0.7633 -0.7337
  367MOL0     H48382   2.936   4.768   2.336 -0.2446  0.1727  0.4755
  367MOL0     H48383   2.792   4.590   2.543 -2.2205  0.1128 -0.2698
  367MOL0     H48384   2.776   4.589   2.364  1.4338  0.8969 -1.0348
  367MOL0     H48385   2.712   4.836   2.407 -1.7091 -3.5297 -1.7571
  367MOL0     H48386   2.741   4.804   2.583 -3.0677 -0.2237  0.8578
  367MOL0     H48387   2.535   4.699   2.388  3.5051 -2.6845 -0.7904
  367MOL0     H48388   2.553   4.623   2.547  0.2677 -0.3870  0.8246
  367MOL0     H48389   2.500   4.928   2.511 -2.6291  1.5670  1.6266
  367MOL0     H48390   2.495   4.829   2.661  1.0440 -0.8657  0.6731
  367MOL0     H48391   2.302   4.712   2.623 -4.3659  1.0714  1.0354
  367MOL0     H48392   2.310   4.745   2.450 -0.6985 -2.1646  1.8573
  367MOL0     H48393   2.269   4.966   2.664  1.9341 -2.1181 -0.1806
  367MOL0     H48394   2.248   4.982   2.488  1.2623  0.1689  0.1201
  367MOL0     H48395   2.025   4.976   2.600 -0.0462 -0.3114  1.5579
  367MOL0     H48396   2.073   4.837   2.689 -0.4173  1.9460  0.3169
  367MOL0     H48397   2.025   4.895   2.297 -0.2176  0.8156  0.6093
  367MOL0     H48398   1.940   4.666   2.117  0.8247 -3.9312  1.1952
  367MOL0     H48399   1.841   4.794   2.150  1.4703  0.9948  1.8991
  367MOL0     H48400   1.674   4.651   2.268 -1.2432 -1.0698  0.5302
  367MOL0     H48401   1.777   4.509   2.206  0.8364 -0.1734 -1.7086
  367MOL0     H48402   1.613   4.702   2.037 -0.2028  0.3348  0.7348
  367MOL0     H48403   1.729   4.586   1.971  2.0195  1.5531  1.1862
  367MOL0     H48404   1.604   4.399   2.081  0.6964  0.3153 -0.2088
  367MOL0     H48405   1.502   4.472   1.963 -0.5085 -6.0186  1.0897
  367MOL0     H48406   1.463   4.251   2.143  0.7209 -1.5457  1.2135
  367MOL0     H48407   1.280   4.091   2.196 -1.2352  0.1567  3.1675
  367MOL0     H48408   0.732   4.071   2.152 -1.2217 -2.2232 -0.5096
  367MOL0     H48409   0.552   3.916   2.222  2.5405 -1.3552 -1.5815
  367MOL0     H48410   0.450   3.884   2.653  2.1397 -0.2196  1.6647
  367MOL0     H48411   0.548   3.737   2.626  1.8951  1.4253  0.2143
  367MOL0     H48412   0.295   3.673   2.514  1.2518 -1.0825 -0.5754
  367MOL0     H48413   0.268   3.784   2.652  0.3116  1.8382 -1.8506
  367MOL0     H48414   0.404   3.619   2.804  1.2020  1.0803 -0.1326
  367MOL0     H48415   0.425   3.520   2.661 -0.9924 -1.0700 -0.6778
  367MOL0     H48416   0.182   3.520   2.634  2.5340 -3.7047 -1.4348
  367MOL0     H48417   0.243   3.426   2.769 -0.3582 -0.3779  0.4618
  367MOL0     H48418   0.106   3.704   2.786 -2.7952  0.0348  2.3640
  367MOL0     H48419   0.189   3.643   2.919  2.8258 -1.6542 -0.3990
  367MOL0     H48420  -0.062   3.500   2.777 -2.5081 -1.5942  2.1836
  367MOL0     H48421  -0.060   3.608   2.918  1.4389  1.4842 -0.0581
  367MOL0     H48422   0.078   3.341   2.892 -1.4463 -0.8269  0.4506
  367MOL0     H48423   0.074   3.437   3.040 -0.2840 -0.8703  0.1995
  367MOL0     H48424  -0.106   3.252   3.045 -0.3248 -0.9649 -1.1600
  367MOL0     H48425  -0.170   3.309   2.900 -3.0268 -0.7394  1.5857
  367MOL0     H48426   0.685   3.935   2.631  0.7094 -0.5767 -0.2241
  367MOL0     H48427   0.880   4.085   2.547 -0.1592  0.8398 -0.9174
  367MOL0     H48428   1.020   4.404   2.267 -1.9574 -0.3200 -4.0185
  367MOL0     H48429   1.193   4.574   2.206  1.2427  0.6909 -1.6885
  367MOL0     H48430   3.213   4.698   2.419 -2.2647 -0.1046  0.9928
  367MOL0     H48431   3.439   4.830   2.406 -0.2194  1.2888 -0.7873
  367MOL0     H48432   3.576   4.995   2.989 -0.5724  1.2736 -0.1753
  367MOL0     H48433   3.765   5.106   3.090 -2.3832 -0.9090 -0.2533
  367MOL0     H48434   3.906   5.259   3.162 -1.0127 -3.0633  0.0755
  367MOL0     H48435   4.072   5.316   3.106 -0.0800  0.5467  0.8186
  367MOL0     H48436   3.998   5.058   3.192 -1.9092  0.4782 -0.4716
  367MOL0     H48437   4.001   5.045   3.015 -1.3221  1.4729 -0.0544
  367MOL0     H48438   4.225   4.984   3.114 -0.8894  0.6603 -0.4310
  367MOL0     H48439   4.239   5.146   3.182  2.6496  1.2970 -1.2163
  367MOL0     H48440   4.271   5.071   2.883  1.9337  1.8387 -2.2948
  367MOL0     H48441   4.213   5.232   2.949  0.5045 -0.1256  2.1883
  367MOL0     H48442   4.624   5.221   3.028 -0.4373 -3.9503 -0.0718
  367MOL0     H48443   3.844   5.303   2.718 -1.0731  2.7994  1.6740
  367MOL0     H48444   3.683   5.191   2.606 -0.2131  2.1723  1.0754
  368MOL0     O48445   8.428   7.127  10.103  0.9504 -0.0962 -0.8986
  368MOL0     C48446   8.425   7.071  10.218  0.1829 -0.0143 -0.2858
  368MOL0     O48447   8.316   7.036  10.291  0.5069  0.4492 -0.0422
  368MOL0     C48448   8.192   7.053  10.232 -0.4391  0.9831 -0.4838
  368MOL0     C48449   8.156   6.994  10.118 -0.1482 -0.8983  0.8263
  368MOL0     C48450   8.028   7.008  10.060 -0.1625  0.4564 -0.2115
  368MOL0     C48451   7.939   7.091  10.128  0.3151  0.5683 -0.0191
  368MOL0     O48452   7.821   7.100  10.069  0.2511  0.7649 -0.4697
  368MOL0     C48453   7.717   7.181  10.133 -0.6896  0.0878  0.1069
  368MOL0     C48454   7.635   7.113  10.234  0.4958  0.1373 -0.1490
  368MOL0     C48455   7.526   7.207  10.284 -0.5747  0.1079  0.1802
  368MOL0     C48456   7.438   7.122  10.379  0.7253  0.7505 -1.0689
  368MOL0     C48457   7.326   7.197  10.447  0.2461  0.5992 -0.2889
  368MOL0     C48458   7.388   7.308  10.535 -0.2115  0.5283 -0.5408
  368MOL0     C48459   7.295   7.370  10.646 -0.1418 -0.9271  1.0514
  368MOL0     C48460   7.353   7.490  10.720 -0.0917  0.1089  0.3554
  368MOL0     N48461   7.260   7.536  10.822  0.4564 -0.4942 -0.3807
  368MOL0     C48462   7.171   7.639  10.806 -0.1770  0.6406 -0.4766
  368MOL0     C48463   7.109   7.660  10.918  0.0509  0.4248 -0.1814
  368MOL0     C48464   7.017   7.780  10.931 -0.7267 -0.0568 -0.6328
  368MOL0     C48465   6.889   7.743  11.022 -0.9069 -0.4780  0.0290
  368MOL0     C48466   6.919   7.700  11.164 -1.1677  0.0179 -0.1738
  368MOL0     C48467   6.797   7.697  11.263 -1.1251 -0.2761  0.6575
  368MOL0     O48468   6.711   7.590  11.227 -0.8404 -0.2727  0.2966
  368MOL0     C48469   6.610   7.558  11.317 -0.2992 -0.1331 -0.6250
  368MOL0     C48470   6.562   7.432  11.323  0.3646 -0.2436 -1.2138
  368MOL0     C48471   6.455   7.407  11.407 -0.4111 -0.0858  0.3049
  368MOL0     C48472   6.390   7.507  11.483 -0.4447 -1.6766 -1.1185
  368MOL0     C48473   6.272   7.482  11.569 -0.2868 -0.4294 -0.0220
  368MOL0     O48474   6.204   7.589  11.614  0.0988  0.1798 -0.0024
  368MOL0     C48475   6.094   7.578  11.689 -0.3241 -0.6905  0.0421
  368MOL0     C48476   6.006   7.681  11.669 -0.3509 -1.3453 -0.6366
  368MOL0     C48477   5.895   7.690  11.764  0.3902  0.0982  0.5904
  368MOL0     C48478   5.864   7.589  11.855  0.5201  0.2807 -0.1247
  368MOL0     O48479   5.742   7.595  11.921 -0.0861 -0.1585  0.2072
  368MOL0     C48480   5.674   7.481  11.892  0.0798  0.4424 -0.9994
  368MOL0     C48481   5.516   7.504  11.926  0.6617  0.1734 -0.1595
  368MOL0     C48482   5.455   7.639  11.878 -0.3764  0.0026  0.5010
  368MOL0     C48483   5.460   7.663  11.720  0.0376 -0.7785 -0.5193
  368MOL0     C48484   5.389   7.788  11.664 -0.1924 -0.0166 -0.6375
  368MOL0     C48485   5.424   7.931  11.721 -0.0637 -0.2307  0.5887
  368MOL0     C48486   5.571   7.961  11.693 -0.4227  0.3990  1.0441
  368MOL0     C48487   5.614   8.095  11.735  0.2868 -0.2165  0.2152
  368MOL0    Cl48488   5.627   8.107  11.917 -0.1837  0.1190 -0.0472
  368MOL0     C48489   5.955   7.487  11.870 -0.4064 -0.5505  0.4957
  368MOL0     C48490   6.071   7.481  11.784  0.0805  0.8902 -1.8959
  368MOL0     O48491   6.247   7.362  11.590  0.3843 -0.0832  0.0728
  368MOL0     C48492   6.455   7.636  11.486  0.1169  0.1128 -0.5142
  368MOL0     C48493   6.552   7.655  11.393  0.0636 -0.0844  0.0471
  368MOL0     N48494   7.147   7.554  11.008 -0.0483  0.1821  0.7060
  368MOL0     N48495   7.249   7.488  10.946  0.2412 -0.0022 -0.3478
  368MOL0     C48496   7.977   7.149  10.250  0.2859  0.4749 -0.0249
  368MOL0     C48497   8.099   7.124  10.304 -0.4859  0.2520  0.3652
  368MOL0     C48498   8.562   7.046  10.273 -0.5452 -0.4661 -0.4604
  368MOL0     C48499   8.586   6.940  10.360 -0.3095 -0.0791 -1.0883
  368MOL0     C48500   8.722   6.917  10.402  0.3999  1.2365 -0.8803
  368MOL0     C48501   8.826   6.989  10.353 -0.4897  0.1161  0.1631
  368MOL0     O48502   8.949   6.984  10.394 -0.1303 -0.3397  0.0053
  368MOL0     C48503   9.022   6.857  10.387  0.8561 -0.0386  0.6096
  368MOL0     C48504   9.173   6.886  10.374 -0.4032  0.4797 -0.3309
  368MOL0     C48505   9.239   6.765  10.302 -0.3317 -0.5827 -0.2256
  368MOL0     C48506   9.392   6.767  10.314  0.9606  0.2792 -0.0928
  368MOL0     C48507   9.438   6.639  10.244  0.2346  1.0209  0.2414
  368MOL0     C48508   9.489   6.558  10.177  0.0538  0.2723 -0.5644
  368MOL0     C48509   8.802   7.093  10.264  0.4582  0.6929 -0.2230
  368MOL0     C48510   8.672   7.120  10.228 -0.3120 -0.0922  0.1504
  368MOL0     H48511   8.237   6.935  10.076  1.5694  0.7778  1.6095
  368MOL0     H48512   8.003   6.952   9.970 -1.8275 -0.7276  0.9360
  368MOL0     H48513   7.651   7.219  10.054 -0.7976  3.5639  1.6893
  368MOL0     H48514   7.770   7.269  10.169  0.7137 -0.1242 -1.3216
  368MOL0     H48515   7.692   7.075  10.319 -0.5109 -0.7251  0.1673
  368MOL0     H48516   7.586   7.034  10.175 -1.2890 -1.1037  2.7590
  368MOL0     H48517   7.476   7.249  10.196  1.3315  0.2797 -0.8730
  368MOL0     H48518   7.576   7.296  10.323  0.2489  0.0900 -0.7832
  368MOL0     H48519   7.397   7.044  10.314  0.8347  0.3695 -0.6911
  368MOL0     H48520   7.497   7.072  10.457  0.3339  1.4492 -0.3139
  368MOL0     H48521   7.275   7.133  10.519  0.3124  0.6574 -0.1904
  368MOL0     H48522   7.248   7.233  10.380 -0.2398  1.9342  0.9540
  368MOL0     H48523   7.440   7.379  10.470 -0.5847 -0.1157 -1.5613
  368MOL0     H48524   7.471   7.262  10.589 -2.5607  0.0195  3.0161
  368MOL0     H48525   7.199   7.395  10.601 -0.3072 -0.5568  1.5991
  368MOL0     H48526   7.273   7.294  10.722  0.8265 -1.9691  0.3268
  368MOL0     H48527   7.373   7.572  10.650  0.0259 -1.9415 -2.1979
  368MOL0     H48528   7.450   7.471  10.767 -1.1408 -1.0636  2.1498
  368MOL0     H48529   7.168   7.703  10.718 -0.2237  3.4077  1.4086
  368MOL0     H48530   6.983   7.801  10.829 -2.7968 -2.7978 -0.6045
  368MOL0     H48531   7.069   7.870  10.963 -0.3758 -0.5795  0.2907
  368MOL0     H48532   6.833   7.663  10.972  2.0426 -1.9759 -1.1251
  368MOL0     H48533   6.819   7.827  11.032 -0.6345  0.0925 -2.1476
  368MOL0     H48534   6.944   7.594  11.160  3.0910  0.8832 -2.4102
  368MOL0     H48535   7.003   7.753  11.211 -0.3768 -2.0288  0.8131
  368MOL0     H48536   6.751   7.796  11.264 -1.2206 -0.2331 -1.6525
  368MOL0     H48537   6.839   7.673  11.361 -1.4835  0.7561  1.0688
  368MOL0     H48538   6.608   7.349  11.271 -0.4516 -3.0702  2.2149
  368MOL0     H48539   6.424   7.303  11.409  0.2530 -0.3512 -1.4508
  368MOL0     H48540   6.030   7.758  11.596 -1.2720  1.1914  1.5523
  368MOL0     H48541   5.827   7.775  11.765 -0.1793 -0.3594  1.2217
  368MOL0     H48542   5.703   7.405  11.965  2.3320  3.0586  1.0300
  368MOL0     H48543   5.671   7.449  11.787  1.3985 -0.9114 -0.6572
  368MOL0     H48544   5.515   7.500  12.035  1.1592  1.7017 -0.0756
  368MOL0     H48545   5.457   7.419  11.892  1.3866 -0.5123  0.2803
  368MOL0     H48546   5.505   7.721  11.929 -1.0634  1.0886 -0.5113
  368MOL0     H48547   5.350   7.636  11.908 -1.2387 -0.3848 -2.2589
  368MOL0     H48548   5.566   7.658  11.695  0.1815  3.0912 -1.2689
  368MOL0     H48549   5.417   7.575  11.671 -0.8856 -0.0550 -1.0437
  368MOL0     H48550   5.280   7.783  11.673 -0.3928  3.5721  0.7126
  368MOL0     H48551   5.403   7.799  11.556 -1.3215  4.4026 -0.5177
  368MOL0     H48552   5.407   7.937  11.829  4.2471 -0.8572  1.4887
  368MOL0     H48553   5.352   7.998  11.672  0.1982 -0.4594 -0.1222
  368MOL0     H48554   5.638   7.887  11.739  1.6820 -0.7480 -3.3488
  368MOL0     H48555   5.580   7.950  11.585 -0.4624  3.9272  0.5517
  368MOL0     H48556   5.540   8.168  11.703 -0.1951  0.2331  2.2446
  368MOL0     H48557   5.714   8.117  11.696 -0.0647  2.3958  0.6145
  368MOL0     H48558   5.957   7.400  11.935  2.9330  0.4478  1.9812
  368MOL0     H48559   6.135   7.397  11.810 -2.9223 -0.4791  2.0762
  368MOL0     H48560   6.420   7.722  11.542 -1.7487 -0.2795 -1.0004
  368MOL0     H48561   6.581   7.759  11.403 -1.6606  0.2580  2.5331
  368MOL0     H48562   7.904   7.199  10.313  0.3508  1.0507 -0.4026
  368MOL0     H48563   8.115   7.170  10.401 -2.5285 -1.9663  1.8742
  368MOL0     H48564   8.509   6.888  10.414 -1.5486 -1.7238 -4.2018
  368MOL0     H48565   8.751   6.850  10.482 -0.1245  2.4092  0.3186
  368MOL0     H48566   8.984   6.800  10.302  0.1557  1.4283 -0.0914
  368MOL0     H48567   8.994   6.799  10.476 -0.0216 -2.1532 -0.9574
  368MOL0     H48568   9.196   6.976  10.316  0.4702 -0.1254 -0.9550
  368MOL0     H48569   9.210   6.888  10.477  1.0566  3.3513 -0.8314
  368MOL0     H48570   9.213   6.756  10.196 -0.7962  0.5764 -0.2239
  368MOL0     H48571   9.207   6.676  10.357 -3.8752  0.5789 -0.1632
  368MOL0     H48572   9.433   6.853  10.260  1.8118 -0.4239 -0.5897
  368MOL0     H48573   9.422   6.777  10.419 -0.3175 -0.9002  0.4076
  368MOL0     H48574   9.548   6.489  10.121  2.9291  2.0611  0.0576
  368MOL0     H48575   8.876   7.159  10.221  1.1911 -1.6191 -2.7841
  368MOL0     H48576   8.644   7.210  10.175 -0.8609 -0.7116 -0.6256
  369MOL0     O48577   9.707   7.842   7.349  0.7217 -0.3569  0.0966
  369MOL0     C48578   9.590   7.870   7.342  0.4886 -0.0496  0.0477
  369MOL0     O48579   9.542   7.986   7.320 -0.1989  0.0672  0.7737
  369MOL0     C48580   9.622   8.085   7.277 -0.2954  0.6779 -0.3524
  369MOL0     C48581   9.674   8.079   7.146 -0.3002  0.0698 -0.6612
  369MOL0     C48582   9.771   8.171   7.107  1.1730 -0.8773 -0.5135
  369MOL0     C48583   9.807   8.271   7.197 -0.8711  0.2659 -0.2091
  369MOL0     O48584   9.888   8.378   7.165  0.0019  0.0544 -0.8644
  369MOL0     C48585   9.958   8.381   7.048 -1.1687  0.1283 -0.1420
  369MOL0     C48586  10.062   8.500   7.055  0.5830 -0.6538 -0.4872
  369MOL0     C48587  10.081   8.550   6.909 -0.1665 -0.2565  0.2205
  369MOL0     C48588  10.153   8.686   6.914  0.5828 -0.2266  0.2744
  369MOL0     C48589  10.304   8.680   6.934 -0.4962 -0.2203 -0.6125
  369MOL0     C48590  10.378   8.631   6.815 -0.0733  0.0134  1.1423
  369MOL0     C48591  10.527   8.648   6.837  0.3834 -0.2207 -0.1632
  369MOL0     C48592  10.611   8.612   6.722  0.1744  0.5242  0.8277
  369MOL0     N48593  10.753   8.584   6.758  0.2846 -0.4888  0.7418
  369MOL0     C48594  10.822   8.477   6.712  0.1277  0.4755 -0.5661
  369MOL0     C48595  10.947   8.505   6.737  0.3265  0.6824 -0.2067
  369MOL0     C48596  11.063   8.411   6.696  0.4186  0.1412  0.4918
  369MOL0     C48597  11.108   8.439   6.546  0.0921 -0.1169  0.1767
  369MOL0     C48598  11.184   8.324   6.488  0.2530  0.7312  0.2224
  369MOL0     C48599  11.238   8.353   6.347 -0.2818 -0.6211  0.5481
  369MOL0     O48600  11.142   8.416   6.259  0.8758 -0.3319  0.3239
  369MOL0     C48601  11.021   8.356   6.238  0.3418 -0.1080 -1.4649
  369MOL0     C48602  10.917   8.441   6.208  0.3196 -1.1451  0.1344
  369MOL0     C48603  10.785   8.398   6.192 -0.2887 -0.7429 -0.2049
  369MOL0     C48604  10.747   8.268   6.210 -0.4795  0.0836 -0.3285
  369MOL0     C48605  10.609   8.223   6.192  0.6600 -0.7372  0.3183
  369MOL0     O48606  10.513   8.306   6.146  0.2165 -0.9643  0.0003
  369MOL0     C48607  10.389   8.250   6.127 -0.3980  0.0863 -0.0722
  369MOL0     C48608  10.324   8.268   6.007 -0.2889 -0.0463 -0.1021
  369MOL0     C48609  10.200   8.204   5.987 -0.1546 -0.6531 -0.1290
  369MOL0     C48610  10.147   8.114   6.084 -0.2336  0.5890  0.5770
  369MOL0     O48611  10.032   8.042   6.071 -0.8600 -0.1369  0.4423
  369MOL0     C48612  10.005   8.000   5.932  0.4117 -0.1149 -0.0571
  369MOL0     C48613   9.918   7.874   5.940 -0.0663  0.7797  0.7934
  369MOL0     C48614   9.849   7.829   5.807  0.0365  0.7946  0.4595
  369MOL0     C48615   9.747   7.718   5.828  1.1293  0.2227  0.2641
  369MOL0     C48616   9.660   7.691   5.701 -0.6668  0.0039  0.4345
  369MOL0     C48617   9.748   7.610   5.600 -0.6955  0.5601 -0.6546
  369MOL0     C48618   9.697   7.617   5.451  0.1337  0.3147  0.2281
  369MOL0     C48619   9.631   7.485   5.407  0.6683 -0.2976 -0.1532
  369MOL0    Cl48620   9.547   7.507   5.241 -0.2122 -0.1476 -0.1237
  369MOL0     C48621  10.200   8.117   6.207  0.3902  0.6586  0.3527
  369MOL0     C48622  10.320   8.187   6.236 -0.1214 -0.5540 -1.0359
  369MOL0     O48623  10.590   8.108   6.232 -0.0239 -0.0410 -0.3592
  369MOL0     C48624  10.851   8.177   6.250  0.7695  0.6082  0.5582
  369MOL0     C48625  10.990   8.220   6.255 -0.4698  0.4397 -0.4346
  369MOL0     N48626  10.954   8.629   6.800 -0.3043 -0.1678 -0.4583
  369MOL0     N48627  10.837   8.674   6.811  0.1419  0.0889  0.9179
  369MOL0     C48628   9.755   8.273   7.322  0.1585 -0.2358  0.5648
  369MOL0     C48629   9.662   8.185   7.368  0.4793  0.1613  0.2470
  369MOL0     C48630   9.493   7.758   7.370 -0.0738 -0.5662 -0.7198
  369MOL0     C48631   9.358   7.780   7.389  0.0978 -0.3582 -0.2951
  369MOL0     C48632   9.268   7.678   7.424  0.5697 -0.1977  0.5433
  369MOL0     C48633   9.318   7.547   7.411 -0.6442  0.0197  0.4486
  369MOL0     O48634   9.220   7.450   7.449 -0.0330 -0.4084 -0.3334
  369MOL0     C48635   9.231   7.315   7.399  0.1082 -0.0086 -0.0617
  369MOL0     C48636   9.094   7.250   7.387  0.2267 -0.5215  0.1426
  369MOL0     C48637   9.013   7.312   7.271 -1.0179  1.1329 -0.1610
  369MOL0     C48638   8.929   7.433   7.300 -0.3370 -0.7689  0.7933
  369MOL0     C48639   8.829   7.421   7.408  0.2468 -0.8193  0.0672
  369MOL0     C48640   8.750   7.439   7.497  0.0683 -1.0805 -0.5253
  369MOL0     C48641   9.447   7.518   7.379  0.2186 -0.4493 -0.2986
  369MOL0     C48642   9.538   7.623   7.366 -0.6422  0.3318  0.9974
  369MOL0     H48643   9.627   8.006   7.081 -1.4499 -0.5585  0.8128
  369MOL0     H48644   9.799   8.165   7.002 -1.1975 -0.3524 -1.2336
  369MOL0     H48645   9.895   8.391   6.959 -2.3394  1.5293  0.8006
  369MOL0     H48646  10.010   8.285   7.044  1.7489  1.4664  2.4399
  369MOL0     H48647  10.158   8.461   7.091  0.7881 -0.4894 -0.8498
  369MOL0     H48648  10.042   8.575   7.133  1.9571 -1.0913  0.3329
  369MOL0     H48649   9.983   8.564   6.864 -0.6203  1.9108  1.7241
  369MOL0     H48650  10.147   8.482   6.854  1.5977  0.6627  1.1180
  369MOL0     H48651  10.126   8.742   6.824 -0.6036 -0.2977  0.5669
  369MOL0     H48652  10.115   8.753   6.991  0.8037  0.0404  0.1532
  369MOL0     H48653  10.313   8.612   7.019  0.4835 -1.0825 -1.3825
  369MOL0     H48654  10.340   8.781   6.959  1.0577 -0.3700 -2.1007
  369MOL0     H48655  10.340   8.692   6.733 -1.0683 -0.4907  1.2166
  369MOL0     H48656  10.356   8.526   6.791 -1.6337  0.7863 -1.0777
  369MOL0     H48657  10.558   8.749   6.864  3.2358 -0.8247 -0.8347
  369MOL0     H48658  10.561   8.584   6.919  1.0352 -0.7329 -0.8116
  369MOL0     H48659  10.612   8.691   6.647  1.9855  0.7567  1.0616
  369MOL0     H48660  10.564   8.525   6.674 -1.2970  2.3391 -1.1876
  369MOL0     H48661  10.782   8.387   6.667  1.8641 -0.4532 -0.3343
  369MOL0     H48662  11.019   8.311   6.694  1.0029 -0.1702 -2.9520
  369MOL0     H48663  11.145   8.422   6.767 -0.0496  1.5290  0.8523
  369MOL0     H48664  11.174   8.526   6.543 -0.2151  0.1192  0.1346
  369MOL0     H48665  11.022   8.472   6.486 -1.1763 -1.5081  1.1377
  369MOL0     H48666  11.273   8.297   6.546  1.4431 -1.5937 -2.4897
  369MOL0     H48667  11.124   8.233   6.486 -1.7623  1.9965 -3.0232
  369MOL0     H48668  11.275   8.264   6.295  2.4889 -1.0136  2.9615
  369MOL0     H48669  11.324   8.421   6.352 -0.4506  0.1464 -3.4924
  369MOL0     H48670  10.945   8.546   6.201  0.9380 -1.2363  1.0226
  369MOL0     H48671  10.716   8.466   6.143  0.6500 -1.3110 -2.4372
  369MOL0     H48672  10.371   8.325   5.928 -1.8957  2.2733  0.4964
  369MOL0     H48673  10.155   8.217   5.889 -0.2754 -0.5688 -0.0626
  369MOL0     H48674  10.097   7.965   5.883 -0.0171 -0.3831 -0.6827
  369MOL0     H48675   9.957   8.085   5.883 -1.1490  0.2394  1.9373
  369MOL0     H48676   9.840   7.892   6.014  1.3946  0.0131  2.6190
  369MOL0     H48677   9.980   7.794   5.981  1.2145  0.0357 -2.2828
  369MOL0     H48678   9.920   7.805   5.727 -1.5358  1.6912 -1.2748
  369MOL0     H48679   9.789   7.912   5.769  0.9586  0.9141 -0.8168
  369MOL0     H48680   9.799   7.628   5.864  0.9882  0.4168  0.9775
  369MOL0     H48681   9.676   7.734   5.910  1.0513 -2.3864  0.7916
  369MOL0     H48682   9.622   7.784   5.659  0.2815 -0.9456 -2.7678
  369MOL0     H48683   9.572   7.628   5.720 -0.5727 -0.1724  0.2855
  369MOL0     H48684   9.740   7.504   5.626  0.3416  1.0128  1.7729
  369MOL0     H48685   9.852   7.643   5.600 -0.7259  0.7783 -2.6136
  369MOL0     H48686   9.626   7.698   5.435  0.1899  0.4827  0.8033
  369MOL0     H48687   9.784   7.646   5.391 -1.1025 -1.1851 -2.4399
  369MOL0     H48688   9.554   7.455   5.478  0.1948  2.5248  0.6693
  369MOL0     H48689   9.712   7.413   5.396  1.6235  0.7346 -0.1088
  369MOL0     H48690  10.147   8.059   6.282  1.0464  0.6643  0.8311
  369MOL0     H48691  10.352   8.193   6.339 -0.9444 -1.3140 -0.7141
  369MOL0     H48692  10.818   8.077   6.274  1.4717  0.1116 -0.4884
  369MOL0     H48693  11.070   8.156   6.293 -0.6074  0.8832  0.6406
  369MOL0     H48694   9.789   8.343   7.398  0.1479 -1.4514  1.7329
  369MOL0     H48695   9.622   8.209   7.466  2.4947  1.9345  0.7110
  369MOL0     H48696   9.320   7.882   7.387 -1.0401 -0.7813 -0.8593
  369MOL0     H48697   9.172   7.715   7.459  2.1641  1.4580  3.5153
  369MOL0     H48698   9.292   7.258   7.470  0.9969  1.2661  0.2442
  369MOL0     H48699   9.279   7.313   7.301 -1.1120 -1.0461 -0.6619
  369MOL0     H48700   9.098   7.141   7.375 -0.3114 -0.3187 -2.3486
  369MOL0     H48701   9.035   7.264   7.478 -0.3627  3.2090 -0.6451
  369MOL0     H48702   8.950   7.234   7.227  2.8013 -3.5964  1.8130
  369MOL0     H48703   9.090   7.345   7.200 -0.6223  0.2531 -0.1491
  369MOL0     H48704   9.006   7.509   7.319  2.5780 -3.2431 -0.2473
  369MOL0     H48705   8.876   7.457   7.208  3.8443 -3.0898 -2.5603
  369MOL0     H48706   8.681   7.450   7.579  0.4771 -2.9676  0.1283
  369MOL0     H48707   9.494   7.422   7.398  0.6277  0.0656  1.4425
  369MOL0     H48708   9.644   7.599   7.369 -0.8904 -0.7220  2.2187
  370MOL0     O48709   2.100   4.452   4.477 -0.2833 -0.2029 -0.2558
  370MOL0     C48710   2.053   4.372   4.399 -0.1852 -0.6968  1.0506
  370MOL0     O48711   2.098   4.354   4.271  0.1372 -0.1480 -0.7747
  370MOL0     C48712   2.230   4.383   4.252 -0.8356  0.4058  0.1388
  370MOL0     C48713   2.327   4.284   4.269  0.7108  0.1647 -0.7693
  370MOL0     C48714   2.459   4.330   4.279 -0.1044  0.3070 -0.0972
  370MOL0     C48715   2.500   4.459   4.234  0.0692  0.2286  0.1883
  370MOL0     O48716   2.638   4.483   4.226  0.4180  0.5585 -0.3736
  370MOL0     C48717   2.684   4.619   4.197  0.7035 -0.5538  0.2204
  370MOL0     C48718   2.836   4.601   4.178  0.1564 -0.3914  0.7770
  370MOL0     C48719   2.887   4.473   4.105 -0.1913 -0.1024  0.3889
  370MOL0     C48720   3.038   4.443   4.137  0.1485  0.6419 -0.3793
  370MOL0     C48721   3.141   4.549   4.091  0.4077  0.2598 -0.3797
  370MOL0     C48722   3.281   4.515   4.137 -0.2878 -0.5046  0.2235
  370MOL0     C48723   3.386   4.619   4.089 -0.5197  0.0596 -0.1254
  370MOL0     C48724   3.406   4.613   3.933  0.0149  0.6570  0.0728
  370MOL0     N48725   3.337   4.723   3.866 -0.1177  1.2833  0.1398
  370MOL0     C48726   3.236   4.700   3.774 -0.0268 -0.1857  0.9200
  370MOL0     C48727   3.176   4.812   3.747  0.3862  0.1781  0.2558
  370MOL0     C48728   3.088   4.831   3.626 -0.0908 -0.3126 -0.3799
  370MOL0     C48729   2.936   4.813   3.677  0.0510  0.2886 -0.4205
  370MOL0     C48730   2.898   4.663   3.699 -0.3990 -0.6969 -0.0053
  370MOL0     C48731   2.750   4.646   3.741 -0.3302 -0.5253  0.8690
  370MOL0     O48732   2.729   4.509   3.749 -0.4402 -0.6734 -0.1787
  370MOL0     C48733   2.599   4.468   3.769  0.0474  1.0925 -0.1350
  370MOL0     C48734   2.580   4.334   3.802 -0.2884 -0.3768  0.4416
  370MOL0     C48735   2.454   4.277   3.828 -0.3575 -0.1245  0.0546
  370MOL0     C48736   2.344   4.358   3.825 -0.5062 -0.3229  0.6516
  370MOL0     C48737   2.210   4.300   3.844  0.5091  0.5991 -0.9229
  370MOL0     O48738   2.108   4.388   3.862  0.0667  0.1266  0.1408
  370MOL0     C48739   1.982   4.332   3.882  0.3646  0.0912 -0.1079
  370MOL0     C48740   1.884   4.353   3.784 -0.6733 -0.5662  1.0184
  370MOL0     C48741   1.751   4.298   3.803 -1.0272  1.0719 -0.0982
  370MOL0     C48742   1.713   4.225   3.914 -0.0144 -0.4362 -0.1410
  370MOL0     O48743   1.584   4.178   3.934  0.2209 -0.1769 -0.7269
  370MOL0     C48744   1.478   4.200   3.840  0.5453  0.8561  0.4627
  370MOL0     C48745   1.360   4.101   3.874  0.7477 -0.1921 -0.1154
  370MOL0     C48746   1.238   4.130   3.780  0.1362  0.2631  0.5976
  370MOL0     C48747   1.131   4.027   3.801  0.3222 -0.3723  0.0445
  370MOL0     C48748   1.013   4.048   3.706 -0.1498 -0.5726  1.1198
  370MOL0     C48749   0.955   3.923   3.645 -0.5132  0.0463  0.4117
  370MOL0     C48750   0.908   3.823   3.750  0.6406 -1.0482  0.0157
  370MOL0     C48751   0.765   3.866   3.799 -0.7293 -0.5555 -0.9036
  370MOL0    Cl48752   0.788   3.992   3.934 -0.1866 -0.0912 -0.2791
  370MOL0     C48753   1.813   4.214   4.010 -0.3765 -0.0996  0.0727
  370MOL0     C48754   1.950   4.262   3.991 -0.4409  0.2320  0.0430
  370MOL0     O48755   2.193   4.180   3.832  0.0066 -0.0757  0.0462
  370MOL0     C48756   2.360   4.497   3.794  0.1604  0.1508  0.5342
  370MOL0     C48757   2.483   4.545   3.767  0.6386 -0.3530  0.3496
  370MOL0     N48758   3.239   4.916   3.825 -0.0670  0.5963 -0.1314
  370MOL0     N48759   3.337   4.859   3.893  0.1206  0.1052  0.0705
  370MOL0     C48760   2.393   4.551   4.194  0.3411  0.2844  0.5358
  370MOL0     C48761   2.267   4.510   4.205  0.6654  0.6161  0.1210
  370MOL0     C48762   1.940   4.290   4.445  0.5343  0.4756  1.0246
  370MOL0     C48763   1.885   4.297   4.577  0.2334  0.5909 -0.2876
  370MOL0     C48764   1.765   4.239   4.612 -0.2150  0.0040 -0.3267
  370MOL0     C48765   1.702   4.155   4.520  0.6386 -0.0440 -0.3819
  370MOL0     O48766   1.587   4.087   4.545 -0.4396 -0.2615 -0.1928
  370MOL0     C48767   1.513   4.115   4.663 -0.1048  0.1148 -0.3435
  370MOL0     C48768   1.446   4.251   4.669  0.9346 -0.8831 -0.7947
  370MOL0     C48769   1.312   4.239   4.597  0.3501 -0.2165 -0.0797
  370MOL0     C48770   1.251   4.380   4.596 -0.5983  0.0388 -0.2034
  370MOL0     C48771   1.137   4.387   4.513  0.0879 -0.3200  0.2491
  370MOL0     C48772   1.039   4.395   4.443  0.2814 -0.8318  0.0980
  370MOL0     C48773   1.764   4.130   4.395  0.0426 -0.0038  0.2241
  370MOL0     C48774   1.879   4.203   4.357  0.8620  0.5290  0.4873
  370MOL0     H48775   2.297   4.186   4.305  1.2620  0.1911 -0.2285
  370MOL0     H48776   2.535   4.260   4.309  2.1429  2.4212 -0.5301
  370MOL0     H48777   2.659   4.686   4.280 -0.1992 -0.0057 -0.4749
  370MOL0     H48778   2.640   4.665   4.108 -1.7699 -2.1874  0.5064
  370MOL0     H48779   2.875   4.595   4.279  0.6526 -1.3365  0.5437
  370MOL0     H48780   2.871   4.694   4.132  0.5891 -0.1171  1.6534
  370MOL0     H48781   2.889   4.488   3.996  2.3472  0.6007  0.4744
  370MOL0     H48782   2.835   4.379   4.123 -1.8524  0.6342 -0.3857
  370MOL0     H48783   3.053   4.436   4.245 -0.0403  1.7299 -0.2795
  370MOL0     H48784   3.067   4.345   4.097  0.3515  0.4944  0.1233
  370MOL0     H48785   3.104   4.645   4.127  0.5532  0.2617 -0.2321
  370MOL0     H48786   3.138   4.543   3.982 -0.9969  2.2157 -0.4955
  370MOL0     H48787   3.314   4.420   4.096  2.0696 -0.0894  1.0425
  370MOL0     H48788   3.300   4.520   4.245  0.2744 -1.5027  0.1804
  370MOL0     H48789   3.364   4.724   4.111 -0.3109 -0.3918  2.6117
  370MOL0     H48790   3.477   4.607   4.148 -0.2379 -3.0682 -1.0646
  370MOL0     H48791   3.372   4.521   3.884 -1.6389  1.5149 -0.4575
  370MOL0     H48792   3.512   4.610   3.909  0.0987 -1.7500  0.4822
  370MOL0     H48793   3.203   4.610   3.723 -2.1901 -0.4173  2.6042
  370MOL0     H48794   3.116   4.771   3.539  1.3481 -2.0097  1.1522
  370MOL0     H48795   3.113   4.931   3.591  0.5038 -0.4730 -0.4192
  370MOL0     H48796   2.870   4.839   3.594 -0.5611 -1.5413 -0.5503
  370MOL0     H48797   2.922   4.867   3.771  0.3951 -1.5814  0.7590
  370MOL0     H48798   2.902   4.616   3.600 -0.7461  1.1114 -0.9259
  370MOL0     H48799   2.964   4.603   3.762  0.6668 -1.7761 -2.0473
  370MOL0     H48800   2.690   4.682   3.657  2.0368  0.6570 -0.4038
  370MOL0     H48801   2.712   4.701   3.828 -0.4777  2.8775 -1.1795
  370MOL0     H48802   2.671   4.274   3.806  0.0349 -0.1309 -1.8417
  370MOL0     H48803   2.460   4.172   3.857  0.0881 -0.7101 -1.9757
  370MOL0     H48804   1.914   4.405   3.694  0.6481 -0.6772  1.3720
  370MOL0     H48805   1.676   4.320   3.728 -1.0741  3.7630  0.6148
  370MOL0     H48806   1.510   4.154   3.746 -1.0155 -2.6625  1.4868
  370MOL0     H48807   1.428   4.297   3.834 -2.5640 -0.6009  0.8924
  370MOL0     H48808   1.327   4.095   3.979 -0.9803  1.9671 -0.4626
  370MOL0     H48809   1.395   3.998   3.858  2.2785  0.2535  0.2245
  370MOL0     H48810   1.274   4.123   3.677 -0.8854  1.8646  0.0983
  370MOL0     H48811   1.195   4.230   3.795  2.2019  1.4254 -0.8021
  370MOL0     H48812   1.177   3.930   3.779 -2.0057 -0.7424 -4.2847
  370MOL0     H48813   1.093   4.031   3.903 -1.6612 -0.4928 -0.6533
  370MOL0     H48814   1.041   4.113   3.621 -0.9490  2.4099  2.9803
  370MOL0     H48815   0.944   4.115   3.757 -0.1207  0.6147 -0.3039
  370MOL0     H48816   1.026   3.880   3.574 -1.0307 -0.7991  0.3917
  370MOL0     H48817   0.878   3.948   3.572 -1.4401 -2.8949  0.2688
  370MOL0     H48818   0.897   3.720   3.712 -1.2352 -1.0872  0.5901
  370MOL0     H48819   0.972   3.830   3.838  1.3256  0.8566 -0.5819
  370MOL0     H48820   0.722   3.780   3.852 -0.4456  0.4557  1.0506
  370MOL0     H48821   0.694   3.907   3.727 -1.0718  1.9194  0.7172
  370MOL0     H48822   1.790   4.157   4.099  1.4954 -2.4065 -0.8138
  370MOL0     H48823   2.029   4.240   4.062  0.3181  3.7162  0.4188
  370MOL0     H48824   2.278   4.567   3.778 -0.9570 -1.0879  0.5963
  370MOL0     H48825   2.484   4.650   3.739 -0.5933 -0.7052 -1.1548
  370MOL0     H48826   2.412   4.656   4.172 -2.7984  2.3618  5.9424
  370MOL0     H48827   2.188   4.579   4.178 -0.4246 -1.8915 -3.9962
  370MOL0     H48828   1.934   4.355   4.654 -0.6186 -0.8035  1.3640
  370MOL0     H48829   1.730   4.262   4.712 -1.2748 -2.6430 -0.0085
  370MOL0     H48830   1.579   4.109   4.750  0.9751 -2.8038 -1.2278
  370MOL0     H48831   1.434   4.040   4.675 -0.6824  0.4625 -1.7411
  370MOL0     H48832   1.437   4.275   4.775  2.9480 -3.1273 -0.0228
  370MOL0     H48833   1.497   4.332   4.617  0.1529  0.0901 -0.0719
  370MOL0     H48834   1.236   4.175   4.644 -1.1896  0.8905 -0.9534
  370MOL0     H48835   1.310   4.196   4.497 -1.9510 -0.0917 -0.1521
  370MOL0     H48836   1.218   4.411   4.695 -3.2272 -2.8171 -0.0414
  370MOL0     H48837   1.329   4.443   4.552 -0.3781  0.0974  0.2739
  370MOL0     H48838   0.954   4.412   4.380  1.3052  4.0993 -0.3790
  370MOL0     H48839   1.720   4.059   4.325  0.0538 -0.2365  0.4517
  370MOL0     H48840   1.925   4.184   4.261 -2.2240 -3.1454 -0.5342
  371MOL0     O48841   7.323   6.633   9.064 -0.4309 -0.2815  1.0043
  371MOL0     C48842   7.354   6.734   9.005  0.0700 -0.5835  0.8296
  371MOL0     O48843   7.273   6.841   8.973  0.3601 -1.2161  0.0815
  371MOL0     C48844   7.136   6.831   8.996  0.7784 -0.0741 -0.2121
  371MOL0     C48845   7.075   6.948   9.046 -0.7035  0.2116  0.4944
  371MOL0     C48846   6.938   6.949   9.071  0.4178  0.0895 -0.0838
  371MOL0     C48847   6.862   6.836   9.054 -0.1777 -0.3563 -0.0395
  371MOL0     O48848   6.724   6.832   9.059  0.5316  0.0110 -0.1906
  371MOL0     C48849   6.658   6.955   9.102  0.5497 -0.4305 -0.2212
  371MOL0     C48850   6.504   6.922   9.104 -0.2628  0.4202 -1.1786
  371MOL0     C48851   6.433   7.023   9.194 -0.3538  0.1207  0.5563
  371MOL0     C48852   6.291   6.983   9.187  0.0349 -0.1788 -0.7817
  371MOL0     C48853   6.192   7.073   9.275  0.2790  0.0805 -0.3836
  371MOL0     C48854   6.041   7.036   9.262 -0.5922  0.2886 -0.0799
  371MOL0     C48855   5.948   7.124   9.344 -0.6313 -0.2074  0.2846
  371MOL0     C48856   5.806   7.067   9.354  0.7658  0.0101 -0.0433
  371MOL0     N48857   5.705   7.152   9.422  0.5347  0.2866 -0.9041
  371MOL0     C48858   5.720   7.204   9.554  0.1821  0.1901  0.1980
  371MOL0     C48859   5.598   7.245   9.583  0.2667  0.0381  1.1790
  371MOL0     C48860   5.561   7.322   9.706 -0.3087 -0.3577  0.0233
  371MOL0     C48861   5.417   7.369   9.707  0.8523  0.0258 -0.0297
  371MOL0     C48862   5.396   7.497   9.617  0.5209  0.3918  0.4639
  371MOL0     C48863   5.242   7.504   9.589 -0.3330  0.0385  0.7085
  371MOL0     O48864   5.158   7.508   9.704 -0.3406  0.4328  0.7804
  371MOL0     C48865   5.024   7.512   9.692 -0.1123 -0.7730 -0.3618
  371MOL0     C48866   4.946   7.503   9.575 -0.8282  0.0772  0.2118
  371MOL0     C48867   4.803   7.535   9.572 -0.3775 -0.0838 -0.9202
  371MOL0     C48868   4.740   7.569   9.696 -0.4977  1.2117  0.8660
  371MOL0     C48869   4.592   7.567   9.702 -0.4858 -0.1103 -0.2924
  371MOL0     O48870   4.537   7.587   9.828  0.0888 -0.1455 -0.5882
  371MOL0     C48871   4.405   7.602   9.834  0.0586  0.1258 -0.2417
  371MOL0     C48872   4.337   7.708   9.782 -0.7957 -1.1253  0.0172
  371MOL0     C48873   4.200   7.729   9.809 -1.0089 -0.1063 -0.2729
  371MOL0     C48874   4.123   7.625   9.874 -0.7852  0.2862  0.4357
  371MOL0     O48875   3.987   7.646   9.885  0.0022  0.2034  0.0784
  371MOL0     C48876   3.917   7.535   9.941  0.2818  0.4706  0.0221
  371MOL0     C48877   3.770   7.579   9.962 -0.1686  0.4372 -0.1855
  371MOL0     C48878   3.761   7.700  10.060  0.0171 -0.9339  0.4055
  371MOL0     C48879   3.642   7.678  10.158 -0.7936 -0.5909  0.0525
  371MOL0     C48880   3.605   7.806  10.237 -0.0520  0.1791 -0.6776
  371MOL0     C48881   3.500   7.762  10.350  0.0836 -0.3548  0.4232
  371MOL0     C48882   3.571   7.718  10.482 -0.2836  0.9291  0.2699
  371MOL0     C48883   3.484   7.642  10.576  0.6181  0.2247  0.2999
  371MOL0    Cl48884   3.330   7.721  10.621  0.2229 -0.3381 -0.3436
  371MOL0     C48885   4.202   7.515   9.921 -0.5551  0.2896 -0.6568
  371MOL0     C48886   4.341   7.512   9.919 -0.1180  0.2175  0.4895
  371MOL0     O48887   4.528   7.549   9.595  0.2660 -0.0697  0.3974
  371MOL0     C48888   4.822   7.592   9.809  1.0478  0.7547 -0.3101
  371MOL0     C48889   4.958   7.571   9.804 -0.1276  0.2612 -0.0765
  371MOL0     N48890   5.508   7.228   9.479 -0.7397  0.0236 -0.0630
  371MOL0     N48891   5.575   7.180   9.383 -0.1336 -0.1376  0.6308
  371MOL0     C48892   6.918   6.719   9.007 -0.7631  0.4858  0.2355
  371MOL0     C48893   7.059   6.711   8.990  0.2262 -0.3675 -0.6143
  371MOL0     C48894   7.490   6.743   8.956 -0.9599 -0.1542  0.0777
  371MOL0     C48895   7.576   6.632   8.960  0.4819 -0.1264  0.6822
  371MOL0     C48896   7.711   6.647   8.908 -0.2321  1.0043 -0.6979
  371MOL0     C48897   7.757   6.773   8.862  0.7108 -0.3278 -0.2024
  371MOL0     O48898   7.880   6.803   8.806  0.1875  0.6402  0.6602
  371MOL0     C48899   7.962   6.693   8.767 -0.1533  0.1008  0.3000
  371MOL0     C48900   8.083   6.739   8.673  0.3868  0.3843  0.4652
  371MOL0     C48901   8.161   6.857   8.722  0.0299  0.2535 -0.9018
  371MOL0     C48902   8.280   6.860   8.622 -0.1105 -0.8367 -0.3051
  371MOL0     C48903   8.405   6.815   8.682 -0.3455  0.4235  0.1803
  371MOL0     C48904   8.509   6.798   8.734 -0.5353  0.6955 -0.3406
  371MOL0     C48905   7.664   6.881   8.852  0.7889 -0.2968 -0.2352
  371MOL0     C48906   7.534   6.862   8.901  0.2740 -0.3723  0.5090
  371MOL0     H48907   7.123   7.043   9.070 -1.3407  0.3667  1.2207
  371MOL0     H48908   6.896   7.046   9.095  0.6904 -0.0673  1.0829
  371MOL0     H48909   6.670   7.034   9.027  1.5267 -2.0632 -1.9191
  371MOL0     H48910   6.692   7.001   9.194 -2.0209 -0.0083  0.5834
  371MOL0     H48911   6.500   6.825   9.155  0.6018  0.6790 -0.5821
  371MOL0     H48912   6.466   6.919   9.002 -3.0659  0.5408 -0.2171
  371MOL0     H48913   6.442   7.128   9.167 -1.7825  0.2374  0.4809
  371MOL0     H48914   6.466   7.011   9.298 -1.1777  0.6883  0.8920
  371MOL0     H48915   6.264   6.994   9.082 -0.0775 -0.9159 -0.8370
  371MOL0     H48916   6.276   6.875   9.203  0.0863  0.0651  1.1339
  371MOL0     H48917   6.207   7.179   9.253  0.9517  0.2674  0.8742
  371MOL0     H48918   6.221   7.063   9.381 -0.6899  2.1341  0.1255
  371MOL0     H48919   6.039   6.930   9.290  0.4405  0.5739  1.2033
  371MOL0     H48920   6.005   7.046   9.160 -1.9867 -2.2547  0.1027
  371MOL0     H48921   5.990   7.128   9.445  0.1333  0.1796 -0.0447
  371MOL0     H48922   5.949   7.222   9.297 -1.5728  0.2265  1.1381
  371MOL0     H48923   5.810   6.968   9.401  0.4026 -0.9043 -1.8612
  371MOL0     H48924   5.770   7.039   9.255  0.8141 -0.5437  0.0905
  371MOL0     H48925   5.807   7.205   9.619  0.4969 -0.6888 -0.1855
  371MOL0     H48926   5.624   7.411   9.719 -0.3247 -0.2575 -0.5665
  371MOL0     H48927   5.566   7.251   9.789  1.6569  0.0395  0.3029
  371MOL0     H48928   5.392   7.397   9.809  0.9125  0.2989 -0.0904
  371MOL0     H48929   5.352   7.285   9.678 -0.7823  1.6234 -1.2248
  371MOL0     H48930   5.423   7.592   9.664 -3.6924  1.1118  1.8955
  371MOL0     H48931   5.453   7.491   9.524  0.1908  2.8053  0.0506
  371MOL0     H48932   5.208   7.419   9.530 -0.0331  0.4718 -0.1055
  371MOL0     H48933   5.230   7.598   9.534  0.0971  0.0661  0.6584
  371MOL0     H48934   4.990   7.472   9.481 -1.3361 -1.1779  0.3716
  371MOL0     H48935   4.750   7.507   9.481  1.2324 -1.6378 -1.4571
  371MOL0     H48936   4.384   7.781   9.717  0.5097 -2.3192 -0.4480
  371MOL0     H48937   4.149   7.818   9.773 -2.4219  0.3991  2.6475
  371MOL0     H48938   3.955   7.503  10.039 -1.1297 -1.2967  0.0568
  371MOL0     H48939   3.920   7.450   9.872 -1.1033 -1.5752  2.2850
  371MOL0     H48940   3.721   7.492  10.008 -0.3979 -0.8693 -2.7029
  371MOL0     H48941   3.711   7.593   9.871 -0.8185  1.8768  0.4187
  371MOL0     H48942   3.748   7.798  10.013  1.3438 -0.9294  0.0179
  371MOL0     H48943   3.850   7.699  10.124  0.0009  2.4916  0.6264
  371MOL0     H48944   3.555   7.642  10.102 -1.1547  2.7976 -1.8268
  371MOL0     H48945   3.679   7.595  10.219 -2.8270 -0.8994  0.9293
  371MOL0     H48946   3.556   7.878  10.170  1.0419 -0.3027 -2.0412
  371MOL0     H48947   3.692   7.857  10.279  0.0661 -0.3075 -0.3286
  371MOL0     H48948   3.439   7.679  10.315 -2.4054  0.7136  1.9174
  371MOL0     H48949   3.423   7.840  10.365 -1.5865 -1.7345 -0.5995
  371MOL0     H48950   3.651   7.646  10.464 -1.8487 -0.4044 -1.7637
  371MOL0     H48951   3.620   7.797  10.539 -0.4093 -1.4475  4.0749
  371MOL0     H48952   3.544   7.603  10.659  0.5790 -0.9585 -0.2024
  371MOL0     H48953   3.450   7.546  10.535  1.0513  0.7028 -1.2100
  371MOL0     H48954   4.157   7.432   9.975  0.2882  0.1947 -0.0804
  371MOL0     H48955   4.398   7.434   9.968  1.3808  0.8855 -0.1511
  371MOL0     H48956   4.772   7.615   9.903 -0.9909 -1.3409 -0.7858
  371MOL0     H48957   5.022   7.591   9.890 -0.1438  2.3088 -0.4880
  371MOL0     H48958   6.850   6.638   8.983 -0.6748  0.4626  0.0620
  371MOL0     H48959   7.113   6.622   8.960 -0.5923 -0.9381 -0.4185
  371MOL0     H48960   7.564   6.530   8.994  3.9233 -1.9361 -2.7089
  371MOL0     H48961   7.785   6.568   8.913 -1.5701 -0.2010  2.2310
  371MOL0     H48962   7.899   6.619   8.715  1.5988 -0.4342 -1.1699
  371MOL0     H48963   8.004   6.653   8.859  0.4982  2.1975  0.9618
  371MOL0     H48964   8.157   6.657   8.672  1.3939  1.2271  1.9829
  371MOL0     H48965   8.056   6.747   8.568 -0.8948  2.5417  0.9050
  371MOL0     H48966   8.184   6.852   8.829  5.0635 -1.5083 -1.7572
  371MOL0     H48967   8.096   6.939   8.692 -1.8649 -0.8109  0.1497
  371MOL0     H48968   8.256   6.826   8.520 -2.5530 -1.7598  0.4913
  371MOL0     H48969   8.300   6.966   8.604 -1.1264  0.1165  3.3311
  371MOL0     H48970   8.605   6.788   8.779 -0.8009  1.1929  0.3576
  371MOL0     H48971   7.702   6.972   8.806  3.3186 -0.3509  1.5651
  371MOL0     H48972   7.469   6.948   8.884 -1.2920 -1.6943 -0.4347
  372MOL0     O48973   1.874   5.665  10.408 -0.2741 -0.5887  0.6630
  372MOL0     C48974   1.878   5.660  10.283  1.1646  0.5810  0.0119
  372MOL0     O48975   1.761   5.646  10.208 -0.0402  0.1384  0.3865
  372MOL0     C48976   1.635   5.619  10.270  0.6534 -0.1549  0.1038
  372MOL0     C48977   1.553   5.510  10.220 -0.3478 -0.5113 -0.4861
  372MOL0     C48978   1.426   5.494  10.274  0.3950  0.6751  0.0514
  372MOL0     C48979   1.374   5.586  10.363 -0.9747  0.9456 -0.5964
  372MOL0     O48980   1.255   5.554  10.423 -0.1371 -0.2424 -0.0152
  372MOL0     C48981   1.204   5.635  10.529 -0.4401  0.6177  0.1513
  372MOL0     C48982   1.097   5.547  10.588  0.0495 -0.0939 -1.1713
  372MOL0     C48983   0.964   5.543  10.511  0.4621 -0.0189  0.3463
  372MOL0     C48984   0.852   5.462  10.574  0.7542  0.4227  0.0226
  372MOL0     C48985   0.741   5.398  10.481 -0.4033 -0.2300 -0.5045
  372MOL0     C48986   0.672   5.509  10.409  0.3663  0.1755 -0.3847
  372MOL0     C48987   0.540   5.458  10.352  0.3436 -1.0571 -0.5138
  372MOL0     C48988   0.408   5.513  10.419 -0.2107  0.2660 -0.0843
  372MOL0     N48989   0.411   5.485  10.562  0.3871 -0.0425  0.5021
  372MOL0     C48990   0.447   5.575  10.661  0.9484 -0.2628  0.4726
  372MOL0     C48991   0.421   5.511  10.777  0.1964  0.7006  0.1550
  372MOL0     C48992   0.452   5.565  10.915 -0.5819 -0.3317 -0.1135
  372MOL0     C48993   0.567   5.479  10.969 -0.0583  0.3945 -0.4327
  372MOL0     C48994   0.586   5.515  11.113 -0.3996  0.0283 -0.2685
  372MOL0     C48995   0.625   5.658  11.146 -0.5023 -0.0858 -0.1879
  372MOL0     O48996   0.726   5.707  11.056 -0.2037 -0.1706 -0.2914
  372MOL0     C48997   0.863   5.673  11.061  0.2223 -0.2258  0.3054
  372MOL0     C48998   0.928   5.601  11.160 -0.0683 -0.1190  0.8609
  372MOL0     C48999   1.069   5.573  11.157  0.5425  0.6912  0.0775
  372MOL0     C49000   1.144   5.625  11.047  1.0669 -0.2502 -0.0208
  372MOL0     C49001   1.292   5.614  11.036  0.0778  0.6536 -0.1009
  372MOL0     O49002   1.352   5.653  10.927 -0.0938  0.2154 -0.1840
  372MOL0     C49003   1.489   5.665  10.906 -0.0410 -0.3966  0.8535
  372MOL0     C49004   1.546   5.651  10.780  0.7503 -0.5283 -0.2070
  372MOL0     C49005   1.683   5.663  10.763  0.8048 -0.5967 -0.0980
  372MOL0     C49006   1.770   5.700  10.864 -0.8647 -0.1284 -0.6199
  372MOL0     O49007   1.900   5.719  10.832  0.1994 -0.5341  0.8480
  372MOL0     C49008   1.990   5.722  10.951 -0.7960  0.3625  0.2755
  372MOL0     C49009   2.132   5.747  10.895 -0.0157  0.0493  0.0700
  372MOL0     C49010   2.245   5.724  10.998  0.4048 -0.4441  0.4881
  372MOL0     C49011   2.374   5.743  10.923  0.6604  0.5366  0.1922
  372MOL0     C49012   2.488   5.749  11.024 -0.3875  0.0818  0.6617
  372MOL0     C49013   2.621   5.772  10.953  0.0732 -0.2580  0.1224
  372MOL0     C49014   2.736   5.765  11.058 -0.7955 -0.3690  0.5905
  372MOL0     C49015   2.877   5.800  11.002 -0.0968 -0.0905 -0.8576
  372MOL0    Cl49016   2.899   5.670  10.884 -0.8219  0.2983  0.1868
  372MOL0     C49017   1.709   5.729  10.986 -0.4191 -0.3625  0.0158
  372MOL0     C49018   1.575   5.711  11.006  0.7098  0.6575 -0.4322
  372MOL0     O49019   1.350   5.572  11.139  0.3056  0.6021 -0.5079
  372MOL0     C49020   1.073   5.705  10.954 -0.5803 -0.3653 -0.1578
  372MOL0     C49021   0.936   5.718  10.956  0.0430  0.1872  0.3910
  372MOL0     N49022   0.374   5.388  10.746  0.4859 -0.1318 -0.5039
  372MOL0     N49023   0.365   5.371  10.616 -0.0143  0.1948 -0.7451
  372MOL0     C49024   1.455   5.694  10.403  0.0757 -0.4421  0.1326
  372MOL0     C49025   1.580   5.714  10.356  0.1941  0.6700 -0.3569
  372MOL0     C49026   2.006   5.669  10.214 -1.0868 -0.5363  0.1449
  372MOL0     C49027   2.125   5.714  10.279  0.5849 -0.1980  0.5180
  372MOL0     C49028   2.244   5.724  10.210  0.7809 -0.4599 -0.2278
  372MOL0     C49029   2.250   5.695  10.078 -0.2272  0.5739  1.6863
  372MOL0     O49030   2.357   5.709   9.999  0.2091 -0.2728  0.5397
  372MOL0     C49031   2.485   5.719  10.068  0.0983 -0.1501  0.1370
  372MOL0     C49032   2.598   5.703   9.970  0.2008 -0.5896  0.5056
  372MOL0     C49033   2.727   5.659  10.046  0.0969  0.2058 -0.2818
  372MOL0     C49034   2.823   5.775  10.091 -0.2315  0.8788 -0.1865
  372MOL0     C49035   2.772   5.854  10.213  0.0275 -0.2250 -0.0323
  372MOL0     C49036   2.716   5.905  10.309 -0.7044 -0.1982  0.3523
  372MOL0     C49037   2.135   5.655  10.009  0.0467  0.9222  0.1268
  372MOL0     C49038   2.014   5.636  10.078 -0.3437  0.5384  0.4299
  372MOL0     H49039   1.597   5.448  10.142  0.2907  0.0066 -0.5475
  372MOL0     H49040   1.359   5.410  10.258 -0.6941  1.8419 -1.9850
  372MOL0     H49041   1.155   5.722  10.484 -1.6025 -0.3385 -0.5048
  372MOL0     H49042   1.277   5.651  10.609  1.3590 -1.3212 -1.0030
  372MOL0     H49043   1.072   5.591  10.685  4.6526 -0.4365  0.4097
  372MOL0     H49044   1.141   5.448  10.599  2.3270  0.7071 -2.5708
  372MOL0     H49045   0.976   5.502  10.410 -1.0096 -0.6040  0.3848
  372MOL0     H49046   0.931   5.645  10.495  1.2226  0.1094 -0.4979
  372MOL0     H49047   0.890   5.385  10.641  0.0891  1.5961  1.8280
  372MOL0     H49048   0.797   5.530  10.640 -0.2969 -1.2232  0.9125
  372MOL0     H49049   0.674   5.332  10.538  0.1581 -2.1931 -2.0043
  372MOL0     H49050   0.791   5.334  10.408  0.4118 -2.2752  1.7213
  372MOL0     H49051   0.740   5.561  10.341 -2.2667  2.5818 -1.4172
  372MOL0     H49052   0.652   5.587  10.483  0.9072 -0.6872  0.7070
  372MOL0     H49053   0.529   5.494  10.249  1.5602  2.2100  0.3721
  372MOL0     H49054   0.528   5.349  10.358 -0.5375 -0.9917  5.7493
  372MOL0     H49055   0.324   5.472  10.363  0.9231 -0.8206 -1.0796
  372MOL0     H49056   0.399   5.620  10.395  0.1880  0.5885  1.1078
  372MOL0     H49057   0.491   5.673  10.645  1.5391 -0.8615 -1.9606
  372MOL0     H49058   0.369   5.564  10.985 -3.2798 -0.6330 -3.0652
  372MOL0     H49059   0.467   5.671  10.894 -0.9448 -0.1359  0.5960
  372MOL0     H49060   0.660   5.489  10.912  1.4127 -0.0948  1.7603
  372MOL0     H49061   0.552   5.371  10.960  3.2861 -0.2482  0.4454
  372MOL0     H49062   0.499   5.495  11.177 -1.7423 -0.4618 -2.1568
  372MOL0     H49063   0.675   5.467  11.154  0.3144 -0.2487 -2.0616
  372MOL0     H49064   0.664   5.684  11.245 -1.1610 -0.1818  0.1040
  372MOL0     H49065   0.534   5.718  11.148  0.6171  1.6901  0.1750
  372MOL0     H49066   0.865   5.566  11.241 -0.7200 -0.0414  0.3975
  372MOL0     H49067   1.112   5.527  11.245 -0.7787  3.0897  2.0913
  372MOL0     H49068   1.475   5.622  10.703  1.8882 -1.6811 -0.8751
  372MOL0     H49069   1.721   5.654  10.662  1.5359  0.1832  0.0961
  372MOL0     H49070   1.981   5.625  11.001 -0.3076  0.4224  0.4810
  372MOL0     H49071   1.964   5.809  11.012 -0.1787  0.4840  0.3645
  372MOL0     H49072   2.138   5.853  10.867  1.8696 -0.5707 -2.1506
  372MOL0     H49073   2.153   5.687  10.806 -2.1286 -1.8457  0.7617
  372MOL0     H49074   2.242   5.628  11.051  0.3915 -2.3836 -2.7533
  372MOL0     H49075   2.237   5.808  11.067 -1.3116 -1.0069  1.0268
  372MOL0     H49076   2.390   5.659  10.855  0.1285  0.5487  0.0432
  372MOL0     H49077   2.364   5.834  10.863 -0.6212  0.4433  0.2276
  372MOL0     H49078   2.496   5.655  11.079  1.9366  1.3442  2.6627
  372MOL0     H49079   2.466   5.833  11.090  1.8256  0.0722  1.5057
  372MOL0     H49080   2.631   5.866  10.899  1.4668 -2.4042 -3.7483
  372MOL0     H49081   2.626   5.690  10.881 -0.9984 -0.0157 -0.2526
  372MOL0     H49082   2.725   5.846  11.131 -0.9121 -0.2939  0.4897
  372MOL0     H49083   2.747   5.668  11.107  1.6256  0.2087  1.3343
  372MOL0     H49084   2.961   5.782  11.070  0.5552 -0.0026 -1.6190
  372MOL0     H49085   2.879   5.899  10.957 -0.2393 -1.1702 -3.4283
  372MOL0     H49086   1.768   5.764  11.070 -0.4406 -1.6143  0.5760
  372MOL0     H49087   1.541   5.732  11.107 -4.2010  2.0026 -2.1289
  372MOL0     H49088   1.121   5.742  10.864 -0.9452 -0.8118 -0.5428
  372MOL0     H49089   0.890   5.786  10.884 -0.1694 -1.4542 -1.0871
  372MOL0     H49090   1.406   5.761  10.474  0.7302 -0.1942  0.3564
  372MOL0     H49091   1.633   5.802  10.391 -0.7490  2.1846 -2.5090
  372MOL0     H49092   2.111   5.748  10.381  0.9997  0.4322  0.3711
  372MOL0     H49093   2.323   5.769  10.270 -0.2793  3.8731 -1.6912
  372MOL0     H49094   2.485   5.635  10.137  2.6171 -0.6774 -0.4124
  372MOL0     H49095   2.498   5.815  10.118  2.5228 -0.1504 -0.3718
  372MOL0     H49096   2.575   5.634   9.889  0.3887  1.0679 -1.0034
  372MOL0     H49097   2.605   5.800   9.920 -0.2763 -1.4394 -1.2944
  372MOL0     H49098   2.790   5.604   9.976  0.6878 -1.1296  1.2371
  372MOL0     H49099   2.705   5.598  10.134 -1.9209  0.8698 -0.2592
  372MOL0     H49100   2.913   5.728  10.131  1.2925  3.7463  0.0773
  372MOL0     H49101   2.864   5.838  10.011  1.3931  0.5100  0.3061
  372MOL0     H49102   2.664   5.943  10.395  2.1795 -0.1782  2.1956
  372MOL0     H49103   2.136   5.646   9.901  2.3196 -1.9235  0.2671
  372MOL0     H49104   1.927   5.603  10.024  1.5455 -3.4186 -0.5603
  373MOL0     O49105   7.501   9.038   9.072  0.7341 -0.3747 -0.1407
  373MOL0     C49106   7.566   9.136   9.111  0.2089  0.4120 -0.2549
  373MOL0     O49107   7.518   9.265   9.129  0.1761  0.7732  0.9675
  373MOL0     C49108   7.387   9.296   9.149  0.9438  0.7294  0.4676
  373MOL0     C49109   7.367   9.434   9.187  0.1660  0.0167  0.0750
  373MOL0     C49110   7.233   9.481   9.193  0.0495 -0.3662 -0.4282
  373MOL0     C49111   7.128   9.400   9.178  0.5948  0.5613  0.0515
  373MOL0     O49112   6.991   9.433   9.186 -0.9331  0.9342 -0.6822
  373MOL0     C49113   6.969   9.554   9.250  0.1649 -0.9023 -0.3884
  373MOL0     C49114   6.818   9.593   9.266 -0.0617 -0.6987 -0.1232
  373MOL0     C49115   6.800   9.737   9.294  0.3241 -0.7861  0.1566
  373MOL0     C49116   6.691   9.783   9.390 -0.5920  0.0563 -0.2448
  373MOL0     C49117   6.545   9.789   9.341  0.0953 -0.1973  0.8392
  373MOL0     C49118   6.445   9.869   9.431 -0.0562 -0.6011  0.3579
  373MOL0     C49119   6.304   9.840   9.385  1.0405 -0.9199  0.0556
  373MOL0     C49120   6.197   9.906   9.482 -0.4130  0.4488  0.8133
  373MOL0     N49121   6.057   9.887   9.452  0.2320 -0.6755 -0.1443
  373MOL0     C49122   5.968   9.987   9.491 -0.5840  0.9857  0.4621
  373MOL0     C49123   5.844   9.944   9.457 -0.7704 -0.2116  0.3264
  373MOL0     C49124   5.722  10.033   9.454  0.2805  0.8854  0.0921
  373MOL0     C49125   5.653  10.039   9.593 -0.2745 -0.0878  0.5181
  373MOL0     C49126   5.577   9.901   9.626  0.3029  0.1402 -0.0273
  373MOL0     C49127   5.432   9.928   9.682  0.5862 -0.3135  0.7621
  373MOL0     O49128   5.366   9.969   9.560 -0.2267 -0.1935 -0.4744
  373MOL0     C49129   5.229   9.994   9.572  0.5970  0.5436 -0.3850
  373MOL0     C49130   5.142   9.975   9.680  0.0907 -0.2913 -0.2166
  373MOL0     C49131   5.002   9.991   9.674 -0.1602 -0.2343  0.2840
  373MOL0     C49132   4.942  10.043   9.568 -0.0595  1.2486  0.2175
  373MOL0     C49133   4.802  10.062   9.551 -0.0928  0.2092 -0.2809
  373MOL0     O49134   4.736  10.062   9.672  0.4241 -0.0944 -0.1422
  373MOL0     C49135   4.603  10.082   9.690  1.2358 -0.1295 -0.9937
  373MOL0     C49136   4.503  10.082   9.593  0.1804  0.7920  0.0812
  373MOL0     C49137   4.365  10.091   9.623 -0.4958  0.7791 -0.1766
  373MOL0     C49138   4.328  10.111   9.759 -0.3246 -0.8839  0.0929
  373MOL0     O49139   4.198  10.131   9.805  0.5822 -0.9303  0.0677
  373MOL0     C49140   4.099  10.167   9.700 -0.1429 -0.2920  0.6667
  373MOL0     C49141   3.972  10.174   9.777 -0.1081  0.0178  0.2923
  373MOL0     C49142   3.927  10.033   9.832 -1.1143 -0.4402 -0.3000
  373MOL0     C49143   3.789   9.973   9.776 -0.6222 -0.1696 -0.0903
  373MOL0     C49144   3.763   9.826   9.799  0.7473  0.2595  0.0308
  373MOL0     C49145   3.697   9.799   9.943 -0.0850 -0.0530  0.3873
  373MOL0     C49146   3.551   9.798   9.939 -0.1327 -0.5517 -0.3016
  373MOL0     C49147   3.484   9.776  10.067  0.3729 -0.2489 -0.1433
  373MOL0    Cl49148   3.314   9.732  10.047  0.2098  0.0333  0.1513
  373MOL0     C49149   4.426  10.123   9.857 -0.3971  0.3604 -0.8128
  373MOL0     C49150   4.559  10.103   9.822 -0.4589 -0.6220  0.2729
  373MOL0     O49151   4.754  10.079   9.440 -0.0124 -0.3883 -0.6651
  373MOL0     C49152   5.028  10.074   9.453 -0.0788 -0.3652  0.2222
  373MOL0     C49153   5.167  10.052   9.460 -0.3601  0.4459 -0.7947
  373MOL0     N49154   5.866   9.812   9.413 -0.4242  0.3866 -0.4199
  373MOL0     N49155   5.987   9.771   9.429  0.3856 -0.5593  0.3465
  373MOL0     C49156   7.149   9.270   9.147  0.2365  0.6611  0.3603
  373MOL0     C49157   7.275   9.215   9.130  0.3681  0.1293  0.0174
  373MOL0     C49158   7.714   9.129   9.137  0.2409  1.2753  0.3870
  373MOL0     C49159   7.774   9.003   9.169  0.4393  0.1371  0.3510
  373MOL0     C49160   7.907   8.991   9.210  0.5489 -0.8330 -0.0613
  373MOL0     C49161   7.980   9.104   9.221 -0.1861 -1.0813 -1.1100
  373MOL0     O49162   8.108   9.090   9.275  0.2683 -0.8023 -0.0449
  373MOL0     C49163   8.203   9.200   9.259  0.6182 -0.0313 -0.1847
  373MOL0     C49164   8.347   9.146   9.278 -0.1273  0.8748  0.4606
  373MOL0     C49165   8.374   9.096   9.412 -0.0100 -0.5467 -0.4975
  373MOL0     C49166   8.524   9.044   9.415  0.9380 -0.0200 -0.4577
  373MOL0     C49167   8.559   8.949   9.311 -0.3121 -0.2977  0.2085
  373MOL0     C49168   8.593   8.869   9.228  0.1154 -0.0824  0.4646
  373MOL0     C49169   7.918   9.230   9.203 -0.3492 -0.0867 -0.2383
  373MOL0     C49170   7.785   9.248   9.169 -0.4350  0.4450 -0.3222
  373MOL0     H49171   7.459   9.489   9.209 -0.3185  1.8041 -1.9854
  373MOL0     H49172   7.218   9.584   9.225 -1.3229 -0.5007 -0.5710
  373MOL0     H49173   7.017   9.639   9.201 -1.6045  0.6083  0.3877
  373MOL0     H49174   7.009   9.557   9.352  1.5716  1.5170 -0.9380
  373MOL0     H49175   6.766   9.531   9.340 -0.1105 -1.1801 -0.5544
  373MOL0     H49176   6.779   9.584   9.164 -1.9304 -0.1890  0.5035
  373MOL0     H49177   6.774   9.792   9.203  1.7300  2.7678  1.7175
  373MOL0     H49178   6.892   9.785   9.329 -1.0857  0.6947  2.0561
  373MOL0     H49179   6.700   9.714   9.474 -1.2758  0.9229  0.5623
  373MOL0     H49180   6.713   9.885   9.421  1.6468 -0.3507 -0.3837
  373MOL0     H49181   6.509   9.687   9.326 -1.4902  0.2569  1.3499
  373MOL0     H49182   6.537   9.842   9.246  0.6202 -1.6562 -0.0502
  373MOL0     H49183   6.466   9.976   9.422  0.7096 -0.8818 -1.7633
  373MOL0     H49184   6.462   9.834   9.533  3.6917 -2.6072 -0.7451
  373MOL0     H49185   6.291   9.887   9.288 -0.4919  2.4600  1.7461
  373MOL0     H49186   6.282   9.733   9.372 -0.0525 -0.7282  0.2443
  373MOL0     H49187   6.201  10.015   9.489 -4.1165  0.6120  2.8492
  373MOL0     H49188   6.224   9.874   9.584  0.2779  2.5564  1.3571
  373MOL0     H49189   5.990  10.088   9.526 -2.3785  2.0224 -1.2112
  373MOL0     H49190   5.647   9.998   9.382 -0.4393  2.1522  0.1966
  373MOL0     H49191   5.751  10.130   9.413  1.7833 -0.1190 -1.3728
  373MOL0     H49192   5.580  10.121   9.593  0.3013  0.4603  2.3403
  373MOL0     H49193   5.718  10.064   9.676 -1.3283  3.3245  0.4788
  373MOL0     H49194   5.558   9.850   9.531 -3.0164  0.4725  0.3433
  373MOL0     H49195   5.631   9.837   9.696 -0.5415  1.4016  1.8827
  373MOL0     H49196   5.429  10.008   9.756 -0.0662 -0.3258  0.7563
  373MOL0     H49197   5.387   9.839   9.728  2.6549 -1.5074  0.6022
  373MOL0     H49198   5.184   9.948   9.776  0.2620 -0.4960 -0.3478
  373MOL0     H49199   4.946   9.969   9.764 -1.0497  1.8640  0.3071
  373MOL0     H49200   4.520  10.073   9.486  0.9227  2.5633  0.0188
  373MOL0     H49201   4.286  10.100   9.549  0.7371  1.4566 -1.4718
  373MOL0     H49202   4.068  10.096   9.624 -3.0679  0.0225  1.4502
  373MOL0     H49203   4.130  10.259   9.649  0.3629 -1.3294 -0.9653
  373MOL0     H49204   3.889  10.210   9.716 -2.0651 -1.8346  1.6859
  373MOL0     H49205   3.996  10.246   9.856  3.2622 -1.1596  0.4959
  373MOL0     H49206   3.918  10.046   9.940  1.2262  0.6933 -0.1752
  373MOL0     H49207   4.003   9.956   9.811 -0.7012 -0.1177 -0.0027
  373MOL0     H49208   3.696  10.026   9.799 -0.8494 -0.9278  0.7841
  373MOL0     H49209   3.789   9.978   9.667 -0.5318  0.4668 -0.0643
  373MOL0     H49210   3.855   9.768   9.794  0.6521 -0.2919  2.7085
  373MOL0     H49211   3.695   9.791   9.721 -0.7962  3.2238 -0.1018
  373MOL0     H49212   3.728   9.872  10.019  0.3727 -0.8560  0.9825
  373MOL0     H49213   3.732   9.701   9.976  0.2935  0.2997  1.0390
  373MOL0     H49214   3.500   9.888   9.903  1.2195  0.5997  0.5680
  373MOL0     H49215   3.521   9.716   9.873 -0.0348 -1.1374  0.3720
  373MOL0     H49216   3.487   9.869  10.124  3.8209  0.5474 -1.3779
  373MOL0     H49217   3.541   9.706  10.130  0.0065 -0.1660  0.2837
  373MOL0     H49218   4.398  10.130   9.961  3.7047 -0.2059  0.5090
  373MOL0     H49219   4.637  10.114   9.896 -1.1152  1.2632  0.7514
  373MOL0     H49220   4.996  10.103   9.354  0.7172 -0.1889  0.0090
  373MOL0     H49221   5.235  10.079   9.380  0.9866  2.3034  0.8587
  373MOL0     H49222   7.063   9.205   9.136  0.9070 -0.0733 -0.6753
  373MOL0     H49223   7.296   9.110   9.116  3.1844  0.4748  1.0794
  373MOL0     H49224   7.720   8.909   9.180  0.4513  0.0586 -0.2566
  373MOL0     H49225   7.954   8.902   9.250  0.5298  0.2085  2.4390
  373MOL0     H49226   8.166   9.275   9.329  1.6553  2.2447 -1.9310
  373MOL0     H49227   8.195   9.245   9.160 -0.5258 -0.1496 -0.1672
  373MOL0     H49228   8.352   9.056   9.215 -0.7501 -0.7694  2.6199
  373MOL0     H49229   8.429   9.212   9.250 -0.6418  2.8902  3.3307
  373MOL0     H49230   8.302   9.018   9.439 -1.3146  1.2316  1.4333
  373MOL0     H49231   8.370   9.174   9.487  1.9819 -0.3084 -0.5799
  373MOL0     H49232   8.590   9.131   9.403  1.4563 -0.6897 -3.0008
  373MOL0     H49233   8.546   9.003   9.514  2.0307 -1.3517 -1.2300
  373MOL0     H49234   8.619   8.797   9.153 -1.7681 -0.7545  0.4118
  373MOL0     H49235   7.977   9.319   9.226  0.9131 -0.3002 -2.4146
  373MOL0     H49236   7.743   9.348   9.162 -0.7043  0.4736  1.3098
  374MOL0     O49237   3.812   4.876   4.771 -0.0209  0.1043  0.2796
  374MOL0     C49238   3.862   4.852   4.876  0.0672 -0.1270 -0.0262
  374MOL0     O49239   3.801   4.801   4.986  0.6033  0.2128 -0.6155
  374MOL0     C49240   3.671   4.770   4.970  0.1905  0.1170  0.4675
  374MOL0     C49241   3.561   4.850   4.920  0.9096  0.7457 -1.0359
  374MOL0     C49242   3.433   4.812   4.928 -0.1699  0.6990  0.5252
  374MOL0     C49243   3.395   4.695   4.999 -0.5759 -0.5945  0.4588
  374MOL0     O49244   3.262   4.661   4.992 -0.7285  0.1247  0.1873
  374MOL0     C49245   3.232   4.523   5.023  0.0277 -0.0089 -0.5985
  374MOL0     C49246   3.094   4.515   4.980  0.4894 -0.5117 -0.7974
  374MOL0     C49247   3.048   4.365   4.983  0.1432  0.0190  0.0543
  374MOL0     C49248   2.994   4.330   5.122 -0.2015  0.3861  0.0211
  374MOL0     C49249   3.066   4.205   5.161 -0.0883  0.4754  0.0926
  374MOL0     C49250   3.013   4.152   5.301  0.0575  0.7248  0.5681
  374MOL0     C49251   3.083   4.014   5.328 -0.7122 -0.1463 -0.2854
  374MOL0     C49252   3.053   3.952   5.463 -0.3785  0.3074  0.4386
  374MOL0     N49253   2.907   3.929   5.492  0.1177 -0.3735  0.2306
  374MOL0     C49254   2.862   3.909   5.615 -0.7053 -0.4560 -0.2802
  374MOL0     C49255   2.737   3.874   5.601 -0.2623  0.2913  0.2409
  374MOL0     C49256   2.641   3.831   5.709 -0.2376  0.6140  0.0042
  374MOL0     C49257   2.549   3.930   5.780 -0.1857 -0.1328  0.2333
  374MOL0     C49258   2.423   3.977   5.704 -0.0951  0.4901  0.1161
  374MOL0     C49259   2.335   4.080   5.780  0.2736  0.3804 -0.3144
  374MOL0     O49260   2.211   4.097   5.710 -0.7743 -0.1181 -0.0384
  374MOL0     C49261   2.118   4.161   5.781  0.5555 -0.2983 -0.3770
  374MOL0     C49262   1.989   4.104   5.810  0.1229  0.8758  0.2274
  374MOL0     C49263   1.893   4.172   5.876  0.4150 -0.5272 -0.3612
  374MOL0     C49264   1.918   4.309   5.920  0.6906 -0.3933  1.2446
  374MOL0     C49265   1.818   4.389   5.994 -0.0681 -0.2651 -0.1221
  374MOL0     O49266   1.826   4.529   5.989  0.0587 -0.0497  0.0669
  374MOL0     C49267   1.732   4.607   6.052  0.5631 -0.1944 -0.4895
  374MOL0     C49268   1.599   4.592   6.028  0.3597  0.1710 -0.7864
  374MOL0     C49269   1.510   4.682   6.087 -0.7857  0.5958 -0.4859
  374MOL0     C49270   1.557   4.778   6.180 -0.1425 -0.1328 -0.2137
  374MOL0     O49271   1.458   4.849   6.245  0.3196  0.1553 -0.1710
  374MOL0     C49272   1.490   4.921   6.363 -1.0316 -0.2083  0.9532
  374MOL0     C49273   1.360   4.964   6.437 -0.7774 -0.4900 -0.3362
  374MOL0     C49274   1.282   4.862   6.523 -0.6646 -0.3082  0.7941
  374MOL0     C49275   1.210   4.760   6.437  0.7417 -0.0264 -0.9578
  374MOL0     C49276   1.133   4.653   6.520 -0.3885  0.2765  0.3214
  374MOL0     C49277   1.074   4.538   6.443  0.0622 -0.3855  0.2632
  374MOL0     C49278   0.982   4.590   6.337  0.6916 -0.2518 -0.1169
  374MOL0     C49279   0.865   4.686   6.383  0.3822  0.3988  0.0926
  374MOL0    Cl49280   0.758   4.717   6.248  0.0459 -0.0344 -0.0374
  374MOL0     C49281   1.697   4.799   6.201 -0.0843  0.0194 -1.2686
  374MOL0     C49282   1.782   4.711   6.132  0.2846  0.8226 -1.3188
  374MOL0     O49283   1.731   4.328   6.058  0.5815 -0.3760  0.0836
  374MOL0     C49284   2.038   4.365   5.897  0.8474 -0.9691  0.3637
  374MOL0     C49285   2.137   4.294   5.832  0.1362 -0.1347  0.2482
  374MOL0     N49286   2.704   3.882   5.468 -0.2474  0.1572 -0.6966
  374MOL0     N49287   2.810   3.919   5.403  0.1448  0.1321  0.3423
  374MOL0     C49288   3.502   4.612   5.050  0.1453  0.8971  0.0271
  374MOL0     C49289   3.636   4.658   5.039 -0.1322  0.7749  0.1364
  374MOL0     C49290   4.007   4.888   4.878  0.7020  0.2856 -1.0375
  374MOL0     C49291   4.071   4.982   4.796  0.0154 -0.0517  0.1023
  374MOL0     C49292   4.209   5.002   4.799 -0.0489 -0.1277  0.0599
  374MOL0     C49293   4.288   4.926   4.882  0.3582  1.1608  0.0673
  374MOL0     O49294   4.426   4.933   4.861 -0.2842  1.1009  0.2437
  374MOL0     C49295   4.513   4.837   4.918 -0.3297 -0.2564 -0.6178
  374MOL0     C49296   4.656   4.895   4.928 -0.9996 -0.0789 -0.5162
  374MOL0     C49297   4.754   4.799   4.996 -0.2002  0.6687 -0.5969
  374MOL0     C49298   4.902   4.828   4.978  0.2396 -0.8431  0.2320
  374MOL0     C49299   4.980   4.742   5.066 -0.6053 -0.1198 -0.2475
  374MOL0     C49300   5.049   4.679   5.141  0.9006  0.1436 -0.1216
  374MOL0     C49301   4.222   4.839   4.968 -0.3553  0.2788  0.0520
  374MOL0     C49302   4.084   4.829   4.979 -0.2174  0.4184  0.2982
  374MOL0     H49303   3.578   4.942   4.865 -1.3006  1.4996 -0.5702
  374MOL0     H49304   3.351   4.868   4.883 -0.7068  0.0037  0.6130
  374MOL0     H49305   3.238   4.492   5.128 -2.8592 -0.3631 -0.4582
  374MOL0     H49306   3.291   4.455   4.962 -1.3406 -1.5853 -0.2504
  374MOL0     H49307   3.082   4.562   4.882  2.4570 -0.0866 -0.8739
  374MOL0     H49308   3.040   4.574   5.055 -0.1073 -2.6896  0.5721
  374MOL0     H49309   3.130   4.302   4.949  0.0463  1.1785 -2.5482
  374MOL0     H49310   2.978   4.329   4.906  1.0131 -0.2146 -0.6364
  374MOL0     H49311   3.020   4.409   5.194  0.6778 -1.3455  1.6686
  374MOL0     H49312   2.884   4.332   5.121 -0.1970  0.5850 -0.7516
  374MOL0     H49313   3.174   4.213   5.150  0.0679 -1.9031 -0.7520
  374MOL0     H49314   3.034   4.125   5.092 -0.3641 -2.2451  3.1546
  374MOL0     H49315   2.904   4.140   5.298  0.2841 -1.5384 -0.6016
  374MOL0     H49316   3.038   4.232   5.371 -2.3839 -0.1093  2.5562
  374MOL0     H49317   3.055   3.955   5.240 -0.3030  0.4370 -0.8212
  374MOL0     H49318   3.190   4.036   5.322 -0.5993  0.4667  2.5938
  374MOL0     H49319   3.102   4.006   5.545  1.3723  0.4696 -0.6616
  374MOL0     H49320   3.100   3.854   5.462 -0.6538  0.1622 -1.4849
  374MOL0     H49321   2.908   3.899   5.712 -0.3919 -0.7377 -0.4577
  374MOL0     H49322   2.705   3.788   5.786 -1.6038 -1.4500  0.0740
  374MOL0     H49323   2.584   3.751   5.660  0.6520 -0.6577  0.9683
  374MOL0     H49324   2.610   4.016   5.809  0.6675  0.3474 -2.6981
  374MOL0     H49325   2.518   3.876   5.870  3.6129 -2.9576  0.1089
  374MOL0     H49326   2.453   4.020   5.608  0.7516 -0.4096 -0.0418
  374MOL0     H49327   2.360   3.890   5.683 -0.5100 -0.0981  3.2175
  374MOL0     H49328   2.378   4.180   5.786 -4.5241  2.6505  0.2691
  374MOL0     H49329   2.316   4.043   5.881  1.8674 -0.5698 -0.3089
  374MOL0     H49330   1.974   3.999   5.788  2.7317  0.6367 -0.7565
  374MOL0     H49331   1.800   4.118   5.893  1.7540 -2.7825  0.2022
  374MOL0     H49332   1.546   4.522   5.964 -4.2363 -1.1121  3.6981
  374MOL0     H49333   1.404   4.677   6.064 -0.1010 -3.0452 -4.1313
  374MOL0     H49334   1.547   5.010   6.335 -0.4350 -0.8983 -0.1072
  374MOL0     H49335   1.555   4.866   6.430  2.9512  1.6118 -1.0624
  374MOL0     H49336   1.294   5.022   6.371 -0.5182  1.3043  0.9008
  374MOL0     H49337   1.392   5.040   6.509 -1.1184  0.3146 -1.0068
  374MOL0     H49338   1.213   4.916   6.588 -2.1388  0.6983 -1.4677
  374MOL0     H49339   1.366   4.807   6.568  0.8956  0.6248 -0.8415
  374MOL0     H49340   1.134   4.814   6.380  1.3048 -0.8436 -2.5379
  374MOL0     H49341   1.276   4.707   6.368  0.1606  1.2532 -2.5596
  374MOL0     H49342   1.060   4.711   6.577  0.4620  2.4710 -0.6845
  374MOL0     H49343   1.201   4.600   6.586  0.5199 -0.0457 -0.8526
  374MOL0     H49344   1.015   4.481   6.515 -0.7314 -1.5660 -1.2753
  374MOL0     H49345   1.154   4.475   6.403 -0.5068  0.2451 -2.0040
  374MOL0     H49346   1.043   4.628   6.255 -0.5119  1.2745 -0.3629
  374MOL0     H49347   0.937   4.496   6.303  1.6603 -0.3096 -1.2975
  374MOL0     H49348   0.907   4.783   6.411  0.7106  0.3133 -0.0926
  374MOL0     H49349   0.813   4.644   6.470 -0.8858 -2.2451 -1.8058
  374MOL0     H49350   1.724   4.866   6.282 -1.6152 -1.7262  0.8051
  374MOL0     H49351   1.889   4.712   6.149 -0.2868 -0.1551  4.9070
  374MOL0     H49352   2.058   4.463   5.937 -1.5616 -1.1707  2.3211
  374MOL0     H49353   2.226   4.355   5.820 -0.8033  1.1624 -0.3435
  374MOL0     H49354   3.477   4.522   5.105 -0.6585 -0.1135 -1.8848
  374MOL0     H49355   3.714   4.596   5.081  1.6243  2.4213 -0.5522
  374MOL0     H49356   4.019   5.032   4.715  1.1709 -0.3247 -0.8314
  374MOL0     H49357   4.250   5.078   4.732  0.9624 -0.9065 -0.2290
  374MOL0     H49358   4.515   4.743   4.863 -1.3093 -1.3558  1.1269
  374MOL0     H49359   4.482   4.810   5.019 -0.0890 -0.4025 -0.5824
  374MOL0     H49360   4.697   4.922   4.830 -0.5849 -1.5189 -0.7645
  374MOL0     H49361   4.660   4.992   4.978  0.9562 -0.1323 -0.4983
  374MOL0     H49362   4.750   4.694   4.963  3.4997  0.9485 -2.5404
  374MOL0     H49363   4.716   4.805   5.098  0.0603 -2.0327 -0.2544
  374MOL0     H49364   4.928   4.809   4.874 -0.0748  3.0533 -0.6979
  374MOL0     H49365   4.935   4.930   4.999  2.1444 -1.6913  1.6163
  374MOL0     H49366   5.103   4.606   5.198 -0.7346 -0.5491  0.6300
  374MOL0     H49367   4.282   4.785   5.040 -1.2117  1.4706  1.7352
  374MOL0     H49368   4.048   4.759   5.053  1.9778  0.2390  1.2860
  375MOL0     O49369   8.370   6.071   0.264 -0.0467  0.6458  0.1545
  375MOL0     C49370   8.389   6.168   0.191  1.4947 -0.3548 -1.2592
  375MOL0     O49371   8.308   6.285   0.190 -0.3324  0.7108 -0.2566
  375MOL0     C49372   8.182   6.282   0.239 -0.9494 -0.1846  0.7577
  375MOL0     C49373   8.094   6.176   0.242  0.1915  0.1369  0.1748
  375MOL0     C49374   7.960   6.188   0.280 -0.3860  0.1517 -0.0449
  375MOL0     C49375   7.923   6.311   0.340  0.1844 -0.2366  0.9268
  375MOL0     O49376   7.795   6.347   0.386  0.0350 -0.2601 -0.0461
  375MOL0     C49377   7.674   6.287   0.337 -0.4660 -0.1923 -0.5340
  375MOL0     C49378   7.554   6.342   0.423 -0.5450  0.6637 -0.0424
  375MOL0     C49379   7.551   6.500   0.393 -0.6270  0.1689 -0.8599
  375MOL0     C49380   7.431   6.566   0.465  0.6208 -0.6297  0.1344
  375MOL0     C49381   7.425   6.716   0.433  0.5834  0.8484  0.1189
  375MOL0     C49382   7.306   6.793   0.503  0.9081 -0.1652 -0.4336
  375MOL0     C49383   7.298   6.781   0.659  0.4849 -0.6119 -0.4676
  375MOL0     C49384   7.172   6.860   0.711  0.8185 -0.3494  0.2642
  375MOL0     N49385   7.042   6.791   0.671 -0.3225 -0.5954  0.0485
  375MOL0     C49386   6.982   6.695   0.756 -0.3328 -0.1518 -0.4292
  375MOL0     C49387   6.870   6.661   0.691 -0.3657 -0.3335  0.3919
  375MOL0     C49388   6.772   6.560   0.749  0.5072 -0.1641  0.7313
  375MOL0     C49389   6.626   6.626   0.781  0.2962 -0.1658 -0.2231
  375MOL0     C49390   6.522   6.532   0.837  0.0130  0.3774  0.4519
  375MOL0     C49391   6.389   6.603   0.873 -0.2001 -0.2425 -0.6461
  375MOL0     O49392   6.397   6.714   0.963  0.5668 -0.0855 -0.0769
  375MOL0     C49393   6.283   6.738   1.040  0.8784 -0.6021  0.4851
  375MOL0     C49394   6.301   6.811   1.151  0.1039 -0.7333 -0.3403
  375MOL0     C49395   6.191   6.863   1.226 -0.2862 -0.6716 -0.0050
  375MOL0     C49396   6.064   6.808   1.200 -0.1383  0.1965 -0.0780
  375MOL0     C49397   5.944   6.838   1.278 -0.6579  0.0440 -0.0361
  375MOL0     O49398   5.829   6.782   1.240 -0.3000 -0.6375 -0.2368
  375MOL0     C49399   5.716   6.815   1.314 -0.7284  0.3417  0.9232
  375MOL0     C49400   5.616   6.901   1.270  0.2886  0.3829 -0.4740
  375MOL0     C49401   5.501   6.915   1.338  0.9322  0.4252 -0.0881
  375MOL0     C49402   5.485   6.854   1.462  0.7756 -0.4051 -0.1816
  375MOL0     O49403   5.356   6.858   1.512 -0.0916 -0.0538 -0.1297
  375MOL0     C49404   5.325   6.783   1.630  0.2449  0.8738  0.3227
  375MOL0     C49405   5.168   6.790   1.638  0.2819 -0.3812 -0.3937
  375MOL0     C49406   5.114   6.741   1.775 -0.1557 -0.8888 -0.4400
  375MOL0     C49407   4.958   6.745   1.761 -0.4848 -0.5183 -0.9538
  375MOL0     C49408   4.896   6.678   1.882 -0.5350 -0.7567 -0.2691
  375MOL0     C49409   4.904   6.758   2.006 -0.1803 -0.2180 -0.2035
  375MOL0     C49410   4.871   6.682   2.135 -0.2208 -0.0173  0.4777
  375MOL0     C49411   4.889   6.785   2.246 -0.1544  0.4037  0.1751
  375MOL0    Cl49412   4.822   6.709   2.384 -0.2303 -0.6726  0.1260
  375MOL0     C49413   5.588   6.782   1.517  0.1266  0.8106  0.3524
  375MOL0     C49414   5.700   6.752   1.437 -0.1821  0.2901  0.1794
  375MOL0     O49415   5.973   6.912   1.373  0.3673 -0.0758 -0.8587
  375MOL0     C49416   6.057   6.726   1.091 -0.1072 -0.2455 -0.0610
  375MOL0     C49417   6.155   6.695   1.002 -0.0614 -0.1965  0.6685
  375MOL0     N49418   6.870   6.733   0.572 -0.4733 -0.0025  0.5883
  375MOL0     N49419   6.967   6.816   0.555  0.2793  0.1383 -0.7168
  375MOL0     C49420   8.016   6.422   0.329  0.0848  0.3493  0.2776
  375MOL0     C49421   8.142   6.409   0.284 -0.3562  0.1081  0.0694
  375MOL0     C49422   8.509   6.174   0.108 -0.0929 -0.1298 -0.6594
  375MOL0     C49423   8.530   6.281   0.021  0.5271  0.6415  1.2516
  375MOL0     C49424   8.645   6.291  -0.063  0.0830  0.4881 -0.1799
  375MOL0     C49425   8.754   6.205  -0.047  0.2699 -0.0669 -0.2574
  375MOL0     O49426   8.876   6.244  -0.102 -1.3015 -0.2785 -0.2407
  375MOL0     C49427   9.006   6.192  -0.054  0.3164  0.7010  0.4788
  375MOL0     C49428   9.050   6.069  -0.132  0.7420 -0.0005 -0.9309
  375MOL0     C49429   9.064   6.090  -0.290  0.1997  0.4724  0.3264
  375MOL0     C49430   9.168   6.180  -0.326 -0.0296 -0.2156 -0.4669
  375MOL0     C49431   9.299   6.124  -0.274 -0.8947  0.9235  0.8581
  375MOL0     C49432   9.409   6.071  -0.237 -0.3610 -0.9521 -0.8815
  375MOL0     C49433   8.741   6.108   0.045 -0.7706 -0.5849 -0.1885
  375MOL0     C49434   8.619   6.082   0.116  0.1082 -0.2951  0.2190
  375MOL0     H49435   8.128   6.085   0.194  0.6185 -1.0285  2.5019
  375MOL0     H49436   7.886   6.109   0.279 -1.9965  1.5829 -1.9561
  375MOL0     H49437   7.679   6.177   0.340  0.4907 -0.1540  2.2775
  375MOL0     H49438   7.673   6.326   0.235  3.4525  4.1487  0.7625
  375MOL0     H49439   7.575   6.326   0.530  0.7571 -3.0390 -0.6846
  375MOL0     H49440   7.457   6.297   0.404 -0.4435  0.7849 -0.9019
  375MOL0     H49441   7.542   6.511   0.284 -1.7342  1.5551 -0.6526
  375MOL0     H49442   7.644   6.547   0.426 -1.0884  1.1591 -0.9330
  375MOL0     H49443   7.340   6.517   0.429 -0.3386 -0.0419  1.6563
  375MOL0     H49444   7.447   6.560   0.573  0.6903 -0.4928  0.1315
  375MOL0     H49445   7.416   6.720   0.324  1.2047 -0.1505  0.0199
  375MOL0     H49446   7.519   6.770   0.448  0.1743  1.4281  0.6330
  375MOL0     H49447   7.216   6.746   0.463 -0.5830 -0.0256  2.5121
  375MOL0     H49448   7.300   6.897   0.469  1.2715  0.6412  1.7931
  375MOL0     H49449   7.291   6.677   0.692 -2.1411 -0.1476  0.6612
  375MOL0     H49450   7.391   6.830   0.692 -1.3057  2.5641  0.2637
  375MOL0     H49451   7.171   6.964   0.680 -1.3943 -0.9883 -2.1604
  375MOL0     H49452   7.166   6.859   0.820 -2.5297  0.7357  0.2119
  375MOL0     H49453   7.020   6.659   0.851 -1.2673  1.4280  0.6014
  375MOL0     H49454   6.821   6.521   0.839  3.1796 -0.4274 -0.7198
  375MOL0     H49455   6.760   6.483   0.672  0.8871  1.1305 -0.6746
  375MOL0     H49456   6.585   6.675   0.692 -0.2370  1.1043  0.6857
  375MOL0     H49457   6.641   6.710   0.850 -0.7074 -2.8343  3.6048
  375MOL0     H49458   6.501   6.446   0.773 -1.6052 -0.4793  2.0717
  375MOL0     H49459   6.564   6.485   0.926  1.4190 -2.3696 -1.5233
  375MOL0     H49460   6.327   6.533   0.930 -2.0274 -1.1238 -3.4784
  375MOL0     H49461   6.333   6.637   0.785  1.5271 -0.3710 -1.8477
  375MOL0     H49462   6.397   6.845   1.189 -0.0953 -0.7292  0.1639
  375MOL0     H49463   6.204   6.933   1.308 -1.3717 -2.5422  1.8665
  375MOL0     H49464   5.639   6.948   1.175 -0.0347 -1.7769 -1.6762
  375MOL0     H49465   5.413   6.966   1.300 -0.2983 -1.7869 -0.3604
  375MOL0     H49466   5.364   6.847   1.710 -0.5552  2.5100 -0.5425
  375MOL0     H49467   5.368   6.682   1.638 -1.5837 -0.0575 -0.9786
  375MOL0     H49468   5.131   6.727   1.557 -1.4920  1.0366 -0.7286
  375MOL0     H49469   5.124   6.886   1.609 -2.8903 -1.0856  1.5589
  375MOL0     H49470   5.155   6.807   1.852  1.8404  0.0103 -2.1836
  375MOL0     H49471   5.156   6.643   1.797 -0.2218 -0.5126  1.6436
  375MOL0     H49472   4.919   6.848   1.759  0.4452 -0.1593 -1.1166
  375MOL0     H49473   4.931   6.694   1.669 -0.6957 -3.2376  0.5137
  375MOL0     H49474   4.942   6.580   1.896  0.7258 -0.0802  0.5291
  375MOL0     H49475   4.790   6.660   1.861 -1.0698  3.3776 -1.9746
  375MOL0     H49476   4.824   6.831   1.990 -0.1949  0.2408  1.7256
  375MOL0     H49477   4.997   6.816   2.017 -0.8362  1.0818 -1.1716
  375MOL0     H49478   4.764   6.660   2.137 -0.7307  1.7395 -2.1009
  375MOL0     H49479   4.930   6.593   2.157 -1.9534 -0.8149  2.1705
  375MOL0     H49480   4.835   6.878   2.223 -1.9126 -0.9894 -1.7758
  375MOL0     H49481   4.995   6.795   2.268  0.4262 -3.7879  0.1338
  375MOL0     H49482   5.568   6.732   1.611  1.7890 -2.9004 -1.0797
  375MOL0     H49483   5.775   6.678   1.465 -1.9908 -2.1284 -0.9293
  375MOL0     H49484   5.958   6.688   1.063  0.2185 -1.1599 -0.0222
  375MOL0     H49485   6.145   6.641   0.908 -0.3212  1.7360 -0.4724
  375MOL0     H49486   7.979   6.518   0.363  0.1670  0.7237 -0.6783
  375MOL0     H49487   8.213   6.490   0.300 -1.9811  1.2943  1.6971
  375MOL0     H49488   8.458   6.362   0.012  1.0253  0.9493 -0.0706
  375MOL0     H49489   8.659   6.387  -0.113 -0.7006  2.0439  2.3611
  375MOL0     H49490   9.004   6.156   0.049  0.7670 -2.1954 -0.4321
  375MOL0     H49491   9.080   6.273  -0.056 -0.0832  1.0845 -1.5531
  375MOL0     H49492   9.146   6.034  -0.091 -0.1560 -2.1614 -0.5292
  375MOL0     H49493   8.983   5.987  -0.104  0.6427 -0.2680 -1.9104
  375MOL0     H49494   8.968   6.126  -0.327 -0.6748  0.6199  2.5795
  375MOL0     H49495   9.084   5.995  -0.340 -1.1461  0.5178 -0.3587
  375MOL0     H49496   9.172   6.200  -0.433  0.1199 -1.3485 -0.6857
  375MOL0     H49497   9.164   6.280  -0.281  3.0286 -0.0318 -0.4276
  375MOL0     H49498   9.501   6.035  -0.197 -0.8780  0.4371  1.7899
  375MOL0     H49499   8.820   6.036   0.062  2.2629  3.0194  2.7147
  375MOL0     H49500   8.609   5.997   0.183  0.7904  0.8329  1.8140
  376MOL0     O49501   5.435   9.936   0.114 -0.1588  0.3511 -0.1148
  376MOL0     C49502   5.509   9.848   0.157 -0.8767  0.1517  0.5308
  376MOL0     O49503   5.474   9.742   0.236 -0.0081 -0.1161  0.3719
  376MOL0     C49504   5.341   9.725   0.271  0.6621  0.4110 -0.3365
  376MOL0     C49505   5.325   9.669   0.400  0.1574  0.0879  0.5738
  376MOL0     C49506   5.198   9.638   0.452  0.8212 -0.6995  0.3764
  376MOL0     C49507   5.081   9.648   0.373  0.3401 -0.1049 -0.6032
  376MOL0     O49508   4.963   9.625   0.433 -0.2258 -0.7129 -1.0268
  376MOL0     C49509   4.901   9.498   0.408 -0.0824  0.1403  0.0789
  376MOL0     C49510   4.788   9.454   0.500  0.0737  0.3574 -0.1459
  376MOL0     C49511   4.668   9.549   0.480 -0.3661 -0.4433 -0.3079
  376MOL0     C49512   4.538   9.495   0.532  0.1180 -0.4033 -0.0153
  376MOL0     C49513   4.539   9.463   0.677 -0.3131  0.4161 -0.0934
  376MOL0     C49514   4.562   9.584   0.772  0.1153 -0.3452 -0.4407
  376MOL0     C49515   4.538   9.547   0.918 -0.2229  0.1032  0.3305
  376MOL0     C49516   4.588   9.661   1.011  0.2068 -0.9566 -0.2610
  376MOL0     N49517   4.492   9.774   1.006  0.1354 -1.0307  1.0011
  376MOL0     C49518   4.353   9.767   1.031 -0.1297  0.1424 -0.7914
  376MOL0     C49519   4.311   9.882   0.999  0.3010  0.1041  0.1051
  376MOL0     C49520   4.167   9.928   1.001 -0.5155  1.0344 -0.1110
  376MOL0     C49521   4.094   9.877   1.132 -0.0105 -0.8906  0.9094
  376MOL0     C49522   3.947   9.939   1.131  0.0217  0.2072  0.4797
  376MOL0     C49523   3.860   9.906   1.251 -0.4170  0.4372  0.2272
  376MOL0     O49524   3.725   9.932   1.211  0.1196 -0.6646 -0.7135
  376MOL0     C49525   3.627   9.929   1.303 -1.0564  0.6304  0.0435
  376MOL0     C49526   3.630   9.883   1.437 -0.0844 -0.2840 -0.7622
  376MOL0     C49527   3.517   9.878   1.518 -0.2317  0.7937 -0.2915
  376MOL0     C49528   3.398   9.939   1.464 -0.0430  0.2953 -0.0844
  376MOL0     C49529   3.276   9.932   1.546  0.2996 -0.6968 -0.2278
  376MOL0     O49530   3.279   9.880   1.672 -0.2902  0.3149  0.6489
  376MOL0     C49531   3.158   9.861   1.731 -0.1313  0.8624 -0.5171
  376MOL0     C49532   3.101   9.737   1.733 -0.4724  0.7751 -0.1808
  376MOL0     C49533   2.970   9.730   1.781 -0.7271 -0.1614 -0.3643
  376MOL0     C49534   2.899   9.834   1.842  0.2967 -0.2243 -0.1601
  376MOL0     O49535   2.775   9.823   1.907  0.4916  0.4953  0.0899
  376MOL0     C49536   2.699   9.700   1.879  0.6225  0.2381 -0.1760
  376MOL0     C49537   2.560   9.690   1.949 -0.5206 -0.0111  0.5229
  376MOL0     C49538   2.495   9.548   1.918 -0.5656  0.4845  0.0392
  376MOL0     C49539   2.363   9.516   1.979 -0.0711 -0.4931 -0.1693
  376MOL0     C49540   2.311   9.381   1.928  0.1053  0.2052 -0.1498
  376MOL0     C49541   2.186   9.351   2.013  0.4145 -0.5844 -1.7212
  376MOL0     C49542   2.113   9.223   1.963  0.8510 -0.1828 -0.0832
  376MOL0     C49543   2.069   9.133   2.082  0.5965 -0.5143  0.2865
  376MOL0    Cl49544   1.910   9.203   2.136  0.1299  0.0075 -0.6417
  376MOL0     C49545   2.961   9.958   1.846 -0.5002 -1.1089 -0.1072
  376MOL0     C49546   3.091   9.977   1.785 -0.2114  0.4400  0.0313
  376MOL0     O49547   3.168   9.962   1.495 -0.1369  0.1947 -0.7044
  376MOL0     C49548   3.394   9.992   1.337 -0.4903  0.4089 -0.4680
  376MOL0     C49549   3.506   9.983   1.255 -0.0382 -0.1235 -0.2535
  376MOL0     N49550   4.417   9.963   0.962 -1.2708  0.2325 -0.3673
  376MOL0     N49551   4.529   9.899   0.959 -0.0243  0.0115  0.5430
  376MOL0     C49552   5.093   9.720   0.250  0.7493  0.3362 -0.1818
  376MOL0     C49553   5.221   9.749   0.192 -0.0803 -0.1080 -0.5747
  376MOL0     C49554   5.651   9.858   0.121 -0.2819  0.0702  0.7846
  376MOL0     C49555   5.739   9.761   0.165  0.0749 -0.1595 -0.1690
  376MOL0     C49556   5.879   9.767   0.120  0.4876 -0.4998  0.4456
  376MOL0     C49557   5.925   9.866   0.034  0.8537 -0.2566 -0.2886
  376MOL0     O49558   6.050   9.861  -0.009 -0.1796 -0.1630  0.0954
  376MOL0     C49559   6.084   9.949  -0.117 -0.4450  0.3609 -0.3625
  376MOL0     C49560   6.224   9.911  -0.169 -0.4370  0.6809 -1.0638
  376MOL0     C49561   6.331   9.970  -0.075  0.3705 -0.2014  0.2306
  376MOL0     C49562   6.360   9.897   0.054 -0.0375 -0.1328 -0.3095
  376MOL0     C49563   6.434   9.780   0.018 -0.3569 -0.8071  0.8212
  376MOL0     C49564   6.506   9.682   0.008 -0.2703  0.1411  0.3001
  376MOL0     C49565   5.835   9.966  -0.001  0.1376 -0.7062 -0.1950
  376MOL0     C49566   5.699   9.971   0.048 -0.4713 -0.2212  0.2686
  376MOL0     H49567   5.411   9.655   0.465  0.5294  0.5392  0.1778
  376MOL0     H49568   5.179   9.591   0.548 -0.2471 -3.1895 -0.9582
  376MOL0     H49569   4.977   9.420   0.402 -1.7592 -1.4933 -1.3111
  376MOL0     H49570   4.860   9.516   0.308  3.4118  3.7333 -0.9969
  376MOL0     H49571   4.814   9.442   0.605 -1.2753 -1.3147  0.0467
  376MOL0     H49572   4.768   9.349   0.474  3.3528 -1.2335  2.9968
  376MOL0     H49573   4.653   9.579   0.376 -2.9227 -0.3307  0.0166
  376MOL0     H49574   4.690   9.636   0.543  0.0063 -1.4750  1.0296
  376MOL0     H49575   4.458   9.568   0.513  0.9731  0.1124 -1.7732
  376MOL0     H49576   4.517   9.406   0.473 -2.9486  0.7633 -0.9089
  376MOL0     H49577   4.615   9.386   0.691  0.6513  1.4968  0.8587
  376MOL0     H49578   4.437   9.428   0.696 -0.4373  1.3684  1.1666
  376MOL0     H49579   4.487   9.657   0.740 -1.1833 -1.4575  0.0095
  376MOL0     H49580   4.664   9.624   0.767 -0.4701  2.5065  4.1507
  376MOL0     H49581   4.430   9.532   0.920 -0.2330 -1.6853 -3.6068
  376MOL0     H49582   4.588   9.451   0.935  1.7304  1.0157  0.0402
  376MOL0     H49583   4.688   9.693   0.981  0.4354  1.1888  2.3820
  376MOL0     H49584   4.605   9.619   1.111 -0.2633 -1.3366 -0.3373
  376MOL0     H49585   4.287   9.682   1.047 -0.3789  0.5196  0.3235
  376MOL0     H49586   4.121   9.897   0.907  0.0636  0.9527 -0.3738
  376MOL0     H49587   4.168  10.037   1.000 -1.9368  1.0672 -1.4717
  376MOL0     H49588   4.148   9.921   1.216  1.7466  0.7058 -0.9484
  376MOL0     H49589   4.106   9.769   1.150  0.4789 -0.5308  2.9933
  376MOL0     H49590   3.936  10.048   1.122 -2.3548  0.1495  1.6498
  376MOL0     H49591   3.892   9.901   1.045  1.4045  0.5190 -0.5819
  376MOL0     H49592   3.882   9.945   1.351 -2.3757 -0.8632  1.2338
  376MOL0     H49593   3.865   9.798   1.268  1.4980  0.2305 -1.3286
  376MOL0     H49594   3.719   9.841   1.483 -0.6300  0.7855  1.4264
  376MOL0     H49595   3.521   9.833   1.616  1.7336 -1.0641 -1.1365
  376MOL0     H49596   3.133   9.657   1.668 -0.6289  2.4128 -2.4213
  376MOL0     H49597   2.930   9.629   1.782 -0.6104 -0.2110  1.0890
  376MOL0     H49598   2.755   9.614   1.917 -2.5680 -0.8758  2.4546
  376MOL0     H49599   2.687   9.696   1.770  0.2486 -0.8283 -0.1060
  376MOL0     H49600   2.497   9.770   1.910 -0.9733  0.1732  1.5931
  376MOL0     H49601   2.574   9.708   2.056  2.1403  0.7720  0.1278
  376MOL0     H49602   2.562   9.467   1.950 -2.7289 -1.5185 -0.2038
  376MOL0     H49603   2.484   9.545   1.809  0.2454  2.1976 -0.1185
  376MOL0     H49604   2.376   9.507   2.087 -1.4721  2.4930  0.3516
  376MOL0     H49605   2.290   9.594   1.955  0.6682 -0.0183 -0.9547
  376MOL0     H49606   2.381   9.301   1.953  1.2376  1.0900 -0.3989
  376MOL0     H49607   2.295   9.378   1.820  3.0152  1.1459 -0.7025
  376MOL0     H49608   2.112   9.431   2.009 -0.0183 -0.6955  1.2969
  376MOL0     H49609   2.212   9.340   2.119  0.2112 -0.4603 -1.6598
  376MOL0     H49610   2.019   9.245   1.912  0.0449  1.1930  1.9149
  376MOL0     H49611   2.179   9.165   1.896  0.9045 -0.3119  0.0814
  376MOL0     H49612   2.144   9.108   2.158  1.4224  3.2246  0.9112
  376MOL0     H49613   2.027   9.042   2.038 -1.3414  0.2208  0.5263
  376MOL0     H49614   2.906  10.042   1.886  0.2429  0.1055 -1.5456
  376MOL0     H49615   3.132  10.077   1.789  2.1796 -0.5174  1.0073
  376MOL0     H49616   3.307  10.046   1.302 -2.7032 -3.3671 -1.3750
  376MOL0     H49617   3.513  10.021   1.154  0.5336  1.4689  0.3536
  376MOL0     H49618   4.998   9.727   0.199  0.2711 -4.4593 -0.4108
  376MOL0     H49619   5.235   9.796   0.095 -0.9754  3.1058  0.7230
  376MOL0     H49620   5.702   9.685   0.234 -0.9742 -0.1035 -0.6520
  376MOL0     H49621   5.953   9.698   0.159 -1.1726 -2.6362  0.0546
  376MOL0     H49622   6.077  10.050  -0.075 -0.7364  0.0210  0.4352
  376MOL0     H49623   6.015   9.924  -0.197 -0.0359  1.0007 -0.9254
  376MOL0     H49624   6.230   9.803  -0.186 -2.5627  0.7951 -3.1057
  376MOL0     H49625   6.240   9.961  -0.265 -0.9951  0.0560 -1.4886
  376MOL0     H49626   6.291  10.067  -0.045 -0.7465 -0.1631 -1.2794
  376MOL0     H49627   6.420   9.971  -0.138  0.2861 -1.0278  0.0752
  376MOL0     H49628   6.434   9.954   0.112  0.9200 -0.1475 -1.4814
  376MOL0     H49629   6.278   9.882   0.124 -1.4510  1.7368 -1.4610
  376MOL0     H49630   6.565   9.595  -0.012 -0.7829  0.1610 -1.4757
  376MOL0     H49631   5.861  10.053  -0.060 -0.5416 -0.2329  0.2000
  376MOL0     H49632   5.623  10.043   0.019 -0.4816  0.2980  1.5206
  377MOL0     O49633   0.775   5.411   5.885  0.4524 -0.2136 -0.1127
  377MOL0     C49634   0.851   5.505   5.879  0.1478 -0.1888  0.0305
  377MOL0     O49635   0.812   5.632   5.915 -0.4712 -0.1667  0.6793
  377MOL0     C49636   0.679   5.652   5.930  0.0010 -0.3054 -0.2219
  377MOL0     C49637   0.645   5.740   6.036 -0.2207  0.2845  0.5244
  377MOL0     C49638   0.514   5.777   6.067 -0.3745 -0.2241 -0.1048
  377MOL0     C49639   0.405   5.720   5.984  0.4959 -0.9928 -0.9851
  377MOL0     O49640   0.275   5.742   6.006  0.4375 -0.1009  0.0215
  377MOL0     C49641   0.224   5.760   6.141 -0.2242  0.6740 -0.1175
  377MOL0     C49642   0.073   5.764   6.141 -0.0259 -0.5397 -0.4382
  377MOL0     C49643   0.000   5.645   6.080  0.4389 -0.1715 -0.1484
  377MOL0     C49644  -0.150   5.653   6.105 -0.6009  0.1900  0.0339
  377MOL0     C49645  -0.225   5.550   6.018  0.2143  0.9725 -0.0282
  377MOL0     C49646  -0.225   5.414   6.091  0.3287 -0.1643  0.1730
  377MOL0     C49647  -0.311   5.311   6.015 -0.0468 -0.0405 -0.1205
  377MOL0     C49648  -0.322   5.185   6.095 -0.5922 -0.2105  0.3280
  377MOL0     N49649  -0.401   5.087   6.019 -0.3918  0.5313 -0.2901
  377MOL0     C49650  -0.537   5.073   6.016 -0.3830 -0.0070  0.3721
  377MOL0     C49651  -0.564   4.948   5.966 -0.7128  0.6419 -0.5564
  377MOL0     C49652  -0.691   4.881   5.934 -0.1807  0.6232  0.0649
  377MOL0     C49653  -0.794   4.888   6.047  0.2801 -0.6771 -0.3908
  377MOL0     C49654  -0.923   4.826   6.017  0.4081  0.0932 -0.4096
  377MOL0     C49655  -1.031   4.844   6.128 -0.0795 -0.2476 -0.2266
  377MOL0     O49656  -1.162   4.836   6.070 -0.7925  0.6872  0.2317
  377MOL0     C49657  -1.271   4.844   6.147  0.1347  0.5240 -0.9486
  377MOL0     C49658  -1.272   4.839   6.287  0.2939 -0.1640  0.3996
  377MOL0     C49659  -1.395   4.842   6.348  0.0472 -0.4312  0.4420
  377MOL0     C49660  -1.517   4.828   6.283  1.1104 -0.5610  0.5104
  377MOL0     C49661  -1.648   4.821   6.355  0.2347  0.5255 -0.3350
  377MOL0     O49662  -1.760   4.872   6.286  0.5246 -0.4955  0.0349
  377MOL0     C49663  -1.881   4.894   6.354  0.0120 -0.1296  0.0003
  377MOL0     C49664  -1.896   4.972   6.474 -0.3270 -0.8553  0.7407
  377MOL0     C49665  -2.028   4.988   6.522  0.5613 -0.9167  0.2142
  377MOL0     C49666  -2.141   4.941   6.451  0.5516 -0.0373 -0.8568
  377MOL0     O49667  -2.271   4.954   6.486 -0.2040  0.3440 -0.4938
  377MOL0     C49668  -2.297   4.996   6.621 -0.7997  1.0053  0.1126
  377MOL0     C49669  -2.442   4.969   6.654 -0.3108  0.6897  0.0595
  377MOL0     C49670  -2.468   5.010   6.798 -0.3601  0.2605  1.2681
  377MOL0     C49671  -2.616   4.993   6.844  0.3397  0.7083  1.3047
  377MOL0     C49672  -2.648   5.056   6.980 -0.4748 -0.3052  0.5648
  377MOL0     C49673  -2.558   5.001   7.086 -0.2000 -0.3815 -0.5749
  377MOL0     C49674  -2.611   5.064   7.218  0.1816  0.2385 -0.3861
  377MOL0     C49675  -2.519   5.018   7.336  0.6004 -0.2274 -0.2957
  377MOL0    Cl49676  -2.535   4.834   7.359 -0.5676 -0.0162  0.2214
  377MOL0     C49677  -2.115   4.877   6.330  0.5129  0.2778  0.0922
  377MOL0     C49678  -1.988   4.849   6.279  0.5366 -0.3832 -0.3376
  377MOL0     O49679  -1.653   4.774   6.471  0.2563 -0.0679  0.2020
  377MOL0     C49680  -1.518   4.830   6.141  0.6394  0.1447 -0.3455
  377MOL0     C49681  -1.396   4.838   6.081  0.0324  0.0514 -0.5186
  377MOL0     N49682  -0.444   4.893   5.935 -0.0205 -0.0989 -0.2390
  377MOL0     N49683  -0.346   4.976   5.974  0.1456  0.3386 -0.2324
  377MOL0     C49684   0.443   5.627   5.890  1.1986  0.1050 -0.2378
  377MOL0     C49685   0.578   5.599   5.853  0.0351  0.7051 -0.4564
  377MOL0     C49686   0.994   5.487   5.871  0.1448  0.1060 -0.2125
  377MOL0     C49687   1.078   5.586   5.910 -0.9005  0.0090  0.0046
  377MOL0     C49688   1.216   5.567   5.921 -0.9018  0.4213 -0.1537
  377MOL0     C49689   1.271   5.445   5.880 -0.4006 -0.5013 -0.4611
  377MOL0     O49690   1.396   5.406   5.896 -0.5083 -0.4170 -0.2881
  377MOL0     C49691   1.476   5.479   5.803 -0.8706 -0.2605 -0.0754
  377MOL0     C49692   1.625   5.438   5.807  0.1790 -0.5593 -0.3900
  377MOL0     C49693   1.711   5.513   5.703 -0.2080 -0.9772 -0.4737
  377MOL0     C49694   1.766   5.647   5.752 -0.1034  0.1470  0.5334
  377MOL0     C49695   1.868   5.709   5.667 -0.1945  0.6008 -0.0225
  377MOL0     C49696   1.962   5.757   5.610  0.0116  0.1584 -0.5117
  377MOL0     C49697   1.188   5.339   5.836  0.1094  0.1142 -0.4693
  377MOL0     C49698   1.049   5.356   5.837  0.1023 -0.4060 -0.0335
  377MOL0     H49699   0.720   5.794   6.092 -0.1524  0.5098  0.2161
  377MOL0     H49700   0.495   5.838   6.155  0.5834 -0.6607  0.4227
  377MOL0     H49701   0.270   5.853   6.176  3.2692 -0.9418  0.0400
  377MOL0     H49702   0.260   5.688   6.215 -0.5896  1.7663  1.1679
  377MOL0     H49703   0.038   5.856   6.093 -0.9634 -1.3236 -1.2913
  377MOL0     H49704   0.032   5.765   6.243 -0.6728  1.1560 -0.6700
  377MOL0     H49705   0.035   5.548   6.116  0.3457 -0.4183 -0.7110
  377MOL0     H49706   0.027   5.641   5.974  2.6986 -0.2746  0.3700
  377MOL0     H49707  -0.170   5.634   6.211  1.2130 -0.5375  0.2864
  377MOL0     H49708  -0.184   5.754   6.080 -0.9813 -0.1436 -0.8118
  377MOL0     H49709  -0.187   5.541   5.916 -1.3465  1.0194 -0.6367
  377MOL0     H49710  -0.329   5.570   5.993 -1.4224 -4.0987  1.3515
  377MOL0     H49711  -0.278   5.424   6.186 -1.1178 -0.2951 -0.5976
  377MOL0     H49712  -0.124   5.372   6.099  0.9066  1.0148 -0.7094
  377MOL0     H49713  -0.409   5.356   5.995  0.1778  1.6001  2.1614
  377MOL0     H49714  -0.262   5.293   5.918 -0.4862  1.4372 -0.6443
  377MOL0     H49715  -0.365   5.198   6.195  1.2840  1.8883  0.9394
  377MOL0     H49716  -0.220   5.144   6.100 -0.3039  0.5225  0.5299
  377MOL0     H49717  -0.596   5.154   6.057  1.8186  1.0876  1.5785
  377MOL0     H49718  -0.671   4.780   5.898  1.8189  1.2754 -0.8191
  377MOL0     H49719  -0.744   4.932   5.853 -0.3256 -0.0429 -0.2671
  377MOL0     H49720  -0.801   4.987   6.093 -1.6382 -1.5828  1.4409
  377MOL0     H49721  -0.762   4.826   6.131  1.2766  0.6413  0.2362
  377MOL0     H49722  -0.962   4.862   5.921 -0.0083  0.7456 -0.0031
  377MOL0     H49723  -0.902   4.718   6.012  0.4488  0.0960 -0.3101
  377MOL0     H49724  -1.032   4.941   6.178 -0.9409 -0.0779 -0.5548
  377MOL0     H49725  -1.011   4.772   6.207 -0.9192  0.0055  0.2252
  377MOL0     H49726  -1.180   4.825   6.344  1.3545 -1.7098 -1.5386
  377MOL0     H49727  -1.401   4.834   6.456  0.6922 -1.9132  0.3824
  377MOL0     H49728  -1.818   5.024   6.529 -1.9270  1.7089  0.7299
  377MOL0     H49729  -2.045   5.047   6.611  1.5508  0.1400 -0.2791
  377MOL0     H49730  -2.280   5.104   6.614  1.3541  0.6147 -3.5226
  377MOL0     H49731  -2.229   4.955   6.696  1.0027 -2.8947 -3.2782
  377MOL0     H49732  -2.476   4.866   6.636 -0.2786 -0.4661  5.1363
  377MOL0     H49733  -2.505   5.029   6.587  0.9085  1.5955 -0.2996
  377MOL0     H49734  -2.439   5.115   6.807  0.9797  0.0789 -0.4481
  377MOL0     H49735  -2.408   4.949   6.866 -1.5923 -0.9856  1.2889
  377MOL0     H49736  -2.679   5.035   6.764 -1.8079 -3.7225  0.3498
  377MOL0     H49737  -2.640   4.886   6.846 -2.4953  1.1905 -0.2451
  377MOL0     H49738  -2.754   5.031   6.992 -1.0840  2.1059  0.6409
  377MOL0     H49739  -2.637   5.164   6.967  0.2857 -0.5415 -1.0110
  377MOL0     H49740  -2.454   5.030   7.066  0.4121 -0.7409  1.7714
  377MOL0     H49741  -2.562   4.892   7.093 -0.4344 -0.3426 -0.0685
  377MOL0     H49742  -2.606   5.173   7.218  0.3602  0.2302 -0.4607
  377MOL0     H49743  -2.716   5.038   7.238 -0.0835  0.8950 -0.8909
  377MOL0     H49744  -2.560   5.067   7.424  0.4213  0.3114 -0.6733
  377MOL0     H49745  -2.415   5.045   7.317  0.7873  0.0397  1.0455
  377MOL0     H49746  -2.207   4.845   6.283  0.2023  0.1086  0.7978
  377MOL0     H49747  -1.971   4.793   6.188  1.1628  0.9244 -1.0453
  377MOL0     H49748  -1.615   4.818   6.094 -0.4267 -0.6677  1.9024
  377MOL0     H49749  -1.385   4.844   5.973  4.7570  1.0890 -0.2176
  377MOL0     H49750   0.372   5.580   5.822  2.2439 -0.0355 -1.2741
  377MOL0     H49751   0.589   5.531   5.769  0.0570 -1.1074  0.9486
  377MOL0     H49752   1.045   5.687   5.934  1.9751  0.4943  2.6633
  377MOL0     H49753   1.289   5.635   5.963  0.3329 -2.4510  2.8393
  377MOL0     H49754   1.468   5.586   5.824 -1.5799 -0.3083 -0.0749
  377MOL0     H49755   1.444   5.457   5.700  0.0521  1.0659 -0.6685
  377MOL0     H49756   1.671   5.450   5.905 -0.0273 -2.2036 -0.0601
  377MOL0     H49757   1.626   5.330   5.792 -0.0383 -0.6866  0.4463
  377MOL0     H49758   1.662   5.530   5.607 -3.0384 -2.6689  0.5532
  377MOL0     H49759   1.795   5.449   5.674  0.5798 -0.9125  1.4948
  377MOL0     H49760   1.684   5.718   5.766  0.6696  0.6535  3.0443
  377MOL0     H49761   1.811   5.647   5.852  0.5062  0.0969  0.2638
  377MOL0     H49762   2.046   5.805   5.564 -0.7985  2.2565  0.0481
  377MOL0     H49763   1.222   5.239   5.811  0.7314 -0.1071  1.1382
  377MOL0     H49764   0.987   5.271   5.810 -0.9889 -0.7056  2.9892
  378MOL0     O49765   5.359   1.409   3.344 -0.2376  0.0583 -0.1896
  378MOL0     C49766   5.328   1.377   3.451 -0.0835 -0.1327 -0.0794
  378MOL0     O49767   5.414   1.356   3.553 -0.4164 -0.8785 -0.5756
  378MOL0     C49768   5.545   1.385   3.532 -1.0405  0.0678 -0.7314
  378MOL0     C49769   5.615   1.503   3.578 -0.0180  0.1538  0.5853
  378MOL0     C49770   5.751   1.524   3.557 -0.3151 -0.1480  0.5307
  378MOL0     C49771   5.820   1.434   3.484 -0.5137 -0.7114 -0.6034
  378MOL0     O49772   5.956   1.452   3.489 -0.4829  0.9427 -0.5157
  378MOL0     C49773   6.014   1.410   3.370 -0.4407 -0.6280 -0.0973
  378MOL0     C49774   6.143   1.494   3.353  0.6516  0.0159 -0.1144
  378MOL0     C49775   6.259   1.460   3.451 -0.0168  0.4170 -0.2453
  378MOL0     C49776   6.387   1.536   3.416  1.5568  0.6088  0.7331
  378MOL0     C49777   6.506   1.490   3.513  0.0506  0.0041 -0.1785
  378MOL0     C49778   6.632   1.542   3.439  0.5213  0.9105  0.1103
  378MOL0     C49779   6.763   1.512   3.517  0.4430  0.3689 -0.3749
  378MOL0     C49780   6.889   1.548   3.446 -0.3355  1.0909 -0.2067
  378MOL0     N49781   6.887   1.693   3.407 -0.8880  0.7506 -0.1823
  378MOL0     C49782   6.851   1.789   3.494  0.7594 -1.1505 -0.8556
  378MOL0     C49783   6.864   1.902   3.426  0.1716 -0.3166  0.5909
  378MOL0     C49784   6.826   2.037   3.476  0.0129  1.1330  0.2376
  378MOL0     C49785   6.671   2.049   3.500 -0.0525 -0.1256  0.3755
  378MOL0     C49786   6.598   2.022   3.366 -0.7807 -0.2009 -0.2264
  378MOL0     C49787   6.454   2.063   3.387  0.0624 -0.6166 -0.2871
  378MOL0     O49788   6.373   1.955   3.439 -0.1256 -0.2486  0.1172
  378MOL0     C49789   6.247   1.984   3.488  0.3829  0.4495 -0.7868
  378MOL0     C49790   6.175   2.104   3.478  0.3764  0.1320  0.6107
  378MOL0     C49791   6.042   2.122   3.532 -0.6952  0.3042  0.1100
  378MOL0     C49792   5.976   2.008   3.590  0.1129  0.1621  0.3247
  378MOL0     C49793   5.843   2.024   3.642  0.1600  0.2500  0.3548
  378MOL0     O49794   5.801   2.151   3.631  0.3196 -0.2565  0.0606
  378MOL0     C49795   5.667   2.176   3.674 -0.5758 -0.9928  0.9271
  378MOL0     C49796   5.563   2.199   3.583 -0.4730 -0.6149 -0.0012
  378MOL0     C49797   5.431   2.223   3.620  0.5157  0.2547 -0.3051
  378MOL0     C49798   5.395   2.215   3.756 -0.2463 -0.0723 -0.2546
  378MOL0     O49799   5.269   2.220   3.805 -0.5776  0.7347  0.2056
  378MOL0     C49800   5.161   2.234   3.712  0.5656 -0.4892 -0.0332
  378MOL0     C49801   5.040   2.225   3.807 -0.2093 -0.4560 -0.0631
  378MOL0     C49802   4.914   2.204   3.728 -0.4882  0.0979  0.7721
  378MOL0     C49803   4.787   2.230   3.796  0.3054 -0.7258  0.4621
  378MOL0     C49804   4.748   2.121   3.897 -0.5140 -0.4858  0.2892
  378MOL0     C49805   4.603   2.150   3.948  0.3167 -0.0626 -0.3688
  378MOL0     C49806   4.569   2.055   4.064 -0.2517  0.7549  0.3793
  378MOL0     C49807   4.565   1.904   4.030 -0.5922  0.1014  0.0666
  378MOL0    Cl49808   4.466   1.870   3.888 -0.1358  0.1929 -0.1969
  378MOL0     C49809   5.502   2.184   3.849 -0.4610 -1.3947 -0.9661
  378MOL0     C49810   5.638   2.177   3.811 -0.2671  0.4257  0.2411
  378MOL0     O49811   5.782   1.935   3.706 -0.4368  0.1480 -0.5670
  378MOL0     C49812   6.038   1.881   3.580 -0.3559  1.3745  0.0035
  378MOL0     C49813   6.170   1.873   3.542  0.0196 -0.3354 -0.1922
  378MOL0     N49814   6.901   1.874   3.291 -0.2684 -0.3078 -0.4673
  378MOL0     N49815   6.907   1.745   3.282  0.2565  0.1857 -0.2925
  378MOL0     C49816   5.749   1.314   3.433 -0.5199  0.0111  0.0721
  378MOL0     C49817   5.616   1.288   3.467 -0.2032  0.2347  0.4971
  378MOL0     C49818   5.182   1.343   3.485 -0.7128 -0.0498 -0.9294
  378MOL0     C49819   5.148   1.304   3.616 -0.0739 -0.0351 -0.8197
  378MOL0     C49820   5.023   1.260   3.656  0.3147  0.1847 -0.6734
  378MOL0     C49821   4.921   1.264   3.558  0.2570  0.2193 -0.9062
  378MOL0     O49822   4.796   1.219   3.602 -0.0151  0.5137  0.1519
  378MOL0     C49823   4.682   1.271   3.529  0.2786 -0.0187  0.4258
  378MOL0     C49824   4.568   1.292   3.627  0.3929 -0.4447 -0.1234
  378MOL0     C49825   4.597   1.412   3.729 -0.9856  0.1036 -0.6253
  378MOL0     C49826   4.482   1.513   3.725 -0.0658  0.0971 -0.9702
  378MOL0     C49827   4.360   1.454   3.785 -0.1442  0.2350 -0.1433
  378MOL0     C49828   4.262   1.408   3.840 -0.4485  0.0811 -0.1199
  378MOL0     C49829   4.943   1.302   3.424 -0.7601 -0.2343 -0.2114
  378MOL0     C49830   5.083   1.338   3.389  0.0602 -0.0509 -0.5526
  378MOL0     H49831   5.554   1.579   3.626 -1.2041  0.7741 -1.7402
  378MOL0     H49832   5.802   1.612   3.595  0.4902  0.6630 -2.2064
  378MOL0     H49833   5.953   1.426   3.281  1.9034  0.8248 -1.5713
  378MOL0     H49834   6.038   1.304   3.373 -1.7088 -0.9207  0.4088
  378MOL0     H49835   6.110   1.598   3.360  1.5200  0.5044 -2.5135
  378MOL0     H49836   6.181   1.482   3.251  0.6506  0.0750 -0.1220
  378MOL0     H49837   6.288   1.354   3.443 -2.6868 -0.4120  0.0206
  378MOL0     H49838   6.231   1.467   3.556  0.8962  1.7442 -0.0753
  378MOL0     H49839   6.420   1.519   3.313 -0.9192  0.4331 -0.0914
  378MOL0     H49840   6.368   1.643   3.427 -0.4359  0.5801 -1.6545
  378MOL0     H49841   6.512   1.382   3.521 -4.5902 -0.4357  0.0816
  378MOL0     H49842   6.499   1.548   3.606  1.4639  3.5712 -2.0918
  378MOL0     H49843   6.628   1.647   3.409 -0.7548  0.6877 -0.5549
  378MOL0     H49844   6.639   1.491   3.343 -0.2663  0.0498  0.4897
  378MOL0     H49845   6.747   1.554   3.617  2.5900  0.3161  0.0262
  378MOL0     H49846   6.768   1.403   3.529 -1.6022  0.2231 -0.4553
  378MOL0     H49847   6.888   1.490   3.353 -0.5472  2.1007 -0.8526
  378MOL0     H49848   6.979   1.529   3.504 -0.1683  0.5677 -0.6356
  378MOL0     H49849   6.813   1.770   3.595  1.3932 -3.0811 -0.9289
  378MOL0     H49850   6.866   2.114   3.409  0.8226  0.3365 -0.2155
  378MOL0     H49851   6.875   2.052   3.572  2.5230  3.2308 -1.2560
  378MOL0     H49852   6.646   2.141   3.554 -1.1831 -0.1577 -0.0751
  378MOL0     H49853   6.650   1.971   3.574 -2.0880 -0.0378 -0.0664
  378MOL0     H49854   6.637   2.074   3.278 -1.6176  0.2520 -0.3470
  378MOL0     H49855   6.593   1.915   3.342 -0.2778 -0.0010 -1.2749
  378MOL0     H49856   6.421   2.098   3.289  2.8607 -2.5235 -2.0549
  378MOL0     H49857   6.451   2.154   3.449 -0.4519  0.5102 -1.9063
  378MOL0     H49858   6.221   2.196   3.442 -2.5824  1.6077  0.3702
  378MOL0     H49859   6.001   2.221   3.518  0.9802  0.7888 -1.9018
  378MOL0     H49860   5.588   2.200   3.477  0.6162  1.9185  0.2028
  378MOL0     H49861   5.353   2.247   3.549 -1.6714 -2.8672  0.8108
  378MOL0     H49862   5.148   2.150   3.643  0.3131 -1.8702  1.6014
  378MOL0     H49863   5.179   2.328   3.659 -2.2012  0.4788  0.5479
  378MOL0     H49864   5.034   2.325   3.851 -1.5386  0.5588 -2.3697
  378MOL0     H49865   5.041   2.143   3.880 -1.9397  0.0057  0.5310
  378MOL0     H49866   4.904   2.104   3.686 -1.3119  0.7060 -0.5507
  378MOL0     H49867   4.907   2.267   3.639 -6.6029 -0.8369  0.1446
  378MOL0     H49868   4.791   2.325   3.850  0.7361  0.0222 -0.8463
  378MOL0     H49869   4.707   2.242   3.722 -1.7752  0.3054  2.7331
  378MOL0     H49870   4.824   2.117   3.976 -0.4064  0.9821  0.2832
  378MOL0     H49871   4.743   2.022   3.852  0.7795  0.0990 -1.2511
  378MOL0     H49872   4.528   2.140   3.869  2.6977 -3.7098 -2.5114
  378MOL0     H49873   4.600   2.254   3.981 -0.8955 -0.0874 -0.3731
  378MOL0     H49874   4.636   2.059   4.150  1.0511 -1.8000 -0.4190
  378MOL0     H49875   4.472   2.081   4.108 -2.0643 -1.8204 -1.7444
  378MOL0     H49876   4.521   1.855   4.118  0.7639 -5.4844 -1.9089
  378MOL0     H49877   4.666   1.868   4.009  0.0423 -0.1945  3.1721
  378MOL0     H49878   5.477   2.179   3.955 -0.5744  0.8205 -0.8550
  378MOL0     H49879   5.722   2.168   3.879  0.6316  2.0092 -0.6055
  378MOL0     H49880   5.982   1.791   3.605  1.4253 -0.0886 -1.0189
  378MOL0     H49881   6.213   1.774   3.536  2.7921  0.8174 -1.7050
  378MOL0     H49882   5.806   1.238   3.381  1.1438  1.4427 -0.3017
  378MOL0     H49883   5.569   1.194   3.439  2.3122 -0.1109 -3.1586
  378MOL0     H49884   5.216   1.306   3.701  0.1295 -1.3175 -0.9375
  378MOL0     H49885   5.004   1.240   3.761  2.1704  0.4840 -0.2409
  378MOL0     H49886   4.650   1.189   3.464 -1.0536  1.3453 -0.6762
  378MOL0     H49887   4.699   1.359   3.466  0.7868  0.5252  1.3071
  378MOL0     H49888   4.486   1.312   3.558  0.6401  0.9224 -0.0523
  378MOL0     H49889   4.550   1.195   3.675 -0.9979 -0.3659 -0.4688
  378MOL0     H49890   4.689   1.466   3.702 -2.8238  2.8415 -1.8146
  378MOL0     H49891   4.612   1.373   3.830  0.8898  0.3252 -0.7792
  378MOL0     H49892   4.511   1.603   3.779  0.6477 -1.3591  1.2012
  378MOL0     H49893   4.468   1.533   3.618  0.7034 -1.8263 -1.4761
  378MOL0     H49894   4.173   1.370   3.885  1.0872  0.0494  3.1486
  378MOL0     H49895   4.862   1.319   3.353  0.2240 -1.5450 -1.7195
  378MOL0     H49896   5.086   1.366   3.285 -0.4594  3.0259  0.1748
  379MOL0     O49897   5.359   8.608   4.276  0.2726  0.7217  0.1946
  379MOL0     C49898   5.339   8.523   4.369 -0.7286  0.2191  0.8060
  379MOL0     O49899   5.216   8.495   4.415 -0.4099 -0.2107 -0.4764
  379MOL0     C49900   5.120   8.586   4.388  0.8044  0.2673 -0.6687
  379MOL0     C49901   5.041   8.570   4.264 -0.7539 -0.0962 -0.7853
  379MOL0     C49902   4.930   8.645   4.235 -0.6368  0.2838  0.2357
  379MOL0     C49903   4.889   8.737   4.331 -0.0992  0.3290  0.3148
  379MOL0     O49904   4.787   8.822   4.315 -0.0546 -0.3689 -0.6211
  379MOL0     C49905   4.660   8.764   4.334 -0.0653 -0.3471 -0.8219
  379MOL0     C49906   4.553   8.866   4.381  0.0032 -0.6535 -0.2100
  379MOL0     C49907   4.442   8.801   4.458 -0.8245  0.4931 -0.2324
  379MOL0     C49908   4.340   8.903   4.505  0.5699 -0.6414  0.7315
  379MOL0     C49909   4.210   8.824   4.543 -0.5781 -0.0342 -0.5905
  379MOL0     C49910   4.105   8.924   4.590 -0.2410  0.4216  0.4823
  379MOL0     C49911   3.971   8.851   4.630 -0.9556 -0.5099 -0.0496
  379MOL0     C49912   3.861   8.954   4.669  0.1789  0.5245  0.1636
  379MOL0     N49913   3.723   8.894   4.672  0.0493  0.3255 -0.0889
  379MOL0     C49914   3.686   8.781   4.741  0.2364 -0.4960  0.5279
  379MOL0     C49915   3.552   8.793   4.755 -0.3071  0.3805  0.0249
  379MOL0     C49916   3.465   8.705   4.838  0.1357  0.1158 -0.7174
  379MOL0     C49917   3.373   8.800   4.914 -0.5409  0.8777  1.0512
  379MOL0     C49918   3.290   8.740   5.027  0.2364 -0.2107 -0.2373
  379MOL0     C49919   3.182   8.844   5.075 -0.2715  0.3324 -0.1715
  379MOL0     O49920   3.097   8.798   5.177 -0.1271  0.4092  0.4949
  379MOL0     C49921   3.025   8.904   5.224  0.2697  0.3335  0.4792
  379MOL0     C49922   3.064   8.962   5.342  0.0874 -0.8228 -0.1818
  379MOL0     C49923   2.989   9.065   5.403 -0.3187  0.1096 -1.3240
  379MOL0     C49924   2.871   9.113   5.343  0.8761 -0.2746  0.3261
  379MOL0     C49925   2.804   9.234   5.405 -0.4433  0.5776  0.2584
  379MOL0     O49926   2.848   9.277   5.520  0.5368  0.0883 -0.0815
  379MOL0     C49927   2.756   9.337   5.602 -0.1711  0.2544 -0.1579
  379MOL0     C49928   2.700   9.460   5.578  0.7484 -1.5065 -0.1519
  379MOL0     C49929   2.610   9.528   5.655  0.4052  0.4845  0.2046
  379MOL0     C49930   2.580   9.479   5.783 -0.3004 -0.2670 -0.0777
  379MOL0     O49931   2.493   9.543   5.865 -0.5769  0.4026  0.1220
  379MOL0     C49932   2.359   9.552   5.811  0.2207 -0.1230  0.3362
  379MOL0     C49933   2.260   9.550   5.930  0.5349 -0.7827 -0.0154
  379MOL0     C49934   2.223   9.406   5.980  0.8299  0.6943  0.2178
  379MOL0     C49935   2.125   9.425   6.100  0.4991 -0.3656  0.3621
  379MOL0     C49936   2.090   9.299   6.175 -0.1970  0.2298  0.5692
  379MOL0     C49937   2.013   9.334   6.301  0.8856  0.2804  0.2305
  379MOL0     C49938   2.099   9.382   6.416 -0.1243  0.9077  0.0246
  379MOL0     C49939   2.154   9.272   6.513  0.3563 -0.3272  1.0529
  379MOL0    Cl49940   2.297   9.187   6.447  0.2305  0.0936 -0.0377
  379MOL0     C49941   2.643   9.359   5.820  0.7389  0.0321 -0.2066
  379MOL0     C49942   2.723   9.280   5.729  0.8502  0.5513 -0.0166
  379MOL0     O49943   2.696   9.268   5.346 -0.0925 -0.3487 -0.1424
  379MOL0     C49944   2.820   9.042   5.230 -0.1800 -0.2146 -0.3877
  379MOL0     C49945   2.897   8.940   5.177  0.1960 -0.3028 -0.9152
  379MOL0     N49946   3.511   8.895   4.671  0.1773  0.1055  0.0350
  379MOL0     N49947   3.620   8.950   4.616  0.9889  0.3153  0.9123
  379MOL0     C49948   4.956   8.743   4.453  0.7317  0.0409  0.4022
  379MOL0     C49949   5.072   8.678   4.483 -0.9448 -0.2813 -0.4320
  379MOL0     C49950   5.451   8.436   4.409 -0.0208 -0.1935  0.3160
  379MOL0     C49951   5.571   8.429   4.334  0.4650 -0.5497 -1.0787
  379MOL0     C49952   5.654   8.319   4.335  0.4052  0.1067  0.4778
  379MOL0     C49953   5.641   8.227   4.431  0.2835  0.5827  0.6059
  379MOL0     O49954   5.731   8.126   4.452  0.1806  0.1277 -0.1669
  379MOL0     C49955   5.864   8.130   4.396 -0.6921  0.6492  0.1483
  379MOL0     C49956   5.880   8.034   4.282 -0.2393 -0.3812 -0.0829
  379MOL0     C49957   6.026   7.997   4.246  1.1995  0.4013 -0.4670
  379MOL0     C49958   6.037   7.900   4.125 -0.4801 -0.5128  0.5693
  379MOL0     C49959   6.191   7.875   4.107  0.5723  0.9236  0.2881
  379MOL0     C49960   6.312   7.871   4.091 -0.3748  0.0866 -0.8170
  379MOL0     C49961   5.522   8.229   4.515 -0.0453 -0.3653 -0.4914
  379MOL0     C49962   5.437   8.339   4.509 -0.0607 -0.4926 -0.3162
  379MOL0     H49963   5.073   8.496   4.191 -1.2722  0.9327 -2.1099
  379MOL0     H49964   4.869   8.635   4.145  0.3405  3.2509 -0.8932
  379MOL0     H49965   4.668   8.676   4.399  0.5404  0.3801  0.1277
  379MOL0     H49966   4.629   8.736   4.233  2.0465  0.9261 -1.8959
  379MOL0     H49967   4.517   8.916   4.291 -0.5005  1.2107  0.9593
  379MOL0     H49968   4.603   8.936   4.449  1.5725  0.9289 -2.8647
  379MOL0     H49969   4.483   8.749   4.545  0.6424  2.9557  0.6780
  379MOL0     H49970   4.393   8.732   4.390 -0.1186  2.0262 -2.4158
  379MOL0     H49971   4.374   8.966   4.588 -0.1694  0.9155 -0.1013
  379MOL0     H49972   4.326   8.974   4.424 -0.3272  1.2547  2.4458
  379MOL0     H49973   4.239   8.757   4.624  1.4547  0.7062 -0.6630
  379MOL0     H49974   4.175   8.756   4.465 -0.6978  0.3917 -0.9111
  379MOL0     H49975   4.086   8.980   4.498 -2.7058  1.2790  1.4314
  379MOL0     H49976   4.148   8.993   4.663  2.6283 -0.4400 -0.2533
  379MOL0     H49977   3.951   8.787   4.544  1.7583 -1.9582  0.2657
  379MOL0     H49978   4.000   8.789   4.716 -0.6013  0.9857  0.9567
  379MOL0     H49979   3.854   9.040   4.602 -2.7558 -0.3444 -0.7775
  379MOL0     H49980   3.882   8.988   4.771  1.7638  1.0410 -0.3167
  379MOL0     H49981   3.751   8.710   4.791  1.1829 -1.1480 -1.5135
  379MOL0     H49982   3.536   8.648   4.899  2.8861  0.5439 -3.2673
  379MOL0     H49983   3.404   8.640   4.775 -0.8351 -3.6381  3.5451
  379MOL0     H49984   3.299   8.827   4.837 -0.7618 -0.4570  0.7560
  379MOL0     H49985   3.432   8.888   4.940  1.6729  0.4439 -1.9196
  379MOL0     H49986   3.234   8.659   4.979  3.1467 -1.9577 -0.9133
  379MOL0     H49987   3.352   8.700   5.107  0.9631  2.3732  0.5872
  379MOL0     H49988   3.129   8.887   4.990  0.6623  0.7472 -0.5519
  379MOL0     H49989   3.245   8.917   5.127  1.1074 -0.6948 -0.3281
  379MOL0     H49990   3.138   8.899   5.391 -1.1630 -1.7230  0.6121
  379MOL0     H49991   3.021   9.095   5.502 -0.5978 -3.2426 -0.1105
  379MOL0     H49992   2.730   9.498   5.480  1.2234  1.6138  1.0841
  379MOL0     H49993   2.576   9.626   5.622 -0.4573  0.5571  1.2412
  379MOL0     H49994   2.338   9.474   5.737 -0.1577 -0.0959  0.4149
  379MOL0     H49995   2.345   9.644   5.752 -2.9326  1.2854  2.9835
  379MOL0     H49996   2.166   9.598   5.904 -1.4085 -2.5818  3.0204
  379MOL0     H49997   2.312   9.604   6.009  2.1363 -2.1284 -0.0791
  379MOL0     H49998   2.315   9.365   6.023  1.5683  0.3943 -1.5644
  379MOL0     H49999   2.179   9.343   5.902 -2.4072  1.1609  1.5238
  379MOL0     H50000   2.162   9.497   6.174 -0.7558  2.0003 -1.1850
  379MOL0     H50001   2.031   9.454   6.051  0.7162 -0.0086  0.1538
  379MOL0     H50002   2.177   9.239   6.202  0.6559  1.9604  1.8528
  379MOL0     H50003   2.028   9.233   6.114 -1.1918 -1.3837  3.1731
  379MOL0     H50004   1.969   9.240   6.335 -1.7605  1.8941  1.5598
  379MOL0     H50005   1.929   9.398   6.274  1.4950  1.0751  0.1823
  379MOL0     H50006   2.171   9.453   6.375  0.9804  0.9721  1.9650
  379MOL0     H50007   2.032   9.443   6.476 -1.2298  0.0847 -0.3433
  379MOL0     H50008   2.085   9.195   6.547 -0.6976 -0.2987 -0.8663
  379MOL0     H50009   2.185   9.331   6.600 -0.6356 -1.2696  2.0766
  379MOL0     H50010   2.635   9.322   5.922  1.6357 -0.8261 -0.4264
  379MOL0     H50011   2.771   9.185   5.748  1.4649  0.6593 -0.9633
  379MOL0     H50012   2.730   9.090   5.192 -0.8716 -0.1397  1.2355
  379MOL0     H50013   2.846   8.882   5.100 -1.9347 -0.2985  0.4174
  379MOL0     H50014   4.930   8.827   4.517  1.0310  0.0912  0.4594
  379MOL0     H50015   5.127   8.680   4.577  0.2617  0.2775 -1.1227
  379MOL0     H50016   5.601   8.505   4.261  2.1704  0.0792  0.2094
  379MOL0     H50017   5.726   8.311   4.254 -0.8751  2.7062 -1.0564
  379MOL0     H50018   5.937   8.107   4.475 -0.7758  1.3947  0.4506
  379MOL0     H50019   5.902   8.229   4.370  0.4819 -0.0539 -0.9097
  379MOL0     H50020   5.837   7.938   4.313  0.0968 -0.1620  1.1034
  379MOL0     H50021   5.843   8.081   4.190  2.7390 -2.4675 -2.5440
  379MOL0     H50022   6.081   7.964   4.334  0.2506  3.0900  1.2618
  379MOL0     H50023   6.072   8.093   4.222 -1.9767  2.3032  0.4008
  379MOL0     H50024   5.972   7.813   4.141  1.5367 -2.0985  0.6082
  379MOL0     H50025   5.988   7.953   4.043  0.2105 -0.0384  0.4551
  379MOL0     H50026   6.415   7.883   4.064 -0.8272  2.2438 -1.7186
  379MOL0     H50027   5.525   8.165   4.603  0.7129  0.4721  0.1113
  379MOL0     H50028   5.352   8.339   4.575  0.0800  0.7375 -0.1067
  380MOL0     O50029   6.384   5.631   7.575  0.0892  0.5389  0.6376
  380MOL0     C50030   6.504   5.662   7.558 -0.0752  0.0265 -0.1836
  380MOL0     O50031   6.552   5.784   7.589 -0.2758 -0.3073 -0.3193
  380MOL0     C50032   6.466   5.874   7.649  0.9724  0.3838  0.4864
  380MOL0     C50033   6.417   5.855   7.776  0.0414 -0.5665 -0.0960
  380MOL0     C50034   6.341   5.953   7.843 -0.5641 -0.1232 -0.0262
  380MOL0     C50035   6.317   6.066   7.780 -0.0774  0.4017  0.3834
  380MOL0     O50036   6.264   6.158   7.861 -0.8374 -0.2424 -0.6596
  380MOL0     C50037   6.195   6.268   7.808  0.3924 -0.4451  0.2488
  380MOL0     C50038   6.049   6.233   7.765  0.0895  0.4785  0.3235
  380MOL0     C50039   5.951   6.339   7.805 -0.3482 -0.4062 -1.2859
  380MOL0     C50040   5.819   6.327   7.734 -0.0667 -0.0179 -1.0175
  380MOL0     C50041   5.707   6.404   7.803 -0.3971 -0.5620 -0.3534
  380MOL0     C50042   5.585   6.417   7.713  0.1711 -0.1175  0.3232
  380MOL0     C50043   5.486   6.516   7.776  0.6264 -0.8998  0.1897
  380MOL0     C50044   5.360   6.538   7.688 -0.0314 -0.1567 -0.0920
  380MOL0     N50045   5.262   6.625   7.754 -0.6972  0.4520 -0.3666
  380MOL0     C50046   5.131   6.645   7.715 -0.8398  0.4256 -1.0393
  380MOL0     C50047   5.074   6.719   7.815  0.0027 -0.4402 -0.2685
  380MOL0     C50048   4.928   6.753   7.820 -0.0475  0.0187  0.0432
  380MOL0     C50049   4.899   6.891   7.890 -0.3321  0.5546 -0.1147
  380MOL0     C50050   4.761   6.962   7.872  0.2630 -1.0009  0.4552
  380MOL0     C50051   4.653   6.873   7.820  0.1715  0.7624 -0.0365
  380MOL0     O50052   4.528   6.951   7.809 -0.2190  0.6630  0.0265
  380MOL0     C50053   4.410   6.885   7.833 -0.7070  0.2365 -0.3655
  380MOL0     C50054   4.295   6.921   7.766 -1.5598 -0.3489 -0.4605
  380MOL0     C50055   4.177   6.853   7.800  0.6382 -0.5271  0.4239
  380MOL0     C50056   4.165   6.784   7.915  0.0097  0.3167 -0.5927
  380MOL0     C50057   4.031   6.746   7.955  0.1211  0.1436  0.5072
  380MOL0     O50058   4.018   6.707   8.085 -0.7861 -0.1756  0.8564
  380MOL0     C50059   3.903   6.650   8.138 -0.0689 -0.1755 -0.2347
  380MOL0     C50060   3.910   6.534   8.223 -0.3467  0.1065  0.4178
  380MOL0     C50061   3.794   6.495   8.286 -0.8051  0.0704  0.1874
  380MOL0     C50062   3.675   6.568   8.285 -0.0594 -0.7355 -0.5058
  380MOL0     O50063   3.571   6.520   8.359 -0.1719  0.2512 -0.2086
  380MOL0     C50064   3.447   6.585   8.342  0.8055  0.0095 -0.1304
  380MOL0     C50065   3.331   6.490   8.361  0.6592 -0.7660 -0.1745
  380MOL0     C50066   3.330   6.420   8.502 -0.2347  0.1436  0.0054
  380MOL0     C50067   3.207   6.330   8.503  0.3999 -0.1811 -0.2907
  380MOL0     C50068   3.211   6.241   8.625 -0.1105 -0.7588 -0.3627
  380MOL0     C50069   3.089   6.146   8.627  0.5465  0.0989  0.4420
  380MOL0     C50070   3.083   6.062   8.749  0.3647 -0.2057 -0.4126
  380MOL0     C50071   2.953   5.980   8.761 -0.1729  0.0140 -0.1959
  380MOL0    Cl50072   2.960   5.867   8.624 -0.4021  0.1371 -0.0043
  380MOL0     C50073   3.670   6.684   8.204 -0.3155  0.5347  0.2042
  380MOL0     C50074   3.784   6.721   8.128 -0.2282  0.3340  0.0525
  380MOL0     O50075   3.940   6.741   7.871 -0.0377 -0.2594  0.6890
  380MOL0     C50076   4.274   6.742   7.986  0.0668 -0.3440  0.4331
  380MOL0     C50077   4.394   6.800   7.949 -0.7669 -0.4239  0.6680
  380MOL0     N50078   5.177   6.752   7.901  0.5304 -0.4087  0.7462
  380MOL0     N50079   5.287   6.702   7.864  0.7956  0.2665  0.2679
  380MOL0     C50080   6.356   6.085   7.646 -0.1788 -0.5226 -0.3448
  380MOL0     C50081   6.431   5.985   7.582 -0.8249  0.3452  0.4004
  380MOL0     C50082   6.592   5.554   7.504  0.4856  0.7157  0.6887
  380MOL0     C50083   6.723   5.584   7.479 -0.2609  0.3740 -0.4975
  380MOL0     C50084   6.803   5.471   7.442 -0.0832  0.8170  0.0699
  380MOL0     C50085   6.749   5.344   7.424  0.0526  0.1566  0.1736
  380MOL0     O50086   6.837   5.251   7.381  0.3157 -0.0096  0.0638
  380MOL0     C50087   6.870   5.152   7.480  0.6596  0.1737  0.3802
  380MOL0     C50088   6.982   5.079   7.413  0.3804 -0.6433 -0.3247
  380MOL0     C50089   7.033   4.973   7.513  0.1674 -0.2267  0.1134
  380MOL0     C50090   7.194   4.968   7.508 -0.0194 -0.6652  0.0870
  380MOL0     C50091   7.262   5.093   7.530 -0.7864 -0.5161  0.5683
  380MOL0     C50092   7.307   5.209   7.549  0.0364  0.3548  0.3943
  380MOL0     C50093   6.616   5.315   7.455  0.1962 -0.3269  1.1051
  380MOL0     C50094   6.543   5.423   7.508  0.1372  0.4591  1.1457
  380MOL0     H50095   6.448   5.763   7.825  1.8764  1.2716  2.4247
  380MOL0     H50096   6.321   5.934   7.948 -0.0493  0.5441  0.2042
  380MOL0     H50097   6.257   6.311   7.730  0.4323 -1.1950 -0.1482
  380MOL0     H50098   6.201   6.344   7.887  0.3687  1.0648 -1.1590
  380MOL0     H50099   6.013   6.142   7.814 -2.5926  1.3591  0.1503
  380MOL0     H50100   6.053   6.219   7.657 -0.3184 -2.4202  0.6026
  380MOL0     H50101   5.978   6.442   7.781 -2.9554  0.6666  0.0347
  380MOL0     H50102   5.949   6.342   7.914  2.6118  0.4994 -1.1732
  380MOL0     H50103   5.834   6.373   7.636  2.8757  0.8879 -0.2518
  380MOL0     H50104   5.790   6.222   7.727  0.1579 -0.2604  0.9443
  380MOL0     H50105   5.748   6.500   7.833 -0.4481 -0.8717  0.7511
  380MOL0     H50106   5.670   6.361   7.897 -0.1060  2.0934  1.0607
  380MOL0     H50107   5.552   6.314   7.695  0.9014 -1.0683  3.6845
  380MOL0     H50108   5.617   6.456   7.616 -1.7961  1.6683  0.3324
  380MOL0     H50109   5.455   6.470   7.869 -1.0872  0.3611  0.2902
  380MOL0     H50110   5.534   6.613   7.796  0.8245 -0.4121 -2.2290
  380MOL0     H50111   5.331   6.434   7.669  1.7971 -0.9244  1.0853
  380MOL0     H50112   5.387   6.583   7.592  2.6514  0.9940  1.1207
  380MOL0     H50113   5.089   6.604   7.623  0.5199  0.4018 -1.6682
  380MOL0     H50114   4.874   6.680   7.882 -0.2808  0.4029  0.2962
  380MOL0     H50115   4.895   6.752   7.716  1.8987 -2.7751 -0.6748
  380MOL0     H50116   4.981   6.959   7.866 -1.1155  1.2617 -0.8281
  380MOL0     H50117   4.912   6.873   7.997  1.1359 -1.6945 -0.5994
  380MOL0     H50118   4.730   7.008   7.966 -0.7239 -2.6358  0.9827
  380MOL0     H50119   4.784   7.042   7.801 -0.1299  0.0112  1.4418
  380MOL0     H50120   4.654   6.784   7.884  2.1817  0.1860 -0.7695
  380MOL0     H50121   4.663   6.823   7.723 -0.5115  0.1609  0.1932
  380MOL0     H50122   4.311   6.984   7.679 -3.4579  0.5081 -0.2362
  380MOL0     H50123   4.094   6.870   7.732  0.8942  0.6540  0.3861
  380MOL0     H50124   4.003   6.490   8.258  1.3682  0.0348 -3.6726
  380MOL0     H50125   3.793   6.403   8.343  1.7953 -0.0174  0.2061
  380MOL0     H50126   3.430   6.616   8.238 -0.6089  0.8244  0.3204
  380MOL0     H50127   3.435   6.661   8.419 -0.7475 -1.1548  0.8534
  380MOL0     H50128   3.340   6.422   8.275  0.6268  1.2674 -1.8437
  380MOL0     H50129   3.238   6.546   8.363  1.0513 -0.1001 -0.4319
  380MOL0     H50130   3.315   6.477   8.594 -1.6901 -0.4351  0.1538
  380MOL0     H50131   3.423   6.365   8.516 -0.1051  0.5072  0.6106
  380MOL0     H50132   3.120   6.396   8.501 -0.1545 -0.8802  0.3896
  380MOL0     H50133   3.197   6.267   8.414 -1.8264 -0.8190  0.3474
  380MOL0     H50134   3.211   6.309   8.710 -1.2489  0.5932 -1.3866
  380MOL0     H50135   3.306   6.188   8.630  1.3592  1.8346  3.3847
  380MOL0     H50136   3.085   6.074   8.545  1.7718 -1.8726  2.0113
  380MOL0     H50137   2.999   6.208   8.618  0.7531  0.2676 -0.5310
  380MOL0     H50138   3.163   5.988   8.757  0.0934 -0.4526  0.0893
  380MOL0     H50139   3.090   6.135   8.829  0.3286  0.2605 -0.8304
  380MOL0     H50140   2.861   6.041   8.758 -0.8835 -1.0044  0.4567
  380MOL0     H50141   2.963   5.928   8.856  0.8934 -0.7935 -0.7300
  380MOL0     H50142   3.584   6.749   8.199 -1.0724 -0.3650  1.1593
  380MOL0     H50143   3.787   6.813   8.070  2.0841 -0.0481 -0.5281
  380MOL0     H50144   4.264   6.690   8.081 -2.5294  1.3910  1.2237
  380MOL0     H50145   4.476   6.780   8.018 -1.1706 -0.7307  1.0651
  380MOL0     H50146   6.328   6.173   7.588 -0.4620  0.6547  1.4813
  380MOL0     H50147   6.461   5.996   7.479 -0.2344  0.5546  0.5888
  380MOL0     H50148   6.749   5.689   7.484  0.4362  0.1992 -0.3276
  380MOL0     H50149   6.908   5.489   7.421  0.1210  2.2349  2.0173
  380MOL0     H50150   6.782   5.088   7.494  0.3629  0.3875 -0.5051
  380MOL0     H50151   6.897   5.196   7.577  4.9512  1.6310 -1.2291
  380MOL0     H50152   6.946   5.026   7.325  2.0578  0.9986 -2.0826
  380MOL0     H50153   7.072   5.130   7.379  2.9706 -3.7947  1.2154
  380MOL0     H50154   6.987   4.876   7.492  0.5703 -0.4868  0.4214
  380MOL0     H50155   7.003   4.993   7.617 -0.8419  2.7787 -0.6460
  380MOL0     H50156   7.227   4.899   7.586 -1.0738  0.4970  1.6224
  380MOL0     H50157   7.222   4.938   7.407  0.7287  0.1300  0.0374
  380MOL0     H50158   7.340   5.311   7.549 -0.1646  0.4297 -0.3447
  380MOL0     H50159   6.569   5.218   7.443 -2.8736  1.2508 -1.3650
  380MOL0     H50160   6.439   5.409   7.537  0.4396 -2.7517  1.0513
  381MOL0     O50161   7.445   9.916   7.719 -0.1850  0.0663 -0.2750
  381MOL0     C50162   7.404   9.818   7.657 -0.1900 -0.1501  0.8695
  381MOL0     O50163   7.276   9.785   7.638  0.2713 -0.4776 -0.0144
  381MOL0     C50164   7.183   9.880   7.689  0.9898 -0.4393 -0.3515
  381MOL0     C50165   7.139   9.886   7.825  0.4079  1.1244 -0.3148
  381MOL0     C50166   7.050   9.985   7.881  0.6729 -0.0075  0.7548
  381MOL0     C50167   7.004  10.075   7.792  0.0597 -1.0102  0.2250
  381MOL0     O50168   6.927  10.177   7.836 -0.1397 -0.1566  0.1604
  381MOL0     C50169   6.790  10.146   7.858  0.4117 -0.3742 -0.4781
  381MOL0     C50170   6.716  10.227   7.753 -0.6041 -0.4334 -0.4454
  381MOL0     C50171   6.579  10.267   7.811  0.8910  0.0957  0.4900
  381MOL0     C50172   6.496  10.341   7.698 -0.7954 -0.0480  0.0069
  381MOL0     C50173   6.353  10.376   7.757 -0.3029 -0.2875  0.0579
  381MOL0     C50174   6.288  10.273   7.843  0.0244 -1.0687  0.9409
  381MOL0     C50175   6.144  10.319   7.874  0.0317 -0.7254 -0.4644
  381MOL0     C50176   6.133  10.443   7.971 -0.5151 -0.0754 -0.3577
  381MOL0     N50177   6.001  10.446   8.029  0.3341 -0.1552  0.0785
  381MOL0     C50178   5.886  10.460   7.957 -0.2166  0.5480  0.0891
  381MOL0     C50179   5.792  10.446   8.052 -0.1714 -0.0593  0.6035
  381MOL0     C50180   5.645  10.474   8.019 -1.2491 -0.9580  0.6711
  381MOL0     C50181   5.544  10.515   8.129 -0.3236  0.5953  0.0181
  381MOL0     C50182   5.501  10.393   8.219 -0.2503  0.6662 -0.1036
  381MOL0     C50183   5.359  10.422   8.263 -0.1577  0.3140  0.1368
  381MOL0     O50184   5.341  10.553   8.317 -0.3278  0.7136  0.0213
  381MOL0     C50185   5.232  10.568   8.399  1.0480 -0.2898  0.0389
  381MOL0     C50186   5.105  10.504   8.368 -0.7885 -0.2720 -0.1419
  381MOL0     C50187   5.001  10.528   8.456  0.5801 -0.3355  0.5142
  381MOL0     C50188   5.010  10.619   8.566 -0.2883 -0.2219  0.9380
  381MOL0     C50189   4.886  10.654   8.640  0.1291 -0.1769 -0.3268
  381MOL0     O50190   4.782  10.578   8.621  0.0660 -0.5027 -0.1656
  381MOL0     C50191   4.659  10.616   8.678 -0.4615 -0.6155 -0.2797
  381MOL0     C50192   4.635  10.628   8.817  0.6549 -0.4162 -0.0534
  381MOL0     C50193   4.507  10.658   8.860 -0.8922 -0.5573 -0.4005
  381MOL0     C50194   4.402  10.671   8.768 -0.3935  0.5179  0.2005
  381MOL0     O50195   4.273  10.703   8.814 -0.4726  0.4414 -0.4039
  381MOL0     C50196   4.165  10.629   8.760  0.1978  0.5696 -0.0243
  381MOL0     C50197   4.044  10.593   8.855 -0.3408  0.1590 -0.7879
  381MOL0     C50198   3.947  10.495   8.790  0.6135 -0.3524  0.3722
  381MOL0     C50199   3.837  10.464   8.881  0.1717  0.3002 -0.3136
  381MOL0     C50200   3.752  10.341   8.856 -0.7494  0.3722 -0.1625
  381MOL0     C50201   3.642  10.336   8.961 -0.2485  0.8730 -0.1826
  381MOL0     C50202   3.543  10.228   8.932 -0.3743  0.2832 -0.3292
  381MOL0     C50203   3.445  10.219   9.057  0.6094  0.0950  0.0983
  381MOL0    Cl50204   3.326  10.090   9.032 -0.0779 -0.1192 -0.0080
  381MOL0     C50205   4.430  10.660   8.631 -0.1198  0.4779 -0.4255
  381MOL0     C50206   4.554  10.631   8.589 -0.4551 -0.5047 -0.3755
  381MOL0     O50207   4.897  10.750   8.717  0.1166 -0.8623 -0.8103
  381MOL0     C50208   5.131  10.682   8.586 -0.0333 -0.1470  0.3847
  381MOL0     C50209   5.240  10.657   8.500  0.3840  0.2313 -0.4696
  381MOL0     N50210   5.846  10.427   8.169  0.6668  0.2064 -0.6529
  381MOL0     N50211   5.973  10.428   8.161 -0.1778 -0.0919 -0.0858
  381MOL0     C50212   7.036  10.074   7.652 -0.4932 -0.3830 -0.5403
  381MOL0     C50213   7.128   9.978   7.602 -0.0980  0.0249  0.4567
  381MOL0     C50214   7.506   9.728   7.608 -0.3992 -0.1885  0.2464
  381MOL0     C50215   7.633   9.706   7.675 -0.1937  0.3191 -0.7069
  381MOL0     C50216   7.729   9.622   7.619 -0.1839 -0.6196  0.6740
  381MOL0     C50217   7.698   9.537   7.513  0.5487 -0.6440 -1.0259
  381MOL0     O50218   7.782   9.453   7.450 -0.0594 -0.7422  0.4514
  381MOL0     C50219   7.902   9.411   7.517  0.4572 -0.1698  0.4112
  381MOL0     C50220   7.932   9.268   7.459  0.0926 -0.4032 -0.0055
  381MOL0     C50221   7.971   9.272   7.315 -1.0323  0.5837  0.9502
  381MOL0     C50222   8.057   9.157   7.263 -0.2581 -0.2767 -0.1925
  381MOL0     C50223   7.996   9.028   7.280  0.4583  0.3869  0.0872
  381MOL0     C50224   7.941   8.921   7.288  0.1659  1.2768 -0.1430
  381MOL0     C50225   7.570   9.557   7.453  0.1736  0.3294 -0.0377
  381MOL0     C50226   7.479   9.652   7.495  0.3205  0.2283 -0.1268
  381MOL0     H50227   7.177   9.807   7.888 -1.7642 -1.3219 -1.8545
  381MOL0     H50228   7.021   9.994   7.985  1.5856 -2.3613  1.2764
  381MOL0     H50229   6.749  10.174   7.955 -0.7509 -3.4320  0.0248
  381MOL0     H50230   6.768  10.039   7.847  2.5432 -0.7068 -2.2438
  381MOL0     H50231   6.699  10.180   7.655  0.3405  1.1211 -1.3881
  381MOL0     H50232   6.768  10.321   7.737 -0.6093 -0.1807  0.9326
  381MOL0     H50233   6.582  10.337   7.895 -2.1557 -2.6232  3.2032
  381MOL0     H50234   6.519  10.187   7.856  0.0014  0.8572  0.7006
  381MOL0     H50235   6.551  10.424   7.652 -1.3274  0.2286 -0.1457
  381MOL0     H50236   6.485  10.261   7.624 -0.7974 -0.9078  0.9184
  381MOL0     H50237   6.291  10.393   7.668 -3.9413  1.0681  2.5984
  381MOL0     H50238   6.359  10.472   7.808  0.8907 -1.2139  1.7369
  381MOL0     H50239   6.344  10.254   7.935  3.2618  0.8469 -0.4465
  381MOL0     H50240   6.290  10.183   7.782  1.9559  0.3206 -1.2067
  381MOL0     H50241   6.094  10.348   7.782 -4.0931 -0.0227  1.7596
  381MOL0     H50242   6.082  10.238   7.914  0.5893 -0.6379  0.6368
  381MOL0     H50243   6.158  10.539   7.924  0.9736  1.6971  3.5834
  381MOL0     H50244   6.207  10.431   8.050 -0.4502  2.9653  0.1745
  381MOL0     H50245   5.877  10.478   7.851  3.3377 -0.4664 -0.5360
  381MOL0     H50246   5.614  10.380   7.972  1.4147 -1.8898  0.5881
  381MOL0     H50247   5.639  10.553   7.943 -0.1818 -1.3882  0.1001
  381MOL0     H50248   5.457  10.553   8.075 -2.2302 -1.4508  1.4493
  381MOL0     H50249   5.593  10.599   8.180  0.4226 -0.0022  0.3082
  381MOL0     H50250   5.507  10.298   8.166 -1.5758 -1.0702  2.6916
  381MOL0     H50251   5.571  10.377   8.301  0.9906 -0.6478 -1.3569
  381MOL0     H50252   5.333  10.353   8.345  0.7809  0.1182  0.2745
  381MOL0     H50253   5.291  10.423   8.177 -0.0909 -0.6030  0.0555
  381MOL0     H50254   5.081  10.440   8.284 -0.3167  0.3588 -0.7754
  381MOL0     H50255   4.907  10.478   8.438  2.0227 -3.3807  0.7813
  381MOL0     H50256   4.720  10.618   8.885  1.1058  0.3118 -0.4863
  381MOL0     H50257   4.478  10.674   8.963 -2.0099 -3.0979 -0.2667
  381MOL0     H50258   4.199  10.529   8.734  1.7755  0.9887  0.3450
  381MOL0     H50259   4.142  10.683   8.668  1.8893 -1.5604 -1.7793
  381MOL0     H50260   4.004  10.688   8.892  3.0202  1.5467 -0.3432
  381MOL0     H50261   4.091  10.539   8.937  1.3398 -1.1271 -2.5008
  381MOL0     H50262   4.007  10.404   8.778  2.3440  0.8080 -0.0868
  381MOL0     H50263   3.902  10.527   8.695  1.2629  2.4558  0.9263
  381MOL0     H50264   3.885  10.446   8.978  1.8720  1.2993 -0.9281
  381MOL0     H50265   3.771  10.550   8.897 -2.1192 -1.5236  0.7775
  381MOL0     H50266   3.810  10.248   8.861  0.9934  1.4167 -0.0227
  381MOL0     H50267   3.724  10.350   8.751  1.8569  1.0548 -0.8703
  381MOL0     H50268   3.590  10.433   8.969 -1.8993 -0.1003  2.5292
  381MOL0     H50269   3.701  10.314   9.051  1.9999  0.0995 -1.7584
  381MOL0     H50270   3.483  10.244   8.841  0.2357  0.5654 -0.6877
  381MOL0     H50271   3.575  10.123   8.931 -2.1373 -0.2945 -1.0619
  381MOL0     H50272   3.395  10.315   9.075 -1.1911 -0.7774 -0.0945
  381MOL0     H50273   3.508  10.189   9.141  1.5111  1.8758  0.1156
  381MOL0     H50274   4.357  10.689   8.556  0.1172  0.6306 -0.6010
  381MOL0     H50275   4.583  10.634   8.485  1.9244  3.2017  0.1780
  381MOL0     H50276   5.134  10.773   8.646 -3.2555  0.3640 -0.0769
  381MOL0     H50277   5.321  10.730   8.501 -0.6882  1.5342  2.7629
  381MOL0     H50278   7.014  10.167   7.600  1.4965  0.3526 -0.1479
  381MOL0     H50279   7.170   9.981   7.502 -0.0723  1.7357  0.4811
  381MOL0     H50280   7.675   9.773   7.749  4.2306 -0.2350 -2.4057
  381MOL0     H50281   7.827   9.610   7.665 -0.6234 -1.9891  1.3023
  381MOL0     H50282   7.896   9.408   7.626  0.7733 -0.7972  0.4127
  381MOL0     H50283   7.967   9.484   7.469 -2.1134  0.8990 -1.6807
  381MOL0     H50284   8.000   9.218   7.529 -1.0110 -0.3605  1.1295
  381MOL0     H50285   7.835   9.220   7.469  0.9748 -1.9448  1.8401
  381MOL0     H50286   8.034   9.360   7.312 -0.8723  0.4887  1.4415
  381MOL0     H50287   7.886   9.288   7.247  1.3934  1.8892 -1.9924
  381MOL0     H50288   8.064   9.174   7.155  0.0663 -1.2706 -0.3350
  381MOL0     H50289   8.159   9.151   7.302 -0.2688 -2.2310 -0.3504
  381MOL0     H50290   7.879   8.834   7.298 -0.3131  1.6293 -0.0393
  381MOL0     H50291   7.538   9.490   7.374 -2.1663  1.8942 -0.5351
  381MOL0     H50292   7.382   9.666   7.447 -1.6972 -2.4843  2.7553
  382MOL0     O50293  11.163   8.726   1.009 -1.0239  0.2226  0.6646
  382MOL0     C50294  11.233   8.642   1.074  0.1453 -0.4541 -0.2341
  382MOL0     O50295  11.182   8.554   1.177  0.0165 -0.4686  0.2344
  382MOL0     C50296  11.044   8.556   1.178 -0.0395  0.9021  1.2996
  382MOL0     C50297  10.971   8.673   1.223  0.2997  0.1378  0.0229
  382MOL0     C50298  10.831   8.674   1.216 -0.7363  0.0497  0.0941
  382MOL0     C50299  10.761   8.559   1.162 -0.4245 -0.8498  0.0255
  382MOL0     O50300  10.625   8.575   1.144 -0.0027 -0.2657  0.2868
  382MOL0     C50301  10.535   8.666   1.216 -1.1075 -0.1980  0.1138
  382MOL0     C50302  10.393   8.612   1.246 -0.6098 -0.0033 -0.8968
  382MOL0     C50303  10.403   8.477   1.324 -0.0214 -0.3408  0.1993
  382MOL0     C50304  10.261   8.430   1.366  0.0870 -0.4429  0.9100
  382MOL0     C50305  10.152   8.414   1.266  0.2186 -0.0208 -0.2996
  382MOL0     C50306  10.185   8.338   1.141  0.0158  0.0316 -0.4916
  382MOL0     C50307  10.206   8.187   1.172 -0.2515 -1.1856 -0.0556
  382MOL0     C50308  10.215   8.109   1.041  0.6771  0.1027 -1.2020
  382MOL0     N50309  10.207   7.963   1.066  0.0152  0.0130  0.6436
  382MOL0     C50310  10.103   7.897   1.121  0.4865  0.2107  0.0489
  382MOL0     C50311  10.146   7.769   1.137  1.1724 -0.3378 -0.5857
  382MOL0     C50312  10.062   7.650   1.178  1.1743 -0.5153 -0.8847
  382MOL0     C50313  10.054   7.550   1.065 -0.1499  0.9197  0.2619
  382MOL0     C50314   9.936   7.447   1.068  0.5098  0.1315 -0.5463
  382MOL0     C50315   9.803   7.519   1.023 -0.6261 -0.0208  0.8307
  382MOL0     O50316   9.730   7.578   1.129  0.0341  0.4522  0.6239
  382MOL0     C50317   9.597   7.580   1.122 -0.3261 -0.1609  0.2410
  382MOL0     C50318   9.538   7.617   1.249 -0.2290  0.3413  0.0074
  382MOL0     C50319   9.404   7.644   1.253  0.4001  0.0494  0.4700
  382MOL0     C50320   9.315   7.612   1.141 -0.4750  0.3816 -0.5069
  382MOL0     C50321   9.169   7.624   1.144  1.0321  0.4607  0.2174
  382MOL0     O50322   9.091   7.610   1.256 -0.5574 -0.1879  0.0224
  382MOL0     C50323   8.969   7.669   1.256  0.5316 -0.9201 -0.1015
  382MOL0     C50324   8.943   7.789   1.330 -0.3909 -0.2508 -0.3010
  382MOL0     C50325   8.817   7.835   1.354 -0.0936 -0.1822  0.0043
  382MOL0     C50326   8.716   7.781   1.280  0.2065 -0.1832 -0.4970
  382MOL0     O50327   8.595   7.836   1.304  0.2011 -0.5644 -0.4287
  382MOL0     C50328   8.489   7.745   1.335 -0.3281  0.1091  0.0057
  382MOL0     C50329   8.372   7.828   1.385 -0.4621 -0.5716 -0.3735
  382MOL0     C50330   8.249   7.751   1.420 -0.3679 -0.0485 -0.5233
  382MOL0     C50331   8.167   7.720   1.303  0.5707  0.0945 -0.2695
  382MOL0     C50332   8.040   7.642   1.342 -0.1901 -0.2120 -0.3222
  382MOL0     C50333   7.933   7.627   1.234  0.3288 -0.3255  0.4262
  382MOL0     C50334   7.810   7.541   1.290 -0.6387  0.1454 -0.2444
  382MOL0     C50335   7.711   7.520   1.176  0.7140 -1.2312  0.4722
  382MOL0    Cl50336   7.558   7.468   1.237 -0.5446 -0.1542 -0.2372
  382MOL0     C50337   8.735   7.658   1.204  0.6395  0.2733  0.8302
  382MOL0     C50338   8.861   7.596   1.199  0.2876  0.2753 -0.5243
  382MOL0     O50339   9.121   7.652   1.038 -0.2045 -0.7381 -0.1076
  382MOL0     C50340   9.380   7.554   1.026  0.2518  0.3443  0.0144
  382MOL0     C50341   9.519   7.544   1.012 -0.0405  0.3148 -0.7502
  382MOL0     N50342  10.283   7.759   1.098 -0.4464  0.2175  0.0568
  382MOL0     N50343  10.315   7.878   1.060 -0.0030 -0.5034 -0.0048
  382MOL0     C50344  10.834   8.451   1.114  0.2276  0.2018 -0.4307
  382MOL0     C50345  10.971   8.450   1.112 -0.4742  1.4783 -0.4862
  382MOL0     C50346  11.376   8.638   1.070 -0.4391  0.5537  0.4360
  382MOL0     C50347  11.457   8.548   1.144  0.5870  0.1197 -0.0528
  382MOL0     C50348  11.599   8.545   1.131  0.5532 -0.7425 -0.2126
  382MOL0     C50349  11.666   8.633   1.046 -0.7366  0.4197 -0.0492
  382MOL0     O50350  11.794   8.622   1.017  0.0215  0.7963  0.3546
  382MOL0     C50351  11.872   8.742   1.042 -0.3977 -0.1462  0.4786
  382MOL0     C50352  12.018   8.720   1.019  0.7889 -0.4797 -0.6506
  382MOL0     C50353  12.085   8.853   1.035  0.5267  0.8866  0.0187
  382MOL0     C50354  12.230   8.834   1.072 -0.3282  0.6541 -0.6431
  382MOL0     C50355  12.244   8.796   1.215  0.5538  0.8287 -0.4295
  382MOL0     C50356  12.273   8.779   1.332 -0.1100 -0.3929 -0.2789
  382MOL0     C50357  11.588   8.722   0.974  0.0693 -0.3301 -0.3114
  382MOL0     C50358  11.446   8.724   0.985  0.9040  0.4541  0.5927
  382MOL0     H50359  11.023   8.759   1.264  1.7679 -1.1978  1.0960
  382MOL0     H50360  10.778   8.756   1.264  1.2989  0.6348  1.4667
  382MOL0     H50361  10.529   8.760   1.160 -1.8941 -0.8891 -1.0043
  382MOL0     H50362  10.576   8.677   1.317 -2.6236  0.3631  0.6914
  382MOL0     H50363  10.333   8.595   1.156 -1.8225 -2.7822  0.3197
  382MOL0     H50364  10.347   8.689   1.309 -0.3568  2.7698 -3.8597
  382MOL0     H50365  10.471   8.490   1.409 -0.4689 -1.9171  0.8358
  382MOL0     H50366  10.447   8.397   1.264 -1.7123  0.3444 -2.0965
  382MOL0     H50367  10.278   8.340   1.426 -0.8209 -0.0825  1.7238
  382MOL0     H50368  10.224   8.492   1.448  0.4304  0.0154  0.7258
  382MOL0     H50369  10.136   8.520   1.248 -1.0665  0.0895  1.2733
  382MOL0     H50370  10.064   8.368   1.311  0.4471 -1.4241 -1.2278
  382MOL0     H50371  10.275   8.375   1.091  1.3659 -0.2284  1.6038
  382MOL0     H50372  10.095   8.348   1.080  0.1289 -2.4167 -1.1796
  382MOL0     H50373  10.294   8.179   1.236 -0.8513 -0.4517  0.9002
  382MOL0     H50374  10.127   8.151   1.240  0.4694 -1.0391  0.8795
  382MOL0     H50375  10.311   8.139   0.997  1.2893  1.2772  0.8055
  382MOL0     H50376  10.131   8.142   0.980 -0.6671 -1.8544 -0.5156
  382MOL0     H50377  10.005   7.934   1.147  1.2201  0.5150  2.7247
  382MOL0     H50378   9.957   7.678   1.193  1.2519 -0.4560 -0.4078
  382MOL0     H50379  10.103   7.608   1.270 -0.4853  1.3014  0.7923
  382MOL0     H50380  10.148   7.493   1.063 -0.8978 -0.4043  0.8675
  382MOL0     H50381  10.046   7.607   0.972 -0.8307 -2.0537 -1.6676
  382MOL0     H50382   9.959   7.365   0.999 -0.2587 -1.1434  0.6676
  382MOL0     H50383   9.918   7.406   1.167  2.6839 -2.1394 -0.9786
  382MOL0     H50384   9.739   7.442   0.978 -1.2002  0.6706  0.4565
  382MOL0     H50385   9.832   7.600   0.956  1.1958 -0.2623  1.2722
  382MOL0     H50386   9.604   7.626   1.334 -0.2481 -2.3332  0.3793
  382MOL0     H50387   9.362   7.693   1.340  1.6750  4.2774 -1.0283
  382MOL0     H50388   9.028   7.830   1.384  0.8483 -0.8958 -1.7191
  382MOL0     H50389   8.790   7.921   1.414  0.6988 -0.2939  0.5412
  382MOL0     H50390   8.528   7.681   1.415 -2.6851  0.0143  1.1411
  382MOL0     H50391   8.451   7.694   1.247 -1.3717 -1.2216  1.1918
  382MOL0     H50392   8.348   7.903   1.308 -1.3496  1.2671  1.6039
  382MOL0     H50393   8.413   7.881   1.471 -1.2868 -0.3357 -0.1192
  382MOL0     H50394   8.199   7.816   1.492  0.7668  1.3080 -0.9076
  382MOL0     H50395   8.269   7.652   1.462  1.8618  0.5042 -0.1211
  382MOL0     H50396   8.129   7.811   1.255 -2.5552 -1.8967 -1.9983
  382MOL0     H50397   8.228   7.661   1.234 -1.2406 -2.0259 -0.1814
  382MOL0     H50398   7.998   7.706   1.420  0.3089 -0.0041 -0.2221
  382MOL0     H50399   8.066   7.546   1.387  1.5431  0.7976  0.9399
  382MOL0     H50400   7.969   7.579   1.142 -0.7088  0.1097 -0.2225
  382MOL0     H50401   7.913   7.730   1.206  1.6514  0.0088  0.6346
  382MOL0     H50402   7.849   7.451   1.340 -0.0245  1.0634  0.9763
  382MOL0     H50403   7.756   7.599   1.365 -1.1478 -1.5886  0.7959
  382MOL0     H50404   7.754   7.449   1.104  1.2839 -0.6503  0.2342
  382MOL0     H50405   7.683   7.609   1.119  0.9144 -2.1833 -1.1850
  382MOL0     H50406   8.658   7.608   1.146  0.9071  0.0515  0.6680
  382MOL0     H50407   8.873   7.500   1.150 -2.5383  0.0624 -0.9374
  382MOL0     H50408   9.319   7.529   0.940  1.3374 -0.5095 -0.5179
  382MOL0     H50409   9.558   7.523   0.913 -0.8020  0.0120 -0.9948
  382MOL0     H50410  10.773   8.379   1.060 -1.7936 -0.4128  2.4480
  382MOL0     H50411  11.035   8.374   1.067  2.0674  1.4353  2.7561
  382MOL0     H50412  11.408   8.484   1.217 -0.0098 -1.8273 -2.0407
  382MOL0     H50413  11.663   8.466   1.171 -1.4192 -1.9241  0.7949
  382MOL0     H50414  11.860   8.790   1.140 -0.8791  1.5875 -0.3877
  382MOL0     H50415  11.843   8.819   0.970  1.6263  0.4878  0.2874
  382MOL0     H50416  12.050   8.639   1.085 -0.1789  1.2192  2.0328
  382MOL0     H50417  12.030   8.692   0.913 -1.2643 -1.9516 -0.5430
  382MOL0     H50418  12.042   8.914   1.115  1.6509  1.0345  0.5333
  382MOL0     H50419  12.064   8.905   0.942 -1.1986  0.2727  0.0358
  382MOL0     H50420  12.271   8.751   1.013 -0.7928  0.0086 -0.0775
  382MOL0     H50421  12.289   8.924   1.056  0.9739  0.1583  1.1157
  382MOL0     H50422  12.289   8.763   1.437  2.7777 -1.0146 -0.7559
  382MOL0     H50423  11.629   8.793   0.904  2.3594  0.1870  1.4021
  382MOL0     H50424  11.401   8.803   0.926  2.5842  1.2532  0.3185
  383MOL0     O50425   3.436   3.376   9.085 -0.7265  0.0825 -0.6248
  383MOL0     C50426   3.473   3.436   9.187 -0.1687 -0.5961 -0.9657
  383MOL0     O50427   3.391   3.477   9.296  0.8477  0.5186 -0.4215
  383MOL0     C50428   3.257   3.473   9.262 -0.3511  0.9833 -0.3334
  383MOL0     C50429   3.191   3.344   9.283 -0.4923  0.8742 -0.2134
  383MOL0     C50430   3.061   3.329   9.231  0.2278  0.4524 -0.1088
  383MOL0     C50431   3.003   3.435   9.155  0.1699  0.9239 -0.3174
  383MOL0     O50432   2.882   3.422   9.094 -0.3475  0.3102 -0.3949
  383MOL0     C50433   2.879   3.378   8.956 -0.1401 -0.3452  0.0245
  383MOL0     C50434   2.918   3.232   8.936  0.1570 -0.8942 -0.3993
  383MOL0     C50435   2.826   3.141   9.012  0.2814  0.0057 -0.1751
  383MOL0     C50436   2.859   2.991   8.984  0.3406  0.0381  0.0876
  383MOL0     C50437   2.758   2.889   9.034  0.6560  0.5678 -0.7832
  383MOL0     C50438   2.819   2.744   9.036 -0.0762 -0.4909 -0.0002
  383MOL0     C50439   2.720   2.638   9.097  0.5572 -1.3294 -0.3958
  383MOL0     C50440   2.606   2.600   9.007 -0.7759 -0.3316 -0.5407
  383MOL0     N50441   2.543   2.472   9.041 -0.3739  0.1281  0.6236
  383MOL0     C50442   2.466   2.438   9.149 -0.1327 -0.2532 -0.0511
  383MOL0     C50443   2.425   2.308   9.132  0.5398  0.2892  0.2509
  383MOL0     C50444   2.378   2.216   9.242  0.4132 -0.2510 -0.7245
  383MOL0     C50445   2.221   2.197   9.251  0.8881 -0.3793  0.0792
  383MOL0     C50446   2.138   2.322   9.294  0.4551  1.0255 -0.9747
  383MOL0     C50447   1.992   2.294   9.300  0.7164 -0.4365 -1.1160
  383MOL0     O50448   1.976   2.203   9.416  0.3537  0.2480  0.4022
  383MOL0     C50449   1.850   2.188   9.475 -0.3073  1.0796 -0.8608
  383MOL0     C50450   1.845   2.083   9.577  0.2051 -0.2728  0.1100
  383MOL0     C50451   1.728   2.063   9.649  0.6910 -0.0129  0.0498
  383MOL0     C50452   1.600   2.119   9.618 -0.2807 -0.0106  0.2216
  383MOL0     C50453   1.481   2.100   9.696  0.1614 -0.7862 -0.4157
  383MOL0     O50454   1.377   2.187   9.676 -0.3718  0.4063 -0.3538
  383MOL0     C50455   1.260   2.166   9.745  0.4945 -0.1927  0.6432
  383MOL0     C50456   1.230   2.250   9.852 -0.1235 -0.6497 -0.2967
  383MOL0     C50457   1.119   2.236   9.933 -0.2559 -1.4148  0.9241
  383MOL0     C50458   1.027   2.134   9.920 -0.4670 -0.0393  0.5077
  383MOL0     O50459   0.930   2.142  10.009  0.5921  0.7973  0.0838
  383MOL0     C50460   0.845   2.031  10.029  0.5211  0.2967  0.3176
  383MOL0     C50461   0.729   2.022   9.914 -0.3312  0.0443  0.6531
  383MOL0     C50462   0.649   2.146   9.904 -0.1030  1.0216  0.3227
  383MOL0     C50463   0.596   2.194  10.042  0.8364  0.0106 -0.2451
  383MOL0     C50464   0.469   2.111  10.073 -0.1071 -0.0596 -0.5209
  383MOL0     C50465   0.386   2.169  10.185  0.2107 -0.2435 -0.5754
  383MOL0     C50466   0.261   2.093  10.216  0.1290  0.0212  0.2326
  383MOL0     C50467   0.208   2.143  10.344  0.1553  0.0530 -0.4883
  383MOL0    Cl50468   0.039   2.096  10.375  0.3068 -0.5931 -0.1922
  383MOL0     C50469   1.047   2.047   9.806  1.1695 -1.5236  0.4950
  383MOL0     C50470   1.157   2.066   9.721 -0.6015  0.8950  1.1570
  383MOL0     O50471   1.480   2.010   9.776 -0.3658 -0.3451 -0.0729
  383MOL0     C50472   1.609   2.217   9.518 -0.5953 -0.5194 -0.1229
  383MOL0     C50473   1.732   2.254   9.452  0.4049 -0.2832 -0.8065
  383MOL0     N50474   2.481   2.269   9.010 -0.9765 -0.1837  0.6737
  383MOL0     N50475   2.540   2.367   8.959  0.8154 -0.1642 -0.0072
  383MOL0     C50476   3.069   3.551   9.139 -0.4226  0.5608  0.7943
  383MOL0     C50477   3.198   3.565   9.183  0.2177 -0.8376 -0.5098
  383MOL0     C50478   3.621   3.458   9.205 -0.0384  0.0952 -0.3569
  383MOL0     C50479   3.721   3.419   9.108  0.1261 -0.0362  0.4712
  383MOL0     C50480   3.860   3.428   9.137 -0.1899  1.2224  0.2005
  383MOL0     C50481   3.905   3.477   9.256 -0.4490  0.0479  0.4015
  383MOL0     O50482   4.036   3.510   9.292 -0.4325 -0.6758 -0.8095
  383MOL0     C50483   4.142   3.451   9.216 -0.1076  0.1823 -0.3427
  383MOL0     C50484   4.283   3.474   9.286 -0.1135  0.1561  0.0242
  383MOL0     C50485   4.392   3.402   9.199  0.5687  0.2543  0.8030
  383MOL0     C50486   4.414   3.454   9.058  0.3747 -0.5270 -0.2375
  383MOL0     C50487   4.452   3.592   9.054 -0.9436  0.1757 -0.3459
  383MOL0     C50488   4.481   3.712   9.060  0.5386  0.4557 -0.0394
  383MOL0     C50489   3.812   3.522   9.354  0.3468  0.5397  0.5362
  383MOL0     C50490   3.668   3.503   9.328  0.6408 -1.2925  0.5399
  383MOL0     H50491   3.252   3.259   9.315  0.1739  1.3275 -0.2615
  383MOL0     H50492   3.002   3.239   9.240  0.9628 -0.1551 -1.2231
  383MOL0     H50493   2.937   3.447   8.895  0.7029  0.0668  1.2620
  383MOL0     H50494   2.777   3.397   8.921  0.0535 -0.9540 -0.9287
  383MOL0     H50495   3.023   3.219   8.966 -0.5559  0.3156  3.1807
  383MOL0     H50496   2.913   3.212   8.829  0.1128 -0.0241 -0.5677
  383MOL0     H50497   2.725   3.162   8.975  0.8666  0.4861 -1.5625
  383MOL0     H50498   2.832   3.161   9.120 -0.3018  2.2002 -0.4981
  383MOL0     H50499   2.858   2.978   8.875  0.2119 -3.0125  0.3764
  383MOL0     H50500   2.955   2.964   9.030 -0.2045  0.6612  1.6514
  383MOL0     H50501   2.663   2.889   8.979  0.0052 -0.5810  0.3011
  383MOL0     H50502   2.734   2.926   9.134  0.9531 -2.6835  0.6333
  383MOL0     H50503   2.900   2.745   9.109  0.5841 -1.8875 -0.6890
  383MOL0     H50504   2.850   2.714   8.936 -1.0376 -0.5635 -0.2951
  383MOL0     H50505   2.773   2.547   9.124 -0.8417 -1.1216  3.6774
  383MOL0     H50506   2.688   2.678   9.193  3.3002  1.2653 -0.4365
  383MOL0     H50507   2.655   2.587   8.910  2.7177  0.7029  0.9296
  383MOL0     H50508   2.531   2.680   9.003  0.2268  0.7788  1.3693
  383MOL0     H50509   2.436   2.504   9.230  0.0853  0.6745 -0.7105
  383MOL0     H50510   2.419   2.241   9.340  3.7984 -0.5166 -1.9448
  383MOL0     H50511   2.418   2.119   9.212  2.4598  0.3822 -0.2081
  383MOL0     H50512   2.216   2.127   9.335  0.7813  0.4054  0.7356
  383MOL0     H50513   2.185   2.156   9.156  1.2059  0.2238 -0.3073
  383MOL0     H50514   2.169   2.354   9.394 -0.9383  0.8034 -0.4483
  383MOL0     H50515   2.149   2.399   9.217  0.4496  0.8480 -1.1574
  383MOL0     H50516   1.958   2.253   9.204  2.4815 -3.0688 -0.7438
  383MOL0     H50517   1.950   2.389   9.334 -0.1700 -1.3664  0.4634
  383MOL0     H50518   1.946   2.055   9.604  0.6623  2.0247  1.0398
  383MOL0     H50519   1.740   2.001   9.737  0.3567 -0.5377 -0.2651
  383MOL0     H50520   1.292   2.340   9.858  0.7219 -1.2765  0.6530
  383MOL0     H50521   1.097   2.309  10.010 -0.1647  1.6597 -1.7428
  383MOL0     H50522   0.799   2.049  10.127  1.3124  2.3639  0.3711
  383MOL0     H50523   0.904   1.939  10.036  1.6672  1.1148  2.5196
  383MOL0     H50524   0.662   1.938   9.938  0.0985 -0.5913 -0.3385
  383MOL0     H50525   0.781   1.998   9.821  0.5808 -2.7823  1.7623
  383MOL0     H50526   0.571   2.145   9.828  1.2304  3.7153 -1.2501
  383MOL0     H50527   0.707   2.229   9.861 -1.6905  2.4238  0.7670
  383MOL0     H50528   0.665   2.184  10.127  2.2183 -2.9718 -1.5689
  383MOL0     H50529   0.560   2.296  10.027 -1.0876 -0.3084  1.7688
  383MOL0     H50530   0.510   2.017  10.111  2.0583  1.6654  1.8275
  383MOL0     H50531   0.405   2.093   9.987 -3.1823  2.0617  1.1403
  383MOL0     H50532   0.363   2.273  10.159  0.7759  0.1882  0.5905
  383MOL0     H50533   0.452   2.180  10.271 -1.2651 -1.0966  0.6999
  383MOL0     H50534   0.190   2.117  10.136  1.9397  0.3049 -1.3594
  383MOL0     H50535   0.276   1.985  10.224  1.1411  0.3184  3.4603
  383MOL0     H50536   0.208   2.252  10.354  0.0581  0.0590 -0.5537
  383MOL0     H50537   0.275   2.097  10.417  0.2287  0.7572 -0.1055
  383MOL0     H50538   0.976   1.965   9.793 -1.0743  0.3063  0.6598
  383MOL0     H50539   1.181   2.004   9.634  0.5521  3.7533 -0.7024
  383MOL0     H50540   1.523   2.269   9.477  0.1123  0.9797  0.2064
  383MOL0     H50541   1.720   2.339   9.386  1.2338 -1.9795 -3.2789
  383MOL0     H50542   3.000   3.622   9.096 -0.2696  0.2916  0.0963
  383MOL0     H50543   3.242   3.664   9.171 -3.4842  0.8072 -2.3456
  383MOL0     H50544   3.689   3.386   9.010 -1.4753  0.1003  0.9312
  383MOL0     H50545   3.932   3.404   9.059 -0.2071 -1.4971  0.9238
  383MOL0     H50546   4.148   3.499   9.117  1.1605  1.4943  0.3220
  383MOL0     H50547   4.113   3.347   9.201 -2.7800  0.5430  1.5549
  383MOL0     H50548   4.316   3.577   9.297  4.0287 -0.8173 -1.6497
  383MOL0     H50549   4.289   3.425   9.384 -1.6544  0.4083  0.2685
  383MOL0     H50550   4.366   3.296   9.193  1.5299  0.0607 -0.2496
  383MOL0     H50551   4.488   3.402   9.252  1.4370  1.2910 -0.7178
  383MOL0     H50552   4.506   3.400   9.032  1.3626  1.2216 -0.5375
  383MOL0     H50553   4.337   3.436   8.983  2.1790 -1.9037 -1.8948
  383MOL0     H50554   4.494   3.818   9.056 -0.4451  0.6157  0.4561
  383MOL0     H50555   3.853   3.563   9.445 -0.1420  1.0023  0.5499
  383MOL0     H50556   3.598   3.512   9.411  0.5882  2.7431  0.2536
  384MOL0     O50557   4.809   7.884   9.191  0.2022 -0.4004  0.2521
  384MOL0     C50558   4.840   7.766   9.192  0.4078 -0.5562 -0.2620
  384MOL0     O50559   4.748   7.664   9.182  0.1906  0.5846  0.4346
  384MOL0     C50560   4.615   7.692   9.203  0.3424 -0.0563  0.3953
  384MOL0     C50561   4.519   7.729   9.097 -0.4781 -0.0391  0.4655
  384MOL0     C50562   4.387   7.759   9.123  0.2119 -1.3591  0.4567
  384MOL0     C50563   4.346   7.765   9.256  0.9443  0.9458 -0.9406
  384MOL0     O50564   4.206   7.784   9.279  0.0994  0.2461 -0.4972
  384MOL0     C50565   4.138   7.715   9.392 -0.3999  0.0113 -0.4207
  384MOL0     C50566   3.979   7.721   9.374  1.2890  0.2337 -0.5285
  384MOL0     C50567   3.911   7.620   9.464 -0.2050  0.0142  0.0262
  384MOL0     C50568   3.755   7.628   9.450 -0.2880 -0.2108  0.4903
  384MOL0     C50569   3.672   7.516   9.518 -0.4318 -0.4646  0.8541
  384MOL0     C50570   3.527   7.514   9.464 -0.3737  0.4794  0.9600
  384MOL0     C50571   3.444   7.426   9.555  0.2085  0.5561 -0.6710
  384MOL0     C50572   3.296   7.428   9.511 -0.3827 -0.1002 -0.3973
  384MOL0     N50573   3.202   7.463   9.617 -0.1458  0.0878 -0.2417
  384MOL0     C50574   3.104   7.555   9.601 -0.2916 -0.1574  0.0507
  384MOL0     C50575   3.032   7.562   9.715  0.9376 -0.0755 -0.2240
  384MOL0     C50576   2.921   7.657   9.744  0.3727 -0.7744 -0.2285
  384MOL0     C50577   2.783   7.611   9.703  1.0825  0.6718  0.0202
  384MOL0     C50578   2.678   7.722   9.727  0.1580  0.0523  0.1633
  384MOL0     C50579   2.538   7.671   9.764 -1.0774 -0.4983 -0.1593
  384MOL0     O50580   2.470   7.624   9.648 -0.7632  0.2767  0.2925
  384MOL0     C50581   2.347   7.573   9.656 -0.0156  0.8617 -0.0673
  384MOL0     C50582   2.336   7.445   9.596 -0.3484  0.5401 -0.1332
  384MOL0     C50583   2.210   7.380   9.582  0.7644 -1.0231  0.4108
  384MOL0     C50584   2.093   7.451   9.623  0.0048 -0.1022 -0.4618
  384MOL0     C50585   1.957   7.397   9.601 -0.8009  0.7065  0.2779
  384MOL0     O50586   1.941   7.324   9.483 -0.3143  0.3365  0.1413
  384MOL0     C50587   1.812   7.313   9.437  0.5448  0.1274 -0.3421
  384MOL0     C50588   1.732   7.208   9.492 -0.1070  0.6122 -0.6155
  384MOL0     C50589   1.596   7.205   9.462  0.9509  0.9978 -0.1062
  384MOL0     C50590   1.527   7.283   9.368 -0.3706 -0.0450 -0.5863
  384MOL0     O50591   1.392   7.269   9.353  0.1396 -0.1050  0.0570
  384MOL0     C50592   1.336   7.362   9.250  0.2757 -0.8346 -0.6254
  384MOL0     C50593   1.183   7.350   9.256 -0.3171 -0.4224  0.8333
  384MOL0     C50594   1.142   7.205   9.211 -0.0433  0.3334 -0.2828
  384MOL0     C50595   0.988   7.202   9.208  0.0383  0.3144  0.4384
  384MOL0     C50596   0.955   7.054   9.174  0.0929 -0.4502  0.1307
  384MOL0     C50597   0.825   7.054   9.098 -0.0528  1.0691  0.4483
  384MOL0     C50598   0.835   7.022   8.949  0.0128  0.5432  0.4407
  384MOL0     C50599   0.929   7.109   8.873  0.1627  0.5033  0.6623
  384MOL0    Cl50600   0.922   7.032   8.716 -0.6787  0.2357 -0.1952
  384MOL0     C50601   1.613   7.375   9.307 -0.3833 -0.3252  0.4413
  384MOL0     C50602   1.746   7.395   9.345 -0.6872 -0.0665 -0.4082
  384MOL0     O50603   1.868   7.439   9.671  0.2177 -0.0448  0.0509
  384MOL0     C50604   2.111   7.565   9.707  0.4448  0.5560  0.5964
  384MOL0     C50605   2.233   7.636   9.719  0.0094 -0.0934  0.0240
  384MOL0     N50606   3.094   7.475   9.805  0.1408  0.8192 -0.3126
  384MOL0     N50607   3.209   7.432   9.748  0.0739 -0.5080  0.0712
  384MOL0     C50608   4.432   7.741   9.362  0.4933 -0.0435  0.0522
  384MOL0     C50609   4.564   7.716   9.335 -0.0413  0.8634 -1.1535
  384MOL0     C50610   4.985   7.735   9.216  0.3629 -0.1960  0.5554
  384MOL0     C50611   5.026   7.602   9.243 -0.2488  0.1557 -0.8159
  384MOL0     C50612   5.163   7.565   9.238 -0.2162  0.0559 -0.5961
  384MOL0     C50613   5.258   7.662   9.225 -0.2994 -0.4480  0.7646
  384MOL0     O50614   5.398   7.640   9.224 -0.2697 -0.4058  0.1047
  384MOL0     C50615   5.451   7.511   9.200  0.5587  0.6890 -0.3907
  384MOL0     C50616   5.597   7.526   9.178 -0.0538  0.9788  0.8145
  384MOL0     C50617   5.666   7.539   9.318  0.1264  0.8690 -0.4206
  384MOL0     C50618   5.816   7.543   9.315 -0.3014  0.7046  0.0538
  384MOL0     C50619   5.890   7.547   9.435  0.0720 -0.0793  0.3330
  384MOL0     C50620   5.953   7.548   9.532 -0.7451  0.5210 -0.6323
  384MOL0     C50621   5.211   7.798   9.205 -1.2273  0.5215 -0.6601
  384MOL0     C50622   5.077   7.832   9.202 -0.3088 -0.2733  0.9514
  384MOL0     H50623   4.538   7.714   8.991 -4.2061 -1.9476 -0.0832
  384MOL0     H50624   4.314   7.798   9.053  0.4477  2.2841  2.0044
  384MOL0     H50625   4.167   7.760   9.487  0.6727 -2.1859  0.3611
  384MOL0     H50626   4.169   7.611   9.406 -2.0629 -0.2681  1.7716
  384MOL0     H50627   3.950   7.697   9.271 -0.5612  0.7002 -0.1573
  384MOL0     H50628   3.944   7.824   9.388  0.5425 -0.0286 -0.3965
  384MOL0     H50629   3.941   7.628   9.569  3.2766  3.2562 -0.9829
  384MOL0     H50630   3.934   7.517   9.439 -1.1051 -0.3356  0.5792
  384MOL0     H50631   3.722   7.725   9.489 -1.8592 -0.3923 -0.3032
  384MOL0     H50632   3.725   7.630   9.345  0.4493  1.2027  0.2811
  384MOL0     H50633   3.674   7.525   9.628 -3.9215  2.7185  0.8659
  384MOL0     H50634   3.723   7.424   9.488  1.6550  0.8460  0.1145
  384MOL0     H50635   3.520   7.472   9.363 -0.0811 -1.4697  1.6934
  384MOL0     H50636   3.493   7.617   9.455  3.1745  1.6897 -0.2640
  384MOL0     H50637   3.481   7.323   9.559  1.6653  1.0985  1.1444
  384MOL0     H50638   3.451   7.461   9.658 -3.5948  0.7941 -0.3511
  384MOL0     H50639   3.269   7.332   9.467  1.5484 -0.4835 -0.8015
  384MOL0     H50640   3.275   7.497   9.429  1.0414  0.8798  0.0233
  384MOL0     H50641   3.081   7.617   9.515 -1.4244  1.2680  1.3310
  384MOL0     H50642   2.941   7.753   9.696 -1.0723 -0.2428  0.1736
  384MOL0     H50643   2.913   7.695   9.846 -1.9911  1.0841 -1.0040
  384MOL0     H50644   2.751   7.524   9.761  2.3069  0.4502  0.3972
  384MOL0     H50645   2.782   7.584   9.597  0.2137  0.6093  0.0398
  384MOL0     H50646   2.705   7.786   9.811 -0.3521  0.1848  0.2260
  384MOL0     H50647   2.676   7.783   9.636 -1.1301  0.1189  0.2186
  384MOL0     H50648   2.483   7.759   9.802 -0.4210 -0.2525  0.2425
  384MOL0     H50649   2.544   7.593   9.840  0.8842  0.3278  0.5831
  384MOL0     H50650   2.419   7.387   9.558 -1.9330 -0.7210 -1.7889
  384MOL0     H50651   2.208   7.278   9.546  1.2455 -0.7773 -0.3283
  384MOL0     H50652   1.780   7.139   9.560  0.4448  0.0876 -1.5239
  384MOL0     H50653   1.529   7.132   9.507  0.2634  2.4790  1.4002
  384MOL0     H50654   1.383   7.346   9.153 -0.0854  0.5443 -1.0451
  384MOL0     H50655   1.360   7.465   9.279  1.5418 -1.3741  0.3554
  384MOL0     H50656   1.137   7.428   9.195 -0.1092  0.9432  2.3308
  384MOL0     H50657   1.157   7.370   9.361  0.2219  2.9786  0.4255
  384MOL0     H50658   1.183   7.131   9.280 -2.0270  1.0743  1.8222
  384MOL0     H50659   1.192   7.193   9.115  2.4077 -0.7884  1.0460
  384MOL0     H50660   0.936   7.236   9.298  0.7918 -0.6104  1.2467
  384MOL0     H50661   0.946   7.264   9.128  1.0435 -0.6914 -0.9222
  384MOL0     H50662   0.929   6.993   9.260 -1.3596 -0.5754 -0.3676
  384MOL0     H50663   1.030   6.998   9.117  0.1758  0.5307 -0.7556
  384MOL0     H50664   0.771   7.149   9.107  0.0932  1.2045 -0.0447
  384MOL0     H50665   0.745   6.990   9.137 -1.4443  1.8909 -0.9643
  384MOL0     H50666   0.866   6.918   8.934 -0.3603  0.3521  0.9307
  384MOL0     H50667   0.730   7.035   8.921 -0.0340  0.2967  0.5015
  384MOL0     H50668   1.031   7.095   8.910 -0.2777 -1.1262  1.3824
  384MOL0     H50669   0.888   7.210   8.867 -1.9385 -0.2729  1.0841
  384MOL0     H50670   1.587   7.441   9.225  0.4336  1.1248  1.2960
  384MOL0     H50671   1.806   7.477   9.306  1.7494 -0.6105  1.8593
  384MOL0     H50672   2.024   7.608   9.756  0.6628  1.2323  0.4145
  384MOL0     H50673   2.242   7.725   9.780  2.5342 -0.3946  0.1908
  384MOL0     H50674   4.392   7.762   9.461  0.2015  0.7853 -0.2247
  384MOL0     H50675   4.635   7.722   9.417  0.0474  1.7216 -1.2770
  384MOL0     H50676   4.950   7.527   9.264 -0.5330  0.3325 -1.2044
  384MOL0     H50677   5.183   7.460   9.254 -1.0248  0.0906  0.8142
  384MOL0     H50678   5.412   7.466   9.108 -1.5710 -1.7509  1.5153
  384MOL0     H50679   5.429   7.444   9.284  1.3285  0.1069 -0.6388
  384MOL0     H50680   5.629   7.429   9.137 -0.1557  0.5990  1.6193
  384MOL0     H50681   5.637   7.603   9.111 -0.0026 -0.3896 -0.7929
  384MOL0     H50682   5.633   7.457   9.382  0.4657  1.5689  0.6779
  384MOL0     H50683   5.637   7.632   9.368  0.5838  0.6513  0.2734
  384MOL0     H50684   5.856   7.460   9.256  0.0366  1.6945 -1.1446
  384MOL0     H50685   5.850   7.629   9.257 -1.4906  0.9850 -0.2577
  384MOL0     H50686   6.005   7.552   9.625  0.1043  0.1872 -1.0896
  384MOL0     H50687   5.278   7.881   9.188 -0.4513 -0.6384 -4.0778
  384MOL0     H50688   5.055   7.936   9.183  0.5878 -0.3312 -0.6042
  385MOL0     O50689  10.238   7.625   9.247 -0.7803 -0.7409 -0.5052
  385MOL0     C50690  10.194   7.738   9.265  0.2489  0.2914 -0.3027
  385MOL0     O50691  10.266   7.836   9.320 -0.5496  0.3051 -0.3746
  385MOL0     C50692  10.396   7.810   9.367  0.1545  0.4544  0.0195
  385MOL0     C50693  10.504   7.888   9.321 -0.1266 -0.0950  0.6002
  385MOL0     C50694  10.629   7.862   9.381 -0.5105 -0.7638  0.3527
  385MOL0     C50695  10.650   7.759   9.472  0.1410 -0.3488  0.6913
  385MOL0     O50696  10.776   7.761   9.522 -0.1022  0.6066 -0.5477
  385MOL0     C50697  10.814   7.639   9.597 -0.6357 -0.0190 -0.2737
  385MOL0     C50698  10.954   7.684   9.648 -0.0416  0.9008  0.0466
  385MOL0     C50699  11.027   7.588   9.741 -0.6322 -0.2615  0.3698
  385MOL0     C50700  11.107   7.482   9.670 -0.6898  0.4051  0.4132
  385MOL0     C50701  11.028   7.345   9.654  0.1409 -1.1191  0.3703
  385MOL0     C50702  11.114   7.239   9.583 -0.4644 -0.2786 -0.3303
  385MOL0     C50703  11.040   7.102   9.585  0.0885  0.6244  0.2980
  385MOL0     C50704  11.125   6.987   9.529  0.2648 -0.0194  0.7919
  385MOL0     N50705  11.042   6.866   9.528 -0.0522  0.7324 -0.1793
  385MOL0     C50706  11.003   6.808   9.410  0.8586 -0.2076  0.3894
  385MOL0     C50707  10.934   6.698   9.441  0.0419  1.2830  0.2189
  385MOL0     C50708  10.855   6.598   9.356  0.5428 -0.1126  0.6199
  385MOL0     C50709  10.806   6.471   9.436 -1.1744 -0.5048  0.1461
  385MOL0     C50710  10.811   6.348   9.342  0.4169  0.2710 -0.5253
  385MOL0     C50711  10.719   6.352   9.220 -0.1817 -1.0437  0.7938
  385MOL0     O50712  10.590   6.338   9.294 -0.4163 -0.8039  0.9309
  385MOL0     C50713  10.473   6.374   9.225  0.4479 -0.3188 -0.2900
  385MOL0     C50714  10.449   6.409   9.089 -0.1026 -0.2363 -0.1921
  385MOL0     C50715  10.319   6.430   9.040 -0.0169  0.6277  0.7462
  385MOL0     C50716  10.204   6.417   9.124 -0.2883  0.8837 -0.2590
  385MOL0     C50717  10.069   6.455   9.074 -0.3975  0.8372 -0.0608
  385MOL0     O50718   9.964   6.399   9.141  0.2759  0.4925 -0.5526
  385MOL0     C50719   9.834   6.430   9.105  0.5530  0.2728 -0.7175
  385MOL0     C50720   9.790   6.560   9.066 -0.7474  0.4029  0.8887
  385MOL0     C50721   9.654   6.575   9.034 -0.0152 -0.6055  0.1413
  385MOL0     C50722   9.566   6.469   9.038  0.9275 -1.0758 -0.1193
  385MOL0     O50723   9.431   6.485   8.989  0.6150 -0.1878 -0.6877
  385MOL0     C50724   9.403   6.592   8.903 -0.0894 -0.1873  0.2753
  385MOL0     C50725   9.272   6.575   8.835  0.3491  0.0527 -0.4389
  385MOL0     C50726   9.186   6.705   8.849 -0.1482 -0.5125 -0.8239
  385MOL0     C50727   9.044   6.699   8.789  0.1086  0.8143 -0.7547
  385MOL0     C50728   9.031   6.709   8.633 -0.3738  0.1762 -0.6687
  385MOL0     C50729   8.887   6.737   8.591  0.2283  0.1762  0.2073
  385MOL0     C50730   8.859   6.722   8.441 -0.1511 -0.0316  0.0912
  385MOL0     C50731   8.716   6.742   8.411 -0.7919 -0.4016  0.8424
  385MOL0    Cl50732   8.681   6.729   8.242  0.3155  0.0291  0.0903
  385MOL0     C50733   9.608   6.336   9.077  0.2113  0.9246  0.2189
  385MOL0     C50734   9.745   6.320   9.108  0.0614 -0.0884 -0.8875
  385MOL0     O50735  10.056   6.516   8.964 -0.0527  0.2373 -0.8277
  385MOL0     C50736  10.227   6.378   9.261  0.3033  0.3413  0.3634
  385MOL0     C50737  10.359   6.361   9.308 -0.2118 -0.3682 -0.3141
  385MOL0     N50738  10.935   6.701   9.587 -0.1462 -0.1476  0.2540
  385MOL0     N50739  11.005   6.799   9.637 -0.4341 -0.1389  0.2267
  385MOL0     C50740  10.546   7.677   9.504  0.3794 -0.2774 -0.4661
  385MOL0     C50741  10.419   7.711   9.458  0.3663 -0.7731 -0.0763
  385MOL0     C50742  10.058   7.776   9.213 -0.1672  0.0632 -0.1161
  385MOL0     C50743   9.972   7.682   9.143 -0.2774 -1.4513  0.2989
  385MOL0     C50744   9.838   7.722   9.112  0.3271 -0.1942  0.0640
  385MOL0     C50745   9.786   7.847   9.147 -0.6445  0.0698  0.0286
  385MOL0     O50746   9.653   7.872   9.114 -0.8984 -0.1201  0.8793
  385MOL0     C50747   9.630   8.005   9.064  0.9066 -0.4116 -0.7471
  385MOL0     C50748   9.545   8.079   9.168 -0.1218 -0.1046  0.2363
  385MOL0     C50749   9.412   8.112   9.115  0.5528  0.1521  0.4395
  385MOL0     C50750   9.336   8.197   9.212 -0.4093  0.3565 -0.6934
  385MOL0     C50751   9.226   8.260   9.137 -0.0182  0.7905  0.5810
  385MOL0     C50752   9.129   8.292   9.067  0.3035  0.1893  0.6946
  385MOL0     C50753   9.875   7.935   9.214  0.8213 -0.8234 -0.0161
  385MOL0     C50754  10.006   7.904   9.249 -0.2253  0.2417  0.2005
  385MOL0     H50755  10.502   7.969   9.248  2.3902  0.3159  0.9032
  385MOL0     H50756  10.709   7.926   9.343 -1.4709 -0.2161 -0.8273
  385MOL0     H50757  10.825   7.561   9.521 -0.6161  0.1912 -0.4882
  385MOL0     H50758  10.753   7.600   9.679  1.7192 -0.8056  1.2050
  385MOL0     H50759  10.930   7.773   9.706  0.1004  1.1853 -0.3288
  385MOL0     H50760  11.021   7.713   9.567  0.6044  0.6239  0.4641
  385MOL0     H50761  10.958   7.544   9.813 -0.9400  2.9497  2.2760
  385MOL0     H50762  11.104   7.643   9.797  0.4667  0.8430 -2.0658
  385MOL0     H50763  11.115   7.523   9.569 -4.3918 -0.8263 -0.5154
  385MOL0     H50764  11.208   7.472   9.711  0.8249  2.1145 -2.5433
  385MOL0     H50765  10.939   7.357   9.592  1.4920 -0.8931 -1.6066
  385MOL0     H50766  10.994   7.317   9.754  0.4779 -0.4985  0.6677
  385MOL0     H50767  11.207   7.223   9.638 -1.2430  0.4274  1.2491
  385MOL0     H50768  11.142   7.266   9.481  0.7423 -1.8418 -0.4570
  385MOL0     H50769  11.019   7.075   9.689  0.4316  0.0208  0.2181
  385MOL0     H50770  10.944   7.114   9.534 -0.0758 -2.2481 -0.2291
  385MOL0     H50771  11.210   6.975   9.597  1.6789 -0.5415 -0.9703
  385MOL0     H50772  11.171   7.001   9.430  1.7332 -1.1151  1.2825
  385MOL0     H50773  11.019   6.842   9.308 -0.7271  1.1948  0.5459
  385MOL0     H50774  10.923   6.564   9.277  1.1369  0.7491  0.7486
  385MOL0     H50775  10.772   6.650   9.309  2.5980  2.9454  0.0742
  385MOL0     H50776  10.704   6.487   9.470 -2.3716 -4.8676 -0.8038
  385MOL0     H50777  10.871   6.447   9.520  1.9768  2.9698 -1.0042
  385MOL0     H50778  10.915   6.336   9.311  1.0917  0.4755  1.4955
  385MOL0     H50779  10.792   6.259   9.404  1.2830 -0.0658 -0.7196
  385MOL0     H50780  10.722   6.263   9.156 -0.4536 -0.5220  0.0459
  385MOL0     H50781  10.727   6.446   9.166  0.2427  0.3477  3.1333
  385MOL0     H50782  10.522   6.411   9.009 -0.3111  2.6658 -0.4313
  385MOL0     H50783  10.307   6.458   8.936 -1.5307 -0.9033  0.4641
  385MOL0     H50784   9.860   6.642   9.056 -0.4792  0.1286  0.4756
  385MOL0     H50785   9.624   6.675   9.006 -0.0759 -0.8349 -0.6369
  385MOL0     H50786   9.470   6.599   8.817 -0.9282 -3.1695 -0.7528
  385MOL0     H50787   9.418   6.686   8.957 -0.4960 -0.0421  0.1455
  385MOL0     H50788   9.219   6.490   8.878  2.4398 -1.0133  0.1884
  385MOL0     H50789   9.287   6.569   8.727 -0.0683 -0.8078 -0.4562
  385MOL0     H50790   9.245   6.772   8.785  0.0085 -0.9541 -1.1483
  385MOL0     H50791   9.179   6.724   8.956 -0.6839 -0.4865 -0.8636
  385MOL0     H50792   8.992   6.611   8.827  2.0186  0.2244  0.6911
  385MOL0     H50793   8.988   6.782   8.832  1.3443  1.3714 -0.1784
  385MOL0     H50794   9.052   6.609   8.596  0.3039 -0.5829  1.6223
  385MOL0     H50795   9.108   6.780   8.599 -0.6398  1.3252  0.9946
  385MOL0     H50796   8.861   6.837   8.627  1.7792  0.9837 -0.8300
  385MOL0     H50797   8.816   6.675   8.646 -0.1245  1.6262  1.4632
  385MOL0     H50798   8.916   6.798   8.387 -2.9509  2.1005 -0.1314
  385MOL0     H50799   8.896   6.625   8.405 -0.4738  0.5217 -1.9024
  385MOL0     H50800   8.685   6.842   8.442  2.5397  1.9030 -2.3966
  385MOL0     H50801   8.668   6.660   8.465  3.5131 -3.4704  0.5812
  385MOL0     H50802   9.537   6.254   9.081  1.6063 -0.5090 -1.8654
  385MOL0     H50803   9.779   6.221   9.138 -2.3605 -0.6932  0.1412
  385MOL0     H50804  10.144   6.364   9.330 -1.1242  2.7274 -0.7517
  385MOL0     H50805  10.384   6.319   9.405 -0.5790  0.3490  0.0978
  385MOL0     H50806  10.546   7.593   9.572 -1.7641  0.0600  0.0413
  385MOL0     H50807  10.326   7.666   9.492 -0.2295 -0.4078 -1.1719
  385MOL0     H50808  10.008   7.584   9.114  1.7191 -0.4310 -0.8714
  385MOL0     H50809   9.776   7.649   9.061  1.7021 -1.1977 -0.2445
  385MOL0     H50810   9.578   7.989   8.969 -0.5230  0.4939 -0.1477
  385MOL0     H50811   9.720   8.067   9.055  1.4971 -0.8503  1.4559
  385MOL0     H50812   9.527   8.030   9.264 -0.2598  0.5745  0.5696
  385MOL0     H50813   9.594   8.173   9.196  1.3828 -0.5795 -0.7214
  385MOL0     H50814   9.360   8.019   9.090 -0.5822  1.0225 -0.5970
  385MOL0     H50815   9.420   8.161   9.017 -1.0455 -0.9086 -0.2537
  385MOL0     H50816   9.297   8.138   9.295 -0.2002  1.1389 -0.0280
  385MOL0     H50817   9.398   8.274   9.260  1.6581 -0.1485 -2.4172
  385MOL0     H50818   9.041   8.315   9.011 -0.4455  1.2707  2.2442
  385MOL0     H50819   9.842   8.031   9.251 -1.5488 -1.8691  0.7792
  385MOL0     H50820  10.067   7.985   9.287 -1.5281  3.5362 -3.9433
  386MOL0     O50821   8.873   3.608   5.956 -0.0101 -0.2601 -0.1927
  386MOL0     C50822   8.966   3.522   5.982 -0.0992  0.6391  0.4657
  386MOL0     O50823   8.964   3.386   5.973 -0.4148 -0.1956  0.3469
  386MOL0     C50824   8.860   3.313   5.915  0.7595  0.5439 -0.8149
  386MOL0     C50825   8.731   3.353   5.875  0.4058  0.2509  0.6381
  386MOL0     C50826   8.631   3.260   5.834  0.3770  0.6379 -0.7305
  386MOL0     C50827   8.662   3.122   5.833  0.4224  0.3568  0.2251
  386MOL0     O50828   8.570   3.023   5.783 -0.2455  0.3579 -0.7423
  386MOL0     C50829   8.430   3.051   5.764 -0.0656  0.9994  0.5151
  386MOL0     C50830   8.346   2.923   5.738  0.2460  0.0686  0.3760
  386MOL0     C50831   8.365   2.839   5.613 -0.0525 -0.6163 -0.7069
  386MOL0     C50832   8.265   2.728   5.591  0.2362  0.2673  0.4717
  386MOL0     C50833   8.301   2.630   5.479 -0.4683 -0.0918 -0.9684
  386MOL0     C50834   8.323   2.695   5.345  0.4162 -0.7785  0.9496
  386MOL0     C50835   8.374   2.598   5.242  0.5997  0.3837 -0.6578
  386MOL0     C50836   8.407   2.668   5.118 -0.6667 -0.0654  0.7994
  386MOL0     N50837   8.290   2.727   5.061 -0.3050 -0.1863 -1.0701
  386MOL0     C50838   8.199   2.675   4.973  0.3656 -0.5046 -0.3643
  386MOL0     C50839   8.130   2.779   4.928  0.7597  0.7241  0.6898
  386MOL0     C50840   8.019   2.778   4.821 -0.0757 -0.1040  0.6740
  386MOL0     C50841   7.900   2.689   4.860  0.7870  0.0045  0.0000
  386MOL0     C50842   7.788   2.737   4.963 -0.1040  0.2971 -0.0050
  386MOL0     C50843   7.693   2.626   4.985 -0.2006 -0.1250 -0.3844
  386MOL0     O50844   7.610   2.607   4.869  0.2480 -0.1472 -0.0354
  386MOL0     C50845   7.479   2.655   4.856  0.1828  0.6278 -0.2333
  386MOL0     C50846   7.408   2.744   4.939  0.9953 -0.7037 -0.4890
  386MOL0     C50847   7.274   2.774   4.909  0.0715  1.3311  0.4587
  386MOL0     C50848   7.210   2.718   4.790 -1.0504  0.2298  0.3097
  386MOL0     C50849   7.070   2.732   4.758 -0.0391 -0.6523 -1.1093
  386MOL0     O50850   6.996   2.774   4.865 -0.5000  0.3925  0.3554
  386MOL0     C50851   6.872   2.829   4.838  0.3354  0.1061 -0.6075
  386MOL0     C50852   6.778   2.762   4.762  0.3616  0.0844  0.3131
  386MOL0     C50853   6.653   2.828   4.739 -0.5210 -0.1521 -0.4813
  386MOL0     C50854   6.630   2.956   4.792  0.0407 -0.2193 -0.0495
  386MOL0     O50855   6.512   3.018   4.770 -0.1060  0.4396  0.7041
  386MOL0     C50856   6.455   3.115   4.859  0.1720  0.2365  0.1174
  386MOL0     C50857   6.307   3.128   4.828 -0.7961 -0.3951  0.3921
  386MOL0     C50858   6.287   3.192   4.692  0.3555  0.1381  0.1451
  386MOL0     C50859   6.136   3.216   4.654  0.4207 -0.3153 -0.3689
  386MOL0     C50860   6.066   3.104   4.572 -0.6894  0.9338 -0.0894
  386MOL0     C50861   5.914   3.111   4.576  0.2125 -0.1843  0.4138
  386MOL0     C50862   5.857   2.981   4.515 -0.1378 -0.1322  0.1154
  386MOL0     C50863   5.711   3.001   4.472 -0.5252  0.1027  0.1595
  386MOL0    Cl50864   5.619   3.078   4.604 -0.1557  0.2390  0.1961
  386MOL0     C50865   6.731   3.017   4.869  0.7556  0.2304  0.2668
  386MOL0     C50866   6.846   2.945   4.897  0.2266 -0.6915 -0.8293
  386MOL0     O50867   7.028   2.717   4.643 -0.0639 -0.4723 -0.6379
  386MOL0     C50868   7.292   2.634   4.713 -0.1017 -0.3932  0.6323
  386MOL0     C50869   7.424   2.604   4.739  0.4111 -0.5704  0.3683
  386MOL0     N50870   8.177   2.892   4.984 -0.8490 -0.4330 -0.3955
  386MOL0     N50871   8.268   2.860   5.065  0.5124  0.0227  0.0755
  386MOL0     C50872   8.789   3.074   5.867  0.0400 -0.5455  0.0733
  386MOL0     C50873   8.889   3.169   5.906  0.1727 -0.1552 -1.1087
  386MOL0     C50874   9.088   3.575   6.049 -0.6025 -0.1388 -0.0122
  386MOL0     C50875   9.100   3.712   6.088  0.0086 -0.3065  0.2042
  386MOL0     C50876   9.220   3.756   6.157  0.2575 -0.2390 -0.0645
  386MOL0     C50877   9.321   3.669   6.187  0.9833 -0.1879 -0.3519
  386MOL0     O50878   9.424   3.717   6.266  0.0553  0.5444  0.0427
  386MOL0     C50879   9.537   3.642   6.292 -0.4074 -0.2049 -0.4585
  386MOL0     C50880   9.638   3.737   6.346  1.0761 -0.1524  0.0026
  386MOL0     C50881   9.783   3.690   6.342  0.8630  0.1592  0.7435
  386MOL0     C50882   9.865   3.800   6.392 -0.0845 -0.8944  0.9743
  386MOL0     C50883  10.008   3.755   6.374  0.0310  0.3394 -0.4866
  386MOL0     C50884  10.119   3.714   6.357 -0.5362 -0.0551  0.5166
  386MOL0     C50885   9.310   3.540   6.149 -0.0123  0.7950  0.2756
  386MOL0     C50886   9.198   3.492   6.087 -0.1288  0.3632  0.7687
  386MOL0     H50887   8.703   3.457   5.869  0.0531  0.2553  1.9942
  386MOL0     H50888   8.531   3.296   5.812 -0.2235 -0.5113  0.0175
  386MOL0     H50889   8.412   3.124   5.685 -0.6515  0.2723 -0.0359
  386MOL0     H50890   8.391   3.085   5.860  1.6749 -0.6602  1.8924
  386MOL0     H50891   8.243   2.959   5.749  0.4668  0.2923  1.9442
  386MOL0     H50892   8.364   2.858   5.824 -1.8195 -0.6476  0.3322
  386MOL0     H50893   8.461   2.785   5.614 -0.2723 -1.0394 -1.6412
  386MOL0     H50894   8.373   2.912   5.532 -0.1382  0.3512  0.1359
  386MOL0     H50895   8.254   2.669   5.682  0.0820 -1.3883 -0.5793
  386MOL0     H50896   8.177   2.786   5.559  0.8833  0.9846 -0.0546
  386MOL0     H50897   8.214   2.564   5.467 -2.0385  1.8740 -1.0101
  386MOL0     H50898   8.379   2.570   5.526 -0.7390  0.0594 -0.3240
  386MOL0     H50899   8.397   2.776   5.351  1.1201 -1.3593  0.3101
  386MOL0     H50900   8.228   2.742   5.320  1.2649  0.0294 -1.0009
  386MOL0     H50901   8.459   2.543   5.284 -1.6323 -0.4534  3.3071
  386MOL0     H50902   8.307   2.514   5.219  1.2281  0.1875 -1.8395
  386MOL0     H50903   8.447   2.594   5.048 -1.0814  0.6124 -0.1844
  386MOL0     H50904   8.488   2.740   5.134  1.5508 -2.7412  2.5997
  386MOL0     H50905   8.184   2.577   4.931  1.6585 -0.7447 -0.3169
  386MOL0     H50906   8.065   2.756   4.725  1.3428  1.6207  0.9195
  386MOL0     H50907   7.982   2.879   4.804 -2.0466 -0.9915 -0.8507
  386MOL0     H50908   7.936   2.592   4.898  0.1936  0.1015  0.8644
  386MOL0     H50909   7.847   2.658   4.770  2.0125 -4.9400  0.6489
  386MOL0     H50910   7.835   2.761   5.059  1.3096  1.1543 -0.8855
  386MOL0     H50911   7.751   2.830   4.920  2.6780  0.5287 -2.1712
  386MOL0     H50912   7.621   2.652   5.063 -0.4012 -0.5043 -0.4388
  386MOL0     H50913   7.737   2.528   5.005 -1.4030 -1.0887 -2.1750
  386MOL0     H50914   7.452   2.792   5.026 -0.7498  1.3920 -0.6694
  386MOL0     H50915   7.206   2.823   4.979  1.4603  3.3408  0.4757
  386MOL0     H50916   6.794   2.660   4.730  0.9539 -0.5768  2.4935
  386MOL0     H50917   6.586   2.773   4.674  0.4218 -1.6228 -0.2400
  386MOL0     H50918   6.510   3.208   4.839 -0.8148  0.8043 -0.0551
  386MOL0     H50919   6.462   3.075   4.960  1.1121 -0.5159 -0.2353
  386MOL0     H50920   6.258   3.200   4.893  0.1998  1.4720 -0.8359
  386MOL0     H50921   6.262   3.028   4.825  1.9012 -1.6830 -1.5458
  386MOL0     H50922   6.322   3.137   4.604 -2.3445 -2.0883  0.3218
  386MOL0     H50923   6.333   3.291   4.702 -0.1322  0.1479  3.3529
  386MOL0     H50924   6.078   3.232   4.745  0.1706 -2.3334 -0.1300
  386MOL0     H50925   6.124   3.309   4.598 -2.0378  0.3078  1.0476
  386MOL0     H50926   6.104   3.013   4.619  1.0988  1.8199  0.2459
  386MOL0     H50927   6.097   3.116   4.468 -1.0917 -0.2546 -0.3676
  386MOL0     H50928   5.884   3.195   4.512 -0.1136 -0.9643 -0.4664
  386MOL0     H50929   5.876   3.136   4.676 -0.5274  2.2432 -0.3953
  386MOL0     H50930   5.909   2.949   4.424 -4.0636 -1.7881 -1.7882
  386MOL0     H50931   5.869   2.904   4.592 -0.1553 -0.8199 -0.5511
  386MOL0     H50932   5.671   2.905   4.438 -0.1435  0.3883 -1.1650
  386MOL0     H50933   5.702   3.068   4.386 -0.9886 -0.3292 -0.1328
  386MOL0     H50934   6.719   3.114   4.915 -0.8917  0.6195 -0.9124
  386MOL0     H50935   6.922   2.984   4.965 -2.6009 -2.6751  3.9596
  386MOL0     H50936   7.250   2.588   4.624 -1.3909  0.8760  0.5284
  386MOL0     H50937   7.477   2.540   4.669  1.5541 -0.8375  1.4376
  386MOL0     H50938   8.815   2.969   5.858 -1.2139 -0.7282 -2.1645
  386MOL0     H50939   8.988   3.132   5.927  0.2934  1.0480  0.6739
  386MOL0     H50940   9.020   3.783   6.072 -0.3775 -0.2404  2.1957
  386MOL0     H50941   9.240   3.857   6.193 -0.5555 -0.1695  0.2205
  386MOL0     H50942   9.579   3.588   6.206 -1.0506  0.2633 -1.0899
  386MOL0     H50943   9.512   3.556   6.355 -1.9286  0.8661  0.4678
  386MOL0     H50944   9.635   3.829   6.286 -1.8948  0.2397  0.6380
  386MOL0     H50945   9.621   3.759   6.451 -1.1569  2.9573 -0.8684
  386MOL0     H50946   9.811   3.666   6.239  0.3066  0.9727  0.3942
  386MOL0     H50947   9.789   3.605   6.412 -1.2473  0.2960  1.1623
  386MOL0     H50948   9.844   3.880   6.320 -0.1391 -2.0950 -0.3870
  386MOL0     H50949   9.856   3.830   6.496  3.6741  1.8215  0.7132
  386MOL0     H50950  10.208   3.660   6.333  1.1989  1.6706  2.5410
  386MOL0     H50951   9.389   3.468   6.171 -0.4158 -0.3881 -1.8381
  386MOL0     H50952   9.202   3.387   6.061  0.0598  0.0961  1.8229
  387MOL0     O50953   2.576   5.220  10.352  0.6057 -0.1349 -0.6318
  387MOL0     C50954   2.550   5.265  10.244  0.5697  0.1395 -0.4943
  387MOL0     O50955   2.422   5.299  10.193 -0.9584  0.2255 -0.4731
  387MOL0     C50956   2.322   5.286  10.283 -0.3927 -0.3675  0.3066
  387MOL0     C50957   2.289   5.387  10.372  0.2106  0.3710 -0.4652
  387MOL0     C50958   2.171   5.386  10.446 -0.3594 -0.3617  0.1480
  387MOL0     C50959   2.074   5.279  10.435 -0.0358  0.5109  0.4308
  387MOL0     O50960   1.968   5.287  10.522 -0.1010  0.4359 -0.1949
  387MOL0     C50961   1.844   5.246  10.458  0.8845  0.4780 -0.1189
  387MOL0     C50962   1.740   5.231  10.570 -0.4222  0.4751  0.0430
  387MOL0     C50963   1.597   5.229  10.511  0.9087  0.0755 -0.1960
  387MOL0     C50964   1.490   5.195  10.620  0.1682  0.0197 -0.2933
  387MOL0     C50965   1.351   5.166  10.570 -0.1014 -0.1168 -0.2772
  387MOL0     C50966   1.334   5.022  10.505  0.4783  0.1436 -0.0161
  387MOL0     C50967   1.195   5.001  10.451 -0.0050 -0.3157 -0.1511
  387MOL0     C50968   1.073   5.045  10.534 -0.4059 -0.5800  0.4957
  387MOL0     N50969   0.948   5.005  10.474 -0.0014  0.3554 -0.3526
  387MOL0     C50970   0.833   4.958  10.529  0.1835  0.0120 -0.2602
  387MOL0     C50971   0.735   4.994  10.446  0.6056  0.3314  0.0479
  387MOL0     C50972   0.588   4.959  10.453  0.0502 -0.7031 -0.5088
  387MOL0     C50973   0.501   5.087  10.433 -0.4865  0.1693 -0.3505
  387MOL0     C50974   0.376   5.034  10.365  0.2237 -0.0292 -0.0509
  387MOL0     C50975   0.268   5.134  10.371  0.0560 -0.0252 -0.1565
  387MOL0     O50976   0.152   5.091  10.290 -0.5949 -0.1772  0.3935
  387MOL0     C50977   0.035   5.152  10.296  1.2416  0.6783  0.1404
  387MOL0     C50978  -0.013   5.235  10.398  0.0202  0.4324  0.4370
  387MOL0     C50979  -0.138   5.299  10.388 -1.0495  0.1861 -0.6032
  387MOL0     C50980  -0.228   5.263  10.294  0.5063  0.0947  0.6163
  387MOL0     C50981  -0.367   5.312  10.303 -0.6432 -0.0551 -0.0990
  387MOL0     O50982  -0.396   5.417  10.378 -0.2707 -0.0519 -0.2529
  387MOL0     C50983  -0.522   5.447  10.417  0.0881  0.5853  0.3019
  387MOL0     C50984  -0.631   5.353  10.430  0.3029 -0.0753  0.9421
  387MOL0     C50985  -0.760   5.392  10.466 -0.1508 -0.2155  0.4267
  387MOL0     C50986  -0.789   5.529  10.491  0.0962  0.4022 -1.0586
  387MOL0     O50987  -0.913   5.570  10.524 -0.0292 -1.0112  0.2385
  387MOL0     C50988  -1.029   5.512  10.466  0.3356 -0.2545  0.2853
  387MOL0     C50989  -1.150   5.564  10.534  0.3532  0.9468 -0.7892
  387MOL0     C50990  -1.215   5.680  10.457  0.0909 -0.3356  0.2628
  387MOL0     C50991  -1.135   5.807  10.477  0.1196  0.5334 -1.2113
  387MOL0     C50992  -1.179   5.915  10.374  0.8225  0.4742 -0.2973
  387MOL0     C50993  -1.329   5.949  10.400 -0.1010  0.5090  0.0597
  387MOL0     C50994  -1.350   6.091  10.343 -0.6590  0.0708  0.5710
  387MOL0     C50995  -1.489   6.135  10.377 -0.0507  0.0257 -0.6787
  387MOL0    Cl50996  -1.536   6.286  10.297 -0.7959 -0.0434  0.3288
  387MOL0     C50997  -0.678   5.619  10.484 -0.0288 -0.3946 -0.2833
  387MOL0     C50998  -0.545   5.582  10.454  0.5185  0.7512  0.1969
  387MOL0     O50999  -0.446   5.248  10.240  0.1560 -0.1513 -1.5932
  387MOL0     C51000  -0.187   5.174  10.192  0.0341 -0.1470  0.1305
  387MOL0     C51001  -0.055   5.120  10.194 -0.6991 -0.1952  0.0605
  387MOL0     N51002   0.794   5.055  10.336  0.8693  0.5715 -0.1787
  387MOL0     N51003   0.917   5.051  10.352  0.2420  0.0286  0.3546
  387MOL0     C51004   2.114   5.173  10.345  0.3182 -0.4116 -0.6103
  387MOL0     C51005   2.239   5.174  10.276  0.4404  0.4947  0.0865
  387MOL0     C51006   2.666   5.284  10.151  0.0589  0.4238  0.1064
  387MOL0     C51007   2.800   5.289  10.201  1.2018  0.4161  0.6917
  387MOL0     C51008   2.908   5.315  10.114 -0.1410 -0.4065  0.8131
  387MOL0     C51009   2.883   5.330   9.974  0.5047 -0.2255 -0.1824
  387MOL0     O51010   2.969   5.356   9.873  0.0900  0.4297  0.4422
  387MOL0     C51011   3.116   5.377   9.908  0.0836  0.8427  0.1434
  387MOL0     C51012   3.174   5.256   9.830  0.2345  0.0507 -1.3398
  387MOL0     C51013   3.323   5.265   9.819 -0.7715 -0.6704 -0.3622
  387MOL0     C51014   3.374   5.126   9.772  0.4107 -0.6848 -0.7138
  387MOL0     C51015   3.517   5.130   9.753 -0.6007 -0.8100 -0.0734
  387MOL0     C51016   3.632   5.107   9.730 -0.1093 -0.4880 -0.3528
  387MOL0     C51017   2.748   5.325   9.939  0.8158 -0.2130  0.0992
  387MOL0     C51018   2.644   5.307  10.017  0.4841 -1.5431 -0.4939
  387MOL0     H51019   2.354   5.473  10.364  2.8751 -1.4551  0.1020
  387MOL0     H51020   2.153   5.474  10.508 -2.8368  0.6481 -1.8217
  387MOL0     H51021   1.848   5.156  10.395 -1.2668  0.2331  0.0281
  387MOL0     H51022   1.815   5.337  10.406 -0.2018  0.4410  0.3824
  387MOL0     H51023   1.754   5.313  10.640 -1.3635 -0.8830  1.9113
  387MOL0     H51024   1.751   5.133  10.618 -0.4013 -0.8286 -2.4494
  387MOL0     H51025   1.593   5.153  10.433  1.3532 -0.6289  0.4514
  387MOL0     H51026   1.569   5.328  10.475 -2.3946 -0.6400  0.0657
  387MOL0     H51027   1.527   5.109  10.677 -0.5046  1.1751  2.0006
  387MOL0     H51028   1.488   5.279  10.690 -3.1146 -1.0360  1.0536
  387MOL0     H51029   1.324   5.240  10.494  1.0738 -0.1346 -0.7282
  387MOL0     H51030   1.280   5.168  10.653  0.7395 -2.0383  0.5641
  387MOL0     H51031   1.349   4.941  10.577  0.2252  1.9386  2.1847
  387MOL0     H51032   1.405   4.999  10.426 -0.7946  0.6123 -1.3332
  387MOL0     H51033   1.182   5.061  10.361  2.1636 -0.1144 -0.3787
  387MOL0     H51034   1.182   4.894  10.432  0.5913 -0.3648 -0.2987
  387MOL0     H51035   1.070   5.154  10.537 -1.6797 -0.4269 -2.7334
  387MOL0     H51036   1.073   5.010  10.638  0.7918 -5.3319 -0.8549
  387MOL0     H51037   0.821   4.896  10.617 -0.0107  0.6588  0.1817
  387MOL0     H51038   0.562   4.919  10.551  2.6183  2.9083  1.9027
  387MOL0     H51039   0.576   4.883  10.376  0.0284  1.6085 -2.9371
  387MOL0     H51040   0.556   5.159  10.371 -1.0941  1.5321  0.6396
  387MOL0     H51041   0.466   5.137  10.524 -1.1186  1.9139 -1.4879
  387MOL0     H51042   0.390   5.002  10.262 -2.1091  0.8287 -0.6880
  387MOL0     H51043   0.341   4.939  10.409 -1.5722  0.8944  0.6403
  387MOL0     H51044   0.309   5.233  10.348  2.6079 -0.7021  1.0725
  387MOL0     H51045   0.226   5.149  10.471  0.6125  0.5153  0.0040
  387MOL0     H51046   0.052   5.235  10.485 -1.1980 -2.2484  1.4431
  387MOL0     H51047  -0.149   5.362  10.475 -0.4247  0.1464 -0.4872
  387MOL0     H51048  -0.609   5.247  10.422  3.0366  0.2555  2.6624
  387MOL0     H51049  -0.837   5.316  10.460 -1.3906  0.9325  1.3794
  387MOL0     H51050  -1.033   5.402  10.467  0.3216 -0.2513  0.5887
  387MOL0     H51051  -1.038   5.546  10.363 -0.6630 -0.4518  0.3017
  387MOL0     H51052  -1.130   5.583  10.640 -0.1399 -1.3474 -0.2241
  387MOL0     H51053  -1.228   5.487  10.538 -0.4532  1.7901  1.4507
  387MOL0     H51054  -1.316   5.691  10.498 -1.0201 -1.0010 -2.0962
  387MOL0     H51055  -1.221   5.660  10.349 -1.2215  1.8321 -0.1398
  387MOL0     H51056  -1.164   5.846  10.575  1.4680  2.4622 -1.5200
  387MOL0     H51057  -1.027   5.789  10.477  0.0727  0.1894 -0.5373
  387MOL0     H51058  -1.153   5.882  10.273  1.3995  0.2060 -0.0640
  387MOL0     H51059  -1.120   6.004  10.396  0.3039  0.2333  2.3805
  387MOL0     H51060  -1.352   5.950  10.506  1.3552 -0.6572  0.4223
  387MOL0     H51061  -1.392   5.879  10.344  2.9157 -1.2956 -1.3397
  387MOL0     H51062  -1.272   6.155  10.383  1.7731 -0.7173 -2.5024
  387MOL0     H51063  -1.339   6.105  10.235  0.9929 -0.9124  0.5799
  387MOL0     H51064  -1.505   6.147  10.484  2.0174  2.8745 -0.5453
  387MOL0     H51065  -1.559   6.055  10.350 -1.3729  1.5747 -2.1117
  387MOL0     H51066  -0.710   5.722  10.492  1.1194  0.1812 -2.3763
  387MOL0     H51067  -0.464   5.652  10.441  1.5385 -0.5422 -0.7053
  387MOL0     H51068  -0.253   5.157  10.107 -0.8651  1.4781  0.4542
  387MOL0     H51069  -0.025   5.043  10.123  0.4668 -1.8137  2.1667
  387MOL0     H51070   2.046   5.089  10.337 -0.0885 -0.6769  3.6704
  387MOL0     H51071   2.263   5.092  10.209  0.7603  0.1010  0.6739
  387MOL0     H51072   2.833   5.262  10.300 -0.2771  0.3855  1.1987
  387MOL0     H51073   3.009   5.323  10.154  0.8719 -2.9806 -1.0152
  387MOL0     H51074   3.143   5.361  10.013 -0.5299  2.1870  0.5350
  387MOL0     H51075   3.150   5.476   9.876  0.1340  0.8709  0.2814
  387MOL0     H51076   3.152   5.160   9.879 -0.0270 -0.4307 -2.3687
  387MOL0     H51077   3.128   5.247   9.731 -1.0054  0.1659 -0.7990
  387MOL0     H51078   3.368   5.289   9.916  1.4512 -3.2217 -0.6630
  387MOL0     H51079   3.357   5.335   9.743 -1.4712 -0.2718 -0.3200
  387MOL0     H51080   3.359   5.050   9.850  3.9770 -0.4370  0.4123
  387MOL0     H51081   3.321   5.102   9.680 -0.6454 -0.5869 -0.1509
  387MOL0     H51082   3.738   5.093   9.732 -0.1597 -0.8918  0.7755
  387MOL0     H51083   2.721   5.351   9.837 -1.4797  0.6676  0.8684
  387MOL0     H51084   2.540   5.314   9.987 -0.0152 -3.1893  0.6595
  388MOL0     O51085   7.079   9.997   1.595  0.3023  0.1115  0.1246
  388MOL0     C51086   7.139   9.993   1.484  0.1307 -0.0313 -0.4351
  388MOL0     O51087   7.086   9.946   1.366  0.5218 -0.0712  0.1183
  388MOL0     C51088   6.971   9.868   1.359 -0.0444  0.6302  0.5685
  388MOL0     C51089   6.891   9.813   1.463  0.3654 -0.0963  0.2889
  388MOL0     C51090   6.777   9.730   1.441 -0.2017  0.0477 -0.1338
  388MOL0     C51091   6.737   9.702   1.316 -0.3001  0.5345 -0.1405
  388MOL0     O51092   6.632   9.617   1.289 -0.5692  0.1377 -0.1945
  388MOL0     C51093   6.512   9.624   1.370  0.2726  0.3782  0.2700
  388MOL0     C51094   6.392   9.568   1.303 -0.0131 -0.0533 -0.5589
  388MOL0     C51095   6.256   9.577   1.384 -0.3298  0.4361  0.3360
  388MOL0     C51096   6.173   9.450   1.377  0.3454  0.9437 -0.2974
  388MOL0     C51097   6.021   9.466   1.425  0.5864  0.5561  0.3753
  388MOL0     C51098   5.942   9.338   1.381  0.5461  0.1524 -0.1666
  388MOL0     C51099   5.787   9.342   1.407  0.6015 -0.1474 -0.2350
  388MOL0     C51100   5.753   9.256   1.532  0.2776 -0.4391  0.4184
  388MOL0     N51101   5.610   9.271   1.569 -0.1975 -0.2749  0.7443
  388MOL0     C51102   5.567   9.350   1.670 -0.1802  0.0553  0.2783
  388MOL0     C51103   5.435   9.327   1.674  0.7426  0.0055  0.1499
  388MOL0     C51104   5.361   9.394   1.789 -0.4285 -0.4075 -0.2618
  388MOL0     C51105   5.209   9.383   1.782 -0.5992  0.0919  0.2112
  388MOL0     C51106   5.173   9.235   1.830 -0.1259  0.1941  0.2758
  388MOL0     C51107   5.050   9.198   1.755 -1.0483  0.3033  0.2395
  388MOL0     O51108   4.947   9.307   1.782  0.2145 -0.0274  1.2504
  388MOL0     C51109   4.815   9.270   1.770  0.4214 -0.6046  0.6739
  388MOL0     C51110   4.767   9.145   1.742  0.1385  0.2786  0.4166
  388MOL0     C51111   4.628   9.133   1.728 -0.1966  0.1836  0.1093
  388MOL0     C51112   4.536   9.236   1.748 -0.0754 -0.6072  0.2131
  388MOL0     C51113   4.385   9.226   1.724 -0.7012  0.1389  1.0312
  388MOL0     O51114   4.350   9.117   1.652  0.6867  0.0075 -0.5693
  388MOL0     C51115   4.220   9.084   1.620  0.8446 -0.1988  0.2652
  388MOL0     C51116   4.126   9.071   1.729  0.3106 -0.9691 -0.3738
  388MOL0     C51117   4.001   9.034   1.697  0.6564  0.4308 -0.2031
  388MOL0     C51118   3.956   9.017   1.561 -0.4054  0.1126 -0.5791
  388MOL0     O51119   3.821   8.988   1.549  0.2367 -0.2669  0.3351
  388MOL0     C51120   3.755   8.988   1.417  1.0938 -0.0465 -0.2516
  388MOL0     C51121   3.611   9.033   1.442  0.1465 -0.1516 -0.1459
  388MOL0     C51122   3.525   8.910   1.496  0.3110 -0.0957  0.1064
  388MOL0     C51123   3.373   8.916   1.463 -0.7552 -0.6311  0.1789
  388MOL0     C51124   3.303   8.787   1.498  0.0225  0.7051 -0.1369
  388MOL0     C51125   3.152   8.810   1.532 -0.1067  0.2337  0.2687
  388MOL0     C51126   3.135   8.864   1.671  0.7164 -0.2882  0.3334
  388MOL0     C51127   2.981   8.883   1.701 -0.4414 -0.5930  0.0327
  388MOL0    Cl51128   2.912   9.014   1.601 -0.4123  0.1500  0.3031
  388MOL0     C51129   4.048   9.032   1.456 -0.0867 -0.4840 -0.4603
  388MOL0     C51130   4.178   9.061   1.489  0.0714 -0.0147  0.7974
  388MOL0     O51131   4.308   9.313   1.766  0.3419  0.0596  0.1079
  388MOL0     C51132   4.589   9.360   1.780  0.7967  0.1408 -0.0089
  388MOL0     C51133   4.723   9.375   1.787 -0.2151 -0.1084 -0.3927
  388MOL0     N51134   5.393   9.232   1.580  0.2349  0.8712 -0.1995
  388MOL0     N51135   5.499   9.206   1.514 -0.8926  0.2166  0.2938
  388MOL0     C51136   6.813   9.752   1.207 -0.0198 -0.5045 -1.1017
  388MOL0     C51137   6.931   9.829   1.227 -0.4459  0.2672  0.3133
  388MOL0     C51138   7.284  10.028   1.484 -0.7657  0.3213  0.1113
  388MOL0     C51139   7.353  10.067   1.609 -0.1945  0.1812 -0.1233
  388MOL0     C51140   7.491  10.096   1.604  0.5962 -0.7141  0.5155
  388MOL0     C51141   7.561  10.105   1.482 -0.5334  0.5020 -0.4137
  388MOL0     O51142   7.690  10.150   1.461  0.3085 -0.7478 -0.0942
  388MOL0     C51143   7.761  10.201   1.576 -0.0034 -0.2463  0.5422
  388MOL0     C51144   7.905  10.220   1.540 -0.5525 -0.3789  0.8365
  388MOL0     C51145   7.921  10.320   1.438 -0.8929 -0.2437  0.9057
  388MOL0     C51146   8.067  10.345   1.403 -0.5771  0.6636 -0.3996
  388MOL0     C51147   8.093  10.371   1.261  0.1833  0.6366  1.3185
  388MOL0     C51148   8.122  10.398   1.145  0.6675  0.2063  0.3307
  388MOL0     C51149   7.492  10.073   1.364 -0.7019  0.0845  0.9747
  388MOL0     C51150   7.362  10.033   1.366  0.5314 -0.2822  0.0083
  388MOL0     H51151   6.910   9.829   1.569  1.1300  0.4208  0.0826
  388MOL0     H51152   6.730   9.673   1.520  0.2722 -1.4117 -0.8625
  388MOL0     H51153   6.481   9.726   1.394  3.3090  0.3933  5.7989
  388MOL0     H51154   6.525   9.578   1.469  0.1843  0.1388  0.1696
  388MOL0     H51155   6.406   9.463   1.277  2.0817 -0.5197  2.0018
  388MOL0     H51156   6.392   9.622   1.208 -0.5151 -0.0354 -0.5520
  388MOL0     H51157   6.194   9.660   1.350 -2.0976 -0.5922  0.9449
  388MOL0     H51158   6.282   9.613   1.484  0.8748  3.5899 -0.9951
  388MOL0     H51159   6.173   9.414   1.274 -1.6492  1.9946 -0.7153
  388MOL0     H51160   6.222   9.376   1.441 -3.2914 -0.4816  1.1259
  388MOL0     H51161   5.974   9.557   1.387  0.3953  0.1609 -0.3499
  388MOL0     H51162   6.026   9.475   1.534  0.4876  0.7292  0.3654
  388MOL0     H51163   5.989   9.251   1.428 -0.1989 -0.3576 -0.3470
  388MOL0     H51164   5.954   9.329   1.272 -0.9306 -1.4952 -0.2476
  388MOL0     H51165   5.760   9.446   1.426  4.1683  0.8080  0.3414
  388MOL0     H51166   5.739   9.305   1.316  2.5255 -1.3729 -0.8050
  388MOL0     H51167   5.818   9.299   1.609  1.3726 -1.2348 -0.0367
  388MOL0     H51168   5.765   9.149   1.514  2.3621 -0.1902 -0.0346
  388MOL0     H51169   5.622   9.409   1.743  2.9730 -1.4111 -0.7277
  388MOL0     H51170   5.386   9.500   1.787 -1.1506 -0.2438 -1.2316
  388MOL0     H51171   5.402   9.353   1.882 -1.7877 -0.2035  0.4495
  388MOL0     H51172   5.169   9.406   1.683 -3.4561 -2.5238  0.6025
  388MOL0     H51173   5.166   9.456   1.850  0.0631 -0.4780  1.2826
  388MOL0     H51174   5.255   9.164   1.824  0.1922  0.2408  2.8255
  388MOL0     H51175   5.157   9.243   1.938  1.1773  4.7836  0.3482
  388MOL0     H51176   5.012   9.104   1.797 -0.3929  0.2876  0.8140
  388MOL0     H51177   5.067   9.174   1.649  1.2111  1.6269  0.2225
  388MOL0     H51178   4.830   9.060   1.720  1.4471  1.2308  0.3910
  388MOL0     H51179   4.585   9.041   1.690 -3.1014 -0.2500  3.8264
  388MOL0     H51180   4.165   9.097   1.827  0.3312 -1.1445 -0.3355
  388MOL0     H51181   3.931   9.023   1.779 -1.2682  0.1008 -1.8157
  388MOL0     H51182   3.753   8.890   1.367 -0.6458  0.3854 -1.0897
  388MOL0     H51183   3.791   9.064   1.348  0.1691 -1.0554 -1.9229
  388MOL0     H51184   3.561   9.075   1.354  1.1508  1.4831  0.0298
  388MOL0     H51185   3.615   9.102   1.526  0.4822 -2.1351  1.5596
  388MOL0     H51186   3.544   8.888   1.601  2.5786 -1.6526 -0.5504
  388MOL0     H51187   3.574   8.823   1.452 -1.5064 -0.8487 -0.5076
  388MOL0     H51188   3.328   9.005   1.509 -1.9337 -0.3034 -1.4783
  388MOL0     H51189   3.350   8.934   1.357 -0.9078  1.1729  0.4803
  388MOL0     H51190   3.351   8.720   1.570 -0.8123 -2.1530 -2.0670
  388MOL0     H51191   3.307   8.733   1.403  0.1118  0.4058  0.0375
  388MOL0     H51192   3.097   8.716   1.517  2.5614 -1.1710 -1.4926
  388MOL0     H51193   3.113   8.880   1.458 -0.7212  0.0494  0.4050
  388MOL0     H51194   3.176   8.793   1.743 -0.0595  1.3824  2.5045
  388MOL0     H51195   3.186   8.960   1.674  3.4557 -1.6042 -0.3955
  388MOL0     H51196   2.964   8.920   1.803 -1.4060  0.1966 -0.3996
  388MOL0     H51197   2.933   8.786   1.687 -3.6932  0.7194  1.1770
  388MOL0     H51198   4.015   9.017   1.354 -1.3855  0.0517 -0.1500
  388MOL0     H51199   4.252   9.067   1.409 -0.7388 -1.9191 -0.1551
  388MOL0     H51200   4.526   9.440   1.814 -0.5654 -0.5503 -0.8150
  388MOL0     H51201   4.752   9.477   1.808 -2.0159  0.2636  0.4750
  388MOL0     H51202   6.803   9.722   1.103  2.4699 -0.7183 -1.3472
  388MOL0     H51203   6.979   9.870   1.139 -1.2250  1.1563  0.2794
  388MOL0     H51204   7.288  10.071   1.696 -0.0147 -1.5653  0.1270
  388MOL0     H51205   7.535  10.117   1.700 -1.8229  2.5913  1.0852
  388MOL0     H51206   7.751  10.136   1.663 -3.4062  0.6281  0.9275
  388MOL0     H51207   7.717  10.296   1.606  0.2624 -0.1747  0.7016
  388MOL0     H51208   7.960  10.246   1.631  3.9209 -1.2351 -1.3605
  388MOL0     H51209   7.942  10.125   1.501  1.0398  0.4162  0.3138
  388MOL0     H51210   7.882  10.419   1.465  2.0273  1.1819  0.3228
  388MOL0     H51211   7.871  10.284   1.348  0.0564 -0.9513  0.6433
  388MOL0     H51212   8.102  10.428   1.465 -0.3971 -2.0742  3.4997
  388MOL0     H51213   8.121  10.255   1.433 -2.1282  0.9539  3.9799
  388MOL0     H51214   8.151  10.406   1.042 -0.1818  0.7184  0.1226
  388MOL0     H51215   7.542  10.090   1.269  1.1499 -0.7256  1.7517
  388MOL0     H51216   7.315  10.003   1.273 -1.4557 -3.0264  1.7579
  389MOL0     O51217   3.962   6.708   5.214 -0.8122  0.3957  0.5385
  389MOL0     C51218   4.031   6.800   5.265 -0.3454 -0.3985 -0.4879
  389MOL0     O51219   3.980   6.925   5.296 -0.2645  0.4621 -0.2675
  389MOL0     C51220   3.855   6.949   5.239 -0.7062 -0.3022 -1.1594
  389MOL0     C51221   3.739   6.963   5.328  0.2910 -0.0929  1.3531
  389MOL0     C51222   3.619   6.988   5.268  0.4414  0.0645  0.8329
  389MOL0     C51223   3.609   7.012   5.128 -0.8754 -0.6101 -1.0433
  389MOL0     O51224   3.480   7.034   5.091  0.1659  0.3290  0.5779
  389MOL0     C51225   3.449   7.015   4.951 -0.2458  0.4951  0.5899
  389MOL0     C51226   3.303   7.043   4.930 -0.1518  0.4089 -0.7256
  389MOL0     C51227   3.281   7.012   4.782  0.0457 -0.6872  0.6240
  389MOL0     C51228   3.136   7.021   4.730  0.5427 -0.0355 -0.2975
  389MOL0     C51229   3.112   6.951   4.593  0.9000  0.6281 -0.2646
  389MOL0     C51230   2.961   6.945   4.552 -0.1057  0.3978  0.3354
  389MOL0     C51231   2.875   7.065   4.578  0.2705 -0.6204 -0.7215
  389MOL0     C51232   2.740   7.037   4.513 -0.7504  0.3806 -0.1408
  389MOL0     N51233   2.660   6.928   4.591  0.0302 -0.3313 -0.2440
  389MOL0     C51234   2.600   6.954   4.713  0.1915  0.1815 -0.2126
  389MOL0     C51235   2.529   6.843   4.737 -0.6985 -0.3700 -0.2431
  389MOL0     C51236   2.441   6.831   4.860 -0.2632  0.6616  0.2316
  389MOL0     C51237   2.304   6.883   4.817 -0.0416 -0.2286  0.3198
  389MOL0     C51238   2.189   6.866   4.918 -0.0358 -0.2416 -0.9039
  389MOL0     C51239   2.044   6.906   4.888  0.6885  0.8613  0.2464
  389MOL0     O51240   1.970   6.804   4.818 -0.2640 -1.0224  0.3102
  389MOL0     C51241   1.836   6.820   4.791  0.6936  0.1926 -0.4472
  389MOL0     C51242   1.766   6.723   4.724 -0.1608 -0.4481  0.1644
  389MOL0     C51243   1.633   6.739   4.686 -0.5456 -0.2678 -0.6317
  389MOL0     C51244   1.557   6.850   4.734 -0.1555 -0.0777 -0.3186
  389MOL0     C51245   1.414   6.850   4.716  0.7320  0.4911  0.1825
  389MOL0     O51246   1.368   6.785   4.608 -0.8625  0.3266  0.3645
  389MOL0     C51247   1.229   6.776   4.596 -0.2599  1.0019 -0.1029
  389MOL0     C51248   1.170   6.832   4.485 -0.3914 -0.0660  0.5751
  389MOL0     C51249   1.035   6.822   4.468  0.1108 -1.0529 -0.1148
  389MOL0     C51250   0.948   6.778   4.568  0.1739  0.4896 -0.5762
  389MOL0     O51251   0.806   6.781   4.560  0.1920  0.9834 -0.4224
  389MOL0     C51252   0.760   6.904   4.501  0.3930 -0.2529  0.1071
  389MOL0     C51253   0.613   6.916   4.538  0.8475  1.0988 -0.1752
  389MOL0     C51254   0.561   7.051   4.531 -0.1726 -0.1951  0.3029
  389MOL0     C51255   0.409   7.059   4.497  0.1220  0.3540  1.0080
  389MOL0     C51256   0.355   7.207   4.537  0.0949  0.6159 -0.3104
  389MOL0     C51257   0.207   7.233   4.524 -0.1964  0.9484  0.2651
  389MOL0     C51258   0.179   7.267   4.375  0.2457 -0.9516  0.0388
  389MOL0     C51259   0.039   7.320   4.351  0.9093 -0.5161 -0.0666
  389MOL0    Cl51260   0.006   7.474   4.448 -0.1013 -0.2392  0.0524
  389MOL0     C51261   1.012   6.708   4.671 -0.4760  0.0740 -0.2724
  389MOL0     C51262   1.147   6.705   4.692  1.3993 -0.6151 -0.2988
  389MOL0     O51263   1.340   6.891   4.807 -0.8616  0.0847 -0.0341
  389MOL0     C51264   1.621   6.943   4.811 -0.1309 -0.2930 -0.4407
  389MOL0     C51265   1.759   6.931   4.829  0.2424  0.6764 -0.4498
  389MOL0     N51266   2.559   6.743   4.649  0.5252  0.0049  0.3403
  389MOL0     N51267   2.638   6.793   4.563  0.1327  0.5747 -0.1002
  389MOL0     C51268   3.721   6.995   5.050 -0.9099 -0.0349 -0.0490
  389MOL0     C51269   3.846   6.963   5.108 -0.3794  0.7187  0.4532
  389MOL0     C51270   4.168   6.774   5.308 -0.8862  0.0878  0.1168
  389MOL0     C51271   4.251   6.874   5.356  0.1561 -1.0712  0.0372
  389MOL0     C51272   4.382   6.850   5.387 -0.3636  0.4560 -0.0153
  389MOL0     C51273   4.443   6.728   5.361 -0.9531 -0.5384  0.8339
  389MOL0     O51274   4.571   6.706   5.398  0.5238  0.8086 -0.8671
  389MOL0     C51275   4.576   6.667   5.536 -0.1794 -0.1325  1.3629
  389MOL0     C51276   4.693   6.567   5.552 -0.0633  0.7989 -0.2488
  389MOL0     C51277   4.833   6.626   5.542 -0.4025 -0.3843  0.0555
  389MOL0     C51278   4.885   6.683   5.670 -0.1171 -0.0024  0.2245
  389MOL0     C51279   5.037   6.718   5.658 -0.0102  0.5178  1.1807
  389MOL0     C51280   5.156   6.741   5.659 -0.3621  0.7647  0.0384
  389MOL0     C51281   4.364   6.625   5.311 -0.4740 -0.0218 -0.2187
  389MOL0     C51282   4.222   6.647   5.286 -0.1043  0.1140  0.5067
  389MOL0     H51283   3.747   6.952   5.436  0.6230 -1.3864  1.2063
  389MOL0     H51284   3.525   6.985   5.322 -0.4778  1.0989 -0.6189
  389MOL0     H51285   3.465   6.911   4.918 -0.6909  1.2807 -2.4795
  389MOL0     H51286   3.508   7.083   4.890  1.3820 -0.6214  0.8599
  389MOL0     H51287   3.285   7.150   4.946 -2.1745 -0.0021  0.0771
  389MOL0     H51288   3.244   6.990   5.006 -1.3871  1.4477 -0.9147
  389MOL0     H51289   3.321   6.911   4.767 -0.1144 -1.0862  2.6507
  389MOL0     H51290   3.348   7.073   4.721 -0.0784 -0.8162  0.3534
  389MOL0     H51291   3.069   6.975   4.803  0.3984  0.5546 -0.0570
  389MOL0     H51292   3.093   7.121   4.730 -3.8956 -1.7288 -1.8541
  389MOL0     H51293   3.157   6.851   4.591 -2.3793 -0.9636 -0.8040
  389MOL0     H51294   3.166   7.020   4.527 -3.1664  1.3402 -3.2229
  389MOL0     H51295   2.911   6.858   4.595 -3.6374  1.3064 -1.4839
  389MOL0     H51296   2.960   6.932   4.443 -0.2124  2.1788  0.0883
  389MOL0     H51297   2.865   7.071   4.686 -1.3759 -2.3508 -0.7314
  389MOL0     H51298   2.913   7.159   4.536  2.4680 -1.7087 -1.3442
  389MOL0     H51299   2.755   7.004   4.409 -1.2319  0.8794 -0.3748
  389MOL0     H51300   2.677   7.125   4.505 -1.3040 -0.0723 -0.9611
  389MOL0     H51301   2.594   7.053   4.758  1.5676 -0.1538  0.7950
  389MOL0     H51302   2.476   6.907   4.930 -1.6908  2.4927 -0.9318
  389MOL0     H51303   2.432   6.728   4.895 -1.1628 -0.8967 -3.9693
  389MOL0     H51304   2.279   6.820   4.731  0.9563  1.8811 -1.6186
  389MOL0     H51305   2.307   6.981   4.769  1.1335 -1.5872 -2.5847
  389MOL0     H51306   2.185   6.762   4.951  2.4970 -0.9968 -2.6438
  389MOL0     H51307   2.232   6.923   5.001 -2.3364  0.3486 -0.0401
  389MOL0     H51308   2.046   7.000   4.831  2.2632  3.1109  3.6560
  389MOL0     H51309   1.989   6.923   4.981  1.3753 -2.1797  1.3353
  389MOL0     H51310   1.818   6.630   4.704  0.3763  0.2686 -2.0875
  389MOL0     H51311   1.589   6.660   4.626 -1.3920 -0.8320  0.6701
  389MOL0     H51312   1.224   6.884   4.407 -2.2453  2.0639  0.6176
  389MOL0     H51313   1.005   6.863   4.372  1.8921 -2.1307 -1.1961
  389MOL0     H51314   0.770   6.896   4.392 -1.1375  0.5142 -0.1132
  389MOL0     H51315   0.809   6.991   4.545 -0.7697  0.7478 -0.5031
  389MOL0     H51316   0.591   6.875   4.637 -1.0559  0.6808 -0.7238
  389MOL0     H51317   0.561   6.843   4.475 -0.2694  0.2769  1.6236
  389MOL0     H51318   0.612   7.103   4.449  1.0784  1.4495  2.0455
  389MOL0     H51319   0.584   7.109   4.620 -0.8880  1.1526 -0.3593
  389MOL0     H51320   0.392   7.021   4.396 -3.1989  1.6355  0.9251
  389MOL0     H51321   0.352   6.989   4.559 -2.5298  2.2527  0.9228
  389MOL0     H51322   0.407   7.269   4.463  1.8529 -0.7501 -0.2858
  389MOL0     H51323   0.382   7.235   4.639 -0.7857 -2.3989  0.8450
  389MOL0     H51324   0.174   7.306   4.598 -0.9603  0.5991  0.2753
  389MOL0     H51325   0.164   7.136   4.551 -1.2373  0.8220 -1.7007
  389MOL0     H51326   0.246   7.352   4.359 -1.2943  1.1947  3.5544
  389MOL0     H51327   0.201   7.180   4.313  4.5785 -0.2679  0.3503
  389MOL0     H51328  -0.042   7.247   4.360  0.2209 -0.1180 -2.3486
  389MOL0     H51329   0.016   7.340   4.245 -2.9644 -0.6130  0.6029
  389MOL0     H51330   0.938   6.663   4.735 -0.4795 -3.3469 -2.4435
  389MOL0     H51331   1.180   6.646   4.777  1.1891 -0.5860 -0.1960
  389MOL0     H51332   1.568   7.035   4.834 -1.2850 -0.8861 -0.6327
  389MOL0     H51333   1.800   7.019   4.879 -0.8901  1.1409 -0.3079
  389MOL0     H51334   3.712   6.992   4.942  2.9741 -1.5575 -0.4869
  389MOL0     H51335   3.932   6.955   5.042 -1.4716 -2.2980 -0.7714
  389MOL0     H51336   4.214   6.975   5.368  1.7480 -0.1705 -2.0852
  389MOL0     H51337   4.444   6.920   5.441 -1.5936  0.8250  0.9647
  389MOL0     H51338   4.481   6.626   5.570 -1.8103  0.4155 -2.1353
  389MOL0     H51339   4.605   6.759   5.589 -0.8037  0.5917  0.4803
  389MOL0     H51340   4.674   6.522   5.649  0.3040  0.0825 -0.5054
  389MOL0     H51341   4.687   6.486   5.479  0.0162  0.6147 -0.0502
  389MOL0     H51342   4.836   6.708   5.470 -1.5177 -0.4449 -0.0770
  389MOL0     H51343   4.902   6.551   5.504 -2.0844 -1.2119 -1.4845
  389MOL0     H51344   4.829   6.776   5.686  0.7165  0.4790  0.4057
  389MOL0     H51345   4.871   6.615   5.754  3.0599 -1.1767 -0.0659
  389MOL0     H51346   5.262   6.753   5.663 -0.2693 -0.0011  0.0436
  389MOL0     H51347   4.409   6.528   5.294 -1.4684 -1.1657  2.9821
  389MOL0     H51348   4.171   6.566   5.235  0.1227 -0.4832  1.2148
  390MOL0     O51349   6.452  10.034   4.707  0.1731 -0.4193  0.4934
  390MOL0     C51350   6.424   9.942   4.788  0.0307 -0.2516  1.0174
  390MOL0     O51351   6.509   9.906   4.886  0.0963  0.7526  0.0170
  390MOL0     C51352   6.633   9.958   4.897 -0.0922  0.4206  0.9644
  390MOL0     C51353   6.732   9.932   4.808  0.0977  0.2884 -0.0039
  390MOL0     C51354   6.863   9.988   4.825 -0.1119 -0.5133 -0.1587
  390MOL0     C51355   6.902  10.059   4.942 -0.0594 -0.6288 -0.6726
  390MOL0     O51356   7.025  10.109   4.961  0.6015 -0.8244 -0.3055
  390MOL0     C51357   7.136  10.039   4.911  0.0393 -0.3796 -0.7089
  390MOL0     C51358   7.152   9.921   5.004 -0.1879 -0.4043 -0.3483
  390MOL0     C51359   7.183   9.950   5.151  0.0321  1.0346 -0.4684
  390MOL0     C51360   7.126   9.839   5.248 -0.5837 -0.0936  0.9184
  390MOL0     C51361   6.973   9.847   5.260  0.5848  0.5990  0.3261
  390MOL0     C51362   6.924   9.761   5.386  0.2168 -0.0162 -0.1511
  390MOL0     C51363   6.777   9.778   5.416  0.6338 -0.3610 -0.3214
  390MOL0     C51364   6.675   9.754   5.301 -1.0822  0.2230 -0.5498
  390MOL0     N51365   6.537   9.771   5.344  0.2607 -0.9352  0.2850
  390MOL0     C51366   6.474   9.704   5.443  1.0254 -0.2529 -0.4998
  390MOL0     C51367   6.345   9.744   5.433 -0.8007  0.0975 -0.6608
  390MOL0     C51368   6.235   9.708   5.527 -0.5103  0.5559  0.6783
  390MOL0     C51369   6.167   9.826   5.594 -0.2089  0.3779  0.3899
  390MOL0     C51370   6.065   9.786   5.700 -0.5398 -0.1847  0.6501
  390MOL0     C51371   5.980   9.900   5.755  0.5335 -0.5881  0.2001
  390MOL0     O51372   5.907   9.852   5.874 -0.0377  0.4163  0.1460
  390MOL0     C51373   5.773   9.850   5.866  0.5202  0.0446  0.2425
  390MOL0     C51374   5.694   9.845   5.744  0.1268  0.7869 -0.2970
  390MOL0     C51375   5.552   9.815   5.749  0.4573  0.5330 -0.1001
  390MOL0     C51376   5.495   9.803   5.878 -0.4757  0.4184  0.2827
  390MOL0     C51377   5.353   9.765   5.889 -0.6925 -0.6658 -0.6423
  390MOL0     O51378   5.310   9.735   6.016  0.1169  0.3817 -0.0934
  390MOL0     C51379   5.188   9.677   6.050  0.3920 -0.5890  0.1989
  390MOL0     C51380   5.175   9.557   6.129 -1.1652 -1.6772 -0.1301
  390MOL0     C51381   5.053   9.521   6.175 -0.3043 -0.2407  0.1896
  390MOL0     C51382   4.945   9.593   6.144  0.9065  0.0724  0.5161
  390MOL0     O51383   4.817   9.579   6.195 -0.1430  0.4733  0.1464
  390MOL0     C51384   4.798   9.490   6.302  0.3181  0.0827  0.2692
  390MOL0     C51385   4.662   9.488   6.366 -0.2798 -0.2908 -0.0686
  390MOL0     C51386   4.659   9.406   6.501  0.0690 -0.1725 -0.2638
  390MOL0     C51387   4.532   9.425   6.577 -0.1963 -0.3183  0.4493
  390MOL0     C51388   4.559   9.368   6.717 -0.9247 -0.6874 -0.2470
  390MOL0     C51389   4.433   9.344   6.805 -0.4372 -0.3500 -0.2342
  390MOL0     C51390   4.323   9.447   6.789 -0.2524  0.0441 -1.4968
  390MOL0     C51391   4.217   9.428   6.903 -0.0338  0.3408 -0.3545
  390MOL0    Cl51392   4.116   9.283   6.884  0.2774  0.2828  0.2156
  390MOL0     C51393   4.947   9.705   6.059  0.4133 -0.5076  1.0961
  390MOL0     C51394   5.069   9.747   6.010  0.0449 -0.1207  0.2699
  390MOL0     O51395   5.280   9.765   5.784 -0.0552 -0.1515 -0.3757
  390MOL0     C51396   5.574   9.821   5.993  0.6166  0.7340 -0.1775
  390MOL0     C51397   5.705   9.846   5.983 -0.2193  0.3151  0.1976
  390MOL0     N51398   6.334   9.840   5.336  0.7697 -0.0037 -0.1766
  390MOL0     N51399   6.452   9.862   5.284  0.0575  0.2854  0.3466
  390MOL0     C51400   6.798  10.081   5.033 -0.5562  0.4616 -0.3289
  390MOL0     C51401   6.671  10.035   5.010  1.0316  0.1525  0.0551
  390MOL0     C51402   6.290   9.881   4.777  0.1070 -0.0139 -0.2836
  390MOL0     C51403   6.203   9.897   4.670  0.3757  0.7935 -0.0209
  390MOL0     C51404   6.078   9.837   4.660  0.8016  0.1580  0.1975
  390MOL0     C51405   6.023   9.768   4.773 -0.7391  0.3576 -0.0860
  390MOL0     O51406   5.889   9.731   4.765 -0.3805  0.0813 -0.0851
  390MOL0     C51407   5.844   9.664   4.883  0.4611 -0.3081 -0.1378
  390MOL0     C51408   5.703   9.598   4.874 -0.1345  0.5970 -0.2419
  390MOL0     C51409   5.708   9.465   4.792 -0.3195 -0.1341 -0.7787
  390MOL0     C51410   5.581   9.381   4.781 -0.0278  0.0682 -0.4193
  390MOL0     C51411   5.481   9.445   4.700  0.0503 -0.1011 -0.5207
  390MOL0     C51412   5.399   9.496   4.627  0.1414 -0.5676  0.6300
  390MOL0     C51413   6.105   9.757   4.891 -0.0240  0.4344 -0.2602
  390MOL0     C51414   6.232   9.802   4.891  0.2744 -0.7238 -0.0858
  390MOL0     H51415   6.706   9.868   4.724  0.1338  0.0945  0.1355
  390MOL0     H51416   6.934   9.971   4.744 -2.8938 -1.5556 -2.5625
  390MOL0     H51417   7.219  10.109   4.915  0.9979 -1.3886 -1.9098
  390MOL0     H51418   7.122  10.017   4.804  1.9059  1.1903 -1.3264
  390MOL0     H51419   7.240   9.864   4.972  0.8542 -0.7334  2.7742
  390MOL0     H51420   7.066   9.853   4.999  1.0995 -2.1498  0.3396
  390MOL0     H51421   7.135  10.043   5.183  1.2244  1.4864  0.0706
  390MOL0     H51422   7.289   9.962   5.171 -0.1063 -0.8495  1.7213
  390MOL0     H51423   7.159   9.743   5.207  1.3804  1.0181 -0.1898
  390MOL0     H51424   7.174   9.858   5.345  1.0347  1.2206 -0.1055
  390MOL0     H51425   6.929   9.815   5.166  1.9391 -2.0453  0.5158
  390MOL0     H51426   6.945   9.953   5.268 -0.5822  0.3700 -0.5130
  390MOL0     H51427   6.990   9.796   5.466  1.2985  0.8486 -1.3848
  390MOL0     H51428   6.946   9.656   5.368  1.2468  0.1495  0.0750
  390MOL0     H51429   6.754   9.700   5.489 -2.6170  0.8823  0.1664
  390MOL0     H51430   6.758   9.873   5.465  0.8442 -0.8671  0.7725
  390MOL0     H51431   6.681   9.649   5.271 -2.3431 -0.3878  1.1571
  390MOL0     H51432   6.695   9.817   5.214 -0.0706 -0.3934 -0.7768
  390MOL0     H51433   6.503   9.627   5.514  0.1567  0.8409  1.1065
  390MOL0     H51434   6.286   9.655   5.608  1.4986  0.5755 -0.5058
  390MOL0     H51435   6.169   9.635   5.480  3.2539 -2.1310 -0.9377
  390MOL0     H51436   6.121   9.899   5.526  0.9024  0.3901 -0.3670
  390MOL0     H51437   6.237   9.886   5.652  0.5472 -0.4626  0.3575
  390MOL0     H51438   5.991   9.717   5.657 -0.4491 -0.2810  0.6470
  390MOL0     H51439   6.113   9.734   5.783 -0.4654 -0.9270  0.1567
  390MOL0     H51440   5.920   9.934   5.669 -0.6140 -2.3788  0.2331
  390MOL0     H51441   6.040   9.983   5.794 -0.6457 -1.1268  3.4632
  390MOL0     H51442   5.721   9.865   5.641 -3.9660  0.3008 -1.6377
  390MOL0     H51443   5.488   9.813   5.662  0.2637  1.6292  0.0064
  390MOL0     H51444   5.266   9.506   6.158  1.0889  1.7425 -0.6265
  390MOL0     H51445   5.047   9.440   6.246 -0.6070 -1.8707 -1.6260
  390MOL0     H51446   4.865   9.526   6.381  2.4363 -0.8005 -1.0405
  390MOL0     H51447   4.826   9.390   6.270  2.2633  1.3998 -2.5788
  390MOL0     H51448   4.577   9.453   6.307 -1.3748 -1.5569  2.1351
  390MOL0     H51449   4.637   9.588   6.404 -0.2669  0.7717 -2.6372
  390MOL0     H51450   4.742   9.446   6.561 -0.9107 -0.2719  1.1878
  390MOL0     H51451   4.671   9.301   6.475  1.1625  0.2551 -1.6522
  390MOL0     H51452   4.496   9.528   6.576  2.3793  0.6482  0.3394
  390MOL0     H51453   4.461   9.355   6.531  1.3938 -0.4700 -1.9011
  390MOL0     H51454   4.625   9.432   6.776 -0.5779 -0.9811 -0.3079
  390MOL0     H51455   4.609   9.271   6.708  0.6521 -0.0632  1.2983
  390MOL0     H51456   4.469   9.342   6.909  0.3589 -1.7238 -0.5076
  390MOL0     H51457   4.390   9.247   6.782 -0.0421 -1.3789  2.8982
  390MOL0     H51458   4.360   9.550   6.796 -0.9289  0.2250 -0.4087
  390MOL0     H51459   4.288   9.458   6.685  2.1741  2.3274 -2.1671
  390MOL0     H51460   4.150   9.513   6.922 -1.5726 -1.0814  0.9310
  390MOL0     H51461   4.274   9.409   6.994 -0.5020 -2.0842 -0.5058
  390MOL0     H51462   4.853   9.750   6.030 -0.6187 -3.3460 -0.4356
  390MOL0     H51463   5.076   9.834   5.945 -0.8601 -1.1635 -1.2863
  390MOL0     H51464   5.530   9.826   6.093 -1.4703  0.0451 -1.0095
  390MOL0     H51465   5.779   9.850   6.062  0.9471 -1.5564 -0.7239
  390MOL0     H51466   6.817  10.151   5.114  0.3275 -0.2169  0.0748
  390MOL0     H51467   6.588  10.049   5.079  0.7871  0.7018 -0.3352
  390MOL0     H51468   6.241   9.949   4.582  3.3443 -1.0181  0.0576
  390MOL0     H51469   6.011   9.856   4.577 -0.0724  3.3709  1.5125
  390MOL0     H51470   5.849   9.734   4.967 -1.0615 -1.0077  0.5646
  390MOL0     H51471   5.900   9.577   4.917  0.3813 -0.3636 -0.1462
  390MOL0     H51472   5.661   9.582   4.974  0.6103  0.6417  0.0815
  390MOL0     H51473   5.636   9.665   4.820  1.2669  1.1405 -1.3728
  390MOL0     H51474   5.788   9.407   4.837 -0.7737  0.1877  0.4763
  390MOL0     H51475   5.729   9.504   4.692 -2.2425 -0.6093 -1.4223
  390MOL0     H51476   5.614   9.288   4.734  2.9664  2.5188 -3.6939
  390MOL0     H51477   5.535   9.363   4.879 -0.8708  2.0978 -0.3798
  390MOL0     H51478   5.332   9.552   4.565 -0.8764  0.8994  2.9465
  390MOL0     H51479   6.071   9.697   4.975 -2.2865 -0.8605 -1.9898
  390MOL0     H51480   6.294   9.786   4.979 -0.9607 -0.4654  0.8665
  391MOL0     O51481  10.332   3.520   0.364 -1.0915  0.4713  0.1437
  391MOL0     C51482  10.398   3.614   0.412  0.0251 -0.2796 -0.6117
  391MOL0     O51483  10.352   3.708   0.496  0.3604 -0.2692 -0.1730
  391MOL0     C51484  10.223   3.696   0.552 -0.5603  0.3752 -0.0371
  391MOL0     C51485  10.207   3.740   0.682 -0.5152  0.9350  1.0328
  391MOL0     C51486  10.077   3.738   0.734  0.0069  1.0831 -0.0094
  391MOL0     C51487   9.966   3.680   0.663 -0.3743  0.3058 -0.7145
  391MOL0     O51488   9.845   3.673   0.726  1.0215  0.2125 -0.6171
  391MOL0     C51489   9.804   3.810   0.752 -0.2779  0.4019 -0.8444
  391MOL0     C51490   9.663   3.815   0.801  0.0314  1.0658  0.6196
  391MOL0     C51491   9.661   3.777   0.953 -0.7347 -0.5744 -0.4802
  391MOL0     C51492   9.656   3.903   1.044 -0.5217 -0.0821 -0.5550
  391MOL0     C51493   9.682   3.858   1.192 -0.1009 -0.4824  0.1243
  391MOL0     C51494   9.658   3.980   1.284 -0.0904  0.1520 -0.4596
  391MOL0     C51495   9.616   3.922   1.416  1.2465 -0.6460  0.2248
  391MOL0     C51496   9.612   4.037   1.524 -0.3861  0.1116 -0.4928
  391MOL0     N51497   9.746   4.043   1.582  0.0182 -0.3515  0.5051
  391MOL0     C51498   9.793   3.954   1.674 -0.1386  0.2248 -0.3665
  391MOL0     C51499   9.906   4.008   1.716  0.0683 -0.0500 -0.8660
  391MOL0     C51500  10.001   3.940   1.826  0.0480  0.6732 -0.2823
  391MOL0     C51501   9.990   4.006   1.967 -0.3190 -0.2624  0.2802
  391MOL0     C51502   9.864   3.972   2.052  0.6785 -0.2938  0.3362
  391MOL0     C51503   9.861   4.023   2.195  0.4441 -0.0139  0.0549
  391MOL0     O51504   9.761   3.952   2.272 -0.5410 -0.7374  0.1273
  391MOL0     C51505   9.632   3.963   2.231 -0.4875 -0.1151 -0.1794
  391MOL0     C51506   9.550   3.858   2.279 -0.6421 -0.1631 -0.9495
  391MOL0     C51507   9.412   3.861   2.269  0.2055 -0.0929  0.1430
  391MOL0     C51508   9.345   3.970   2.213 -0.1497 -0.0186 -1.3483
  391MOL0     C51509   9.197   3.985   2.206 -0.3807 -0.0952  0.0611
  391MOL0     O51510   9.123   3.869   2.195 -0.6523 -0.6977  0.3395
  391MOL0     C51511   8.985   3.843   2.189  0.0792 -0.4123  0.8142
  391MOL0     C51512   8.892   3.935   2.142  0.3691 -1.0948 -0.3517
  391MOL0     C51513   8.757   3.904   2.153 -1.1280  0.2683  0.0822
  391MOL0     C51514   8.711   3.775   2.197 -0.4969 -0.0183 -0.2660
  391MOL0     O51515   8.584   3.736   2.206 -0.5258 -0.2371 -0.3248
  391MOL0     C51516   8.486   3.788   2.115 -0.7361 -0.3573  0.0697
  391MOL0     C51517   8.367   3.694   2.137  0.1761  0.2081  0.4541
  391MOL0     C51518   8.268   3.720   2.023 -0.1732  0.1135  0.1781
  391MOL0     C51519   8.127   3.674   2.059  0.0613  0.1398 -0.2935
  391MOL0     C51520   8.029   3.676   1.943 -0.2499  0.4763 -0.2463
  391MOL0     C51521   7.889   3.653   2.000  0.1188 -0.0181  0.0127
  391MOL0     C51522   7.795   3.611   1.884 -0.3140  0.1676 -0.1267
  391MOL0     C51523   7.655   3.639   1.935 -0.0930 -0.3025  0.0633
  391MOL0    Cl51524   7.602   3.783   1.848 -0.1645 -0.2628 -0.0335
  391MOL0     C51525   8.808   3.687   2.239 -0.3153  0.2690 -0.4292
  391MOL0     C51526   8.944   3.724   2.241  0.5533 -0.9141  0.5765
  391MOL0     O51527   9.151   4.098   2.194  1.2041 -0.2449  0.3710
  391MOL0     C51528   9.426   4.078   2.167  0.0227  0.0398  0.5124
  391MOL0     C51529   9.572   4.071   2.163  0.8055  0.3977 -0.3348
  391MOL0     N51530   9.935   4.129   1.658 -0.3136  0.1688  0.4459
  391MOL0     N51531   9.840   4.152   1.577  0.2213 -0.3740 -0.2191
  391MOL0     C51532   9.982   3.636   0.535 -0.8683  0.0168 -0.4863
  391MOL0     C51533  10.105   3.658   0.478 -0.1907 -0.0485  0.1381
  391MOL0     C51534  10.543   3.607   0.404  0.2988  0.2511 -0.3375
  391MOL0     C51535  10.602   3.485   0.389  0.3148 -0.4865 -0.4359
  391MOL0     C51536  10.742   3.477   0.384 -0.2862  0.5871 -0.7918
  391MOL0     C51537  10.825   3.597   0.377  0.5931 -0.2413  0.3626
  391MOL0     O51538  10.961   3.604   0.372 -0.8793 -0.3653 -0.0852
  391MOL0     C51539  11.034   3.477   0.383 -0.0054 -0.1589 -0.3118
  391MOL0     C51540  11.187   3.506   0.366 -0.0071  1.1583 -0.3512
  391MOL0     C51541  11.218   3.584   0.231  0.3597  0.2276 -0.5197
  391MOL0     C51542  11.364   3.617   0.218 -0.1774  0.1768 -0.3016
  391MOL0     C51543  11.399   3.676   0.088 -0.3427  0.1571 -0.0227
  391MOL0     C51544  11.416   3.710  -0.033  0.6893 -0.8764 -0.0516
  391MOL0     C51545  10.764   3.722   0.408  0.2434  0.1108  0.0991
  391MOL0     C51546  10.623   3.727   0.415 -0.1354 -1.1026 -0.8921
  391MOL0     H51547  10.295   3.762   0.741 -1.2489  2.0834  1.7436
  391MOL0     H51548  10.074   3.778   0.835  2.5962  0.9432  0.1909
  391MOL0     H51549   9.819   3.869   0.661  2.3195  0.3722 -0.5158
  391MOL0     H51550   9.870   3.856   0.826  0.7997 -0.1403 -1.4385
  391MOL0     H51551   9.607   3.746   0.738  2.0365  0.4047 -0.5241
  391MOL0     H51552   9.615   3.911   0.781 -3.7015 -0.7816 -0.1471
  391MOL0     H51553   9.735   3.707   0.992  0.4249  0.9964  0.2693
  391MOL0     H51554   9.567   3.732   0.986  0.2957 -1.8450  0.8407
  391MOL0     H51555   9.724   3.984   1.018 -0.6381  0.6464  1.2485
  391MOL0     H51556   9.561   3.956   1.030 -0.3441  0.3776 -0.0277
  391MOL0     H51557   9.784   3.821   1.201  0.1511  0.5607  2.2922
  391MOL0     H51558   9.600   3.789   1.210 -2.4229  1.3202 -2.5342
  391MOL0     H51559   9.584   4.047   1.239  2.0013  3.1550  0.3080
  391MOL0     H51560   9.755   4.026   1.305  1.5863 -1.5375 -3.8292
  391MOL0     H51561   9.519   3.873   1.406  0.0172  1.9397 -1.6805
  391MOL0     H51562   9.689   3.846   1.445 -1.3841 -2.8687  1.4900
  391MOL0     H51563   9.544   4.014   1.607 -0.0574  0.3858 -0.1431
  391MOL0     H51564   9.587   4.133   1.479 -2.8487  2.3156  4.7172
  391MOL0     H51565   9.762   3.851   1.685  4.2815 -1.2243  0.3113
  391MOL0     H51566  10.107   3.940   1.799  0.1100  1.1053 -0.0330
  391MOL0     H51567   9.981   3.832   1.829  2.3630  0.2146  0.3888
  391MOL0     H51568  10.006   4.113   1.951 -0.5364 -0.3009 -0.2195
  391MOL0     H51569  10.069   3.972   2.034 -0.6294 -0.3184  0.6197
  391MOL0     H51570   9.783   4.018   1.995  0.4845  1.0169  1.5987
  391MOL0     H51571   9.855   3.863   2.053 -0.6742 -0.2249 -1.2405
  391MOL0     H51572   9.843   4.129   2.174  1.4902  0.5837  1.9619
  391MOL0     H51573   9.958   4.019   2.245  0.4616 -0.5053 -0.0144
  391MOL0     H51574   9.597   3.774   2.329 -1.9196 -1.7715 -2.3456
  391MOL0     H51575   9.353   3.775   2.299  0.5477 -0.6058 -0.6052
  391MOL0     H51576   8.931   4.035   2.124 -0.5639 -0.5216  0.7180
  391MOL0     H51577   8.694   3.984   2.115  1.9624  2.9651  0.2749
  391MOL0     H51578   8.533   3.784   2.016  1.6586  1.7319  1.0088
  391MOL0     H51579   8.467   3.892   2.141  2.4277  0.4089 -0.2154
  391MOL0     H51580   8.325   3.736   2.229  0.8346  1.6389  0.1221
  391MOL0     H51581   8.391   3.587   2.145 -2.3496 -0.6734 -1.9527
  391MOL0     H51582   8.303   3.670   1.933 -0.5024 -1.4422  0.8651
  391MOL0     H51583   8.260   3.825   1.994  2.5306 -0.0015 -1.2696
  391MOL0     H51584   8.137   3.569   2.087 -0.4824  0.1177 -0.1650
  391MOL0     H51585   8.090   3.721   2.151 -0.0248 -0.3827 -0.0542
  391MOL0     H51586   8.044   3.585   1.884 -0.1435 -1.1357  2.1269
  391MOL0     H51587   8.039   3.765   1.880  3.0660  0.8383  0.6250
  391MOL0     H51588   7.854   3.745   2.047  0.5778 -0.5714  1.5010
  391MOL0     H51589   7.891   3.585   2.086  4.1876  0.9864  0.8909
  391MOL0     H51590   7.812   3.656   1.786  1.0032  2.1825  0.9500
  391MOL0     H51591   7.800   3.502   1.872 -3.3842  0.0551 -1.3179
  391MOL0     H51592   7.647   3.653   2.043 -3.5294  3.9528 -0.4719
  391MOL0     H51593   7.591   3.560   1.895 -0.0177  0.8525 -2.5529
  391MOL0     H51594   8.790   3.585   2.272 -1.6267  0.2062 -1.2569
  391MOL0     H51595   9.028   3.661   2.269  2.5473  1.1073 -0.4970
  391MOL0     H51596   9.368   4.164   2.134  0.1103  0.0345  0.3456
  391MOL0     H51597   9.621   4.161   2.127 -0.8251  0.6097 -2.1602
  391MOL0     H51598   9.900   3.600   0.474  1.5388  1.1019 -4.7465
  391MOL0     H51599  10.114   3.632   0.373 -0.0974  0.0272  0.1273
  391MOL0     H51600  10.543   3.394   0.386  0.3850 -0.5099 -1.8614
  391MOL0     H51601  10.784   3.380   0.359  2.1027  2.0118 -2.8592
  391MOL0     H51602  11.013   3.408   0.301 -1.3871  1.2662 -1.2196
  391MOL0     H51603  11.016   3.426   0.478  1.0258  2.8850  1.6744
  391MOL0     H51604  11.226   3.574   0.443 -0.2213  2.8378 -1.6695
  391MOL0     H51605  11.246   3.414   0.366  0.1192  1.1678  1.9108
  391MOL0     H51606  11.154   3.673   0.226 -0.2265  0.0857  2.6304
  391MOL0     H51607  11.183   3.516   0.152  1.5426  0.2831 -1.1057
  391MOL0     H51608  11.383   3.696   0.291  0.1219 -0.3699  0.2114
  391MOL0     H51609  11.430   3.536   0.248 -0.9278 -1.1578 -2.0242
  391MOL0     H51610  11.426   3.741  -0.135  0.2455  1.4966  0.5615
  391MOL0     H51611  10.816   3.814   0.429 -1.9938  1.2600  0.9918
  391MOL0     H51612  10.584   3.826   0.434  0.5857 -1.1483  1.0175
  392MOL0     O51613   3.137   3.657   1.077 -0.5566  0.2576 -0.2521
  392MOL0     C51614   3.070   3.747   1.036 -0.1182  0.6680  0.0964
  392MOL0     O51615   2.930   3.748   1.034  0.1568 -0.2187 -0.0127
  392MOL0     C51616   2.856   3.656   1.114 -1.1093 -1.1515 -0.1171
  392MOL0     C51617   2.889   3.527   1.135 -0.0621 -0.1801  0.1027
  392MOL0     C51618   2.826   3.443   1.236  0.0459  0.7577 -0.2002
  392MOL0     C51619   2.715   3.495   1.299 -0.3115  0.5031 -0.2227
  392MOL0     O51620   2.641   3.428   1.385  0.5240  0.2050 -0.6060
  392MOL0     C51621   2.582   3.306   1.340 -0.1020  0.4800  0.1993
  392MOL0     C51622   2.485   3.261   1.458 -0.4177  0.0868  0.5542
  392MOL0     C51623   2.369   3.354   1.467  0.9000 -0.6073  0.6393
  392MOL0     C51624   2.278   3.319   1.591 -0.0903  0.3235  0.5083
  392MOL0     C51625   2.136   3.367   1.562 -0.5316  0.4913  0.1252
  392MOL0     C51626   2.050   3.341   1.692 -0.1493  0.0371 -0.0321
  392MOL0     C51627   1.910   3.385   1.653  0.3337 -0.6972  0.6869
  392MOL0     C51628   1.820   3.367   1.782  0.0884  0.0822  0.2680
  392MOL0     N51629   1.681   3.407   1.764 -0.0081 -0.1596  0.0765
  392MOL0     C51630   1.645   3.539   1.757 -0.4503  0.1137 -0.3203
  392MOL0     C51631   1.530   3.541   1.692 -0.0466 -0.2621 -0.3049
  392MOL0     C51632   1.461   3.662   1.644  0.2343  0.1641 -0.5239
  392MOL0     C51633   1.310   3.643   1.641  0.1554  0.2706  0.0248
  392MOL0     C51634   1.226   3.756   1.586  0.7000 -0.5086  1.3346
  392MOL0     C51635   1.070   3.724   1.595 -1.8061 -0.0256 -0.3049
  392MOL0     O51636   1.064   3.610   1.507  0.1626 -0.6826  0.1915
  392MOL0     C51637   0.936   3.591   1.465  0.4825  0.2353  0.4258
  392MOL0     C51638   0.908   3.483   1.378 -0.9209 -0.1305 -0.3899
  392MOL0     C51639   0.781   3.453   1.334 -0.1148  0.0297  0.2507
  392MOL0     C51640   0.669   3.520   1.384 -0.4809 -0.4792 -0.2885
  392MOL0     C51641   0.524   3.501   1.345 -0.6099  0.9231  0.7627
  392MOL0     O51642   0.430   3.592   1.387  0.5586  0.5114  0.4391
  392MOL0     C51643   0.293   3.569   1.371 -0.3727  0.2258 -0.4067
  392MOL0     C51644   0.210   3.676   1.345  0.3216  0.2758 -0.2655
  392MOL0     C51645   0.070   3.672   1.356 -0.5200 -0.4963  0.9609
  392MOL0     C51646   0.008   3.550   1.381 -0.1594  0.8205 -0.4023
  392MOL0     O51647  -0.132   3.548   1.397 -0.8139  0.5671 -0.2865
  392MOL0     C51648  -0.189   3.430   1.451  0.4083  0.7518 -0.2832
  392MOL0     C51649  -0.347   3.430   1.433 -0.4243 -0.5463  0.0523
  392MOL0     C51650  -0.407   3.566   1.490 -0.0418 -0.7470 -0.4184
  392MOL0     C51651  -0.564   3.591   1.473  0.0929  0.5378  0.2362
  392MOL0     C51652  -0.657   3.523   1.574 -1.0708 -0.6146  0.1356
  392MOL0     C51653  -0.802   3.570   1.542 -0.4435 -0.6022  0.2296
  392MOL0     C51654  -0.910   3.517   1.633  0.1593 -1.1215  0.5772
  392MOL0     C51655  -1.038   3.594   1.617 -0.7371  0.5365  0.9304
  392MOL0    Cl51656  -1.173   3.550   1.728 -0.1362 -0.3519  0.0559
  392MOL0     C51657   0.095   3.437   1.393 -0.1693 -0.5056 -0.1871
  392MOL0     C51658   0.232   3.446   1.390 -0.5931 -0.0467 -0.1876
  392MOL0     O51659   0.505   3.402   1.275 -0.7058 -0.6250 -0.0518
  392MOL0     C51660   0.696   3.617   1.481 -0.2798  0.2239  0.9395
  392MOL0     C51661   0.822   3.652   1.518  0.1350  0.4913 -0.2151
  392MOL0     N51662   1.493   3.408   1.666  0.4692  0.6806  0.0472
  392MOL0     N51663   1.584   3.330   1.714 -0.3568 -0.2292 -0.6624
  392MOL0     C51664   2.678   3.629   1.288 -0.8058 -0.1174  0.7137
  392MOL0     C51665   2.762   3.709   1.200 -0.3051  0.5540  0.4272
  392MOL0     C51666   3.150   3.851   0.969  0.6444 -1.0209  0.2717
  392MOL0     C51667   3.276   3.891   1.012  0.4236  0.2655  0.8485
  392MOL0     C51668   3.340   3.988   0.929 -0.2623 -0.4699 -1.1004
  392MOL0     C51669   3.284   4.042   0.818  0.6363 -0.4306 -1.2269
  392MOL0     O51670   3.353   4.135   0.746 -0.2132 -0.6559 -0.1953
  392MOL0     C51671   3.370   4.121   0.601  0.2236 -0.8420 -0.5196
  392MOL0     C51672   3.471   4.015   0.570  0.3189  0.5159 -0.4863
  392MOL0     C51673   3.611   4.016   0.635  0.1816 -0.6502  0.0418
  392MOL0     C51674   3.728   4.026   0.532  0.3017 -0.0799 -0.3131
  392MOL0     C51675   3.726   4.150   0.458  0.0919 -0.4525 -0.2304
  392MOL0     C51676   3.711   4.261   0.415  0.8991  0.1340  0.5143
  392MOL0     C51677   3.160   4.000   0.780 -0.0040 -0.5454  0.3110
  392MOL0     C51678   3.085   3.909   0.853  0.4026 -0.9662 -0.1471
  392MOL0     H51679   2.969   3.484   1.076 -1.0248 -2.4753  0.3553
  392MOL0     H51680   2.856   3.339   1.242 -0.8795  0.4338 -0.9441
  392MOL0     H51681   2.657   3.227   1.328 -0.7783 -0.2360  0.5367
  392MOL0     H51682   2.533   3.322   1.244  0.6954 -0.5365 -0.4007
  392MOL0     H51683   2.541   3.256   1.552  3.2664  0.7347 -1.4039
  392MOL0     H51684   2.455   3.158   1.438 -0.9165  0.2297  0.5502
  392MOL0     H51685   2.304   3.346   1.379  0.2779  0.1746  1.0132
  392MOL0     H51686   2.409   3.456   1.472 -0.8288  0.0323  3.1886
  392MOL0     H51687   2.282   3.211   1.608  1.1715  0.3614  0.5849
  392MOL0     H51688   2.319   3.367   1.681 -1.0278  0.5033  0.8422
  392MOL0     H51689   2.102   3.314   1.473 -0.8595 -0.0752  0.5836
  392MOL0     H51690   2.137   3.475   1.540  1.0700  0.9132  1.9253
  392MOL0     H51691   2.086   3.400   1.777  0.5054 -0.3532 -0.0355
  392MOL0     H51692   2.057   3.234   1.712  2.0178  0.0885 -0.2440
  392MOL0     H51693   1.904   3.492   1.628  0.2735 -0.4604  1.6765
  392MOL0     H51694   1.871   3.329   1.568 -0.5372  1.8739 -0.7198
  392MOL0     H51695   1.864   3.427   1.862 -0.4936 -0.4360  0.9890
  392MOL0     H51696   1.824   3.264   1.819 -0.9493 -0.3246 -0.6882
  392MOL0     H51697   1.701   3.630   1.778 -0.6124  0.1724 -0.1431
  392MOL0     H51698   1.509   3.687   1.549 -0.4533  1.3772 -0.5717
  392MOL0     H51699   1.477   3.740   1.719 -0.1259  0.1901 -0.4742
  392MOL0     H51700   1.282   3.631   1.746  0.1659  2.3262  0.3035
  392MOL0     H51701   1.283   3.557   1.578 -0.7247  1.0572 -0.6975
  392MOL0     H51702   1.241   3.847   1.644 -1.6953  1.2334 -0.5646
  392MOL0     H51703   1.253   3.794   1.486  1.6695 -1.6126  1.1574
  392MOL0     H51704   1.011   3.810   1.562 -0.9125  0.0049 -1.9498
  392MOL0     H51705   1.046   3.699   1.699  1.6243  1.8877  1.1173
  392MOL0     H51706   0.981   3.410   1.343  0.2045 -0.9734  3.2879
  392MOL0     H51707   0.758   3.388   1.251  1.0724 -0.5433  0.3465
  392MOL0     H51708   0.265   3.767   1.323  1.0017 -0.5931 -2.5058
  392MOL0     H51709   0.015   3.765   1.350 -0.0550 -0.3299 -1.5174
  392MOL0     H51710  -0.167   3.427   1.558 -2.4289 -0.3800  0.3509
  392MOL0     H51711  -0.143   3.341   1.408 -0.6445  0.4662 -0.8555
  392MOL0     H51712  -0.385   3.348   1.495 -0.1242 -0.7126  0.0190
  392MOL0     H51713  -0.384   3.411   1.332 -1.5116 -0.9730  0.5151
  392MOL0     H51714  -0.351   3.646   1.441  1.5038 -0.9029  1.0011
  392MOL0     H51715  -0.386   3.572   1.597 -2.9467 -4.1070  0.5555
  392MOL0     H51716  -0.585   3.695   1.497 -1.1673  0.3935 -0.1873
  392MOL0     H51717  -0.594   3.560   1.373 -0.2806  0.6113  0.3277
  392MOL0     H51718  -0.618   3.557   1.670  1.5314 -0.3460 -0.9325
  392MOL0     H51719  -0.660   3.415   1.563 -2.7891 -0.5596 -0.3050
  392MOL0     H51720  -0.831   3.540   1.441 -3.0941  3.8754 -0.6583
  392MOL0     H51721  -0.809   3.679   1.530 -0.2444 -0.8870 -4.2307
  392MOL0     H51722  -0.930   3.411   1.617 -0.1226 -1.1383  1.0276
  392MOL0     H51723  -0.878   3.523   1.738  0.0023 -2.4554  0.7234
  392MOL0     H51724  -1.073   3.583   1.514  2.8454  0.1727 -0.3560
  392MOL0     H51725  -1.023   3.701   1.630 -0.6366  1.0067 -2.2460
  392MOL0     H51726   0.059   3.338   1.421  1.4629 -0.4909  2.2525
  392MOL0     H51727   0.294   3.358   1.402  0.4855  0.3861 -2.1177
  392MOL0     H51728   0.606   3.661   1.524 -0.9668 -1.3181  1.1523
  392MOL0     H51729   0.830   3.742   1.578 -2.5192  0.8775 -0.3207
  392MOL0     H51730   2.590   3.666   1.340 -0.4682 -0.1277  1.2968
  392MOL0     H51731   2.729   3.811   1.186  0.1153  0.3696 -2.4434
  392MOL0     H51732   3.327   3.842   1.094  0.4718  1.3442  1.4931
  392MOL0     H51733   3.442   4.020   0.948 -1.2224  2.4311 -0.2656
  392MOL0     H51734   3.420   4.215   0.573 -0.9710  0.0724  0.3306
  392MOL0     H51735   3.276   4.121   0.545 -0.5356  0.6140  0.6820
  392MOL0     H51736   3.415   3.925   0.598  1.8997  0.3665  2.6706
  392MOL0     H51737   3.476   4.025   0.461 -0.8078  2.3998 -0.4137
  392MOL0     H51738   3.628   3.928   0.699 -1.3799  1.0545  3.0368
  392MOL0     H51739   3.614   4.101   0.703 -1.7082  2.0069 -2.9244
  392MOL0     H51740   3.822   4.009   0.586  1.2575 -1.2752 -2.2102
  392MOL0     H51741   3.711   3.947   0.458 -1.2302 -0.9191  0.8796
  392MOL0     H51742   3.719   4.366   0.392  0.0950 -0.0332 -0.6367
  392MOL0     H51743   3.124   4.041   0.686 -2.3187  1.0510  1.7611
  392MOL0     H51744   2.985   3.885   0.817 -0.2199 -1.9942  2.0751
  393MOL0     O51745   5.459  10.022   7.118  0.2729  0.6771  0.4512
  393MOL0     C51746   5.496  10.008   6.999  0.2843  0.1806 -1.0206
  393MOL0     O51747   5.422  10.009   6.888  0.3574  0.0441 -0.3940
  393MOL0     C51748   5.287  10.037   6.903 -0.1391 -0.1622 -0.6559
  393MOL0     C51749   5.206   9.943   6.973  0.5469 -0.8897 -0.1551
  393MOL0     C51750   5.062   9.956   6.978  0.2548 -0.0892 -0.3820
  393MOL0     C51751   4.999  10.065   6.907 -0.1482  0.1257  0.6508
  393MOL0     O51752   4.867  10.077   6.927  0.4681  0.1953  0.3400
  393MOL0     C51753   4.801  10.181   6.852  0.0719  1.1675  0.4520
  393MOL0     C51754   4.661  10.144   6.836 -0.2494  1.5357  0.4458
  393MOL0     C51755   4.581  10.246   6.756  0.1798 -0.5982 -0.3361
  393MOL0     C51756   4.430  10.202   6.750  1.5239  0.3224 -0.2322
  393MOL0     C51757   4.332  10.290   6.657  0.3365  0.4703 -0.1833
  393MOL0     C51758   4.185  10.251   6.690  0.1265  0.4483 -0.2489
  393MOL0     C51759   4.085  10.325   6.601 -0.0448  0.2253 -0.3728
  393MOL0     C51760   3.951  10.345   6.668  0.3988 -0.1166  0.9598
  393MOL0     N51761   3.853  10.377   6.564  0.0801  1.2274 -0.3818
  393MOL0     C51762   3.835  10.495   6.512 -1.0128 -0.3998 -0.3303
  393MOL0     C51763   3.751  10.468   6.408 -0.4537 -0.5469 -0.1185
  393MOL0     C51764   3.696  10.562   6.305 -0.7141 -0.6646 -0.1062
  393MOL0     C51765   3.615  10.668   6.376 -0.2095 -0.2797  0.2352
  393MOL0     C51766   3.560  10.782   6.289  0.4349 -0.3164 -0.7427
  393MOL0     C51767   3.477  10.736   6.169  0.3223 -0.1838  0.0913
  393MOL0     O51768   3.384  10.836   6.113 -0.1142  0.0964 -0.5169
  393MOL0     C51769   3.261  10.854   6.155  0.4934 -0.8970 -0.3356
  393MOL0     C51770   3.205  10.813   6.276  0.0090  0.6261  0.1485
  393MOL0     C51771   3.075  10.844   6.305  0.2850 -0.3522 -0.2423
  393MOL0     C51772   2.986  10.905   6.215 -0.4647  0.0246 -0.3262
  393MOL0     C51773   2.842  10.915   6.241 -0.6672 -0.0969 -1.2862
  393MOL0     O51774   2.773  10.992   6.152 -0.1199  0.9235 -0.5988
  393MOL0     C51775   2.641  11.003   6.170  0.1936 -1.2724  0.8608
  393MOL0     C51776   2.585  11.069   6.274  0.4651 -0.5966  0.1791
  393MOL0     C51777   2.448  11.065   6.301  0.0360  0.4967 -0.0133
  393MOL0     C51778   2.360  11.005   6.215  0.7983 -0.3510  0.4150
  393MOL0     O51779   2.232  10.994   6.266  0.0961 -0.4120  0.4729
  393MOL0     C51780   2.126  10.987   6.170  0.2158  0.2874 -0.5795
  393MOL0     C51781   1.991  10.992   6.247 -0.8860  0.2221 -0.0852
  393MOL0     C51782   1.885  10.997   6.137 -0.4865 -0.1141  0.4563
  393MOL0     C51783   1.757  11.006   6.218  0.1023 -0.2801  1.0223
  393MOL0     C51784   1.641  11.028   6.118 -0.4682  0.5997  0.5525
  393MOL0     C51785   1.510  11.048   6.181 -0.6282 -0.4759  0.3368
  393MOL0     C51786   1.403  11.048   6.069 -0.9020  0.2311  0.3061
  393MOL0     C51787   1.259  11.046   6.130 -0.4483 -0.4520  0.4384
  393MOL0    Cl51788   1.155  10.938   6.028 -0.2501  0.8333 -0.1024
  393MOL0     C51789   2.416  10.948   6.098  0.1727 -0.4704  0.0235
  393MOL0     C51790   2.555  10.941   6.081  0.2770  0.1921  0.4783
  393MOL0     O51791   2.795  10.857   6.343  0.2285  0.1274 -0.5334
  393MOL0     C51792   3.051  10.966   6.101 -0.7164 -0.2874  1.3814
  393MOL0     C51793   3.191  10.944   6.075  0.6774  0.0600  1.1179
  393MOL0     N51794   3.713  10.336   6.408 -0.1795 -0.5804  0.1062
  393MOL0     N51795   3.778  10.278   6.502 -0.5712  0.3105 -0.6662
  393MOL0     C51796   5.081  10.158   6.836  0.1518 -0.0660  0.1268
  393MOL0     C51797   5.221  10.136   6.833  0.7856 -0.0406 -0.0825
  393MOL0     C51798   5.644  10.009   6.976  0.5546 -0.0093 -0.0541
  393MOL0     C51799   5.729  10.078   7.066  0.2058 -0.5922 -0.3120
  393MOL0     C51800   5.863  10.090   7.036 -0.1524 -0.3893  0.0214
  393MOL0     C51801   5.920  10.039   6.916  0.3802 -0.3699  0.0605
  393MOL0     O51802   6.053  10.047   6.888  0.1092 -0.1854 -0.5146
  393MOL0     C51803   6.148  10.105   6.978  0.3414 -0.2374 -0.1581
  393MOL0     C51804   6.286  10.078   6.920 -0.0371  0.0543  0.2346
  393MOL0     C51805   6.312  10.146   6.783 -0.4877 -0.3417 -0.2350
  393MOL0     C51806   6.461  10.137   6.740  0.5429 -0.8823  0.2258
  393MOL0     C51807   6.480   9.997   6.689 -0.6964 -0.8526 -0.9386
  393MOL0     C51808   6.503   9.883   6.651  0.4009 -0.3361  0.0412
  393MOL0     C51809   5.831   9.969   6.829 -0.3944 -0.1950  0.2499
  393MOL0     C51810   5.697   9.961   6.857  0.1249  0.6886  0.2144
  393MOL0     H51811   5.258   9.868   7.031  2.7008 -2.1569 -3.4478
  393MOL0     H51812   5.006   9.882   7.035  0.4058  0.7090  0.8363
  393MOL0     H51813   4.828  10.189   6.746  1.5552  0.1888  0.7270
  393MOL0     H51814   4.797  10.279   6.900 -1.5099  0.7679  1.1902
  393MOL0     H51815   4.610  10.148   6.933  2.1999 -0.6121  1.9601
  393MOL0     H51816   4.659  10.043   6.794  1.2690  2.4596 -2.0706
  393MOL0     H51817   4.622  10.256   6.655  0.7775 -0.5810 -0.0991
  393MOL0     H51818   4.590  10.344   6.804 -0.4734 -0.4368 -0.5375
  393MOL0     H51819   4.433  10.108   6.694  2.9561  0.7396 -0.9187
  393MOL0     H51820   4.379  10.208   6.846  3.4765 -1.5207  1.0070
  393MOL0     H51821   4.359  10.272   6.553 -0.0127 -0.5951 -0.1021
  393MOL0     H51822   4.346  10.398   6.665  2.2524  0.5231 -2.8964
  393MOL0     H51823   4.167  10.276   6.795  1.0024  0.8031 -0.1785
  393MOL0     H51824   4.164  10.143   6.685 -3.4371  0.9990  0.1154
  393MOL0     H51825   4.121  10.426   6.579  0.9755  0.1176  0.6975
  393MOL0     H51826   4.068  10.263   6.512 -0.0866  2.8133 -2.2794
  393MOL0     H51827   3.946  10.426   6.742  0.0132 -0.0248  0.8374
  393MOL0     H51828   3.929  10.249   6.714 -2.5190  0.8275  1.7639
  393MOL0     H51829   3.870  10.590   6.549  2.0809 -0.7600 -2.0036
  393MOL0     H51830   3.633  10.508   6.233 -1.6987 -0.6389  0.7248
  393MOL0     H51831   3.778  10.612   6.252  1.3688  0.1542  3.5854
  393MOL0     H51832   3.683  10.705   6.452  0.9389 -2.4125  0.3312
  393MOL0     H51833   3.531  10.619   6.426 -3.2109  1.8153 -2.2972
  393MOL0     H51834   3.496  10.840   6.355 -0.7015  0.2385 -2.2565
  393MOL0     H51835   3.639  10.852   6.260 -0.2220 -0.1282 -2.1967
  393MOL0     H51836   3.433  10.639   6.193  2.5338 -1.4241 -0.5617
  393MOL0     H51837   3.544  10.717   6.085 -1.2269  1.3072 -1.5870
  393MOL0     H51838   3.264  10.760   6.350  2.6507  0.9909 -1.5535
  393MOL0     H51839   3.029  10.806   6.396  1.8920 -2.6855 -0.3289
  393MOL0     H51840   2.631  11.129   6.353 -4.9699  1.4105  2.3403
  393MOL0     H51841   2.411  11.105   6.396  1.1706 -1.1272  1.1593
  393MOL0     H51842   2.135  10.897   6.107 -0.2333 -1.7247  2.0368
  393MOL0     H51843   2.132  11.073   6.103 -0.3753 -0.5628 -1.7816
  393MOL0     H51844   1.984  11.084   6.306  0.1236  0.0739  0.2685
  393MOL0     H51845   1.976  10.900   6.304  2.8727 -0.0580  0.7201
  393MOL0     H51846   1.893  10.906   6.077  1.8363  0.5176 -0.3161
  393MOL0     H51847   1.893  11.089   6.079  1.4041 -1.3654 -1.4262
  393MOL0     H51848   1.732  10.915   6.273  1.1904 -1.9861 -1.1707
  393MOL0     H51849   1.757  11.083   6.295 -1.7028  0.7243  0.0895
  393MOL0     H51850   1.623  10.936   6.061 -1.9230 -0.1753  2.1643
  393MOL0     H51851   1.657  11.114   6.053 -0.0352 -1.4567 -2.2635
  393MOL0     H51852   1.507  11.147   6.227  2.0347  0.9679 -2.2788
  393MOL0     H51853   1.496  10.960   6.246  0.7355  0.2988  1.7554
  393MOL0     H51854   1.402  11.137   6.005 -1.2194  0.1882  0.2465
  393MOL0     H51855   1.414  10.958   6.008  0.3279 -2.0253  3.6156
  393MOL0     H51856   1.230  11.151   6.136  0.1832 -0.2366 -0.2278
  393MOL0     H51857   1.264  11.011   6.234 -0.3720 -0.7739  0.3283
  393MOL0     H51858   2.348  10.891   6.035 -2.6224  0.3786  2.0846
  393MOL0     H51859   2.592  10.891   5.992 -3.3272  2.5740 -2.6623
  393MOL0     H51860   2.991  11.019   6.027  1.3484  0.4790  0.1810
  393MOL0     H51861   3.224  10.973   5.976 -2.1246 -0.1907  0.0150
  393MOL0     H51862   5.042  10.242   6.780 -0.9894 -0.9380 -0.4248
  393MOL0     H51863   5.282  10.200   6.769 -2.2645  1.6725 -1.5277
  393MOL0     H51864   5.684  10.128   7.151  0.7894  2.2323 -1.5452
  393MOL0     H51865   5.924  10.148   7.105  0.9055 -0.4321 -0.8546
  393MOL0     H51866   6.145  10.052   7.073  0.9876 -1.9584 -1.0531
  393MOL0     H51867   6.126  10.209   7.004 -0.6835 -0.8156  1.4577
  393MOL0     H51868   6.374  10.103   6.980  0.5023 -1.7417  0.2406
  393MOL0     H51869   6.294   9.970   6.906 -0.0100 -0.2441  2.2061
  393MOL0     H51870   6.292  10.254   6.780 -0.2290 -0.2400  1.0514
  393MOL0     H51871   6.242  10.104   6.710  0.7743  1.5981 -2.7068
  393MOL0     H51872   6.483  10.208   6.659 -0.7227 -0.0205  0.6014
  393MOL0     H51873   6.517  10.161   6.830 -1.0559 -3.7297  2.1142
  393MOL0     H51874   6.521   9.784   6.613  0.6418 -0.2353 -0.1096
  393MOL0     H51875   5.877   9.929   6.738 -1.2294 -1.9841  0.5640
  393MOL0     H51876   5.635   9.917   6.780  0.3573  1.0417 -0.1810
  394MOL0     O51877   4.655   6.474   1.062  0.4510 -0.4288  0.2617
  394MOL0     C51878   4.671   6.561   0.976  0.2752  0.4017  0.3201
  394MOL0     O51879   4.586   6.658   0.934 -0.1014  0.3765  0.3696
  394MOL0     C51880   4.457   6.679   0.983 -0.3817 -0.9504 -0.9116
  394MOL0     C51881   4.374   6.598   1.068  0.8738 -0.1846  0.1560
  394MOL0     C51882   4.244   6.646   1.108  0.6336 -0.1549  0.1318
  394MOL0     C51883   4.200   6.779   1.082 -1.0674 -0.4977  0.4301
  394MOL0     O51884   4.072   6.827   1.114  0.1347 -0.2883  0.2882
  394MOL0     C51885   3.991   6.735   1.192  0.7450 -0.5273 -0.0229
  394MOL0     C51886   3.861   6.813   1.234  0.2983  0.1278  0.7790
  394MOL0     C51887   3.763   6.717   1.293 -0.5324 -0.0612 -0.7339
  394MOL0     C51888   3.616   6.780   1.301  0.4079 -0.5101 -0.2453
  394MOL0     C51889   3.496   6.684   1.316  0.7573 -0.0957 -0.7150
  394MOL0     C51890   3.374   6.743   1.376  0.3713  0.2876 -0.1598
  394MOL0     C51891   3.263   6.638   1.376  0.0416 -0.0202  0.5264
  394MOL0     C51892   3.158   6.656   1.482  0.5430  0.6144 -0.5828
  394MOL0     N51893   3.048   6.552   1.475  0.1095 -0.4682 -0.0404
  394MOL0     C51894   3.072   6.421   1.491  0.7164  0.0333 -0.8828
  394MOL0     C51895   2.959   6.364   1.450 -0.1484  0.0008  0.5607
  394MOL0     C51896   2.936   6.208   1.448 -0.5124 -0.5894  0.3745
  394MOL0     C51897   2.792   6.176   1.466  0.4285  0.0886 -0.4066
  394MOL0     C51898   2.778   6.021   1.493 -0.5765  0.1660 -0.2344
  394MOL0     C51899   2.651   5.995   1.578 -0.0224 -0.3182 -0.0983
  394MOL0     O51900   2.539   5.982   1.481 -0.5987 -0.0968  0.5740
  394MOL0     C51901   2.432   5.924   1.531 -0.7052  0.1489  0.0889
  394MOL0     C51902   2.321   5.903   1.447  0.4745  0.0184 -0.0419
  394MOL0     C51903   2.217   5.822   1.493 -0.1896  0.2003  0.6752
  394MOL0     C51904   2.198   5.783   1.628 -0.1842 -0.2413  0.7515
  394MOL0     C51905   2.067   5.731   1.675 -0.1057 -0.0295 -0.2598
  394MOL0     O51906   1.981   5.674   1.590 -0.3704 -0.1599  0.6810
  394MOL0     C51907   1.858   5.627   1.626 -0.1575  0.1771 -0.7166
  394MOL0     C51908   1.744   5.693   1.592 -0.5900  0.0476  0.0403
  394MOL0     C51909   1.615   5.663   1.641  0.7245 -0.6816 -0.5997
  394MOL0     C51910   1.593   5.546   1.713 -0.6221 -0.3562  0.2970
  394MOL0     O51911   1.459   5.503   1.715 -0.0031 -0.0186 -0.4811
  394MOL0     C51912   1.446   5.367   1.712  0.4297  0.4797  0.0721
  394MOL0     C51913   1.299   5.334   1.749  0.3347 -0.0890 -0.0877
  394MOL0     C51914   1.188   5.397   1.661 -0.9034  0.3485 -0.6153
  394MOL0     C51915   1.057   5.339   1.710  0.4722  0.1927  0.1407
  394MOL0     C51916   0.949   5.372   1.616  0.4275  0.7476 -0.0940
  394MOL0     C51917   0.814   5.320   1.651  0.1874  0.3755  0.2648
  394MOL0     C51918   0.700   5.410   1.633  0.5446  0.0255 -0.2327
  394MOL0     C51919   0.580   5.325   1.586 -0.1635 -0.4859  0.1716
  394MOL0    Cl51920   0.612   5.255   1.423 -0.8180  0.0814  0.4000
  394MOL0     C51921   1.709   5.473   1.752 -0.3164 -0.0231 -0.6740
  394MOL0     C51922   1.838   5.516   1.709  0.0873  0.4759 -0.8878
  394MOL0     O51923   2.059   5.732   1.795 -0.3674 -0.3850  0.0851
  394MOL0     C51924   2.302   5.820   1.712 -0.2346  0.0139 -0.4106
  394MOL0     C51925   2.418   5.885   1.665  0.2655  0.0009 -0.1623
  394MOL0     N51926   2.874   6.453   1.391  0.0901 -0.3410  0.4871
  394MOL0     N51927   2.928   6.569   1.411 -0.5347 -0.3965  0.0470
  394MOL0     C51928   4.291   6.859   1.006  0.6516  0.3736 -0.2635
  394MOL0     C51929   4.419   6.817   0.971  0.0727 -0.2270  0.2706
  394MOL0     C51930   4.803   6.560   0.902  0.5216 -1.1365 -0.7040
  394MOL0     C51931   4.894   6.457   0.915 -0.7753  0.0575 -0.6778
  394MOL0     C51932   5.020   6.474   0.858 -0.5382 -0.9746 -0.1391
  394MOL0     C51933   5.049   6.583   0.771  0.1902 -0.0617 -0.4774
  394MOL0     O51934   5.165   6.593   0.699 -0.4385 -0.6677 -0.3092
  394MOL0     C51935   5.228   6.718   0.657  0.0748 -0.0789 -0.2742
  394MOL0     C51936   5.371   6.722   0.686 -0.4085 -0.2158 -0.3147
  394MOL0     C51937   5.462   6.620   0.610  0.7102 -0.3299  0.2417
  394MOL0     C51938   5.476   6.481   0.681 -0.7329  0.0974  0.4162
  394MOL0     C51939   5.561   6.389   0.595  0.9246 -0.2366 -0.0588
  394MOL0     C51940   5.641   6.312   0.543 -0.6173 -0.6568 -0.1041
  394MOL0     C51941   4.959   6.692   0.769 -0.8175 -0.3078  0.3814
  394MOL0     C51942   4.838   6.682   0.837  0.4414  0.3292 -0.0745
  394MOL0     H51943   4.417   6.505   1.104 -0.5418 -0.2423  1.8321
  394MOL0     H51944   4.185   6.578   1.169  2.1843  0.1995  2.1480
  394MOL0     H51945   4.037   6.700   1.285  0.2969  1.5443  1.0321
  394MOL0     H51946   3.955   6.659   1.122 -3.4123  0.7300  0.4721
  394MOL0     H51947   3.815   6.863   1.148  0.2884  0.4209  0.9550
  394MOL0     H51948   3.897   6.882   1.310  1.5453 -1.4539  1.6909
  394MOL0     H51949   3.801   6.693   1.393 -0.4401  1.6668 -0.3113
  394MOL0     H51950   3.754   6.622   1.240 -2.4348 -1.4010  1.7514
  394MOL0     H51951   3.606   6.853   1.381  0.3703  1.0508 -1.6331
  394MOL0     H51952   3.600   6.830   1.205  0.1945 -2.5563 -1.3488
  394MOL0     H51953   3.526   6.594   1.370 -1.6762 -1.5171 -1.5482
  394MOL0     H51954   3.466   6.655   1.215 -2.5605  0.6392 -0.0692
  394MOL0     H51955   3.341   6.828   1.316 -1.9054 -0.6608 -0.3102
  394MOL0     H51956   3.383   6.765   1.483 -1.6671 -2.9787  0.8171
  394MOL0     H51957   3.209   6.627   1.281  0.5279 -1.4360  0.3923
  394MOL0     H51958   3.310   6.539   1.380 -0.1636 -0.4439 -3.2632
  394MOL0     H51959   3.120   6.759   1.474 -2.4937 -0.3013  0.6790
  394MOL0     H51960   3.206   6.645   1.580 -0.7893  0.1058  0.0434
  394MOL0     H51961   3.160   6.371   1.529 -0.4085 -0.9810  0.4918
  394MOL0     H51962   3.001   6.175   1.529  0.2364  1.6725  0.7719
  394MOL0     H51963   2.978   6.173   1.354 -0.1492  2.8115 -0.8761
  394MOL0     H51964   2.730   6.196   1.377  1.7359  3.4492 -0.7113
  394MOL0     H51965   2.744   6.241   1.539 -0.2501 -0.9516  0.0894
  394MOL0     H51966   2.799   5.969   1.400 -0.0652  0.2538 -0.1751
  394MOL0     H51967   2.862   5.983   1.553 -1.6710 -1.0188  0.5976
  394MOL0     H51968   2.621   6.075   1.647 -1.4353 -0.1162 -0.9042
  394MOL0     H51969   2.675   5.903   1.632  2.4289 -0.2131 -0.8566
  394MOL0     H51970   2.320   5.942   1.346  1.5771 -1.7316 -0.7760
  394MOL0     H51971   2.135   5.794   1.426 -2.5109  1.1737  2.9578
  394MOL0     H51972   1.738   5.785   1.535  0.8242  0.0953 -0.0597
  394MOL0     H51973   1.529   5.722   1.612  1.0165  1.7091  2.8723
  394MOL0     H51974   1.516   5.317   1.779  0.7996 -0.1480 -0.7628
  394MOL0     H51975   1.461   5.326   1.611  1.4773 -0.6761  0.6726
  394MOL0     H51976   1.284   5.369   1.851 -1.2062  1.2251 -0.7250
  394MOL0     H51977   1.295   5.225   1.745  3.2550 -0.2656 -2.5402
  394MOL0     H51978   1.203   5.384   1.554  1.7183 -0.6569 -0.2040
  394MOL0     H51979   1.186   5.504   1.684 -4.5020  0.1781  0.4935
  394MOL0     H51980   1.067   5.230   1.718  1.3723  0.2308 -0.3466
  394MOL0     H51981   1.029   5.381   1.807 -1.7263  3.4038 -1.7097
  394MOL0     H51982   0.977   5.331   1.519  1.0229  0.3552  0.2417
  394MOL0     H51983   0.946   5.482   1.618 -0.2576  0.7265  0.6661
  394MOL0     H51984   0.802   5.299   1.758  0.4285  1.8436  0.6135
  394MOL0     H51985   0.796   5.223   1.605 -2.2021 -0.0662  1.9218
  394MOL0     H51986   0.674   5.464   1.724  0.1165  0.2502 -0.4859
  394MOL0     H51987   0.725   5.484   1.556 -1.7604  0.2786 -0.8055
  394MOL0     H51988   0.499   5.397   1.568  1.1736  1.5482  1.7984
  394MOL0     H51989   0.561   5.250   1.665  1.4947 -0.4092  0.6752
  394MOL0     H51990   1.699   5.395   1.827  0.4257 -0.5821 -1.1432
  394MOL0     H51991   1.928   5.469   1.749  0.1048  0.9424 -0.3702
  394MOL0     H51992   2.305   5.796   1.817 -1.8149  1.0198 -0.1107
  394MOL0     H51993   2.501   5.897   1.735  0.1914  2.6162 -0.4425
  394MOL0     H51994   4.255   6.959   0.984 -0.8137 -0.0630  0.0522
  394MOL0     H51995   4.482   6.887   0.917  0.5911 -1.8258 -1.2869
  394MOL0     H51996   4.870   6.364   0.965  2.3416 -0.6356 -0.2347
  394MOL0     H51997   5.097   6.397   0.868  0.2552 -0.3638 -1.3115
  394MOL0     H51998   5.180   6.797   0.716 -0.1706 -0.1707 -0.3490
  394MOL0     H51999   5.213   6.729   0.550 -1.1652  0.6197 -0.0509
  394MOL0     H52000   5.415   6.822   0.680 -3.1776  1.1852  0.8435
  394MOL0     H52001   5.397   6.701   0.790  1.4904  1.1747 -0.4589
  394MOL0     H52002   5.562   6.660   0.593 -0.7374  3.2001 -0.8094
  394MOL0     H52003   5.416   6.606   0.512  2.2415  0.4034 -0.6173
  394MOL0     H52004   5.525   6.495   0.778 -0.0297  2.6137 -0.2118
  394MOL0     H52005   5.382   6.427   0.696  0.5818 -2.1484  0.9375
  394MOL0     H52006   5.704   6.244   0.490 -1.1479 -1.3756  0.1620
  394MOL0     H52007   4.971   6.789   0.722 -2.2248  0.9498  2.4491
  394MOL0     H52008   4.762   6.759   0.828 -2.2294 -2.3024 -2.0017
  395MOL0     O52009   4.906   4.787   3.920 -0.1922  0.0819  0.0713
  395MOL0     C52010   4.792   4.745   3.900 -0.6152 -0.3798 -0.4607
  395MOL0     O52011   4.674   4.814   3.919  0.4934  0.1337 -0.0406
  395MOL0     C52012   4.673   4.946   3.968 -0.4636 -0.2453  0.0339
  395MOL0     C52013   4.584   5.032   3.898 -0.9920 -0.0263 -0.0116
  395MOL0     C52014   4.578   5.173   3.928 -0.6247  0.1872 -0.3109
  395MOL0     C52015   4.667   5.220   4.032  0.0019 -0.5123 -0.2109
  395MOL0     O52016   4.666   5.361   4.048  0.2979  0.0286  0.2123
  395MOL0     C52017   4.594   5.395   4.163 -0.0284  0.6173 -0.0821
  395MOL0     C52018   4.617   5.535   4.214  0.3741 -0.3266  0.1230
  395MOL0     C52019   4.561   5.557   4.354  0.3175  0.3732  0.6875
  395MOL0     C52020   4.535   5.704   4.398  0.7591 -0.0099  0.0535
  395MOL0     C52021   4.543   5.708   4.547  0.5501 -0.2939  0.6226
  395MOL0     C52022   4.471   5.826   4.612  0.0100  0.7514 -0.0460
  395MOL0     C52023   4.324   5.844   4.593 -0.0135  1.0209  0.2694
  395MOL0     C52024   4.246   5.713   4.605 -0.6580 -0.5944 -0.2199
  395MOL0     N52025   4.103   5.753   4.601  0.0696  0.1466 -0.1466
  395MOL0     C52026   4.022   5.735   4.712 -0.5323 -0.5178  0.1669
  395MOL0     C52027   3.895   5.774   4.670 -0.1390 -0.0944 -0.6701
  395MOL0     C52028   3.775   5.802   4.762  0.5839 -0.2886 -0.1383
  395MOL0     C52029   3.655   5.881   4.710 -0.0284 -0.0683  0.2524
  395MOL0     C52030   3.681   6.033   4.682 -0.0047  0.6681 -0.6336
  395MOL0     C52031   3.561   6.104   4.619  0.1602 -0.5766 -0.9940
  395MOL0     O52032   3.593   6.239   4.586  0.0677 -0.1122 -0.1445
  395MOL0     C52033   3.493   6.324   4.540  0.6137  0.4490 -0.1428
  395MOL0     C52034   3.362   6.292   4.520  0.1985 -0.1302 -0.9415
  395MOL0     C52035   3.272   6.388   4.474 -0.1917  0.2669 -0.9657
  395MOL0     C52036   3.314   6.518   4.447  0.4283  0.6963 -0.7052
  395MOL0     C52037   3.214   6.621   4.400 -0.1667  0.3311  0.2659
  395MOL0     O52038   3.083   6.584   4.386 -0.3701  0.0135  0.7952
  395MOL0     C52039   2.988   6.654   4.307  0.0483  0.3693  0.0325
  395MOL0     C52040   3.025   6.738   4.198 -0.1042  0.4184  0.0442
  395MOL0     C52041   2.930   6.785   4.106 -0.8464 -0.5740 -0.0521
  395MOL0     C52042   2.800   6.764   4.122  0.2765  0.2804 -0.3654
  395MOL0     O52043   2.696   6.799   4.038  0.2377  0.1197 -0.1679
  395MOL0     C52044   2.732   6.888   3.923 -0.2887  0.4831 -0.3659
  395MOL0     C52045   2.612   6.921   3.833 -0.6869  0.1580  0.3084
  395MOL0     C52046   2.473   6.932   3.911 -1.0056  0.3811  0.7361
  395MOL0     C52047   2.366   6.958   3.806 -1.0992 -0.2422 -0.5679
  395MOL0     C52048   2.224   6.974   3.868 -0.6194 -0.0232  0.0613
  395MOL0     C52049   2.164   6.837   3.912  0.1790 -0.0929 -0.0197
  395MOL0     C52050   2.020   6.846   3.962 -0.9645 -0.3299 -0.2617
  395MOL0     C52051   1.975   6.730   4.050  0.7054 -0.4154  0.0723
  395MOL0    Cl52052   1.963   6.579   3.950  0.2598 -0.3718  0.1637
  395MOL0     C52053   2.763   6.681   4.226  0.5933  0.0747 -0.1971
  395MOL0     C52054   2.853   6.620   4.318  0.0978  0.8268  0.5149
  395MOL0     O52055   3.255   6.737   4.386 -0.4548 -0.7296 -0.1642
  395MOL0     C52056   3.441   6.545   4.469  0.3996 -0.1556 -0.5290
  395MOL0     C52057   3.529   6.453   4.510  0.5092  1.5339  0.2783
  395MOL0     N52058   3.903   5.815   4.539  0.2052  0.1235  0.3669
  395MOL0     N52059   4.022   5.799   4.506  0.2489  0.1728 -0.2087
  395MOL0     C52060   4.745   5.134   4.104  0.1890 -0.5071  0.0229
  395MOL0     C52061   4.749   5.000   4.069 -1.0709  0.7632 -0.2510
  395MOL0     C52062   4.791   4.612   3.831 -0.1609  0.0081 -0.0891
  395MOL0     C52063   4.902   4.557   3.767 -0.4514  0.0469 -0.1233
  395MOL0     C52064   4.892   4.434   3.709 -0.4742 -0.5805  0.5661
  395MOL0     C52065   4.773   4.356   3.703 -0.1666 -0.0399  0.4227
  395MOL0     O52066   4.751   4.237   3.636  0.0591  0.0364  0.1695
  395MOL0     C52067   4.861   4.185   3.568  0.0596 -0.1939  0.5113
  395MOL0     C52068   4.811   4.058   3.503  0.0223 -0.1293 -0.5748
  395MOL0     C52069   4.930   4.002   3.430  0.8756  0.4142 -0.4866
  395MOL0     C52070   4.894   3.880   3.346 -0.6399  0.9399  0.1293
  395MOL0     C52071   4.858   3.768   3.437  0.5235 -0.1017  0.6906
  395MOL0     C52072   4.840   3.664   3.494 -0.2096  0.5670  0.3950
  395MOL0     C52073   4.670   4.406   3.778  0.3355 -0.1147 -0.1862
  395MOL0     C52074   4.673   4.533   3.833  0.2515  0.6459 -0.0403
  395MOL0     H52075   4.530   4.978   3.822  0.3021 -1.4014 -0.0149
  395MOL0     H52076   4.531   5.249   3.867 -0.2179  1.4837  0.9180
  395MOL0     H52077   4.621   5.335   4.250  0.6375  1.1546  0.0939
  395MOL0     H52078   4.485   5.386   4.154  0.0377 -0.2730 -0.0339
  395MOL0     H52079   4.571   5.603   4.142  0.5673 -1.1828 -0.8347
  395MOL0     H52080   4.725   5.552   4.217  0.4824 -1.1776  1.7554
  395MOL0     H52081   4.633   5.506   4.418  0.8883  0.6433  0.2716
  395MOL0     H52082   4.466   5.504   4.366  1.2466 -1.4824  0.1554
  395MOL0     H52083   4.602   5.780   4.354 -1.0457  1.7551  0.2098
  395MOL0     H52084   4.437   5.738   4.366  0.7439 -2.0443 -2.3605
  395MOL0     H52085   4.647   5.695   4.578  1.4894  0.3382 -2.0432
  395MOL0     H52086   4.492   5.620   4.588  2.2299 -0.9681  1.3635
  395MOL0     H52087   4.530   5.917   4.592  0.3736 -0.0582 -3.2926
  395MOL0     H52088   4.466   5.812   4.720  2.2261  1.2913  0.1745
  395MOL0     H52089   4.283   5.914   4.666 -2.7090  1.3902 -1.4613
  395MOL0     H52090   4.302   5.882   4.493  5.9376 -1.6432 -2.5572
  395MOL0     H52091   4.274   5.670   4.702  0.2306 -1.1482 -0.7129
  395MOL0     H52092   4.276   5.650   4.521  4.4757  2.5709 -1.1593
  395MOL0     H52093   4.045   5.705   4.813 -1.8030 -0.2939  0.5353
  395MOL0     H52094   3.809   5.852   4.853 -2.5105  0.0499  0.9566
  395MOL0     H52095   3.721   5.713   4.798  0.2134  0.3236  0.8626
  395MOL0     H52096   3.573   5.872   4.782 -1.9064  0.6393 -1.6549
  395MOL0     H52097   3.619   5.841   4.614 -1.3992  1.0011  0.2925
  395MOL0     H52098   3.711   6.085   4.774  0.1503 -1.0751  0.3623
  395MOL0     H52099   3.766   6.046   4.614  0.0842  1.1625 -0.4342
  395MOL0     H52100   3.476   6.102   4.689 -0.1377  2.5714 -1.1204
  395MOL0     H52101   3.540   6.045   4.529  0.0184 -0.7743 -0.8337
  395MOL0     H52102   3.324   6.193   4.546  0.8176  0.3957  2.4510
  395MOL0     H52103   3.169   6.364   4.449 -1.2095  2.6259  0.6497
  395MOL0     H52104   3.131   6.754   4.182 -0.1741  0.1586 -0.6891
  395MOL0     H52105   2.975   6.834   4.021  0.8558 -1.6957  0.1562
  395MOL0     H52106   2.814   6.845   3.864  2.2261  2.8334  1.1831
  395MOL0     H52107   2.781   6.974   3.970  0.3877  0.0983 -0.3539
  395MOL0     H52108   2.608   6.835   3.765  1.7288  1.0747 -1.1355
  395MOL0     H52109   2.628   7.014   3.777 -0.9820  0.1445  0.1944
  395MOL0     H52110   2.480   7.015   3.982  4.0502 -0.2194  1.3513
  395MOL0     H52111   2.445   6.839   3.960 -3.5216  0.4862 -0.3792
  395MOL0     H52112   2.411   7.051   3.770  2.4531 -1.0896  1.2330
  395MOL0     H52113   2.367   6.886   3.724  3.4193  0.9600 -1.8699
  395MOL0     H52114   2.163   7.002   3.782  0.6350  1.3789 -0.4172
  395MOL0     H52115   2.229   7.053   3.943 -0.2457  0.0943 -0.0863
  395MOL0     H52116   2.224   6.801   3.997  0.8793  1.9883  0.4313
  395MOL0     H52117   2.167   6.760   3.835 -0.4304 -2.5985  2.3148
  395MOL0     H52118   2.021   6.936   4.023  0.6619 -2.8984  3.9047
  395MOL0     H52119   1.957   6.848   3.872 -0.6942 -1.1242 -0.4799
  395MOL0     H52120   1.875   6.756   4.085  0.9490  1.4473 -0.5232
  395MOL0     H52121   2.037   6.718   4.139  0.4678  1.3907  0.5092
  395MOL0     H52122   2.657   6.661   4.238  0.9252 -1.5147  0.4231
  395MOL0     H52123   2.825   6.548   4.395  1.5419 -0.4753 -0.1146
  395MOL0     H52124   3.489   6.641   4.457  1.6644 -0.5237  1.1312
  395MOL0     H52125   3.634   6.472   4.528  0.5351  2.1573 -0.4909
  395MOL0     H52126   4.807   5.179   4.181 -1.3202  0.6737  0.5998
  395MOL0     H52127   4.822   4.941   4.124 -0.1405  1.8619 -0.2654
  395MOL0     H52128   4.987   4.624   3.755 -2.5109  2.9560  0.5641
  395MOL0     H52129   4.975   4.399   3.649 -0.2605  0.2657  0.3564
  395MOL0     H52130   4.950   4.164   3.628  1.5028 -2.5012 -2.1725
  395MOL0     H52131   4.893   4.256   3.492 -1.1624  0.9805  1.0517
  395MOL0     H52132   4.782   3.984   3.578 -0.0105 -2.2376 -2.5630
  395MOL0     H52133   4.734   4.074   3.428 -1.6735 -2.1096  0.6356
  395MOL0     H52134   5.006   3.983   3.506  1.0074  2.1477 -0.1574
  395MOL0     H52135   4.982   4.078   3.371  0.9880 -0.2641 -1.2789
  395MOL0     H52136   4.819   3.909   3.272  0.1064 -1.3446 -1.6389
  395MOL0     H52137   4.974   3.847   3.280 -0.8860 -0.4682  0.5060
  395MOL0     H52138   4.829   3.568   3.540  0.4272  1.7880  3.3362
  395MOL0     H52139   4.581   4.347   3.794  1.5776 -2.7616 -2.2239
  395MOL0     H52140   4.594   4.572   3.896  0.3334 -0.2411  0.6213
  396MOL0     O52141   1.345   2.918  10.191  0.1143 -0.3399 -0.4552
  396MOL0     C52142   1.371   3.001  10.104  0.3450  0.7269  0.4133
  396MOL0     O52143   1.291   3.106  10.070  0.4888 -0.9152  0.1956
  396MOL0     C52144   1.160   3.102  10.101  0.1875 -0.1508  0.3776
  396MOL0     C52145   1.097   3.223  10.133  1.0634 -0.3362 -0.1208
  396MOL0     C52146   0.959   3.219  10.168 -0.5608  0.4026  0.6099
  396MOL0     C52147   0.885   3.098  10.173  0.2600 -0.6176 -1.0469
  396MOL0     O52148   0.749   3.097  10.196 -0.4879  0.0029  0.4610
  396MOL0     C52149   0.699   3.198  10.278 -0.1336 -0.1751 -0.0432
  396MOL0     C52150   0.562   3.156  10.316  0.0220 -0.1096 -0.2708
  396MOL0     C52151   0.449   3.171  10.208 -0.0899 -0.6350  0.1949
  396MOL0     C52152   0.335   3.076  10.228  0.5484 -0.1150 -1.0377
  396MOL0     C52153   0.266   3.092  10.372 -0.2263  0.4681  0.0069
  396MOL0     C52154   0.155   2.989  10.388 -0.3753  0.2724 -0.2692
  396MOL0     C52155   0.083   3.016  10.529 -0.2269 -0.0457  0.1628
  396MOL0     C52156  -0.033   2.919  10.561 -0.8011 -1.2569 -0.0850
  396MOL0     N52157  -0.147   2.938  10.460  0.0203 -0.3825 -0.3892
  396MOL0     C52158  -0.217   3.053  10.428  0.6983 -0.1255  0.3587
  396MOL0     C52159  -0.299   3.021  10.334  0.4914 -0.5313  0.7065
  396MOL0     C52160  -0.382   3.122  10.261  1.0097 -0.0028 -0.4591
  396MOL0     C52161  -0.339   3.170  10.125  0.3433 -0.2795  0.2583
  396MOL0     C52162  -0.298   3.051  10.030 -0.7122 -0.2733 -0.5060
  396MOL0     C52163  -0.225   3.104   9.900  0.6868 -0.2724 -0.7327
  396MOL0     O52164  -0.310   3.188   9.830 -0.5377  0.2672  0.2560
  396MOL0     C52165  -0.389   3.141   9.731  0.3038  0.4374  0.8062
  396MOL0     C52166  -0.431   3.005   9.715  0.1402 -0.7964  0.2594
  396MOL0     C52167  -0.525   2.972   9.614 -0.1843  0.1755 -0.4023
  396MOL0     C52168  -0.562   3.061   9.514  0.3672 -0.6517 -0.0411
  396MOL0     C52169  -0.674   3.044   9.417  0.2765  0.3821  0.5632
  396MOL0     O52170  -0.706   3.148   9.322 -0.3596  0.8497  0.2590
  396MOL0     C52171  -0.812   3.121   9.247 -0.5394  0.8099  0.4249
  396MOL0     C52172  -0.949   3.159   9.271  0.2047  0.5566  0.4927
  396MOL0     C52173  -1.054   3.115   9.189 -0.0955  0.4316  0.0727
  396MOL0     C52174  -1.028   3.026   9.084  0.1462  0.2958 -0.3273
  396MOL0     O52175  -1.129   2.983   9.003 -0.1805 -0.0122  0.1950
  396MOL0     C52176  -1.226   3.075   8.948  0.2285 -0.6253 -0.8726
  396MOL0     C52177  -1.330   2.996   8.869  0.9665  0.0958 -0.0863
  396MOL0     C52178  -1.466   3.064   8.871  0.0511 -0.0055 -0.4742
  396MOL0     C52179  -1.467   3.210   8.815  0.3461 -0.0607  0.0770
  396MOL0     C52180  -1.608   3.279   8.832  0.8600  0.3403 -0.2380
  396MOL0     C52181  -1.728   3.208   8.763 -0.0846 -0.0817 -0.9314
  396MOL0     C52182  -1.704   3.167   8.617 -0.3567  0.0446  1.3420
  396MOL0     C52183  -1.718   3.291   8.525  0.3439 -0.2897 -0.0209
  396MOL0    Cl52184  -1.881   3.353   8.511  0.3603  0.1022  0.1236
  396MOL0     C52185  -0.899   2.968   9.074  1.1294  0.7268 -0.4206
  396MOL0     C52186  -0.794   3.021   9.149  0.1769  0.3291  0.0957
  396MOL0     O52187  -0.731   2.935   9.425 -0.1687 -0.3149  0.1211
  396MOL0     C52188  -0.510   3.194   9.527  0.0353 -0.5875  0.8360
  396MOL0     C52189  -0.445   3.234   9.638 -0.5858 -0.2505 -0.6226
  396MOL0     N52190  -0.284   2.882  10.307 -0.5194 -0.3180  0.2982
  396MOL0     N52191  -0.189   2.840  10.378 -0.0910 -0.2921 -0.5391
  396MOL0     C52192   0.943   2.983  10.118  0.1175  0.1299 -0.7157
  396MOL0     C52193   1.079   2.985  10.087  0.2288  0.5336  0.8540
  396MOL0     C52194   1.499   2.988  10.048 -0.1251  0.2333  0.0304
  396MOL0     C52195   1.550   3.079   9.955 -0.1977 -0.6500 -0.5442
  396MOL0     C52196   1.674   3.063   9.893  0.0308 -0.4073 -0.3868
  396MOL0     C52197   1.764   2.961   9.928  0.2030  0.4681 -0.2570
  396MOL0     O52198   1.875   2.943   9.856 -0.3823 -0.1143 -0.2485
  396MOL0     C52199   1.987   2.895   9.934  0.1937  0.3514  0.0725
  396MOL0     C52200   2.093   2.862   9.831 -0.9697  0.3730 -0.0998
  396MOL0     C52201   2.138   2.991   9.759  0.0882  0.3033  0.2116
  396MOL0     C52202   2.232   2.944   9.646 -0.6081 -0.1958 -0.7729
  396MOL0     C52203   2.354   3.031   9.644 -0.3307  1.0210 -0.5650
  396MOL0     C52204   2.456   3.091   9.658 -0.2669 -0.6833  0.4187
  396MOL0     C52205   1.720   2.873  10.036  0.2700 -0.1475  0.7438
  396MOL0     C52206   1.592   2.892  10.091  0.3105  0.2097 -0.7927
  396MOL0     H52207   1.148   3.318  10.137 -1.4609  1.0480  1.4481
  396MOL0     H52208   0.918   3.319  10.181  0.3084  0.9689 -0.8846
  396MOL0     H52209   0.698   3.295  10.227 -0.2773 -0.4920 -0.6541
  396MOL0     H52210   0.754   3.206  10.372  1.1135 -1.6416 -0.6015
  396MOL0     H52211   0.524   3.217  10.399  0.6267 -0.0579 -0.0183
  396MOL0     H52212   0.563   3.054  10.354  1.0478 -0.7043 -1.7827
  396MOL0     H52213   0.486   3.155  10.106 -1.3223 -2.9714  0.0486
  396MOL0     H52214   0.422   3.277  10.220 -0.8441 -1.0824  3.0893
  396MOL0     H52215   0.263   3.088  10.146 -0.3047  0.5870 -0.2012
  396MOL0     H52216   0.367   2.971  10.225  3.1228  0.4967  1.2008
  396MOL0     H52217   0.239   3.197  10.384  1.9016  1.1007 -0.2660
  396MOL0     H52218   0.346   3.087  10.447  2.6074  1.5568 -2.7265
  396MOL0     H52219   0.198   2.888  10.394 -1.8394 -0.5614 -2.3532
  396MOL0     H52220   0.077   2.991  10.311 -0.6725  0.7452  0.0412
  396MOL0     H52221   0.161   3.021  10.606  1.2267  0.7661 -1.3042
  396MOL0     H52222   0.047   3.120  10.528  0.1992  0.1135  0.7329
  396MOL0     H52223  -0.071   2.943  10.661  0.9486  3.1015 -0.2608
  396MOL0     H52224   0.011   2.819  10.553 -0.8568 -1.2258 -0.8405
  396MOL0     H52225  -0.198   3.152  10.469  1.1442  0.0201 -0.1910
  396MOL0     H52226  -0.383   3.216  10.319 -0.1232  0.2609 -0.8773
  396MOL0     H52227  -0.484   3.084  10.253  1.4858 -1.1780 -1.0790
  396MOL0     H52228  -0.250   3.229  10.144 -0.2260  0.6749  0.0263
  396MOL0     H52229  -0.413   3.234  10.077  1.6960 -0.2781 -1.9568
  396MOL0     H52230  -0.220   2.989  10.076  0.2501  0.3282 -1.2847
  396MOL0     H52231  -0.383   2.989   9.999  1.8618 -3.8244 -1.1419
  396MOL0     H52232  -0.188   3.018   9.843  1.6823  0.0802 -0.6382
  396MOL0     H52233  -0.133   3.158   9.923  0.3907  0.7941 -1.9856
  396MOL0     H52234  -0.389   2.933   9.784 -2.0600 -1.3014  1.1498
  396MOL0     H52235  -0.564   2.871   9.605  0.0127  0.1257 -0.7348
  396MOL0     H52236  -0.979   3.223   9.353  1.3200 -1.1456  2.3128
  396MOL0     H52237  -1.147   3.165   9.215  0.4672  0.6617  1.7821
  396MOL0     H52238  -1.185   3.156   8.887 -0.7128  1.0702  0.6466
  396MOL0     H52239  -1.272   3.122   9.035  1.1926 -3.0765  1.0837
  396MOL0     H52240  -1.348   2.906   8.928 -0.7688  0.1589 -0.4599
  396MOL0     H52241  -1.301   2.972   8.766 -0.7143 -0.9555 -0.3580
  396MOL0     H52242  -1.493   3.074   8.977  0.0188  1.4461 -0.5978
  396MOL0     H52243  -1.542   2.998   8.829  1.3320 -3.1721  1.7701
  396MOL0     H52244  -1.399   3.278   8.866 -0.2219 -0.3954  1.3067
  396MOL0     H52245  -1.441   3.204   8.709 -1.5470 -0.5912 -0.3929
  396MOL0     H52246  -1.598   3.374   8.778 -0.4542 -0.6453 -2.3182
  396MOL0     H52247  -1.627   3.309   8.936  0.4393 -0.5230 -0.0612
  396MOL0     H52248  -1.817   3.270   8.780  0.1394 -0.2197  0.9371
  396MOL0     H52249  -1.743   3.119   8.825 -1.5289  1.5974  1.2770
  396MOL0     H52250  -1.610   3.114   8.599  0.3818  0.7454  2.9302
  396MOL0     H52251  -1.789   3.104   8.588  0.4892 -0.5494  0.0585
  396MOL0     H52252  -1.675   3.267   8.427  0.9089  1.8949 -0.3588
  396MOL0     H52253  -1.655   3.377   8.552 -0.2603 -0.1362  0.9617
  396MOL0     H52254  -0.890   2.884   9.005  0.4528 -0.9398  1.4475
  396MOL0     H52255  -0.694   2.981   9.135  0.0429  0.4338 -1.2841
  396MOL0     H52256  -0.534   3.272   9.455  3.8352 -0.6948 -0.7702
  396MOL0     H52257  -0.416   3.339   9.643 -0.1785 -0.3776  3.5021
  396MOL0     H52258   0.884   2.892  10.112  1.5895 -1.1429  1.9961
  396MOL0     H52259   1.121   2.898  10.040 -0.0368  0.6159  0.4586
  396MOL0     H52260   1.494   3.168   9.929  1.2931  0.2740 -0.7387
  396MOL0     H52261   1.715   3.136   9.823 -0.0484  0.7655  0.7553
  396MOL0     H52262   1.958   2.806   9.990 -0.1732  1.3317  1.5055
  396MOL0     H52263   2.016   2.972  10.006 -0.2134 -0.0398  0.6648
  396MOL0     H52264   2.177   2.819   9.887  0.7305  4.5932  0.9106
  396MOL0     H52265   2.056   2.785   9.763 -2.5575 -0.8579  1.9971
  396MOL0     H52266   2.182   3.054   9.837 -1.7924  0.4446  1.2223
  396MOL0     H52267   2.052   3.044   9.716  0.2445  0.5139  0.1550
  396MOL0     H52268   2.270   2.842   9.659  4.2663  1.5152  0.8387
  396MOL0     H52269   2.181   2.956   9.550 -1.4150  3.2022 -0.0512
  396MOL0     H52270   2.544   3.150   9.655  1.4747 -3.1274  0.1156
  396MOL0     H52271   1.773   2.787  10.074 -0.1495 -0.5406  0.4444
  396MOL0     H52272   1.559   2.812  10.157  0.2250  2.1433  1.6177
  397MOL0     O52273   1.197   7.842   0.467  0.6016  0.6953 -0.1285
  397MOL0     C52274   1.251   7.761   0.395 -0.3630 -0.2552  0.6980
  397MOL0     O52275   1.196   7.707   0.287  0.1726 -1.0312  0.3068
  397MOL0     C52276   1.070   7.736   0.250 -0.5819  0.3386 -0.2425
  397MOL0     C52277   0.960   7.692   0.317  0.1984 -0.4500  0.6993
  397MOL0     C52278   0.829   7.716   0.258 -0.3713 -0.6958  0.5607
  397MOL0     C52279   0.809   7.780   0.138 -0.6608 -0.9241  0.0387
  397MOL0     O52280   0.690   7.808   0.076 -0.1317  0.4678  0.0615
  397MOL0     C52281   0.605   7.900   0.146 -0.3009  0.1406  0.6327
  397MOL0     C52282   0.476   7.906   0.074  0.7831  1.0531 -0.0566
  397MOL0     C52283   0.372   7.988   0.154 -1.0964  0.8874  0.2026
  397MOL0     C52284   0.248   8.020   0.076 -0.4251  1.0335  0.5169
  397MOL0     C52285   0.137   8.079   0.164 -0.2885  0.5023  0.0935
  397MOL0     C52286   0.172   8.224   0.199  0.4517  0.5908 -0.3048
  397MOL0     C52287   0.065   8.300   0.275 -0.2274 -0.1650  0.9343
  397MOL0     C52288   0.020   8.224   0.406  0.9458  0.6311  0.5541
  397MOL0     N52289  -0.073   8.111   0.382  0.5391 -0.1406 -1.2212
  397MOL0     C52290  -0.097   8.009   0.472 -0.0655  0.2686 -0.2560
  397MOL0     C52291  -0.204   7.934   0.419  0.2249 -0.0206 -0.0483
  397MOL0     C52292  -0.263   7.806   0.478 -0.5644  0.1200 -0.2399
  397MOL0     C52293  -0.409   7.799   0.440  0.2287  0.0465  0.0886
  397MOL0     C52294  -0.492   7.693   0.512 -0.0478  0.9531  1.6874
  397MOL0     C52295  -0.643   7.691   0.458  0.2356 -0.1525 -1.0046
  397MOL0     O52296  -0.712   7.798   0.528 -0.6436 -0.5399 -0.0161
  397MOL0     C52297  -0.846   7.792   0.543 -0.2195  0.5451 -0.1843
  397MOL0     C52298  -0.937   7.732   0.455 -0.3779 -0.1923 -0.5155
  397MOL0     C52299  -1.071   7.718   0.494  0.7002 -0.9526  0.4024
  397MOL0     C52300  -1.126   7.777   0.613  0.2645 -0.8140  0.2887
  397MOL0     C52301  -1.269   7.773   0.644 -0.1122 -0.6586 -0.2022
  397MOL0     O52302  -1.347   7.775   0.534  0.1380  0.0312  0.1800
  397MOL0     C52303  -1.482   7.775   0.536  0.5298 -0.4405  0.0192
  397MOL0     C52304  -1.564   7.847   0.622  0.7308  0.0219  0.2051
  397MOL0     C52305  -1.703   7.818   0.636  0.2177  0.2526  1.1339
  397MOL0     C52306  -1.767   7.730   0.548 -0.3250  0.8554 -0.6615
  397MOL0     O52307  -1.902   7.702   0.553 -0.0226 -0.1650  0.1237
  397MOL0     C52308  -1.999   7.754   0.647 -0.1522  0.4045 -0.5224
  397MOL0     C52309  -2.121   7.774   0.557 -0.4031 -0.3568 -0.3653
  397MOL0     C52310  -2.245   7.825   0.631 -0.1336  1.0118  0.1735
  397MOL0     C52311  -2.298   7.711   0.717  0.0206 -0.6840 -0.0139
  397MOL0     C52312  -2.426   7.748   0.795  0.0534  0.4443 -0.0566
  397MOL0     C52313  -2.568   7.755   0.708 -0.3375 -0.5864 -0.1434
  397MOL0     C52314  -2.697   7.745   0.794 -0.0122  0.2489 -0.4768
  397MOL0     C52315  -2.833   7.745   0.715  0.2656 -0.5238  0.1161
  397MOL0    Cl52316  -2.862   7.585   0.652  0.1810  0.3810  0.0276
  397MOL0     C52317  -1.686   7.676   0.451  0.9024 -0.3566  0.2286
  397MOL0     C52318  -1.547   7.691   0.442  0.0687  0.2628  0.5511
  397MOL0     O52319  -1.305   7.794   0.760 -1.0444  0.1908  0.3782
  397MOL0     C52320  -1.034   7.843   0.701  0.3571  0.2166 -0.5552
  397MOL0     C52321  -0.899   7.843   0.665 -0.0561 -0.0310 -0.2351
  397MOL0     N52322  -0.228   7.993   0.294  0.0522 -0.1866  0.0279
  397MOL0     N52323  -0.166   8.106   0.283  0.6682  0.1997  0.8736
  397MOL0     C52324   0.926   7.822   0.077  0.2186 -0.1031 -0.3581
  397MOL0     C52325   1.054   7.799   0.124 -0.1248 -0.0167 -0.0006
  397MOL0     C52326   1.387   7.714   0.433  0.9135  0.9353 -0.5926
  397MOL0     C52327   1.454   7.612   0.360 -0.6146 -0.5964 -0.3136
  397MOL0     C52328   1.579   7.562   0.403  0.4951 -0.0322  0.0046
  397MOL0     C52329   1.629   7.593   0.530 -0.2666 -0.8779  0.2343
  397MOL0     O52330   1.742   7.528   0.578  0.3016  0.7215 -0.9048
  397MOL0     C52331   1.826   7.588   0.680  0.0286 -1.0724 -0.4227
  397MOL0     C52332   1.944   7.501   0.702 -0.3851  0.2599  0.1213
  397MOL0     C52333   2.028   7.463   0.581  0.8939  0.0921 -0.1571
  397MOL0     C52334   2.158   7.391   0.611  0.0241 -0.0443  0.3599
  397MOL0     C52335   2.224   7.354   0.486  0.6913  1.0354  0.6126
  397MOL0     C52336   2.284   7.341   0.376 -0.3080 -0.0123 -0.2087
  397MOL0     C52337   1.565   7.706   0.599 -0.1717  0.1509  0.0671
  397MOL0     C52338   1.448   7.761   0.555  0.1897  0.2861  0.2618
  397MOL0     H52339   0.980   7.634   0.407  1.8276  2.4563  2.3721
  397MOL0     H52340   0.738   7.687   0.309 -0.8487 -0.5242 -0.1946
  397MOL0     H52341   0.640   8.004   0.139  0.3367 -0.1062  0.0267
  397MOL0     H52342   0.588   7.882   0.252 -0.1724 -0.4313  0.5556
  397MOL0     H52343   0.440   7.803   0.075 -2.2778  1.9559  2.9324
  397MOL0     H52344   0.496   7.955  -0.021  0.1537  1.8662  0.2216
  397MOL0     H52345   0.410   8.081   0.198 -1.6128  0.2730  2.0419
  397MOL0     H52346   0.350   7.928   0.243  0.1519  1.4305  0.9041
  397MOL0     H52347   0.276   8.090  -0.003 -2.0662  0.8911 -0.2327
  397MOL0     H52348   0.209   7.927   0.033 -0.4123  0.9149  0.7600
  397MOL0     H52349   0.128   8.022   0.257  1.1617  3.0248  1.8958
  397MOL0     H52350   0.047   8.078   0.101  1.3443  3.0888 -2.5287
  397MOL0     H52351   0.199   8.286   0.113  1.3038  0.9206  0.1954
  397MOL0     H52352   0.258   8.208   0.265  0.8313  0.8863 -0.7157
  397MOL0     H52353   0.109   8.395   0.304  0.9096 -0.2655 -0.3391
  397MOL0     H52354  -0.022   8.319   0.212 -0.0823 -2.7978 -0.2149
  397MOL0     H52355  -0.041   8.294   0.463 -1.3630  0.9321 -2.0638
  397MOL0     H52356   0.103   8.186   0.466 -0.4478 -1.9299  1.0213
  397MOL0     H52357  -0.038   7.997   0.562  0.6778 -0.5292 -0.8328
  397MOL0     H52358  -0.248   7.815   0.586  3.6547 -0.0462 -0.6418
  397MOL0     H52359  -0.207   7.715   0.455  0.3212 -0.5200  3.7348
  397MOL0     H52360  -0.414   7.779   0.332 -0.7613  1.8758 -0.2499
  397MOL0     H52361  -0.450   7.900   0.451  0.5052 -0.0507  2.5550
  397MOL0     H52362  -0.446   7.595   0.494 -3.0525 -0.0416 -2.3456
  397MOL0     H52363  -0.504   7.720   0.617  0.5859  2.3626  1.4132
  397MOL0     H52364  -0.684   7.591   0.479 -1.2785  0.9654  1.8934
  397MOL0     H52365  -0.649   7.691   0.348 -1.6740 -0.3257 -0.9408
  397MOL0     H52366  -0.905   7.693   0.360 -0.6131 -1.7724  0.0331
  397MOL0     H52367  -1.146   7.677   0.427 -1.7790 -2.5551  3.8749
  397MOL0     H52368  -1.515   7.920   0.685 -0.2521  0.6427  0.2710
  397MOL0     H52369  -1.761   7.860   0.717 -0.1447 -1.1956  1.6617
  397MOL0     H52370  -1.973   7.849   0.694 -0.1361  1.0873 -1.8505
  397MOL0     H52371  -2.027   7.689   0.730  1.4112  2.7642  2.0104
  397MOL0     H52372  -2.146   7.685   0.498 -0.7919 -0.0016 -0.7465
  397MOL0     H52373  -2.092   7.854   0.489  0.8022  0.2077  0.7765
  397MOL0     H52374  -2.322   7.843   0.556  0.0212 -0.5249 -0.3845
  397MOL0     H52375  -2.238   7.914   0.695  1.3759  1.3089 -0.3499
  397MOL0     H52376  -2.320   7.637   0.640 -0.1863  0.4852 -1.1017
  397MOL0     H52377  -2.217   7.678   0.782  0.6947 -2.7458 -1.7910
  397MOL0     H52378  -2.412   7.848   0.837 -2.1280  0.9769 -0.4385
  397MOL0     H52379  -2.441   7.674   0.875  0.8364  1.4434  1.0536
  397MOL0     H52380  -2.550   7.676   0.635 -0.3653  1.8999 -3.0412
  397MOL0     H52381  -2.571   7.852   0.658 -1.5368 -0.6330 -0.1964
  397MOL0     H52382  -2.700   7.655   0.858 -1.1687  1.4670  1.2839
  397MOL0     H52383  -2.701   7.830   0.863  1.0228 -0.7623  0.9225
  397MOL0     H52384  -2.821   7.813   0.631 -3.9693 -0.0413 -0.3492
  397MOL0     H52385  -2.922   7.780   0.769 -0.6835  0.7769 -2.1499
  397MOL0     H52386  -1.742   7.616   0.380  0.8504  1.8698 -1.7420
  397MOL0     H52387  -1.493   7.645   0.360 -2.8587  1.9548 -2.6066
  397MOL0     H52388  -1.081   7.898   0.782 -2.5969  1.8946 -3.1675
  397MOL0     H52389  -0.834   7.897   0.734 -0.7231 -1.4820  1.6243
  397MOL0     H52390   0.921   7.876  -0.017 -4.2426 -0.3954 -0.4787
  397MOL0     H52391   1.144   7.838   0.078  0.8468  0.8659  2.4611
  397MOL0     H52392   1.406   7.563   0.276  1.2974 -2.2567 -0.5174
  397MOL0     H52393   1.633   7.485   0.350  0.9293  0.6773 -0.6044
  397MOL0     H52394   1.774   7.616   0.772  0.2480  0.9299 -0.8640
  397MOL0     H52395   1.860   7.679   0.628  1.7533 -3.1397 -3.2521
  397MOL0     H52396   2.005   7.567   0.764  1.7564 -1.7792  0.3303
  397MOL0     H52397   1.909   7.428   0.776 -0.7156  1.5454  1.2657
  397MOL0     H52398   2.035   7.561   0.534 -0.8757  0.4897  0.3245
  397MOL0     H52399   1.959   7.406   0.517  0.2867 -2.1060  2.2617
  397MOL0     H52400   2.210   7.464   0.675 -0.6836  0.1962  0.6709
  397MOL0     H52401   2.151   7.303   0.675 -1.8027  1.2778  2.1010
  397MOL0     H52402   2.349   7.325   0.293 -0.3237 -1.5287  0.0384
  397MOL0     H52403   1.596   7.752   0.692 -0.5038 -0.6214  0.5681
  397MOL0     H52404   1.421   7.857   0.598  3.1542  3.2708 -3.8507
  398MOL0     O52405   2.448   5.341   4.206 -0.3163  0.3035  0.3275
  398MOL0     C52406   2.482   5.451   4.163 -0.1713  0.2187 -0.2153
  398MOL0     O52407   2.426   5.506   4.062 -0.0454  0.0518  0.4849
  398MOL0     C52408   2.328   5.433   4.002 -0.1986 -0.0453  0.3076
  398MOL0     C52409   2.344   5.320   3.919  0.2139  0.6170 -0.2051
  398MOL0     C52410   2.243   5.267   3.848  0.2632 -0.3727  0.2297
  398MOL0     C52411   2.116   5.308   3.875  0.2861 -0.2298  0.7720
  398MOL0     O52412   2.016   5.240   3.820  0.1094  0.9330  0.3522
  398MOL0     C52413   1.900   5.214   3.902  0.4749 -1.0628 -0.2727
  398MOL0     C52414   1.773   5.148   3.837 -0.3394 -0.6427  0.1551
  398MOL0     C52415   1.664   5.130   3.945  0.4488 -0.2464 -0.3436
  398MOL0     C52416   1.535   5.101   3.876  0.2957  0.4940 -0.4369
  398MOL0     C52417   1.428   5.056   3.976 -0.1177  0.3497  0.2508
  398MOL0     C52418   1.374   5.171   4.065  0.4162 -0.1536  0.1006
  398MOL0     C52419   1.274   5.108   4.169  0.4270  0.2885  0.5330
  398MOL0     C52420   1.226   5.213   4.273  0.0869 -0.1259 -0.6245
  398MOL0     N52421   1.196   5.338   4.213 -0.3257 -0.4353  0.2730
  398MOL0     C52422   1.086   5.372   4.133  0.0066  0.6633  0.8082
  398MOL0     C52423   1.099   5.497   4.084 -0.2678  0.0317  0.1599
  398MOL0     C52424   1.019   5.581   3.980  0.0694  0.6146 -0.0064
  398MOL0     C52425   1.002   5.728   4.027 -0.2388 -0.1652 -0.1252
  398MOL0     C52426   0.935   5.806   3.914  0.1206  0.0357 -0.3198
  398MOL0     C52427   0.931   5.945   3.966 -0.1375  0.0941  0.1870
  398MOL0     O52428   0.848   6.032   3.889  0.2619 -0.5403  0.6040
  398MOL0     C52429   0.713   6.010   3.899  1.2536 -1.4012  0.2404
  398MOL0     C52430   0.631   6.001   4.013 -0.3346  0.2135 -0.6840
  398MOL0     C52431   0.491   6.020   3.998  0.1578  0.4183  0.1535
  398MOL0     C52432   0.424   6.030   3.878 -0.0024  0.4636  0.0304
  398MOL0     C52433   0.279   6.021   3.872 -0.9235  0.7387  0.2115
  398MOL0     O52434   0.207   6.014   3.986  0.7394 -0.5517 -0.0302
  398MOL0     C52435   0.073   5.986   3.980 -0.7724  0.0555 -0.3608
  398MOL0     C52436  -0.004   5.949   3.865  0.6837  0.4219 -0.0823
  398MOL0     C52437  -0.143   5.927   3.885 -0.2902 -0.5961  0.8929
  398MOL0     C52438  -0.211   5.946   4.008  0.5551 -0.9114 -0.4784
  398MOL0     O52439  -0.345   5.932   4.042  0.4957  0.1899 -0.3294
  398MOL0     C52440  -0.428   5.864   3.950 -0.2145  0.2150 -0.3174
  398MOL0     C52441  -0.423   5.717   3.994 -0.2466 -0.5941  0.3664
  398MOL0     C52442  -0.549   5.654   3.948 -0.5820  0.1826  0.3013
  398MOL0     C52443  -0.564   5.510   3.989  0.5933 -0.7834  0.7101
  398MOL0     C52444  -0.709   5.468   3.987  0.3711  0.3946  0.0779
  398MOL0     C52445  -0.719   5.309   4.012  1.3903 -0.6103 -0.0111
  398MOL0     C52446  -0.865   5.269   4.059  0.0740  0.1025  0.4288
  398MOL0     C52447  -0.977   5.293   3.966 -0.8081  0.0824  0.1428
  398MOL0    Cl52448  -0.975   5.185   3.833  0.0583 -0.2080  0.6146
  398MOL0     C52449  -0.132   5.991   4.112 -0.0022 -0.3793 -0.6949
  398MOL0     C52450   0.001   6.019   4.100  0.3307 -0.2190 -0.0558
  398MOL0     O52451   0.240   6.040   3.756  0.2244 -0.1653 -0.2038
  398MOL0     C52452   0.506   6.044   3.766 -0.1622  1.2413  0.3642
  398MOL0     C52453   0.650   6.032   3.774 -0.0475 -0.2991  0.4938
  398MOL0     N52454   1.209   5.543   4.146  0.4295 -0.3354 -0.0277
  398MOL0     N52455   1.270   5.451   4.218 -0.6329 -0.2678 -0.0080
  398MOL0     C52456   2.097   5.420   3.961  0.2505 -0.2893 -0.4302
  398MOL0     C52457   2.198   5.483   4.023  0.0646  0.2745  0.4432
  398MOL0     C52458   2.608   5.514   4.214  0.0819  1.1272  0.1962
  398MOL0     C52459   2.658   5.477   4.337  1.3034 -0.1091 -0.6493
  398MOL0     C52460   2.787   5.532   4.377 -0.0790  0.6296 -0.0620
  398MOL0     C52461   2.855   5.630   4.301 -0.5998  0.1691 -0.1049
  398MOL0     O52462   2.981   5.685   4.336  0.4208 -0.0941 -0.0999
  398MOL0     C52463   3.024   5.661   4.468 -0.0065 -0.5026 -0.0231
  398MOL0     C52464   3.124   5.750   4.529  0.1154 -0.0389  0.2881
  398MOL0     C52465   3.272   5.724   4.480  0.3967 -0.0184 -0.0983
  398MOL0     C52466   3.326   5.593   4.538  0.0704  1.0881  0.3211
  398MOL0     C52467   3.462   5.573   4.483  0.1669  0.0438 -0.6319
  398MOL0     C52468   3.568   5.556   4.429 -0.1005  0.2630  0.0680
  398MOL0     C52469   2.788   5.673   4.185  0.8180 -0.0767 -0.6596
  398MOL0     C52470   2.666   5.612   4.136  0.6158  0.1364 -0.6029
  398MOL0     H52471   2.444   5.281   3.901 -0.2461 -0.8186  0.2465
  398MOL0     H52472   2.263   5.181   3.785 -1.8436 -1.7678  1.3419
  398MOL0     H52473   1.860   5.308   3.940 -0.3669 -1.5188 -0.0029
  398MOL0     H52474   1.934   5.155   3.987  0.3739 -0.8936 -0.1164
  398MOL0     H52475   1.794   5.050   3.794 -2.0369 -0.0040 -2.2958
  398MOL0     H52476   1.755   5.204   3.745  2.5712 -0.1465 -0.2198
  398MOL0     H52477   1.649   5.227   3.993  3.1880  1.6050 -2.8243
  398MOL0     H52478   1.703   5.057   4.016  0.1074 -2.0262 -1.9016
  398MOL0     H52479   1.494   5.184   3.819 -0.9996 -1.0455 -1.8651
  398MOL0     H52480   1.551   5.017   3.809 -2.3543 -0.2347 -0.2757
  398MOL0     H52481   1.469   4.973   4.034  1.3459  1.4174  0.8163
  398MOL0     H52482   1.338   5.025   3.922 -2.0844  3.7930  1.2410
  398MOL0     H52483   1.339   5.252   4.000  1.9094  1.5572  1.3204
  398MOL0     H52484   1.457   5.215   4.121 -0.5576  0.4768  1.0782
  398MOL0     H52485   1.185   5.072   4.118 -0.5063  2.5438  0.4460
  398MOL0     H52486   1.323   5.024   4.218 -1.0588  0.3804  2.2751
  398MOL0     H52487   1.315   5.229   4.335 -0.4608  0.4511  0.0310
  398MOL0     H52488   1.144   5.167   4.329 -0.3123 -2.0555 -2.6636
  398MOL0     H52489   1.014   5.299   4.097  0.8965 -1.0343  2.2875
  398MOL0     H52490   0.917   5.545   3.961  0.1381 -0.5203  1.5896
  398MOL0     H52491   1.072   5.579   3.885 -1.6685  2.8624 -1.1472
  398MOL0     H52492   1.102   5.771   4.039 -1.8537  3.5478  1.7608
  398MOL0     H52493   0.955   5.717   4.125  1.3294 -2.6537  0.4291
  398MOL0     H52494   0.989   5.794   3.819 -0.4908 -1.4412 -0.5114
  398MOL0     H52495   0.832   5.772   3.898  0.0283 -0.6148  1.5121
  398MOL0     H52496   1.036   5.972   3.962  0.3482 -1.4503  1.4357
  398MOL0     H52497   0.906   5.936   4.072 -1.3564  1.7966  0.0975
  398MOL0     H52498   0.678   5.975   4.108  0.4706  2.8425 -0.2944
  398MOL0     H52499   0.429   6.010   4.086 -0.2136  0.8991 -0.0513
  398MOL0     H52500   0.030   5.933   3.763  1.2865 -1.6966  0.4104
  398MOL0     H52501  -0.192   5.896   3.793  3.6374  0.2962 -1.7420
  398MOL0     H52502  -0.405   5.895   3.847  1.5395  1.9741  0.5218
  398MOL0     H52503  -0.523   5.916   3.963  0.4455  1.5576 -0.5990
  398MOL0     H52504  -0.416   5.708   4.103  1.0005  0.8508  0.4419
  398MOL0     H52505  -0.339   5.662   3.951 -0.9027 -3.0320  2.0214
  398MOL0     H52506  -0.556   5.676   3.841  0.1287  1.8752  0.5750
  398MOL0     H52507  -0.633   5.713   3.986  0.0510  0.4622  1.3024
  398MOL0     H52508  -0.505   5.460   3.911  1.6092  1.4425 -0.0314
  398MOL0     H52509  -0.511   5.492   4.083  2.0481  0.1774  0.1236
  398MOL0     H52510  -0.750   5.493   3.888  3.0991  0.2523 -1.1658
  398MOL0     H52511  -0.768   5.516   4.065  0.0143 -0.7240  0.5157
  398MOL0     H52512  -0.659   5.286   4.101 -0.6172  0.2771  1.6588
  398MOL0     H52513  -0.680   5.250   3.929  3.6147 -1.3980  1.4867
  398MOL0     H52514  -0.860   5.163   4.083 -1.6714 -0.0524  0.1993
  398MOL0     H52515  -0.900   5.317   4.151 -2.7703 -1.5681  0.3353
  398MOL0     H52516  -0.977   5.395   3.927 -2.3302  0.0691  0.0613
  398MOL0     H52517  -1.067   5.264   4.021 -1.6893 -1.3866 -1.9650
  398MOL0     H52518  -0.185   5.992   4.207  1.9464 -1.9059  0.4936
  398MOL0     H52519   0.058   6.047   4.188  1.4981 -1.8611 -0.2413
  398MOL0     H52520   0.472   6.068   3.665 -2.3328  1.9109  1.1908
  398MOL0     H52521   0.715   6.059   3.692  3.1482 -3.9760  1.5029
  398MOL0     H52522   1.995   5.453   3.974  0.4339  0.2538 -0.3720
  398MOL0     H52523   2.172   5.578   4.071 -1.2816 -0.8724  2.1392
  398MOL0     H52524   2.607   5.403   4.398 -0.3816  1.3154 -0.2452
  398MOL0     H52525   2.837   5.503   4.469  0.0665 -1.8425 -0.8452
  398MOL0     H52526   3.059   5.557   4.475 -2.6048 -1.4294  0.3273
  398MOL0     H52527   2.935   5.672   4.531 -0.3209  2.6606 -0.8493
  398MOL0     H52528   3.097   5.851   4.501 -1.5339 -0.5699 -0.1224
  398MOL0     H52529   3.111   5.756   4.637 -0.7532  2.4343  0.1023
  398MOL0     H52530   3.331   5.811   4.507  1.2896 -0.2588 -1.2014
  398MOL0     H52531   3.279   5.703   4.373  3.7887 -0.0876  0.0249
  398MOL0     H52532   3.329   5.607   4.646  0.9547 -1.7781  0.7407
  398MOL0     H52533   3.260   5.507   4.525  1.6392  0.0719 -1.5474
  398MOL0     H52534   3.668   5.538   4.394 -0.0014  1.7145 -0.4602
  398MOL0     H52535   2.834   5.754   4.130  0.0088  2.0507  1.6073
  398MOL0     H52536   2.621   5.638   4.041 -1.4028  0.1153  0.3001
  399MOL0     O52537   2.297   2.649   9.384  0.0914  0.3291 -1.2390
  399MOL0     C52538   2.292   2.771   9.352 -0.0584  0.4683 -0.0769
  399MOL0     O52539   2.179   2.839   9.316  0.2864 -0.0492  0.8460
  399MOL0     C52540   2.060   2.762   9.314 -0.6115 -0.3870 -0.7657
  399MOL0     C52541   2.006   2.711   9.426  0.4085  0.9707 -1.1256
  399MOL0     C52542   1.879   2.648   9.428  0.1556  0.0389  0.4926
  399MOL0     C52543   1.800   2.654   9.319  0.1374  0.1541 -0.5724
  399MOL0     O52544   1.678   2.605   9.338 -0.3361  0.2553  0.0065
  399MOL0     C52545   1.582   2.685   9.267 -0.0508 -0.0155 -0.7996
  399MOL0     C52546   1.452   2.618   9.293 -0.5104 -1.1840  0.2790
  399MOL0     C52547   1.414   2.620   9.440 -0.1979  0.5695 -0.1408
  399MOL0     C52548   1.286   2.536   9.470 -0.0905 -0.0594 -0.3992
  399MOL0     C52549   1.236   2.545   9.614  0.7266 -0.2413  0.4164
  399MOL0     C52550   1.105   2.475   9.642  0.8809 -0.3438  0.4579
  399MOL0     C52551   0.984   2.549   9.565 -0.0057 -0.3611 -0.0014
  399MOL0     C52552   0.845   2.505   9.606 -0.0914  0.5574 -0.3216
  399MOL0     N52553   0.793   2.574   9.731 -0.0595 -0.6875 -0.5300
  399MOL0     C52554   0.784   2.525   9.856  0.5592 -0.5791  0.4925
  399MOL0     C52555   0.747   2.627   9.938 -0.7465 -0.1472  0.0542
  399MOL0     C52556   0.734   2.605  10.089 -0.2629  0.0946 -0.4075
  399MOL0     C52557   0.593   2.656  10.133  0.2593 -0.1158 -0.0815
  399MOL0     C52558   0.554   2.584  10.264 -0.3504  0.4382 -0.5414
  399MOL0     C52559   0.410   2.632  10.316 -0.4432 -0.0302  0.0022
  399MOL0     O52560   0.303   2.568  10.240  0.1865  0.3057  0.9177
  399MOL0     C52561   0.180   2.548  10.288 -0.2780  0.1154  0.5972
  399MOL0     C52562   0.092   2.456  10.217  0.4720  0.1638 -0.1984
  399MOL0     C52563  -0.036   2.424  10.270 -0.3939  0.5499  0.1398
  399MOL0     C52564  -0.079   2.477  10.391 -0.7310  0.2546 -0.4797
  399MOL0     C52565  -0.218   2.461  10.433 -0.7127 -0.3603 -0.0656
  399MOL0     O52566  -0.318   2.450  10.341  0.1836  0.1411  0.1206
  399MOL0     C52567  -0.445   2.429  10.401 -0.2282 -0.2992 -0.8451
  399MOL0     C52568  -0.470   2.298  10.449  0.5916  0.7607  0.4223
  399MOL0     C52569  -0.595   2.267  10.499 -0.3382  0.1364 -0.3090
  399MOL0     C52570  -0.703   2.357  10.499  0.6292  0.2401 -1.0830
  399MOL0     O52571  -0.812   2.317  10.565 -0.5487 -0.3784  0.4544
  399MOL0     C52572  -0.944   2.379  10.537  0.3252  0.9266 -0.6194
  399MOL0     C52573  -0.999   2.449  10.658  0.3784 -0.5332 -0.5477
  399MOL0     C52574  -1.150   2.485  10.620 -0.1861  0.4766  0.4248
  399MOL0     C52575  -1.224   2.546  10.738  0.5957  0.3080 -1.0134
  399MOL0     C52576  -1.381   2.524  10.733 -0.2129  0.4456 -0.0549
  399MOL0     C52577  -1.456   2.578  10.855 -0.5623 -0.4919 -0.4612
  399MOL0     C52578  -1.601   2.569  10.826  0.1829  0.0033  0.1353
  399MOL0     C52579  -1.675   2.597  10.956  0.4211  0.8682  0.1333
  399MOL0    Cl52580  -1.825   2.666  10.911 -0.0434 -0.0360  0.1703
  399MOL0     C52581  -0.688   2.477  10.431  0.7100  0.3719 -0.3350
  399MOL0     C52582  -0.557   2.507  10.387  0.3802  0.2759  0.3099
  399MOL0     O52583  -0.239   2.478  10.553  0.5326 -0.1388 -0.3337
  399MOL0     C52584   0.009   2.564  10.467  0.1363 -0.0407  0.3192
  399MOL0     C52585   0.137   2.601  10.408  0.4617  0.9205 -0.0663
  399MOL0     N52586   0.736   2.736   9.862 -0.0904 -0.3265  0.3396
  399MOL0     N52587   0.753   2.702   9.736 -0.6958 -0.0121 -0.0821
  399MOL0     C52588   1.846   2.707   9.198  0.1260 -0.1691 -0.9620
  399MOL0     C52589   1.980   2.765   9.200 -0.5690  0.0954  0.5384
  399MOL0     C52590   2.408   2.852   9.376  0.3790 -0.4637  0.2365
  399MOL0     C52591   2.420   2.975   9.310  0.3381  0.0361 -0.3133
  399MOL0     C52592   2.542   3.036   9.314 -0.5281  0.1888  0.2142
  399MOL0     C52593   2.655   2.997   9.388  0.0859 -0.1611  0.3250
  399MOL0     O52594   2.764   3.075   9.387 -0.1133  0.0220  0.5956
  399MOL0     C52595   2.881   3.043   9.460 -0.8543  0.5176 -0.3910
  399MOL0     C52596   2.959   2.936   9.376 -0.6624 -0.4365 -0.5865
  399MOL0     C52597   3.111   2.918   9.411  1.1364 -0.6877  0.5141
  399MOL0     C52598   3.127   2.852   9.551  0.5894 -0.0578  0.3963
  399MOL0     C52599   3.138   2.955   9.652  0.5332 -0.4490 -0.0772
  399MOL0     C52600   3.150   3.046   9.728 -0.9017  0.8927 -0.1062
  399MOL0     C52601   2.632   2.880   9.463 -1.8137  0.0858  0.2758
  399MOL0     C52602   2.518   2.803   9.444  0.2502  1.1272  0.9799
  399MOL0     H52603   2.072   2.712   9.512 -3.2556 -1.0540  2.0336
  399MOL0     H52604   1.843   2.596   9.517  0.4915  1.7797  1.6948
  399MOL0     H52605   1.601   2.683   9.159 -0.1324  0.6272 -0.8336
  399MOL0     H52606   1.593   2.793   9.284 -0.8890 -0.1185  0.4893
  399MOL0     H52607   1.456   2.511   9.270  0.1603 -1.7109  2.5892
  399MOL0     H52608   1.377   2.671   9.234  1.0216  0.9302  0.1487
  399MOL0     H52609   1.399   2.725   9.466  0.0666  0.2538  1.3842
  399MOL0     H52610   1.497   2.591   9.505 -0.8553  1.7497  1.2977
  399MOL0     H52611   1.210   2.568   9.398 -1.7847 -4.3144 -0.7701
  399MOL0     H52612   1.296   2.432   9.437  2.3660  0.2990 -0.9901
  399MOL0     H52613   1.223   2.648   9.648 -2.6487 -0.5642  0.4544
  399MOL0     H52614   1.316   2.501   9.675  0.4663  0.8241  1.5710
  399MOL0     H52615   1.095   2.466   9.750  0.1139  2.2334  0.6750
  399MOL0     H52616   1.104   2.377   9.595  1.4710  1.7730 -4.6122
  399MOL0     H52617   0.995   2.657   9.583  1.9705 -0.5409  0.1181
  399MOL0     H52618   0.982   2.534   9.457  1.3382  1.1883 -0.2814
  399MOL0     H52619   0.840   2.396   9.612 -1.1954  0.2124 -4.6491
  399MOL0     H52620   0.791   2.522   9.513  1.7331  0.6477 -1.4251
  399MOL0     H52621   0.791   2.419   9.878 -0.1780 -0.1530  3.1307
  399MOL0     H52622   0.818   2.644  10.147  1.0606 -1.7545 -0.9994
  399MOL0     H52623   0.720   2.498  10.109  0.5359  0.2430  1.0451
  399MOL0     H52624   0.516   2.630  10.060  1.2146 -0.0502 -1.1295
  399MOL0     H52625   0.603   2.764  10.150  1.5791 -0.1090 -0.7870
  399MOL0     H52626   0.556   2.476  10.248 -3.0360  0.4714 -1.5756
  399MOL0     H52627   0.636   2.616  10.329  0.2715  1.6404 -1.8652
  399MOL0     H52628   0.399   2.740  10.303  3.7572  0.5214 -0.4407
  399MOL0     H52629   0.408   2.611  10.423  0.5687 -0.7792 -0.1130
  399MOL0     H52630   0.111   2.413  10.119  0.0641  2.5316 -1.3875
  399MOL0     H52631  -0.096   2.349  10.221  0.7876  0.0757 -0.6273
  399MOL0     H52632  -0.391   2.224  10.454 -0.6354 -1.0377 -3.0451
  399MOL0     H52633  -0.606   2.180  10.563  0.6346  0.6610  0.5982
  399MOL0     H52634  -1.010   2.292  10.529  0.0989  0.9471  0.7559
  399MOL0     H52635  -0.953   2.435  10.444  1.5108 -0.2113 -1.4540
  399MOL0     H52636  -0.947   2.535  10.702  1.3500 -1.3816 -0.0052
  399MOL0     H52637  -1.010   2.380  10.742  3.5586 -1.8196 -1.0515
  399MOL0     H52638  -1.204   2.399  10.580 -1.4499  1.2231  0.4693
  399MOL0     H52639  -1.154   2.555  10.535 -1.1433 -0.0735  0.0060
  399MOL0     H52640  -1.188   2.525  10.839 -0.0216  1.3355 -0.5643
  399MOL0     H52641  -1.221   2.655  10.741 -0.7301  0.3893  2.6398
  399MOL0     H52642  -1.403   2.417  10.724 -0.9801  0.5817  0.1726
  399MOL0     H52643  -1.411   2.565  10.636 -1.0436 -0.0133  0.0086
  399MOL0     H52644  -1.419   2.679  10.873  1.2580 -1.3459  0.8924
  399MOL0     H52645  -1.442   2.519  10.946 -0.7646  0.1213 -0.0247
  399MOL0     H52646  -1.633   2.644  10.752  0.8439 -1.4039 -1.6607
  399MOL0     H52647  -1.627   2.476  10.775 -0.2983  1.0332 -1.6201
  399MOL0     H52648  -1.628   2.663  11.030  0.4360  0.4566  0.4936
  399MOL0     H52649  -1.695   2.502  11.005  1.0565 -0.4977 -2.0826
  399MOL0     H52650  -0.768   2.547  10.413  1.4687  1.1991 -0.5824
  399MOL0     H52651  -0.546   2.597  10.328 -1.1085  0.0450 -0.3554
  399MOL0     H52652  -0.017   2.615  10.560 -0.5692  3.2063 -1.4796
  399MOL0     H52653   0.211   2.651  10.470 -0.8470  2.4546  0.3188
  399MOL0     H52654   1.796   2.710   9.102  1.6461 -0.7945 -1.8138
  399MOL0     H52655   2.024   2.805   9.110  1.0530 -0.7980  0.9012
  399MOL0     H52656   2.329   3.011   9.264 -0.4336 -0.5896  0.6732
  399MOL0     H52657   2.553   3.138   9.278 -0.3923 -0.2667 -1.0941
  399MOL0     H52658   2.850   3.007   9.559 -1.1624 -1.5378 -1.2002
  399MOL0     H52659   2.948   3.128   9.479 -0.8167  0.3636  0.2083
  399MOL0     H52660   2.900   2.845   9.389 -0.0466 -0.5273  2.1720
  399MOL0     H52661   2.952   2.965   9.271  3.1375 -0.1533 -0.9119
  399MOL0     H52662   3.164   3.014   9.413 -1.8196  1.1077 -0.5182
  399MOL0     H52663   3.167   2.855   9.342 -0.0610 -1.2102 -0.0060
  399MOL0     H52664   3.053   2.776   9.576 -0.2762  0.6591  0.0733
  399MOL0     H52665   3.223   2.800   9.547  0.5462 -0.0778 -0.7949
  399MOL0     H52666   3.175   3.110   9.811 -0.1858 -0.8318  1.0926
  399MOL0     H52667   2.718   2.842   9.516 -1.5733 -0.8329 -0.7273
  399MOL0     H52668   2.526   2.702   9.482  1.0290 -0.4464 -2.9242
  400MOL0     O52669   6.106   8.690   5.199 -0.3823 -0.4104 -0.3358
  400MOL0     C52670   6.130   8.580   5.148  0.0695 -0.7546  0.2757
  400MOL0     O52671   6.037   8.488   5.105  0.1644 -0.1377 -0.4136
  400MOL0     C52672   5.903   8.508   5.123  0.9554  1.0761 -0.1332
  400MOL0     C52673   5.839   8.629   5.103  1.1148  0.4794 -0.8973
  400MOL0     C52674   5.704   8.643   5.128 -0.0526  0.9024 -0.3485
  400MOL0     C52675   5.622   8.527   5.160 -0.6058 -0.0857  0.1208
  400MOL0     O52676   5.484   8.555   5.181  0.3272 -0.3393 -0.0502
  400MOL0     C52677   5.390   8.442   5.190 -0.1497 -0.7301 -0.6196
  400MOL0     C52678   5.246   8.484   5.155 -0.2119  0.1180 -0.6514
  400MOL0     C52679   5.143   8.372   5.187 -0.5001  0.0413  0.0379
  400MOL0     C52680   4.996   8.419   5.171  0.1434  0.7834 -0.1934
  400MOL0     C52681   4.902   8.296   5.173  0.1947  0.5214 -0.0259
  400MOL0     C52682   4.762   8.341   5.117 -0.1073  0.0796  0.2230
  400MOL0     C52683   4.654   8.230   5.141  0.1964  0.1438 -0.9467
  400MOL0     C52684   4.536   8.287   5.068  0.0529  0.0971 -0.6528
  400MOL0     N52685   4.436   8.178   5.068  0.0814 -0.7975 -0.0220
  400MOL0     C52686   4.324   8.176   5.154 -0.9879  0.5205  1.0757
  400MOL0     C52687   4.240   8.083   5.099 -0.2534  0.0288  0.5013
  400MOL0     C52688   4.107   8.042   5.144  0.5928  0.3437  0.1290
  400MOL0     C52689   4.093   8.074   5.294 -0.7796  0.2259  0.6051
  400MOL0     C52690   3.946   8.073   5.344 -0.3584  0.1030  0.4042
  400MOL0     C52691   3.895   7.934   5.367  0.5507  0.2222  0.0367
  400MOL0     O52692   3.781   7.938   5.448 -0.9454  0.4164  0.3573
  400MOL0     C52693   3.661   7.965   5.388 -0.6420 -0.1759  0.6616
  400MOL0     C52694   3.554   7.951   5.471 -0.7917 -1.0559 -0.1357
  400MOL0     C52695   3.423   7.999   5.431 -0.3731  0.7931  0.2825
  400MOL0     C52696   3.395   8.026   5.293  0.3919 -0.8274 -0.2312
  400MOL0     C52697   3.254   8.046   5.229  0.1360 -0.1235 -0.3108
  400MOL0     O52698   3.160   8.094   5.312 -0.2863  0.1919 -0.3631
  400MOL0     C52699   3.033   8.127   5.275  0.4900 -0.4567  0.1714
  400MOL0     C52700   2.993   8.183   5.152 -0.8138 -0.1547  0.4419
  400MOL0     C52701   2.849   8.207   5.130 -0.8955  0.4576  0.4579
  400MOL0     C52702   2.757   8.165   5.235 -0.4420  0.0737 -0.2448
  400MOL0     O52703   2.621   8.176   5.218 -0.2469  0.1521 -0.5706
  400MOL0     C52704   2.568   8.304   5.242 -0.7118 -0.0596  0.4535
  400MOL0     C52705   2.420   8.307   5.181 -0.2889 -0.8068 -0.0860
  400MOL0     C52706   2.299   8.233   5.257 -0.6570 -0.3722 -0.1227
  400MOL0     C52707   2.286   8.265   5.406  0.1143 -0.6081 -0.0642
  400MOL0     C52708   2.275   8.419   5.426  0.4829 -0.0932  0.2338
  400MOL0     C52709   2.261   8.459   5.570  0.2288  0.4801  0.4844
  400MOL0     C52710   2.396   8.472   5.648 -0.4236  0.5722  0.1024
  400MOL0     C52711   2.372   8.461   5.794 -0.2329  0.4924  0.3759
  400MOL0    Cl52712   2.285   8.605   5.846  0.3380 -0.0387 -0.4812
  400MOL0     C52713   2.806   8.114   5.357  0.6196  0.1477 -0.2282
  400MOL0     C52714   2.942   8.100   5.378  0.7570  0.0552 -0.2203
  400MOL0     O52715   3.243   8.033   5.110  0.1778  0.4341  0.3852
  400MOL0     C52716   3.501   8.026   5.203 -0.0503 -0.4669  0.2328
  400MOL0     C52717   3.632   8.001   5.250  0.2156  0.2459  0.0125
  400MOL0     N52718   4.306   8.031   4.980 -0.1092  0.6501  0.1348
  400MOL0     N52719   4.418   8.093   4.962  0.7021 -0.0149  0.2677
  400MOL0     C52720   5.688   8.401   5.159  0.3396  0.1639  0.1561
  400MOL0     C52721   5.830   8.392   5.152  0.0266  0.0009  0.7236
  400MOL0     C52722   6.272   8.545   5.130  0.2222 -0.1260  0.8359
  400MOL0     C52723   6.376   8.635   5.095  0.0914  0.4198  0.2235
  400MOL0     C52724   6.505   8.582   5.066 -0.3593 -0.6587  0.3599
  400MOL0     C52725   6.538   8.448   5.072  0.6327  0.6802 -0.3252
  400MOL0     O52726   6.659   8.426   5.016 -0.3501  0.1848  0.1794
  400MOL0     C52727   6.708   8.293   4.992  0.1375  0.0715  0.5303
  400MOL0     C52728   6.846   8.287   4.945 -0.7623  0.7338 -0.9029
  400MOL0     C52729   6.884   8.131   4.953 -0.0507 -0.1869  0.1481
  400MOL0     C52730   7.033   8.106   4.923 -0.9827 -0.1768 -0.1415
  400MOL0     C52731   7.065   7.963   4.918  0.5725 -0.0237  0.5672
  400MOL0     C52732   7.095   7.845   4.924  1.1830 -0.0309  1.2982
  400MOL0     C52733   6.431   8.355   5.118 -0.2358 -0.6994  0.5667
  400MOL0     C52734   6.306   8.405   5.148  0.0649  0.0780 -1.1518
  400MOL0     H52735   5.893   8.721   5.082  3.9159 -0.4650  1.5016
  400MOL0     H52736   5.645   8.733   5.122 -2.0539 -0.1927  1.3251
  400MOL0     H52737   5.386   8.423   5.298 -1.5009  5.4102  0.8353
  400MOL0     H52738   5.419   8.351   5.137  1.8081 -0.0840 -0.7174
  400MOL0     H52739   5.238   8.513   5.050 -1.8236 -1.2146 -0.9371
  400MOL0     H52740   5.213   8.571   5.212  0.5976  0.2565 -0.3778
  400MOL0     H52741   5.165   8.334   5.288  2.1425  0.1051 -0.4379
  400MOL0     H52742   5.177   8.292   5.119 -0.7436 -0.4563  0.4918
  400MOL0     H52743   4.972   8.487   5.252 -0.5227 -0.7421  0.9423
  400MOL0     H52744   4.987   8.465   5.072  1.5585 -2.0804 -1.8030
  400MOL0     H52745   4.879   8.279   5.278 -0.6041  0.8255 -0.1436
  400MOL0     H52746   4.935   8.203   5.126 -2.4071 -1.0559  1.0095
  400MOL0     H52747   4.781   8.367   5.013 -0.5970  3.3845  0.8225
  400MOL0     H52748   4.723   8.427   5.173  1.6396 -0.8895  3.1399
  400MOL0     H52749   4.685   8.139   5.089  1.6866  0.3640 -0.4797
  400MOL0     H52750   4.621   8.201   5.240  2.4235  0.5338 -0.0256
  400MOL0     H52751   4.559   8.303   4.963  0.6071  1.6048 -0.3229
  400MOL0     H52752   4.500   8.380   5.112 -2.5096  0.1728 -2.6762
  400MOL0     H52753   4.303   8.240   5.239  1.1955  3.3532 -0.3679
  400MOL0     H52754   4.095   7.937   5.117  1.2935  0.9454 -3.0080
  400MOL0     H52755   4.028   8.095   5.088  0.2162 -2.7939 -2.6386
  400MOL0     H52756   4.132   8.176   5.301  1.3264 -0.5821  1.3002
  400MOL0     H52757   4.159   8.017   5.358 -0.5915 -1.8590 -1.3223
  400MOL0     H52758   3.940   8.131   5.436  0.6857  0.6360  0.1496
  400MOL0     H52759   3.878   8.129   5.279  0.1986 -0.2550 -0.5033
  400MOL0     H52760   3.972   7.885   5.427  0.0490 -0.3831  0.1944
  400MOL0     H52761   3.882   7.870   5.278  0.5582  1.1106 -0.6153
  400MOL0     H52762   3.581   7.907   5.566  2.6924 -0.4989 -0.7361
  400MOL0     H52763   3.342   7.976   5.499 -1.8255 -3.1092 -2.3605
  400MOL0     H52764   3.068   8.210   5.078 -0.7883 -0.2036  0.4505
  400MOL0     H52765   2.808   8.253   5.041  0.3358 -0.3149 -0.5214
  400MOL0     H52766   2.627   8.386   5.199  1.2422 -0.2058  2.6688
  400MOL0     H52767   2.560   8.324   5.349 -3.5268 -1.3791  0.5766
  400MOL0     H52768   2.416   8.269   5.079 -1.3852  0.0210 -0.3663
  400MOL0     H52769   2.397   8.414   5.182  1.8268 -0.2978  0.6075
  400MOL0     H52770   2.310   8.125   5.241  0.6083  0.0241 -2.2754
  400MOL0     H52771   2.207   8.260   5.206 -0.7797  1.5143  1.0050
  400MOL0     H52772   2.192   8.223   5.443  0.0782  0.2317  0.8395
  400MOL0     H52773   2.373   8.225   5.460 -1.4908 -0.8005  2.5461
  400MOL0     H52774   2.187   8.454   5.371  1.9400 -0.3558 -2.4272
  400MOL0     H52775   2.366   8.460   5.382  0.5980 -2.3050 -1.8159
  400MOL0     H52776   2.214   8.376   5.624  4.7469 -1.6236  1.6123
  400MOL0     H52777   2.210   8.554   5.589  2.6080  1.8143  0.5618
  400MOL0     H52778   2.466   8.396   5.614 -1.1354  1.1979 -3.1177
  400MOL0     H52779   2.452   8.561   5.616 -0.4663 -0.0525 -1.8438
  400MOL0     H52780   2.468   8.461   5.846 -0.7499  0.8789  1.3428
  400MOL0     H52781   2.319   8.369   5.820 -0.6727  0.4709 -0.5504
  400MOL0     H52782   2.723   8.091   5.423  0.2955 -1.9584 -1.2977
  400MOL0     H52783   2.980   8.048   5.465  1.9730 -1.6899 -1.7196
  400MOL0     H52784   3.497   8.033   5.095  1.9674  0.8437  0.1911
  400MOL0     H52785   3.716   8.014   5.182 -0.2522  2.0512 -0.2678
  400MOL0     H52786   5.639   8.304   5.167  0.2786  0.1432 -0.3956
  400MOL0     H52787   5.890   8.302   5.152  2.3450  1.4327 -0.4034
  400MOL0     H52788   6.355   8.741   5.080 -4.8326 -0.4587 -0.6302
  400MOL0     H52789   6.583   8.650   5.032  0.7738 -1.5255  1.1283
  400MOL0     H52790   6.641   8.240   4.924 -0.2902 -0.4275  1.3253
  400MOL0     H52791   6.716   8.242   5.088  1.7654 -1.4937 -0.3923
  400MOL0     H52792   6.851   8.327   4.843 -1.7226  0.9865 -0.8620
  400MOL0     H52793   6.906   8.346   5.015 -0.4440 -0.6549  0.0281
  400MOL0     H52794   6.817   8.067   4.894 -1.4843 -2.5300  3.9435
  400MOL0     H52795   6.872   8.099   5.057  0.9002  0.1171  0.3612
  400MOL0     H52796   7.057   8.156   4.829  0.4155 -0.0844  0.2332
  400MOL0     H52797   7.082   8.154   5.009  1.4161 -0.8979 -1.0298
  400MOL0     H52798   7.088   7.738   4.928 -2.6806  0.0970  2.2298
  400MOL0     H52799   6.452   8.248   5.120  2.1149 -0.2997  0.3996
  400MOL0     H52800   6.234   8.330   5.181  2.3937 -1.4856  0.8085
  401MOL0     O52801  10.706  10.880   9.461 -0.2146  0.0502 -0.3063
  401MOL0     C52802  10.707  10.932   9.350 -1.2407  0.2951  0.4250
  401MOL0     O52803  10.610  10.922   9.254 -0.2651 -0.3673 -0.3916
  401MOL0     C52804  10.501  10.841   9.261 -0.6830 -0.6211  0.1975
  401MOL0     C52805  10.482  10.726   9.342  0.1212  1.0258  0.1676
  401MOL0     C52806  10.367  10.644   9.336  0.6316  0.2963 -0.1865
  401MOL0     C52807  10.266  10.681   9.249 -0.0321 -0.2154  0.2473
  401MOL0     O52808  10.148  10.609   9.243 -0.2570  0.2205 -0.3068
  401MOL0     C52809  10.029  10.655   9.177  0.4288 -0.0772 -0.6645
  401MOL0     C52810   9.903  10.590   9.237  0.3708  0.7276 -0.2782
  401MOL0     C52811   9.782  10.591   9.140 -0.3539  0.2424  0.2291
  401MOL0     C52812   9.661  10.526   9.210  0.1203 -0.2687  0.2004
  401MOL0     C52813   9.543  10.558   9.116 -0.5753 -0.3570 -0.1464
  401MOL0     C52814   9.415  10.485   9.172  0.4423 -0.6495  0.9907
  401MOL0     C52815   9.287  10.500   9.093 -0.5028  0.4592  0.5060
  401MOL0     C52816   9.314  10.464   8.942  0.0127 -0.5111  0.4099
  401MOL0     N52817   9.182  10.453   8.879  0.1397  0.2940 -0.2939
  401MOL0     C52818   9.089  10.554   8.864 -0.5903  0.6401 -0.2161
  401MOL0     C52819   8.984  10.491   8.803  0.6441 -0.0056 -0.6352
  401MOL0     C52820   8.852  10.561   8.755  0.6573  0.0306  0.4718
  401MOL0     C52821   8.887  10.679   8.666  0.0039  0.3894 -0.0330
  401MOL0     C52822   8.786  10.702   8.550 -0.2123 -0.3933 -0.3987
  401MOL0     C52823   8.827  10.826   8.476 -0.0797 -0.3790  0.2234
  401MOL0     O52824   8.797  10.949   8.547  0.3794  0.3709  0.1429
  401MOL0     C52825   8.669  11.000   8.544 -0.1214  0.3786  0.2308
  401MOL0     C52826   8.650  11.125   8.610 -0.1377  0.1353  0.2514
  401MOL0     C52827   8.529  11.204   8.596 -0.4807 -0.4293 -0.3518
  401MOL0     C52828   8.418  11.148   8.519 -0.3725  0.2759 -0.5288
  401MOL0     C52829   8.287  11.220   8.506 -0.1825  0.6374 -0.0169
  401MOL0     O52830   8.185  11.164   8.439  0.5409 -0.3791  0.3592
  401MOL0     C52831   8.079  11.252   8.420  0.5361  0.0181 -1.2488
  401MOL0     C52832   8.076  11.355   8.331  0.5671  0.8580 -0.0554
  401MOL0     C52833   7.957  11.431   8.315  0.6865  0.4842 -0.2142
  401MOL0     C52834   7.839  11.413   8.388  0.4635  0.0923  0.3644
  401MOL0     O52835   7.743  11.509   8.386  0.0642 -0.4865 -0.1065
  401MOL0     C52836   7.620  11.495   8.456 -0.3846 -0.0847  0.0272
  401MOL0     C52837   7.558  11.625   8.492 -0.0145 -0.6748 -0.1797
  401MOL0     C52838   7.464  11.691   8.395 -0.1662 -0.9222  0.2415
  401MOL0     C52839   7.412  11.825   8.451  0.2712 -0.3439  0.3172
  401MOL0     C52840   7.377  11.925   8.339  0.9066  0.0465 -0.0482
  401MOL0     C52841   7.323  12.056   8.396 -0.1735 -0.0049  0.2613
  401MOL0     C52842   7.187  12.039   8.461  0.7261  0.1322  0.6641
  401MOL0     C52843   7.076  11.958   8.383  0.5579 -0.4492  0.2686
  401MOL0    Cl52844   7.029  12.006   8.217 -0.1979 -0.1253 -0.2334
  401MOL0     C52845   7.837  11.297   8.461  0.3644 -0.3506 -0.5767
  401MOL0     C52846   7.954  11.218   8.477  0.1734 -0.4819 -0.8379
  401MOL0     O52847   8.281  11.323   8.575  0.0731 -0.3666 -0.1607
  401MOL0     C52848   8.440  11.013   8.470  0.8294 -0.2022 -0.4331
  401MOL0     C52849   8.557  10.944   8.478  0.0094  0.1561 -0.2151
  401MOL0     N52850   9.022  10.356   8.776  0.4661 -0.3907  0.1977
  401MOL0     N52851   9.140  10.336   8.815 -0.9295  0.3249  0.5440
  401MOL0     C52852  10.278  10.791   9.158  0.0508 -0.9388 -0.2589
  401MOL0     C52853  10.395  10.868   9.169 -0.2823 -0.5451 -0.0617
  401MOL0     C52854  10.827  11.014   9.318 -0.8911  0.6926  0.0575
  401MOL0     C52855  10.945  11.009   9.393 -0.3312 -0.0508  0.1255
  401MOL0     C52856  11.060  11.073   9.358 -0.6373 -0.5883  0.1396
  401MOL0     C52857  11.058  11.172   9.254 -0.5222  0.0407 -0.0085
  401MOL0     O52858  11.169  11.236   9.206  0.6808 -0.0336 -0.0697
  401MOL0     C52859  11.278  11.241   9.298 -0.4980 -0.0385 -0.9258
  401MOL0     C52860  11.386  11.334   9.259 -0.0898 -0.5302  0.0147
  401MOL0     C52861  11.325  11.476   9.240  0.5194 -0.5602  0.4299
  401MOL0     C52862  11.428  11.574   9.182  1.1119  0.1226  0.1649
  401MOL0     C52863  11.367  11.711   9.162 -0.7001 -0.0350 -0.0023
  401MOL0     C52864  11.320  11.817   9.143  0.0588 -0.1457 -0.0594
  401MOL0     C52865  10.937  11.186   9.187 -0.1139 -0.4241 -0.0978
  401MOL0     C52866  10.826  11.102   9.211  0.3002 -0.5688  0.7112
  401MOL0     H52867  10.564  10.705   9.409 -0.7658  0.3061  1.0561
  401MOL0     H52868  10.355  10.565   9.409 -0.4968 -0.1625 -0.8495
  401MOL0     H52869  10.033  10.613   9.076  2.0710 -1.2924 -0.1298
  401MOL0     H52870  10.013  10.763   9.192  0.4115 -0.3483  1.5149
  401MOL0     H52871   9.865  10.620   9.335  0.6301 -2.6142  0.9568
  401MOL0     H52872   9.928  10.485   9.254  0.5412  0.6358 -1.0393
  401MOL0     H52873   9.816  10.544   9.047  0.5724  1.4668 -0.0857
  401MOL0     H52874   9.748  10.692   9.115 -1.1114  0.0625  0.5054
  401MOL0     H52875   9.671  10.417   9.205 -2.1102 -0.4700 -1.2966
  401MOL0     H52876   9.646  10.566   9.311  0.4284  0.1493  0.0819
  401MOL0     H52877   9.560  10.515   9.017 -4.0669 -3.4101  0.3782
  401MOL0     H52878   9.526  10.666   9.109 -0.0372 -0.2297  0.4757
  401MOL0     H52879   9.398  10.513   9.277 -0.0368 -2.5323  1.4472
  401MOL0     H52880   9.423  10.376   9.166 -1.5279 -1.0845  4.0201
  401MOL0     H52881   9.212  10.427   9.126 -0.3394 -0.7600 -1.5823
  401MOL0     H52882   9.261  10.606   9.102 -0.7397  1.0059 -4.1147
  401MOL0     H52883   9.369  10.372   8.925  2.2436  0.7315  0.4595
  401MOL0     H52884   9.364  10.547   8.892 -1.1029  0.1262  0.3076
  401MOL0     H52885   9.094  10.659   8.891 -2.0182  0.1042  2.4341
  401MOL0     H52886   8.796  10.598   8.842  2.2916  4.6227 -0.1358
  401MOL0     H52887   8.791  10.486   8.705  1.0547 -0.5931  0.9163
  401MOL0     H52888   8.988  10.666   8.627 -1.3110  1.7988 -4.4073
  401MOL0     H52889   8.878  10.764   8.735 -0.7634 -0.0551  0.4372
  401MOL0     H52890   8.788  10.621   8.477 -1.5002  0.9241 -1.9557
  401MOL0     H52891   8.687  10.705   8.597  0.3687 -0.2960  0.8687
  401MOL0     H52892   8.773  10.828   8.380  2.4775 -0.3113 -1.3086
  401MOL0     H52893   8.931  10.829   8.444  0.4127  2.0076  1.7436
  401MOL0     H52894   8.736  11.161   8.666  1.4999 -2.3088 -0.5029
  401MOL0     H52895   8.525  11.301   8.644 -0.9217 -1.5576  2.0128
  401MOL0     H52896   8.166  11.365   8.271 -0.1187 -2.6798 -1.9700
  401MOL0     H52897   7.956  11.522   8.256 -1.7298  0.7697  0.1316
  401MOL0     H52898   7.638  11.441   8.549 -0.2066 -2.0580 -1.0879
  401MOL0     H52899   7.549  11.437   8.395  1.2398 -0.1426 -1.9352
  401MOL0     H52900   7.633  11.703   8.503 -1.5611  0.9587 -0.8274
  401MOL0     H52901   7.508  11.620   8.590 -2.3684 -0.5560 -1.3201
  401MOL0     H52902   7.382  11.621   8.376  1.5481 -3.6023  2.1252
  401MOL0     H52903   7.510  11.708   8.298 -2.1259 -1.3806 -0.8294
  401MOL0     H52904   7.326  11.811   8.517  1.8980  0.9853  2.8691
  401MOL0     H52905   7.480  11.878   8.519 -1.8097  0.9492  1.4856
  401MOL0     H52906   7.302  11.895   8.265  0.8621  0.9511 -0.3806
  401MOL0     H52907   7.473  11.943   8.288  3.0145 -3.9019  2.0702
  401MOL0     H52908   7.305  12.122   8.311 -3.9408  0.6492  1.3871
  401MOL0     H52909   7.390  12.095   8.474 -2.1937 -0.0169  2.0991
  401MOL0     H52910   7.195  11.995   8.560 -1.7309  2.3401  1.9575
  401MOL0     H52911   7.151  12.141   8.478 -1.5326 -0.5915  0.6126
  401MOL0     H52912   6.981  11.955   8.438  0.5633 -0.1220  0.2989
  401MOL0     H52913   7.106  11.854   8.367  1.6174  0.1921 -2.3687
  401MOL0     H52914   7.748  11.270   8.516  0.1148  0.0794 -0.7585
  401MOL0     H52915   7.944  11.132   8.542 -3.5079 -1.0751 -1.9622
  401MOL0     H52916   8.357  10.956   8.430 -1.4621  2.2326  0.4970
  401MOL0     H52917   8.554  10.849   8.426 -0.9580  1.0370 -1.8629
  401MOL0     H52918  10.213  10.835   9.083  0.0541  0.2209  0.3911
  401MOL0     H52919  10.406  10.941   9.090 -0.3527 -0.0656  0.3728
  401MOL0     H52920  10.952  10.930   9.467 -1.0061  1.4607  1.8907
  401MOL0     H52921  11.155  11.051   9.406 -2.2858  1.5750  5.0130
  401MOL0     H52922  11.319  11.140   9.294  2.6581  1.1288 -0.9839
  401MOL0     H52923  11.249  11.266   9.400  0.2264 -1.1708 -0.4221
  401MOL0     H52924  11.459  11.342   9.340 -0.3277  1.6090  0.0745
  401MOL0     H52925  11.440  11.299   9.170  2.4598  0.6646  0.9786
  401MOL0     H52926  11.286  11.508   9.337  1.0766 -0.9470  0.7829
  401MOL0     H52927  11.237  11.458   9.177  0.8696  1.5706 -0.7802
  401MOL0     H52928  11.518  11.589   9.242  1.3780 -0.7825  0.0075
  401MOL0     H52929  11.465  11.527   9.091 -0.6072  0.0364 -0.5283
  401MOL0     H52930  11.269  11.910   9.127 -2.9092 -1.4548  1.0383
  401MOL0     H52931  10.946  11.259   9.107  2.6712 -1.4797 -0.8623
  401MOL0     H52932  10.734  11.115   9.154 -1.0509 -1.6031  2.5253
  402MOL0     O52933   0.484   9.892   3.346 -0.5273 -0.8322 -0.2567
  402MOL0     C52934   0.515   9.996   3.405  0.3875  0.0350  0.3524
  402MOL0     O52935   0.425  10.096   3.451 -0.1089 -0.4304  0.0599
  402MOL0     C52936   0.294  10.063   3.436  0.9211 -0.0392  0.8222
  402MOL0     C52937   0.222  10.074   3.316  0.3457 -0.7632  0.0523
  402MOL0     C52938   0.087  10.043   3.303 -0.4509  0.9910 -0.2138
  402MOL0     C52939   0.018   9.982   3.410 -0.2026 -0.5752 -0.6210
  402MOL0     O52940  -0.114   9.943   3.405  0.4422 -0.7710 -0.0246
  402MOL0     C52941  -0.175   9.857   3.306 -0.7430 -0.4888 -0.1026
  402MOL0     C52942  -0.326   9.856   3.338  0.7868  0.9038  0.1755
  402MOL0     C52943  -0.352   9.775   3.468  0.9171  0.1357 -0.5070
  402MOL0     C52944  -0.504   9.769   3.515  0.7476 -0.1908  0.1190
  402MOL0     C52945  -0.506   9.726   3.659  0.4591  0.1452 -0.3656
  402MOL0     C52946  -0.656   9.698   3.707 -0.0926 -0.4425 -0.3372
  402MOL0     C52947  -0.695   9.559   3.659  0.0870 -0.0235 -0.4851
  402MOL0     C52948  -0.652   9.428   3.749  0.7963 -0.9824  0.3391
  402MOL0     N52949  -0.680   9.429   3.895  0.0833  0.2187  0.1047
  402MOL0     C52950  -0.802   9.472   3.946  0.2746 -0.3422 -0.6286
  402MOL0     C52951  -0.786   9.460   4.080  0.1001  0.0249  0.1081
  402MOL0     C52952  -0.881   9.509   4.183  1.3959 -0.0148  0.6255
  402MOL0     C52953  -0.893   9.416   4.299  0.5289  0.2426 -0.5402
  402MOL0     C52954  -1.011   9.452   4.392  0.0048  0.4369 -0.2672
  402MOL0     C52955  -1.029   9.350   4.509  0.2993  0.0116  0.3812
  402MOL0     O52956  -1.102   9.393   4.620  0.0406  0.0701  0.3266
  402MOL0     C52957  -1.237   9.421   4.601 -0.2578 -0.6046  0.7347
  402MOL0     C52958  -1.306   9.367   4.495  0.5629 -0.3339  0.8685
  402MOL0     C52959  -1.446   9.400   4.479  0.1279 -0.0529  0.2775
  402MOL0     C52960  -1.503   9.493   4.569  0.3438 -0.2342  0.8945
  402MOL0     C52961  -1.643   9.528   4.564 -0.2028  1.2324  0.1853
  402MOL0     O52962  -1.713   9.452   4.479  1.4519 -0.2784  0.5594
  402MOL0     C52963  -1.850   9.454   4.467 -0.0651 -0.3863 -0.2286
  402MOL0     C52964  -1.905   9.517   4.352 -0.2399  0.8491 -0.0031
  402MOL0     C52965  -2.046   9.519   4.335  0.1089 -0.1099 -0.4729
  402MOL0     C52966  -2.130   9.470   4.442 -0.0540 -0.5546  0.3533
  402MOL0     O52967  -2.269   9.466   4.434 -0.4532 -0.0977  0.8602
  402MOL0     C52968  -2.334   9.477   4.314  0.3272  1.1556 -0.2709
  402MOL0     C52969  -2.471   9.402   4.318  0.2243 -0.6211  0.0102
  402MOL0     C52970  -2.556   9.430   4.450 -0.5042 -0.2168  0.3901
  402MOL0     C52971  -2.694   9.378   4.403 -0.6374 -0.1718 -0.2837
  402MOL0     C52972  -2.807   9.432   4.497 -0.1420  1.1726 -0.2498
  402MOL0     C52973  -2.932   9.361   4.460 -0.2649  0.4482  0.3801
  402MOL0     C52974  -3.037   9.386   4.574 -0.3859  0.4366  0.5933
  402MOL0     C52975  -3.170   9.316   4.544 -0.6610 -0.4234  0.4754
  402MOL0    Cl52976  -3.136   9.143   4.487  0.6192  0.5397 -0.3558
  402MOL0     C52977  -2.071   9.407   4.553  0.1119  0.6274  0.0866
  402MOL0     C52978  -1.933   9.397   4.560 -0.2835 -0.4437 -0.5829
  402MOL0     O52979  -1.688   9.610   4.640  0.3430 -0.0827  0.3449
  402MOL0     C52980  -1.419   9.557   4.671  0.0159  0.9183 -1.0115
  402MOL0     C52981  -1.293   9.516   4.693 -0.4631  0.1373 -0.0791
  402MOL0     N52982  -0.655   9.402   4.103 -0.0339 -0.1080 -0.1275
  402MOL0     N52983  -0.590   9.401   3.990  0.4305  0.1007 -0.6613
  402MOL0     C52984   0.097   9.958   3.529  0.0833 -0.1516  0.0519
  402MOL0     C52985   0.223  10.012   3.548 -0.2661 -0.3065  0.2492
  402MOL0     C52986   0.651  10.026   3.445  0.6389 -0.0648 -0.9240
  402MOL0     C52987   0.684  10.119   3.543  0.0452  0.2862  0.9395
  402MOL0     C52988   0.817  10.134   3.586  0.7994  0.0931 -0.0527
  402MOL0     C52989   0.927  10.084   3.516  0.3150 -0.7181  0.4894
  402MOL0     O52990   1.049  10.100   3.575  0.4694 -0.0172  0.4741
  402MOL0     C52991   1.162  10.054   3.510  0.4994  0.1493 -0.2262
  402MOL0     C52992   1.270  10.065   3.618  0.3317  0.2225  0.1327
  402MOL0     C52993   1.403  10.017   3.560  0.5408 -0.9164 -0.0621
  402MOL0     C52994   1.408   9.864   3.564  0.1697 -0.3235 -0.0768
  402MOL0     C52995   1.537   9.821   3.511 -0.2950 -0.5243  0.5315
  402MOL0     C52996   1.642   9.791   3.449 -0.1591 -0.0550 -0.1266
  402MOL0     C52997   0.892  10.004   3.405 -0.4861 -0.1263  1.0978
  402MOL0     C52998   0.760   9.973   3.369 -0.7151 -0.4642 -0.2618
  402MOL0     H52999   0.271  10.117   3.230 -0.1838  0.6564  0.4223
  402MOL0     H53000   0.026  10.064   3.216 -0.8512  1.0031  0.0664
  402MOL0     H53001  -0.130   9.757   3.306 -0.0430 -0.1872  0.3465
  402MOL0     H53002  -0.154   9.901   3.208  1.0982 -4.1141 -1.5307
  402MOL0     H53003  -0.385   9.818   3.254  1.3331  2.3955 -0.9268
  402MOL0     H53004  -0.354   9.962   3.346 -2.1235  0.2563 -0.2402
  402MOL0     H53005  -0.309   9.810   3.562 -0.5635  2.1205 -0.5145
  402MOL0     H53006  -0.320   9.671   3.456 -1.0903 -0.6349  0.3213
  402MOL0     H53007  -0.563   9.861   3.507 -0.8301 -1.2759 -1.3934
  402MOL0     H53008  -0.548   9.687   3.458  1.2075 -1.5993  1.7095
  402MOL0     H53009  -0.479   9.811   3.723 -1.8360  0.0388  0.8586
  402MOL0     H53010  -0.446   9.640   3.690  1.1452  0.7014 -0.1175
  402MOL0     H53011  -0.724   9.773   3.665 -0.7053 -0.1387  1.1531
  402MOL0     H53012  -0.666   9.697   3.816 -1.6583  0.1785 -0.4603
  402MOL0     H53013  -0.804   9.565   3.662  0.0364 -0.8697  1.7236
  402MOL0     H53014  -0.667   9.548   3.554 -2.0433 -0.2777 -1.0852
  402MOL0     H53015  -0.543   9.415   3.754  0.7089 -2.3174 -0.5283
  402MOL0     H53016  -0.693   9.333   3.712 -0.6140  0.0250 -0.8139
  402MOL0     H53017  -0.886   9.508   3.889 -0.1657  0.3286  0.4053
  402MOL0     H53018  -0.978   9.516   4.132  1.5324 -1.1837  0.1803
  402MOL0     H53019  -0.848   9.610   4.208  0.1959  0.6520 -0.3886
  402MOL0     H53020  -0.801   9.422   4.358  0.8575  1.2653 -1.1287
  402MOL0     H53021  -0.899   9.315   4.257  2.2644 -0.6804  1.2873
  402MOL0     H53022  -0.994   9.554   4.427 -0.1560  0.8804 -1.4197
  402MOL0     H53023  -1.102   9.452   4.330 -0.3043 -0.8200  0.1559
  402MOL0     H53024  -0.927   9.331   4.543  0.1181  0.7784  1.4096
  402MOL0     H53025  -1.068   9.258   4.466 -1.2034  1.9042 -2.6758
  402MOL0     H53026  -1.266   9.288   4.432  0.7255  1.2825 -1.1490
  402MOL0     H53027  -1.503   9.348   4.403  0.0485  0.9581 -0.3864
  402MOL0     H53028  -1.846   9.551   4.268 -2.1098 -0.3323 -1.9178
  402MOL0     H53029  -2.089   9.551   4.240 -1.1525 -0.9826 -0.2301
  402MOL0     H53030  -2.277   9.431   4.232 -3.2631 -0.2004 -2.2095
  402MOL0     H53031  -2.358   9.581   4.288  0.5275  1.0137 -1.0459
  402MOL0     H53032  -2.462   9.293   4.323 -0.0829 -0.5999  1.3929
  402MOL0     H53033  -2.523   9.435   4.227  0.1966  0.0619  0.2652
  402MOL0     H53034  -2.577   9.535   4.473  0.6428 -0.0463  0.6717
  402MOL0     H53035  -2.519   9.382   4.540 -1.2319 -0.0351  0.8008
  402MOL0     H53036  -2.729   9.400   4.302 -1.3751  0.4672  0.0967
  402MOL0     H53037  -2.676   9.270   4.399  2.2620  0.1510  0.9439
  402MOL0     H53038  -2.824   9.539   4.476  2.2276  1.2241 -2.4673
  402MOL0     H53039  -2.784   9.405   4.600 -1.2665  0.0165 -0.2833
  402MOL0     H53040  -2.908   9.255   4.447  1.0124  0.2506  3.4973
  402MOL0     H53041  -2.962   9.393   4.359 -1.4890 -1.7436 -0.0152
  402MOL0     H53042  -2.986   9.342   4.659 -0.6167  0.1541  0.5845
  402MOL0     H53043  -3.058   9.494   4.576 -1.1372  0.2921  0.9495
  402MOL0     H53044  -3.225   9.357   4.459 -1.0096 -2.8542 -0.5622
  402MOL0     H53045  -3.235   9.309   4.632  0.7460 -1.3861  1.4841
  402MOL0     H53046  -2.141   9.370   4.627 -1.1970  1.0727 -0.8805
  402MOL0     H53047  -1.885   9.359   4.649  1.0525  1.2434 -0.5414
  402MOL0     H53048  -1.466   9.628   4.739  0.2264  1.9426 -1.9134
  402MOL0     H53049  -1.232   9.561   4.771 -0.1897  1.6111 -1.1010
  402MOL0     H53050   0.052   9.901   3.610 -0.6792  0.6335  0.1949
  402MOL0     H53051   0.268   9.995   3.645 -0.6841 -0.5037  0.4105
  402MOL0     H53052   0.602  10.171   3.592 -2.0726 -2.8868  1.0687
  402MOL0     H53053   0.844  10.182   3.680 -1.0833 -1.9897  1.6479
  402MOL0     H53054   1.163  10.136   3.438 -1.9183  0.1170 -0.3911
  402MOL0     H53055   1.152   9.952   3.470  0.5298  0.3066 -0.6422
  402MOL0     H53056   1.277  10.167   3.656 -2.2097  1.4867 -2.3815
  402MOL0     H53057   1.245   9.999   3.702 -1.0909  0.1762 -0.2954
  402MOL0     H53058   1.484  10.052   3.623 -0.0258  1.4221 -0.5572
  402MOL0     H53059   1.412  10.066   3.462 -2.6271 -0.5849 -0.3010
  402MOL0     H53060   1.398   9.833   3.668 -0.7904 -1.9111 -0.6093
  402MOL0     H53061   1.324   9.826   3.505 -0.6562  0.8486  0.2868
  402MOL0     H53062   1.738   9.766   3.410 -0.7762  0.8282 -2.4298
  402MOL0     H53063   0.967   9.950   3.347 -1.2626 -0.7889  0.6973
  402MOL0     H53064   0.737   9.894   3.298 -0.3019 -1.3970  0.6153
  403MOL0     O53065   3.792   2.603   0.211 -0.3169 -0.1633 -0.5940
  403MOL0     C53066   3.829   2.710   0.268 -0.7232  0.7061 -0.7331
  403MOL0     O53067   3.748   2.791   0.340 -0.1294 -0.5625 -0.0476
  403MOL0     C53068   3.629   2.736   0.367 -0.0036  0.2877  0.6338
  403MOL0     C53069   3.525   2.760   0.275 -1.3858 -0.3814  0.1988
  403MOL0     C53070   3.399   2.709   0.307 -0.1561 -0.3468  0.9927
  403MOL0     C53071   3.374   2.618   0.409 -0.0354  0.9200 -0.4943
  403MOL0     O53072   3.248   2.563   0.435  0.5685  0.7897 -0.5561
  403MOL0     C53073   3.134   2.584   0.347  0.4243 -1.2544  0.9831
  403MOL0     C53074   3.031   2.483   0.370 -0.4337 -0.1449  0.7987
  403MOL0     C53075   2.899   2.498   0.287 -0.1799 -0.1386  0.1658
  403MOL0     C53076   2.789   2.467   0.398  0.0882  0.6623 -0.3655
  403MOL0     C53077   2.653   2.451   0.338  0.1893 -0.6874  0.0111
  403MOL0     C53078   2.559   2.428   0.456 -0.2815  0.1672 -0.3478
  403MOL0     C53079   2.410   2.433   0.407  0.5546  0.2583 -0.2612
  403MOL0     C53080   2.313   2.377   0.513  0.6534 -0.0173 -0.5529
  403MOL0     N53081   2.349   2.244   0.557  0.5547  0.9263  0.7195
  403MOL0     C53082   2.387   2.204   0.688  0.2275 -1.0483 -0.0289
  403MOL0     C53083   2.382   2.069   0.690  0.1728 -0.2349  0.1602
  403MOL0     C53084   2.418   1.988   0.811 -0.0025  0.3221 -0.2310
  403MOL0     C53085   2.510   1.872   0.770 -0.5959  0.0419  0.9129
  403MOL0     C53086   2.520   1.773   0.887 -0.1779  0.5162  0.8178
  403MOL0     C53087   2.388   1.702   0.918 -0.6090  0.4459 -0.2336
  403MOL0     O53088   2.322   1.678   0.790  0.2010  0.1379 -0.3716
  403MOL0     C53089   2.223   1.578   0.790 -0.4566 -1.0949 -0.2223
  403MOL0     C53090   2.120   1.570   0.887  0.4667  0.6981  0.6037
  403MOL0     C53091   2.020   1.473   0.881 -0.2728  0.0715 -0.5891
  403MOL0     C53092   2.015   1.391   0.772  0.1753 -0.5125 -0.9925
  403MOL0     C53093   1.924   1.274   0.776 -0.6042  0.2149  0.0223
  403MOL0     O53094   1.858   1.251   0.899  0.0443 -0.0769 -0.5651
  403MOL0     C53095   1.727   1.209   0.906 -0.1000  0.1851  0.2337
  403MOL0     C53096   1.682   1.106   0.823  0.0246 -0.4775 -0.7121
  403MOL0     C53097   1.547   1.066   0.830  0.3751  0.0635  0.6575
  403MOL0     C53098   1.454   1.122   0.914 -0.0790  0.1649  0.3743
  403MOL0     O53099   1.323   1.079   0.929  0.4951  0.1907 -0.9809
  403MOL0     C53100   1.289   0.948   0.873  0.5737  0.0292  0.4271
  403MOL0     C53101   1.142   0.936   0.873  0.6833 -0.5338  0.6745
  403MOL0     C53102   1.072   0.960   1.013  0.6890 -0.2774 -0.2304
  403MOL0     C53103   0.924   0.957   1.002  0.9816  0.5079  0.0695
  403MOL0     C53104   0.864   0.998   1.139  0.3009  0.4842  0.9394
  403MOL0     C53105   0.713   0.996   1.137  0.3983  0.1531 -0.9283
  403MOL0     C53106   0.659   1.017   1.285  0.4801 -0.9002  0.8335
  403MOL0     C53107   0.524   0.946   1.302  0.2853 -1.5050  0.3480
  403MOL0    Cl53108   0.538   0.774   1.271 -0.2565 -0.3481  0.0487
  403MOL0     C53109   1.501   1.220   1.000 -0.2493  0.0638 -0.6002
  403MOL0     C53110   1.633   1.266   0.997 -0.7364  0.7174  0.3107
  403MOL0     O53111   1.914   1.207   0.676 -0.5017  0.4376  0.5864
  403MOL0     C53112   2.115   1.403   0.675 -0.0372 -0.5397  0.3885
  403MOL0     C53113   2.223   1.488   0.682 -0.2186 -0.1620 -0.1609
  403MOL0     N53114   2.347   2.029   0.565 -0.0062  0.2012  0.6630
  403MOL0     N53115   2.312   2.128   0.491  0.5898  0.3848  0.0220
  403MOL0     C53116   3.482   2.577   0.486 -0.6998  0.0408 -0.5445
  403MOL0     C53117   3.610   2.636   0.468  0.8677 -0.5711 -0.3159
  403MOL0     C53118   3.966   2.757   0.236  0.1032  0.2967 -0.0437
  403MOL0     C53119   4.016   2.886   0.270  0.7463  0.9109 -0.3848
  403MOL0     C53120   4.142   2.925   0.235 -0.3637  0.6898  0.0711
  403MOL0     C53121   4.227   2.834   0.181  0.0317  1.1723  0.0783
  403MOL0     O53122   4.348   2.878   0.143  0.1806 -1.1563  1.5711
  403MOL0     C53123   4.451   2.785   0.104  0.2101 -0.5843 -0.0828
  403MOL0     C53124   4.590   2.851   0.097 -0.3392 -0.1710  0.2666
  403MOL0     C53125   4.706   2.774   0.065  0.3784 -0.2621 -0.9010
  403MOL0     C53126   4.841   2.859   0.083  0.5128  0.5031  0.0006
  403MOL0     C53127   4.955   2.770   0.054  0.5811  0.8469  0.0133
  403MOL0     C53128   5.058   2.706   0.042  1.4083  0.3001 -0.0476
  403MOL0     C53129   4.188   2.696   0.152 -0.7234 -0.6235 -0.0095
  403MOL0     C53130   4.052   2.663   0.184  0.4508  0.6462  0.0985
  403MOL0     H53131   3.554   2.828   0.196  2.4952 -1.2352  0.7160
  403MOL0     H53132   3.316   2.736   0.243 -0.0690  2.4612  1.9197
  403MOL0     H53133   3.148   2.586   0.238 -1.6856  2.1858  0.6496
  403MOL0     H53134   3.081   2.676   0.372  2.1215  0.3733 -1.0361
  403MOL0     H53135   3.004   2.485   0.476 -1.5175  3.0947  0.5778
  403MOL0     H53136   3.081   2.387   0.351  0.5220  0.7889 -1.8872
  403MOL0     H53137   2.880   2.442   0.195 -3.0030  0.6903  0.1492
  403MOL0     H53138   2.897   2.604   0.259 -1.1947 -0.1822  0.0169
  403MOL0     H53139   2.814   2.375   0.451 -0.6896  0.6276 -0.0381
  403MOL0     H53140   2.784   2.554   0.464  0.0101  1.0123 -0.8271
  403MOL0     H53141   2.638   2.373   0.263 -1.8947  1.7701 -2.3232
  403MOL0     H53142   2.636   2.543   0.282  0.6230 -1.5319 -1.5722
  403MOL0     H53143   2.555   2.514   0.523 -1.8805  0.6648 -1.0276
  403MOL0     H53144   2.591   2.336   0.506  0.5631  0.9517  0.5916
  403MOL0     H53145   2.386   2.538   0.392  2.2842  0.8202  0.6944
  403MOL0     H53146   2.398   2.368   0.320  3.5285 -1.1253  0.2438
  403MOL0     H53147   2.213   2.365   0.471  0.2142 -1.3163  0.8076
  403MOL0     H53148   2.321   2.449   0.595  2.0316 -0.7089 -0.0456
  403MOL0     H53149   2.410   2.273   0.768  0.0604 -0.9992 -0.0235
  403MOL0     H53150   2.328   1.956   0.865 -0.0272  0.8995  0.0822
  403MOL0     H53151   2.478   2.049   0.879 -0.7439  1.1949 -0.3381
  403MOL0     H53152   2.605   1.916   0.738 -1.4043  0.6452 -0.8001
  403MOL0     H53153   2.481   1.821   0.678 -1.6941 -0.2381  1.3883
  403MOL0     H53154   2.593   1.697   0.858 -3.2748 -2.0118 -0.9432
  403MOL0     H53155   2.561   1.809   0.981  0.5320 -2.3821  1.7168
  403MOL0     H53156   2.332   1.757   0.994 -2.8649 -1.9336 -0.0426
  403MOL0     H53157   2.419   1.609   0.968  1.1906 -0.0005 -2.0284
  403MOL0     H53158   2.114   1.640   0.970 -3.5111  1.4992 -0.1928
  403MOL0     H53159   1.962   1.459   0.972  1.2843  0.3317  0.4961
  403MOL0     H53160   1.752   1.054   0.760  0.8902  0.9625 -0.9814
  403MOL0     H53161   1.532   0.983   0.762  1.1255  0.1806  0.3348
  403MOL0     H53162   1.333   0.878   0.944  1.1844 -0.1060 -0.0805
  403MOL0     H53163   1.321   0.931   0.770 -2.1057  1.5691 -0.7581
  403MOL0     H53164   1.105   0.838   0.842 -2.5229  0.2887  1.4884
  403MOL0     H53165   1.100   1.001   0.795  0.7805 -1.2758 -0.0048
  403MOL0     H53166   1.102   1.059   1.049  2.8452 -1.0541  0.2778
  403MOL0     H53167   1.112   0.890   1.087 -1.2150 -0.1713  0.9755
  403MOL0     H53168   0.889   1.029   0.927  0.3364  0.7394  0.5895
  403MOL0     H53169   0.882   0.857   0.989  1.7046  0.2036  0.0260
  403MOL0     H53170   0.886   1.103   1.159  3.8226 -0.0734  0.6207
  403MOL0     H53171   0.897   0.936   1.222 -2.1702 -0.7905  1.0678
  403MOL0     H53172   0.670   0.901   1.103  0.9576 -0.5761  0.3425
  403MOL0     H53173   0.670   1.076   1.076  2.2912  3.1490  1.3310
  403MOL0     H53174   0.743   1.004   1.354  0.7800  0.9140  0.8536
  403MOL0     H53175   0.637   1.124   1.290 -1.8038 -1.1910 -1.3393
  403MOL0     H53176   0.454   0.998   1.235  0.6371 -0.1141  1.0363
  403MOL0     H53177   0.487   0.959   1.404 -0.6395  2.2511 -0.3172
  403MOL0     H53178   1.439   1.268   1.075 -0.0450 -1.1468  0.3730
  403MOL0     H53179   1.670   1.348   1.058  1.0915 -1.6200  2.5796
  403MOL0     H53180   2.114   1.332   0.592 -0.5939 -0.2976  0.1841
  403MOL0     H53181   2.298   1.487   0.603 -1.6976  1.7644 -1.7057
  403MOL0     H53182   3.458   2.493   0.551 -3.9063  0.3777 -1.1459
  403MOL0     H53183   3.695   2.606   0.528 -0.4567  0.0946  2.0372
  403MOL0     H53184   3.954   2.959   0.322 -0.6902  0.5791 -1.5571
  403MOL0     H53185   4.181   3.023   0.259  0.1269  0.2596  1.0952
  403MOL0     H53186   4.433   2.739   0.006 -0.5645 -2.5351  0.9180
  403MOL0     H53187   4.463   2.703   0.176 -1.6596 -0.4350  0.4646
  403MOL0     H53188   4.578   2.919   0.012  2.3110 -2.7532 -2.4329
  403MOL0     H53189   4.610   2.894   0.196 -0.4220 -0.0768  0.2424
  403MOL0     H53190   4.703   2.734  -0.037  2.7016  0.9741 -1.5218
  403MOL0     H53191   4.708   2.684   0.127  1.3397  1.2593  1.4112
  403MOL0     H53192   4.845   2.939   0.009  0.1123  0.8230  0.3282
  403MOL0     H53193   4.861   2.897   0.183  0.1078 -0.3367  0.4157
  403MOL0     H53194   5.129   2.629   0.021 -1.7193 -2.7074 -0.5410
  403MOL0     H53195   4.260   2.623   0.118  0.3292 -0.7341  2.2656
  403MOL0     H53196   4.023   2.559   0.172 -1.3030  1.3008 -1.8209
  404MOL0     O53197   5.456   9.942   2.636  0.9879 -0.3479 -0.3865
  404MOL0     C53198   5.419   9.921   2.519  0.2477  0.4441  0.1692
  404MOL0     O53199   5.288   9.909   2.474 -0.3253 -0.0759 -0.4642
  404MOL0     C53200   5.180   9.903   2.551  0.9219 -0.5448  0.2672
  404MOL0     C53201   5.054   9.892   2.489  0.7072  0.6251  0.3706
  404MOL0     C53202   4.932   9.906   2.557 -0.5293  0.7157 -0.7250
  404MOL0     C53203   4.936   9.901   2.701  0.1989 -0.2288 -0.3979
  404MOL0     O53204   4.820   9.914   2.764 -0.2347  0.5234  0.4259
  404MOL0     C53205   4.814   9.932   2.910 -1.0669  0.6256 -0.3730
  404MOL0     C53206   4.670   9.952   2.951  0.4204  0.3735  0.0377
  404MOL0     C53207   4.630  10.101   2.936  0.3253 -0.0583  0.1185
  404MOL0     C53208   4.483  10.121   2.968  0.5608 -0.2646  0.3859
  404MOL0     C53209   4.441  10.265   2.963  0.6105 -0.2693  0.2782
  404MOL0     C53210   4.466  10.342   2.831 -0.1531 -0.2588 -1.0459
  404MOL0     C53211   4.432  10.497   2.849  0.1703  1.0293 -0.0857
  404MOL0     C53212   4.453  10.587   2.723  0.2690  0.8919 -0.2900
  404MOL0     N53213   4.363  10.547   2.612 -0.3476 -0.0542  0.5572
  404MOL0     C53214   4.251  10.616   2.570  0.1929 -0.5336  1.8840
  404MOL0     C53215   4.240  10.574   2.441  0.1443  0.0808  0.4331
  404MOL0     C53216   4.115  10.599   2.361 -0.3721 -0.8574  0.3104
  404MOL0     C53217   4.142  10.720   2.265 -0.1104  0.6243  0.4808
  404MOL0     C53218   4.130  10.861   2.309  0.7797  0.2182 -0.5643
  404MOL0     C53219   4.010  10.891   2.394  0.0736 -0.3744  0.1056
  404MOL0     O53220   3.885  10.855   2.326 -0.6377 -0.0121  0.5270
  404MOL0     C53221   3.765  10.876   2.387  0.5349 -0.2453  0.1318
  404MOL0     C53222   3.742  10.922   2.515 -0.5606  0.7716  0.0115
  404MOL0     C53223   3.610  10.954   2.557  0.5898 -0.0780 -0.1065
  404MOL0     C53224   3.501  10.941   2.465 -1.3204  0.1906 -0.3268
  404MOL0     C53225   3.356  10.963   2.497 -0.3371 -0.0432 -0.3887
  404MOL0     O53226   3.261  10.915   2.404  0.2734  0.1853 -1.1048
  404MOL0     C53227   3.126  10.904   2.448 -0.3368 -0.6237 -0.3597
  404MOL0     C53228   3.068  10.994   2.543  0.2691  1.0559  0.2657
  404MOL0     C53229   2.931  10.969   2.577 -0.0594 -0.1609 -0.2438
  404MOL0     C53230   2.847  10.875   2.515 -1.1192  0.4108 -0.3427
  404MOL0     O53231   2.711  10.860   2.534 -0.0804 -0.6109 -0.0715
  404MOL0     C53232   2.647  10.942   2.634 -0.5535 -0.5985  0.1137
  404MOL0     C53233   2.496  10.899   2.643 -0.3399 -0.4064  0.6319
  404MOL0     C53234   2.401  10.988   2.723  0.2077 -0.1851  0.4340
  404MOL0     C53235   2.418  11.141   2.700 -0.0248 -0.1512 -0.5114
  404MOL0     C53236   2.317  11.217   2.782  0.0558  0.2227  0.5211
  404MOL0     C53237   2.277  11.355   2.735  0.7618 -0.6952 -0.7990
  404MOL0     C53238   2.153  11.396   2.817 -0.4085  0.4065  0.2479
  404MOL0     C53239   2.040  11.404   2.717 -0.3032 -0.3664  0.5318
  404MOL0    Cl53240   2.018  11.250   2.637 -0.3527  0.3760 -0.0262
  404MOL0     C53241   2.908  10.789   2.419  0.8674  0.2141  0.4904
  404MOL0     C53242   3.049  10.801   2.391  0.5221  0.2546  0.5374
  404MOL0     O53243   3.336  10.990   2.615 -0.3762 -0.6309  0.2076
  404MOL0     C53244   3.532  10.898   2.333  0.7483 -0.8252 -0.0434
  404MOL0     C53245   3.659  10.874   2.296  1.0206  0.6259  0.3877
  404MOL0     N53246   4.337  10.487   2.408 -0.1759  0.0807  0.3293
  404MOL0     N53247   4.408  10.471   2.513 -0.5993 -0.5185  0.2762
  404MOL0     C53248   5.054   9.895   2.768  0.2363 -0.0679 -0.7715
  404MOL0     C53249   5.174   9.903   2.694  0.2499  0.3946  0.2845
  404MOL0     C53250   5.527   9.885   2.426 -0.7840 -0.5339 -0.2414
  404MOL0     C53251   5.490   9.839   2.302  0.7143 -0.0424  0.3119
  404MOL0     C53252   5.593   9.812   2.204  0.1746 -0.9565  0.6070
  404MOL0     C53253   5.723   9.815   2.228  0.1023  0.6279  0.2814
  404MOL0     O53254   5.826   9.791   2.149 -0.3255  0.3965  0.4400
  404MOL0     C53255   5.809   9.712   2.038 -0.6203  0.4944  0.8031
  404MOL0     C53256   5.795   9.789   1.903 -1.3131  0.3212  0.0220
  404MOL0     C53257   5.740   9.717   1.786 -0.2310 -0.8741  0.1635
  404MOL0     C53258   5.844   9.637   1.704 -0.2476  0.0875 -0.2264
  404MOL0     C53259   5.902   9.525   1.781 -0.3016  0.2062 -0.1682
  404MOL0     C53260   5.933   9.432   1.855 -0.0027 -0.0790  1.3083
  404MOL0     C53261   5.764   9.863   2.356 -0.3364  0.1300  0.1834
  404MOL0     C53262   5.670   9.892   2.463 -0.2709  0.1105  0.2143
  404MOL0     H53263   5.061   9.903   2.381  0.3422  4.3377  0.6033
  404MOL0     H53264   4.840   9.916   2.502 -0.5575 -0.0216 -0.8196
  404MOL0     H53265   4.888  10.004   2.947  0.7103 -1.5083  0.4516
  404MOL0     H53266   4.847   9.841   2.962 -0.4607  1.4201  0.6937
  404MOL0     H53267   4.654   9.916   3.053  1.0567  0.6799  0.2489
  404MOL0     H53268   4.598   9.896   2.891  1.4468  1.8906 -2.7985
  404MOL0     H53269   4.638  10.122   2.829 -1.1992  0.6688  0.1239
  404MOL0     H53270   4.688  10.172   2.996 -2.1851 -0.7402  3.6411
  404MOL0     H53271   4.425  10.047   2.913 -0.9070 -1.2509  3.0533
  404MOL0     H53272   4.474  10.086   3.072 -3.5270  0.7471  0.5381
  404MOL0     H53273   4.481  10.324   3.045 -1.5463 -0.1502  1.3232
  404MOL0     H53274   4.332  10.274   2.972  0.1210 -1.6612 -2.9544
  404MOL0     H53275   4.405  10.287   2.758 -1.4925  0.0229 -0.1928
  404MOL0     H53276   4.573  10.339   2.810  0.6312  0.0806  2.2767
  404MOL0     H53277   4.329  10.499   2.884 -0.2877 -1.0081 -1.1253
  404MOL0     H53278   4.493  10.527   2.935  0.7223  1.2605 -0.5479
  404MOL0     H53279   4.558  10.572   2.693  1.3467  0.1899  3.3243
  404MOL0     H53280   4.438  10.691   2.754  3.1908  0.8821  1.5717
  404MOL0     H53281   4.185  10.683   2.625  0.3539  0.2639  1.1154
  404MOL0     H53282   4.023  10.617   2.419 -4.0182  0.9722 -5.2346
  404MOL0     H53283   4.104  10.502   2.312 -0.1903  0.5030 -2.5792
  404MOL0     H53284   4.073  10.719   2.180  0.8430 -0.1378 -0.3149
  404MOL0     H53285   4.241  10.710   2.219  0.5101  1.4701  1.5861
  404MOL0     H53286   4.225  10.882   2.357  0.3578 -1.5318  1.1586
  404MOL0     H53287   4.117  10.919   2.216  0.1615 -1.6120 -1.6811
  404MOL0     H53288   4.012  11.000   2.406  2.7178 -0.2960 -0.4893
  404MOL0     H53289   4.017  10.837   2.489 -1.3290 -2.1725 -0.7427
  404MOL0     H53290   3.826  10.944   2.581  0.8329 -2.0354 -0.6799
  404MOL0     H53291   3.586  10.976   2.660  1.8700 -2.0026  0.6738
  404MOL0     H53292   3.127  11.076   2.583  1.1393 -0.6736  2.7566
  404MOL0     H53293   2.893  11.038   2.651  0.5490 -0.2636  0.1746
  404MOL0     H53294   2.664  11.047   2.607 -2.7912  0.2076  1.6015
  404MOL0     H53295   2.691  10.922   2.732 -2.2042  0.7191  1.1826
  404MOL0     H53296   2.500  10.796   2.677  1.3861  0.5170  3.5241
  404MOL0     H53297   2.456  10.888   2.542 -0.8828  1.2909  0.6304
  404MOL0     H53298   2.398  10.969   2.831 -1.3042 -0.9250  0.2901
  404MOL0     H53299   2.299  10.958   2.699  0.4448  0.1799 -1.1685
  404MOL0     H53300   2.517  11.181   2.722  0.1704  0.3163 -2.0866
  404MOL0     H53301   2.389  11.147   2.595 -0.1973 -1.3798 -0.5521
  404MOL0     H53302   2.348  11.224   2.887  0.7357 -0.5984  0.3796
  404MOL0     H53303   2.227  11.155   2.781  0.7010 -0.7299  0.6785
  404MOL0     H53304   2.245  11.356   2.630 -0.3315 -2.5569 -0.5433
  404MOL0     H53305   2.367  11.416   2.747 -0.6911  1.5052 -0.5976
  404MOL0     H53306   2.110  11.318   2.881 -1.8114  0.1382 -0.9616
  404MOL0     H53307   2.176  11.485   2.876  0.0004 -0.3954  1.3160
  404MOL0     H53308   2.061  11.484   2.645 -0.5164 -0.9049 -0.1453
  404MOL0     H53309   1.945  11.437   2.761 -0.5976 -0.0388 -0.3306
  404MOL0     H53310   2.851  10.729   2.349 -1.4227  0.3219  2.1694
  404MOL0     H53311   3.098  10.745   2.313 -0.5860 -0.2046  0.1510
  404MOL0     H53312   3.457  10.911   2.255 -0.3373 -0.3902  1.0272
  404MOL0     H53313   3.687  10.856   2.193  1.1438 -1.3664  0.7288
  404MOL0     H53314   5.071   9.894   2.875 -1.1422 -0.1790 -0.5322
  404MOL0     H53315   5.255   9.916   2.765 -1.4332 -1.0046  2.6143
  404MOL0     H53316   5.386   9.842   2.271  0.5449  1.5807  0.9327
  404MOL0     H53317   5.550   9.780   2.109 -1.6901 -0.9526  1.4033
  404MOL0     H53318   5.716   9.657   2.054  1.1821 -2.5809  1.6525
  404MOL0     H53319   5.894   9.643   2.032  0.4605  1.9038 -3.0123
  404MOL0     H53320   5.727   9.875   1.909 -2.1995 -0.3440 -0.4416
  404MOL0     H53321   5.894   9.828   1.876 -2.4011  1.2935 -3.0073
  404MOL0     H53322   5.697   9.798   1.726  3.3375  2.0137  1.1273
  404MOL0     H53323   5.660   9.652   1.822 -1.6741  1.2387  0.9965
  404MOL0     H53324   5.793   9.584   1.623  0.8915 -2.3844  0.5816
  404MOL0     H53325   5.913   9.703   1.650  0.0616 -1.9408 -2.4912
  404MOL0     H53326   5.961   9.348   1.916 -1.3881  0.5990  2.9675
  404MOL0     H53327   5.872   9.869   2.372  0.2038  0.1213 -2.7745
  404MOL0     H53328   5.710   9.927   2.557  0.6554 -0.5695  0.0836
  405MOL0     O53329   9.285  10.152   9.896  0.4349 -0.1526  0.4566
  405MOL0     C53330   9.323  10.255   9.949 -0.0429  0.5364 -0.3540
  405MOL0     O53331   9.251  10.371   9.948  0.2579 -0.0215 -0.6498
  405MOL0     C53332   9.124  10.381   9.897 -0.0593 -0.0721 -0.4796
  405MOL0     C53333   9.020  10.288   9.927 -0.5433 -0.1263  0.6418
  405MOL0     C53334   8.896  10.315   9.883  1.0161 -0.3155 -0.0078
  405MOL0     C53335   8.860  10.431   9.807  0.0540  0.0280 -0.4413
  405MOL0     O53336   8.734  10.468   9.776 -0.7147 -0.3158  0.2784
  405MOL0     C53337   8.626  10.436   9.867  0.0112  0.0176  0.6709
  405MOL0     C53338   8.487  10.484   9.832 -0.0666 -0.1875  0.4188
  405MOL0     C53339   8.454  10.462   9.688  0.9716 -1.1815  0.1828
  405MOL0     C53340   8.302  10.492   9.673 -0.4484  0.8156  0.3470
  405MOL0     C53341   8.254  10.450   9.534 -1.1358  0.0956  0.3383
  405MOL0     C53342   8.106  10.442   9.514 -0.0268 -0.7667  0.3996
  405MOL0     C53343   8.032  10.336   9.600 -0.0248 -1.6660 -0.3569
  405MOL0     C53344   7.888  10.323   9.554 -0.2883 -1.0983  0.5827
  405MOL0     N53345   7.812  10.448   9.599  0.5281 -0.0184 -0.0283
  405MOL0     C53346   7.796  10.567   9.533 -0.4308 -0.5443 -0.0281
  405MOL0     C53347   7.739  10.645   9.625 -0.1076  0.9078 -0.9216
  405MOL0     C53348   7.702  10.793   9.633  0.2733  0.4431 -0.3593
  405MOL0     C53349   7.554  10.817   9.623  0.2658 -0.1078  0.8550
  405MOL0     C53350   7.525  10.966   9.604  0.5115  0.1037 -0.2020
  405MOL0     C53351   7.372  10.978   9.592 -0.8542 -0.8797 -0.1440
  405MOL0     O53352   7.339  11.111   9.615 -0.4891 -0.5011  0.2818
  405MOL0     C53353   7.207  11.154   9.615  0.6559 -0.7267 -0.1150
  405MOL0     C53354   7.192  11.288   9.639  1.1253  0.3449  0.7451
  405MOL0     C53355   7.060  11.346   9.640  0.2866  0.5430  0.1044
  405MOL0     C53356   6.946  11.267   9.611 -1.1554 -0.5379 -0.5684
  405MOL0     C53357   6.819  11.337   9.623  0.1035 -0.5084  0.4788
  405MOL0     O53358   6.825  11.438   9.730  0.2716  0.0651  0.2502
  405MOL0     C53359   6.708  11.503   9.748 -0.3412  0.3507  0.9102
  405MOL0     C53360   6.706  11.649   9.732 -0.1274 -0.3195 -0.9118
  405MOL0     C53361   6.594  11.717   9.780  0.3092 -0.5783  0.3707
  405MOL0     C53362   6.488  11.645   9.825 -0.2832  0.4606  0.8126
  405MOL0     O53363   6.363  11.690   9.852 -0.2296  0.1334 -0.3802
  405MOL0     C53364   6.282  11.727   9.738  0.1137 -0.0872 -0.4007
  405MOL0     C53365   6.137  11.701   9.786 -0.3748  0.3136  0.0878
  405MOL0     C53366   6.040  11.770   9.689  0.2109  0.1988  0.3436
  405MOL0     C53367   5.892  11.730   9.723  0.0873 -0.3686 -0.1265
  405MOL0     C53368   5.848  11.779   9.859 -0.6201 -0.0049  0.0889
  405MOL0     C53369   5.698  11.752   9.865  0.5367  0.1860 -0.2948
  405MOL0     C53370   5.648  11.600   9.870 -0.3774  0.3679 -0.6764
  405MOL0     C53371   5.499  11.592   9.882 -0.1656 -0.2472  0.6465
  405MOL0    Cl53372   5.428  11.449   9.818  0.1322 -0.0847 -0.8266
  405MOL0     C53373   6.492  11.506   9.841  0.3441  0.0256  0.5490
  405MOL0     C53374   6.603  11.434   9.801 -0.1625 -0.3483  0.1159
  405MOL0     O53375   6.724  11.290   9.557 -0.1652  0.4896  0.2403
  405MOL0     C53376   6.968  11.127   9.577  0.1573 -0.8205 -0.4185
  405MOL0     C53377   7.095  11.077   9.580 -0.3312 -0.0141  0.7254
  405MOL0     N53378   7.701  10.571   9.737 -0.1185 -0.1039 -0.1430
  405MOL0     N53379   7.744  10.453   9.714  0.3787  0.5014 -0.2304
  405MOL0     C53380   8.967  10.513   9.771  0.4832  0.0206 -0.0909
  405MOL0     C53381   9.101  10.493   9.820  0.8347  0.1305  0.0784
  405MOL0     C53382   9.457  10.261  10.003  0.7038 -0.0351 -1.2603
  405MOL0     C53383   9.494  10.341  10.111  0.9332 -0.2480  0.6549
  405MOL0     C53384   9.609  10.318  10.182 -0.3362 -0.8235  0.0534
  405MOL0     C53385   9.706  10.232  10.152 -0.0093  0.1902 -0.0430
  405MOL0     O53386   9.822  10.232  10.220 -0.1103 -0.3579 -0.0558
  405MOL0     C53387   9.922  10.134  10.184 -0.2898 -0.3461  0.1755
  405MOL0     C53388  10.051  10.154  10.259  0.1239 -0.5259  0.4245
  405MOL0     C53389  10.164  10.118  10.155  0.7942  0.8444 -0.4819
  405MOL0     C53390  10.305  10.105  10.220  0.2381 -0.0027  0.8389
  405MOL0     C53391  10.406  10.149  10.127  0.1986  0.4946  0.5138
  405MOL0     C53392  10.508  10.183  10.069 -0.2222  0.5796  0.8197
  405MOL0     C53393   9.675  10.159  10.035 -0.0103  1.2878 -0.4505
  405MOL0     C53394   9.555  10.169   9.969  0.4153  0.1847 -0.1540
  405MOL0     H53395   9.037  10.197   9.984  0.0515  1.2139  2.7352
  405MOL0     H53396   8.830  10.234   9.911  1.4591 -0.5542  0.3534
  405MOL0     H53397   8.652  10.476   9.966 -4.1168  0.2573  1.8605
  405MOL0     H53398   8.627  10.328   9.885 -0.5301 -0.0681  0.2133
  405MOL0     H53399   8.486  10.589   9.863 -0.9758 -0.3625  1.0378
  405MOL0     H53400   8.415  10.439   9.901 -1.3471  0.3257 -0.5372
  405MOL0     H53401   8.465  10.355   9.667  2.6934 -0.6960 -1.6947
  405MOL0     H53402   8.524  10.511   9.620  2.1599 -2.0471  0.7511
  405MOL0     H53403   8.251  10.424   9.742  2.0854  0.0580  1.6235
  405MOL0     H53404   8.281  10.592   9.711 -2.9730  0.4663  0.0238
  405MOL0     H53405   8.289  10.348   9.513 -4.6618 -1.2654  0.4682
  405MOL0     H53406   8.295  10.517   9.459  1.2383 -2.7199 -1.1093
  405MOL0     H53407   8.087  10.423   9.408 -0.0252 -0.1487  0.2820
  405MOL0     H53408   8.065  10.541   9.537 -0.8086 -0.8794 -0.4990
  405MOL0     H53409   8.097  10.250   9.582  1.5232 -0.8419  1.0171
  405MOL0     H53410   8.035  10.355   9.708 -1.4196 -0.1508 -0.5384
  405MOL0     H53411   7.831  10.236   9.589 -3.4534  0.7394  0.3769
  405MOL0     H53412   7.886  10.312   9.445 -2.0105 -0.7017  0.5396
  405MOL0     H53413   7.818  10.603   9.433 -2.2163  2.4206  0.5337
  405MOL0     H53414   7.753  10.850   9.555 -0.6960  2.0209  0.1288
  405MOL0     H53415   7.742  10.834   9.726  2.1634 -0.0630 -0.8972
  405MOL0     H53416   7.503  10.788   9.715 -1.4856  0.9247  0.2546
  405MOL0     H53417   7.510  10.762   9.540 -0.0688  0.1764  0.8445
  405MOL0     H53418   7.555  11.021   9.694 -0.4325  1.6999 -0.8158
  405MOL0     H53419   7.566  11.012   9.514 -0.9706  0.4185 -0.7553
  405MOL0     H53420   7.326  10.903   9.658 -0.4666  0.0125  1.1902
  405MOL0     H53421   7.325  10.964   9.495 -3.3945  1.7637  0.5725
  405MOL0     H53422   7.268  11.356   9.677 -1.0794  2.7570  1.1517
  405MOL0     H53423   7.048  11.449   9.672 -1.1922  0.8008 -1.1297
  405MOL0     H53424   6.800  11.697   9.709  0.2050 -0.3714  0.2833
  405MOL0     H53425   6.581  11.824   9.768  0.3002 -0.5319  0.7857
  405MOL0     H53426   6.293  11.657   9.655 -2.6125 -1.2542  0.1157
  405MOL0     H53427   6.308  11.824   9.693 -0.3285  0.4143  0.4000
  405MOL0     H53428   6.122  11.743   9.886  2.6470  1.8562  0.0086
  405MOL0     H53429   6.140  11.591   9.780 -1.5572  0.3171 -1.1508
  405MOL0     H53430   6.064  11.753   9.584  0.3718  1.3510  0.1733
  405MOL0     H53431   6.058  11.877   9.705  0.8525  0.3587 -1.2627
  405MOL0     H53432   5.828  11.770   9.644  0.6619 -0.8258 -0.8325
  405MOL0     H53433   5.882  11.621   9.715  0.2518 -0.3744 -0.2490
  405MOL0     H53434   5.876  11.884   9.870 -0.4659  0.1433 -1.4617
  405MOL0     H53435   5.900  11.727   9.940  1.1652 -0.6790 -1.4132
  405MOL0     H53436   5.652  11.798   9.777 -2.8044 -0.3972  0.9832
  405MOL0     H53437   5.654  11.810   9.947 -2.4423  1.5381 -2.6610
  405MOL0     H53438   5.671  11.560   9.772  0.9063 -3.2596  0.9319
  405MOL0     H53439   5.698  11.550   9.954 -0.5712  0.8157 -0.2866
  405MOL0     H53440   5.453  11.674   9.826 -2.4097  0.0776  2.7982
  405MOL0     H53441   5.473  11.607   9.987 -3.6923 -1.3570  0.0695
  405MOL0     H53442   6.403  11.451   9.870 -0.5879 -0.1053 -2.2690
  405MOL0     H53443   6.600  11.328   9.821 -2.2110 -0.5371 -0.9622
  405MOL0     H53444   6.876  11.075   9.554 -0.2981 -0.0787 -0.2941
  405MOL0     H53445   7.116  10.972   9.564  2.1528  0.7854 -1.9826
  405MOL0     H53446   8.949  10.602   9.711 -3.0095 -1.5782 -1.6818
  405MOL0     H53447   9.172  10.569   9.788  4.3327 -2.6668  0.6479
  405MOL0     H53448   9.431  10.424  10.138  0.5000  0.1314 -1.3482
  405MOL0     H53449   9.619  10.397  10.257 -1.6851 -0.7411  0.1765
  405MOL0     H53450   9.944  10.139  10.077 -1.4522  1.1640 -0.0275
  405MOL0     H53451   9.891  10.033  10.212  0.7441 -0.5192  0.7302
  405MOL0     H53452  10.068  10.258  10.288 -0.0294 -0.1307 -0.8149
  405MOL0     H53453  10.046  10.088  10.345  0.2520  0.4668  1.2122
  405MOL0     H53454  10.171  10.197  10.079 -2.7780 -0.2234 -2.1134
  405MOL0     H53455  10.143  10.023  10.106  1.9912  0.7193 -0.8070
  405MOL0     H53456  10.298  10.178  10.301 -1.4522  0.3009  0.4460
  405MOL0     H53457  10.323  10.007  10.266 -2.9653 -0.0887  2.1517
  405MOL0     H53458  10.596  10.221  10.022 -2.4952  1.1162 -3.5672
  405MOL0     H53459   9.746  10.095   9.983 -1.1771 -0.0695 -0.4628
  405MOL0     H53460   9.540  10.100   9.886  3.3100  0.6796 -1.1995
  406MOL0     O53461  11.018   9.154   3.323  0.1788  0.5081  0.2245
  406MOL0     C53462  11.076   9.154   3.213  0.4417  0.1552 -0.1751
  406MOL0     O53463  11.015   9.110   3.094 -0.4483 -0.6149 -0.8391
  406MOL0     C53464  10.891   9.054   3.104 -0.7446 -1.1446  0.5961
  406MOL0     C53465  10.873   8.944   3.021  0.1453  0.5586  0.5819
  406MOL0     C53466  10.746   8.871   3.009 -0.1629  0.5917 -0.5465
  406MOL0     C53467  10.637   8.920   3.076 -0.4401 -0.9318  0.5310
  406MOL0     O53468  10.519   8.856   3.064  0.5540 -0.2944  0.3841
  406MOL0     C53469  10.417   8.928   2.996 -0.0825  0.0184  0.7515
  406MOL0     C53470  10.300   8.955   3.085  0.7808  0.3160  0.0503
  406MOL0     C53471  10.179   9.011   3.011  0.3653  0.4653 -0.4949
  406MOL0     C53472  10.043   9.020   3.083 -0.3300  0.3235  0.0164
  406MOL0     C53473   9.936   8.921   3.046 -0.0380 -0.0155 -0.2560
  406MOL0     C53474   9.817   8.964   3.145 -0.1845 -0.2135 -0.2420
  406MOL0     C53475   9.690   8.871   3.139  0.5264 -0.6345 -0.4581
  406MOL0     C53476   9.555   8.935   3.191 -0.5647  0.0524  0.1373
  406MOL0     N53477   9.442   8.848   3.158 -0.0096  0.4032  0.4314
  406MOL0     C53478   9.310   8.898   3.131  0.1580  0.4391 -0.0346
  406MOL0     C53479   9.236   8.790   3.118 -0.1801 -0.2178 -0.1769
  406MOL0     C53480   9.109   8.787   3.052  0.1510 -0.4113  0.0552
  406MOL0     C53481   9.022   8.915   3.077 -0.7476 -1.0965 -0.0496
  406MOL0     C53482   8.878   8.904   3.039 -0.1364  0.2614  0.4254
  406MOL0     C53483   8.809   9.037   3.024 -0.4439  0.1962 -0.4424
  406MOL0     O53484   8.667   9.029   2.972 -1.1224  0.3719 -0.1870
  406MOL0     C53485   8.558   9.020   3.059 -1.1780 -0.6761 -0.7948
  406MOL0     C53486   8.440   9.069   3.020 -0.0394  0.2947  0.9041
  406MOL0     C53487   8.317   9.045   3.085 -0.4878 -0.0557  0.0291
  406MOL0     C53488   8.317   8.973   3.206  0.1337  0.3894  0.1564
  406MOL0     C53489   8.193   8.951   3.282  0.1490 -0.0455 -0.6546
  406MOL0     O53490   8.104   9.045   3.272  0.0134 -0.7438 -0.1189
  406MOL0     C53491   7.975   9.036   3.315  0.2465  0.5137 -0.3353
  406MOL0     C53492   7.906   8.925   3.371  0.1439  0.7137 -0.0706
  406MOL0     C53493   7.766   8.943   3.401 -0.1064 -0.0353 -0.4479
  406MOL0     C53494   7.694   9.060   3.380 -0.5567 -0.4588  0.1201
  406MOL0     O53495   7.562   9.070   3.412 -0.4264  0.5265 -0.4227
  406MOL0     C53496   7.503   9.199   3.408  0.1289  0.2628  0.4339
  406MOL0     C53497   7.350   9.179   3.431  0.5037  0.6196 -0.2319
  406MOL0     C53498   7.291   9.155   3.570 -0.0392  0.2200  0.4977
  406MOL0     C53499   7.141   9.134   3.559  0.9813  0.1318 -0.0650
  406MOL0     C53500   7.079   9.106   3.694  0.1872  0.0169  0.1923
  406MOL0     C53501   6.931   9.067   3.690  0.1430 -0.3474 -0.0149
  406MOL0     C53502   6.838   9.173   3.629  0.2582  0.3552 -0.5470
  406MOL0     C53503   6.689   9.125   3.631 -0.1523 -0.0857 -0.5112
  406MOL0    Cl53504   6.581   9.242   3.546 -0.0151 -0.1337 -0.1594
  406MOL0     C53505   7.767   9.167   3.326 -0.3885  0.4519 -0.2637
  406MOL0     C53506   7.902   9.152   3.294 -0.7324  0.3668 -0.8776
  406MOL0     O53507   8.183   8.851   3.355 -0.4145 -0.0595 -0.7860
  406MOL0     C53508   8.441   8.919   3.248 -0.0068  0.3187  0.5367
  406MOL0     C53509   8.563   8.956   3.182 -0.4926 -0.1911  0.9567
  406MOL0     N53510   9.306   8.676   3.141 -0.4848  0.8580 -1.5478
  406MOL0     N53511   9.433   8.714   3.167  0.4529 -0.1540  0.2540
  406MOL0     C53512  10.648   9.039   3.148 -0.4139 -0.1474 -0.1372
  406MOL0     C53513  10.775   9.102   3.164 -0.3384  0.3560 -0.3173
  406MOL0     C53514  11.209   9.209   3.200 -0.1263 -0.8377  0.4730
  406MOL0     C53515  11.287   9.199   3.080  1.0997  0.5067 -0.1287
  406MOL0     C53516  11.419   9.246   3.071 -0.2234 -0.3128  0.5173
  406MOL0     C53517  11.477   9.314   3.175  0.3064  0.3222 -0.9185
  406MOL0     O53518  11.605   9.360   3.152 -0.3504 -0.8557 -0.0560
  406MOL0     C53519  11.682   9.408   3.262 -0.6612  0.2329 -0.3493
  406MOL0     C53520  11.829   9.442   3.218 -0.3214  0.0538 -0.3103
  406MOL0     C53521  11.903   9.537   3.321  0.0199  0.2326  0.0382
  406MOL0     C53522  12.044   9.548   3.271 -0.9516  0.0604 -0.7199
  406MOL0     C53523  12.132   9.612   3.372 -0.4789 -0.1364 -0.0121
  406MOL0     C53524  12.217   9.654   3.442  0.5542 -0.4640 -0.0846
  406MOL0     C53525  11.397   9.328   3.294 -0.7601 -0.5130  0.3716
  406MOL0     C53526  11.268   9.269   3.311  0.2216 -0.6671  0.3051
  406MOL0     H53527  10.958   8.916   2.959 -0.1696  1.2667 -0.1828
  406MOL0     H53528  10.741   8.785   2.944  1.9419 -2.4241  2.8913
  406MOL0     H53529  10.389   8.863   2.913  0.4611  1.4590 -0.6009
  406MOL0     H53530  10.444   9.012   2.932 -0.3304 -1.7004 -1.7498
  406MOL0     H53531  10.329   9.012   3.174 -0.3085 -0.8554  1.2103
  406MOL0     H53532  10.264   8.864   3.135 -0.4863 -0.6472 -2.4337
  406MOL0     H53533  10.164   8.946   2.925  2.2201 -0.4969 -0.1390
  406MOL0     H53534  10.201   9.109   2.967  0.4016 -0.3161 -2.2922
  406MOL0     H53535  10.062   9.015   3.191  2.1028  1.4331 -0.2706
  406MOL0     H53536  10.008   9.123   3.073 -1.7972 -0.1094  0.5283
  406MOL0     H53537   9.965   8.816   3.053 -3.4041 -1.1681 -1.5740
  406MOL0     H53538   9.886   8.933   2.949 -2.3701  0.8336  0.9808
  406MOL0     H53539   9.782   9.059   3.102  0.7173 -0.4236 -1.4940
  406MOL0     H53540   9.853   8.984   3.247  1.0141 -2.8148 -0.0902
  406MOL0     H53541   9.681   8.859   3.031  2.4323  2.3402 -1.0276
  406MOL0     H53542   9.702   8.769   3.177  0.8934 -0.0873  0.9524
  406MOL0     H53543   9.530   9.025   3.134  0.1065 -1.3987 -2.6018
  406MOL0     H53544   9.554   8.955   3.299  3.1381  1.0900  0.1105
  406MOL0     H53545   9.283   9.003   3.129  1.0928  0.7079  0.7620
  406MOL0     H53546   9.051   8.701   3.088 -1.2880  0.3617 -0.3103
  406MOL0     H53547   9.114   8.779   2.943 -1.5990  2.2049 -0.2946
  406MOL0     H53548   9.070   8.999   3.026 -0.9233 -1.0005 -0.0591
  406MOL0     H53549   9.024   8.937   3.184  1.3084  2.2640 -0.6402
  406MOL0     H53550   8.870   8.839   2.951  1.6070 -0.1286  0.5191
  406MOL0     H53551   8.833   8.850   3.123  1.2636 -0.8086  0.5182
  406MOL0     H53552   8.862   9.093   2.947  2.1912  0.3224  1.3472
  406MOL0     H53553   8.817   9.087   3.120  0.2462 -0.3868 -0.1889
  406MOL0     H53554   8.441   9.123   2.925  0.7049  0.7885  1.1848
  406MOL0     H53555   8.220   9.086   3.056 -0.9940  0.6834  2.5896
  406MOL0     H53556   7.949   8.832   3.405 -2.2763 -0.2387  0.5679
  406MOL0     H53557   7.710   8.863   3.448 -1.6539  1.0797 -0.3157
  406MOL0     H53558   7.516   9.236   3.306 -0.6857 -1.2430 -0.2637
  406MOL0     H53559   7.541   9.270   3.481  1.0679  2.4797 -2.0410
  406MOL0     H53560   7.315   9.097   3.367 -1.0950  1.7150 -0.8322
  406MOL0     H53561   7.295   9.263   3.387  0.3405  0.5589 -0.1439
  406MOL0     H53562   7.308   9.240   3.637  0.7159 -0.2496  0.9149
  406MOL0     H53563   7.337   9.065   3.613  1.1931 -0.5090 -2.1468
  406MOL0     H53564   7.089   9.219   3.514 -1.7914 -0.6306  1.4420
  406MOL0     H53565   7.126   9.047   3.494 -1.4842  1.6367 -1.6637
  406MOL0     H53566   7.097   9.202   3.744  0.4337  0.4089 -0.6331
  406MOL0     H53567   7.141   9.030   3.742 -0.8587 -1.0173 -0.0460
  406MOL0     H53568   6.887   9.071   3.790 -0.6156  3.2346 -0.3445
  406MOL0     H53569   6.917   8.966   3.651  2.0601 -0.8518  0.4980
  406MOL0     H53570   6.852   9.267   3.683 -1.9989 -0.9371  2.5876
  406MOL0     H53571   6.873   9.194   3.527  1.2210 -0.4673 -0.4009
  406MOL0     H53572   6.654   9.105   3.733  0.7690 -1.1802 -0.3931
  406MOL0     H53573   6.680   9.029   3.579 -0.1784  0.0363 -0.7356
  406MOL0     H53574   7.723   9.262   3.297  1.6522  1.4194 -0.3598
  406MOL0     H53575   7.952   9.235   3.247  0.8042  0.7286  1.2616
  406MOL0     H53576   8.442   8.859   3.338  1.9792  0.1203  0.4206
  406MOL0     H53577   8.652   8.929   3.237 -0.4288 -2.3503 -0.1207
  406MOL0     H53578  10.560   9.080   3.197 -1.1700 -2.7362  0.8236
  406MOL0     H53579  10.786   9.191   3.224  2.1164 -1.2773  1.9192
  406MOL0     H53580  11.243   9.158   2.989  1.7573 -1.8527  0.5414
  406MOL0     H53581  11.472   9.243   2.976 -0.0651 -2.7647  0.6400
  406MOL0     H53582  11.688   9.329   3.337  3.5675 -0.8966 -1.5894
  406MOL0     H53583  11.641   9.504   3.293  0.6797  1.0123 -0.8729
  406MOL0     H53584  11.880   9.349   3.193  0.3431  1.0385 -2.9781
  406MOL0     H53585  11.826   9.494   3.122 -1.6956  1.6480  0.5354
  406MOL0     H53586  11.896   9.499   3.423 -0.4596  1.2152  0.3825
  406MOL0     H53587  11.851   9.633   3.311 -0.2597  0.2368  1.3551
  406MOL0     H53588  12.092   9.458   3.232 -0.2047  0.8610 -1.7065
  406MOL0     H53589  12.038   9.615   3.185  2.7619  3.3386  1.2990
  406MOL0     H53590  12.289   9.707   3.503  0.5041 -0.5243  0.0272
  406MOL0     H53591  11.451   9.370   3.379 -0.3150  2.7606 -1.3910
  406MOL0     H53592  11.214   9.295   3.402  3.3071 -0.2838  2.1806
  407MOL0     O53593   2.150   6.860   2.277  0.2821  0.2913 -0.1770
  407MOL0     C53594   2.230   6.779   2.320 -0.8702  0.0466  0.8446
  407MOL0     O53595   2.221   6.640   2.316 -0.3167  0.1036  0.1586
  407MOL0     C53596   2.102   6.589   2.287  0.1577 -0.3724 -0.5838
  407MOL0     C53597   2.079   6.501   2.181  0.0539 -0.4062  0.9162
  407MOL0     C53598   1.957   6.434   2.155  0.1778  0.8840  0.0910
  407MOL0     C53599   1.842   6.462   2.239  0.1569 -0.3727 -0.3843
  407MOL0     O53600   1.716   6.421   2.212 -0.1114 -0.5826  0.5734
  407MOL0     C53601   1.675   6.391   2.076  0.2806  0.4138 -0.1222
  407MOL0     C53602   1.532   6.342   2.062 -0.2018  0.8098 -0.5867
  407MOL0     C53603   1.435   6.411   2.160 -0.8085  0.6658  0.0490
  407MOL0     C53604   1.300   6.345   2.138  0.1481  0.5952  0.4598
  407MOL0     C53605   1.180   6.435   2.176 -0.1512  0.4733  0.2949
  407MOL0     C53606   1.044   6.378   2.134 -0.0734  0.1642 -0.8618
  407MOL0     C53607   0.932   6.458   2.195 -0.8439 -0.0010  0.4611
  407MOL0     C53608   0.794   6.423   2.146 -0.3238  0.6108  0.1904
  407MOL0     N53609   0.688   6.492   2.215 -0.9390 -0.3119 -0.2476
  407MOL0     C53610   0.647   6.624   2.186 -0.5802  0.5367 -0.0773
  407MOL0     C53611   0.542   6.632   2.272  0.3739 -0.0298 -0.4386
  407MOL0     C53612   0.471   6.755   2.317 -0.1167 -0.2850 -0.2729
  407MOL0     C53613   0.405   6.818   2.193 -0.7681 -0.3712 -0.6786
  407MOL0     C53614   0.351   6.966   2.213  0.1636  1.0342  0.0794
  407MOL0     C53615   0.255   6.966   2.339 -0.4911 -0.4757  0.6342
  407MOL0     O53616   0.130   6.909   2.318  0.7662  0.0707 -0.2204
  407MOL0     C53617   0.019   6.986   2.284  0.4062  0.1749  0.1777
  407MOL0     C53618   0.026   7.100   2.198  0.2953  1.0181 -0.4291
  407MOL0     C53619  -0.100   7.160   2.158 -0.0615 -0.2269 -0.6050
  407MOL0     C53620  -0.223   7.102   2.193 -0.3523 -0.5865 -0.7926
  407MOL0     C53621  -0.346   7.164   2.151  0.0752 -0.6560  0.0015
  407MOL0     O53622  -0.460   7.113   2.192 -0.0903 -0.1014 -0.9965
  407MOL0     C53623  -0.581   7.174   2.159  0.5715 -0.4792 -0.7491
  407MOL0     C53624  -0.636   7.291   2.223  0.6632  0.1961  0.0942
  407MOL0     C53625  -0.762   7.346   2.195  0.2961 -0.5101 -0.2549
  407MOL0     C53626  -0.847   7.282   2.098 -1.5397 -0.8163  0.4311
  407MOL0     O53627  -0.973   7.318   2.064  0.1955  0.5446 -0.3641
  407MOL0     C53628  -1.029   7.445   2.113 -0.3870  0.4134  0.4907
  407MOL0     C53629  -1.159   7.460   2.031  0.9494 -0.1020 -0.1173
  407MOL0     C53630  -1.246   7.571   2.093  0.1674 -0.5901 -0.5917
  407MOL0     C53631  -1.375   7.603   2.014  0.2200  0.7112  0.7202
  407MOL0     C53632  -1.480   7.669   2.106  0.0652 -0.4143  0.1801
  407MOL0     C53633  -1.579   7.567   2.165 -0.4472 -0.3359 -0.4571
  407MOL0     C53634  -1.699   7.637   2.238  0.3546 -0.7739  0.6430
  407MOL0     C53635  -1.803   7.527   2.271 -0.3548  0.0496 -0.6731
  407MOL0    Cl53636  -1.878   7.463   2.119 -0.2787  0.5614  0.2804
  407MOL0     C53637  -0.791   7.171   2.033  0.5825 -0.8322 -0.8847
  407MOL0     C53638  -0.664   7.118   2.063 -0.5259 -0.0912  1.2510
  407MOL0     O53639  -0.337   7.257   2.070  0.1568  1.2566  0.2364
  407MOL0     C53640  -0.224   6.991   2.268 -0.2613 -0.0026 -0.1688
  407MOL0     C53641  -0.105   6.930   2.313  0.6157  0.0596  0.3763
  407MOL0     N53642   0.515   6.512   2.338  0.7670 -0.0666  0.4454
  407MOL0     N53643   0.600   6.424   2.298  0.2109 -0.3555  0.6200
  407MOL0     C53644   1.867   6.562   2.343 -0.0522  0.5351  0.3754
  407MOL0     C53645   1.990   6.624   2.361 -0.7165  0.9641 -0.7882
  407MOL0     C53646   2.349   6.835   2.385  0.0994 -0.1734 -0.4414
  407MOL0     C53647   2.451   6.754   2.441  0.0203  0.1010 -0.1892
  407MOL0     C53648   2.562   6.823   2.505  0.8771  1.0775  0.4540
  407MOL0     C53649   2.561   6.957   2.524  0.5329 -0.5616  0.3667
  407MOL0     O53650   2.653   7.020   2.591 -0.5870  0.6774  0.5434
  407MOL0     C53651   2.775   7.046   2.505 -0.1893 -0.3488 -0.6747
  407MOL0     C53652   2.907   7.039   2.578  0.6036  0.3405  0.3396
  407MOL0     C53653   2.955   7.181   2.635  0.3991  0.1357 -0.6410
  407MOL0     C53654   3.109   7.200   2.644 -0.3808 -0.5360  0.6284
  407MOL0     C53655   3.169   7.210   2.513  0.4548 -0.1365 -0.6188
  407MOL0     C53656   3.213   7.211   2.401  0.6961  0.1882 -0.1823
  407MOL0     C53657   2.459   7.031   2.468 -0.4388 -0.8533  0.1996
  407MOL0     C53658   2.350   6.978   2.409  0.0878 -0.5364  0.8215
  407MOL0     H53659   2.158   6.482   2.109  0.8061  2.1054  0.9988
  407MOL0     H53660   1.949   6.352   2.084  1.2254 -0.3679  1.3677
  407MOL0     H53661   1.739   6.316   2.027  1.1543  0.0126  1.5791
  407MOL0     H53662   1.688   6.487   2.026  2.1442  0.9903  1.3727
  407MOL0     H53663   1.532   6.237   2.092  0.9132  0.4595 -1.7615
  407MOL0     H53664   1.507   6.357   1.956 -0.4488  1.2032 -0.4767
  407MOL0     H53665   1.424   6.515   2.127 -2.4554  0.4840 -0.0628
  407MOL0     H53666   1.467   6.404   2.264 -1.1159  0.1910  0.1130
  407MOL0     H53667   1.284   6.329   2.031  2.8748  1.3036 -0.1427
  407MOL0     H53668   1.307   6.255   2.200 -0.2588 -0.7450 -1.3761
  407MOL0     H53669   1.189   6.533   2.129  1.1256  0.0466 -0.4134
  407MOL0     H53670   1.193   6.449   2.284  3.6134  1.2723 -0.1225
  407MOL0     H53671   1.027   6.276   2.170  0.3378  0.9829  1.8152
  407MOL0     H53672   1.044   6.367   2.025  2.3727 -0.3120 -0.8611
  407MOL0     H53673   0.929   6.449   2.304  0.5838 -0.0342  0.5145
  407MOL0     H53674   0.940   6.565   2.174 -0.5932  0.3682  2.2517
  407MOL0     H53675   0.778   6.315   2.148  1.1181  0.3087 -1.7470
  407MOL0     H53676   0.787   6.453   2.041 -1.2044  2.8147  0.8221
  407MOL0     H53677   0.694   6.706   2.132  0.6433  0.7433  1.2536
  407MOL0     H53678   0.528   6.833   2.368 -3.5924  2.4563 -0.2178
  407MOL0     H53679   0.391   6.728   2.387 -1.4223  1.6164 -0.9530
  407MOL0     H53680   0.321   6.754   2.165 -1.7483 -0.0239  1.2706
  407MOL0     H53681   0.479   6.817   2.112 -0.2870  1.9836 -0.3507
  407MOL0     H53682   0.437   7.030   2.234 -2.0730  4.1163  0.5103
  407MOL0     H53683   0.312   7.017   2.125 -1.7951  1.3802  1.0848
  407MOL0     H53684   0.235   7.068   2.371  0.7675  1.1368 -3.2135
  407MOL0     H53685   0.294   6.918   2.430 -1.5553 -1.1145  0.7738
  407MOL0     H53686   0.123   7.122   2.155  0.4405  0.2350 -0.5247
  407MOL0     H53687  -0.085   7.242   2.088  1.6906  0.7066  0.7776
  407MOL0     H53688  -0.554   7.341   2.275  4.1309 -1.9338 -2.8666
  407MOL0     H53689  -0.787   7.431   2.257 -0.1018 -2.2024  2.0019
  407MOL0     H53690  -0.957   7.526   2.097  1.4603 -1.3844 -0.8284
  407MOL0     H53691  -1.035   7.422   2.220  2.6925 -0.1225  0.6371
  407MOL0     H53692  -1.214   7.365   2.023  2.2898 -1.2359  2.7200
  407MOL0     H53693  -1.137   7.497   1.930  1.2743  1.7591  0.5956
  407MOL0     H53694  -1.189   7.664   2.095 -0.6672 -0.0725  0.2213
  407MOL0     H53695  -1.263   7.531   2.194  0.2304 -0.2680 -0.4523
  407MOL0     H53696  -1.358   7.674   1.932  0.1387 -1.0033 -0.8376
  407MOL0     H53697  -1.418   7.515   1.965 -0.6528  1.8804 -0.6981
  407MOL0     H53698  -1.535   7.750   2.057 -0.1539  0.9180  2.4914
  407MOL0     H53699  -1.425   7.711   2.190 -1.0463  2.3155 -0.3563
  407MOL0     H53700  -1.527   7.507   2.240  0.1231  1.6817  0.8504
  407MOL0     H53701  -1.607   7.486   2.097  1.5946 -1.6844  0.1975
  407MOL0     H53702  -1.663   7.691   2.326 -2.5072  1.8095  0.3865
  407MOL0     H53703  -1.745   7.706   2.166 -0.5711 -1.6072  0.4048
  407MOL0     H53704  -1.882   7.559   2.339  0.3171  1.9079 -0.6990
  407MOL0     H53705  -1.747   7.447   2.321  0.3367  2.1336  2.1510
  407MOL0     H53706  -0.860   7.113   1.973 -0.4181  0.2466 -0.8161
  407MOL0     H53707  -0.628   7.026   2.017 -1.9566 -1.6174  2.9888
  407MOL0     H53708  -0.315   6.938   2.294 -0.3276 -0.2602 -0.9142
  407MOL0     H53709  -0.116   6.838   2.368 -0.4214 -0.5979 -0.8745
  407MOL0     H53710   1.780   6.593   2.402 -0.7051 -4.0764  2.2836
  407MOL0     H53711   1.999   6.688   2.449  1.4838 -1.6320  1.0462
  407MOL0     H53712   2.453   6.646   2.437 -0.7792 -0.0481  1.9623
  407MOL0     H53713   2.633   6.755   2.551  1.0466 -0.7657 -2.3024
  407MOL0     H53714   2.758   7.149   2.471  2.5248  0.5152  0.3050
  407MOL0     H53715   2.790   6.976   2.423  0.6500  3.3494 -3.9702
  407MOL0     H53716   2.897   6.972   2.664  1.3919 -1.3628 -0.8356
  407MOL0     H53717   2.977   6.986   2.514  0.9336  0.8536  0.2739
  407MOL0     H53718   2.912   7.188   2.736 -1.1349 -1.2166 -1.1672
  407MOL0     H53719   2.928   7.265   2.572  2.8048 -1.0356 -3.4650
  407MOL0     H53720   3.128   7.287   2.709 -1.4971  0.0647  0.1861
  407MOL0     H53721   3.148   7.110   2.692  1.4451  0.0280  0.2445
  407MOL0     H53722   3.239   7.214   2.297 -0.3088  0.9420 -0.4242
  407MOL0     H53723   2.466   7.139   2.474  1.8767 -1.0065  2.1246
  407MOL0     H53724   2.262   7.035   2.381  0.3639 -0.8047 -0.6383
  408MOL0     O53725   3.938  10.844   6.983  0.5422  0.1853 -0.0137
  408MOL0     C53726   3.989  10.755   6.911 -0.5310 -0.5272 -0.3782
  408MOL0     O53727   3.942  10.705   6.788 -0.3476 -0.2888  0.7250
  408MOL0     C53728   3.814  10.741   6.756  0.3887  0.5917  0.1790
  408MOL0     C53729   3.703  10.656   6.777  0.0218 -0.1573 -1.1434
  408MOL0     C53730   3.570  10.696   6.743 -0.2121  0.5621 -0.1861
  408MOL0     C53731   3.554  10.815   6.681  1.0728  0.7546  0.3929
  408MOL0     O53732   3.417  10.839   6.655 -0.0217 -0.3105 -0.1531
  408MOL0     C53733   3.373  10.973   6.636 -0.7923 -1.0343 -0.8941
  408MOL0     C53734   3.221  10.976   6.642  0.2887 -0.0743 -0.4073
  408MOL0     C53735   3.181  11.125   6.616  0.4540  0.1408 -0.3161
  408MOL0     C53736   3.029  11.144   6.646 -0.6332 -0.0008  0.3286
  408MOL0     C53737   2.991  11.281   6.606  0.3041 -0.2766  0.0648
  408MOL0     C53738   2.848  11.326   6.620  0.5523  0.5419  0.2510
  408MOL0     C53739   2.805  11.344   6.761  0.1882  0.5592  0.3059
  408MOL0     C53740   2.664  11.392   6.779  1.1822 -0.0808  0.1667
  408MOL0     N53741   2.646  11.452   6.916  0.2378  0.7528  0.3797
  408MOL0     C53742   2.562  11.407   7.006 -0.3634 -0.0060 -1.2256
  408MOL0     C53743   2.579  11.496   7.109  0.3411 -0.1219 -0.6156
  408MOL0     C53744   2.513  11.487   7.247 -1.0673  1.1149  0.1070
  408MOL0     C53745   2.392  11.576   7.249  0.0602  0.0470 -0.1450
  408MOL0     C53746   2.303  11.567   7.381  0.6047 -0.3631 -0.3857
  408MOL0     C53747   2.166  11.625   7.358 -0.1758 -0.2507 -0.0947
  408MOL0     O53748   2.110  11.633   7.492 -1.2264  0.0707  0.2839
  408MOL0     C53749   1.983  11.598   7.490 -0.2454  0.5296  0.1385
  408MOL0     C53750   1.878  11.692   7.487 -0.3754 -0.3986  0.1226
  408MOL0     C53751   1.743  11.652   7.503 -0.1165  0.1909 -0.0126
  408MOL0     C53752   1.720  11.509   7.520 -0.3864  0.3781 -0.4051
  408MOL0     C53753   1.582  11.464   7.530  0.3961 -0.4629  0.5008
  408MOL0     O53754   1.557  11.336   7.575  0.3048 -0.1377  0.6860
  408MOL0     C53755   1.434  11.296   7.599  0.8899 -0.0810  0.3883
  408MOL0     C53756   1.378  11.177   7.540 -0.4394 -0.6816 -0.4767
  408MOL0     C53757   1.250  11.139   7.592 -0.1894  0.3345  0.6410
  408MOL0     C53758   1.170  11.228   7.662  0.1543  0.0873  0.5184
  408MOL0     O53759   1.044  11.185   7.697 -0.1175  0.3568  0.1141
  408MOL0     C53760   0.949  11.282   7.742  0.1612  0.6168  0.0953
  408MOL0     C53761   0.812  11.234   7.718  0.7212  0.0882  0.2823
  408MOL0     C53762   0.720  11.297   7.821  0.1765 -0.0317  0.9954
  408MOL0     C53763   0.576  11.245   7.790 -0.4347 -0.2077 -0.0516
  408MOL0     C53764   0.466  11.286   7.896 -0.3296 -1.1926  0.5199
  408MOL0     C53765   0.324  11.306   7.839  0.1878 -0.3830  0.1405
  408MOL0     C53766   0.220  11.350   7.946 -1.3548 -0.5055  0.3015
  408MOL0     C53767   0.091  11.356   7.864  0.2424 -0.2978  0.8229
  408MOL0    Cl53768  -0.041  11.385   7.976 -0.1895 -0.1149 -0.2408
  408MOL0     C53769   1.230  11.339   7.717  0.2915 -0.5785 -0.4875
  408MOL0     C53770   1.359  11.370   7.689  0.4016  0.0096 -0.6874
  408MOL0     O53771   1.494  11.541   7.495 -0.0334 -1.1677  0.7207
  408MOL0     C53772   1.822  11.418   7.514 -0.3812 -0.2026  0.8191
  408MOL0     C53773   1.957  11.463   7.499  0.1466 -0.2498  0.5601
  408MOL0     N53774   2.666  11.590   7.076  0.2348 -0.2508 -0.1940
  408MOL0     N53775   2.715  11.557   6.959  0.1355 -0.3446  0.8196
  408MOL0     C53776   3.659  10.897   6.650 -0.2866  0.4208 -0.1041
  408MOL0     C53777   3.785  10.864   6.694 -0.6129  0.2294 -0.8478
  408MOL0     C53778   4.127  10.716   6.951 -0.5233 -0.5094 -0.1568
  408MOL0     C53779   4.188  10.774   7.066  0.0414 -0.3769  0.2552
  408MOL0     C53780   4.312  10.729   7.113  0.5416  0.5290 -0.2156
  408MOL0     C53781   4.392  10.654   7.027  0.2396  0.4546 -0.9177
  408MOL0     O53782   4.514  10.602   7.071 -0.2490  0.5753  0.1884
  408MOL0     C53783   4.528  10.565   7.207 -0.1969  0.0677 -0.0441
  408MOL0     C53784   4.640  10.450   7.217 -0.1976 -0.6553 -0.5470
  408MOL0     C53785   4.659  10.408   7.369 -0.2316 -1.0820 -0.3937
  408MOL0     C53786   4.756  10.284   7.390  0.5947 -0.5701  0.7235
  408MOL0     C53787   4.891  10.315   7.430  0.1691 -0.3479 -0.4105
  408MOL0     C53788   5.008  10.318   7.471  0.5803  0.3933 -0.1548
  408MOL0     C53789   4.347  10.616   6.910  0.2385 -0.8912 -0.1308
  408MOL0     C53790   4.211  10.648   6.869 -0.5004  0.1861 -0.0080
  408MOL0     H53791   3.728  10.558   6.816  2.3597  0.3644 -1.1459
  408MOL0     H53792   3.500  10.615   6.760  1.6811 -1.5402 -1.7594
  408MOL0     H53793   3.408  11.010   6.540  0.1152  1.4779  0.3070
  408MOL0     H53794   3.419  11.041   6.708 -4.5734  0.8604 -0.0039
  408MOL0     H53795   3.181  10.953   6.741  1.2111  0.9915  0.2320
  408MOL0     H53796   3.185  10.905   6.567 -0.8525  0.9971 -0.8906
  408MOL0     H53797   3.195  11.139   6.509  0.0995  0.4238 -0.3278
  408MOL0     H53798   3.245  11.195   6.671  4.4048 -2.2721 -1.4482
  408MOL0     H53799   2.968  11.063   6.605 -0.1902 -1.4825  2.4574
  408MOL0     H53800   3.029  11.133   6.755  1.8380 -0.8654  0.3099
  408MOL0     H53801   3.014  11.291   6.500  0.8526  2.0609  0.3382
  408MOL0     H53802   3.063  11.346   6.657  2.1971 -2.3241  0.1564
  408MOL0     H53803   2.783  11.254   6.570 -0.2091  2.1618 -1.1652
  408MOL0     H53804   2.832  11.422   6.570  0.5535  1.2207  1.4960
  408MOL0     H53805   2.798  11.243   6.803  0.2258 -0.7884 -2.6456
  408MOL0     H53806   2.874  11.411   6.813 -2.2886  1.8764  2.0686
  408MOL0     H53807   2.595  11.309   6.764  2.2835 -1.1386  0.7789
  408MOL0     H53808   2.644  11.476   6.712  0.3789  0.2827  0.8402
  408MOL0     H53809   2.496  11.322   6.992  1.4434 -1.3343 -1.9229
  408MOL0     H53810   2.584  11.506   7.328 -1.0599  1.1823  0.0845
  408MOL0     H53811   2.487  11.383   7.268  0.0124  0.9534  0.7249
  408MOL0     H53812   2.328  11.548   7.164  0.5550  1.9610 -1.2155
  408MOL0     H53813   2.437  11.674   7.234  0.3246 -0.3191 -1.9956
  408MOL0     H53814   2.286  11.461   7.403  2.1272 -0.2988  1.3900
  408MOL0     H53815   2.348  11.610   7.471 -2.8996 -0.2694  1.4732
  408MOL0     H53816   2.099  11.568   7.292  0.1562 -1.0913  0.2855
  408MOL0     H53817   2.171  11.728   7.324 -0.6497  0.0359  0.6827
  408MOL0     H53818   1.882  11.799   7.467 -0.0124 -0.2843  0.7968
  408MOL0     H53819   1.658  11.720   7.502 -1.4276 -1.2897  2.3733
  408MOL0     H53820   1.421  11.120   7.459 -0.2769  0.9189 -1.5468
  408MOL0     H53821   1.220  11.038   7.565 -0.6008  0.2345  1.4572
  408MOL0     H53822   0.969  11.378   7.693  0.7556 -0.6129 -2.2413
  408MOL0     H53823   0.972  11.296   7.848  1.0130  2.2336 -0.2754
  408MOL0     H53824   0.815  11.124   7.723  0.3502 -0.0057 -1.2042
  408MOL0     H53825   0.784  11.265   7.617  0.3186 -2.2011 -0.3642
  408MOL0     H53826   0.728  11.406   7.817  2.1875 -0.1759 -0.0282
  408MOL0     H53827   0.746  11.262   7.922 -1.6357 -2.1205  0.8369
  408MOL0     H53828   0.546  11.271   7.688  1.2981 -1.6172 -0.9823
  408MOL0     H53829   0.582  11.136   7.791 -2.6273 -0.3686  0.8922
  408MOL0     H53830   0.482  11.384   7.944 -1.0379 -1.8816  2.2381
  408MOL0     H53831   0.471  11.210   7.974 -0.5822  0.0273  1.7724
  408MOL0     H53832   0.281  11.221   7.785 -2.9370  0.3774  1.2130
  408MOL0     H53833   0.325  11.389   7.767  0.3742 -0.4632  0.0507
  408MOL0     H53834   0.211  11.283   8.032  2.4112 -0.8715  0.5772
  408MOL0     H53835   0.233  11.453   7.983  0.5968  0.5491 -2.9127
  408MOL0     H53836   0.082  11.262   7.809 -0.2891  2.1792 -3.7775
  408MOL0     H53837   0.104  11.430   7.785  2.0270  0.0081  1.3398
  408MOL0     H53838   1.188  11.406   7.792  2.1108 -1.6098  1.5761
  408MOL0     H53839   1.400  11.455   7.742  0.9638  1.0005 -2.5925
  408MOL0     H53840   1.805  11.312   7.527 -0.8282 -0.0084  1.9356
  408MOL0     H53841   2.039  11.392   7.501 -1.6612 -2.4479  1.0339
  408MOL0     H53842   3.642  10.993   6.603 -2.0813  0.1330 -0.0937
  408MOL0     H53843   3.865  10.932   6.666 -0.2629 -0.0617 -0.5848
  408MOL0     H53844   4.133  10.832   7.140  0.1634 -0.4696  0.4183
  408MOL0     H53845   4.351  10.759   7.210  0.3986 -3.0229  1.1008
  408MOL0     H53846   4.434  10.525   7.247  0.3564 -1.8462 -0.5282
  408MOL0     H53847   4.555  10.648   7.272  2.7656 -1.2300  0.5297
  408MOL0     H53848   4.614  10.367   7.151 -0.5057  0.8885 -2.4865
  408MOL0     H53849   4.734  10.488   7.177 -1.0834  1.1034 -1.0629
  408MOL0     H53850   4.561  10.377   7.408  0.2095 -1.3248  0.5429
  408MOL0     H53851   4.701  10.496   7.419  0.3007 -0.6482 -1.5608
  408MOL0     H53852   4.710  10.231   7.473  0.2478  1.6155  1.9989
  408MOL0     H53853   4.760  10.225   7.298  0.0136  0.1567  0.2191
  408MOL0     H53854   5.110  10.333   7.501 -0.2656  0.7964  2.8362
  408MOL0     H53855   4.403  10.567   6.832  1.1648 -1.5337  0.9189
  408MOL0     H53856   4.172  10.608   6.775  0.6915 -0.5405 -0.2106
  409MOL0     O53857   3.205   0.743   8.774  0.5240  0.2174 -0.1959
  409MOL0     C53858   3.283   0.770   8.683  0.1772 -0.8561  0.4640
  409MOL0     O53859   3.258   0.771   8.545 -0.5823 -0.1802  0.2802
  409MOL0     C53860   3.129   0.740   8.502  0.7714 -0.2706 -0.7815
  409MOL0     C53861   3.070   0.810   8.398  0.0466  0.1963  0.7939
  409MOL0     C53862   2.941   0.772   8.344 -0.8272  0.0437 -0.2585
  409MOL0     C53863   2.876   0.662   8.398 -0.8384  0.8529  0.1507
  409MOL0     O53864   2.745   0.617   8.362 -0.4961 -0.4154 -0.6172
  409MOL0     C53865   2.686   0.667   8.236  0.7637 -0.0345 -0.8340
  409MOL0     C53866   2.590   0.559   8.179 -0.1597 -0.4364  0.4100
  409MOL0     C53867   2.464   0.574   8.267  0.9171 -0.1462 -0.1542
  409MOL0     C53868   2.361   0.473   8.212 -0.9396 -0.4886 -0.5177
  409MOL0     C53869   2.228   0.478   8.280  0.2257 -0.1361 -0.4915
  409MOL0     C53870   2.142   0.359   8.243  0.3396  0.6301 -0.5727
  409MOL0     C53871   2.009   0.351   8.310 -0.5394  0.1767  0.1267
  409MOL0     C53872   1.959   0.207   8.277  0.5156  0.3845  0.6361
  409MOL0     N53873   1.910   0.183   8.140  0.1050  0.0661 -0.6855
  409MOL0     C53874   1.778   0.198   8.112  0.4375  0.8957  0.3089
  409MOL0     C53875   1.774   0.148   7.985  0.1070  1.0020 -0.0381
  409MOL0     C53876   1.653   0.148   7.896 -0.7282 -0.0981 -0.3610
  409MOL0     C53877   1.542   0.046   7.950 -0.0286 -0.7179  0.2206
  409MOL0     C53878   1.433   0.107   8.045 -0.3046  0.4463 -0.1830
  409MOL0     C53879   1.327  -0.003   8.068 -0.3044 -0.4842  0.1334
  409MOL0     O53880   1.231   0.070   8.150 -0.3204 -0.5403  0.3335
  409MOL0     C53881   1.099   0.029   8.151  0.3098  0.0036  0.0238
  409MOL0     C53882   0.999   0.110   8.202 -0.2560  0.0985  0.4805
  409MOL0     C53883   0.863   0.058   8.199 -0.5418 -0.5841  0.8627
  409MOL0     C53884   0.833  -0.069   8.158  0.5101 -0.3594 -0.9852
  409MOL0     C53885   0.696  -0.118   8.179  0.2862  0.0922 -0.6404
  409MOL0     O53886   0.670  -0.243   8.115  0.4546 -0.0132  0.5331
  409MOL0     C53887   0.540  -0.279   8.098  0.2437 -0.1877 -0.1202
  409MOL0     C53888   0.490  -0.307   7.971  0.1022  0.6567  0.5308
  409MOL0     C53889   0.354  -0.353   7.960 -0.3118  0.6220  0.2157
  409MOL0     C53890   0.265  -0.349   8.067  0.3104 -0.1781 -0.7526
  409MOL0     O53891   0.132  -0.393   8.065 -0.3704  0.8108 -0.9996
  409MOL0     C53892   0.095  -0.492   7.973  0.8159 -0.5418 -0.7794
  409MOL0     C53893  -0.008  -0.572   8.055 -0.7333 -0.2349 -0.1273
  409MOL0     C53894  -0.105  -0.649   7.967 -0.3209 -0.1760  0.2570
  409MOL0     C53895  -0.209  -0.734   8.045 -0.0478  0.5183  0.2361
  409MOL0     C53896  -0.331  -0.769   7.961  0.4483  0.0634  1.4034
  409MOL0     C53897  -0.407  -0.895   8.007  0.5999  0.2830  0.3256
  409MOL0     C53898  -0.345  -1.019   7.959 -0.0738 -0.4977 -0.7600
  409MOL0     C53899  -0.445  -1.133   7.963  0.0586  0.4439 -0.7625
  409MOL0    Cl53900  -0.352  -1.275   7.912  0.1228  0.3302  0.4566
  409MOL0     C53901   0.323  -0.320   8.193 -0.4198 -1.1020  0.8298
  409MOL0     C53902   0.450  -0.281   8.207  0.4284  0.4679  0.4675
  409MOL0     O53903   0.619  -0.053   8.248  0.8275 -0.6930 -0.3013
  409MOL0     C53904   0.933  -0.153   8.117  0.0210  0.2491 -0.3429
  409MOL0     C53905   1.062  -0.103   8.113  0.6355 -0.4760 -1.0077
  409MOL0     N53906   1.899   0.111   7.942  0.5411  0.8664  0.0379
  409MOL0     N53907   1.982   0.123   8.039  0.4950  1.5284 -0.6253
  409MOL0     C53908   2.933   0.600   8.513 -0.0505  0.9284 -0.1152
  409MOL0     C53909   3.062   0.622   8.550  0.1001 -0.1281  0.9789
  409MOL0     C53910   3.416   0.823   8.719 -0.2356 -0.2147  0.3734
  409MOL0     C53911   3.466   0.837   8.847 -0.1500 -0.9341  0.5803
  409MOL0     C53912   3.586   0.899   8.879 -0.8899 -0.5532 -0.3055
  409MOL0     C53913   3.666   0.946   8.783 -0.1995 -0.0458  1.2724
  409MOL0     O53914   3.770   1.039   8.791  0.0437 -0.0508 -0.4105
  409MOL0     C53915   3.819   1.065   8.922 -0.5525 -0.1275  0.4087
  409MOL0     C53916   3.948   1.151   8.921 -0.9300 -1.0585 -0.5927
  409MOL0     C53917   4.069   1.104   8.834  0.0031  0.5209 -0.0451
  409MOL0     C53918   4.196   1.196   8.853  0.0427 -0.4206  0.0029
  409MOL0     C53919   4.331   1.150   8.806 -0.7792 -0.7505 -0.0614
  409MOL0     C53920   4.446   1.130   8.766  0.0239 -0.1300  0.1230
  409MOL0     C53921   3.633   0.907   8.648  0.0538  0.2913 -0.0009
  409MOL0     C53922   3.508   0.861   8.617  0.1496  0.7057 -0.1213
  409MOL0     H53923   3.119   0.898   8.357  1.6021 -0.1041  1.9250
  409MOL0     H53924   2.897   0.830   8.263  0.3382  2.9224  1.0320
  409MOL0     H53925   2.758   0.703   8.163  0.4867  0.2674 -0.9603
  409MOL0     H53926   2.632   0.759   8.261  2.0561  0.6885 -0.6330
  409MOL0     H53927   2.629   0.457   8.191 -0.9095 -1.1534 -2.5580
  409MOL0     H53928   2.574   0.577   8.073 -1.1423  1.2103  0.7931
  409MOL0     H53929   2.428   0.676   8.255  2.3142  0.3998  0.0945
  409MOL0     H53930   2.481   0.547   8.372 -1.2875 -3.2538 -0.4364
  409MOL0     H53931   2.334   0.500   8.109 -3.2959  0.5663  0.3123
  409MOL0     H53932   2.407   0.373   8.221  1.5255  0.6754  0.8520
  409MOL0     H53933   2.176   0.569   8.249  0.9709  0.4157 -0.1378
  409MOL0     H53934   2.241   0.481   8.388 -0.1354 -1.0548 -0.4160
  409MOL0     H53935   2.210   0.274   8.257  0.6080  0.5063 -2.4234
  409MOL0     H53936   2.128   0.365   8.135 -2.2444 -2.3798 -0.5280
  409MOL0     H53937   2.016   0.367   8.418 -1.1383  2.5832 -0.1303
  409MOL0     H53938   1.948   0.428   8.263  0.1874 -0.1856 -1.4940
  409MOL0     H53939   1.869   0.188   8.336 -1.2068  0.8608 -1.6895
  409MOL0     H53940   2.029   0.125   8.294 -0.8138 -0.8914  0.2439
  409MOL0     H53941   1.700   0.243   8.172  0.3913 -1.5884  2.2778
  409MOL0     H53942   1.698   0.105   7.806  1.0284  0.5096  0.1768
  409MOL0     H53943   1.616   0.249   7.876  0.4424  0.1793 -1.2978
  409MOL0     H53944   1.597  -0.030   8.007  0.5342 -1.5510 -1.3913
  409MOL0     H53945   1.489  -0.005   7.869 -0.0630 -0.2383 -0.0618
  409MOL0     H53946   1.482   0.134   8.139 -0.4435 -0.1698  0.0723
  409MOL0     H53947   1.387   0.194   7.998  1.6035  1.6535  0.0716
  409MOL0     H53948   1.383  -0.088   8.108  0.3433  0.1744  0.6721
  409MOL0     H53949   1.280  -0.031   7.973  0.3692  1.0577 -0.6883
  409MOL0     H53950   1.014   0.212   8.237 -1.2793  0.0053  1.2259
  409MOL0     H53951   0.784   0.122   8.237  0.2617 -0.2446  2.0205
  409MOL0     H53952   0.568  -0.302   7.896 -1.1343  0.5985 -0.8083
  409MOL0     H53953   0.317  -0.381   7.862  0.2645 -0.7047  0.3520
  409MOL0     H53954   0.177  -0.560   7.948  2.0443  0.1903  1.0463
  409MOL0     H53955   0.058  -0.442   7.883  1.6540  0.3035 -0.6790
  409MOL0     H53956  -0.063  -0.494   8.108  2.6958  2.6205 -0.4146
  409MOL0     H53957   0.050  -0.637   8.122 -1.1869  1.3059  1.8367
  409MOL0     H53958  -0.044  -0.709   7.899 -1.8664  1.0719 -2.3797
  409MOL0     H53959  -0.160  -0.577   7.906 -0.9109 -3.0894 -2.9901
  409MOL0     H53960  -0.161  -0.826   8.079 -0.7711  0.3924  0.9561
  409MOL0     H53961  -0.242  -0.678   8.133 -1.6586  1.3554 -0.8602
  409MOL0     H53962  -0.300  -0.793   7.859 -1.5862  0.3074  0.6784
  409MOL0     H53963  -0.396  -0.682   7.958  0.6048  0.1469  0.2027
  409MOL0     H53964  -0.506  -0.890   7.962  0.1936 -0.3000  1.1260
  409MOL0     H53965  -0.415  -0.902   8.116 -2.0386 -0.8227  0.1361
  409MOL0     H53966  -0.293  -1.017   7.863  0.8816 -1.0991 -0.2700
  409MOL0     H53967  -0.272  -1.049   8.034 -2.8775 -3.3480  1.1023
  409MOL0     H53968  -0.520  -1.123   7.884  0.8156  0.6635 -1.4671
  409MOL0     H53969  -0.492  -1.154   8.060 -0.8655  0.7578 -1.1356
  409MOL0     H53970   0.256  -0.316   8.278  0.0793 -0.0807  1.1988
  409MOL0     H53971   0.482  -0.266   8.310  1.0236 -0.2076  0.3872
  409MOL0     H53972   0.913  -0.256   8.088  0.8120  0.2242 -0.8304
  409MOL0     H53973   1.137  -0.169   8.071  0.6394 -0.8366 -0.4510
  409MOL0     H53974   2.885   0.527   8.577 -1.3403  2.0406  0.2495
  409MOL0     H53975   3.116   0.554   8.615 -0.3277 -0.2655  1.1902
  409MOL0     H53976   3.401   0.810   8.929 -0.0249  4.1390  2.7206
  409MOL0     H53977   3.608   0.917   8.984  1.2985  2.6024 -1.1410
  409MOL0     H53978   3.830   0.976   8.984  0.4396 -0.3411 -0.0573
  409MOL0     H53979   3.750   1.136   8.969 -1.0031  2.2128 -3.3253
  409MOL0     H53980   3.923   1.251   8.885  1.4527 -0.1109  0.1622
  409MOL0     H53981   3.970   1.177   9.025 -2.5965  4.1080 -1.2661
  409MOL0     H53982   4.024   1.102   8.734 -2.0012 -0.1768  0.8029
  409MOL0     H53983   4.097   1.001   8.859 -2.7203 -0.9784 -2.4826
  409MOL0     H53984   4.191   1.298   8.815 -0.4928  0.1866  1.6313
  409MOL0     H53985   4.204   1.218   8.960 -1.4413  0.8011 -0.1151
  409MOL0     H53986   4.543   1.111   8.726 -0.4252  0.6946 -1.4664
  409MOL0     H53987   3.701   0.947   8.573 -0.2194  2.2490  0.7576
  409MOL0     H53988   3.482   0.848   8.512  1.6380 -2.1096 -0.2447
  410MOL0     O53989   4.281   8.684   2.273  0.2000  0.4704  0.6054
  410MOL0     C53990   4.323   8.588   2.330  0.0027  0.3367  0.3401
  410MOL0     O53991   4.252   8.485   2.381 -0.0289  0.0921  0.4804
  410MOL0     C53992   4.116   8.486   2.359 -0.5388 -0.0195 -0.2601
  410MOL0     C53993   4.039   8.509   2.473  0.0064  0.1748 -0.2775
  410MOL0     C53994   3.897   8.497   2.477  0.3867  1.0452  0.0285
  410MOL0     C53995   3.832   8.477   2.361  0.6937 -0.0245 -0.3051
  410MOL0     O53996   3.701   8.455   2.381  0.3702  0.2332  0.1894
  410MOL0     C53997   3.621   8.422   2.268 -0.5208  0.1401 -0.1266
  410MOL0     C53998   3.472   8.435   2.307 -0.0916  0.9978 -0.6397
  410MOL0     C53999   3.372   8.416   2.195 -0.3937 -0.4880  0.7792
  410MOL0     C54000   3.234   8.415   2.255  0.6365  0.0744  0.2311
  410MOL0     C54001   3.140   8.331   2.156 -0.1473 -0.7062  0.1659
  410MOL0     C54002   3.137   8.184   2.195  1.1317  0.1898 -0.4591
  410MOL0     C54003   3.027   8.178   2.309  0.1609  0.1291 -0.3741
  410MOL0     C54004   3.001   8.038   2.364  0.3069  0.1236  0.6367
  410MOL0     N54005   2.875   8.018   2.422 -0.4233  0.7348 -0.3871
  410MOL0     C54006   2.835   8.084   2.537 -0.3915  0.1318  0.1897
  410MOL0     C54007   2.720   8.021   2.566 -0.3083 -0.0251  0.7208
  410MOL0     C54008   2.643   8.031   2.697 -0.1216 -0.2453 -0.7291
  410MOL0     C54009   2.502   8.089   2.682 -0.2001  0.1682  0.0371
  410MOL0     C54010   2.515   8.245   2.645 -0.3054  0.1006  0.1288
  410MOL0     C54011   2.378   8.309   2.663 -0.0161  0.2273  0.9217
  410MOL0     O54012   2.356   8.308   2.801  0.3575  0.3538  0.3585
  410MOL0     C54013   2.239   8.366   2.852  1.1154  0.3680 -0.8213
  410MOL0     C54014   2.183   8.320   2.977  0.3962  0.1379  0.3114
  410MOL0     C54015   2.077   8.383   3.034  0.0829  0.2806 -0.9927
  410MOL0     C54016   2.006   8.487   2.961  0.4702  0.6217  0.3027
  410MOL0     C54017   1.894   8.563   3.028 -0.8996 -0.5378 -0.3759
  410MOL0     O54018   1.867   8.531   3.150 -0.4175 -0.0611 -0.7729
  410MOL0     C54019   1.780   8.611   3.218  0.6961 -0.0167  0.9665
  410MOL0     C54020   1.643   8.605   3.193  0.4488  0.2376  0.4187
  410MOL0     C54021   1.551   8.665   3.279 -0.1673  0.0838  0.6404
  410MOL0     C54022   1.590   8.736   3.390  0.6547 -0.0302 -0.5382
  410MOL0     O54023   1.489   8.786   3.460 -0.1298  0.1947  0.1226
  410MOL0     C54024   1.512   8.863   3.579 -0.2973 -0.3493  0.6033
  410MOL0     C54025   1.376   8.933   3.620 -1.2690  0.1091  0.7215
  410MOL0     C54026   1.374   8.956   3.768 -0.1276  0.2763 -0.7095
  410MOL0     C54027   1.249   9.030   3.803  0.6288 -0.1222 -0.8695
  410MOL0     C54028   1.207   9.033   3.954 -0.2381  0.0498 -0.2106
  410MOL0     C54029   1.327   9.075   4.044  1.3467  0.3226  0.1701
  410MOL0     C54030   1.291   9.108   4.191 -0.1850 -0.0963  0.3660
  410MOL0     C54031   1.417   9.113   4.273 -0.0017  0.0663 -0.6231
  410MOL0    Cl54032   1.503   8.954   4.259 -0.1193 -0.3749  0.3605
  410MOL0     C54033   1.726   8.760   3.401 -0.1793 -0.5010  0.1022
  410MOL0     C54034   1.817   8.689   3.319 -0.4461  0.8211 -0.8770
  410MOL0     O54035   1.842   8.654   2.967  0.0777  0.7247  0.1343
  410MOL0     C54036   2.049   8.527   2.829 -0.4143 -0.2050  0.4711
  410MOL0     C54037   2.167   8.468   2.782 -0.6506  0.1635 -0.0265
  410MOL0     N54038   2.680   7.924   2.467 -0.2798  0.6026  0.4532
  410MOL0     N54039   2.788   7.921   2.393 -0.4398  0.2377 -0.1935
  410MOL0     C54040   3.910   8.466   2.247  0.8458 -0.4655  0.5497
  410MOL0     C54041   4.045   8.463   2.244  0.1660  0.3699  0.1904
  410MOL0     C54042   4.469   8.587   2.346  0.3325  0.4445  0.6714
  410MOL0     C54043   4.532   8.473   2.397  0.1681  0.2104 -0.0395
  410MOL0     C54044   4.672   8.468   2.399 -0.8851  0.2412  1.0524
  410MOL0     C54045   4.746   8.571   2.359 -0.4484  0.0529  0.2269
  410MOL0     O54046   4.885   8.568   2.372 -0.1513  0.2907 -0.3689
  410MOL0     C54047   4.945   8.679   2.456  0.0116  0.3991  0.0602
  410MOL0     C54048   5.092   8.640   2.463  0.4661 -0.4277 -0.4771
  410MOL0     C54049   5.168   8.657   2.598  0.5975  0.1538  0.6447
  410MOL0     C54050   5.141   8.787   2.666  0.3728 -1.0002 -0.1459
  410MOL0     C54051   5.232   8.805   2.773 -0.1163 -0.0800 -0.5240
  410MOL0     C54052   5.308   8.804   2.866 -0.3619  0.3341 -0.3867
  410MOL0     C54053   4.690   8.693   2.328  0.5506  0.2374 -0.1190
  410MOL0     C54054   4.549   8.698   2.319 -0.2221 -1.4030  0.1145
  410MOL0     H54055   4.097   8.509   2.564 -1.1840  0.3196  0.5083
  410MOL0     H54056   3.855   8.509   2.577 -0.1021 -1.2199  0.1484
  410MOL0     H54057   3.642   8.323   2.227 -2.2350  0.3282 -1.5792
  410MOL0     H54058   3.637   8.502   2.195 -2.8448  3.6051  2.8033
  410MOL0     H54059   3.457   8.537   2.345  0.9532  0.7595  0.4585
  410MOL0     H54060   3.452   8.367   2.390  0.3990  2.0173  0.3386
  410MOL0     H54061   3.400   8.321   2.147 -0.3033  0.2987 -0.7886
  410MOL0     H54062   3.386   8.492   2.118  1.7530  0.0493  1.6221
  410MOL0     H54063   3.236   8.359   2.349  1.4061  1.4386  1.0562
  410MOL0     H54064   3.194   8.515   2.270 -0.8734 -0.4248 -0.3058
  410MOL0     H54065   3.181   8.330   2.054  1.6885 -1.8133  0.8514
  410MOL0     H54066   3.039   8.371   2.144 -0.1271 -0.2914  1.2588
  410MOL0     H54067   3.229   8.134   2.229  0.3612 -1.0494 -0.1001
  410MOL0     H54068   3.091   8.125   2.115  0.4494 -1.1657  0.8650
  410MOL0     H54069   3.069   8.239   2.390  3.3868 -3.1482  0.7179
  410MOL0     H54070   2.932   8.219   2.275  0.5946  1.2431 -0.2972
  410MOL0     H54071   3.078   8.009   2.436 -0.0001  0.2698  1.0318
  410MOL0     H54072   3.010   7.967   2.281  0.0415 -0.7771  1.3585
  410MOL0     H54073   2.888   8.151   2.603  0.3776 -0.3055  0.0232
  410MOL0     H54074   2.702   8.090   2.768 -1.0506 -1.1784  0.8612
  410MOL0     H54075   2.626   7.929   2.732 -0.6555  0.4462  1.1310
  410MOL0     H54076   2.441   8.065   2.769 -1.0592 -0.9883 -0.8491
  410MOL0     H54077   2.453   8.041   2.597 -0.7670  0.5800  0.1285
  410MOL0     H54078   2.582   8.294   2.715  1.1072 -0.1544 -1.0093
  410MOL0     H54079   2.557   8.254   2.545 -0.3774 -1.4128 -0.0634
  410MOL0     H54080   2.297   8.262   2.606  0.1836  3.8277 -2.8440
  410MOL0     H54081   2.390   8.406   2.614  0.4569  0.7834  2.1199
  410MOL0     H54082   2.230   8.231   3.020  1.4283  0.2868 -0.4658
  410MOL0     H54083   2.042   8.349   3.131  0.8031  0.8861 -0.5106
  410MOL0     H54084   1.598   8.538   3.120 -0.9461  2.5278 -0.9370
  410MOL0     H54085   1.444   8.659   3.261 -0.4923  1.8562  1.7811
  410MOL0     H54086   1.582   8.945   3.561 -1.1040  0.8673  2.5995
  410MOL0     H54087   1.543   8.801   3.664 -0.8450  0.7396  1.6407
  410MOL0     H54088   1.287   8.873   3.595 -1.3452 -0.1403  1.5641
  410MOL0     H54089   1.374   9.030   3.571 -0.1752 -0.0348  0.3587
  410MOL0     H54090   1.463   9.011   3.798  0.5545 -1.4634  0.7151
  410MOL0     H54091   1.375   8.857   3.816  0.5761  0.2048 -0.8727
  410MOL0     H54092   1.273   9.135   3.782  2.3844  0.0232  1.4713
  410MOL0     H54093   1.168   9.007   3.733  1.4563 -0.4889 -1.7223
  410MOL0     H54094   1.181   8.931   3.983  0.7970  0.5033  2.6472
  410MOL0     H54095   1.121   9.095   3.979  1.0109  0.4758  3.7368
  410MOL0     H54096   1.365   9.169   4.005  0.4408  0.1000 -1.3213
  410MOL0     H54097   1.409   9.003   4.031  0.8995 -0.1813  0.0668
  410MOL0     H54098   1.250   9.209   4.195  1.5910  0.7820 -1.3541
  410MOL0     H54099   1.213   9.035   4.212  0.2241 -0.1031  1.9907
  410MOL0     H54100   1.392   9.145   4.375  1.6658  1.0588 -0.4940
  410MOL0     H54101   1.485   9.192   4.242  1.1530 -1.0490 -1.0305
  410MOL0     H54102   1.759   8.825   3.482 -0.8464 -2.5410  2.1305
  410MOL0     H54103   1.923   8.698   3.342 -0.0572  0.3166 -2.3790
  410MOL0     H54104   2.003   8.614   2.783 -0.0626  0.2028  0.8686
  410MOL0     H54105   2.212   8.510   2.693 -1.0924  1.4865  0.3472
  410MOL0     H54106   3.854   8.460   2.153 -1.7621  2.3714  1.7370
  410MOL0     H54107   4.097   8.455   2.149 -0.7712 -0.6706 -0.2536
  410MOL0     H54108   4.476   8.383   2.421  0.1644 -0.5450 -2.6014
  410MOL0     H54109   4.727   8.382   2.438  1.3354  0.4212 -1.3825
  410MOL0     H54110   4.898   8.682   2.555  0.9951  1.2822  0.5303
  410MOL0     H54111   4.926   8.778   2.412 -1.3832  0.6165  1.0804
  410MOL0     H54112   5.097   8.532   2.445  1.6314 -0.6909  1.0970
  410MOL0     H54113   5.148   8.692   2.385 -1.6637  2.9362  0.0248
  410MOL0     H54114   5.276   8.646   2.583  0.6641  0.2089  1.0560
  410MOL0     H54115   5.145   8.571   2.663  4.2288 -3.4108 -2.2354
  410MOL0     H54116   5.169   8.873   2.605  1.2489 -1.1343  0.0526
  410MOL0     H54117   5.036   8.797   2.696 -0.0096 -1.0331 -1.4071
  410MOL0     H54118   5.379   8.809   2.946  0.8912 -1.5931 -1.3024
  410MOL0     H54119   4.743   8.786   2.309 -2.3675  1.5060 -3.0510
  410MOL0     H54120   4.515   8.798   2.294  3.2530  0.5347  2.2570
  411MOL0     O54121   1.588   3.013   7.810 -1.1038  0.4471  0.2286
  411MOL0     C54122   1.589   2.926   7.722  1.1103  0.1795  1.4561
  411MOL0     O54123   1.480   2.844   7.689 -0.0151 -0.2172  1.8995
  411MOL0     C54124   1.357   2.866   7.743 -1.1175  0.6165 -0.1729
  411MOL0     C54125   1.335   2.877   7.880 -0.4122 -0.7458  0.8661
  411MOL0     C54126   1.205   2.886   7.929  0.9889 -0.4368  0.2926
  411MOL0     C54127   1.091   2.876   7.847 -0.0019  0.1009 -0.9752
  411MOL0     O54128   0.969   2.875   7.903  0.4342 -0.0109  0.1854
  411MOL0     C54129   0.858   2.825   7.834 -0.7827  0.6982  0.0746
  411MOL0     C54130   0.753   2.802   7.946  0.4234 -0.3752 -0.3095
  411MOL0     C54131   0.630   2.733   7.883  0.0809 -0.4322  0.5739
  411MOL0     C54132   0.515   2.701   7.988  0.1755 -0.2370  0.7078
  411MOL0     C54133   0.403   2.633   7.912 -1.0530 -0.1707 -0.3125
  411MOL0     C54134   0.317   2.536   7.993  0.4224 -0.5427 -0.3682
  411MOL0     C54135   0.198   2.493   7.911  0.2417  0.0100  0.9817
  411MOL0     C54136   0.114   2.401   8.002  0.6144 -1.1201  0.4122
  411MOL0     N54137  -0.026   2.446   8.015 -0.3131  0.8590  0.6112
  411MOL0     C54138  -0.138   2.363   8.007  0.7723  0.0372 -0.5965
  411MOL0     C54139  -0.247   2.438   8.032  0.0952 -0.7959 -0.4224
  411MOL0     C54140  -0.380   2.390   8.057  0.8694  0.9915  1.3161
  411MOL0     C54141  -0.489   2.464   7.993  0.6996  0.7751 -0.1338
  411MOL0     C54142  -0.619   2.470   8.085 -0.0129 -0.0341 -0.0972
  411MOL0     C54143  -0.744   2.521   8.011 -0.8783 -0.1383 -0.7606
  411MOL0     O54144  -0.791   2.429   7.914 -0.5217 -0.0955  0.2944
  411MOL0     C54145  -0.914   2.456   7.845 -0.7671 -0.3020 -0.5120
  411MOL0     C54146  -0.974   2.582   7.829  0.0926 -0.0266 -0.0028
  411MOL0     C54147  -1.099   2.591   7.774 -0.1857 -1.5441  0.4300
  411MOL0     C54148  -1.184   2.486   7.752  0.1466  0.2034 -0.6399
  411MOL0     C54149  -1.323   2.506   7.707 -0.3174 -0.5227  0.3933
  411MOL0     O54150  -1.372   2.626   7.731  0.2622 -0.3709  0.5898
  411MOL0     C54151  -1.496   2.657   7.679 -0.0633  0.3828 -0.7204
  411MOL0     C54152  -1.621   2.589   7.705 -0.5787  0.4563  0.0674
  411MOL0     C54153  -1.745   2.624   7.644  0.1024 -0.6143 -0.6043
  411MOL0     C54154  -1.749   2.744   7.575  0.2475  0.1109  0.6708
  411MOL0     O54155  -1.868   2.776   7.511  0.1037  0.3800  0.2466
  411MOL0     C54156  -1.921   2.690   7.406 -0.5775  0.1080  0.9749
  411MOL0     C54157  -2.027   2.768   7.336  0.1166 -0.0103 -0.2938
  411MOL0     C54158  -2.154   2.794   7.425 -0.1487  0.4426  0.4112
  411MOL0     C54159  -2.235   2.901   7.363 -0.1782  0.7874 -0.0202
  411MOL0     C54160  -2.341   2.856   7.254  0.1457 -0.0456 -0.3781
  411MOL0     C54161  -2.473   2.799   7.313  0.0822 -0.1409 -0.6621
  411MOL0     C54162  -2.555   2.738   7.198 -0.2069  0.0461 -0.9234
  411MOL0     C54163  -2.700   2.726   7.241  0.3637  0.3062  0.6050
  411MOL0    Cl54164  -2.727   2.597   7.348 -0.0232 -0.1537  0.1777
  411MOL0     C54165  -1.635   2.815   7.567 -1.0016 -0.9296  0.2472
  411MOL0     C54166  -1.507   2.771   7.603 -0.7385 -0.0078 -0.0496
  411MOL0     O54167  -1.377   2.407   7.659  0.7721 -0.1558 -0.6270
  411MOL0     C54168  -1.127   2.362   7.781  0.2635 -0.6168 -0.5858
  411MOL0     C54169  -0.989   2.347   7.811  0.2401  0.1063  0.5951
  411MOL0     N54170  -0.195   2.566   8.058 -0.7601  0.4124  0.6441
  411MOL0     N54171  -0.064   2.568   8.047  0.7163 -0.3265 -0.5885
  411MOL0     C54172   1.116   2.844   7.711 -0.3382 -0.1519 -0.1472
  411MOL0     C54173   1.250   2.847   7.657  1.0985 -0.2361  0.0012
  411MOL0     C54174   1.707   2.923   7.633  0.3663 -0.1294  0.6890
  411MOL0     C54175   1.715   2.840   7.520  0.3162 -0.9470  0.6252
  411MOL0     C54176   1.822   2.851   7.431  0.0858  0.1177  0.1608
  411MOL0     C54177   1.932   2.928   7.463 -0.2641  0.3552 -0.5773
  411MOL0     O54178   2.056   2.919   7.398  0.9822 -0.5253 -0.6971
  411MOL0     C54179   2.061   2.825   7.294  0.8039 -0.2128 -0.1164
  411MOL0     C54180   2.200   2.818   7.237  0.2765 -0.5943  0.9963
  411MOL0     C54181   2.226   2.705   7.132 -0.4350 -0.6322  0.2338
  411MOL0     C54182   2.144   2.722   7.000 -1.5890 -0.3698 -0.2604
  411MOL0     C54183   2.019   2.649   7.018  0.2557  0.2215  0.5985
  411MOL0     C54184   1.907   2.605   7.003  0.4542 -0.2774 -0.5642
  411MOL0     C54185   1.923   3.013   7.574 -0.3762 -0.0648  0.2251
  411MOL0     C54186   1.815   3.014   7.659 -0.1923  0.0648 -1.4861
  411MOL0     H54187   1.414   2.895   7.951 -0.5684 -1.5317  1.2489
  411MOL0     H54188   1.200   2.907   8.035  0.2745  1.2133 -0.0371
  411MOL0     H54189   0.887   2.734   7.780  2.0347  3.2693 -3.2597
  411MOL0     H54190   0.831   2.903   7.762 -2.6719  0.0074 -0.0115
  411MOL0     H54191   0.742   2.901   7.991 -0.5216 -0.8462  0.5219
  411MOL0     H54192   0.793   2.738   8.025 -2.4472 -1.0017  0.7318
  411MOL0     H54193   0.670   2.642   7.837  0.3862  0.2837 -0.6056
  411MOL0     H54194   0.593   2.808   7.813 -1.3648 -0.6926  1.0088
  411MOL0     H54195   0.554   2.639   8.070 -0.6803 -0.7711  0.7264
  411MOL0     H54196   0.499   2.804   8.021 -1.0525  0.3005 -1.3876
  411MOL0     H54197   0.443   2.589   7.820 -0.8443  0.8330 -0.7227
  411MOL0     H54198   0.343   2.716   7.873  0.1890  0.3457 -1.1836
  411MOL0     H54199   0.280   2.584   8.084 -1.3913  2.2259 -2.3959
  411MOL0     H54200   0.370   2.448   8.031 -2.1169 -0.2225  4.7613
  411MOL0     H54201   0.139   2.580   7.881  0.2030 -0.9321 -2.0060
  411MOL0     H54202   0.218   2.446   7.814 -1.9673  0.9009  0.0200
  411MOL0     H54203   0.160   2.385   8.099  1.3444 -0.6751  0.1459
  411MOL0     H54204   0.107   2.304   7.953  0.4426 -1.8414  1.8313
  411MOL0     H54205  -0.147   2.256   7.990 -0.7630 -0.2948  1.7601
  411MOL0     H54206  -0.404   2.387   8.163 -0.4348  1.0663  1.0327
  411MOL0     H54207  -0.378   2.290   8.011  0.2950  1.9906 -1.0426
  411MOL0     H54208  -0.514   2.415   7.898  0.2543 -3.7390  2.0264
  411MOL0     H54209  -0.458   2.566   7.969 -1.8598  2.1103  1.7926
  411MOL0     H54210  -0.637   2.367   8.117  1.1958 -0.6747 -1.3627
  411MOL0     H54211  -0.583   2.535   8.165  2.3671 -1.2615 -0.0736
  411MOL0     H54212  -0.722   2.616   7.963  1.2966 -1.0436 -1.6794
  411MOL0     H54213  -0.824   2.539   8.084  0.1326  2.8774 -0.2801
  411MOL0     H54214  -0.915   2.668   7.862 -0.2079 -0.1608  0.9161
  411MOL0     H54215  -1.136   2.690   7.750  2.2008 -0.3486  1.3884
  411MOL0     H54216  -1.617   2.506   7.775 -2.5688  1.2501  1.1803
  411MOL0     H54217  -1.835   2.567   7.666 -0.8469  1.0325 -0.0996
  411MOL0     H54218  -1.965   2.602   7.455 -0.8619  0.1053  0.7172
  411MOL0     H54219  -1.844   2.656   7.337 -1.1408 -1.3902  1.0357
  411MOL0     H54220  -2.048   2.714   7.244  0.4568 -0.7397  0.0470
  411MOL0     H54221  -1.983   2.863   7.303 -0.9846  0.3839 -0.6897
  411MOL0     H54222  -2.109   2.843   7.513  2.8610  1.6049 -1.6056
  411MOL0     H54223  -2.214   2.708   7.454 -0.6196  0.7408  0.3377
  411MOL0     H54224  -2.287   2.959   7.439 -2.3969 -1.4592  0.3165
  411MOL0     H54225  -2.175   2.974   7.308 -0.6413  1.4946  0.3961
  411MOL0     H54226  -2.297   2.785   7.184  2.9525  1.8678 -0.7220
  411MOL0     H54227  -2.370   2.949   7.203  0.6073  0.5101  0.3435
  411MOL0     H54228  -2.532   2.884   7.349  1.1094  0.2397  0.1707
  411MOL0     H54229  -2.456   2.724   7.391 -1.2434 -0.2768 -0.4802
  411MOL0     H54230  -2.550   2.805   7.112  0.6139  0.1883 -0.7695
  411MOL0     H54231  -2.513   2.642   7.167 -0.2846  0.3577 -2.0359
  411MOL0     H54232  -2.758   2.691   7.155  1.7831 -0.6112 -0.0201
  411MOL0     H54233  -2.741   2.823   7.270  2.6017  1.6359 -0.4751
  411MOL0     H54234  -1.632   2.907   7.510 -3.8525 -1.4932 -0.9782
  411MOL0     H54235  -1.418   2.832   7.597 -0.1303 -0.8602  0.1585
  411MOL0     H54236  -1.183   2.274   7.750  0.4908 -0.0909 -2.6042
  411MOL0     H54237  -0.940   2.253   7.831  0.9797  0.5900  1.1190
  411MOL0     H54238   1.035   2.839   7.639  0.5634 -0.5092 -1.1489
  411MOL0     H54239   1.263   2.832   7.550  0.9613  1.1660 -0.2245
  411MOL0     H54240   1.627   2.783   7.494 -0.1822  0.6924 -1.5837
  411MOL0     H54241   1.808   2.791   7.341 -1.7652  1.0340 -0.2150
  411MOL0     H54242   2.005   2.855   7.205  4.9660 -2.1996 -3.7764
  411MOL0     H54243   2.029   2.727   7.330  3.1574 -1.0012 -0.0203
  411MOL0     H54244   2.225   2.913   7.189 -0.8852 -1.8318 -2.2856
  411MOL0     H54245   2.267   2.808   7.324 -1.0942 -0.4200  2.1064
  411MOL0     H54246   2.218   2.606   7.178  2.2869 -1.5032 -0.9062
  411MOL0     H54247   2.333   2.719   7.113 -0.4394  0.1696  0.7578
  411MOL0     H54248   2.132   2.830   6.993  0.3801  0.0604  1.8669
  411MOL0     H54249   2.204   2.683   6.917  0.2405 -1.1616  1.3426
  411MOL0     H54250   1.803   2.581   7.003  0.8223 -2.0226  0.4011
  411MOL0     H54251   2.017   3.060   7.600 -0.3006 -0.3729  0.5212
  411MOL0     H54252   1.809   3.075   7.748  1.8018 -2.9235  0.9051
  412MOL0     O54253   7.534   0.814   5.563  0.1142 -0.5867 -0.3416
  412MOL0     C54254   7.561   0.833   5.681 -0.2129 -0.4005  0.3332
  412MOL0     O54255   7.551   0.951   5.742 -0.3930  0.3168  0.2966
  412MOL0     C54256   7.503   1.056   5.672  0.8202 -0.1603 -0.2996
  412MOL0     C54257   7.569   1.111   5.553  0.2178  0.2013 -0.1632
  412MOL0     C54258   7.511   1.219   5.493 -0.0905 -0.2660  0.2552
  412MOL0     C54259   7.384   1.259   5.530  0.3642 -1.2817 -0.0550
  412MOL0     O54260   7.326   1.374   5.474  0.1879  0.8286 -0.1296
  412MOL0     C54261   7.397   1.468   5.395 -0.2552 -0.1341  0.8696
  412MOL0     C54262   7.310   1.566   5.319  0.3967  0.2537 -0.0620
  412MOL0     C54263   7.188   1.505   5.234 -1.0034  0.5143  0.0159
  412MOL0     C54264   7.110   1.627   5.186  0.4354 -0.3440 -0.2813
  412MOL0     C54265   6.981   1.587   5.107  0.2639  0.1255 -0.1986
  412MOL0     C54266   7.014   1.506   4.982 -0.1398 -0.2746  0.5570
  412MOL0     C54267   6.891   1.491   4.900 -0.2083  0.0569 -0.2398
  412MOL0     C54268   6.924   1.414   4.769  0.0603 -0.0405 -0.3819
  412MOL0     N54269   6.801   1.361   4.696  0.1479  0.1787  0.1140
  412MOL0     C54270   6.740   1.237   4.696  0.8764 -1.3675 -0.7418
  412MOL0     C54271   6.632   1.246   4.620 -0.9335 -0.4000  0.5286
  412MOL0     C54272   6.536   1.147   4.585 -0.0524 -0.4682  0.2445
  412MOL0     C54273   6.541   1.112   4.439 -0.1611 -0.2969  0.4147
  412MOL0     C54274   6.443   1.010   4.398 -0.3597  0.0968 -0.3018
  412MOL0     C54275   6.462   0.978   4.249 -0.5701 -0.1258 -0.4632
  412MOL0     O54276   6.398   0.849   4.239 -0.0990 -0.7481  0.0426
  412MOL0     C54277   6.263   0.823   4.251 -0.8338 -0.9290 -0.1505
  412MOL0     C54278   6.217   0.690   4.270  1.3438 -0.9738  0.3441
  412MOL0     C54279   6.076   0.668   4.294 -0.4774  0.4610 -0.6957
  412MOL0     C54280   5.988   0.775   4.299  0.6764  0.3384 -0.4891
  412MOL0     C54281   5.835   0.764   4.326 -0.2683 -0.2799  0.2796
  412MOL0     O54282   5.791   0.638   4.347 -0.8645  0.4294 -0.1683
  412MOL0     C54283   5.660   0.603   4.359  0.1728  0.1172 -0.2499
  412MOL0     C54284   5.566   0.685   4.424  0.3827  0.6323  0.2138
  412MOL0     C54285   5.434   0.645   4.427 -0.2462  0.7073 -0.1805
  412MOL0     C54286   5.401   0.509   4.395  0.7820 -0.4615  0.4182
  412MOL0     O54287   5.266   0.480   4.405 -0.5859 -1.0099 -0.2474
  412MOL0     C54288   5.212   0.347   4.412  0.5666 -0.4652 -0.7404
  412MOL0     C54289   5.263   0.272   4.538  0.9646 -0.1218 -0.0953
  412MOL0     C54290   5.215   0.343   4.666  0.5597 -0.4640  0.9225
  412MOL0     C54291   5.062   0.379   4.655 -1.0259 -0.0058 -0.8617
  412MOL0     C54292   4.999   0.413   4.791 -0.2286  0.2851 -0.1565
  412MOL0     C54293   4.853   0.451   4.780 -0.4106 -0.5033  0.4308
  412MOL0     C54294   4.772   0.330   4.741 -0.0512  0.3520  0.3595
  412MOL0     C54295   4.617   0.338   4.775 -0.4838  0.2257  0.1707
  412MOL0    Cl54296   4.583   0.390   4.946  0.5000 -0.1021  0.1324
  412MOL0     C54297   5.499   0.418   4.344  0.7922  0.5329 -0.2090
  412MOL0     C54298   5.630   0.472   4.321 -0.0635  0.2309 -0.1978
  412MOL0     O54299   5.765   0.856   4.299 -0.4152 -0.3736 -0.0154
  412MOL0     C54300   6.042   0.900   4.275  0.5712 -0.6738  0.7038
  412MOL0     C54301   6.168   0.926   4.245 -0.2650 -0.0505  0.2189
  412MOL0     N54302   6.632   1.374   4.564 -0.1863  0.6691 -0.3567
  412MOL0     N54303   6.726   1.443   4.619  0.4874  0.7492  0.1977
  412MOL0     C54304   7.322   1.211   5.642 -0.0958  0.7818  0.3882
  412MOL0     C54305   7.378   1.108   5.716 -0.3141  0.6696  0.3131
  412MOL0     C54306   7.601   0.722   5.768 -0.3885 -0.0044 -0.2665
  412MOL0     C54307   7.579   0.728   5.903 -0.7750 -0.0055 -0.2722
  412MOL0     C54308   7.607   0.618   5.982  0.1444  0.4467 -0.3395
  412MOL0     C54309   7.673   0.503   5.928  0.4994 -1.0513  0.8431
  412MOL0     O54310   7.700   0.387   6.002  0.1176 -0.3437 -0.5313
  412MOL0     C54311   7.637   0.353   6.126 -0.0659 -0.3439 -0.0316
  412MOL0     C54312   7.490   0.375   6.131  1.0152 -0.0056 -0.0417
  412MOL0     C54313   7.432   0.300   6.247 -0.1446  0.1075  0.0073
  412MOL0     C54314   7.291   0.337   6.282  0.2659  0.2997 -0.4088
  412MOL0     C54315   7.288   0.471   6.340  0.0871 -0.0100  0.1063
  412MOL0     C54316   7.287   0.579   6.395  0.6711 -0.1757 -0.2345
  412MOL0     C54317   7.719   0.509   5.793  0.2476  0.1210 -1.0179
  412MOL0     C54318   7.682   0.617   5.717  0.4696  0.5624 -0.1404
  412MOL0     H54319   7.650   1.056   5.506  0.4840 -0.1714  0.7039
  412MOL0     H54320   7.560   1.249   5.400  0.2939 -0.2012  0.4774
  412MOL0     H54321   7.453   1.402   5.328 -0.9347 -0.1586  0.3093
  412MOL0     H54322   7.480   1.517   5.446  1.7515 -1.2974 -1.1045
  412MOL0     H54323   7.359   1.632   5.247 -1.7522  1.6888 -0.2929
  412MOL0     H54324   7.263   1.626   5.397 -1.2438  1.3396 -1.7921
  412MOL0     H54325   7.125   1.434   5.290 -1.4760  0.0684 -1.0589
  412MOL0     H54326   7.234   1.451   5.151  1.8058 -0.3227  1.9718
  412MOL0     H54327   7.082   1.687   5.273  1.6813  0.7587 -0.6050
  412MOL0     H54328   7.170   1.701   5.133 -0.2734 -1.7786 -3.2589
  412MOL0     H54329   6.923   1.677   5.084 -1.1752 -0.3210  1.4995
  412MOL0     H54330   6.914   1.532   5.173  0.3470  0.4711  0.1753
  412MOL0     H54331   7.053   1.405   4.999 -0.1312 -0.6574 -1.5049
  412MOL0     H54332   7.088   1.564   4.925  0.5031 -1.0276  0.5961
  412MOL0     H54333   6.819   1.431   4.957 -1.0418  0.1816 -1.1421
  412MOL0     H54334   6.853   1.590   4.874  1.3713  0.2051 -2.2451
  412MOL0     H54335   6.989   1.328   4.786 -0.4495 -0.9171 -2.4818
  412MOL0     H54336   6.985   1.480   4.707 -0.5267 -0.0726 -1.0110
  412MOL0     H54337   6.779   1.148   4.744 -3.1141 -2.3290  1.1049
  412MOL0     H54338   6.433   1.177   4.607 -0.4790 -1.8454  0.2286
  412MOL0     H54339   6.561   1.059   4.645  0.3289 -0.3929  0.1972
  412MOL0     H54340   6.642   1.078   4.415 -0.1433 -0.3880  0.6127
  412MOL0     H54341   6.522   1.209   4.392 -1.2597 -1.1121 -0.8942
  412MOL0     H54342   6.473   0.919   4.451 -1.0398  0.0977  0.0916
  412MOL0     H54343   6.341   1.046   4.413 -0.8718 -1.0962 -0.8436
  412MOL0     H54344   6.567   0.960   4.227 -0.6098 -0.0406 -0.7274
  412MOL0     H54345   6.428   1.048   4.172 -0.1577  1.7125  0.9534
  412MOL0     H54346   6.288   0.609   4.283  0.7958 -1.4201  0.5551
  412MOL0     H54347   6.038   0.569   4.319 -4.2455  1.6607 -1.0222
  412MOL0     H54348   5.579   0.789   4.451  0.3695  1.2469 -1.9326
  412MOL0     H54349   5.357   0.717   4.453 -1.0155 -0.3223  0.4956
  412MOL0     H54350   5.240   0.287   4.325  2.0113  0.3226 -0.8515
  412MOL0     H54351   5.103   0.353   4.421  0.6177 -0.8459  0.2398
  412MOL0     H54352   5.372   0.258   4.545  1.3168  1.6617 -1.3254
  412MOL0     H54353   5.209   0.177   4.535 -1.6136  1.2745 -1.1357
  412MOL0     H54354   5.288   0.424   4.668  0.0414  0.1023 -0.9319
  412MOL0     H54355   5.229   0.277   4.752 -0.8621 -0.2166  1.3747
  412MOL0     H54356   5.053   0.463   4.586  0.7352  2.1832  1.3929
  412MOL0     H54357   5.006   0.291   4.622 -0.6203  0.5203 -3.1506
  412MOL0     H54358   5.051   0.495   4.842  2.0722 -0.4695 -1.1999
  412MOL0     H54359   5.013   0.330   4.860  1.7804  0.3012 -0.4915
  412MOL0     H54360   4.836   0.528   4.704 -0.2364 -0.0261  0.8673
  412MOL0     H54361   4.820   0.487   4.879  1.3132  0.9792  0.5190
  412MOL0     H54362   4.784   0.307   4.635  1.9153  0.1199  0.5927
  412MOL0     H54363   4.810   0.242   4.794 -3.1360 -0.5169  1.3490
  412MOL0     H54364   4.573   0.238   4.766  1.8927 -0.8831  0.1621
  412MOL0     H54365   4.562   0.401   4.705  2.6719  1.0433 -1.8022
  412MOL0     H54366   5.473   0.319   4.309  4.8976 -0.5434 -0.8035
  412MOL0     H54367   5.712   0.413   4.281  0.7303  1.5885 -0.6644
  412MOL0     H54368   5.982   0.990   4.291  0.4485 -0.8348  1.1895
  412MOL0     H54369   6.209   1.023   4.220  0.6799 -0.9346 -1.9534
  412MOL0     H54370   7.220   1.239   5.670 -0.0155 -0.7527  2.4412
  412MOL0     H54371   7.330   1.072   5.807 -1.7154 -2.9600 -1.6099
  412MOL0     H54372   7.541   0.818   5.950  1.1200 -0.2676  1.9592
  412MOL0     H54373   7.602   0.632   6.090  0.3113  1.8003 -0.4904
  412MOL0     H54374   7.680   0.419   6.202 -2.1668  0.6749  0.3575
  412MOL0     H54375   7.659   0.247   6.141 -1.0665 -0.7174 -0.9936
  412MOL0     H54376   7.460   0.479   6.148 -0.6872 -0.2363 -1.3781
  412MOL0     H54377   7.447   0.354   6.033  0.5841  1.8168 -0.2709
  412MOL0     H54378   7.497   0.299   6.335 -1.5894  0.4221  1.1233
  412MOL0     H54379   7.416   0.196   6.217 -1.6103 -0.6599  2.9822
  412MOL0     H54380   7.224   0.328   6.197 -0.0515  1.8850 -0.3719
  412MOL0     H54381   7.246   0.274   6.359 -1.2679 -0.9005 -2.2098
  412MOL0     H54382   7.272   0.673   6.444 -1.1486  0.5623 -2.0873
  412MOL0     H54383   7.782   0.430   5.754  0.6638 -0.8262  1.3974
  412MOL0     H54384   7.718   0.614   5.615  2.7233 -1.1184  0.6346
  413MOL0     O54385  11.041   2.288   3.282  0.4526 -0.3934  0.8691
  413MOL0     C54386  11.145   2.288   3.213  0.3245  0.2328 -0.4595
  413MOL0     O54387  11.170   2.208   3.099  0.3252 -0.2215  0.3569
  413MOL0     C54388  11.092   2.093   3.091 -0.9293 -0.5764 -0.4908
  413MOL0     C54389  10.971   2.084   3.035  1.0071  0.0478  0.2126
  413MOL0     C54390  10.908   1.955   3.017 -0.3544 -0.7502  0.4612
  413MOL0     C54391  10.973   1.837   3.037 -0.6146 -0.5864 -0.4507
  413MOL0     O54392  10.907   1.723   3.017 -0.6099 -0.1982  0.0522
  413MOL0     C54393  10.979   1.598   3.042  0.2716 -0.2547  0.2860
  413MOL0     C54394  10.884   1.479   3.012  0.2736  0.5779 -0.5021
  413MOL0     C54395  10.757   1.499   3.105  0.2972 -0.2745 -0.4688
  413MOL0     C54396  10.658   1.381   3.101 -0.4227  0.0171 -0.5217
  413MOL0     C54397  10.560   1.400   3.223 -1.0139  0.1811  0.2406
  413MOL0     C54398  10.468   1.276   3.228 -1.2583 -0.3026 -0.0648
  413MOL0     C54399  10.343   1.315   3.314  0.6106  0.3305  0.3134
  413MOL0     C54400  10.240   1.202   3.327  1.1868  0.1800 -0.2727
  413MOL0     N54401  10.135   1.231   3.425 -0.4184 -0.1870 -0.3792
  413MOL0     C54402  10.041   1.330   3.403 -0.0220 -0.4581 -0.3927
  413MOL0     C54403   9.988   1.350   3.524 -0.2465  1.0181 -0.3011
  413MOL0     C54404   9.890   1.460   3.550 -0.9026 -0.2841  0.2228
  413MOL0     C54405   9.744   1.412   3.551 -0.0208 -0.1104 -0.3113
  413MOL0     C54406   9.647   1.526   3.530  0.5259  0.2465 -0.0819
  413MOL0     C54407   9.502   1.495   3.556  0.4776  0.5590 -0.0062
  413MOL0     O54408   9.451   1.411   3.445 -0.2450 -0.1685  0.5168
  413MOL0     C54409   9.313   1.411   3.420  0.0367 -0.6313 -0.6261
  413MOL0     C54410   9.279   1.328   3.313 -0.0088 -0.0693  0.2549
  413MOL0     C54411   9.141   1.304   3.282 -0.2268  0.1399  0.3454
  413MOL0     C54412   9.038   1.362   3.358 -0.1544  0.0847  0.5158
  413MOL0     C54413   8.898   1.337   3.330 -0.9956  0.5622 -0.1853
  413MOL0     O54414   8.812   1.342   3.439  0.8047 -0.2086 -0.3576
  413MOL0     C54415   8.682   1.306   3.412  0.3633  0.0398 -0.1621
  413MOL0     C54416   8.645   1.172   3.425 -0.0796 -0.3006  0.2544
  413MOL0     C54417   8.525   1.125   3.382 -0.2295  0.4222  0.0681
  413MOL0     C54418   8.420   1.216   3.337 -0.4793 -0.1779  0.1117
  413MOL0     O54419   8.297   1.179   3.306  0.5210 -0.4692  0.1795
  413MOL0     C54420   8.249   1.058   3.354  0.5995  0.4045  0.0159
  413MOL0     C54421   8.093   1.060   3.356 -0.2998  0.0358 -1.1471
  413MOL0     C54422   8.039   1.083   3.219 -0.0978  0.0518 -0.2685
  413MOL0     C54423   7.893   1.042   3.209  0.7459  0.3519  0.1769
  413MOL0     C54424   7.796   1.110   3.302 -0.9937 -0.1313 -0.1225
  413MOL0     C54425   7.666   1.025   3.294 -0.9115 -0.4860  0.0604
  413MOL0     C54426   7.550   1.110   3.347  1.2561 -0.7038 -0.2974
  413MOL0     C54427   7.416   1.030   3.366  0.5672 -0.3724  0.0166
  413MOL0    Cl54428   7.366   0.938   3.216 -0.1847 -0.2472 -0.5699
  413MOL0     C54429   8.452   1.357   3.349 -0.7364 -0.0168 -0.5262
  413MOL0     C54430   8.584   1.402   3.368 -0.0709 -0.3873  0.2500
  413MOL0     O54431   8.863   1.311   3.217 -0.5111 -0.4863  0.0721
  413MOL0     C54432   9.078   1.446   3.470 -0.4733 -0.6905  0.5054
  413MOL0     C54433   9.216   1.470   3.494  0.2513  0.2432 -0.0704
  413MOL0     N54434  10.046   1.263   3.615  0.0755  0.0240  1.2493
  413MOL0     N54435  10.132   1.185   3.555  0.0160 -0.5958  0.2736
  413MOL0     C54436  11.099   1.855   3.093  0.4875 -0.4399 -0.4321
  413MOL0     C54437  11.151   1.978   3.126 -0.1275  0.9357  1.0768
  413MOL0     C54438  11.241   2.387   3.258 -0.6689 -0.7241 -1.3566
  413MOL0     C54439  11.352   2.413   3.181  1.1409 -0.0498  0.2694
  413MOL0     C54440  11.458   2.485   3.228 -0.8118 -0.3627 -0.3526
  413MOL0     C54441  11.455   2.551   3.355 -0.3474  0.6188 -0.1086
  413MOL0     O54442  11.563   2.631   3.392 -0.4714 -0.1383  0.1555
  413MOL0     C54443  11.567   2.686   3.528 -1.2466 -0.6354  0.3893
  413MOL0     C54444  11.684   2.790   3.548 -0.0846  0.2496 -0.5305
  413MOL0     C54445  11.652   2.936   3.503  0.5722  0.0885 -0.2707
  413MOL0     C54446  11.762   3.036   3.548  0.3147 -0.6612 -0.4199
  413MOL0     C54447  11.777   3.029   3.689 -0.4890  0.0331  0.5328
  413MOL0     C54448  11.796   3.028   3.806 -0.1002  0.4017 -0.6347
  413MOL0     C54449  11.336   2.529   3.426 -1.4424  0.1936  0.1844
  413MOL0     C54450  11.227   2.449   3.386 -1.1070  0.0239 -0.5581
  413MOL0     H54451  10.917   2.174   3.005 -0.7567 -1.8733 -2.8493
  413MOL0     H54452  10.814   1.961   2.964  1.1799 -2.7381 -2.8246
  413MOL0     H54453  11.018   1.590   3.144 -0.6535  1.5236  0.8213
  413MOL0     H54454  11.065   1.584   2.976 -0.6493 -0.1818 -0.9440
  413MOL0     H54455  10.929   1.383   3.038  1.2332  1.2433  0.3937
  413MOL0     H54456  10.873   1.480   2.904 -0.6866  0.4567 -0.4124
  413MOL0     H54457  10.704   1.592   3.080 -0.9302 -1.3385 -2.0628
  413MOL0     H54458  10.793   1.515   3.207 -2.2464 -1.5295  0.7354
  413MOL0     H54459  10.599   1.370   3.009 -0.3069 -0.8336 -0.4986
  413MOL0     H54460  10.711   1.288   3.125  1.1675  1.6518  3.0340
  413MOL0     H54461  10.511   1.496   3.207  0.8130  1.0392 -0.5215
  413MOL0     H54462  10.618   1.406   3.315 -1.2578 -1.1847  0.5054
  413MOL0     H54463  10.518   1.195   3.282 -0.5856 -0.0529 -0.3012
  413MOL0     H54464  10.437   1.226   3.136  3.3019 -2.9902 -0.4312
  413MOL0     H54465  10.380   1.350   3.411  1.7792 -0.3680  0.1314
  413MOL0     H54466  10.284   1.394   3.267  0.8371  0.4707  0.2632
  413MOL0     H54467  10.296   1.112   3.357  1.7255  1.2625  2.2899
  413MOL0     H54468  10.189   1.185   3.233  1.0651 -1.6498  0.0943
  413MOL0     H54469  10.022   1.394   3.318 -3.6044 -1.0982 -0.2219
  413MOL0     H54470   9.904   1.538   3.474 -0.2978 -1.4850 -0.9330
  413MOL0     H54471   9.921   1.501   3.647 -1.9734 -0.6505  0.7370
  413MOL0     H54472   9.722   1.382   3.654 -1.4976  2.3978  0.1815
  413MOL0     H54473   9.731   1.326   3.486 -0.3326  0.7293 -1.3940
  413MOL0     H54474   9.669   1.614   3.591  3.3189 -0.6786  0.3961
  413MOL0     H54475   9.647   1.560   3.426 -0.1908  1.2400  0.2333
  413MOL0     H54476   9.460   1.595   3.572 -1.1761  0.1927 -1.6959
  413MOL0     H54477   9.482   1.439   3.649 -0.4171 -1.2704 -1.2297
  413MOL0     H54478   9.338   1.263   3.250 -0.2979  0.4572 -0.5733
  413MOL0     H54479   9.100   1.248   3.198  1.1807  1.8394 -1.5608
  413MOL0     H54480   8.720   1.106   3.468 -2.3423 -1.5309  2.5593
  413MOL0     H54481   8.495   1.021   3.390 -1.1395  0.4665 -2.0611
  413MOL0     H54482   8.282   1.050   3.458 -0.0026 -1.5095  0.1096
  413MOL0     H54483   8.283   0.968   3.302  1.7422  0.3320  0.8592
  413MOL0     H54484   8.065   1.124   3.439  1.5632 -3.1211  2.1985
  413MOL0     H54485   8.054   0.966   3.396  1.0698  0.9948  2.8202
  413MOL0     H54486   8.092   1.022   3.145 -1.1438 -1.9543  0.5595
  413MOL0     H54487   8.057   1.186   3.186  1.1429 -0.7691 -2.3503
  413MOL0     H54488   7.860   1.053   3.106  0.1412 -0.6085  0.2582
  413MOL0     H54489   7.888   0.934   3.225 -0.9199  0.5696  1.3975
  413MOL0     H54490   7.773   1.213   3.274 -2.0688 -0.0222  1.0643
  413MOL0     H54491   7.840   1.110   3.402  2.9659 -3.0837 -1.6076
  413MOL0     H54492   7.686   0.933   3.351  1.8714 -1.9364 -2.9468
  413MOL0     H54493   7.646   0.993   3.191 -0.2870 -0.3171 -0.1139
  413MOL0     H54494   7.575   1.148   3.446 -0.3510 -2.8387  1.0188
  413MOL0     H54495   7.532   1.191   3.277  0.2373 -0.0112  0.7441
  413MOL0     H54496   7.344   1.101   3.407 -0.2398 -1.1113 -0.0925
  413MOL0     H54497   7.429   0.947   3.437 -0.6698 -0.7254 -0.1486
  413MOL0     H54498   8.368   1.420   3.320 -0.1807  0.4278 -1.1974
  413MOL0     H54499   8.618   1.505   3.374  0.2056 -0.5290  1.3602
  413MOL0     H54500   8.993   1.487   3.524 -2.2482 -2.0098 -1.1836
  413MOL0     H54501   9.252   1.528   3.579  1.2665 -0.3508 -0.0758
  413MOL0     H54502  11.152   1.764   3.123  0.3271 -0.7065 -0.9542
  413MOL0     H54503  11.242   1.965   3.183  1.1509  2.0833 -0.5695
  413MOL0     H54504  11.349   2.371   3.081  0.4673 -1.4284  0.8421
  413MOL0     H54505  11.544   2.481   3.162 -0.8803  0.5303 -0.5151
  413MOL0     H54506  11.590   2.604   3.597  2.0643  0.6277  0.9615
  413MOL0     H54507  11.474   2.731   3.566 -0.6233  1.0397  0.0124
  413MOL0     H54508  11.707   2.792   3.654 -1.8651  0.4863 -0.1203
  413MOL0     H54509  11.767   2.763   3.481 -0.7357  0.4523 -1.4495
  413MOL0     H54510  11.557   2.974   3.543  1.1546  0.2143  1.0401
  413MOL0     H54511  11.638   2.945   3.395  2.5030  1.9085 -0.4422
  413MOL0     H54512  11.853   3.012   3.492 -0.2370  1.4826 -2.3694
  413MOL0     H54513  11.728   3.137   3.523  0.5950 -0.2519  0.7974
  413MOL0     H54514  11.805   3.023   3.913  2.5590  1.6361 -0.7186
  413MOL0     H54515  11.341   2.574   3.525  1.8975  0.7318 -0.0934
  413MOL0     H54516  11.146   2.428   3.455  0.3403  1.0055  1.5849
  414MOL0     O54517  10.188  10.296   2.880  0.3088 -0.6745 -0.4681
  414MOL0     C54518  10.221  10.304   3.001 -0.3133 -0.0008  0.0408
  414MOL0     O54519  10.137  10.279   3.105 -0.5455  0.9730 -0.0059
  414MOL0     C54520  10.006  10.251   3.094  0.4002  0.4394 -0.6408
  414MOL0     C54521   9.925  10.280   2.980 -0.1637 -0.6468  0.2023
  414MOL0     C54522   9.781  10.252   2.980 -0.8641  0.0349 -0.6526
  414MOL0     C54523   9.724  10.221   3.104  0.5765  0.6758 -0.0900
  414MOL0     O54524   9.593  10.190   3.132 -0.0628 -0.2982  1.1410
  414MOL0     C54525   9.489  10.220   3.036 -0.8093 -0.0516 -0.2958
  414MOL0     C54526   9.357  10.184   3.087  0.2568  0.0068  0.5483
  414MOL0     C54527   9.256  10.195   2.973 -0.5566  0.2780  0.0506
  414MOL0     C54528   9.111  10.172   3.016  0.4006  0.7391 -0.0885
  414MOL0     C54529   9.013  10.189   2.896 -0.0393 -0.3761  0.2456
  414MOL0     C54530   8.867  10.190   2.943  0.4180  0.4188 -0.8322
  414MOL0     C54531   8.778  10.245   2.834  0.3043 -0.3748  0.6489
  414MOL0     C54532   8.656  10.301   2.901  0.2514  0.6142 -0.1414
  414MOL0     N54533   8.538  10.308   2.806  0.1402 -0.5932 -0.5672
  414MOL0     C54534   8.446  10.207   2.771 -1.0175 -0.3940  0.1627
  414MOL0     C54535   8.348  10.275   2.697  0.5425  0.1235 -0.9375
  414MOL0     C54536   8.236  10.213   2.617  0.7014  1.2742 -0.6937
  414MOL0     C54537   8.115  10.178   2.707 -0.1183 -0.3710  0.1659
  414MOL0     C54538   8.038  10.310   2.723  0.0717  0.2083  0.8440
  414MOL0     C54539   7.950  10.293   2.861 -0.2472 -0.0091  0.5799
  414MOL0     O54540   7.876  10.173   2.837 -0.1240  0.0890  0.5930
  414MOL0     C54541   7.745  10.183   2.786 -0.6016 -0.0055  1.0631
  414MOL0     C54542   7.664  10.068   2.772 -0.4718 -0.0327 -0.8491
  414MOL0     C54543   7.543  10.070   2.715  0.3502  0.4933 -0.0181
  414MOL0     C54544   7.492  10.190   2.661  0.3219  0.0470 -0.2394
  414MOL0     C54545   7.356  10.179   2.598  0.2228 -0.4059 -0.5770
  414MOL0     O54546   7.296  10.052   2.598 -0.4817  0.5908 -0.2567
  414MOL0     C54547   7.166  10.034   2.563  0.5201  0.0333  0.1990
  414MOL0     C54548   7.126   9.947   2.463 -0.5546 -0.1907  0.8359
  414MOL0     C54549   6.994   9.931   2.422  0.4168 -1.1252 -0.4865
  414MOL0     C54550   6.893   9.999   2.486  0.1815 -0.1527  0.1320
  414MOL0     O54551   6.769   9.968   2.444 -0.2703 -0.3564  0.6986
  414MOL0     C54552   6.669  10.073   2.440  0.2833 -0.0850  0.2684
  414MOL0     C54553   6.569  10.031   2.336 -0.3954  0.0689 -0.0162
  414MOL0     C54554   6.490   9.910   2.384 -0.7279 -0.4540 -0.0316
  414MOL0     C54555   6.359   9.858   2.317  0.5219 -0.9562  0.0233
  414MOL0     C54556   6.256   9.970   2.289 -0.0090  0.6266  0.2999
  414MOL0     C54557   6.212  10.048   2.414 -0.5893 -0.1216  1.0101
  414MOL0     C54558   6.148   9.966   2.530 -0.0895 -0.6054 -0.2365
  414MOL0     C54559   6.124  10.039   2.664  0.0034  0.2185  0.3954
  414MOL0    Cl54560   6.032  10.199   2.630  0.2490 -0.4003 -0.3353
  414MOL0     C54561   6.928  10.070   2.595 -0.6879 -1.0330 -0.0549
  414MOL0     C54562   7.061  10.101   2.630  0.1199 -0.5044 -0.1881
  414MOL0     O54563   7.302  10.281   2.556 -0.6096 -0.1367 -0.0651
  414MOL0     C54564   7.569  10.307   2.672  0.4126 -0.3496  0.6262
  414MOL0     C54565   7.702  10.305   2.729 -0.7201 -0.2108  0.4330
  414MOL0     N54566   8.376  10.406   2.716  0.0476  0.0254  0.3560
  414MOL0     N54567   8.485  10.426   2.786  0.8474  0.3218  0.0778
  414MOL0     C54568   9.802  10.200   3.214  0.4246 -0.4555 -0.2842
  414MOL0     C54569   9.939  10.211   3.216  0.0194  0.4398  0.8035
  414MOL0     C54570  10.364  10.318   3.031  0.1283  0.5603 -0.7250
  414MOL0     C54571  10.465  10.342   2.935  0.1211 -0.0257  0.6925
  414MOL0     C54572  10.594  10.358   2.975 -0.0145 -0.0547 -0.4046
  414MOL0     C54573  10.637  10.348   3.107  0.3559  0.1769  0.3646
  414MOL0     O54574  10.768  10.376   3.138  0.6773  0.3530  0.1981
  414MOL0     C54575  10.809  10.316   3.265 -0.3124  0.0740 -0.4891
  414MOL0     C54576  10.959  10.283   3.248 -0.2229 -0.3871 -0.7414
  414MOL0     C54577  11.052  10.402   3.220  0.7371  0.2609 -0.3305
  414MOL0     C54578  11.196  10.354   3.211 -0.0228 -0.5341 -1.3225
  414MOL0     C54579  11.269  10.466   3.155 -0.5138  0.0113  0.2451
  414MOL0     C54580  11.325  10.555   3.095 -0.0795  0.1504  0.0895
  414MOL0     C54581  10.537  10.328   3.200  0.6407 -0.7585 -0.4801
  414MOL0     C54582  10.404  10.323   3.165  0.0810 -0.3714 -0.6121
  414MOL0     H54583   9.959  10.326   2.888 -3.9095 -0.6284 -1.3527
  414MOL0     H54584   9.716  10.265   2.894 -0.2633 -1.3863 -1.3497
  414MOL0     H54585   9.503  10.163   2.943 -0.1138  0.8245 -0.7498
  414MOL0     H54586   9.487  10.327   3.013 -1.0664 -0.1484 -0.7367
  414MOL0     H54587   9.330  10.250   3.170  1.0957  1.2760 -0.1432
  414MOL0     H54588   9.365  10.079   3.115 -3.2087  0.1579  2.6650
  414MOL0     H54589   9.278  10.123   2.894  1.0119  0.5777  0.1843
  414MOL0     H54590   9.243  10.286   2.915  0.4090 -0.4993 -1.4207
  414MOL0     H54591   9.101  10.071   3.056  0.0285  1.8096  2.7405
  414MOL0     H54592   9.090  10.243   3.096 -0.1878  1.1882 -0.6256
  414MOL0     H54593   9.023  10.111   2.821 -2.1065 -0.5584  0.0980
  414MOL0     H54594   9.032  10.287   2.850  1.3701 -1.0685 -0.6927
  414MOL0     H54595   8.852  10.258   3.027  0.7084  0.8734 -1.1432
  414MOL0     H54596   8.849  10.089   2.980  1.6813 -0.4752 -2.5128
  414MOL0     H54597   8.823  10.322   2.771 -2.6276  0.1868 -0.9863
  414MOL0     H54598   8.747  10.164   2.767 -0.3412  1.9682 -2.0964
  414MOL0     H54599   8.675  10.400   2.943 -1.9500  1.3087 -0.6484
  414MOL0     H54600   8.620  10.244   2.987 -0.1084  0.9677 -0.0565
  414MOL0     H54601   8.461  10.101   2.787  4.9714  0.5847  3.7181
  414MOL0     H54602   8.270  10.114   2.585  0.8439  1.2305 -0.4121
  414MOL0     H54603   8.196  10.273   2.536 -4.4518  0.4923  0.8546
  414MOL0     H54604   8.145  10.141   2.805 -2.8109 -0.4496  1.0380
  414MOL0     H54605   8.048  10.101   2.667  0.4002 -0.2117 -1.0393
  414MOL0     H54606   8.112  10.390   2.735  1.0390 -0.4672 -0.3743
  414MOL0     H54607   7.989  10.341   2.630 -0.6138 -0.8204  0.8396
  414MOL0     H54608   7.900  10.383   2.898 -1.5309 -0.7656  0.7467
  414MOL0     H54609   8.025  10.263   2.935  1.8409  0.9325 -1.0702
  414MOL0     H54610   7.717   9.982   2.813  2.4335  1.7806 -0.5008
  414MOL0     H54611   7.497   9.972   2.708  2.5461 -1.0129  3.6277
  414MOL0     H54612   7.204   9.902   2.402 -0.0530  1.2117  0.4174
  414MOL0     H54613   6.969   9.873   2.334  0.4137 -2.0771  0.1224
  414MOL0     H54614   6.719  10.167   2.416  0.2654 -0.1063  0.1485
  414MOL0     H54615   6.623  10.073   2.540  0.7754  1.2574  0.5210
  414MOL0     H54616   6.619   9.999   2.244  1.4909 -3.2354  1.9321
  414MOL0     H54617   6.511  10.119   2.307  1.2029  0.3745 -2.6329
  414MOL0     H54618   6.463   9.933   2.487  0.0031  1.8554 -0.3025
  414MOL0     H54619   6.570   9.835   2.387  1.1765  1.4188 -1.4075
  414MOL0     H54620   6.385   9.809   2.223  2.0260  2.6434 -1.5918
  414MOL0     H54621   6.314   9.783   2.384  0.3942  0.6504  1.8433
  414MOL0     H54622   6.169   9.928   2.238  1.2928 -0.4929 -1.0980
  414MOL0     H54623   6.304  10.045   2.226  1.1587  0.3146  0.7763
  414MOL0     H54624   6.138  10.121   2.378  0.6189 -0.9062 -3.8615
  414MOL0     H54625   6.292  10.112   2.452  0.1467  1.2092 -2.3850
  414MOL0     H54626   6.051   9.923   2.502  0.1676 -1.3846  0.0510
  414MOL0     H54627   6.218   9.887   2.558  1.4720  0.6104 -0.5972
  414MOL0     H54628   6.217  10.057   2.718  0.9998  1.0406 -1.5121
  414MOL0     H54629   6.065   9.973   2.729  1.9515 -0.7427  1.2884
  414MOL0     H54630   6.853  10.121   2.654 -0.5788 -1.1844  0.2146
  414MOL0     H54631   7.072  10.193   2.685  0.9156 -0.7861  0.1270
  414MOL0     H54632   7.535  10.396   2.619 -0.7143 -2.5331 -2.6284
  414MOL0     H54633   7.764  10.395   2.729 -0.0317 -0.6741  0.0107
  414MOL0     H54634   9.754  10.193   3.311 -0.5324 -1.6143 -0.8111
  414MOL0     H54635   9.997  10.193   3.306 -0.1477 -2.6247  0.4004
  414MOL0     H54636  10.440  10.336   2.830  0.3901  0.1028  0.6200
  414MOL0     H54637  10.673  10.383   2.905  0.7406  1.5381  0.9464
  414MOL0     H54638  10.755  10.229   3.305 -2.7667  0.7392 -2.1575
  414MOL0     H54639  10.803  10.396   3.339 -0.6565  0.2968 -0.7586
  414MOL0     H54640  10.988  10.237   3.343 -2.4333  0.2674  0.3251
  414MOL0     H54641  10.974  10.214   3.164 -0.6847  0.2946 -1.4002
  414MOL0     H54642  11.030  10.473   3.300  0.7480 -1.3271  1.1515
  414MOL0     H54643  11.018  10.440   3.123 -1.2172  0.8754  0.5372
  414MOL0     H54644  11.244  10.326   3.305  0.6279  4.1582 -0.0071
  414MOL0     H54645  11.193  10.270   3.140 -0.6507 -0.3571 -1.5180
  414MOL0     H54646  11.384  10.620   3.035 -1.7708  0.4196 -1.3625
  414MOL0     H54647  10.548  10.329   3.308 -0.9537  1.2797 -0.2756
  414MOL0     H54648  10.332  10.317   3.246 -0.3548  2.8336 -0.6452
  415MOL0     O54649   3.532   6.695   2.191  0.1338  0.1358  0.0527
  415MOL0     C54650   3.558   6.686   2.309 -0.4867  0.6585  0.6198
  415MOL0     O54651   3.465   6.670   2.411  0.4368  0.1345 -0.0858
  415MOL0     C54652   3.333   6.633   2.392  0.3099  0.5259  0.0770
  415MOL0     C54653   3.231   6.703   2.464  0.8900  0.8833  0.0376
  415MOL0     C54654   3.093   6.676   2.438  0.4261  1.3638 -0.3808
  415MOL0     C54655   3.059   6.591   2.331  0.3955  0.3728  0.3696
  415MOL0     O54656   2.928   6.557   2.300  0.2157 -0.2465 -0.5887
  415MOL0     C54657   2.821   6.651   2.337 -0.4762 -0.2042 -0.2259
  415MOL0     C54658   2.713   6.643   2.232 -0.5504  0.5661  0.0346
  415MOL0     C54659   2.677   6.497   2.198 -0.7991  0.5252  0.3500
  415MOL0     C54660   2.555   6.490   2.108  0.3513 -0.2889 -0.4911
  415MOL0     C54661   2.537   6.350   2.060  0.3999 -0.0033 -0.5728
  415MOL0     C54662   2.399   6.330   1.985 -0.2112 -0.7930 -0.1987
  415MOL0     C54663   2.417   6.212   1.880  0.2814  0.3465 -1.1014
  415MOL0     C54664   2.307   6.225   1.773  0.5012 -0.4745  0.4617
  415MOL0     N54665   2.179   6.206   1.840  0.7193  0.2336  0.0500
  415MOL0     C54666   2.138   6.076   1.868  0.4702  0.1593  0.4496
  415MOL0     C54667   2.003   6.088   1.865 -0.3360  0.3295 -0.6605
  415MOL0     C54668   1.898   5.977   1.889 -0.2907 -0.1881  0.4950
  415MOL0     C54669   1.759   6.022   1.937  0.1331  0.0635  0.1984
  415MOL0     C54670   1.664   5.901   1.944  0.0265  1.1156  0.0887
  415MOL0     C54671   1.534   5.935   2.001 -0.6800  1.0597  0.3328
  415MOL0     O54672   1.459   5.817   1.990  0.0397 -0.2667  0.0536
  415MOL0     C54673   1.320   5.825   1.997  0.0180 -0.4219 -0.4622
  415MOL0     C54674   1.238   5.715   1.958 -0.7003 -0.1885  0.2211
  415MOL0     C54675   1.098   5.724   1.963 -0.4149 -0.0284  0.8661
  415MOL0     C54676   1.033   5.835   2.013  0.4460 -0.9982 -0.4597
  415MOL0     C54677   0.885   5.857   2.005 -0.0200 -0.2425 -0.3985
  415MOL0     O54678   0.822   5.747   1.959 -0.3125  0.4465  0.7139
  415MOL0     C54679   0.692   5.768   1.920 -0.1835  0.4780  0.0308
  415MOL0     C54680   0.589   5.759   2.015  0.1908  0.2939  0.3979
  415MOL0     C54681   0.458   5.786   1.982 -0.8015  1.2649 -0.3945
  415MOL0     C54682   0.412   5.795   1.849  0.1832 -0.0370  0.0934
  415MOL0     O54683   0.278   5.789   1.819  0.4974  0.0500  0.0033
  415MOL0     C54684   0.229   5.794   1.683 -0.0814  0.0612  0.7309
  415MOL0     C54685   0.238   5.645   1.614  0.3167 -0.3648  0.3043
  415MOL0     C54686   0.172   5.631   1.474 -0.2180 -0.0581  0.7534
  415MOL0     C54687   0.184   5.486   1.412  0.6810 -0.5591 -0.4823
  415MOL0     C54688   0.165   5.489   1.262 -0.4332 -0.4634  0.4004
  415MOL0     C54689   0.197   5.359   1.193  0.0480  1.1867  0.2679
  415MOL0     C54690   0.082   5.260   1.192 -0.8922  0.6214  0.1224
  415MOL0     C54691   0.079   5.166   1.075 -0.4962 -0.3182 -0.3912
  415MOL0    Cl54692   0.054   5.233   0.921 -0.4396 -0.1966 -0.3246
  415MOL0     C54693   0.513   5.794   1.750  1.0499 -0.4489 -0.4671
  415MOL0     C54694   0.647   5.785   1.787 -0.0599  0.0676  0.0973
  415MOL0     O54695   0.832   5.961   2.035  0.3537 -0.0478  0.2570
  415MOL0     C54696   1.116   5.946   2.060  0.9483  0.0305 -0.9567
  415MOL0     C54697   1.258   5.938   2.054  0.2679 -1.2837  0.2919
  415MOL0     N54698   1.956   6.215   1.849  0.1111 -0.2659 -0.0618
  415MOL0     N54699   2.062   6.283   1.832  0.4441 -0.1222  0.2229
  415MOL0     C54700   3.160   6.525   2.265  0.4421 -0.0416  0.4470
  415MOL0     C54701   3.295   6.542   2.293 -0.2309 -0.2077 -0.1705
  415MOL0     C54702   3.702   6.707   2.337  0.3917 -0.1885 -0.4573
  415MOL0     C54703   3.795   6.740   2.245 -0.5037 -0.9499 -0.8870
  415MOL0     C54704   3.934   6.766   2.284  0.7449  0.2376 -0.5963
  415MOL0     C54705   3.978   6.750   2.420  0.0215  0.1502  0.4042
  415MOL0     O54706   4.112   6.779   2.456  0.6603  0.1213 -0.1074
  415MOL0     C54707   4.151   6.770   2.592 -0.2136 -0.1259  0.5710
  415MOL0     C54708   4.307   6.778   2.595  0.2804 -0.4428 -0.0571
  415MOL0     C54709   4.369   6.666   2.515 -0.2687  0.8931 -0.4792
  415MOL0     C54710   4.522   6.655   2.544 -0.9098 -0.4218 -0.9119
  415MOL0     C54711   4.554   6.584   2.664 -0.5121 -0.3691 -0.3426
  415MOL0     C54712   4.561   6.530   2.769  0.6173  0.3597  0.4051
  415MOL0     C54713   3.881   6.715   2.518  0.3683  0.1082  0.4047
  415MOL0     C54714   3.749   6.699   2.473  0.4999 -0.2468  0.6680
  415MOL0     H54715   3.252   6.759   2.554  1.1333 -0.4581  0.8363
  415MOL0     H54716   3.012   6.715   2.498 -2.1439 -3.1260 -0.5017
  415MOL0     H54717   2.865   6.752   2.337  1.1937 -0.9084 -0.3916
  415MOL0     H54718   2.775   6.641   2.436  1.7866  0.9495  1.0467
  415MOL0     H54719   2.745   6.684   2.136  0.8446 -1.0576 -0.2347
  415MOL0     H54720   2.625   6.701   2.265 -0.3107  2.3948 -2.2971
  415MOL0     H54721   2.669   6.427   2.282  0.1099  1.0157  0.8522
  415MOL0     H54722   2.757   6.450   2.140 -0.6629 -1.3731  1.9800
  415MOL0     H54723   2.461   6.522   2.155  1.0625  0.9962  0.1092
  415MOL0     H54724   2.569   6.567   2.030  0.2440  1.7390  1.4000
  415MOL0     H54725   2.527   6.280   2.144 -1.9052 -0.8968 -1.5230
  415MOL0     H54726   2.626   6.329   2.000  0.3843  2.4984 -1.5751
  415MOL0     H54727   2.371   6.420   1.930 -0.0831 -1.0698 -0.7201
  415MOL0     H54728   2.320   6.307   2.058 -1.9541 -0.6006 -1.9551
  415MOL0     H54729   2.515   6.207   1.831  0.9226  0.2965  0.1402
  415MOL0     H54730   2.405   6.120   1.939  0.5066  1.7271  1.2090
  415MOL0     H54731   2.321   6.147   1.698  0.4374 -1.5822  1.5558
  415MOL0     H54732   2.307   6.327   1.734  2.2069 -0.1367  1.2443
  415MOL0     H54733   2.196   5.985   1.873 -0.0682 -0.1943  0.2426
  415MOL0     H54734   1.935   5.907   1.964  0.9222  1.0105  1.0692
  415MOL0     H54735   1.884   5.925   1.794 -0.2279 -0.2887  0.5409
  415MOL0     H54736   1.707   6.098   1.878 -0.9431 -0.0061  1.0141
  415MOL0     H54737   1.772   6.066   2.036  1.4451  1.7245 -0.6681
  415MOL0     H54738   1.651   5.870   1.840  3.4754  2.7368 -0.9949
  415MOL0     H54739   1.717   5.824   2.001 -1.5625 -0.7896 -0.8781
  415MOL0     H54740   1.490   6.015   1.940  0.0904  1.8495  0.7770
  415MOL0     H54741   1.542   5.975   2.102 -0.4816 -1.1650  1.2473
  415MOL0     H54742   1.286   5.625   1.921  0.9666 -0.1741  2.1610
  415MOL0     H54743   1.040   5.647   1.912  0.1194  1.3412 -2.0176
  415MOL0     H54744   0.608   5.753   2.121  1.0656  0.1877  0.2453
  415MOL0     H54745   0.382   5.772   2.058 -0.5763  1.7471 -0.0769
  415MOL0     H54746   0.276   5.869   1.620 -0.1010 -1.0377 -0.6611
  415MOL0     H54747   0.122   5.815   1.691  0.4302  2.6118  1.7503
  415MOL0     H54748   0.197   5.563   1.674 -0.4130  1.6757  2.7746
  415MOL0     H54749   0.343   5.618   1.606  1.0097  2.0417  0.4687
  415MOL0     H54750   0.216   5.708   1.410  1.3790 -0.3291  1.4804
  415MOL0     H54751   0.069   5.664   1.484 -0.0775  0.5961  0.1367
  415MOL0     H54752   0.280   5.440   1.439  0.4041 -0.1133  1.4245
  415MOL0     H54753   0.112   5.417   1.457  0.7017  1.0370  2.2061
  415MOL0     H54754   0.244   5.556   1.226  2.4745 -1.7501  3.7572
  415MOL0     H54755   0.064   5.522   1.237 -0.7652 -0.5649  1.5720
  415MOL0     H54756   0.289   5.311   1.227 -1.9081 -2.7027  0.5165
  415MOL0     H54757   0.210   5.401   1.092  0.1727  0.2193 -0.1224
  415MOL0     H54758   0.093   5.208   1.287 -0.3704  0.9185  0.2268
  415MOL0     H54759  -0.013   5.313   1.198 -2.0406 -1.2623 -0.2821
  415MOL0     H54760   0.005   5.087   1.086 -0.7945 -0.0789 -0.6732
  415MOL0     H54761   0.179   5.122   1.071 -1.0524 -1.8385  1.1025
  415MOL0     H54762   0.491   5.782   1.644  5.4849 -1.9532 -1.4544
  415MOL0     H54763   0.725   5.777   1.712  0.1196  0.8184  0.1899
  415MOL0     H54764   1.077   6.042   2.090  1.0578  0.3263 -1.7257
  415MOL0     H54765   1.301   6.031   2.091 -1.1299 -0.0126 -1.1303
  415MOL0     H54766   3.115   6.461   2.190 -1.2429 -0.1066  1.4532
  415MOL0     H54767   3.366   6.490   2.231 -2.4769 -3.1368 -0.5125
  415MOL0     H54768   3.788   6.737   2.137  2.4905 -4.0570 -1.1737
  415MOL0     H54769   4.001   6.805   2.208  1.1539  3.6730  1.2962
  415MOL0     H54770   4.112   6.676   2.634  2.2245 -0.8395  1.3834
  415MOL0     H54771   4.113   6.858   2.644 -3.6037 -0.9776 -0.1970
  415MOL0     H54772   4.347   6.871   2.552 -0.6852  0.3551  0.7296
  415MOL0     H54773   4.325   6.769   2.702 -3.3465 -0.6857  0.6436
  415MOL0     H54774   4.354   6.684   2.408  0.7587  1.7190 -0.4946
  415MOL0     H54775   4.315   6.574   2.539 -0.2445  0.9002 -0.3982
  415MOL0     H54776   4.563   6.611   2.453 -1.3074  0.4627 -1.5357
  415MOL0     H54777   4.571   6.752   2.554  0.8652 -1.4523  1.3719
  415MOL0     H54778   4.565   6.487   2.867  2.1370 -2.9441 -0.9601
  415MOL0     H54779   3.910   6.701   2.622  2.6908  0.6499 -0.1135
  415MOL0     H54780   3.669   6.661   2.534 -1.2508  0.0775 -1.2999
  416MOL0     O54781   9.671   0.262   3.431  0.2657 -0.2867 -0.0731
  416MOL0     C54782   9.763   0.224   3.505 -0.0123 -0.1692  0.4610
  416MOL0     O54783   9.749   0.141   3.625  0.0932  0.1009  0.4240
  416MOL0     C54784   9.618   0.095   3.641 -0.1483  0.0831 -0.2774
  416MOL0     C54785   9.532   0.049   3.541 -0.6982 -0.4809 -0.9906
  416MOL0     C54786   9.397   0.018   3.569 -0.6225  0.4774 -0.0681
  416MOL0     C54787   9.349   0.006   3.697  0.7113  0.4445 -0.5453
  416MOL0     O54788   9.217  -0.015   3.738 -0.0974 -0.0180 -0.2753
  416MOL0     C54789   9.100  -0.015   3.652 -0.6639 -0.4698 -1.0500
  416MOL0     C54790   9.075   0.108   3.559 -0.2827  0.5544 -0.1460
  416MOL0     C54791   8.942   0.088   3.479 -1.1059  0.1642  0.6168
  416MOL0     C54792   8.815   0.105   3.560 -0.0291  0.2096  0.8593
  416MOL0     C54793   8.696   0.097   3.464  0.7507  0.4710 -0.4356
  416MOL0     C54794   8.567   0.065   3.545 -0.4224 -0.5448 -0.5691
  416MOL0     C54795   8.449   0.023   3.448  0.3500 -0.3832 -0.1702
  416MOL0     C54796   8.400   0.132   3.359  0.0700 -0.2823  0.3807
  416MOL0     N54797   8.303   0.066   3.266  0.8375  0.2435  0.8432
  416MOL0     C54798   8.178   0.020   3.301 -0.2806 -0.5003  0.5225
  416MOL0     C54799   8.145  -0.045   3.186  0.3942  0.2733  0.3978
  416MOL0     C54800   8.003  -0.097   3.168  0.1158  0.4600  0.0450
  416MOL0     C54801   7.941  -0.027   3.049 -0.3338  0.3424 -0.1820
  416MOL0     C54802   7.914  -0.111   2.924 -0.0730 -0.2414 -0.1422
  416MOL0     C54803   7.782  -0.176   2.914 -0.8928  0.0715  0.3843
  416MOL0     O54804   7.765  -0.206   2.780  0.5958  0.3016 -0.0196
  416MOL0     C54805   7.645  -0.246   2.740 -0.0548 -0.2003 -0.6621
  416MOL0     C54806   7.550  -0.300   2.830 -0.1260 -0.7907  0.3470
  416MOL0     C54807   7.416  -0.327   2.793  0.4011  0.2073  0.6395
  416MOL0     C54808   7.372  -0.308   2.661 -0.3348  0.1891  1.2162
  416MOL0     C54809   7.230  -0.324   2.618 -0.4029 -0.2946 -0.2079
  416MOL0     O54810   7.142  -0.382   2.718  0.2100 -1.0158 -0.2475
  416MOL0     C54811   7.008  -0.412   2.700 -0.8944 -0.0389 -0.4894
  416MOL0     C54812   6.919  -0.373   2.798 -0.6672  0.7944  0.3794
  416MOL0     C54813   6.785  -0.388   2.782  0.2967  0.2057 -0.0752
  416MOL0     C54814   6.726  -0.444   2.667 -0.5461  0.0784 -0.4377
  416MOL0     O54815   6.591  -0.445   2.663  0.3463  0.1835 -0.3788
  416MOL0     C54816   6.532  -0.515   2.550  0.3171  0.2764 -0.2654
  416MOL0     C54817   6.380  -0.480   2.550 -0.2548  0.3969  0.1860
  416MOL0     C54818   6.367  -0.344   2.490  0.4020  0.0489 -0.1236
  416MOL0     C54819   6.224  -0.287   2.478 -0.0018  0.6170  0.1130
  416MOL0     C54820   6.221  -0.184   2.371  0.4350 -0.5025  0.1424
  416MOL0     C54821   6.094  -0.103   2.390 -0.0577 -0.4714  0.1154
  416MOL0     C54822   6.071  -0.008   2.270 -0.1170  0.1600 -0.2843
  416MOL0     C54823   6.059  -0.086   2.138 -0.0804  0.0955  0.3031
  416MOL0    Cl54824   6.216  -0.102   2.042 -0.3589  0.0804  0.3075
  416MOL0     C54825   6.818  -0.496   2.579  0.0833 -0.0204 -0.4452
  416MOL0     C54826   6.959  -0.478   2.591  0.7549  0.1284  0.5726
  416MOL0     O54827   7.202  -0.310   2.501 -0.2006  0.2754  0.3203
  416MOL0     C54828   7.473  -0.261   2.565  0.3328 -0.6454 -0.7133
  416MOL0     C54829   7.607  -0.233   2.606 -0.4755 -0.0145 -0.6882
  416MOL0     N54830   8.239  -0.033   3.088 -0.5050  0.4546  0.0600
  416MOL0     N54831   8.330   0.039   3.133  0.3691  0.5898  0.4027
  416MOL0     C54832   9.441   0.030   3.805 -0.4940  0.1444  0.7726
  416MOL0     C54833   9.570   0.075   3.776  0.4729  0.0944 -1.1777
  416MOL0     C54834   9.894   0.285   3.469 -0.0399  1.0531 -0.8467
  416MOL0     C54835  10.010   0.253   3.542  0.1053  0.2962 -0.3605
  416MOL0     C54836  10.128   0.316   3.513 -0.8676  0.2138  0.3661
  416MOL0     C54837  10.144   0.412   3.417 -0.4415 -0.2583 -0.1122
  416MOL0     O54838  10.264   0.476   3.405  0.7539  1.2555 -0.4076
  416MOL0     C54839  10.254   0.610   3.360 -0.1387 -0.1520 -0.2837
  416MOL0     C54840  10.386   0.675   3.339 -0.7528  0.4647 -0.3205
  416MOL0     C54841  10.472   0.646   3.470  0.2914  0.0781 -0.1890
  416MOL0     C54842  10.581   0.753   3.497 -0.2986  0.4746 -0.4870
  416MOL0     C54843  10.524   0.878   3.533  0.4222  0.1648 -0.0678
  416MOL0     C54844  10.473   0.986   3.556  0.4466  0.3446 -0.1619
  416MOL0     C54845  10.027   0.424   3.338 -0.3980 -0.2140  0.4531
  416MOL0     C54846   9.905   0.372   3.363 -0.4611  0.3426 -0.6465
  416MOL0     H54847   9.563   0.043   3.438 -0.1754  2.2232 -1.0863
  416MOL0     H54848   9.334  -0.027   3.493  1.2200  1.4879 -2.3158
  416MOL0     H54849   9.020  -0.022   3.726 -2.6759 -0.4800 -3.1230
  416MOL0     H54850   9.103  -0.103   3.586 -1.4694 -1.4694  0.1889
  416MOL0     H54851   9.165   0.126   3.500  2.3421 -0.5865  3.1386
  416MOL0     H54852   9.067   0.195   3.625  1.7730 -0.5261  1.6707
  416MOL0     H54853   8.938  -0.007   3.424  4.9223  1.0693 -2.2271
  416MOL0     H54854   8.938   0.156   3.394 -1.9052 -2.5447 -1.7025
  416MOL0     H54855   8.805   0.025   3.633 -4.6149 -0.2676 -0.0312
  416MOL0     H54856   8.816   0.204   3.606 -0.8063  1.8916 -2.3952
  416MOL0     H54857   8.698   0.014   3.393 -1.5410 -1.4015  1.5491
  416MOL0     H54858   8.685   0.185   3.400 -1.7551 -0.7068 -1.7524
  416MOL0     H54859   8.533   0.160   3.588  0.7613 -0.1848 -0.4040
  416MOL0     H54860   8.590  -0.011   3.619  1.5827 -0.3890 -0.9960
  416MOL0     H54861   8.474  -0.064   3.387  1.7658  1.2149 -2.0099
  416MOL0     H54862   8.366  -0.007   3.513  0.3917 -3.3255 -1.3521
  416MOL0     H54863   8.479   0.182   3.302 -0.5346  0.4162  0.1302
  416MOL0     H54864   8.349   0.216   3.407 -0.7121  0.8896 -2.2536
  416MOL0     H54865   8.124   0.031   3.394 -1.7314 -1.8590 -0.1050
  416MOL0     H54866   7.937  -0.080   3.254  0.4044 -1.1894  0.6308
  416MOL0     H54867   7.999  -0.206   3.157  1.1711  0.2006  1.7546
  416MOL0     H54868   8.007   0.055   3.017  0.3881 -0.3793 -0.5685
  416MOL0     H54869   7.849   0.018   3.088 -0.9617 -0.6671 -0.4627
  416MOL0     H54870   7.936  -0.059   2.830  1.0709 -0.4658 -0.0239
  416MOL0     H54871   8.001  -0.179   2.925  1.1281  1.1265  3.3218
  416MOL0     H54872   7.717  -0.096   2.949  1.9920  2.7128  0.1739
  416MOL0     H54873   7.788  -0.263   2.980  2.6521 -1.1710 -1.2867
  416MOL0     H54874   7.575  -0.313   2.935 -1.2025 -1.5341  0.5309
  416MOL0     H54875   7.340  -0.351   2.866  0.1736 -1.1744 -0.0286
  416MOL0     H54876   6.953  -0.340   2.896  2.9301  0.3263 -0.5751
  416MOL0     H54877   6.713  -0.356   2.857 -1.2308 -0.2960 -1.2766
  416MOL0     H54878   6.547  -0.622   2.561  2.7886  0.6700  0.9200
  416MOL0     H54879   6.573  -0.478   2.456 -2.2043  2.4726 -0.6195
  416MOL0     H54880   6.345  -0.482   2.653  0.7077 -2.7930  0.5720
  416MOL0     H54881   6.329  -0.560   2.495 -2.3602  0.5972  1.7349
  416MOL0     H54882   6.403  -0.343   2.387  0.3557  0.7295 -0.1385
  416MOL0     H54883   6.440  -0.280   2.541  2.1240 -1.7948 -0.1360
  416MOL0     H54884   6.154  -0.365   2.447 -1.3305  1.6243  0.5302
  416MOL0     H54885   6.188  -0.246   2.572 -0.1046 -1.3386  0.9692
  416MOL0     H54886   6.221  -0.225   2.270 -0.2722  1.7667 -0.8498
  416MOL0     H54887   6.295  -0.105   2.385 -1.4894  1.6422 -1.0296
  416MOL0     H54888   6.106  -0.040   2.479  0.4392 -1.4942  0.7905
  416MOL0     H54889   6.008  -0.169   2.402 -0.8238 -0.1430 -2.7906
  416MOL0     H54890   5.987   0.061   2.279  1.1804  1.6397  1.2185
  416MOL0     H54891   6.152   0.066   2.267  0.0821 -0.0024  0.8504
  416MOL0     H54892   5.986  -0.032   2.077 -2.0407 -0.4272  2.0635
  416MOL0     H54893   6.019  -0.186   2.157 -0.3797  0.2350  0.4119
  416MOL0     H54894   6.783  -0.553   2.493  1.0673 -1.0155 -0.2031
  416MOL0     H54895   7.024  -0.510   2.511 -2.1558 -0.0981 -1.8684
  416MOL0     H54896   7.442  -0.237   2.464 -1.1441 -1.4559 -0.4741
  416MOL0     H54897   7.691  -0.205   2.543  0.3377 -0.9507 -0.0658
  416MOL0     H54898   9.407   0.041   3.907  0.7284  0.4482  1.1608
  416MOL0     H54899   9.627   0.095   3.866  0.9378 -2.5513 -0.7894
  416MOL0     H54900  10.013   0.174   3.616  1.4956  1.9587  1.4915
  416MOL0     H54901  10.209   0.288   3.580  0.2225  2.4223  0.0593
  416MOL0     H54902  10.214   0.666   3.444  0.5636  1.3548 -0.9195
  416MOL0     H54903  10.181   0.615   3.279 -3.4128  1.6767  2.5692
  416MOL0     H54904  10.442   0.623   3.261 -0.8549  0.4996 -0.4173
  416MOL0     H54905  10.380   0.781   3.313 -0.2325  0.5400 -0.1498
  416MOL0     H54906  10.506   0.542   3.472 -0.4959 -0.1957 -0.6381
  416MOL0     H54907  10.398   0.648   3.551 -1.3113  3.7389 -1.5179
  416MOL0     H54908  10.638   0.709   3.579  0.4435  0.1916 -1.1430
  416MOL0     H54909  10.652   0.760   3.414 -0.7899  3.6339 -0.7652
  416MOL0     H54910  10.435   1.079   3.593  3.4786  1.2959  0.8779
  416MOL0     H54911  10.027   0.472   3.241 -2.4980  0.2226  0.6226
  416MOL0     H54912   9.824   0.405   3.298  1.5229  2.1478 -2.3170
  417MOL0     O54913   7.920   2.706   4.320  0.0213  0.2418  0.1049
  417MOL0     C54914   8.013   2.768   4.370 -0.8875  0.3613 -0.8069
  417MOL0     O54915   8.012   2.874   4.453 -0.2919 -1.0496 -0.0592
  417MOL0     C54916   7.928   2.971   4.417 -0.1119  0.0698 -1.2526
  417MOL0     C54917   7.887   3.050   4.530  0.1977  0.2776  0.2632
  417MOL0     C54918   7.800   3.154   4.512  0.2780 -0.2128 -0.1225
  417MOL0     C54919   7.751   3.195   4.389  0.5970  0.3756 -0.2554
  417MOL0     O54920   7.682   3.316   4.363 -0.5588  0.2097  0.3614
  417MOL0     C54921   7.666   3.424   4.462  0.5705  0.0107 -0.2300
  417MOL0     C54922   7.562   3.377   4.562  0.7798  0.0359 -0.6336
  417MOL0     C54923   7.419   3.355   4.512 -0.2736 -0.6249 -0.0913
  417MOL0     C54924   7.361   3.460   4.415 -1.1136 -0.4212 -0.0175
  417MOL0     C54925   7.212   3.448   4.398  0.1746  0.1724  0.0160
  417MOL0     C54926   7.173   3.575   4.317 -0.7019 -0.3170  0.1996
  417MOL0     C54927   7.023   3.581   4.290  0.1373 -1.0753  0.2272
  417MOL0     C54928   6.953   3.445   4.273  0.1048  0.1017  0.5926
  417MOL0     N54929   6.804   3.472   4.255 -0.2322 -0.3449 -0.2896
  417MOL0     C54930   6.720   3.500   4.360  0.2238  0.1265  0.0395
  417MOL0     C54931   6.605   3.530   4.292 -0.4168 -0.2877  0.4913
  417MOL0     C54932   6.479   3.553   4.371  0.2379 -0.3745 -0.3555
  417MOL0     C54933   6.355   3.491   4.295 -0.4289  0.3581  0.4895
  417MOL0     C54934   6.223   3.538   4.358 -0.4513 -0.3561  0.3373
  417MOL0     C54935   6.100   3.460   4.312  0.2870 -0.3291 -0.7872
  417MOL0     O54936   5.995   3.475   4.407  0.0972  0.6943 -0.8314
  417MOL0     C54937   5.866   3.440   4.390  0.2422  0.4891  0.5581
  417MOL0     C54938   5.817   3.396   4.266 -0.0147 -0.6451  0.4459
  417MOL0     C54939   5.685   3.344   4.252 -0.1453 -0.4589 -0.2036
  417MOL0     C54940   5.603   3.320   4.355 -0.0187  0.0814 -0.5095
  417MOL0     C54941   5.478   3.252   4.340 -0.5601 -0.2072  0.1441
  417MOL0     O54942   5.401   3.233   4.452 -0.1650 -0.4817 -0.1594
  417MOL0     C54943   5.289   3.154   4.448  0.9525  0.1944 -0.5410
  417MOL0     C54944   5.290   3.028   4.390  0.2729  0.1710  1.1139
  417MOL0     C54945   5.182   2.939   4.411  0.3597 -0.0582 -0.1002
  417MOL0     C54946   5.072   2.983   4.476 -0.3013  0.1708 -0.1173
  417MOL0     O54947   4.976   2.896   4.505  0.1001  0.3410 -0.3236
  417MOL0     C54948   5.004   2.841   4.631 -0.6598  0.1268 -0.2351
  417MOL0     C54949   4.951   2.699   4.644 -0.0556  0.7889  0.7847
  417MOL0     C54950   5.012   2.609   4.535 -0.0943 -0.3425 -0.3422
  417MOL0     C54951   4.932   2.482   4.515  0.1549 -0.1530 -0.4763
  417MOL0     C54952   4.990   2.397   4.408  0.2029  0.7500 -0.0601
  417MOL0     C54953   4.897   2.285   4.355  0.2109 -0.2979  0.5774
  417MOL0     C54954   4.974   2.204   4.253  0.3518  0.8006  0.5539
  417MOL0     C54955   5.097   2.136   4.304  0.3846  0.0997 -0.8195
  417MOL0    Cl54956   5.172   2.086   4.154  0.1119  0.1685 -0.1068
  417MOL0     C54957   5.059   3.116   4.523  0.2948 -0.0106 -0.1822
  417MOL0     C54958   5.173   3.198   4.512  0.0361 -0.0173 -0.4570
  417MOL0     O54959   5.463   3.198   4.228  0.2554  0.0096 -0.3125
  417MOL0     C54960   5.646   3.378   4.476 -0.5283  0.2073  0.3484
  417MOL0     C54961   5.775   3.439   4.495 -0.6173 -0.0095  0.3730
  417MOL0     N54962   6.622   3.541   4.156  0.6539  0.6058 -0.0022
  417MOL0     N54963   6.749   3.514   4.140 -0.0228  0.1991  0.7769
  417MOL0     C54964   7.786   3.111   4.281 -0.0018 -0.6683  0.2961
  417MOL0     C54965   7.873   3.007   4.290 -0.1053  0.0459 -0.6952
  417MOL0     C54966   8.151   2.716   4.364 -0.1067 -0.1776 -0.3017
  417MOL0     C54967   8.254   2.740   4.453 -0.0303 -0.3113  0.0605
  417MOL0     C54968   8.377   2.686   4.441  0.3650  0.2377 -0.3027
  417MOL0     C54969   8.407   2.603   4.336  0.3494 -0.2952  0.8017
  417MOL0     O54970   8.538   2.567   4.319  0.9221 -0.3986 -0.0368
  417MOL0     C54971   8.567   2.427   4.329  0.7186 -0.0448 -0.0335
  417MOL0     C54972   8.707   2.403   4.281 -0.2263  0.4011  0.4694
  417MOL0     C54973   8.800   2.436   4.388  0.3336  0.4386 -0.5777
  417MOL0     C54974   8.946   2.425   4.344  0.0123 -0.0756 -0.4487
  417MOL0     C54975   9.042   2.437   4.456 -0.0421 -0.1028 -0.1501
  417MOL0     C54976   9.134   2.458   4.535 -0.3840 -0.0755 -0.6435
  417MOL0     C54977   8.308   2.584   4.234  0.3489  0.2893 -0.5019
  417MOL0     C54978   8.182   2.638   4.250  0.1273 -0.1969  0.0118
  417MOL0     H54979   7.923   3.020   4.628 -1.7654 -0.0308  0.9419
  417MOL0     H54980   7.786   3.205   4.607  1.7466 -1.5021  0.8337
  417MOL0     H54981   7.634   3.518   4.415 -0.5568 -0.0634  0.3586
  417MOL0     H54982   7.764   3.435   4.508  0.8223 -0.9899 -0.5187
  417MOL0     H54983   7.546   3.454   4.638 -0.8243  1.7607 -2.5763
  417MOL0     H54984   7.591   3.290   4.621  0.8880  0.0799 -0.6212
  417MOL0     H54985   7.359   3.360   4.603 -1.3390  0.2748 -0.8160
  417MOL0     H54986   7.415   3.253   4.472 -0.2228 -0.5182 -0.3664
  417MOL0     H54987   7.403   3.560   4.430 -0.1174 -0.7080 -0.7733
  417MOL0     H54988   7.410   3.441   4.319 -1.3180 -2.6268  0.2602
  417MOL0     H54989   7.162   3.455   4.495  0.1722 -2.0527  0.2089
  417MOL0     H54990   7.190   3.351   4.353  1.5911  0.7084 -1.9579
  417MOL0     H54991   7.223   3.562   4.221 -1.6232 -0.5596 -0.2607
  417MOL0     H54992   7.213   3.662   4.371  0.4935 -0.3553 -0.6096
  417MOL0     H54993   6.972   3.645   4.363 -1.1014  0.1011 -1.5786
  417MOL0     H54994   7.000   3.637   4.199 -0.4884  0.7763  1.4593
  417MOL0     H54995   6.962   3.373   4.355 -2.4316  0.2713  1.1071
  417MOL0     H54996   6.989   3.399   4.181  0.8065 -1.3596  1.5483
  417MOL0     H54997   6.730   3.493   4.468  0.8038  2.2088  0.1611
  417MOL0     H54998   6.471   3.660   4.392  0.8103 -0.7343  1.9160
  417MOL0     H54999   6.495   3.511   4.470  0.1499 -1.9032 -0.9598
  417MOL0     H55000   6.362   3.382   4.294 -2.3497  0.2065  0.2477
  417MOL0     H55001   6.362   3.534   4.194 -0.4799  0.7803  0.6624
  417MOL0     H55002   6.229   3.529   4.467  0.7361 -1.1514  0.2246
  417MOL0     H55003   6.200   3.643   4.335  0.0714 -0.6691 -1.8289
  417MOL0     H55004   6.121   3.352   4.309 -2.9138 -1.0420 -0.6678
  417MOL0     H55005   6.065   3.499   4.216 -0.4871 -0.8167 -0.7062
  417MOL0     H55006   5.877   3.393   4.175  2.0511 -1.3667  1.7478
  417MOL0     H55007   5.654   3.314   4.152  1.1711  1.1081 -1.1241
  417MOL0     H55008   5.377   2.993   4.336 -0.5863 -0.6529  0.2296
  417MOL0     H55009   5.186   2.843   4.362 -1.5546 -0.0797 -0.2735
  417MOL0     H55010   4.951   2.892   4.711  6.6172  3.0039  3.6637
  417MOL0     H55011   5.110   2.845   4.659 -0.8672 -0.9010  0.7396
  417MOL0     H55012   4.844   2.703   4.622  0.5605  0.1531 -3.3273
  417MOL0     H55013   4.977   2.656   4.741  2.3180 -1.7471 -0.8253
  417MOL0     H55014   5.114   2.591   4.571 -0.1243  0.3604  0.1139
  417MOL0     H55015   5.017   2.662   4.440  3.8243  1.2598  0.5602
  417MOL0     H55016   4.922   2.428   4.609 -2.6582 -1.2182 -1.3016
  417MOL0     H55017   4.834   2.516   4.482 -0.8151 -1.6340  0.7993
  417MOL0     H55018   5.078   2.346   4.450 -0.2564  0.1756  0.2222
  417MOL0     H55019   5.031   2.452   4.323 -0.3047  0.4272 -0.5224
  417MOL0     H55020   4.816   2.344   4.311  2.8845  2.6090 -0.8810
  417MOL0     H55021   4.840   2.235   4.434 -0.8923  1.3331  0.8610
  417MOL0     H55022   4.913   2.117   4.226  3.0675 -0.1752 -3.2426
  417MOL0     H55023   5.001   2.255   4.161  1.2933 -1.3391 -0.4201
  417MOL0     H55024   5.080   2.044   4.360  1.5509  0.2242 -0.2334
  417MOL0     H55025   5.157   2.205   4.364 -0.4600  0.2632 -0.1519
  417MOL0     H55026   4.970   3.157   4.570  0.7070 -0.2070  0.7946
  417MOL0     H55027   5.162   3.301   4.545 -1.3026  0.2304 -1.5751
  417MOL0     H55028   5.582   3.370   4.564 -0.2096 -1.1495  0.4852
  417MOL0     H55029   5.807   3.469   4.595  1.2911 -1.7165  0.3498
  417MOL0     H55030   7.751   3.142   4.183 -1.4660 -0.3883  0.8841
  417MOL0     H55031   7.895   2.951   4.199  3.4404 -0.0025  0.0554
  417MOL0     H55032   8.234   2.793   4.546 -1.7200 -1.7267  0.5604
  417MOL0     H55033   8.443   2.695   4.526 -2.4667  2.9468  1.8033
  417MOL0     H55034   8.494   2.380   4.262 -1.6111  2.9420  0.1960
  417MOL0     H55035   8.551   2.390   4.430 -2.3851 -0.0276 -0.4154
  417MOL0     H55036   8.715   2.296   4.258 -0.7019 -0.0561  2.2520
  417MOL0     H55037   8.736   2.451   4.188 -2.0017 -0.6368 -0.6829
  417MOL0     H55038   8.782   2.373   4.476  1.6919 -0.5260 -0.9669
  417MOL0     H55039   8.782   2.541   4.414  0.4984  1.1579 -3.1426
  417MOL0     H55040   8.956   2.332   4.287 -0.0628 -1.8381  2.2220
  417MOL0     H55041   8.967   2.508   4.276  1.6765  2.0783  2.4553
  417MOL0     H55042   9.208   2.473   4.612 -0.0238 -0.9199 -0.8061
  417MOL0     H55043   8.326   2.535   4.139 -0.6898 -2.8027  0.7810
  417MOL0     H55044   8.098   2.626   4.182 -0.7194  3.0375  0.3198
  418MOL0     O55045  10.220   3.912   3.953  0.4300 -0.2342  0.5737
  418MOL0     C55046  10.117   3.969   4.001 -0.2634  0.8612  0.7727
  418MOL0     O55047  10.111   4.085   4.065  0.4101 -0.8952 -0.3510
  418MOL0     C55048  10.225   4.159   4.048  0.0615 -0.1697 -0.3314
  418MOL0     C55049  10.351   4.123   4.110 -0.1698  0.2111 -0.0061
  418MOL0     C55050  10.470   4.201   4.098 -0.0981 -0.0954 -0.5899
  418MOL0     C55051  10.475   4.308   4.015  0.5216 -0.0305 -0.0586
  418MOL0     O55052  10.602   4.364   3.984  0.3056  1.0192  0.5795
  418MOL0     C55053  10.602   4.454   3.871  0.6243 -0.0821  0.2281
  418MOL0     C55054  10.736   4.520   3.866  0.5393 -0.0762  0.4106
  418MOL0     C55055  10.857   4.438   3.821  0.3054  0.2441 -0.5526
  418MOL0     C55056  10.970   4.542   3.819  0.2101 -0.0788 -0.2475
  418MOL0     C55057  11.088   4.477   3.760 -0.2509 -0.0741 -0.2939
  418MOL0     C55058  11.213   4.566   3.767 -0.5550 -0.2122  0.4088
  418MOL0     C55059  11.333   4.495   3.712  0.4846  0.6512 -0.0496
  418MOL0     C55060  11.451   4.487   3.809 -1.0510  0.6551 -1.1127
  418MOL0     N55061  11.500   4.347   3.825 -0.5459  0.1698  1.6318
  418MOL0     C55062  11.431   4.228   3.833 -0.5512  0.3909  1.0737
  418MOL0     C55063  11.532   4.143   3.799  0.0171 -1.0386  0.0967
  418MOL0     C55064  11.514   3.997   3.771 -0.1470  0.0897  0.6551
  418MOL0     C55065  11.552   3.911   3.895 -0.4072 -0.0833  0.2102
  418MOL0     C55066  11.547   3.756   3.867  0.1815 -0.2841  0.2385
  418MOL0     C55067  11.408   3.697   3.872  0.1341 -0.9766 -0.1113
  418MOL0     O55068  11.339   3.706   3.998  0.4560  0.4103  0.4485
  418MOL0     C55069  11.215   3.657   4.014  0.1486  0.3065 -0.0509
  418MOL0     C55070  11.155   3.685   4.138 -0.0425  0.0392  0.4371
  418MOL0     C55071  11.041   3.609   4.180 -0.7025  0.3727  0.0517
  418MOL0     C55072  10.973   3.524   4.090 -0.4278  0.0969 -0.3145
  418MOL0     C55073  10.857   3.450   4.137  0.5240  0.2469  0.3004
  418MOL0     O55074  10.813   3.352   4.047 -0.2638 -0.6836 -0.1640
  418MOL0     C55075  10.695   3.283   4.068 -0.9109  0.4262 -0.8379
  418MOL0     C55076  10.638   3.249   4.189  0.3203  0.4309  0.4465
  418MOL0     C55077  10.515   3.174   4.196 -0.5416  0.3716  0.2657
  418MOL0     C55078  10.461   3.113   4.085 -0.1396  0.0989  0.7391
  418MOL0     O55079  10.363   3.018   4.085 -0.4227  0.3730  0.3303
  418MOL0     C55080  10.297   2.982   4.204  0.4411 -1.0069  1.0264
  418MOL0     C55081  10.190   2.868   4.188 -1.3277  0.1666 -0.5119
  418MOL0     C55082  10.077   2.905   4.090  0.3188  0.3373 -0.5518
  418MOL0     C55083   9.986   3.021   4.123 -0.8103  0.0096 -0.2742
  418MOL0     C55084   9.862   3.027   4.045  0.5598 -0.1709  0.0453
  418MOL0     C55085   9.750   2.945   4.106  0.2634  0.5367 -0.8089
  418MOL0     C55086   9.634   2.942   4.004 -0.3086 -0.1689 -0.8782
  418MOL0     C55087   9.500   2.889   4.080 -0.0461  0.0561  0.6186
  418MOL0    Cl55088   9.449   2.994   4.217  0.1128 -0.1093  0.4869
  418MOL0     C55089  10.522   3.140   3.969 -0.1183 -0.9385  0.5486
  418MOL0     C55090  10.635   3.225   3.953 -0.9892  1.0091  0.0904
  418MOL0     O55091  10.809   3.476   4.249  0.1491  0.3308  0.0985
  418MOL0     C55092  11.033   3.507   3.961 -0.0963  0.0843 -0.7084
  418MOL0     C55093  11.149   3.571   3.922 -0.2065  0.2287 -1.1630
  418MOL0     N55094  11.654   4.207   3.803  0.2569  0.3583  0.2277
  418MOL0     N55095  11.631   4.326   3.820 -0.8727  0.0098  0.0335
  418MOL0     C55096  10.347   4.351   3.968  0.9538  0.4473 -0.3064
  418MOL0     C55097  10.224   4.281   3.988  0.3087  0.6629 -0.1236
  418MOL0     C55098   9.991   3.880   4.005  0.6093  0.2088  0.8079
  418MOL0     C55099   9.999   3.742   3.973  1.0302  0.1691 -0.5686
  418MOL0     C55100   9.879   3.662   3.975  0.7262 -0.5668  0.0941
  418MOL0     C55101   9.758   3.715   4.018  0.8032  0.0271  0.6606
  418MOL0     O55102   9.649   3.637   4.037  0.0976 -0.1581  0.2791
  418MOL0     C55103   9.631   3.509   3.982  0.0064  0.7125 -0.4570
  418MOL0     C55104   9.682   3.400   4.083  0.2919  0.0630  0.6247
  418MOL0     C55105   9.610   3.397   4.211 -0.0579  0.4298 -0.3929
  418MOL0     C55106   9.680   3.314   4.314 -0.0571  0.0582 -0.1066
  418MOL0     C55107   9.796   3.376   4.374  0.4128 -0.9233  0.2276
  418MOL0     C55108   9.894   3.431   4.421  0.0319  0.1627  0.8316
  418MOL0     C55109   9.753   3.856   4.046 -0.1607  0.0650  1.1300
  418MOL0     C55110   9.872   3.933   4.052 -0.0963 -0.1680  0.0473
  418MOL0     H55111  10.359   4.028   4.162 -0.8690  0.8499  1.3510
  418MOL0     H55112  10.564   4.166   4.139  0.2540 -1.5040 -2.4406
  418MOL0     H55113  10.527   4.533   3.883  1.1243  0.1804  1.7308
  418MOL0     H55114  10.569   4.394   3.785 -0.6639 -0.2991  0.8461
  418MOL0     H55115  10.757   4.567   3.962  0.9514 -0.3650  0.4668
  418MOL0     H55116  10.731   4.603   3.795 -0.0461 -2.1997 -2.2085
  418MOL0     H55117  10.840   4.401   3.720 -0.4215  0.4995 -0.5277
  418MOL0     H55118  10.875   4.353   3.887  1.5379  0.1061 -1.0333
  418MOL0     H55119  10.953   4.628   3.753 -0.4368 -1.5584 -2.1271
  418MOL0     H55120  10.995   4.582   3.917 -0.7835 -1.9311  0.8255
  418MOL0     H55121  11.074   4.444   3.656  2.4106 -1.0226 -0.4491
  418MOL0     H55122  11.109   4.383   3.813  0.0878 -0.2029 -0.6462
  418MOL0     H55123  11.230   4.598   3.870  1.5627  1.0740 -0.2877
  418MOL0     H55124  11.201   4.657   3.707  1.3130 -0.7970 -0.9484
  418MOL0     H55125  11.309   4.398   3.668 -1.1602  1.0129  0.0076
  418MOL0     H55126  11.360   4.560   3.628 -0.9945  2.6220  0.8972
  418MOL0     H55127  11.414   4.521   3.906 -1.2664 -0.0577 -0.9336
  418MOL0     H55128  11.535   4.545   3.773 -0.0484 -1.0509 -1.6547
  418MOL0     H55129  11.327   4.199   3.835 -0.5195  0.2445  3.3445
  418MOL0     H55130  11.588   3.972   3.695 -0.7101 -1.0822  0.4711
  418MOL0     H55131  11.412   3.976   3.737  0.2756 -2.2527  0.6780
  418MOL0     H55132  11.476   3.925   3.973 -1.0684  0.9227 -0.5940
  418MOL0     H55133  11.654   3.940   3.921  0.1945 -0.6163 -1.3935
  418MOL0     H55134  11.593   3.723   3.774  1.8860  2.0057  0.1705
  418MOL0     H55135  11.614   3.712   3.942  3.2439 -1.0598 -2.7195
  418MOL0     H55136  11.409   3.590   3.850 -1.4501 -0.8009 -1.1695
  418MOL0     H55137  11.353   3.746   3.792  1.4052 -3.0841 -2.4277
  418MOL0     H55138  11.217   3.746   4.202  1.8320  1.5341 -2.5562
  418MOL0     H55139  11.015   3.616   4.285  2.5024 -1.2357  1.1087
  418MOL0     H55140  10.673   3.281   4.287 -0.6624 -2.0901  1.7133
  418MOL0     H55141  10.476   3.152   4.294  3.4201 -1.5434  1.6038
  418MOL0     H55142  10.246   3.070   4.244  1.9787 -0.0606  1.0165
  418MOL0     H55143  10.370   2.945   4.276 -0.3748 -3.0510  0.8717
  418MOL0     H55144  10.148   2.857   4.289  1.1202  1.5036  0.7164
  418MOL0     H55145  10.238   2.777   4.150 -2.4504  0.1306 -1.9179
  418MOL0     H55146  10.010   2.819   4.078  1.8423 -0.7124 -2.1095
  418MOL0     H55147  10.126   2.928   3.995 -0.6584 -3.3204 -2.1539
  418MOL0     H55148   9.964   3.029   4.230 -2.6199 -2.4226 -0.3687
  418MOL0     H55149  10.043   3.109   4.093 -1.0796  1.1886  2.3538
  418MOL0     H55150   9.881   3.012   3.938 -1.0676 -0.7702 -0.2078
  418MOL0     H55151   9.836   3.133   4.036 -0.2224 -0.4881 -2.2846
  418MOL0     H55152   9.704   2.986   4.197 -3.1622  0.4513 -2.3631
  418MOL0     H55153   9.785   2.843   4.125 -3.8299 -1.4426 -2.5748
  418MOL0     H55154   9.622   3.045   3.970  1.5290 -0.3635 -2.2619
  418MOL0     H55155   9.666   2.878   3.922  1.0466 -0.9141  0.1869
  418MOL0     H55156   9.523   2.787   4.112  1.2197 -0.0416 -0.5066
  418MOL0     H55157   9.408   2.889   4.021 -0.3809 -0.4578  1.1333
  418MOL0     H55158  10.488   3.078   3.887 -0.0887  0.1599 -0.3013
  418MOL0     H55159  10.687   3.238   3.859 -0.2285 -2.5293 -0.1238
  418MOL0     H55160  10.989   3.435   3.893 -0.0213  0.3259 -1.0167
  418MOL0     H55161  11.204   3.538   3.834  3.2986 -2.0178  1.5678
  418MOL0     H55162  10.331   4.437   3.905 -3.0656  0.2279  0.1977
  418MOL0     H55163  10.134   4.313   3.937  0.8497  1.6116 -0.5091
  418MOL0     H55164  10.093   3.703   3.937  1.4896  0.8130 -0.0767
  418MOL0     H55165   9.896   3.559   3.946  0.5107 -0.6245  0.1657
  418MOL0     H55166   9.689   3.493   3.891  0.0414  0.3139 -0.3672
  418MOL0     H55167   9.524   3.490   3.969 -0.8316 -0.7133  5.6083
  418MOL0     H55168   9.678   3.301   4.036  2.2551 -0.2769  1.0750
  418MOL0     H55169   9.785   3.429   4.104 -0.0071  0.3218  1.8289
  418MOL0     H55170   9.512   3.350   4.202  1.2434 -2.7674  0.7059
  418MOL0     H55171   9.582   3.499   4.241 -1.4527  0.5645 -2.0220
  418MOL0     H55172   9.613   3.289   4.396  2.0450 -1.6220  1.1900
  418MOL0     H55173   9.703   3.219   4.265 -0.3988  0.3305 -0.8154
  418MOL0     H55174   9.984   3.478   4.455  0.4099  0.1371 -0.1009
  418MOL0     H55175   9.657   3.892   4.083 -1.7098 -0.8539 -1.6866
  418MOL0     H55176   9.873   4.034   4.092 -1.9000  0.3847 -1.1836
  419MOL0     O55177   4.869   7.207   2.694  0.1632 -0.3192 -0.1544
  419MOL0     C55178   4.876   7.095   2.642  0.5486  0.3186  0.0140
  419MOL0     O55179   4.787   6.996   2.649  0.1808  0.1609  0.2816
  419MOL0     C55180   4.667   7.017   2.723 -0.1640 -0.3375  0.0352
  419MOL0     C55181   4.609   6.920   2.798 -0.6615  0.1376 -0.1466
  419MOL0     C55182   4.486   6.935   2.859 -0.5974 -0.5096  0.3948
  419MOL0     C55183   4.414   7.049   2.849 -0.2649  0.5557 -0.3157
  419MOL0     O55184   4.305   7.052   2.930  0.3762  0.4573 -0.5092
  419MOL0     C55185   4.215   7.163   2.929 -0.2595 -0.1901 -0.4424
  419MOL0     C55186   4.108   7.139   3.036 -1.3641  0.9236 -0.2832
  419MOL0     C55187   3.987   7.229   2.999  0.1208  0.0005  0.4166
  419MOL0     C55188   3.870   7.202   3.094 -0.3571  0.2489  0.3157
  419MOL0     C55189   3.738   7.264   3.054  0.2667  0.5482 -0.0323
  419MOL0     C55190   3.613   7.241   3.154  0.2573  0.6255  0.2592
  419MOL0     C55191   3.554   7.100   3.167  0.7480 -0.4680 -0.1009
  419MOL0     C55192   3.464   7.052   3.042 -0.0097 -0.0432  0.1739
  419MOL0     N55193   3.326   7.098   3.040  0.7203 -0.6172 -0.3338
  419MOL0     C55194   3.233   7.054   3.122 -0.8563  0.1018  0.5475
  419MOL0     C55195   3.121   7.127   3.104  0.5919 -0.2896  0.6912
  419MOL0     C55196   2.992   7.124   3.186 -0.1929  0.0234 -0.4098
  419MOL0     C55197   2.873   7.125   3.093  0.6926 -0.0262 -0.0368
  419MOL0     C55198   2.841   6.981   3.033  0.5201 -0.3785 -0.0269
  419MOL0     C55199   2.723   6.985   2.940 -0.2784 -1.0629 -0.0360
  419MOL0     O55200   2.601   7.018   3.008 -0.2882  0.5195 -0.0896
  419MOL0     C55201   2.485   6.963   2.957 -0.6127  1.5598  0.1216
  419MOL0     C55202   2.483   6.871   2.852 -0.4647  0.5417 -0.1417
  419MOL0     C55203   2.365   6.822   2.792 -0.0532 -0.5204  0.1606
  419MOL0     C55204   2.238   6.855   2.848  0.6175  0.2947  0.6296
  419MOL0     C55205   2.111   6.818   2.783  0.5121  0.7434 -0.4324
  419MOL0     O55206   1.990   6.822   2.855 -0.4447 -0.4953  0.3686
  419MOL0     C55207   1.875   6.789   2.784  0.0728 -0.3699 -0.7757
  419MOL0     C55208   1.808   6.664   2.805  0.2296  0.8243 -0.2466
  419MOL0     C55209   1.684   6.645   2.751  0.6371 -0.4543  0.3558
  419MOL0     C55210   1.628   6.745   2.668  0.2706 -0.3616  0.7840
  419MOL0     O55211   1.515   6.746   2.589 -0.0819  0.1362  0.4288
  419MOL0     C55212   1.429   6.635   2.602  0.5943 -0.0669  0.0172
  419MOL0     C55213   1.331   6.631   2.485 -0.6029 -0.6712 -0.5077
  419MOL0     C55214   1.240   6.759   2.474 -0.8978  0.4614 -0.4214
  419MOL0     C55215   1.127   6.738   2.377 -0.1213  0.2620 -0.1598
  419MOL0     C55216   1.030   6.856   2.389  1.1390 -0.0388 -0.0659
  419MOL0     C55217   0.923   6.850   2.286 -0.1297 -0.6719  0.3880
  419MOL0     C55218   0.794   6.937   2.307 -0.7343  0.5920  0.0581
  419MOL0     C55219   0.824   7.080   2.339  0.3742 -0.3849 -0.2451
  419MOL0    Cl55220   0.666   7.174   2.360  0.5741  0.3386 -0.0711
  419MOL0     C55221   1.694   6.866   2.643  0.8122 -0.1017 -0.3218
  419MOL0     C55222   1.816   6.888   2.712  0.6006 -0.1190  0.3654
  419MOL0     O55223   2.119   6.760   2.673 -0.0435 -0.4402  1.0573
  419MOL0     C55224   2.241   6.946   2.962  0.2687  0.5077  0.2365
  419MOL0     C55225   2.364   6.985   3.015 -0.2564 -1.1371  0.4279
  419MOL0     N55226   3.149   7.216   2.997 -0.7784  0.3357 -0.4538
  419MOL0     N55227   3.273   7.202   2.963  0.2173 -0.2561  0.3879
  419MOL0     C55228   4.465   7.157   2.770  0.0613 -0.0171 -0.3189
  419MOL0     C55229   4.593   7.143   2.705  0.8634 -0.1919  0.8829
  419MOL0     C55230   4.989   7.083   2.555 -0.9391  0.4183 -0.1079
  419MOL0     C55231   5.030   6.963   2.503  0.7114  0.8157  0.2726
  419MOL0     C55232   5.142   6.956   2.422 -1.2842 -0.6707  0.5961
  419MOL0     C55233   5.222   7.068   2.386  0.0686  0.0908 -0.6161
  419MOL0     O55234   5.336   7.055   2.307  0.6873 -0.1782  0.4399
  419MOL0     C55235   5.422   6.943   2.331 -0.6610  0.5633 -0.3206
  419MOL0     C55236   5.538   6.924   2.230  0.1963  0.3465  0.9981
  419MOL0     C55237   5.550   6.781   2.163 -0.2183 -0.3082  0.1321
  419MOL0     C55238   5.534   6.805   2.008 -0.6836  1.4001 -0.0507
  419MOL0     C55239   5.474   6.682   1.942 -0.7239 -1.0899  0.2414
  419MOL0     C55240   5.413   6.589   1.898 -0.5384  0.2500 -0.1968
  419MOL0     C55241   5.163   7.192   2.418  0.3948  0.0528  0.8899
  419MOL0     C55242   5.053   7.197   2.509 -0.3668 -0.0149 -0.1113
  419MOL0     H55243   4.656   6.823   2.817 -3.4797 -1.4746 -0.8756
  419MOL0     H55244   4.438   6.856   2.917  1.7126 -0.0713  3.1285
  419MOL0     H55245   4.169   7.176   2.831 -1.4568 -2.2511 -0.2187
  419MOL0     H55246   4.269   7.254   2.954 -0.0713  0.1166 -1.8830
  419MOL0     H55247   4.143   7.165   3.136 -0.0443 -1.1110 -0.1633
  419MOL0     H55248   4.078   7.034   3.039 -0.1490  0.5618 -0.4737
  419MOL0     H55249   3.949   7.210   2.898  1.1755 -0.2091  0.0460
  419MOL0     H55250   4.010   7.335   2.991 -2.4942  0.6912  1.1017
  419MOL0     H55251   3.854   7.094   3.089  1.9227 -0.1463  0.7257
  419MOL0     H55252   3.901   7.223   3.197  0.0349 -0.9130  0.4498
  419MOL0     H55253   3.707   7.218   2.959  0.7037  1.8839 -0.8517
  419MOL0     H55254   3.748   7.371   3.038 -1.5866  0.7879  0.1671
  419MOL0     H55255   3.527   7.299   3.119  0.9964  0.7352 -1.4470
  419MOL0     H55256   3.640   7.263   3.258  2.2385 -0.0140 -0.0897
  419MOL0     H55257   3.636   7.028   3.178 -0.1878 -1.7105 -0.9249
  419MOL0     H55258   3.493   7.089   3.258  0.1963  0.7167 -0.3094
  419MOL0     H55259   3.466   6.944   3.052 -0.5750 -0.0606  0.1460
  419MOL0     H55260   3.493   7.089   2.943 -0.7051  1.1056  0.3759
  419MOL0     H55261   3.240   6.973   3.194  1.1042 -0.2679 -0.0178
  419MOL0     H55262   2.991   7.212   3.252  0.1102 -1.2818  1.4359
  419MOL0     H55263   2.991   7.042   3.258  0.7444  1.0158  0.7810
  419MOL0     H55264   2.896   7.195   3.012  0.0424 -0.6924 -0.8326
  419MOL0     H55265   2.790   7.167   3.151 -1.0238 -1.8791 -1.0247
  419MOL0     H55266   2.931   6.945   2.982  1.7177  3.8579 -1.2285
  419MOL0     H55267   2.818   6.919   3.121  1.2329 -1.4815 -0.5993
  419MOL0     H55268   2.728   6.880   2.911  0.9482 -1.0922  0.2272
  419MOL0     H55269   2.749   7.041   2.850  0.8285 -1.2060  0.1822
  419MOL0     H55270   2.572   6.841   2.799  0.8757 -0.0860  2.3078
  419MOL0     H55271   2.371   6.763   2.701  0.2820 -0.0692 -0.1193
  419MOL0     H55272   1.864   6.590   2.861 -1.3827  0.3260  0.7623
  419MOL0     H55273   1.639   6.548   2.768  3.1436 -1.8421 -0.3923
  419MOL0     H55274   1.370   6.641   2.694 -0.0492 -0.0221 -0.3930
  419MOL0     H55275   1.485   6.541   2.611  0.6722 -0.2226 -1.7769
  419MOL0     H55276   1.278   6.536   2.496  2.4804 -2.5140 -0.2588
  419MOL0     H55277   1.395   6.621   2.397 -0.4567  0.3814 -0.5322
  419MOL0     H55278   1.295   6.852   2.460  0.6350  0.3721  3.6862
  419MOL0     H55279   1.197   6.772   2.574  2.3553  2.4670  0.8844
  419MOL0     H55280   1.173   6.727   2.278 -1.5866  0.4906 -0.8967
  419MOL0     H55281   1.070   6.647   2.397  0.9234 -0.4289 -0.2053
  419MOL0     H55282   1.077   6.954   2.386 -1.5477  1.3413 -1.4787
  419MOL0     H55283   0.974   6.841   2.482  0.2421  1.6964 -0.2911
  419MOL0     H55284   0.884   6.748   2.281 -1.2337 -0.2496  0.1117
  419MOL0     H55285   0.967   6.876   2.189 -0.3065  1.1060  0.7497
  419MOL0     H55286   0.727   6.935   2.221 -1.2017  0.5253  0.4228
  419MOL0     H55287   0.741   6.898   2.395  0.6826  0.5619  0.9322
  419MOL0     H55288   0.871   7.129   2.254  1.1535  2.2375  1.5697
  419MOL0     H55289   0.888   7.066   2.427  0.2582 -0.4815 -0.1759
  419MOL0     H55290   1.649   6.944   2.583 -0.8283 -0.6301  0.1845
  419MOL0     H55291   1.876   6.977   2.701  0.4832 -0.1067 -0.2140
  419MOL0     H55292   2.145   6.982   2.998 -1.0189 -2.0810 -0.3620
  419MOL0     H55293   2.357   7.054   3.099 -0.8675 -0.5037 -0.1292
  419MOL0     H55294   4.402   7.245   2.762 -1.1781 -0.9303 -0.8677
  419MOL0     H55295   4.629   7.226   2.646  1.1431  2.4988  4.4812
  419MOL0     H55296   4.975   6.875   2.536 -1.0360  1.6140 -0.4015
  419MOL0     H55297   5.187   6.860   2.400 -1.2629 -0.5471  0.0879
  419MOL0     H55298   5.366   6.850   2.322  2.6525 -1.6251 -0.3569
  419MOL0     H55299   5.454   6.947   2.435  1.3261  1.8382 -0.9028
  419MOL0     H55300   5.531   6.997   2.149  0.2530 -0.0971  0.5857
  419MOL0     H55301   5.635   6.946   2.275  0.9123 -2.1920  0.8625
  419MOL0     H55302   5.472   6.709   2.189 -1.0619 -1.0787 -3.8311
  419MOL0     H55303   5.644   6.738   2.198 -1.4384 -1.2352  2.4743
  419MOL0     H55304   5.458   6.879   1.981  1.5750  3.2799 -1.6430
  419MOL0     H55305   5.626   6.839   1.959  0.1834  0.1915  0.6773
  419MOL0     H55306   5.357   6.514   1.846 -0.6010 -0.1527  0.4358
  419MOL0     H55307   5.202   7.280   2.367  0.2509 -0.4330 -0.1007
  419MOL0     H55308   5.015   7.297   2.531 -1.4290  0.3390 -3.0711
  420MOL0     O55309   7.376   4.206   8.394 -0.2487 -0.5054 -0.3452
  420MOL0     C55310   7.432   4.210   8.283 -0.3695 -0.5131 -0.3717
  420MOL0     O55311   7.363   4.209   8.170 -0.4137 -0.6416 -0.0830
  420MOL0     C55312   7.235   4.247   8.146  0.9387  0.4359 -0.0075
  420MOL0     C55313   7.190   4.204   8.021  0.0126  0.2585  0.4943
  420MOL0     C55314   7.051   4.234   7.992  1.1153 -0.5760 -0.3079
  420MOL0     C55315   6.970   4.313   8.075  0.3901  0.5264 -1.2714
  420MOL0     O55316   6.839   4.351   8.069 -1.0732 -0.9681  0.1822
  420MOL0     C55317   6.763   4.291   7.967  0.5590  0.2509  0.3896
  420MOL0     C55318   6.614   4.331   7.992  0.4644  0.4733  0.3495
  420MOL0     C55319   6.517   4.264   7.897  0.2589  0.4035 -0.0893
  420MOL0     C55320   6.371   4.299   7.924 -0.3160  0.7586 -0.0053
  420MOL0     C55321   6.273   4.240   7.813  1.1398 -0.4825  0.8744
  420MOL0     C55322   6.250   4.095   7.834 -0.8219 -0.7751  0.2457
  420MOL0     C55323   6.152   4.030   7.739  0.0345 -0.2876  0.2421
  420MOL0     C55324   6.010   4.072   7.766 -0.1173 -1.0997 -0.1045
  420MOL0     N55325   5.953   4.026   7.890 -0.2603  0.1651 -0.2845
  420MOL0     C55326   5.834   3.957   7.896  0.0516  0.0323 -0.5400
  420MOL0     C55327   5.810   3.956   8.029  0.2213 -0.3702 -0.1309
  420MOL0     C55328   5.690   3.889   8.086  0.5336 -0.3536 -1.2904
  420MOL0     C55329   5.556   3.979   8.089 -0.6439  0.1829  0.0674
  420MOL0     C55330   5.447   3.895   8.156 -0.0819 -0.4100 -0.0923
  420MOL0     C55331   5.319   3.960   8.152  0.5937 -0.5078 -0.1144
  420MOL0     O55332   5.254   3.946   8.025 -0.4879 -0.1812  0.6905
  420MOL0     C55333   5.132   4.002   8.001 -0.7606 -0.3741 -0.5819
  420MOL0     C55334   5.086   3.991   7.869 -0.2107 -0.2505 -0.4267
  420MOL0     C55335   4.972   4.056   7.831  0.8410  0.6384 -0.1748
  420MOL0     C55336   4.897   4.135   7.925 -0.5561  0.3789  0.4170
  420MOL0     C55337   4.773   4.207   7.869  0.0101  0.1500 -0.4316
  420MOL0     O55338   4.689   4.258   7.961 -0.1208 -0.6945  0.3669
  420MOL0     C55339   4.563   4.310   7.924 -0.1371 -0.4610 -0.6571
  420MOL0     C55340   4.546   4.445   7.924 -0.0263 -0.1138 -0.0175
  420MOL0     C55341   4.416   4.504   7.910  0.2920 -0.4446 -0.7607
  420MOL0     C55342   4.305   4.424   7.920  0.4184  0.0394 -0.0639
  420MOL0     O55343   4.173   4.475   7.941 -0.4571 -0.6057  0.4321
  420MOL0     C55344   4.156   4.613   7.919 -0.0448  0.1856  0.1013
  420MOL0     C55345   4.002   4.632   7.919  0.5458  0.3262  0.2098
  420MOL0     C55346   3.923   4.535   7.833  0.5685  0.4411  0.5894
  420MOL0     C55347   3.783   4.588   7.808  0.1717 -0.4479 -0.1592
  420MOL0     C55348   3.698   4.506   7.707 -0.0064  0.0773 -0.0520
  420MOL0     C55349   3.555   4.558   7.690 -0.3318 -0.1417  0.5028
  420MOL0     C55350   3.482   4.440   7.636  0.6548 -0.3568 -0.4674
  420MOL0     C55351   3.354   4.479   7.567 -0.2540  0.2363 -0.8235
  420MOL0    Cl55352   3.213   4.499   7.678  0.1727 -0.0001  0.4395
  420MOL0     C55353   4.321   4.282   7.916  0.1851  0.1570 -0.4444
  420MOL0     C55354   4.450   4.235   7.912 -0.6337  1.0831 -0.5645
  420MOL0     O55355   4.753   4.209   7.746  0.2530  0.5314 -0.3694
  420MOL0     C55356   4.946   4.144   8.054 -0.2621 -0.2221  0.0089
  420MOL0     C55357   5.062   4.083   8.097  1.4193  0.5852  0.0081
  420MOL0     N55358   5.899   4.028   8.104  0.1889 -0.6833 -0.0580
  420MOL0     N55359   5.982   4.075   8.019 -0.4631  0.5676  0.0482
  420MOL0     C55360   7.023   4.347   8.199  0.1534 -0.0961  0.3995
  420MOL0     C55361   7.150   4.316   8.236 -0.4857 -0.6504 -0.8285
  420MOL0     C55362   7.574   4.236   8.285 -0.4469  0.2221  0.1877
  420MOL0     C55363   7.648   4.261   8.169  0.0184 -0.2297 -0.2911
  420MOL0     C55364   7.791   4.279   8.176  0.2355  0.0671  0.3324
  420MOL0     C55365   7.859   4.276   8.300 -0.2315  0.2531  0.1404
  420MOL0     O55366   7.991   4.326   8.292  0.3528  0.2115 -1.1258
  420MOL0     C55367   8.091   4.270   8.378  0.2342 -0.6172  0.6573
  420MOL0     C55368   8.112   4.124   8.349  0.5572  0.0978  0.0026
  420MOL0     C55369   8.238   4.066   8.416  0.5781 -0.6144 -0.3158
  420MOL0     C55370   8.377   4.136   8.353 -1.1727 -0.1361 -0.5091
  420MOL0     C55371   8.390   4.101   8.211  0.2114  0.4346 -0.0141
  420MOL0     C55372   8.409   4.073   8.096 -0.4435 -0.4924 -0.0110
  420MOL0     C55373   7.784   4.243   8.417  0.1565 -0.3537 -0.2603
  420MOL0     C55374   7.645   4.230   8.409 -0.0627 -0.2989  0.3391
  420MOL0     H55375   7.241   4.134   7.956 -2.3156 -0.9617 -0.1412
  420MOL0     H55376   7.010   4.206   7.895  1.2813  1.2322 -0.9517
  420MOL0     H55377   6.781   4.183   7.971  2.0241  0.5230  3.1898
  420MOL0     H55378   6.794   4.327   7.868 -1.4816 -3.8310 -1.9838
  420MOL0     H55379   6.602   4.439   7.988 -0.3867  0.4830  2.0740
  420MOL0     H55380   6.593   4.279   8.086 -0.4747  0.2562  0.0314
  420MOL0     H55381   6.533   4.156   7.903 -0.3033  0.3333  0.1954
  420MOL0     H55382   6.546   4.290   7.795  1.0668  1.5313  0.4025
  420MOL0     H55383   6.346   4.266   8.026 -1.8564  4.1263  0.8639
  420MOL0     H55384   6.360   4.407   7.909 -0.4514  0.6554 -0.6846
  420MOL0     H55385   6.304   4.261   7.710 -0.5237  2.8386  0.9083
  420MOL0     H55386   6.176   4.289   7.823  0.3501 -2.1910  1.9827
  420MOL0     H55387   6.224   4.075   7.938 -2.0204  1.6472  0.4950
  420MOL0     H55388   6.339   4.031   7.835 -1.6303 -1.9123  0.2541
  420MOL0     H55389   6.177   4.044   7.633 -0.3554 -0.5669  0.1132
  420MOL0     H55390   6.159   3.922   7.758 -0.5415 -0.1753  1.1306
  420MOL0     H55391   5.952   4.036   7.680 -1.5435  0.1785  0.2720
  420MOL0     H55392   6.014   4.181   7.764  2.1344 -1.1378  0.1721
  420MOL0     H55393   5.777   3.923   7.810  2.4169 -2.7364 -1.1713
  420MOL0     H55394   5.724   3.859   8.186  0.9137  0.5059 -1.1491
  420MOL0     H55395   5.660   3.796   8.039 -0.4543 -1.7226  1.7748
  420MOL0     H55396   5.531   3.992   7.984 -0.2147 -1.5265 -0.2683
  420MOL0     H55397   5.579   4.077   8.132  0.0701 -0.0547  0.2455
  420MOL0     H55398   5.443   3.797   8.106 -1.3224 -0.5597  0.2646
  420MOL0     H55399   5.473   3.880   8.261 -0.1490 -1.1485 -0.1749
  420MOL0     H55400   5.335   4.067   8.170  0.3722 -0.4366 -0.3334
  420MOL0     H55401   5.255   3.928   8.234 -0.7181  1.8023 -0.1614
  420MOL0     H55402   5.145   3.933   7.799 -0.7995 -1.0842 -0.2503
  420MOL0     H55403   4.939   4.053   7.728  0.4724 -3.4960 -0.1142
  420MOL0     H55404   4.638   4.501   7.936  0.0458 -0.1858 -0.2289
  420MOL0     H55405   4.401   4.611   7.913 -0.2500 -0.5335  0.8187
  420MOL0     H55406   4.204   4.639   7.824  2.2600 -0.7328  0.9360
  420MOL0     H55407   4.189   4.679   8.000  1.2873 -0.5188  0.1586
  420MOL0     H55408   3.975   4.734   7.891 -2.1156 -0.3408  0.0806
  420MOL0     H55409   3.966   4.621   8.021 -0.4610  0.9614 -0.0683
  420MOL0     H55410   3.919   4.432   7.868 -0.7495  0.7190  1.3158
  420MOL0     H55411   3.973   4.521   7.736  1.9853  0.6104  1.2653
  420MOL0     H55412   3.723   4.600   7.899  0.8793 -0.0099  0.2577
  420MOL0     H55413   3.792   4.688   7.764 -1.7709 -0.6803 -1.2222
  420MOL0     H55414   3.708   4.398   7.720  2.7211  0.1350 -1.0462
  420MOL0     H55415   3.749   4.529   7.614 -3.3470 -0.1983 -2.1129
  420MOL0     H55416   3.556   4.644   7.623  1.5099  0.5715  1.3642
  420MOL0     H55417   3.508   4.592   7.783  1.2808  0.1952  1.2317
  420MOL0     H55418   3.541   4.394   7.556  2.2968 -0.6861  0.8615
  420MOL0     H55419   3.463   4.363   7.711 -3.4389  1.4939  0.6930
  420MOL0     H55420   3.329   4.405   7.489  0.0122 -3.0915  2.0116
  420MOL0     H55421   3.372   4.573   7.514  3.2078  1.4236  2.0431
  420MOL0     H55422   4.237   4.213   7.913 -0.1125  0.5157 -0.5029
  420MOL0     H55423   4.479   4.130   7.914  3.4340  1.9864 -2.1493
  420MOL0     H55424   4.890   4.211   8.119  0.4737 -1.1064  1.6207
  420MOL0     H55425   5.088   4.096   8.202  0.0824 -1.4808  0.6572
  420MOL0     H55426   6.962   4.415   8.259  0.9817  2.4650 -1.4980
  420MOL0     H55427   7.199   4.361   8.322 -0.7594 -1.1874 -0.3805
  420MOL0     H55428   7.582   4.270   8.084 -1.6879 -1.5583  0.8341
  420MOL0     H55429   7.853   4.296   8.088 -0.0185 -2.8553 -0.5344
  420MOL0     H55430   8.076   4.285   8.486 -0.7816 -1.6692  0.6796
  420MOL0     H55431   8.187   4.318   8.355  0.3090 -0.7756  0.6350
  420MOL0     H55432   8.025   4.069   8.384  1.2384  0.5269  2.6535
  420MOL0     H55433   8.124   4.114   8.241 -0.0590  1.4700 -0.2165
  420MOL0     H55434   8.239   3.958   8.398 -2.3840 -0.8182  0.2907
  420MOL0     H55435   8.234   4.082   8.524  1.2966  1.3347 -0.5449
  420MOL0     H55436   8.385   4.245   8.362  1.7909 -0.2162 -1.2266
  420MOL0     H55437   8.463   4.099   8.410 -1.6592 -2.0056 -0.9417
  420MOL0     H55438   8.430   4.062   7.992  0.6690  0.3064  0.1027
  420MOL0     H55439   7.830   4.251   8.515  0.8265  1.7658 -0.6968
  420MOL0     H55440   7.593   4.204   8.501  0.6855 -2.7757  0.1270
  421MOL0     O55441   9.805   7.979   8.730  0.5770 -0.5385  0.0288
  421MOL0     C55442   9.880   8.068   8.780  0.6277  0.2373 -0.2735
  421MOL0     O55443   9.850   8.198   8.790  0.5196 -0.0664  0.1444
  421MOL0     C55444   9.722   8.236   8.748 -0.2589 -0.3710 -0.3660
  421MOL0     C55445   9.617   8.279   8.837 -0.0832  0.2691  0.5232
  421MOL0     C55446   9.494   8.321   8.787  0.1273  0.4929 -0.4252
  421MOL0     C55447   9.471   8.315   8.651  0.0953 -0.1413 -0.2736
  421MOL0     O55448   9.343   8.342   8.596 -0.5749  0.0689  0.5743
  421MOL0     C55449   9.329   8.342   8.455 -0.4531 -0.6321 -0.0530
  421MOL0     C55450   9.185   8.394   8.430 -1.2838 -0.1682  0.4788
  421MOL0     C55451   9.139   8.418   8.286 -0.8667 -0.2065  0.6000
  421MOL0     C55452   9.125   8.287   8.213 -0.2483  0.2168 -0.0199
  421MOL0     C55453   9.083   8.294   8.070  0.4509 -0.1519 -0.0519
  421MOL0     C55454   8.954   8.383   8.057 -0.0485  0.3622 -0.2684
  421MOL0     C55455   8.897   8.375   7.921 -0.0822  0.3922  1.1947
  421MOL0     C55456   8.753   8.309   7.917  0.7968 -0.3402  0.8078
  421MOL0     N55457   8.676   8.338   7.795  0.3241 -0.0707 -0.0122
  421MOL0     C55458   8.652   8.257   7.678  0.5898  0.1859  0.1193
  421MOL0     C55459   8.583   8.335   7.587  0.2092 -0.5696  0.3119
  421MOL0     C55460   8.533   8.302   7.450 -0.2247 -0.6275  0.0595
  421MOL0     C55461   8.384   8.274   7.457 -0.4827  0.4170  0.1663
  421MOL0     C55462   8.309   8.274   7.322  0.4134 -0.0258 -0.0558
  421MOL0     C55463   8.150   8.270   7.332 -1.0665 -0.5023  0.9938
  421MOL0     O55464   8.120   8.144   7.394 -0.3115 -0.1870 -0.1076
  421MOL0     C55465   7.996   8.115   7.443 -0.2265 -0.1417  0.1284
  421MOL0     C55466   7.982   8.001   7.520 -0.2234 -0.1705 -0.0381
  421MOL0     C55467   7.852   7.964   7.561 -0.7047  0.0685 -0.6346
  421MOL0     C55468   7.741   8.047   7.530  0.0710  0.8585 -0.4874
  421MOL0     C55469   7.604   8.021   7.586 -0.5259 -0.0092  0.3146
  421MOL0     O55470   7.502   8.110   7.556 -0.1473 -0.0350 -0.3938
  421MOL0     C55471   7.375   8.080   7.602  0.6745 -0.5709 -0.5121
  421MOL0     C55472   7.297   7.968   7.570 -0.2100  0.3142 -0.5003
  421MOL0     C55473   7.165   7.954   7.609 -0.2830 -0.1577  0.6401
  421MOL0     C55474   7.111   8.042   7.698  0.2198  0.0698 -0.4211
  421MOL0     O55475   6.988   8.004   7.749 -0.3978 -0.3540  0.1738
  421MOL0     C55476   6.918   8.113   7.816  0.7673 -0.0342  0.6477
  421MOL0     C55477   6.784   8.064   7.847  0.4685 -0.1839  0.1863
  421MOL0     C55478   6.711   8.182   7.922  0.8637 -0.6368 -0.7565
  421MOL0     C55479   6.584   8.129   7.985 -0.4509 -0.5999 -0.4742
  421MOL0     C55480   6.526   8.241   8.078  0.0735  0.8410  0.8263
  421MOL0     C55481   6.410   8.177   8.148 -0.5285 -0.9524 -0.6605
  421MOL0     C55482   6.312   8.276   8.206  0.0272 -0.0714 -0.1085
  421MOL0     C55483   6.162   8.240   8.206 -0.1656  0.1395 -0.7499
  421MOL0    Cl55484   6.142   8.078   8.288 -0.3886 -0.5681  0.5546
  421MOL0     C55485   7.184   8.162   7.726  1.0078  0.1116 -0.4674
  421MOL0     C55486   7.309   8.182   7.678 -0.0662  0.0928 -0.5021
  421MOL0     O55487   7.588   7.912   7.637 -0.0717 -0.4592  0.5306
  421MOL0     C55488   7.764   8.168   7.453  0.8419  0.8669  0.6521
  421MOL0     C55489   7.888   8.195   7.409  0.0020 -0.4799 -0.3894
  421MOL0     N55490   8.572   8.463   7.639  0.0828 -0.2472 -0.3209
  421MOL0     N55491   8.627   8.464   7.759 -0.1875 -0.5866 -0.1533
  421MOL0     C55492   9.581   8.282   8.566 -0.2800 -0.4465  0.5473
  421MOL0     C55493   9.705   8.241   8.611  0.6027  0.2140  1.1293
  421MOL0     C55494  10.006   8.024   8.847 -0.8441  0.4038 -0.6005
  421MOL0     C55495  10.050   7.888   8.849 -0.5470  0.1104  0.0882
  421MOL0     C55496  10.174   7.854   8.897 -0.9262  0.2174  0.6575
  421MOL0     C55497  10.253   7.951   8.948  0.5302 -0.9064 -0.4493
  421MOL0     O55498  10.375   7.917   8.988  0.1438 -0.5634  0.4360
  421MOL0     C55499  10.485   7.994   8.926 -0.6855  0.1438  0.1959
  421MOL0     C55500  10.608   7.910   8.910  0.7986 -0.3253  0.0752
  421MOL0     C55501  10.747   7.980   8.881  0.2523 -0.4470  0.0946
  421MOL0     C55502  10.755   8.011   8.737 -0.4572  0.0324  0.0849
  421MOL0     C55503  10.857   8.110   8.696  0.0333  0.5890 -0.3209
  421MOL0     C55504  10.957   8.175   8.668 -0.4949 -0.3341  0.2459
  421MOL0     C55505  10.209   8.084   8.961 -0.9206  0.1639  0.6401
  421MOL0     C55506  10.087   8.125   8.902 -0.0843 -0.4062  0.9323
  421MOL0     H55507   9.628   8.277   8.945  2.0720 -1.4371  0.3388
  421MOL0     H55508   9.411   8.339   8.854 -1.9358 -2.4326 -1.9946
  421MOL0     H55509   9.345   8.245   8.409 -0.3772 -0.6354 -0.0206
  421MOL0     H55510   9.396   8.414   8.407  1.2679 -1.4228  1.0781
  421MOL0     H55511   9.173   8.485   8.490  0.3561 -0.9958  2.1580
  421MOL0     H55512   9.121   8.313   8.466 -1.0310 -1.2335 -1.3377
  421MOL0     H55513   9.208   8.485   8.234  1.3849 -3.4419 -0.9307
  421MOL0     H55514   9.047   8.475   8.293 -0.1883  1.0972 -0.7424
  421MOL0     H55515   9.226   8.244   8.215 -0.1977  0.1903  3.3445
  421MOL0     H55516   9.055   8.230   8.274  0.0918  3.7146  4.1497
  421MOL0     H55517   9.073   8.192   8.032 -2.7100  0.3371 -0.8060
  421MOL0     H55518   9.162   8.344   8.014  2.1677 -0.0592  2.2729
  421MOL0     H55519   8.971   8.487   8.085 -0.8147  0.1240  1.1959
  421MOL0     H55520   8.881   8.343   8.129  0.5603  0.2738  0.3100
  421MOL0     H55521   8.893   8.474   7.875 -0.5500 -0.2993 -0.3273
  421MOL0     H55522   8.961   8.321   7.851 -0.4209 -0.2363  1.3560
  421MOL0     H55523   8.704   8.366   7.996  0.0408  2.7895 -1.7203
  421MOL0     H55524   8.757   8.202   7.938 -0.0719 -0.4335  0.5406
  421MOL0     H55525   8.681   8.152   7.675 -0.6883 -0.1849  0.0816
  421MOL0     H55526   8.577   8.219   7.394 -0.1096 -1.0796  0.8111
  421MOL0     H55527   8.554   8.389   7.388  1.6371 -0.8444  0.3241
  421MOL0     H55528   8.339   8.356   7.513 -2.8398 -0.8034  0.1833
  421MOL0     H55529   8.366   8.176   7.502 -2.5328 -0.0726 -1.5014
  421MOL0     H55530   8.333   8.373   7.280  0.4489  1.0328  2.3095
  421MOL0     H55531   8.348   8.193   7.260  1.0931 -0.1058  0.4660
  421MOL0     H55532   8.119   8.254   7.228  0.1417  0.0545  0.5303
  421MOL0     H55533   8.114   8.361   7.380  0.6869  2.1786 -2.3034
  421MOL0     H55534   8.066   7.941   7.554 -0.5462 -1.1207 -0.8440
  421MOL0     H55535   7.833   7.879   7.626 -2.9678  0.6234 -0.4786
  421MOL0     H55536   7.332   7.881   7.515 -2.0856 -2.0565  1.7813
  421MOL0     H55537   7.120   7.864   7.567 -3.2459  2.0659 -1.3801
  421MOL0     H55538   6.902   8.202   7.754 -2.2118 -0.4978  0.6161
  421MOL0     H55539   6.971   8.128   7.911  3.6223 -2.0506 -0.4749
  421MOL0     H55540   6.792   7.976   7.911  0.6532 -1.3546 -1.3843
  421MOL0     H55541   6.725   8.041   7.758 -1.7546  2.7043  0.7434
  421MOL0     H55542   6.684   8.265   7.857  3.0884 -0.3551 -1.4016
  421MOL0     H55543   6.782   8.221   7.996 -1.1068  1.3942  0.1506
  421MOL0     H55544   6.512   8.080   7.919 -2.1090  0.1327  0.7218
  421MOL0     H55545   6.611   8.048   8.054 -0.4340 -0.5996 -0.4796
  421MOL0     H55546   6.504   8.328   8.015  2.0011  1.5705  1.0932
  421MOL0     H55547   6.603   8.274   8.149 -0.7879  3.5454  0.6170
  421MOL0     H55548   6.455   8.104   8.217  0.9207 -0.3757 -0.9530
  421MOL0     H55549   6.363   8.112   8.074  1.3432 -3.3935  0.1310
  421MOL0     H55550   6.332   8.293   8.312  3.9079  0.9437 -0.8254
  421MOL0     H55551   6.338   8.368   8.153 -0.4097 -1.5363 -3.0589
  421MOL0     H55552   6.114   8.241   8.108 -3.8472 -4.6409  0.6006
  421MOL0     H55553   6.124   8.318   8.273 -0.1158 -0.2469 -0.2614
  421MOL0     H55554   7.136   8.245   7.777  0.4066  1.0408 -2.4216
  421MOL0     H55555   7.365   8.271   7.706 -1.0402  1.1227 -1.6788
  421MOL0     H55556   7.675   8.223   7.424  1.4833  2.5859  1.7365
  421MOL0     H55557   7.899   8.279   7.341 -0.4607  0.5180  0.7169
  421MOL0     H55558   9.574   8.297   8.459 -0.6158 -1.6121  0.3938
  421MOL0     H55559   9.787   8.213   8.546  0.8747  1.2047  1.0276
  421MOL0     H55560   9.972   7.817   8.826 -1.2637  0.1338  2.2400
  421MOL0     H55561  10.191   7.748   8.911  1.0713  0.5366  0.9454
  421MOL0     H55562  10.505   8.084   8.985  2.0567  0.3782 -0.9294
  421MOL0     H55563  10.456   8.023   8.825  2.3306  0.6821 -0.5951
  421MOL0     H55564  10.613   7.855   9.004 -1.5709  2.6303  2.1492
  421MOL0     H55565  10.581   7.848   8.824  1.4204  1.3786 -1.4311
  421MOL0     H55566  10.833   7.914   8.897  0.7124 -0.0646 -0.6909
  421MOL0     H55567  10.761   8.068   8.945 -1.7867  0.5655 -0.7740
  421MOL0     H55568  10.791   7.920   8.688 -1.1433 -0.1638 -0.0610
  421MOL0     H55569  10.658   8.049   8.704 -0.3694 -0.3463 -0.6159
  421MOL0     H55570  11.048   8.228   8.648 -1.4605  0.7358 -1.7310
  421MOL0     H55571  10.291   8.148   8.992 -0.4394  0.0705 -0.4031
  421MOL0     H55572  10.055   8.228   8.900 -0.3786 -0.4990  0.1807
  422MOL0     O55573   6.990   0.072   6.906  0.6429  0.3037  0.5844
  422MOL0     C55574   7.024  -0.013   6.980 -0.4316 -0.0386 -0.5876
  422MOL0     O55575   6.945  -0.074   7.070  0.1440  0.5309  0.3380
  422MOL0     C55576   6.818  -0.027   7.070 -0.7252 -0.2772 -0.1370
  422MOL0     C55577   6.714  -0.116   7.020 -0.4389  0.7941 -0.7601
  422MOL0     C55578   6.591  -0.068   6.994  0.0759 -0.1936  0.3245
  422MOL0     C55579   6.552   0.059   7.042  0.3158 -0.7743  1.0312
  422MOL0     O55580   6.419   0.097   7.021 -1.2192  0.0163 -0.1209
  422MOL0     C55581   6.365   0.228   7.057 -0.3100  0.7051  0.4133
  422MOL0     C55582   6.221   0.233   7.001 -0.7345 -0.1949  0.0588
  422MOL0     C55583   6.240   0.289   6.861 -0.6591 -0.6296 -0.5256
  422MOL0     C55584   6.113   0.329   6.790 -0.0265  0.5476 -0.2324
  422MOL0     C55585   6.069   0.232   6.681  0.7737 -0.8146 -0.2611
  422MOL0     C55586   5.930   0.269   6.612  0.0343  0.0550  0.6099
  422MOL0     C55587   5.920   0.176   6.492 -1.1919 -0.8662  0.3641
  422MOL0     C55588   5.840   0.225   6.372  0.8099 -0.3795  0.0426
  422MOL0     N55589   5.694   0.243   6.401 -0.1294  0.7115  0.1865
  422MOL0     C55590   5.588   0.161   6.382  0.1406 -0.2903 -0.0470
  422MOL0     C55591   5.477   0.238   6.387  0.5197  1.1566 -0.5246
  422MOL0     C55592   5.351   0.170   6.367 -0.8932  0.3387  0.1278
  422MOL0     C55593   5.283   0.156   6.505  0.1294  0.1741 -0.2758
  422MOL0     C55594   5.137   0.098   6.486 -0.6862  0.9390 -0.1831
  422MOL0     C55595   5.095   0.029   6.623  0.7308 -0.2908 -0.3980
  422MOL0     O55596   4.974  -0.044   6.597 -0.9050 -0.0949 -0.6022
  422MOL0     C55597   4.859   0.025   6.572  0.4400  0.3584  0.0531
  422MOL0     C55598   4.751  -0.054   6.528  0.5147  0.8225  0.4241
  422MOL0     C55599   4.633   0.005   6.490  0.7173  0.1066  0.4060
  422MOL0     C55600   4.620   0.150   6.473  0.7072  0.5733 -0.1691
  422MOL0     C55601   4.489   0.206   6.445  0.1903 -0.0260 -0.3600
  422MOL0     O55602   4.418   0.117   6.383  0.0299  0.8706 -0.0949
  422MOL0     C55603   4.300   0.140   6.313  0.2453  0.1057  0.5297
  422MOL0     C55604   4.228   0.262   6.303 -0.9348 -0.0547  0.3224
  422MOL0     C55605   4.102   0.272   6.248 -0.4630  0.2388  0.3384
  422MOL0     C55606   4.034   0.161   6.198 -0.1123  0.8646  0.0644
  422MOL0     O55607   3.906   0.168   6.159 -0.2202 -0.6934  0.0662
  422MOL0     C55608   3.838   0.294   6.155  0.6144  0.3382  0.0917
  422MOL0     C55609   3.699   0.261   6.090 -0.6460 -0.8800 -0.7937
  422MOL0     C55610   3.615   0.375   6.030  1.3838 -0.4983 -0.2378
  422MOL0     C55611   3.486   0.327   5.948 -0.7071 -0.3452  0.9653
  422MOL0     C55612   3.393   0.443   5.912 -0.0972  0.2531 -0.0401
  422MOL0     C55613   3.464   0.552   5.827  0.6101  0.2734 -0.5455
  422MOL0     C55614   3.560   0.501   5.723 -1.0754  0.1895  0.4615
  422MOL0     C55615   3.614   0.632   5.639 -0.1961  0.8072 -0.3279
  422MOL0    Cl55616   3.740   0.733   5.718 -0.3807  0.0542 -0.1499
  422MOL0     C55617   4.106   0.039   6.195  0.3994 -0.0794 -0.1781
  422MOL0     C55618   4.241   0.033   6.249  0.3790  0.1291  0.6398
  422MOL0     O55619   4.472   0.331   6.452 -0.0159 -0.5391 -0.5758
  422MOL0     C55620   4.734   0.225   6.508  1.1193 -0.1564  0.1453
  422MOL0     C55621   4.849   0.170   6.559 -0.5435  0.5375  0.5653
  422MOL0     N55622   5.522   0.366   6.416  0.6053  0.3443  0.3586
  422MOL0     N55623   5.652   0.367   6.417  0.0727 -0.2555 -0.5383
  422MOL0     C55624   6.651   0.134   7.107  0.0034  0.7154 -0.3743
  422MOL0     C55625   6.785   0.097   7.119 -0.4878  0.3127  0.4368
  422MOL0     C55626   7.166  -0.052   6.979  0.3294 -0.2506  0.1119
  422MOL0     C55627   7.264   0.031   6.921  1.0546 -0.4884 -1.3049
  422MOL0     C55628   7.395  -0.014   6.915  0.1672 -0.0895 -0.3584
  422MOL0     C55629   7.435  -0.138   6.963 -0.7873  0.0291 -0.1119
  422MOL0     O55630   7.570  -0.173   6.947  0.1769  0.6157  0.2732
  422MOL0     C55631   7.596  -0.313   6.950  0.1810  0.8083 -0.6527
  422MOL0     C55632   7.740  -0.344   6.903  0.6221 -1.2265 -0.4768
  422MOL0     C55633   7.798  -0.467   6.974 -0.0021  0.2105 -0.2307
  422MOL0     C55634   7.950  -0.475   6.951  0.5071  0.3814 -0.0651
  422MOL0     C55635   8.027  -0.376   7.028 -0.4889 -0.0762  0.2217
  422MOL0     C55636   8.077  -0.290   7.093 -0.2777 -0.6101  0.1127
  422MOL0     C55637   7.333  -0.215   7.024 -0.5514 -0.8720  1.0536
  422MOL0     C55638   7.203  -0.170   7.035  0.3292 -0.4212 -0.5818
  422MOL0     H55639   6.743  -0.213   6.981 -2.7591  0.6308 -2.2712
  422MOL0     H55640   6.521  -0.125   6.933 -2.2185 -0.1628  2.7716
  422MOL0     H55641   6.437   0.303   7.024  0.7916 -0.8952 -0.9949
  422MOL0     H55642   6.365   0.240   7.166  0.3960  0.7007  0.4196
  422MOL0     H55643   6.165   0.311   7.054 -0.4663 -1.3003  2.0976
  422MOL0     H55644   6.176   0.134   7.010  0.1831 -0.7403 -1.1374
  422MOL0     H55645   6.307   0.227   6.800 -0.8229 -1.1848 -0.1445
  422MOL0     H55646   6.275   0.393   6.861 -2.2202 -0.0664 -0.0899
  422MOL0     H55647   6.040   0.325   6.871  1.1713  2.6059  1.0492
  422MOL0     H55648   6.108   0.430   6.747  0.5571  0.8152  0.2984
  422MOL0     H55649   6.060   0.132   6.724  1.5010 -1.2330 -1.0413
  422MOL0     H55650   6.137   0.247   6.597  0.0582 -0.5394 -0.8095
  422MOL0     H55651   5.938   0.372   6.577 -0.0870  0.4300  1.6614
  422MOL0     H55652   5.846   0.266   6.682  0.5495 -0.2005  1.2290
  422MOL0     H55653   6.022   0.154   6.461 -1.3861 -2.2665  0.6558
  422MOL0     H55654   5.878   0.078   6.518  0.9528 -2.5480 -2.0490
  422MOL0     H55655   5.832   0.154   6.290  0.0556 -0.6232  0.3216
  422MOL0     H55656   5.886   0.320   6.343  0.8630  0.3314  2.2101
  422MOL0     H55657   5.587   0.054   6.360 -2.8959 -0.4541  0.3520
  422MOL0     H55658   5.363   0.068   6.329  0.7520  1.1747 -1.7834
  422MOL0     H55659   5.281   0.226   6.305 -1.4801 -1.1526 -0.5998
  422MOL0     H55660   5.283   0.251   6.559 -1.7863 -0.6188  1.2373
  422MOL0     H55661   5.342   0.081   6.558 -0.5885 -0.0679  0.1929
  422MOL0     H55662   5.073   0.181   6.452 -0.8832  0.4146 -1.1315
  422MOL0     H55663   5.130   0.028   6.403  1.3195  1.6916 -1.0739
  422MOL0     H55664   5.093   0.104   6.703  2.8022  0.7972 -1.2613
  422MOL0     H55665   5.170  -0.047   6.643 -0.1448 -1.3188 -0.9458
  422MOL0     H55666   4.756  -0.161   6.541 -2.7668  0.6403  0.9758
  422MOL0     H55667   4.558  -0.072   6.474  2.4606 -1.5963 -0.0512
  422MOL0     H55668   4.282   0.350   6.336  2.1881 -1.8308  0.2979
  422MOL0     H55669   4.055   0.370   6.246 -2.2525 -0.6074 -0.1092
  422MOL0     H55670   3.888   0.370   6.094  1.3711 -0.2760 -0.0697
  422MOL0     H55671   3.822   0.330   6.257  1.3301  1.6947 -0.2466
  422MOL0     H55672   3.634   0.201   6.154  0.9068 -0.0113  1.7526
  422MOL0     H55673   3.727   0.207   5.999 -1.4120 -0.2292 -1.4292
  422MOL0     H55674   3.677   0.446   5.974 -0.6128  0.5324 -1.2502
  422MOL0     H55675   3.566   0.433   6.109  2.9665  1.0599 -0.3402
  422MOL0     H55676   3.518   0.273   5.859 -2.0045 -1.1483  0.9730
  422MOL0     H55677   3.441   0.251   6.013 -0.1873 -0.9283  0.6512
  422MOL0     H55678   3.337   0.474   6.001  1.9113 -1.8503  2.1120
  422MOL0     H55679   3.324   0.391   5.844  1.9319  0.0342 -2.0398
  422MOL0     H55680   3.529   0.617   5.887  2.1478 -0.4224 -1.4151
  422MOL0     H55681   3.392   0.618   5.778  0.1515 -1.1055 -1.7745
  422MOL0     H55682   3.642   0.434   5.752 -1.9351 -0.9266  0.3980
  422MOL0     H55683   3.495   0.452   5.649 -1.5431  1.8359 -0.2737
  422MOL0     H55684   3.526   0.695   5.620 -0.8990  0.6552  2.0462
  422MOL0     H55685   3.643   0.612   5.536  1.9358  4.0487 -0.5051
  422MOL0     H55686   4.067  -0.053   6.153 -1.3033  0.5838 -0.1403
  422MOL0     H55687   4.291  -0.064   6.246  2.6775  1.2564 -0.6570
  422MOL0     H55688   4.714   0.331   6.514 -1.4173 -0.5815  0.3678
  422MOL0     H55689   4.931   0.234   6.588  0.0470  0.6030 -1.1365
  422MOL0     H55690   6.618   0.224   7.158 -0.4980  0.1003  0.3999
  422MOL0     H55691   6.858   0.166   7.159 -0.3867  0.2370  0.3827
  422MOL0     H55692   7.239   0.130   6.884  1.4267 -0.5652 -1.7689
  422MOL0     H55693   7.479   0.042   6.876  2.9259 -2.9335  1.0623
  422MOL0     H55694   7.532  -0.369   6.881  0.1450  1.3629 -1.0850
  422MOL0     H55695   7.599  -0.349   7.053  1.5366 -0.2704 -1.0426
  422MOL0     H55696   7.748  -0.357   6.794  3.1457 -0.4141 -0.4407
  422MOL0     H55697   7.807  -0.260   6.925  0.0639 -0.8752 -0.0938
  422MOL0     H55698   7.743  -0.555   6.940 -1.1776  1.3498 -1.3691
  422MOL0     H55699   7.783  -0.459   7.082  1.9371  2.7837 -0.0608
  422MOL0     H55700   7.984  -0.578   6.966  1.5700  0.2676 -2.7656
  422MOL0     H55701   7.977  -0.456   6.847  0.4364 -3.3177 -0.9038
  422MOL0     H55702   8.121  -0.208   7.145  1.2788 -1.7566  0.7028
  422MOL0     H55703   7.369  -0.302   7.078  3.0712  0.3917  0.9329
  422MOL0     H55704   7.132  -0.229   7.092 -3.3614  1.2686 -3.0310
  423MOL0     O55705   5.892   1.532   9.865  0.3733  0.2408 -0.0181
  423MOL0     C55706   5.963   1.446   9.807 -0.8233  0.4012  0.5496
  423MOL0     O55707   5.932   1.322   9.761  0.4790  0.4351  0.5983
  423MOL0     C55708   5.802   1.305   9.723 -0.0412  0.0548  1.3849
  423MOL0     C55709   5.698   1.306   9.812 -0.1602 -0.0388 -0.4614
  423MOL0     C55710   5.567   1.279   9.782  0.2605  0.5052  0.4143
  423MOL0     C55711   5.533   1.235   9.653 -0.4875 -0.9402  0.2986
  423MOL0     O55712   5.407   1.195   9.639 -0.3172  0.5931  0.2628
  423MOL0     C55713   5.388   1.076   9.557 -0.0553  0.5056  0.5027
  423MOL0     C55714   5.234   1.038   9.574  0.2410  0.3389 -0.0870
  423MOL0     C55715   5.150   1.119   9.479 -0.2184 -0.2434 -0.0410
  423MOL0     C55716   4.995   1.110   9.484  0.8627 -0.3684 -0.1566
  423MOL0     C55717   4.928   1.209   9.384  0.0220  0.0173  0.6703
  423MOL0     C55718   4.787   1.167   9.363 -0.0046  0.3424 -0.7548
  423MOL0     C55719   4.709   1.138   9.489 -0.7010  0.3678  0.1890
  423MOL0     C55720   4.573   1.102   9.450 -1.8183 -0.2662 -0.4804
  423MOL0     N55721   4.502   1.067   9.575  0.6639 -0.1347  0.2680
  423MOL0     C55722   4.410   0.964   9.581  0.2528 -0.4638  0.4564
  423MOL0     C55723   4.330   1.006   9.683  0.6485  0.4151  0.7259
  423MOL0     C55724   4.196   0.934   9.700  0.6722 -0.7569 -0.8127
  423MOL0     C55725   4.089   0.994   9.597 -0.5596  0.2584  0.2122
  423MOL0     C55726   3.986   0.892   9.551 -0.0917  0.1306  0.3553
  423MOL0     C55727   3.904   0.842   9.678  0.1227 -0.3238 -0.7326
  423MOL0     O55728   3.785   0.781   9.635  0.2372  0.5091  0.4067
  423MOL0     C55729   3.693   0.744   9.732 -0.9965  0.6538  0.5037
  423MOL0     C55730   3.560   0.751   9.693  0.2514 -0.3170  0.2391
  423MOL0     C55731   3.448   0.716   9.780 -0.3272  0.3710 -0.2595
  423MOL0     C55732   3.481   0.661   9.913  0.5834  0.8918  0.3883
  423MOL0     C55733   3.392   0.580  10.002  0.4054 -0.3243  0.2770
  423MOL0     O55734   3.257   0.613  10.009  0.0543 -0.5373 -0.3949
  423MOL0     C55735   3.186   0.530  10.085  0.6781  0.2498 -0.3936
  423MOL0     C55736   3.173   0.389  10.056  0.0941 -0.3319  0.5503
  423MOL0     C55737   3.076   0.313  10.116  0.6814 -0.8314  0.5190
  423MOL0     C55738   2.983   0.366  10.208  0.3085  0.6295 -0.7575
  423MOL0     O55739   2.892   0.272  10.263 -0.2985  0.5203 -0.1018
  423MOL0     C55740   2.815   0.318  10.378  0.7194 -1.1288 -0.4405
  423MOL0     C55741   2.723   0.210  10.420  0.8073 -0.4052  0.5032
  423MOL0     C55742   2.613   0.257  10.515 -0.0888  0.2200  0.8138
  423MOL0     C55743   2.524   0.137  10.546  0.0582 -0.1024  0.5853
  423MOL0     C55744   2.390   0.177  10.617 -0.6008 -0.0548  0.7657
  423MOL0     C55745   2.407   0.212  10.768  0.6912 -0.4713 -0.6661
  423MOL0     C55746   2.270   0.225  10.842 -0.2077  0.0948 -0.4114
  423MOL0     C55747   2.287   0.302  10.976  0.5285  0.5504  0.3428
  423MOL0    Cl55748   2.359   0.462  10.962 -0.4589 -0.1740 -0.5005
  423MOL0     C55749   2.979   0.510  10.224 -0.1912  0.2515 -0.0277
  423MOL0     C55750   3.081   0.585  10.164  0.2651 -0.0646  0.3440
  423MOL0     O55751   3.442   0.485  10.056 -0.7114 -0.6722 -0.3090
  423MOL0     C55752   3.622   0.658   9.949 -0.4531  0.8134  0.6679
  423MOL0     C55753   3.721   0.706   9.866 -0.1563  0.1269 -0.0901
  423MOL0     N55754   4.393   1.108   9.752  0.6243 -0.3721 -0.3827
  423MOL0     N55755   4.483   1.154   9.684  0.5138 -0.1050 -0.0123
  423MOL0     C55756   5.640   1.243   9.557  0.4245  0.5820  0.5472
  423MOL0     C55757   5.775   1.279   9.587 -0.0661 -0.1738 -0.2372
  423MOL0     C55758   6.109   1.484   9.780  1.2533 -0.3075  0.1349
  423MOL0     C55759   6.196   1.404   9.711 -0.1133 -0.3775 -0.9099
  423MOL0     C55760   6.330   1.441   9.711  0.4562  0.1170  0.1255
  423MOL0     C55761   6.384   1.560   9.772  0.0728  1.0161 -0.5743
  423MOL0     O55762   6.522   1.583   9.755 -0.4465  0.3045  0.1773
  423MOL0     C55763   6.587   1.682   9.828  0.1566 -0.1447 -0.7787
  423MOL0     C55764   6.737   1.670   9.803 -0.1732  0.8778  0.2191
  423MOL0     C55765   6.819   1.751   9.899 -0.1555 -0.4178 -0.4558
  423MOL0     C55766   6.966   1.735   9.856 -0.3718 -0.8013 -0.2219
  423MOL0     C55767   7.052   1.795   9.962  0.3357 -0.7382  0.7215
  423MOL0     C55768   7.122   1.858  10.034 -0.7191 -0.3508 -0.7942
  423MOL0     C55769   6.292   1.635   9.842  1.0495  0.3778  0.8363
  423MOL0     C55770   6.158   1.602   9.849 -0.3149 -0.7890 -0.3250
  423MOL0     H55771   5.731   1.333   9.912 -1.5844  0.9715 -0.2342
  423MOL0     H55772   5.481   1.277   9.849 -1.4860 -0.3250 -1.7414
  423MOL0     H55773   5.449   0.994   9.594  0.0107  0.6270  0.6668
  423MOL0     H55774   5.410   1.098   9.452  1.0649 -2.8113 -0.0620
  423MOL0     H55775   5.211   1.061   9.678  1.1957  0.5150  0.0934
  423MOL0     H55776   5.222   0.930   9.563  1.2550  0.0172  1.6701
  423MOL0     H55777   5.181   1.079   9.382 -1.7336 -1.8700  0.1027
  423MOL0     H55778   5.190   1.221   9.489  2.7129 -0.9204 -3.0254
  423MOL0     H55779   4.976   1.007   9.456 -0.6380 -0.1637  0.0515
  423MOL0     H55780   4.961   1.129   9.586 -0.7812  1.4893 -0.9793
  423MOL0     H55781   4.984   1.208   9.290  1.8523 -0.5400  1.7202
  423MOL0     H55782   4.924   1.307   9.431  0.0744  0.1081  0.4841
  423MOL0     H55783   4.800   1.086   9.291 -1.7689  0.1835 -0.9254
  423MOL0     H55784   4.731   1.248   9.315 -1.4497 -0.8261 -1.1151
  423MOL0     H55785   4.749   1.055   9.550 -0.1014 -0.3230 -1.1092
  423MOL0     H55786   4.709   1.233   9.543 -1.6459 -0.0586  0.9791
  423MOL0     H55787   4.557   1.026   9.372 -1.4757  0.7186 -1.5388
  423MOL0     H55788   4.520   1.185   9.403 -1.0154  0.1281 -0.7152
  423MOL0     H55789   4.376   0.885   9.514 -1.6919  0.7202 -0.0235
  423MOL0     H55790   4.164   0.942   9.804 -1.4154  2.6862 -1.5699
  423MOL0     H55791   4.209   0.827   9.682  0.0743 -0.6418 -2.0491
  423MOL0     H55792   4.147   1.028   9.511  0.8753 -0.3863  0.8744
  423MOL0     H55793   4.036   1.072   9.652 -0.7085 -0.9451  1.8771
  423MOL0     H55794   3.920   0.942   9.481 -0.4372  1.1169  1.3519
  423MOL0     H55795   4.034   0.806   9.503  1.3503 -0.0876  2.0516
  423MOL0     H55796   3.893   0.920   9.754  0.4404 -0.8190 -0.1634
  423MOL0     H55797   3.971   0.771   9.728  1.0416  2.6178  2.5797
  423MOL0     H55798   3.527   0.792   9.597 -0.6601  1.4944  1.2712
  423MOL0     H55799   3.348   0.718   9.736 -0.9689  2.1398  1.1198
  423MOL0     H55800   3.250   0.339   9.998 -1.5301 -0.7296 -1.3811
  423MOL0     H55801   3.071   0.206  10.098 -1.2985 -0.6568 -0.1713
  423MOL0     H55802   2.746   0.396  10.343  1.6118 -1.8595 -4.2361
  423MOL0     H55803   2.879   0.354  10.460 -0.5687 -0.1753  0.1908
  423MOL0     H55804   2.783   0.130  10.464  3.1097  0.1617 -1.3589
  423MOL0     H55805   2.664   0.172  10.336  1.5840 -1.1699  0.2842
  423MOL0     H55806   2.557   0.341  10.472  2.9522  1.8384 -0.2385
  423MOL0     H55807   2.646   0.293  10.613 -0.2131 -0.8772  1.2641
  423MOL0     H55808   2.503   0.083  10.453 -0.3213  1.1144 -0.0566
  423MOL0     H55809   2.588   0.073  10.609 -1.0206 -1.7134  0.1286
  423MOL0     H55810   2.318   0.096  10.604  2.2188 -2.6791  0.4063
  423MOL0     H55811   2.355   0.263  10.559 -0.2779 -1.8892 -2.3779
  423MOL0     H55812   2.480   0.292  10.781  0.9837 -0.6754 -1.0392
  423MOL0     H55813   2.466   0.137  10.822  1.4498  0.2237 -0.5006
  423MOL0     H55814   2.199   0.265  10.769  0.9172  1.7543 -0.6574
  423MOL0     H55815   2.229   0.126  10.865 -0.4639 -0.1379 -1.7749
  423MOL0     H55816   2.343   0.248  11.053  0.5138 -3.5444 -2.2238
  423MOL0     H55817   2.182   0.303  11.008 -0.1264  0.4088 -1.6691
  423MOL0     H55818   2.914   0.574  10.283  1.1768 -0.2246  2.1384
  423MOL0     H55819   3.082   0.691  10.184 -1.8427 -0.2835  1.8747
  423MOL0     H55820   3.649   0.618  10.046 -0.9856  0.2595  0.5978
  423MOL0     H55821   3.825   0.694   9.894  0.0666 -0.6741 -1.2016
  423MOL0     H55822   5.605   1.215   9.458 -0.3673 -1.1866  1.2912
  423MOL0     H55823   5.864   1.288   9.526  0.1312  0.2733  0.1085
  423MOL0     H55824   6.163   1.317   9.655 -0.2795  1.1572 -3.3899
  423MOL0     H55825   6.404   1.373   9.668  1.6225  0.8468  0.9300
  423MOL0     H55826   6.554   1.674   9.932  1.5143  1.3699 -0.1755
  423MOL0     H55827   6.569   1.782   9.787  1.3098 -0.0933 -1.2046
  423MOL0     H55828   6.777   1.568   9.807 -0.5146  0.7133 -0.3788
  423MOL0     H55829   6.757   1.690   9.697 -5.4680 -2.3822 -1.7990
  423MOL0     H55830   6.796   1.727  10.003 -1.9768  1.4297 -0.3590
  423MOL0     H55831   6.788   1.855   9.881 -0.1887 -0.4686 -0.6914
  423MOL0     H55832   6.983   1.628   9.844 -1.5229 -1.0153 -0.1116
  423MOL0     H55833   6.981   1.781   9.758  1.8701 -0.7608  0.0968
  423MOL0     H55834   7.199   1.894  10.098 -1.6368 -1.4906  1.0251
  423MOL0     H55835   6.326   1.728   9.886  3.3186 -0.7476  1.6143
  423MOL0     H55836   6.092   1.669   9.903  2.0616  2.0303 -0.6633
  424MOL0     O55837  10.823   5.484   7.603  0.3154  0.3901 -0.1527
  424MOL0     C55838  10.859   5.564   7.691 -0.8605 -0.2757  0.6224
  424MOL0     O55839  10.772   5.614   7.777 -0.0670 -0.2851 -0.0315
  424MOL0     C55840  10.647   5.560   7.797 -0.5268 -0.0916 -0.0137
  424MOL0     C55841  10.561   5.524   7.691 -0.1541 -0.1601 -0.4562
  424MOL0     C55842  10.436   5.477   7.728 -0.1428 -0.6396  0.3847
  424MOL0     C55843  10.405   5.459   7.863  0.4790 -0.1640 -0.0753
  424MOL0     O55844  10.293   5.395   7.907 -0.0293  0.3109  0.3727
  424MOL0     C55845  10.196   5.330   7.826 -0.5707 -0.0265  0.9026
  424MOL0     C55846  10.114   5.231   7.916  0.9316 -0.2135  0.2242
  424MOL0     C55847  10.021   5.142   7.828 -0.1259 -0.7816  0.0018
  424MOL0     C55848   9.918   5.073   7.920 -0.6045 -0.1130 -0.0569
  424MOL0     C55849   9.850   4.954   7.852 -0.2350  0.1664  0.1631
  424MOL0     C55850   9.758   4.882   7.945  0.2162 -0.7973 -0.8284
  424MOL0     C55851   9.706   4.746   7.902 -0.3490 -1.1477 -0.2804
  424MOL0     C55852   9.642   4.759   7.759 -1.0306 -0.2082 -0.3732
  424MOL0     N55853   9.588   4.632   7.715 -0.6337 -0.2559  0.4164
  424MOL0     C55854   9.660   4.525   7.655  0.3959  0.5346 -0.3262
  424MOL0     C55855   9.572   4.415   7.659 -0.1235 -0.3479  0.3505
  424MOL0     C55856   9.592   4.271   7.621  0.2546 -0.2130  0.2765
  424MOL0     C55857   9.694   4.206   7.715 -0.3330  0.7853 -0.3809
  424MOL0     C55858   9.706   4.065   7.687 -0.1610  0.4806 -0.2092
  424MOL0     C55859   9.755   3.990   7.802  0.0415  0.2816  1.4906
  424MOL0     O55860   9.749   3.850   7.760 -0.1395 -0.4429 -0.1475
  424MOL0     C55861   9.836   3.769   7.834  0.1603 -0.8357 -0.5444
  424MOL0     C55862   9.851   3.782   7.972 -0.9602 -0.2880 -0.2063
  424MOL0     C55863   9.957   3.709   8.039 -0.2526  0.0014 -0.1366
  424MOL0     C55864  10.040   3.629   7.960 -0.6322 -0.7324 -0.0724
  424MOL0     C55865  10.142   3.552   8.025  0.1784 -0.4948  0.6603
  424MOL0     O55866  10.186   3.594   8.150  0.6821 -0.0817 -0.2118
  424MOL0     C55867  10.276   3.507   8.210 -0.2855 -0.2225  0.3098
  424MOL0     C55868  10.402   3.562   8.234  0.0352  0.1606 -0.2991
  424MOL0     C55869  10.504   3.503   8.295 -1.1171  0.0596  0.0375
  424MOL0     C55870  10.488   3.377   8.331 -0.1746 -0.3380  0.6335
  424MOL0     O55871  10.597   3.310   8.382 -0.5930  0.0871  0.2663
  424MOL0     C55872  10.609   3.173   8.418  0.4282 -0.2841 -0.2904
  424MOL0     C55873  10.752   3.138   8.462  0.8421 -0.7188 -0.4094
  424MOL0     C55874  10.867   3.180   8.373  0.4208  0.5570  0.1953
  424MOL0     C55875  10.982   3.089   8.374 -0.5174 -0.2395 -0.0432
  424MOL0     C55876  11.035   3.064   8.508  0.7087  0.3851  0.7415
  424MOL0     C55877  11.180   3.015   8.506 -0.0604  0.1586  0.3421
  424MOL0     C55878  11.224   2.995   8.650 -0.1058 -0.0973 -0.1695
  424MOL0     C55879  11.367   2.933   8.652  0.4112  0.1641 -0.0402
  424MOL0    Cl55880  11.354   2.753   8.627 -0.1270  0.5151  0.1301
  424MOL0     C55881  10.366   3.308   8.306 -0.1611  0.3977  0.5476
  424MOL0     C55882  10.252   3.370   8.245  0.0071 -0.3726  0.2076
  424MOL0     O55883  10.181   3.454   7.966  0.6586  0.6967  0.2833
  424MOL0     C55884  10.029   3.625   7.821 -0.4396  0.3716  1.2877
  424MOL0     C55885   9.926   3.699   7.757  0.4192 -0.8512 -0.9048
  424MOL0     N55886   9.455   4.470   7.705 -0.7843 -0.0555  0.0670
  424MOL0     N55887   9.465   4.594   7.748  0.4193 -0.0281  0.1286
  424MOL0     C55888  10.490   5.499   7.962 -0.8287 -0.6044 -0.2345
  424MOL0     C55889  10.610   5.549   7.928 -0.1082  0.0023 -0.3153
  424MOL0     C55890  10.997   5.598   7.711  0.4042  0.0429 -0.4018
  424MOL0     C55891  11.044   5.631   7.841 -0.2791  0.0903  0.3510
  424MOL0     C55892  11.174   5.652   7.874  0.0289 -0.1487 -0.1275
  424MOL0     C55893  11.273   5.628   7.771  0.7472  0.6885 -1.0504
  424MOL0     O55894  11.412   5.638   7.810 -0.7004 -0.2720  0.2984
  424MOL0     C55895  11.509   5.635   7.705 -0.4720  0.6759 -0.0243
  424MOL0     C55896  11.646   5.675   7.761 -0.2468  0.6452 -0.2611
  424MOL0     C55897  11.689   5.581   7.876 -0.0091  0.4009 -0.4286
  424MOL0     C55898  11.630   5.615   8.009 -0.6771 -0.1105  0.0417
  424MOL0     C55899  11.710   5.548   8.114 -0.2871 -0.3627 -0.2394
  424MOL0     C55900  11.786   5.495   8.191  0.5962  0.1110 -0.2567
  424MOL0     C55901  11.230   5.589   7.646 -0.6388 -0.2335  0.0663
  424MOL0     C55902  11.098   5.578   7.619 -0.3391  0.2594  1.1502
  424MOL0     H55903  10.578   5.521   7.584 -0.6414  2.2435 -0.6420
  424MOL0     H55904  10.359   5.452   7.656  2.0947  1.3514 -2.9589
  424MOL0     H55905  10.248   5.266   7.754  2.0374  1.2139  1.5774
  424MOL0     H55906  10.132   5.405   7.780  1.2598  0.9289 -0.2006
  424MOL0     H55907  10.060   5.299   7.983 -1.1563  0.3477 -1.9168
  424MOL0     H55908  10.180   5.169   7.978  1.1414 -0.7706 -0.5476
  424MOL0     H55909  10.085   5.075   7.769  0.4779  0.4713 -0.8342
  424MOL0     H55910   9.964   5.206   7.761  1.2091 -0.1251 -0.5514
  424MOL0     H55911   9.965   5.025   8.006  0.9024 -1.1836 -1.4080
  424MOL0     H55912   9.847   5.148   7.954  1.7461  1.3645  1.9240
  424MOL0     H55913   9.924   4.879   7.822  0.5017  0.3311  1.4826
  424MOL0     H55914   9.803   4.980   7.757  0.6199 -2.7108 -1.1537
  424MOL0     H55915   9.666   4.938   7.962  0.5503 -1.1380  3.1039
  424MOL0     H55916   9.807   4.863   8.041 -0.0273 -3.3779 -1.1560
  424MOL0     H55917   9.792   4.680   7.911  0.7296  0.0776 -1.1280
  424MOL0     H55918   9.626   4.714   7.968 -0.7037  1.1782  0.5146
  424MOL0     H55919   9.720   4.793   7.689  0.4590  1.9601  2.1664
  424MOL0     H55920   9.558   4.828   7.765 -0.3492  0.5638  0.5965
  424MOL0     H55921   9.760   4.532   7.615 -1.2316 -1.9117 -5.7623
  424MOL0     H55922   9.621   4.259   7.516 -0.8416 -2.7538  0.1937
  424MOL0     H55923   9.497   4.218   7.621  1.0204 -1.6551 -0.6364
  424MOL0     H55924   9.667   4.233   7.818 -0.4243  0.5866 -0.3527
  424MOL0     H55925   9.784   4.264   7.690 -0.7130  0.4303 -2.6908
  424MOL0     H55926   9.603   4.033   7.668  0.0582  1.3114 -3.3822
  424MOL0     H55927   9.773   4.047   7.602 -1.3457  1.2823 -1.3471
  424MOL0     H55928   9.694   4.005   7.891 -2.0272 -1.3310  0.4301
  424MOL0     H55929   9.859   4.023   7.817 -0.5308  3.0143  0.0991
  424MOL0     H55930   9.768   3.823   8.028 -0.3585  1.3778 -0.4658
  424MOL0     H55931   9.976   3.712   8.146  1.0579  1.9754 -0.3659
  424MOL0     H55932  10.410   3.669   8.215 -0.2069 -0.3381 -3.7333
  424MOL0     H55933  10.598   3.555   8.311 -1.2573 -0.2492  2.1578
  424MOL0     H55934  10.582   3.104   8.337  2.1139 -1.5571  0.1709
  424MOL0     H55935  10.534   3.153   8.494 -0.8145  2.3495 -0.7044
  424MOL0     H55936  10.754   3.029   8.464 -3.5684 -0.9775 -0.2346
  424MOL0     H55937  10.770   3.177   8.563 -2.7028 -2.6600  1.1679
  424MOL0     H55938  10.893   3.283   8.401  0.1123  0.8282 -0.4951
  424MOL0     H55939  10.817   3.178   8.276 -0.1417 -0.3310  0.4918
  424MOL0     H55940  10.947   2.992   8.340 -2.4004  0.1498  0.6560
  424MOL0     H55941  11.059   3.135   8.311 -1.3827  0.9139 -0.2996
  424MOL0     H55942  10.964   2.997   8.557 -0.8750  1.1288 -0.4300
  424MOL0     H55943  11.038   3.160   8.560  0.2826  0.8247 -0.0241
  424MOL0     H55944  11.250   3.085   8.460  2.4472 -0.9614  2.2186
  424MOL0     H55945  11.191   2.920   8.452  0.1841  0.2855  0.1671
  424MOL0     H55946  11.222   3.095   8.696  0.2296  0.7728 -1.9718
  424MOL0     H55947  11.162   2.920   8.701  2.4827 -2.4505 -0.2939
  424MOL0     H55948  11.411   2.943   8.752 -1.2171 -0.9692  0.8417
  424MOL0     H55949  11.426   2.979   8.572  1.3583  0.8907  1.0501
  424MOL0     H55950  10.359   3.203   8.333 -1.1307  0.7014  1.5592
  424MOL0     H55951  10.154   3.326   8.232  0.9692 -2.4744 -0.2814
  424MOL0     H55952  10.071   3.552   7.752 -1.7173  1.1877 -0.4367
  424MOL0     H55953   9.901   3.681   7.653 -0.6386 -0.1887 -0.7849
  424MOL0     H55954  10.459   5.504   8.066 -0.3098  0.4819 -0.1173
  424MOL0     H55955  10.676   5.572   8.011 -1.9684 -1.1627  1.5875
  424MOL0     H55956  10.965   5.640   7.915  0.1499  0.6800  0.7427
  424MOL0     H55957  11.195   5.691   7.972 -2.9765 -1.6029  1.2411
  424MOL0     H55958  11.487   5.708   7.626 -1.9822 -0.6005 -0.8406
  424MOL0     H55959  11.506   5.536   7.659  1.1336 -1.6182  4.2705
  424MOL0     H55960  11.721   5.677   7.681 -0.9637 -0.9689 -1.0079
  424MOL0     H55961  11.633   5.777   7.798 -3.2742 -0.0583  0.8458
  424MOL0     H55962  11.796   5.591   7.899 -0.1255  1.3214 -0.2397
  424MOL0     H55963  11.678   5.475   7.852  0.3870  0.2581  0.0129
  424MOL0     H55964  11.626   5.720   8.040  0.0059 -0.5282  1.6797
  424MOL0     H55965  11.530   5.571   8.017  0.0553 -1.7130  1.1112
  424MOL0     H55966  11.859   5.444   8.251  0.6244 -0.1826 -0.5364
  424MOL0     H55967  11.294   5.559   7.564  0.4436  0.1266  0.7523
  424MOL0     H55968  11.073   5.545   7.518 -1.2509  0.9582  1.1312
  425MOL0     O55969   5.053   1.737   8.539  0.0776  0.2723 -0.0223
  425MOL0     C55970   5.021   1.767   8.656  0.0288  0.9657  0.6747
  425MOL0     O55971   5.043   1.682   8.760 -0.5828 -0.0589 -0.0705
  425MOL0     C55972   5.135   1.582   8.751  0.4508 -0.1342 -0.2495
  425MOL0     C55973   5.098   1.468   8.692  0.1573  0.0774 -0.2966
  425MOL0     C55974   5.178   1.356   8.706  0.4461 -0.8166 -0.8938
  425MOL0     C55975   5.295   1.356   8.778  0.0760  0.1824 -0.1197
  425MOL0     O55976   5.365   1.238   8.782  0.0475 -0.5520  0.5935
  425MOL0     C55977   5.428   1.213   8.902  0.1554  0.8424 -0.9549
  425MOL0     C55978   5.436   1.059   8.935  0.2200 -0.4437  0.1849
  425MOL0     C55979   5.308   0.987   8.978 -0.0169 -0.0211  0.8325
  425MOL0     C55980   5.323   0.840   9.002  0.2846  1.0543 -0.5218
  425MOL0     C55981   5.184   0.782   9.010 -0.1967  0.7936  0.1991
  425MOL0     C55982   5.176   0.643   9.073 -0.3744  0.4365  0.3709
  425MOL0     C55983   5.028   0.603   9.072 -0.3134  0.5183  0.8145
  425MOL0     C55984   4.961   0.569   8.941 -0.5021  0.1621  0.0610
  425MOL0     N55985   5.018   0.446   8.886 -0.6984  0.4076  0.3687
  425MOL0     C55986   4.996   0.320   8.946  0.1920  0.2885 -0.1988
  425MOL0     C55987   5.085   0.239   8.887 -0.4069  0.1943  0.3452
  425MOL0     C55988   5.103   0.092   8.920  0.3420  0.1482 -1.1872
  425MOL0     C55989   4.979   0.008   8.901  0.3252 -0.2849 -0.5304
  425MOL0     C55990   4.976  -0.030   8.756  0.8953  0.0826  0.0123
  425MOL0     C55991   4.847  -0.110   8.731 -0.5955 -0.4906  0.4489
  425MOL0     O55992   4.752  -0.021   8.704 -0.1465  0.2032 -0.3195
  425MOL0     C55993   4.630  -0.059   8.677 -0.0427  0.4588 -0.7424
  425MOL0     C55994   4.588  -0.184   8.634  0.5339  1.0395 -0.4833
  425MOL0     C55995   4.457  -0.207   8.604  0.3036  0.8037 -0.1126
  425MOL0     C55996   4.359  -0.110   8.626 -0.4837 -0.3857  0.4200
  425MOL0     C55997   4.212  -0.143   8.605  0.1479  0.1536  0.0022
  425MOL0     O55998   4.119  -0.045   8.643  0.1313  0.4253  0.3288
  425MOL0     C55999   3.984  -0.066   8.663 -0.1095  0.0191 -0.0379
  425MOL0     C56000   3.915  -0.187   8.674 -0.7087 -0.6066 -0.1125
  425MOL0     C56001   3.785  -0.191   8.731  0.4189 -0.2372  0.2271
  425MOL0     C56002   3.723  -0.076   8.763 -0.1692  0.3725 -0.2113
  425MOL0     O56003   3.600  -0.086   8.811  0.4189 -0.3755 -1.2018
  425MOL0     C56004   3.512  -0.194   8.769 -0.1135  0.3302 -0.6996
  425MOL0     C56005   3.367  -0.152   8.786 -0.3241 -1.2182  0.6771
  425MOL0     C56006   3.280  -0.278   8.768  0.4223  0.2782  0.2452
  425MOL0     C56007   3.141  -0.246   8.820  0.5005  0.0983  1.2479
  425MOL0     C56008   3.026  -0.332   8.749 -0.3350 -0.6582 -0.5031
  425MOL0     C56009   2.895  -0.293   8.820 -0.8296  0.5726  0.1552
  425MOL0     C56010   2.784  -0.376   8.749  0.3444 -0.2499  0.2092
  425MOL0     C56011   2.751  -0.498   8.826  0.4623 -1.2539 -0.1412
  425MOL0    Cl56012   2.618  -0.564   8.740 -0.1656 -0.0282  0.2290
  425MOL0     C56013   3.792   0.046   8.747  0.5728  0.0671 -0.8133
  425MOL0     C56014   3.922   0.050   8.699 -0.4376  0.6589  0.7472
  425MOL0     O56015   4.184  -0.254   8.558  0.3547 -0.1177  0.0408
  425MOL0     C56016   4.405   0.016   8.662  0.0498 -0.2160 -0.5732
  425MOL0     C56017   4.542   0.043   8.688  0.9635  0.4777 -1.0673
  425MOL0     N56018   5.161   0.316   8.802  0.3066 -1.4027  0.7227
  425MOL0     N56019   5.122   0.439   8.797 -0.2035 -0.5969  1.0023
  425MOL0     C56020   5.339   1.475   8.835  0.7391  0.3669 -0.2855
  425MOL0     C56021   5.248   1.585   8.829 -0.7044  0.2893  0.0492
  425MOL0     C56022   4.954   1.892   8.671 -0.3084 -0.5721 -1.1798
  425MOL0     C56023   4.924   1.941   8.804  0.1728  0.0393 -0.8058
  425MOL0     C56024   4.859   2.062   8.821  0.3624 -0.5738  0.0123
  425MOL0     C56025   4.817   2.136   8.714  1.0136 -1.0421 -0.1477
  425MOL0     O56026   4.746   2.251   8.749 -0.4835  1.1729 -0.8121
  425MOL0     C56027   4.655   2.293   8.644 -0.2519 -0.8513 -0.1428
  425MOL0     C56028   4.564   2.404   8.709  0.2404  0.3361  0.3250
  425MOL0     C56029   4.483   2.474   8.596  0.8040  0.6888 -0.2102
  425MOL0     C56030   4.413   2.595   8.650 -1.2966  0.4548 -0.1968
  425MOL0     C56031   4.341   2.669   8.544 -0.1875 -0.0875  0.5051
  425MOL0     C56032   4.283   2.729   8.454  0.0230 -0.4622 -0.0936
  425MOL0     C56033   4.841   2.089   8.589  1.1189 -0.2544  0.2370
  425MOL0     C56034   4.917   1.972   8.567  0.0744  0.7548 -0.7473
  425MOL0     H56035   5.006   1.473   8.634 -0.4488  2.0691  0.7158
  425MOL0     H56036   5.148   1.265   8.654 -1.1427 -0.9598  0.2141
  425MOL0     H56037   5.385   1.266   8.988  0.1586 -0.3983 -0.1774
  425MOL0     H56038   5.528   1.253   8.883  0.0151  0.7062 -2.0588
  425MOL0     H56039   5.509   1.055   9.016 -0.6452 -3.0455  0.9603
  425MOL0     H56040   5.491   1.023   8.847  2.6623  0.6738  1.1546
  425MOL0     H56041   5.226   1.009   8.909 -0.3477 -1.9149  0.5611
  425MOL0     H56042   5.277   1.026   9.076 -0.0072  2.0738  0.0434
  425MOL0     H56043   5.381   0.797   8.919  1.6800 -0.2022  1.0469
  425MOL0     H56044   5.385   0.821   9.090 -0.3066  2.1764  0.1623
  425MOL0     H56045   5.132   0.796   8.915 -1.7509 -0.3464  0.8440
  425MOL0     H56046   5.122   0.842   9.077 -2.1216 -0.9114  0.0366
  425MOL0     H56047   5.223   0.648   9.171  1.5281 -3.7112 -0.0897
  425MOL0     H56048   5.227   0.575   9.004  1.2686  2.3086 -0.3655
  425MOL0     H56049   5.023   0.517   9.139  2.1034 -0.4129 -0.0937
  425MOL0     H56050   4.969   0.684   9.114  2.8051  3.4495 -0.0014
  425MOL0     H56051   4.969   0.644   8.863 -0.4382  1.4918  1.3013
  425MOL0     H56052   4.854   0.556   8.959 -0.8527 -3.0627 -3.1649
  425MOL0     H56053   4.916   0.289   9.014 -1.1460 -0.3546 -1.9992
  425MOL0     H56054   5.117   0.092   9.028 -1.0790  0.8801 -0.9801
  425MOL0     H56055   5.194   0.050   8.876 -0.6804 -3.0506 -0.5336
  425MOL0     H56056   4.891   0.068   8.928  0.7912  1.2614 -2.2725
  425MOL0     H56057   4.987  -0.088   8.955  0.0544  0.5392  1.0298
  425MOL0     H56058   4.971   0.065   8.701 -3.0921  1.7754  2.7271
  425MOL0     H56059   5.053  -0.100   8.724 -0.3342 -0.9438 -0.7840
  425MOL0     H56060   4.822  -0.170   8.818 -2.3308  2.3579  2.0862
  425MOL0     H56061   4.864  -0.172   8.642  0.7752 -1.3657  1.2946
  425MOL0     H56062   4.662  -0.262   8.620 -0.5318  0.2876 -2.1329
  425MOL0     H56063   4.430  -0.304   8.563  1.0335  0.9562 -0.9877
  425MOL0     H56064   3.967  -0.282   8.664  4.0216  1.8664 -2.1809
  425MOL0     H56065   3.741  -0.291   8.738  0.3928 -0.4291 -2.0427
  425MOL0     H56066   3.544  -0.292   8.808 -0.4836 -1.4480 -4.3990
  425MOL0     H56067   3.525  -0.221   8.664 -1.3514 -1.1530 -0.5081
  425MOL0     H56068   3.342  -0.081   8.707  0.4290 -1.7006 -0.0242
  425MOL0     H56069   3.346  -0.100   8.880 -3.0188  2.0130 -1.4884
  425MOL0     H56070   3.319  -0.356   8.834 -0.6336  1.6035  2.5712
  425MOL0     H56071   3.264  -0.309   8.664  1.2653  1.4194 -0.2445
  425MOL0     H56072   3.132  -0.275   8.925 -2.1132 -1.5517  0.6535
  425MOL0     H56073   3.122  -0.138   8.810  2.4595  0.5166  1.5846
  425MOL0     H56074   3.059  -0.436   8.743  0.5652 -0.3549 -1.1430
  425MOL0     H56075   3.020  -0.301   8.644 -0.3733 -0.9410 -0.5856
  425MOL0     H56076   2.886  -0.189   8.788  0.1409  0.1165 -1.7549
  425MOL0     H56077   2.908  -0.304   8.928  0.9416 -1.5222 -0.2046
  425MOL0     H56078   2.693  -0.316   8.739  0.8690  0.1687 -2.9959
  425MOL0     H56079   2.822  -0.405   8.651  0.4645  0.9420 -0.1130
  425MOL0     H56080   2.722  -0.464   8.927  1.5989  1.3980 -0.6064
  425MOL0     H56081   2.833  -0.570   8.823 -1.6476 -3.7358 -1.2033
  425MOL0     H56082   3.752   0.142   8.781  1.8885  0.2026  0.4374
  425MOL0     H56083   3.967   0.148   8.690  1.2759 -0.2011 -0.6982
  425MOL0     H56084   4.336   0.096   8.685  0.0880 -0.2535 -0.3265
  425MOL0     H56085   4.575   0.143   8.714 -1.2335  1.0797 -0.3985
  425MOL0     H56086   5.418   1.472   8.910 -0.5731 -1.7749  1.0992
  425MOL0     H56087   5.271   1.668   8.895  2.6297 -3.3322  4.1544
  425MOL0     H56088   4.949   1.879   8.890  2.9287  2.7493  0.5196
  425MOL0     H56089   4.835   2.098   8.921 -0.7688 -0.2111 -0.3867
  425MOL0     H56090   4.585   2.211   8.627  0.6524 -2.0944  1.7872
  425MOL0     H56091   4.709   2.333   8.558  0.2351  0.6264  0.7964
  425MOL0     H56092   4.490   2.355   8.773 -1.1858 -0.7332 -2.0148
  425MOL0     H56093   4.621   2.485   8.755  0.8371  0.9209 -1.3691
  425MOL0     H56094   4.411   2.403   8.556  1.9665  0.2351 -1.5667
  425MOL0     H56095   4.550   2.510   8.517  1.5221 -0.2359 -0.0375
  425MOL0     H56096   4.345   2.567   8.730 -2.1109 -1.5273 -1.5156
  425MOL0     H56097   4.485   2.666   8.693  0.6361 -1.3031 -0.3896
  425MOL0     H56098   4.221   2.780   8.384 -3.9569 -1.5577  2.3471
  425MOL0     H56099   4.809   2.143   8.500 -0.3427 -1.0910  0.2279
  425MOL0     H56100   4.930   1.947   8.463  0.5777  3.8078 -1.5209
  426MOL0     O56101   0.219   5.516   4.520 -0.5688  0.2934  0.5609
  426MOL0     C56102   0.218   5.627   4.565  0.3790 -0.2373 -0.0966
  426MOL0     O56103   0.104   5.697   4.589  0.4572  0.3848  0.3650
  426MOL0     C56104  -0.016   5.649   4.552  0.2315  0.0740 -0.4844
  426MOL0     C56105  -0.100   5.578   4.647  0.1612 -0.6112  0.7315
  426MOL0     C56106  -0.229   5.540   4.604 -0.4338  0.1081  0.5550
  426MOL0     C56107  -0.281   5.589   4.485 -0.2505  0.2050 -0.2656
  426MOL0     O56108  -0.417   5.572   4.474 -0.2966  0.1066 -0.0289
  426MOL0     C56109  -0.479   5.597   4.352 -0.1064 -0.5050 -0.1680
  426MOL0     C56110  -0.610   5.530   4.353  0.3411 -1.4506  0.1842
  426MOL0     C56111  -0.704   5.590   4.461 -0.1449 -0.0239  0.2888
  426MOL0     C56112  -0.856   5.589   4.425 -0.2563 -0.4451  0.1841
  426MOL0     C56113  -0.897   5.444   4.441  0.5847 -0.4665 -1.1181
  426MOL0     C56114  -1.052   5.438   4.468 -0.5341  0.5862  0.1275
  426MOL0     C56115  -1.109   5.297   4.444 -0.0273 -0.7260 -0.2065
  426MOL0     C56116  -1.073   5.194   4.551 -0.1622  0.1800 -0.3979
  426MOL0     N56117  -1.147   5.218   4.677  0.4138  0.0647  0.0624
  426MOL0     C56118  -1.274   5.243   4.688  1.0651 -0.5659 -0.0332
  426MOL0     C56119  -1.293   5.258   4.820  0.0365  0.1402 -0.0407
  426MOL0     C56120  -1.411   5.290   4.926  0.1577 -0.8097  0.1953
  426MOL0     C56121  -1.476   5.164   4.964  0.0055  0.6218 -0.1327
  426MOL0     C56122  -1.571   5.194   5.091 -0.0816  0.1941 -0.7351
  426MOL0     C56123  -1.719   5.148   5.059 -1.1205 -0.0890  0.3843
  426MOL0     O56124  -1.784   5.162   5.181 -0.4607 -0.3732  0.1867
  426MOL0     C56125  -1.920   5.147   5.177  0.5868  0.2821  0.3265
  426MOL0     C56126  -1.987   5.180   5.300 -0.7164 -0.0142  0.4369
  426MOL0     C56127  -2.120   5.174   5.308 -0.3376  0.9319  0.0217
  426MOL0     C56128  -2.196   5.132   5.194 -0.1261 -0.3393 -0.5284
  426MOL0     C56129  -2.344   5.119   5.204  0.0239  0.2674 -0.5877
  426MOL0     O56130  -2.415   5.136   5.089  0.9889  0.6317 -0.5168
  426MOL0     C56131  -2.552   5.147   5.089 -0.1268 -0.1323 -0.0708
  426MOL0     C56132  -2.624   5.098   4.977  0.1531 -0.5883 -0.2066
  426MOL0     C56133  -2.759   5.116   4.971 -0.2334  0.0873  0.1922
  426MOL0     C56134  -2.833   5.183   5.066 -0.2435  0.3920 -0.7758
  426MOL0     O56135  -2.971   5.173   5.064 -0.0011 -0.1237 -0.0082
  426MOL0     C56136  -3.041   5.115   4.956 -0.5160 -0.4071  0.9269
  426MOL0     C56137  -3.187   5.126   4.971  0.2150 -0.1865  0.1736
  426MOL0     C56138  -3.254   5.264   4.974 -0.8205  0.8279 -0.1224
  426MOL0     C56139  -3.404   5.274   5.014  0.6782 -0.4760 -0.1503
  426MOL0     C56140  -3.453   5.414   5.039 -0.6019 -0.7408 -0.2414
  426MOL0     C56141  -3.448   5.510   4.917  0.3991  0.5203  0.1279
  426MOL0     C56142  -3.502   5.646   4.941 -0.9274  0.2546 -0.1684
  426MOL0     C56143  -3.643   5.666   4.980  0.2687  0.6479 -0.0182
  426MOL0    Cl56144  -3.691   5.828   4.969  0.0073  0.0651 -0.0841
  426MOL0     C56145  -2.763   5.234   5.168  0.0463  0.1291  0.8776
  426MOL0     C56146  -2.625   5.224   5.177 -0.9477 -0.1425 -0.0315
  426MOL0     O56147  -2.387   5.103   5.324  0.0000 -0.8350  0.1779
  426MOL0     C56148  -2.130   5.091   5.076  0.2318  0.1558 -0.7684
  426MOL0     C56149  -1.991   5.100   5.061 -0.4989 -0.4741 -0.6435
  426MOL0     N56150  -1.171   5.254   4.887  0.5381 -0.3558 -0.1881
  426MOL0     N56151  -1.084   5.240   4.801  0.0423 -0.5822  0.2608
  426MOL0     C56152  -0.200   5.661   4.399  0.2419 -0.7560 -0.5066
  426MOL0     C56153  -0.072   5.695   4.430 -0.3050 -0.6847 -0.5998
  426MOL0     C56154   0.352   5.666   4.632  0.8498  1.2864  0.3767
  426MOL0     C56155   0.468   5.633   4.562 -0.0972  0.1932 -0.1444
  426MOL0     C56156   0.594   5.657   4.615  0.0930  0.2567  0.1573
  426MOL0     C56157   0.605   5.707   4.750  0.8821  0.2456 -0.3420
  426MOL0     O56158   0.719   5.735   4.816  0.5353 -0.1499  0.3423
  426MOL0     C56159   0.820   5.779   4.736  0.3057  0.2680  0.3532
  426MOL0     C56160   0.907   5.839   4.834 -0.1813 -0.1432 -0.6572
  426MOL0     C56161   1.016   5.916   4.770 -0.9847  0.0062  0.0751
  426MOL0     C56162   1.123   5.939   4.875  0.3657  0.5946  0.3007
  426MOL0     C56163   1.242   5.988   4.802  0.0333  0.2770  0.5642
  426MOL0     C56164   1.339   6.041   4.751  0.1886  0.3688  0.3867
  426MOL0     C56165   0.486   5.737   4.822 -0.3425 -0.1292  0.2827
  426MOL0     C56166   0.365   5.719   4.763 -0.3947  0.2576  0.0722
  426MOL0     H56167  -0.062   5.560   4.747  0.7672 -1.6327  0.3299
  426MOL0     H56168  -0.281   5.474   4.673  1.7342  0.1210  2.3279
  426MOL0     H56169  -0.426   5.560   4.264  0.2379 -0.6699  0.1092
  426MOL0     H56170  -0.496   5.704   4.335 -1.3851 -0.5199  0.8939
  426MOL0     H56171  -0.597   5.422   4.370 -2.8033 -1.7620  1.3657
  426MOL0     H56172  -0.669   5.537   4.262  0.1855 -2.6930  0.1697
  426MOL0     H56173  -0.690   5.698   4.472 -0.2291  0.1988 -1.4403
  426MOL0     H56174  -0.686   5.551   4.562 -2.3243 -1.8880  0.0355
  426MOL0     H56175  -0.917   5.636   4.504  0.1336 -4.7925  3.4446
  426MOL0     H56176  -0.870   5.636   4.328  1.5852  1.9748  0.9865
  426MOL0     H56177  -0.843   5.388   4.518 -0.7868 -2.9205 -1.8206
  426MOL0     H56178  -0.872   5.396   4.346  0.9591  0.8560 -1.7155
  426MOL0     H56179  -1.105   5.501   4.396  0.2291 -0.8791 -1.7938
  426MOL0     H56180  -1.062   5.465   4.573 -0.5379  0.5909  0.1255
  426MOL0     H56181  -1.217   5.309   4.432  0.3775  1.3390 -2.4080
  426MOL0     H56182  -1.075   5.263   4.345 -0.7463  0.4938 -0.8896
  426MOL0     H56183  -0.965   5.210   4.559  0.0757 -1.3096 -0.3782
  426MOL0     H56184  -1.087   5.094   4.509  0.3020 -0.1842  0.2946
  426MOL0     H56185  -1.350   5.251   4.611  0.6747 -0.7086  0.3323
  426MOL0     H56186  -1.489   5.348   4.876  0.8630  0.2821  0.3196
  426MOL0     H56187  -1.375   5.345   5.014 -3.6962 -1.6227  2.5243
  426MOL0     H56188  -1.395   5.097   4.993 -1.7537 -1.0634  1.1260
  426MOL0     H56189  -1.528   5.123   4.877  0.4367  0.5053 -0.3410
  426MOL0     H56190  -1.531   5.147   5.181 -1.3092  2.4738  1.1281
  426MOL0     H56191  -1.575   5.301   5.113  0.7163  0.0672  0.0544
  426MOL0     H56192  -1.725   5.041   5.041 -1.9243  0.3189 -2.1539
  426MOL0     H56193  -1.749   5.201   4.968  1.2252  0.8470  0.0817
  426MOL0     H56194  -1.917   5.198   5.381 -1.6848  2.5232  0.8056
  426MOL0     H56195  -2.174   5.212   5.394 -2.1054  0.1986 -0.7197
  426MOL0     H56196  -2.578   5.039   4.897  0.2348  0.6697 -1.1261
  426MOL0     H56197  -2.804   5.066   4.886 -0.7483 -1.3840  1.2725
  426MOL0     H56198  -3.012   5.011   4.935 -0.5980 -0.2931  0.2108
  426MOL0     H56199  -3.012   5.173   4.867  1.0842 -3.0765 -0.4405
  426MOL0     H56200  -3.202   5.075   5.066 -0.6586 -0.2818 -0.0060
  426MOL0     H56201  -3.251   5.065   4.906 -2.8391 -0.5984  3.2567
  426MOL0     H56202  -3.239   5.306   4.874  3.1535 -0.9035 -0.4479
  426MOL0     H56203  -3.211   5.320   5.057  0.0369  0.1414 -0.0897
  426MOL0     H56204  -3.467   5.230   4.936 -1.7722 -2.0649  2.5131
  426MOL0     H56205  -3.434   5.219   5.104 -0.0303  0.5231  0.2341
  426MOL0     H56206  -3.400   5.473   5.114 -0.7396  0.8662 -1.3507
  426MOL0     H56207  -3.557   5.413   5.072 -0.6850  1.1065 -0.3245
  426MOL0     H56208  -3.505   5.457   4.840  1.5431  0.9101 -1.0250
  426MOL0     H56209  -3.348   5.523   4.873  2.2623 -2.7724  2.8559
  426MOL0     H56210  -3.436   5.685   5.019  0.0977  0.3046 -1.0321
  426MOL0     H56211  -3.482   5.709   4.854 -0.6686  0.4244  0.0107
  426MOL0     H56212  -3.666   5.620   5.076 -0.5528  1.1644  0.0457
  426MOL0     H56213  -3.705   5.609   4.910 -2.6910  0.9071  2.2115
  426MOL0     H56214  -2.816   5.289   5.245 -0.2955 -2.0806  2.2952
  426MOL0     H56215  -2.575   5.261   5.266  2.3669 -1.1310 -1.3560
  426MOL0     H56216  -2.188   5.054   4.992 -1.7476  1.0098  0.1545
  426MOL0     H56217  -1.942   5.076   4.967  0.4783 -0.0671 -0.2503
  426MOL0     H56218  -0.245   5.698   4.308  2.3387 -2.4225 -2.3292
  426MOL0     H56219  -0.013   5.752   4.359 -3.3453  1.4256 -1.6145
  426MOL0     H56220   0.467   5.598   4.459  0.3375 -2.7726  0.7895
  426MOL0     H56221   0.678   5.648   4.547 -1.8995 -0.2696 -2.3766
  426MOL0     H56222   0.775   5.859   4.677  0.6680  0.3301  0.1582
  426MOL0     H56223   0.866   5.711   4.665  0.3041  2.4331 -1.8509
  426MOL0     H56224   0.842   5.894   4.903  0.2747  1.6060 -1.5806
  426MOL0     H56225   0.948   5.744   4.870 -0.6511  0.2611  1.0532
  426MOL0     H56226   0.980   6.010   4.727 -4.0023  0.3957  3.0241
  426MOL0     H56227   1.070   5.857   4.696 -1.4408  0.0738 -0.3139
  426MOL0     H56228   1.099   6.022   4.941 -1.4833  1.6733 -1.5890
  426MOL0     H56229   1.143   5.845   4.927  0.1493 -0.5024 -1.5009
  426MOL0     H56230   1.420   6.088   4.699 -0.5669  3.0859  1.5009
  426MOL0     H56231   0.478   5.782   4.921  1.4296 -1.8657  1.2803
  426MOL0     H56232   0.274   5.739   4.818 -1.1357  1.6052 -1.5556
  427MOL0     O56233  10.452   4.871   4.022 -0.1297 -0.3000  0.1518
  427MOL0     C56234  10.516   4.815   4.108  0.4672  0.2297 -0.0037
  427MOL0     O56235  10.466   4.753   4.214  0.4961  0.1912 -0.4548
  427MOL0     C56236  10.321   4.734   4.206 -0.6251 -0.3050  0.4072
  427MOL0     C56237  10.230   4.816   4.270  1.2406 -0.8209 -0.0726
  427MOL0     C56238  10.091   4.792   4.281  0.5060 -0.3336 -0.6472
  427MOL0     C56239  10.040   4.685   4.216  0.2756 -0.4025  0.0706
  427MOL0     O56240   9.907   4.650   4.230 -0.3901  0.3338 -1.1602
  427MOL0     C56241   9.813   4.752   4.209  0.1038  0.5177  0.3165
  427MOL0     C56242   9.695   4.676   4.150 -0.0079 -0.4633 -0.5540
  427MOL0     C56243   9.580   4.759   4.088  0.0638 -0.3686 -0.4448
  427MOL0     C56244   9.529   4.880   4.165  0.0633  0.1449 -0.4885
  427MOL0     C56245   9.415   4.954   4.091 -0.4272 -0.5931 -0.0772
  427MOL0     C56246   9.371   5.079   4.174 -0.5306 -0.3488  0.2395
  427MOL0     C56247   9.323   5.047   4.317 -0.1082 -0.1425  0.1397
  427MOL0     C56248   9.173   5.007   4.318  0.4845  0.4373 -0.2039
  427MOL0     N56249   9.075   5.099   4.270  0.1839 -0.6049 -0.4777
  427MOL0     C56250   9.034   5.208   4.343 -0.2289 -0.3265  0.2808
  427MOL0     C56251   8.958   5.289   4.258 -1.0963 -0.9694 -0.2765
  427MOL0     C56252   8.885   5.419   4.293 -0.1452 -0.2695 -0.4016
  427MOL0     C56253   8.735   5.406   4.261  0.7812  0.7136 -0.3978
  427MOL0     C56254   8.656   5.535   4.272 -1.0428  0.6822 -0.4403
  427MOL0     C56255   8.506   5.509   4.224  0.1080 -0.6872  0.9283
  427MOL0     O56256   8.442   5.420   4.309 -0.1866  0.4436  0.4170
  427MOL0     C56257   8.308   5.418   4.335  0.1932  1.1024 -0.4178
  427MOL0     C56258   8.209   5.482   4.254 -0.4311  0.3542 -0.7396
  427MOL0     C56259   8.076   5.495   4.305  1.1932  0.1329  0.0101
  427MOL0     C56260   8.035   5.446   4.438  0.0866 -0.5289  0.7011
  427MOL0     C56261   7.893   5.447   4.481 -0.4222  0.3452 -0.5721
  427MOL0     O56262   7.808   5.496   4.395  0.6073  0.0275  0.2426
  427MOL0     C56263   7.673   5.501   4.427 -0.3737  1.0566 -0.0943
  427MOL0     C56264   7.587   5.454   4.327  0.8680 -0.5043 -1.0598
  427MOL0     C56265   7.452   5.461   4.360 -0.2828  0.2565 -0.2696
  427MOL0     C56266   7.405   5.504   4.484 -0.2217 -0.7151 -0.7468
  427MOL0     O56267   7.268   5.517   4.503  0.4116 -0.2822  0.9636
  427MOL0     C56268   7.225   5.521   4.645  0.1465 -1.0875 -0.0539
  427MOL0     C56269   7.069   5.505   4.639 -0.2127  0.3438  0.3180
  427MOL0     C56270   7.007   5.632   4.579 -0.5632 -0.8361 -0.8586
  427MOL0     C56271   6.861   5.652   4.584  0.1493  0.2517  0.1919
  427MOL0     C56272   6.798   5.677   4.724  0.2607 -0.3174 -0.5321
  427MOL0     C56273   6.851   5.798   4.798  0.0138 -0.2089 -0.2233
  427MOL0     C56274   6.788   5.830   4.934 -0.6735  0.1236  0.3854
  427MOL0     C56275   6.829   5.960   4.985 -0.5545 -0.5066 -0.0003
  427MOL0    Cl56276   7.004   5.997   4.987 -0.1170 -0.0437 -0.1486
  427MOL0     C56277   7.500   5.547   4.575  0.0824 -0.4791 -0.2458
  427MOL0     C56278   7.635   5.557   4.545  0.1584  1.4115  0.4223
  427MOL0     O56279   7.864   5.395   4.587 -0.5877 -0.3628  0.5868
  427MOL0     C56280   8.139   5.382   4.510 -0.1487 -0.6764 -0.5231
  427MOL0     C56281   8.266   5.369   4.459  0.4371 -0.3373 -0.0480
  427MOL0     N56282   8.949   5.213   4.146 -0.2844  0.1456 -0.2720
  427MOL0     N56283   9.016   5.103   4.148  0.5024  0.2676 -0.0054
  427MOL0     C56284  10.133   4.591   4.145  0.2408 -0.3529 -0.1600
  427MOL0     C56285  10.263   4.626   4.141  0.0918  0.2964  0.0570
  427MOL0     C56286  10.659   4.843   4.096 -0.2409  0.8665  0.3748
  427MOL0     C56287  10.750   4.752   4.145  0.1748  0.7898 -0.4767
  427MOL0     C56288  10.888   4.768   4.128  0.2976 -0.2768  0.4192
  427MOL0     C56289  10.931   4.890   4.074 -0.6218 -0.4290 -0.0810
  427MOL0     O56290  11.071   4.899   4.058  0.5183 -0.5201 -0.0788
  427MOL0     C56291  11.117   5.041   4.042 -0.0963 -0.0708  0.6693
  427MOL0     C56292  11.269   5.051   4.022 -0.0163  0.2741  0.2527
  427MOL0     C56293  11.320   5.001   3.883  0.1660  0.5337 -0.6967
  427MOL0     C56294  11.470   5.009   3.881 -0.1078 -0.1936 -0.0856
  427MOL0     C56295  11.525   5.144   3.871  0.2119 -0.2565  0.3851
  427MOL0     C56296  11.586   5.248   3.851 -0.6616  0.1755  0.2348
  427MOL0     C56297  10.840   4.993   4.044  1.0217 -0.3746  0.6406
  427MOL0     C56298  10.704   4.973   4.058  0.0101  0.2712  1.1347
  427MOL0     H56299  10.268   4.909   4.310 -0.2771 -1.2335  2.5323
  427MOL0     H56300  10.032   4.867   4.332 -0.1822 -1.4241  0.2168
  427MOL0     H56301   9.850   4.822   4.133 -2.9330  2.2075  0.2515
  427MOL0     H56302   9.782   4.800   4.302 -0.3901 -1.1778  1.0643
  427MOL0     H56303   9.654   4.613   4.230 -1.4798  0.5559 -0.4677
  427MOL0     H56304   9.726   4.606   4.072 -4.2797  0.5497 -3.5721
  427MOL0     H56305   9.494   4.693   4.072  1.0613 -1.6373 -0.7381
  427MOL0     H56306   9.609   4.787   3.987 -1.3250  0.1272 -0.7204
  427MOL0     H56307   9.495   4.842   4.261 -1.4400  0.5068 -0.8625
  427MOL0     H56308   9.617   4.944   4.181 -1.0795  1.1379  2.5105
  427MOL0     H56309   9.326   4.892   4.073 -2.1135  2.0233 -1.3360
  427MOL0     H56310   9.452   4.970   3.989  3.2928 -1.0409  1.0621
  427MOL0     H56311   9.295   5.130   4.114  2.0659  1.1165 -2.0218
  427MOL0     H56312   9.451   5.152   4.183  0.7711 -1.8701  1.7347
  427MOL0     H56313   9.386   4.973   4.367  0.0198  1.4710  2.4860
  427MOL0     H56314   9.330   5.141   4.372  0.4833  0.5509 -1.0762
  427MOL0     H56315   9.137   4.979   4.418 -1.9219 -2.1085 -1.6196
  427MOL0     H56316   9.171   4.910   4.268  0.7504 -1.2306  2.7515
  427MOL0     H56317   9.049   5.210   4.450  0.2044 -3.7286  0.3990
  427MOL0     H56318   8.930   5.504   4.241 -1.3166  0.6589  0.0402
  427MOL0     H56319   8.897   5.425   4.401 -2.4755 -1.2897 -0.0222
  427MOL0     H56320   8.696   5.330   4.330  1.4058  2.4850  2.0299
  427MOL0     H56321   8.720   5.371   4.159 -1.7113 -1.2852  0.5271
  427MOL0     H56322   8.651   5.587   4.368 -0.0426 -0.3053  0.1710
  427MOL0     H56323   8.705   5.604   4.203 -0.8943  0.0381 -0.9994
  427MOL0     H56324   8.501   5.460   4.126 -0.3049 -0.9309  1.0670
  427MOL0     H56325   8.453   5.603   4.206  1.6301 -0.0044 -0.1941
  427MOL0     H56326   8.238   5.519   4.156  0.3604  0.7333 -0.3716
  427MOL0     H56327   7.997   5.524   4.237  0.8519 -1.0508 -0.1201
  427MOL0     H56328   7.609   5.396   4.239 -1.1140 -4.5722  0.8792
  427MOL0     H56329   7.383   5.439   4.279 -0.8988 -2.8341  0.9273
  427MOL0     H56330   7.252   5.614   4.696  0.1358 -1.3983  0.5307
  427MOL0     H56331   7.272   5.442   4.705 -0.2896 -1.2148  0.1195
  427MOL0     H56332   7.027   5.486   4.738  0.4707  1.5759  0.8685
  427MOL0     H56333   7.042   5.415   4.584 -3.6883  2.1985 -1.3411
  427MOL0     H56334   7.026   5.627   4.472  0.3084  0.4396 -0.7936
  427MOL0     H56335   7.062   5.717   4.621 -0.4490 -0.8396 -1.0006
  427MOL0     H56336   6.821   5.729   4.516 -4.3559 -2.5541 -0.7515
  427MOL0     H56337   6.818   5.559   4.547  2.1376 -0.5046 -0.3704
  427MOL0     H56338   6.809   5.592   4.791 -0.1564  0.8166  1.0477
  427MOL0     H56339   6.691   5.700   4.721  0.6619  2.0201  0.7231
  427MOL0     H56340   6.828   5.889   4.742 -4.0934 -0.1278  1.2593
  427MOL0     H56341   6.959   5.784   4.807  0.3967  2.2768 -0.1694
  427MOL0     H56342   6.681   5.820   4.914  0.1749 -1.2966 -4.9817
  427MOL0     H56343   6.809   5.752   5.008  0.2548 -0.2069 -0.2109
  427MOL0     H56344   6.793   5.965   5.088 -1.3962 -1.1357 -0.2621
  427MOL0     H56345   6.779   6.040   4.930  1.5086 -0.3059 -1.7222
  427MOL0     H56346   7.472   5.575   4.676  0.9019  1.4300 -0.4942
  427MOL0     H56347   7.696   5.604   4.621  1.2155 -2.4146  2.1844
  427MOL0     H56348   8.102   5.341   4.603 -1.7217 -0.8544 -1.1815
  427MOL0     H56349   8.339   5.320   4.523 -0.7970  0.1098  1.8129
  427MOL0     H56350  10.085   4.508   4.093 -0.1422 -0.6072  0.5768
  427MOL0     H56351  10.340   4.554   4.114  1.0181  1.0986  0.4868
  427MOL0     H56352  10.709   4.668   4.200 -1.9398  0.3596 -2.5340
  427MOL0     H56353  10.956   4.703   4.181 -0.0111 -1.2112 -0.2946
  427MOL0     H56354  11.091   5.102   4.129 -0.9840 -0.6380  0.8098
  427MOL0     H56355  11.069   5.078   3.951 -1.3336 -3.1267 -0.0312
  427MOL0     H56356  11.295   5.157   4.035  2.5005 -0.3378  0.8321
  427MOL0     H56357  11.317   4.985   4.095  2.0830 -1.6840 -2.6702
  427MOL0     H56358  11.262   5.055   3.808  1.5376 -0.0547 -2.2356
  427MOL0     H56359  11.290   4.896   3.870  1.2797  0.0605  0.3903
  427MOL0     H56360  11.514   4.959   3.968  2.3168  1.3246 -0.3619
  427MOL0     H56361  11.498   4.956   3.790 -1.8679 -1.2910 -0.0444
  427MOL0     H56362  11.660   5.323   3.831  0.7777 -1.5468 -1.3025
  427MOL0     H56363  10.871   5.083   3.990  3.1316 -0.8700  0.9352
  427MOL0     H56364  10.637   5.051   4.024 -1.0305 -1.6598 -1.6195
  428MOL0     O56365   4.116   7.985   1.920  0.4519 -0.2186 -0.2223
  428MOL0     C56366   4.137   8.090   1.986 -0.8839  0.2556 -0.3114
  428MOL0     O56367   4.044   8.178   2.033  0.3405 -0.1276 -0.0676
  428MOL0     C56368   3.912   8.135   2.047 -0.0584 -0.2531 -0.5421
  428MOL0     C56369   3.810   8.225   2.014  0.6209  0.1049 -0.3976
  428MOL0     C56370   3.674   8.184   2.019 -0.2839 -0.2757  0.2873
  428MOL0     C56371   3.631   8.062   2.057  0.5321  1.1119 -0.2093
  428MOL0     O56372   3.495   8.036   2.066 -0.0326 -0.2790 -0.6934
  428MOL0     C56373   3.456   7.901   2.043  0.2691  0.5468  0.1659
  428MOL0     C56374   3.315   7.895   1.972 -0.3303 -0.3215  0.1790
  428MOL0     C56375   3.278   8.000   1.872  0.0651  0.1680  0.0336
  428MOL0     C56376   3.173   7.936   1.771 -0.0135  0.6334  0.2180
  428MOL0     C56377   3.038   7.893   1.830  0.0332 -0.4202  1.2220
  428MOL0     C56378   2.941   7.870   1.708 -0.0396  0.7634  0.4863
  428MOL0     C56379   2.798   7.821   1.756  0.0301  1.0454 -0.1205
  428MOL0     C56380   2.715   7.774   1.638 -0.1656  0.4495 -0.2801
  428MOL0     N56381   2.778   7.649   1.579 -0.5964  0.2425  0.1839
  428MOL0     C56382   2.875   7.650   1.476  0.0286 -0.2465 -0.6081
  428MOL0     C56383   2.928   7.525   1.470  0.1623  0.5627  0.0586
  428MOL0     C56384   3.042   7.483   1.381 -0.1754  0.8992 -0.2327
  428MOL0     C56385   3.179   7.549   1.423  0.0232  1.0978  0.7886
  428MOL0     C56386   3.296   7.475   1.357  0.5011  0.0144 -0.7823
  428MOL0     C56387   3.421   7.550   1.393  0.2135  0.1651  0.7113
  428MOL0     O56388   3.538   7.476   1.344  0.0170 -0.4210 -0.3253
  428MOL0     C56389   3.667   7.509   1.368 -0.2259  0.3736  0.0408
  428MOL0     C56390   3.703   7.634   1.430  0.0138  0.0066 -0.0630
  428MOL0     C56391   3.837   7.655   1.461  0.3046  0.2831 -0.1540
  428MOL0     C56392   3.940   7.561   1.425  0.9173  0.4414  0.4345
  428MOL0     C56393   4.079   7.586   1.442  0.0705  0.6620 -0.2416
  428MOL0     O56394   4.111   7.714   1.470  0.2281 -0.2628  0.3010
  428MOL0     C56395   4.243   7.745   1.485 -0.4358 -0.8118  0.5578
  428MOL0     C56396   4.318   7.786   1.375 -0.2846  1.0533 -0.1949
  428MOL0     C56397   4.455   7.810   1.385 -0.0535 -0.4382 -0.2279
  428MOL0     C56398   4.521   7.815   1.515 -1.1083  0.9416  0.4673
  428MOL0     O56399   4.650   7.847   1.535  0.1443  0.8476  0.0270
  428MOL0     C56400   4.729   7.735   1.575 -0.2775  0.5329 -0.4360
  428MOL0     C56401   4.880   7.771   1.550 -0.5741  0.6534  0.1806
  428MOL0     C56402   4.912   7.787   1.401  0.1916  0.3288  1.0284
  428MOL0     C56403   5.052   7.843   1.371 -1.0159 -0.3551 -0.5288
  428MOL0     C56404   5.055   7.877   1.221  0.3589 -0.4655  0.5065
  428MOL0     C56405   5.176   7.941   1.170 -0.1375 -0.1653  0.0415
  428MOL0     C56406   5.301   7.863   1.208 -0.6588  0.5977  0.4960
  428MOL0     C56407   5.414   7.930   1.134  0.7696  0.2230  0.1229
  428MOL0    Cl56408   5.405   7.860   0.966  0.2342  0.2453  0.3912
  428MOL0     C56409   4.444   7.781   1.632 -0.6705 -0.5760  0.2811
  428MOL0     C56410   4.303   7.736   1.612 -0.2973 -0.8410 -1.0279
  428MOL0     O56411   4.158   7.497   1.419 -0.5041  0.0168 -0.3496
  428MOL0     C56412   3.894   7.436   1.369  0.7306 -0.4228 -0.5237
  428MOL0     C56413   3.760   7.414   1.348  0.0637  0.4765  0.2231
  428MOL0     N56414   2.876   7.451   1.567  0.3266  0.6958  0.4037
  428MOL0     N56415   2.783   7.519   1.634  0.4333 -0.4332  0.4607
  428MOL0     C56416   3.731   7.979   2.110 -0.0692  0.8030  0.1949
  428MOL0     C56417   3.869   8.012   2.096 -0.5887 -0.2902 -0.8087
  428MOL0     C56418   4.277   8.125   1.993 -0.2923 -0.1740 -0.5023
  428MOL0     C56419   4.377   8.033   1.968 -0.4540 -0.5684  0.4093
  428MOL0     C56420   4.516   8.072   1.967 -0.0112  0.3788 -0.2057
  428MOL0     C56421   4.555   8.193   2.022 -0.1275  0.5712  0.6553
  428MOL0     O56422   4.687   8.212   2.049 -1.0995 -0.5511  0.1373
  428MOL0     C56423   4.801   8.145   1.980  0.1831  0.4256  0.7623
  428MOL0     C56424   4.922   8.235   1.984 -0.1469 -0.9504 -0.8472
  428MOL0     C56425   4.976   8.235   2.130  0.4559  0.4478 -0.8013
  428MOL0     C56426   5.088   8.332   2.161 -0.9808 -0.6432  0.3690
  428MOL0     C56427   5.219   8.274   2.124 -0.1131 -0.0003 -0.0033
  428MOL0     C56428   5.330   8.221   2.110  0.1368  1.2469 -0.8009
  428MOL0     C56429   4.458   8.278   2.057 -0.3439 -0.0859 -0.1910
  428MOL0     C56430   4.320   8.255   2.037  0.9407  0.2052  0.0802
  428MOL0     H56431   3.837   8.317   1.964  0.2141  0.2692 -0.3220
  428MOL0     H56432   3.597   8.251   1.984  0.0515 -0.3154 -0.5364
  428MOL0     H56433   3.442   7.847   2.137 -0.1608  2.0740  1.0078
  428MOL0     H56434   3.534   7.857   1.980  0.1758  0.0308  0.4099
  428MOL0     H56435   3.240   7.884   2.051  1.3099 -0.5387  1.7643
  428MOL0     H56436   3.312   7.796   1.926  2.0153  0.0908 -1.0217
  428MOL0     H56437   3.362   8.034   1.811 -2.0608  2.7798 -1.6964
  428MOL0     H56438   3.256   8.093   1.925  0.7742  0.8864 -0.8998
  428MOL0     H56439   3.148   8.011   1.696  0.5639  0.2655 -0.3521
  428MOL0     H56440   3.223   7.857   1.713 -0.5120 -0.5592  1.3474
  428MOL0     H56441   2.998   7.976   1.890 -3.8337 -0.7089 -0.6151
  428MOL0     H56442   3.050   7.809   1.899  2.1237 -1.2388 -0.0352
  428MOL0     H56443   2.992   7.794   1.648  0.0428 -0.2392  1.7832
  428MOL0     H56444   2.933   7.962   1.649  0.3443 -0.8965 -2.3026
  428MOL0     H56445   2.801   7.740   1.829 -2.3841  1.6231  0.6963
  428MOL0     H56446   2.755   7.908   1.806  2.4059  0.2716  3.6664
  428MOL0     H56447   2.710   7.858   1.567 -1.2807  1.8127  1.3182
  428MOL0     H56448   2.614   7.753   1.674  0.7484 -1.4471  1.3340
  428MOL0     H56449   2.913   7.739   1.427  1.3261  1.1618  2.6925
  428MOL0     H56450   3.018   7.504   1.276 -0.9250  2.0534  0.1455
  428MOL0     H56451   3.052   7.375   1.387  0.3645  1.0276  1.5713
  428MOL0     H56452   3.194   7.529   1.530  3.2054 -0.6365  0.1207
  428MOL0     H56453   3.178   7.656   1.401  0.4847  1.4384  2.3109
  428MOL0     H56454   3.303   7.379   1.408 -0.4534 -0.7043 -1.9659
  428MOL0     H56455   3.274   7.460   1.251 -1.8028 -3.3964  0.0211
  428MOL0     H56456   3.430   7.568   1.501 -1.3215 -1.1658  1.1063
  428MOL0     H56457   3.420   7.646   1.341  0.3160 -1.3468 -2.2926
  428MOL0     H56458   3.631   7.705   1.470 -1.6220 -0.9083 -1.2371
  428MOL0     H56459   3.862   7.746   1.516 -1.8933  2.3325 -2.3274
  428MOL0     H56460   4.263   7.785   1.281  2.1733 -1.0205 -1.7626
  428MOL0     H56461   4.516   7.830   1.297  3.2572  1.6084  2.2511
  428MOL0     H56462   4.707   7.648   1.513 -1.3466  1.2121 -1.0460
  428MOL0     H56463   4.706   7.712   1.679  0.3575  2.3659  0.1540
  428MOL0     H56464   4.943   7.689   1.586  0.2184  0.7527 -0.9301
  428MOL0     H56465   4.891   7.865   1.606 -1.4811 -1.1873  3.8019
  428MOL0     H56466   4.843   7.861   1.360 -0.6077 -1.6017 -1.4225
  428MOL0     H56467   4.907   7.695   1.341 -0.9787  1.1201 -0.1452
  428MOL0     H56468   5.062   7.939   1.422  1.1102 -0.4047 -0.7836
  428MOL0     H56469   5.131   7.773   1.399  0.4349  1.8051  1.0566
  428MOL0     H56470   4.984   7.957   1.197  1.3488 -0.0819 -1.4067
  428MOL0     H56471   5.032   7.793   1.155  3.8903 -0.6661 -0.6939
  428MOL0     H56472   5.182   8.040   1.216 -3.0637  0.2378 -0.2822
  428MOL0     H56473   5.163   7.956   1.063  0.0608 -3.2074 -0.5061
  428MOL0     H56474   5.335   7.871   1.311  1.3590  3.1510 -0.2636
  428MOL0     H56475   5.296   7.757   1.178 -1.1492  0.9625 -0.7740
  428MOL0     H56476   5.510   7.910   1.183  0.6361 -0.2309  0.1982
  428MOL0     H56477   5.403   8.039   1.131 -2.8243 -0.0221 -0.0846
  428MOL0     H56478   4.489   7.790   1.730  1.0941 -0.1586 -0.5338
  428MOL0     H56479   4.241   7.718   1.700 -1.5932  1.2775 -1.4221
  428MOL0     H56480   3.968   7.359   1.349  0.5547 -1.5240  2.5261
  428MOL0     H56481   3.736   7.317   1.305 -0.0360 -0.4697  2.2785
  428MOL0     H56482   3.698   7.882   2.145  1.3838  0.7684  1.5463
  428MOL0     H56483   3.944   7.941   2.129  2.0134  2.0566 -1.3865
  428MOL0     H56484   4.351   7.928   1.955 -1.8829 -0.3511  1.3504
  428MOL0     H56485   4.589   7.995   1.943 -1.2200 -0.3954 -1.6750
  428MOL0     H56486   4.777   8.125   1.875 -0.9849 -6.2245  1.8404
  428MOL0     H56487   4.813   8.048   2.029 -4.5998  0.2512  2.1375
  428MOL0     H56488   4.992   8.195   1.910  0.4163  0.5574 -1.1687
  428MOL0     H56489   4.902   8.339   1.957  2.5683  0.0857  0.7575
  428MOL0     H56490   5.016   8.134   2.146  3.0005  1.2018 -1.9667
  428MOL0     H56491   4.885   8.253   2.188  1.0771 -0.8751  0.6362
  428MOL0     H56492   5.085   8.431   2.115  2.1391  0.4248  2.1880
  428MOL0     H56493   5.096   8.352   2.268  1.6187 -1.3898  0.4013
  428MOL0     H56494   5.419   8.162   2.106  0.9346  2.2832  0.7803
  428MOL0     H56495   4.488   8.370   2.106  0.8575  0.7308 -2.3263
  428MOL0     H56496   4.247   8.334   2.052 -0.6901 -1.2206  0.0048
  429MOL0     O56497   6.749   2.357   5.683  0.5448  0.6275 -0.0734
  429MOL0     C56498   6.808   2.353   5.576  0.0932 -0.4183  0.3419
  429MOL0     O56499   6.749   2.358   5.452 -0.6810 -0.7581 -0.2789
  429MOL0     C56500   6.619   2.378   5.440  0.5841 -0.1281  0.0703
  429MOL0     C56501   6.536   2.263   5.432 -0.7053 -0.2022  0.3212
  429MOL0     C56502   6.401   2.280   5.409  0.6781  0.7238 -0.3685
  429MOL0     C56503   6.348   2.405   5.380 -0.1443 -0.5558  0.0102
  429MOL0     O56504   6.216   2.431   5.346 -0.2697  0.5829 -0.3402
  429MOL0     C56505   6.143   2.310   5.315  1.3885 -0.7745 -0.1615
  429MOL0     C56506   6.002   2.348   5.267  0.0248  0.0707  0.4101
  429MOL0     C56507   5.884   2.362   5.366 -1.1965 -0.7910 -0.2274
  429MOL0     C56508   5.904   2.492   5.447  0.4554  0.2810 -0.4878
  429MOL0     C56509   5.808   2.520   5.552 -0.0417  0.2971 -0.1910
  429MOL0     C56510   5.665   2.560   5.501 -0.4709 -0.6359  0.1835
  429MOL0     C56511   5.571   2.608   5.615 -0.3706 -0.1485 -0.5169
  429MOL0     C56512   5.421   2.591   5.579 -0.9502  0.0880  0.1696
  429MOL0     N56513   5.377   2.695   5.480 -0.8542  0.4237  0.1320
  429MOL0     C56514   5.365   2.830   5.498 -1.0326  0.7752 -0.3790
  429MOL0     C56515   5.309   2.876   5.386  0.6055 -0.7102 -0.6901
  429MOL0     C56516   5.265   3.023   5.363 -0.0083 -0.2741 -0.0140
  429MOL0     C56517   5.145   3.064   5.446  0.2116 -0.5803 -0.4356
  429MOL0     C56518   5.020   2.994   5.399  0.8379  0.7968 -0.6180
  429MOL0     C56519   4.891   3.031   5.468  0.0956  0.0247  0.1323
  429MOL0     O56520   4.884   2.979   5.600 -0.9112 -0.2161  0.9501
  429MOL0     C56521   4.766   2.989   5.676 -0.7694 -0.2090 -0.1732
  429MOL0     C56522   4.636   3.015   5.629  0.3415  0.0372  0.7483
  429MOL0     C56523   4.532   3.060   5.714 -0.5874  0.2639 -0.5743
  429MOL0     C56524   4.550   3.067   5.856 -0.3284 -0.0364  0.4341
  429MOL0     C56525   4.443   3.100   5.948 -0.0298  0.0163 -0.4782
  429MOL0     O56526   4.316   3.104   5.905  0.7788 -0.1091 -0.4495
  429MOL0     C56527   4.218   3.153   5.989 -0.3049  0.3870 -0.2967
  429MOL0     C56528   4.168   3.085   6.100 -0.4002 -0.1315 -0.1663
  429MOL0     C56529   4.073   3.146   6.175 -0.3115 -0.1730 -0.4461
  429MOL0     C56530   4.021   3.279   6.147 -0.5283  0.1419 -0.2228
  429MOL0     O56531   3.924   3.349   6.221 -0.5209  0.1166 -0.5989
  429MOL0     C56532   3.846   3.267   6.309  0.5500  0.0601 -0.1269
  429MOL0     C56533   3.761   3.367   6.382  0.2275 -0.2366 -0.0433
  429MOL0     C56534   3.681   3.309   6.498 -0.3229  0.5275  1.0841
  429MOL0     C56535   3.614   3.415   6.584 -0.1432  0.3098 -0.1103
  429MOL0     C56536   3.479   3.469   6.528  0.2205 -0.1077  0.1965
  429MOL0     C56537   3.434   3.591   6.617 -0.3637 -0.1234  0.2123
  429MOL0     C56538   3.289   3.627   6.587  0.9739  0.2388 -0.9268
  429MOL0     C56539   3.246   3.760   6.634  1.0172 -0.4646 -0.6058
  429MOL0    Cl56540   3.348   3.880   6.552  0.3741 -0.7563  0.4010
  429MOL0     C56541   4.074   3.341   6.037  0.5158  0.2655  0.5262
  429MOL0     C56542   4.173   3.274   5.959 -0.2528  0.0132  0.3760
  429MOL0     O56543   4.474   3.114   6.069  0.0354 -0.8358  0.2598
  429MOL0     C56544   4.676   3.026   5.902  0.0269 -0.0726 -0.7109
  429MOL0     C56545   4.782   2.981   5.820  0.2771 -0.0264  0.3931
  429MOL0     N56546   5.307   2.769   5.298  0.3356  0.2832  0.1692
  429MOL0     N56547   5.348   2.665   5.356  0.7195 -0.3845 -0.4477
  429MOL0     C56548   6.427   2.516   5.411  0.1714  0.3636 -0.3154
  429MOL0     C56549   6.558   2.501   5.438  0.5662  0.5808  0.1822
  429MOL0     C56550   6.951   2.374   5.568 -0.4145  0.4955 -0.0095
  429MOL0     C56551   7.014   2.427   5.446  0.1044 -0.0949 -0.2142
  429MOL0     C56552   7.156   2.433   5.441 -0.3547 -0.4899  0.0575
  429MOL0     C56553   7.238   2.396   5.552  0.9402 -1.3132 -0.8203
  429MOL0     O56554   7.372   2.426   5.555 -0.2443 -0.6913  0.0704
  429MOL0     C56555   7.442   2.448   5.433 -0.4084 -0.2278 -1.1106
  429MOL0     C56556   7.595   2.464   5.462  0.0893  0.9591  0.4166
  429MOL0     C56557   7.628   2.604   5.524  0.4870 -0.4445  0.6314
  429MOL0     C56558   7.782   2.622   5.563  0.4511  0.1941 -0.5663
  429MOL0     C56559   7.866   2.608   5.445  0.2232  0.0649 -0.8249
  429MOL0     C56560   7.925   2.583   5.339 -0.2337  0.5851  0.7020
  429MOL0     C56561   7.172   2.352   5.663 -0.4044  0.8607 -0.1555
  429MOL0     C56562   7.037   2.342   5.675 -0.0477 -0.6156  0.3329
  429MOL0     H56563   6.562   2.160   5.452  0.5073 -0.0393 -0.2979
  429MOL0     H56564   6.342   2.189   5.399 -3.1133  2.6297  2.1246
  429MOL0     H56565   6.127   2.251   5.405  0.9880  0.1093  0.3581
  429MOL0     H56566   6.193   2.257   5.233  2.0559  1.5195 -1.3492
  429MOL0     H56567   5.981   2.268   5.195  0.5828  0.1378  0.1694
  429MOL0     H56568   6.015   2.446   5.221 -1.4621  0.9173  1.6808
  429MOL0     H56569   5.889   2.274   5.432 -0.4556 -0.1488  0.5965
  429MOL0     H56570   5.793   2.363   5.305 -0.2446  1.2234 -1.7160
  429MOL0     H56571   6.001   2.480   5.497 -0.7422 -0.0742  1.8323
  429MOL0     H56572   5.914   2.579   5.381  0.3740  0.8833  0.2935
  429MOL0     H56573   5.850   2.610   5.597 -0.4142  0.7530 -0.7443
  429MOL0     H56574   5.801   2.451   5.637 -3.1554  1.5803  0.7440
  429MOL0     H56575   5.617   2.469   5.462  2.4872 -2.1813 -0.1353
  429MOL0     H56576   5.676   2.630   5.417 -0.2853 -1.8601 -0.8387
  429MOL0     H56577   5.591   2.570   5.715 -3.0868  1.7532  0.8859
  429MOL0     H56578   5.589   2.716   5.620 -1.1752 -0.0676  3.1884
  429MOL0     H56579   5.368   2.607   5.673  1.2193 -1.8932  1.8470
  429MOL0     H56580   5.400   2.488   5.548  0.1342 -0.1274  0.1025
  429MOL0     H56581   5.380   2.875   5.596 -0.2574 -2.5654  1.2051
  429MOL0     H56582   5.237   3.030   5.258 -2.0121  0.0410  0.5082
  429MOL0     H56583   5.343   3.097   5.383  2.0108 -2.1015 -0.7044
  429MOL0     H56584   5.140   3.172   5.429  0.2496 -0.4909  0.1061
  429MOL0     H56585   5.163   3.052   5.554 -0.1363  1.1683 -0.1639
  429MOL0     H56586   5.002   3.016   5.293 -0.5814  0.3280 -0.4888
  429MOL0     H56587   5.035   2.887   5.412 -0.5247  0.3549 -2.3361
  429MOL0     H56588   4.811   2.992   5.405 -0.1225 -0.6310  0.8057
  429MOL0     H56589   4.866   3.138   5.469  1.8231  0.5002  3.1884
  429MOL0     H56590   4.617   3.011   5.522  0.2182  2.5678  0.6069
  429MOL0     H56591   4.432   3.083   5.678 -0.4337  1.6446 -0.1614
  429MOL0     H56592   4.197   2.983   6.122  1.1105  0.4588  0.6896
  429MOL0     H56593   4.037   3.100   6.266  1.9534  0.8753  1.0731
  429MOL0     H56594   3.908   3.221   6.386  0.5106  0.5678  0.2087
  429MOL0     H56595   3.782   3.190   6.266  0.5386 -1.5630  2.5999
  429MOL0     H56596   3.692   3.426   6.320 -1.0409  0.4606  1.9443
  429MOL0     H56597   3.835   3.439   6.418  0.7980 -1.9213  2.4061
  429MOL0     H56598   3.749   3.252   6.562  1.3978  3.3936  2.0078
  429MOL0     H56599   3.600   3.249   6.455  0.8372 -1.1944  1.2139
  429MOL0     H56600   3.594   3.374   6.684 -1.4732  1.0154 -0.0515
  429MOL0     H56601   3.678   3.504   6.594  0.6728  0.3380 -4.1278
  429MOL0     H56602   3.411   3.384   6.537  0.0485 -0.3128 -2.3155
  429MOL0     H56603   3.483   3.501   6.423 -1.2439  2.0129  0.7326
  429MOL0     H56604   3.499   3.669   6.577  0.1848 -1.3053 -1.2966
  429MOL0     H56605   3.457   3.574   6.723  1.7351 -0.2004 -0.2105
  429MOL0     H56606   3.268   3.607   6.482  0.3030 -0.7500 -0.6228
  429MOL0     H56607   3.221   3.557   6.636  0.9177  0.7837 -0.2107
  429MOL0     H56608   3.256   3.764   6.743  1.6588 -1.3359 -0.6170
  429MOL0     H56609   3.143   3.776   6.600  0.2619 -1.6200  0.9842
  429MOL0     H56610   4.031   3.439   6.018  0.7408  0.4741  1.0548
  429MOL0     H56611   4.214   3.327   5.873 -0.6877  0.6531  0.5573
  429MOL0     H56612   4.683   3.017   6.010 -1.1292 -2.5764 -0.7824
  429MOL0     H56613   4.880   2.955   5.859 -1.0868 -0.9378  3.4488
  429MOL0     H56614   6.384   2.615   5.397 -0.1667  0.2136 -0.3214
  429MOL0     H56615   6.625   2.585   5.455  1.6384 -0.0174 -0.9122
  429MOL0     H56616   6.956   2.456   5.359  0.1922 -0.2367 -0.3204
  429MOL0     H56617   7.203   2.478   5.354  1.2129  0.7631  1.4755
  429MOL0     H56618   7.409   2.543   5.392  0.4865 -0.4080 -2.2945
  429MOL0     H56619   7.431   2.363   5.365 -3.7112 -3.2459  2.6636
  429MOL0     H56620   7.629   2.379   5.522 -1.2072 -0.1941 -0.4097
  429MOL0     H56621   7.642   2.447   5.364 -1.3313  1.5915 -0.4024
  429MOL0     H56622   7.568   2.611   5.615 -0.5374  0.5178 -0.0933
  429MOL0     H56623   7.604   2.687   5.457  2.1039 -1.1404 -0.9176
  429MOL0     H56624   7.795   2.718   5.614  0.1422  0.3732 -0.8269
  429MOL0     H56625   7.806   2.545   5.637  0.5889  0.8813  0.1163
  429MOL0     H56626   7.989   2.571   5.254 -0.8808  1.0676  0.1403
  429MOL0     H56627   7.243   2.334   5.744  0.4188 -1.3266 -1.2697
  429MOL0     H56628   6.984   2.311   5.764  0.0604 -1.0602  0.2474
  430MOL0     O56629   1.783   1.868   5.668  0.9171 -0.1084  0.1743
  430MOL0     C56630   1.865   1.788   5.695  0.4371  0.5604 -0.7859
  430MOL0     O56631   1.838   1.673   5.769  0.1297  0.2909  0.5197
  430MOL0     C56632   1.723   1.641   5.829 -0.3171 -0.9237 -0.4791
  430MOL0     C56633   1.626   1.731   5.882 -1.0187  0.3571  0.3447
  430MOL0     C56634   1.519   1.684   5.959  0.1092  1.4132  0.4442
  430MOL0     C56635   1.501   1.545   5.985 -0.8434 -0.1637 -0.5778
  430MOL0     O56636   1.383   1.528   6.051 -0.5494  0.1878 -0.1621
  430MOL0     C56637   1.347   1.389   6.077  0.1816 -1.0490  0.2602
  430MOL0     C56638   1.204   1.376   6.117 -0.0494 -0.0317 -0.4073
  430MOL0     C56639   1.177   1.449   6.244  0.5812  0.5045  0.6795
  430MOL0     C56640   1.021   1.429   6.256 -0.6363  0.0239 -1.7465
  430MOL0     C56641   0.959   1.490   6.384 -0.0202 -0.4608 -0.5944
  430MOL0     C56642   0.972   1.645   6.372  0.3144  0.1931  0.0830
  430MOL0     C56643   0.881   1.730   6.467  0.3374 -1.7625  0.7248
  430MOL0     C56644   0.735   1.685   6.470 -0.2051 -0.2877 -0.0665
  430MOL0     N56645   0.661   1.761   6.565 -0.0362 -0.0690 -0.3670
  430MOL0     C56646   0.609   1.888   6.544 -0.8003  0.1199  0.0680
  430MOL0     C56647   0.499   1.889   6.630 -0.8271  0.2534  0.6462
  430MOL0     C56648   0.384   1.994   6.639  0.2784  0.6183 -0.0239
  430MOL0     C56649   0.379   2.060   6.775  0.1271 -0.3542 -0.0011
  430MOL0     C56650   0.355   1.966   6.894  0.1812 -0.0530 -0.1227
  430MOL0     C56651   0.240   1.871   6.887 -0.1565  0.2807  1.3096
  430MOL0     O56652   0.130   1.957   6.849 -0.2075  0.0875 -0.2188
  430MOL0     C56653   0.004   1.907   6.858 -0.1280  0.1478  0.3913
  430MOL0     C56654  -0.078   1.880   6.749  1.0160 -0.5728  0.5442
  430MOL0     C56655  -0.210   1.826   6.767 -0.4710 -0.8261 -0.3689
  430MOL0     C56656  -0.262   1.799   6.895  0.0774 -0.3129 -0.3510
  430MOL0     C56657  -0.404   1.742   6.912 -0.4568 -0.4417  0.2784
  430MOL0     O56658  -0.480   1.744   6.796  0.0869 -0.1543 -0.0042
  430MOL0     C56659  -0.607   1.698   6.790 -0.7745 -0.0706 -0.5936
  430MOL0     C56660  -0.649   1.604   6.697 -0.3019 -0.0407  0.9710
  430MOL0     C56661  -0.786   1.560   6.707 -0.4319  0.5612 -0.3676
  430MOL0     C56662  -0.879   1.614   6.792 -0.2697  0.2849  0.5459
  430MOL0     O56663  -1.014   1.570   6.782 -0.2838 -0.2385  0.4834
  430MOL0     C56664  -1.113   1.620   6.877 -0.5273 -0.2272  0.4182
  430MOL0     C56665  -1.243   1.549   6.875 -0.0573 -0.1633  0.2670
  430MOL0     C56666  -1.284   1.492   6.737 -0.3957 -0.5109  0.2281
  430MOL0     C56667  -1.419   1.424   6.730  0.5511  0.5384 -0.9224
  430MOL0     C56668  -1.437   1.333   6.605 -0.3283 -1.2750 -0.1686
  430MOL0     C56669  -1.581   1.323   6.567 -0.6351 -0.9349 -0.0118
  430MOL0     C56670  -1.602   1.242   6.441  0.4303 -0.3638 -0.0432
  430MOL0     C56671  -1.743   1.247   6.403 -0.6760 -0.6060  0.0347
  430MOL0    Cl56672  -1.837   1.163   6.525  0.8950  0.1522 -0.4028
  430MOL0     C56673  -0.836   1.718   6.877 -0.1237  0.4830 -0.1805
  430MOL0     C56674  -0.701   1.756   6.878  0.1907 -0.7838 -0.1689
  430MOL0     O56675  -0.435   1.694   7.022 -1.3470 -0.2693  0.1579
  430MOL0     C56676  -0.174   1.829   6.996  0.5592 -0.0693 -0.1163
  430MOL0     C56677  -0.048   1.876   6.983  0.5559 -0.2961 -0.6882
  430MOL0     N56678   0.510   1.775   6.716  0.5618 -0.0624  0.0855
  430MOL0     N56679   0.604   1.700   6.678 -0.0346  0.1405  0.2593
  430MOL0     C56680   1.600   1.457   5.939  0.7783  0.0737 -0.5587
  430MOL0     C56681   1.706   1.503   5.859 -0.3739  0.9873 -0.8548
  430MOL0     C56682   2.007   1.797   5.652 -0.7210  1.1281  0.3621
  430MOL0     C56683   2.043   1.882   5.543  0.9821 -0.6648 -0.0048
  430MOL0     C56684   2.175   1.892   5.490  0.2590 -0.1992 -0.7609
  430MOL0     C56685   2.272   1.812   5.555 -0.2604  1.3454  0.1684
  430MOL0     O56686   2.406   1.809   5.519 -0.0706  1.0023  0.0463
  430MOL0     C56687   2.447   1.881   5.402  0.4923 -0.1053 -0.9738
  430MOL0     C56688   2.593   1.856   5.369 -0.1546 -0.4026 -0.2400
  430MOL0     C56689   2.641   1.924   5.244  0.2916 -0.2175 -0.0319
  430MOL0     C56690   2.785   1.952   5.236 -0.4165 -0.1196 -0.5714
  430MOL0     C56691   2.840   2.048   5.334  0.8108  0.3606 -0.7436
  430MOL0     C56692   2.892   2.129   5.410 -0.0308  0.6123  0.4736
  430MOL0     C56693   2.242   1.728   5.659 -0.3351  1.1849  0.0118
  430MOL0     C56694   2.115   1.711   5.701  0.3833 -0.1294  0.9469
  430MOL0     H56695   1.624   1.834   5.851 -2.4546 -0.1491 -1.3651
  430MOL0     H56696   1.449   1.758   5.994  1.6381  2.9768  0.3092
  430MOL0     H56697   1.408   1.345   6.156 -1.6723 -2.7110  0.8501
  430MOL0     H56698   1.357   1.343   5.978 -0.8149  1.2899 -1.0136
  430MOL0     H56699   1.196   1.269   6.136  0.2256  0.3189  2.0974
  430MOL0     H56700   1.149   1.418   6.032 -0.0576  2.8385  0.9059
  430MOL0     H56701   1.207   1.554   6.238  1.0251  0.3015 -1.4191
  430MOL0     H56702   1.223   1.403   6.332  0.5658  0.2944  0.5788
  430MOL0     H56703   0.976   1.474   6.167  2.0072  0.8815 -2.7424
  430MOL0     H56704   1.008   1.321   6.246  1.3705 -0.1606 -2.9504
  430MOL0     H56705   1.000   1.454   6.479 -1.6184  1.6760  0.9896
  430MOL0     H56706   0.856   1.455   6.374 -0.1905  0.1009 -0.8015
  430MOL0     H56707   0.928   1.676   6.277 -1.5228  1.4662  1.2818
  430MOL0     H56708   1.076   1.679   6.385 -0.0393  2.0229 -1.3841
  430MOL0     H56709   0.927   1.732   6.566  1.3644 -1.7021  0.2570
  430MOL0     H56710   0.884   1.829   6.421 -0.5019 -3.4407 -3.4023
  430MOL0     H56711   0.735   1.581   6.502 -1.3931  0.3609  2.3115
  430MOL0     H56712   0.682   1.688   6.374  1.4533 -2.3981 -1.1143
  430MOL0     H56713   0.645   1.950   6.462  0.7109 -1.8887 -0.8867
  430MOL0     H56714   0.293   1.933   6.634  1.1196 -0.6100 -1.0651
  430MOL0     H56715   0.390   2.069   6.560  0.5252 -2.6581 -3.3816
  430MOL0     H56716   0.292   2.126   6.769  0.1731 -0.2716  0.2341
  430MOL0     H56717   0.465   2.126   6.789 -1.3599  2.3803 -2.6373
  430MOL0     H56718   0.454   1.928   6.919  0.2232  0.5865  0.7433
  430MOL0     H56719   0.322   2.035   6.973 -0.3171 -1.5944  1.0570
  430MOL0     H56720   0.235   1.817   6.982  1.3176 -3.0393 -0.3165
  430MOL0     H56721   0.265   1.800   6.807  2.6355  0.7319  1.6903
  430MOL0     H56722  -0.041   1.910   6.652 -3.3912 -1.9900 -1.8337
  430MOL0     H56723  -0.262   1.808   6.674  0.6031  0.2941 -1.2209
  430MOL0     H56724  -0.588   1.566   6.616 -0.2818  3.4123 -0.7702
  430MOL0     H56725  -0.814   1.480   6.639  2.0552 -1.2130  0.5465
  430MOL0     H56726  -1.146   1.722   6.856  0.2474 -0.1037 -0.2752
  430MOL0     H56727  -1.071   1.619   6.978  2.3895 -2.8408 -0.6449
  430MOL0     H56728  -1.326   1.603   6.920 -1.3063 -2.4728  0.8994
  430MOL0     H56729  -1.244   1.461   6.940 -1.5801 -0.0328  0.4478
  430MOL0     H56730  -1.210   1.420   6.701  0.6768  1.0007 -0.6626
  430MOL0     H56731  -1.274   1.578   6.670  2.7984 -1.1733 -0.2898
  430MOL0     H56732  -1.435   1.360   6.818  1.0858  0.8213 -0.6174
  430MOL0     H56733  -1.500   1.498   6.734 -1.8678 -1.9688  0.9852
  430MOL0     H56734  -1.377   1.241   6.612  1.1921 -0.2809  0.3292
  430MOL0     H56735  -1.388   1.387   6.523 -1.8732 -0.0648 -0.3280
  430MOL0     H56736  -1.640   1.415   6.567  0.0812 -0.4552 -1.2957
  430MOL0     H56737  -1.641   1.271   6.642 -2.8508  0.1408 -0.9337
  430MOL0     H56738  -1.541   1.294   6.366  1.1180 -1.1908 -0.0713
  430MOL0     H56739  -1.575   1.137   6.458  0.2765 -0.0881  2.1930
  430MOL0     H56740  -1.751   1.208   6.302  0.0059 -0.2970 -0.1473
  430MOL0     H56741  -1.768   1.353   6.401  1.9117  0.1571  1.9857
  430MOL0     H56742  -0.917   1.768   6.930 -1.8572 -0.3615 -1.8954
  430MOL0     H56743  -0.665   1.845   6.928  0.0926 -1.3668  0.9590
  430MOL0     H56744  -0.213   1.805   7.095 -1.9547  1.5663 -0.6086
  430MOL0     H56745   0.013   1.878   7.073  1.7649 -0.6377 -1.4631
  430MOL0     H56746   1.579   1.353   5.960  1.9666 -0.0525  0.0707
  430MOL0     H56747   1.785   1.437   5.825 -0.0025  1.1195 -0.2556
  430MOL0     H56748   1.958   1.943   5.514  0.3294 -0.4898  2.1584
  430MOL0     H56749   2.196   1.971   5.419 -2.2816 -0.1193 -1.5294
  430MOL0     H56750   2.439   1.987   5.426  1.7301  0.1660 -1.6414
  430MOL0     H56751   2.373   1.855   5.326 -2.3587 -0.0397  1.5977
  430MOL0     H56752   2.654   1.881   5.456  0.9893 -0.6142 -0.9507
  430MOL0     H56753   2.606   1.749   5.349  1.8378 -0.7208  2.3291
  430MOL0     H56754   2.581   2.015   5.252 -0.4089 -0.8202  4.5364
  430MOL0     H56755   2.611   1.874   5.151 -1.6223 -0.1363  0.4918
  430MOL0     H56756   2.845   1.863   5.255 -1.7418 -0.6124  1.7364
  430MOL0     H56757   2.803   1.992   5.135 -0.2021 -1.5435 -1.1220
  430MOL0     H56758   2.950   2.190   5.477  2.5977 -0.4070 -0.7127
  430MOL0     H56759   2.323   1.668   5.699  0.2638  1.8395 -0.2126
  430MOL0     H56760   2.097   1.641   5.781  1.5151  1.1636  2.3919
  431MOL0     O56761   5.023   5.668   7.901 -0.6628  0.5239  0.0849
  431MOL0     C56762   5.042   5.617   8.005  0.8666 -0.4920 -0.1644
  431MOL0     O56763   4.956   5.603   8.106  0.0309  0.3253  0.0876
  431MOL0     C56764   4.835   5.668   8.110 -1.1732 -1.0532  0.0060
  431MOL0     C56765   4.709   5.607   8.150 -0.9055 -0.5054 -0.1809
  431MOL0     C56766   4.597   5.682   8.144  0.6744  0.1844  0.1592
  431MOL0     C56767   4.602   5.812   8.119  0.6219  0.4453 -0.5606
  431MOL0     O56768   4.482   5.886   8.133  0.3150 -0.9159  0.5913
  431MOL0     C56769   4.451   5.927   8.271  0.2455  0.5850  0.1460
  431MOL0     C56770   4.310   5.908   8.310  0.3321  0.2179  0.1271
  431MOL0     C56771   4.223   6.014   8.244  0.4959  0.3305 -0.0854
  431MOL0     C56772   4.086   5.998   8.308 -0.0966  0.0334  0.3297
  431MOL0     C56773   3.972   6.070   8.237 -0.1954 -0.8462  0.2898
  431MOL0     C56774   3.836   6.063   8.306  0.3843 -0.5792 -0.0470
  431MOL0     C56775   3.722   6.132   8.234  0.0127  0.7953 -1.0336
  431MOL0     C56776   3.601   6.156   8.321  0.5435 -0.1139  0.0192
  431MOL0     N56777   3.524   6.036   8.353 -0.4485  0.2288 -0.0187
  431MOL0     C56778   3.543   5.968   8.473 -0.0588 -0.4205  0.5143
  431MOL0     C56779   3.452   5.877   8.474  0.8281  0.4383 -0.0807
  431MOL0     C56780   3.450   5.772   8.579 -0.3153 -0.4087  0.6557
  431MOL0     C56781   3.378   5.642   8.527  0.5491 -0.2614 -0.4079
  431MOL0     C56782   3.228   5.657   8.541  0.9472 -0.0697  0.3514
  431MOL0     C56783   3.154   5.532   8.496 -0.4235 -0.3913  0.4634
  431MOL0     O56784   3.114   5.443   8.600  0.0749 -0.1853 -0.1821
  431MOL0     C56785   2.986   5.431   8.634  0.0973  0.4053 -0.5200
  431MOL0     C56786   2.873   5.509   8.598 -0.2039 -0.0873  0.1553
  431MOL0     C56787   2.736   5.471   8.627 -0.3633 -0.6068  0.3667
  431MOL0     C56788   2.711   5.349   8.686  0.5571  0.2147  0.1956
  431MOL0     C56789   2.575   5.294   8.712 -0.3887  0.0635 -0.5179
  431MOL0     O56790   2.480   5.386   8.750  0.2271  0.8197  0.0827
  431MOL0     C56791   2.353   5.343   8.767 -0.3333 -0.1659  0.7897
  431MOL0     C56792   2.295   5.334   8.897 -1.0802 -0.2512 -0.1949
  431MOL0     C56793   2.153   5.311   8.916  0.0651  0.0339  0.7717
  431MOL0     C56794   2.078   5.281   8.799  0.0391  0.3715  0.8427
  431MOL0     O56795   1.941   5.257   8.803  0.0402 -0.2536 -0.6367
  431MOL0     C56796   1.874   5.292   8.924 -0.0101  0.2363 -1.0758
  431MOL0     C56797   1.730   5.239   8.897 -0.1074 -0.2251  0.6114
  431MOL0     C56798   1.629   5.267   9.003 -0.2477 -1.5889 -0.3779
  431MOL0     C56799   1.491   5.244   8.960 -0.3282  0.0030 -0.2523
  431MOL0     C56800   1.399   5.211   9.075 -0.2958  0.1415  0.0201
  431MOL0     C56801   1.260   5.152   9.045  0.9688 -0.2631  0.8535
  431MOL0     C56802   1.171   5.140   9.166  0.0903  0.7422  0.2153
  431MOL0     C56803   1.038   5.077   9.131 -0.3753 -0.1055 -0.3328
  431MOL0    Cl56804   0.936   5.099   9.270  0.5048 -0.4592 -0.1969
  431MOL0     C56805   2.133   5.289   8.673 -0.1910  1.0780  0.7890
  431MOL0     C56806   2.266   5.328   8.658  0.1434  0.2590  0.5704
  431MOL0     O56807   2.559   5.171   8.711 -0.0979  0.2027 -0.0190
  431MOL0     C56808   2.823   5.267   8.709 -0.2549  0.5362 -0.2154
  431MOL0     C56809   2.953   5.314   8.690  0.0587  0.0708  0.2866
  431MOL0     N56810   3.380   5.877   8.355  0.4629 -0.0389 -0.1959
  431MOL0     N56811   3.424   5.982   8.283 -0.4555 -0.0981 -0.2770
  431MOL0     C56812   4.710   5.879   8.072 -0.8303  0.1021 -0.2743
  431MOL0     C56813   4.832   5.803   8.071  0.3116  0.5738  0.6426
  431MOL0     C56814   5.164   5.534   8.008  0.6267  0.2481 -0.0949
  431MOL0     C56815   5.246   5.500   7.901 -0.0184 -0.1347 -0.0067
  431MOL0     C56816   5.364   5.428   7.911 -0.1396  0.1404 -0.3128
  431MOL0     C56817   5.390   5.371   8.038  0.0562  0.2207  0.4772
  431MOL0     O56818   5.488   5.274   8.070 -0.4726  0.5916 -0.7759
  431MOL0     C56819   5.607   5.265   7.991  0.1685 -0.2997 -0.2867
  431MOL0     C56820   5.721   5.219   8.088  0.8597 -0.0695  0.5149
  431MOL0     C56821   5.859   5.220   8.028  0.7377 -0.0402 -0.2540
  431MOL0     C56822   5.879   5.116   7.920 -0.7805  0.7530 -0.0611
  431MOL0     C56823   6.010   5.152   7.846  0.3834 -0.4878  0.6439
  431MOL0     C56824   6.102   5.200   7.792 -0.2132  0.5298 -0.8463
  431MOL0     C56825   5.305   5.396   8.143  0.4750  0.6906 -0.0295
  431MOL0     C56826   5.191   5.470   8.131  0.5343 -0.2532 -0.1873
  431MOL0     H56827   4.691   5.502   8.168 -1.4475 -0.6593 -1.5088
  431MOL0     H56828   4.501   5.640   8.172  1.4904 -1.7963  0.1523
  431MOL0     H56829   4.477   6.033   8.279 -1.9751  1.0898  1.4377
  431MOL0     H56830   4.513   5.881   8.347 -1.2997 -0.1165  1.0257
  431MOL0     H56831   4.299   5.920   8.418 -0.1146  0.4713  0.0577
  431MOL0     H56832   4.281   5.807   8.282 -0.4823  0.2978  0.6421
  431MOL0     H56833   4.236   6.015   8.136  0.7318 -0.0533 -0.0608
  431MOL0     H56834   4.266   6.109   8.279 -0.6759 -0.2933  3.5352
  431MOL0     H56835   4.066   5.891   8.317  3.5464 -0.9800 -1.6203
  431MOL0     H56836   4.085   6.022   8.415 -0.6468  1.1628  0.0823
  431MOL0     H56837   3.952   6.034   8.136  1.2806  0.2405 -0.4142
  431MOL0     H56838   3.993   6.177   8.230 -3.2572 -0.2566 -2.4032
  431MOL0     H56839   3.850   6.109   8.405  0.8057 -0.4300 -0.1724
  431MOL0     H56840   3.804   5.960   8.323  0.4514 -0.8342 -1.3395
  431MOL0     H56841   3.766   6.230   8.216 -0.3659  1.5837  1.8047
  431MOL0     H56842   3.690   6.077   8.144 -1.3326  1.2621 -0.8708
  431MOL0     H56843   3.530   6.217   8.264  1.8104  0.1445 -1.3501
  431MOL0     H56844   3.626   6.208   8.414  1.1370 -0.6573  0.1757
  431MOL0     H56845   3.617   5.990   8.550  0.9291  0.4547 -0.6336
  431MOL0     H56846   3.399   5.787   8.675  2.0027  0.7010  1.7743
  431MOL0     H56847   3.556   5.753   8.598  0.1911  1.5541  0.0140
  431MOL0     H56848   3.421   5.559   8.583  0.8656 -0.9691 -1.6740
  431MOL0     H56849   3.401   5.621   8.422 -2.1222  0.9557 -1.3181
  431MOL0     H56850   3.215   5.669   8.649  0.3158 -1.4935  0.4587
  431MOL0     H56851   3.182   5.745   8.494  2.9446  0.0910 -1.4460
  431MOL0     H56852   3.227   5.477   8.436  1.7687  0.1111  2.4896
  431MOL0     H56853   3.068   5.558   8.434  1.0838  0.0895 -1.5544
  431MOL0     H56854   2.889   5.610   8.562 -2.3603 -0.2755 -1.4917
  431MOL0     H56855   2.657   5.540   8.601  0.4105 -0.1719 -0.9340
  431MOL0     H56856   2.346   5.328   8.993 -3.6260  0.0513  1.2483
  431MOL0     H56857   2.110   5.305   9.015 -1.2435 -0.5521  0.1856
  431MOL0     H56858   1.876   5.401   8.936 -0.9170  0.0011  2.0624
  431MOL0     H56859   1.906   5.244   9.017 -1.9430 -1.6413 -1.3048
  431MOL0     H56860   1.738   5.131   8.876  0.0654 -0.1417  0.2352
  431MOL0     H56861   1.701   5.286   8.803  2.4088  0.4937  0.1446
  431MOL0     H56862   1.637   5.373   9.032 -2.0570 -1.4230 -0.3752
  431MOL0     H56863   1.661   5.213   9.093  1.1191  2.0608  1.5530
  431MOL0     H56864   1.448   5.332   8.910 -0.2838  0.1076 -0.1096
  431MOL0     H56865   1.495   5.160   8.890  1.5531  0.7770 -1.1239
  431MOL0     H56866   1.382   5.307   9.124 -1.6735 -1.2100  2.3636
  431MOL0     H56867   1.455   5.147   9.143  0.6057  0.8999  0.0163
  431MOL0     H56868   1.270   5.050   9.008 -1.7806  0.7349 -3.4518
  431MOL0     H56869   1.216   5.202   8.957  1.8872 -0.9646 -0.0237
  431MOL0     H56870   1.213   5.069   9.238  0.5794 -1.4910 -2.1623
  431MOL0     H56871   1.146   5.235   9.215 -2.3573 -0.3925  1.3488
  431MOL0     H56872   1.048   4.971   9.107  4.3465  0.4981 -2.0250
  431MOL0     H56873   0.993   5.129   9.045 -2.0021  0.2410  0.6922
  431MOL0     H56874   2.080   5.285   8.579 -0.8137  1.3282  1.1250
  431MOL0     H56875   2.308   5.343   8.559  1.5641 -1.3627  0.8734
  431MOL0     H56876   2.815   5.165   8.745  0.7455 -0.6627 -3.0578
  431MOL0     H56877   3.031   5.245   8.720  0.2671  0.2424  0.1376
  431MOL0     H56878   4.712   5.980   8.033 -1.8383  0.0519 -0.4831
  431MOL0     H56879   4.929   5.850   8.053  1.9723 -2.2035  1.7846
  431MOL0     H56880   5.232   5.564   7.814 -0.4936  0.1487  0.2708
  431MOL0     H56881   5.442   5.435   7.836  0.5778  3.1571  0.5549
  431MOL0     H56882   5.639   5.362   7.952  0.6053 -0.5636 -0.5956
  431MOL0     H56883   5.605   5.200   7.902 -0.0181 -1.2519  0.3899
  431MOL0     H56884   5.717   5.289   8.172 -1.0567  0.3070  0.1627
  431MOL0     H56885   5.698   5.118   8.123  0.4908 -1.5872 -3.5736
  431MOL0     H56886   5.942   5.207   8.098 -1.1380 -0.1603  2.0578
  431MOL0     H56887   5.867   5.324   7.994 -1.8498  0.9937  1.9364
  431MOL0     H56888   5.887   5.013   7.955  1.6051  0.3535 -1.5579
  431MOL0     H56889   5.800   5.131   7.845 -0.1899 -0.0454 -0.8729
  431MOL0     H56890   6.198   5.234   7.759  1.1872 -3.7706 -1.7448
  431MOL0     H56891   5.307   5.332   8.230  0.2631  0.0970 -0.4564
  431MOL0     H56892   5.122   5.477   8.215 -0.0561 -2.5538 -0.4237
  432MOL0     O56893   1.224   6.870  10.608 -0.7989 -0.1085  0.5714
  432MOL0     C56894   1.179   6.872  10.494  0.2006 -0.2330  0.8761
  432MOL0     O56895   1.258   6.883  10.381  0.2519  0.4699  0.0935
  432MOL0     C56896   1.392   6.852  10.366  0.2629 -0.2113 -0.9106
  432MOL0     C56897   1.479   6.827  10.469  0.4929  0.0574 -0.1677
  432MOL0     C56898   1.618   6.800  10.448  0.0960  0.8092 -0.5891
  432MOL0     C56899   1.671   6.815  10.320 -0.0294 -0.4153 -0.2988
  432MOL0     O56900   1.805   6.788  10.305  0.0044 -1.0620 -0.0223
  432MOL0     C56901   1.877   6.848  10.196  0.4079  0.6385 -0.6213
  432MOL0     C56902   2.023   6.835  10.245  0.5258 -0.3516  0.7960
  432MOL0     C56903   2.116   6.950  10.203 -0.0178 -1.1982  0.5527
  432MOL0     C56904   2.259   6.910  10.213 -0.2463  0.4914  0.3950
  432MOL0     C56905   2.354   7.001  10.148 -0.3753  0.4700 -0.2530
  432MOL0     C56906   2.499   6.982  10.195 -0.3054  0.2402  0.5594
  432MOL0     C56907   2.530   7.030  10.330 -0.6293 -0.3957  0.4184
  432MOL0     C56908   2.687   7.061  10.343 -0.2953 -0.0155 -0.4302
  432MOL0     N56909   2.708   7.117  10.474 -0.6328 -0.4518 -0.3746
  432MOL0     C56910   2.697   7.058  10.594  0.5022 -1.1730 -1.5772
  432MOL0     C56911   2.718   7.161  10.685 -0.0718  1.0609  0.2621
  432MOL0     C56912   2.693   7.147  10.833 -0.6873  1.4763  0.7244
  432MOL0     C56913   2.550   7.090  10.867 -0.8933 -0.1577  0.7227
  432MOL0     C56914   2.533   7.047  11.014  0.0574  0.0640 -0.0214
  432MOL0     C56915   2.389   7.067  11.056  0.5829  0.8285 -0.3646
  432MOL0     O56916   2.304   6.967  10.999 -0.3108 -0.2623 -0.7141
  432MOL0     C56917   2.169   6.956  11.031  0.1494  0.1916  0.4843
  432MOL0     C56918   2.106   7.046  11.115  0.7226  0.5430  0.1550
  432MOL0     C56919   1.971   7.035  11.131  0.6266 -0.1015 -0.7852
  432MOL0     C56920   1.896   6.938  11.067  0.0810  0.3065 -0.3264
  432MOL0     C56921   1.752   6.930  11.096  0.5908 -0.1800 -1.2204
  432MOL0     O56922   1.691   6.817  11.060 -0.3101  0.3123 -0.0705
  432MOL0     C56923   1.548   6.821  11.073 -0.5678 -0.2950 -0.1873
  432MOL0     C56924   1.501   6.781  11.192  0.0281 -0.6155 -0.4026
  432MOL0     C56925   1.358   6.764  11.204  0.1893 -0.3115  0.1045
  432MOL0     C56926   1.270   6.813  11.107 -0.4718 -0.4167  0.5922
  432MOL0     O56927   1.132   6.819  11.123  0.0426  0.1586 -0.8976
  432MOL0     C56928   1.088   6.804  11.260  0.5463 -0.1532 -0.5233
  432MOL0     C56929   0.937   6.823  11.276 -0.8847  0.3139  0.3901
  432MOL0     C56930   0.879   6.819  11.414  0.3092  0.5458 -0.1493
  432MOL0     C56931   0.729   6.813  11.404 -0.5409  0.5084 -0.2558
  432MOL0     C56932   0.660   6.934  11.337 -0.8174  0.4980  0.1009
  432MOL0     C56933   0.512   6.953  11.382 -0.7593 -0.4401  0.3312
  432MOL0     C56934   0.451   7.091  11.361 -0.8089  0.1171  0.4073
  432MOL0     C56935   0.318   7.119  11.427 -0.1245 -0.1266  0.8445
  432MOL0    Cl56936   0.181   7.010  11.369 -0.2343  0.3257  0.1635
  432MOL0     C56937   1.326   6.870  10.994  0.0003 -0.0008  0.4532
  432MOL0     C56938   1.469   6.870  10.974  0.9659  0.2660  0.3331
  432MOL0     O56939   1.702   7.037  11.137 -0.6955 -0.0257 -0.1943
  432MOL0     C56940   1.962   6.852  10.981  0.0781  0.0452 -0.8230
  432MOL0     C56941   2.101   6.854  10.965  0.0648 -0.0623 -0.3861
  432MOL0     N56942   2.742   7.281  10.613 -0.0637  0.0612  0.2057
  432MOL0     N56943   2.735   7.247  10.487 -0.2305 -0.3412  0.0193
  432MOL0     C56944   1.585   6.862  10.224 -0.3541 -0.7253 -0.6431
  432MOL0     C56945   1.447   6.862  10.242 -0.1577 -0.1767 -0.2073
  432MOL0     C56946   1.035   6.862  10.469 -1.0866  0.1749  0.3672
  432MOL0     C56947   0.951   6.869  10.573  0.8845  0.3689 -1.0442
  432MOL0     C56948   0.812   6.852  10.555 -0.0353  0.3727  0.3504
  432MOL0     C56949   0.761   6.809  10.432  0.3165  1.4782  0.2710
  432MOL0     O56950   0.619   6.778  10.404 -0.6615  0.2020 -0.0086
  432MOL0     C56951   0.534   6.772  10.520 -0.0533 -0.4846  1.1578
  432MOL0     C56952   0.387   6.747  10.470  0.6388  1.0640  0.0199
  432MOL0     C56953   0.303   6.691  10.596 -0.5244 -1.3702 -0.9851
  432MOL0     C56954   0.157   6.668  10.577 -0.2521  0.2539  0.1814
  432MOL0     C56955   0.123   6.608  10.444  0.8405 -0.0656 -0.5750
  432MOL0     C56956   0.094   6.559  10.343 -0.1915 -0.0968  0.7391
  432MOL0     C56957   0.850   6.790  10.327  0.8572 -1.0459  0.6563
  432MOL0     C56958   0.984   6.830  10.342 -0.3088  0.1655  0.2067
  432MOL0     H56959   1.455   6.817  10.574  1.7184 -1.8933 -0.0234
  432MOL0     H56960   1.686   6.779  10.531  1.3583  2.0353 -1.2748
  432MOL0     H56961   1.849   6.953  10.186  1.4441  1.3311  2.5704
  432MOL0     H56962   1.862   6.797  10.100 -0.2908 -0.2138 -0.0696
  432MOL0     H56963   2.065   6.744  10.202 -0.9217 -0.6468 -0.0429
  432MOL0     H56964   2.022   6.830  10.355 -2.5619  0.5239  0.8839
  432MOL0     H56965   2.082   7.042  10.252  0.7477  0.5959 -2.1167
  432MOL0     H56966   2.096   6.965  10.097 -3.8137 -0.0784  1.2595
  432MOL0     H56967   2.286   6.900  10.319  0.4253  2.4552  0.4473
  432MOL0     H56968   2.269   6.809  10.172 -2.6800  0.8492 -1.2701
  432MOL0     H56969   2.321   7.104  10.163 -3.5784 -0.4702  0.0075
  432MOL0     H56970   2.343   6.993  10.039 -2.4049  4.0774 -0.4532
  432MOL0     H56971   2.556   7.026  10.113 -2.7260 -0.2182 -1.5028
  432MOL0     H56972   2.525   6.876  10.198  0.6155  0.4684  3.0593
  432MOL0     H56973   2.478   7.124  10.350 -0.7632 -0.0914 -1.2498
  432MOL0     H56974   2.498   6.951  10.399  0.5761 -0.6432  0.7189
  432MOL0     H56975   2.719   7.122  10.258 -0.3646 -0.3537 -0.6989
  432MOL0     H56976   2.737   6.964  10.346  1.5301  0.9013  1.2395
  432MOL0     H56977   2.652   6.963  10.623  1.3909 -0.6978  1.7834
  432MOL0     H56978   2.714   7.242  10.882 -2.7992  2.3809 -0.0216
  432MOL0     H56979   2.760   7.070  10.874 -2.3344 -1.4584 -1.6499
  432MOL0     H56980   2.531   7.006  10.800  2.3489 -1.0790  0.7695
  432MOL0     H56981   2.469   7.163  10.853 -0.6716 -0.3152 -1.7350
  432MOL0     H56982   2.567   6.944  11.024 -2.1820 -0.7717 -0.4392
  432MOL0     H56983   2.588   7.119  11.076  1.3934  0.3357 -1.4693
  432MOL0     H56984   2.355   7.169  11.037  1.8216  1.6041  1.3050
  432MOL0     H56985   2.388   7.051  11.165  3.0004 -0.5052 -0.4736
  432MOL0     H56986   2.171   7.110  11.173  1.2327  0.8263 -0.7089
  432MOL0     H56987   1.925   7.089  11.213  1.2113 -2.1599  1.0056
  432MOL0     H56988   1.570   6.765  11.275 -0.2419  0.0930 -0.0349
  432MOL0     H56989   1.333   6.731  11.304  0.7347 -3.1285 -0.6169
  432MOL0     H56990   1.131   6.876  11.331 -2.9460 -0.3096  2.0684
  432MOL0     H56991   1.100   6.706  11.308 -1.7915  0.5503  1.7340
  432MOL0     H56992   0.890   6.745  11.214  0.8471 -0.2389 -0.2930
  432MOL0     H56993   0.911   6.918  11.228  1.1440  1.4521  1.4365
  432MOL0     H56994   0.901   6.894  11.490 -2.6871  0.2883  1.1357
  432MOL0     H56995   0.907   6.723  11.459  1.1454  0.3341 -1.0984
  432MOL0     H56996   0.692   6.724  11.352 -1.6734 -0.0547  1.4226
  432MOL0     H56997   0.691   6.810  11.507 -2.6279 -0.0072 -0.9860
  432MOL0     H56998   0.673   6.924  11.229 -1.4789  1.9353 -0.1406
  432MOL0     H56999   0.715   7.025  11.364  1.8636 -1.1083  0.4563
  432MOL0     H57000   0.508   6.924  11.487  1.9395 -1.3685  0.2538
  432MOL0     H57001   0.459   6.888  11.312  1.2452 -1.4787 -0.3022
  432MOL0     H57002   0.518   7.170  11.397 -2.8100  1.7394  0.7510
  432MOL0     H57003   0.439   7.107  11.254  0.6434  0.6939  0.3020
  432MOL0     H57004   0.294   7.225  11.414 -2.5332 -0.8328 -1.3837
  432MOL0     H57005   0.336   7.108  11.534  0.4020  0.5871  0.8367
  432MOL0     H57006   1.258   6.903  10.917 -0.0117  2.7634  1.5239
  432MOL0     H57007   1.500   6.890  10.872  2.8135 -0.5043  0.7012
  432MOL0     H57008   1.900   6.783  10.925 -1.3180  0.4677  0.1409
  432MOL0     H57009   2.155   6.777  10.912 -0.0593  1.0438 -2.2172
  432MOL0     H57010   1.631   6.872  10.126  0.0865  0.2202 -0.3540
  432MOL0     H57011   1.379   6.891  10.163 -0.6170 -0.6961 -0.0055
  432MOL0     H57012   0.985   6.877  10.676  0.2290 -0.7093 -0.7261
  432MOL0     H57013   0.749   6.872  10.641 -1.2731 -1.0284 -0.1849
  432MOL0     H57014   0.534   6.874  10.558 -0.6345  0.1258 -0.4020
  432MOL0     H57015   0.567   6.695  10.590 -1.0578 -0.9180  1.1793
  432MOL0     H57016   0.330   6.832  10.433 -2.0810  0.0674  1.6063
  432MOL0     H57017   0.378   6.665  10.398 -3.9958  1.7440 -0.5018
  432MOL0     H57018   0.332   6.752  10.682  1.2372 -0.5263 -2.1283
  432MOL0     H57019   0.343   6.591  10.618  1.1355 -0.4160  0.6432
  432MOL0     H57020   0.129   6.611  10.666 -0.5886 -1.7203 -1.1266
  432MOL0     H57021   0.109   6.767  10.583 -1.4050 -0.2245 -0.6903
  432MOL0     H57022   0.078   6.513  10.247  2.0716  1.6138 -0.5441
  432MOL0     H57023   0.824   6.741  10.233  1.0539  1.5287 -0.8345
  432MOL0     H57024   1.053   6.821  10.259  2.6232  0.3477  2.4482
  433MOL0     O57025  10.781   5.261   4.201 -0.5475 -0.2489  0.4304
  433MOL0     C57026  10.873   5.267   4.287 -0.0112  0.0643  0.3702
  433MOL0     O57027  10.864   5.206   4.413 -0.1652 -0.0270 -0.3372
  433MOL0     C57028  10.748   5.138   4.439  0.0349 -0.1910 -0.8540
  433MOL0     C57029  10.650   5.205   4.523  0.2869 -0.0386  0.9152
  433MOL0     C57030  10.542   5.136   4.567  0.2036 -0.0675 -0.5815
  433MOL0     C57031  10.517   5.012   4.526  0.3633 -0.0607 -0.1744
  433MOL0     O57032  10.406   4.950   4.566  0.0436 -0.5194 -0.1604
  433MOL0     C57033  10.419   4.817   4.605  0.4009  0.6273 -0.7197
  433MOL0     C57034  10.296   4.800   4.692  0.0571 -0.1644  0.7333
  433MOL0     C57035  10.169   4.784   4.608  0.4896  0.0154 -0.1392
  433MOL0     C57036  10.042   4.763   4.695 -0.2743  0.3166  0.2074
  433MOL0     C57037   9.917   4.783   4.615 -0.4988  0.0853  0.0495
  433MOL0     C57038   9.795   4.797   4.696 -0.0409  0.3051  0.3197
  433MOL0     C57039   9.761   4.668   4.777 -0.1105  0.4497  0.2762
  433MOL0     C57040   9.653   4.703   4.876  0.3503 -0.2163  0.1372
  433MOL0     N57041   9.528   4.747   4.811  0.0234  0.8841 -0.2180
  433MOL0     C57042   9.457   4.682   4.713  0.4154 -0.6125 -0.2146
  433MOL0     C57043   9.353   4.768   4.675 -0.3348 -0.6602  0.2015
  433MOL0     C57044   9.245   4.741   4.574 -0.5289  0.1420  0.0793
  433MOL0     C57045   9.176   4.607   4.596  0.4033 -0.8450  0.0841
  433MOL0     C57046   9.050   4.592   4.503 -0.5312  0.2479  0.5389
  433MOL0     C57047   8.936   4.694   4.543  0.0232 -0.1670  0.6474
  433MOL0     O57048   8.862   4.726   4.425 -0.8013 -0.8387 -0.6688
  433MOL0     C57049   8.754   4.807   4.441  0.0373 -0.7191  0.7152
  433MOL0     C57050   8.734   4.889   4.551  0.1148  0.1067 -0.4733
  433MOL0     C57051   8.611   4.960   4.567 -0.3994  0.4851 -1.0119
  433MOL0     C57052   8.508   4.950   4.472  0.2846 -0.2088  0.5660
  433MOL0     C57053   8.381   5.026   4.485 -0.6624 -0.2436  0.0937
  433MOL0     O57054   8.291   5.005   4.388  0.1741  0.0607  0.2869
  433MOL0     C57055   8.160   5.026   4.405  0.3582 -0.3861  0.1777
  433MOL0     C57056   8.090   5.048   4.530 -0.3169  0.5715 -0.2074
  433MOL0     C57057   7.954   5.063   4.550 -0.1839 -0.1348  0.1332
  433MOL0     C57058   7.880   5.073   4.427 -0.6063  0.2823 -0.6122
  433MOL0     O57059   7.747   5.096   4.427 -1.0233  0.5627  0.5920
  433MOL0     C57060   7.673   5.133   4.549 -0.8321  0.0387 -0.1769
  433MOL0     C57061   7.531   5.086   4.511  0.2577 -0.6275 -0.2576
  433MOL0     C57062   7.434   5.099   4.638 -0.5697 -0.1573 -0.4774
  433MOL0     C57063   7.297   5.067   4.599 -0.5064 -0.0213 -0.2961
  433MOL0     C57064   7.199   5.052   4.731 -0.1195  0.0141 -0.4876
  433MOL0     C57065   7.048   5.084   4.711 -0.7597  0.1448 -0.6944
  433MOL0     C57066   6.979   5.046   4.842 -0.1114  0.2839  0.5641
  433MOL0     C57067   6.824   5.063   4.836 -0.2220 -0.0694 -0.1800
  433MOL0    Cl57068   6.789   5.237   4.823  0.0402 -0.0132  0.0366
  433MOL0     C57069   7.939   5.054   4.307  0.0573  0.4042  0.0692
  433MOL0     C57070   8.074   5.029   4.294 -0.2280 -0.6099  0.2204
  433MOL0     O57071   8.369   5.091   4.588 -0.7735 -0.2436  0.8571
  433MOL0     C57072   8.548   4.885   4.350 -0.7874  0.4620 -0.3807
  433MOL0     C57073   8.663   4.810   4.338  0.2152 -0.8086 -0.2096
  433MOL0     N57074   9.372   4.884   4.753  0.0776  0.2544 -0.0693
  433MOL0     N57075   9.471   4.872   4.837 -0.4104  0.2578 -0.8356
  433MOL0     C57076  10.609   4.941   4.448 -0.3476 -0.9197 -0.4797
  433MOL0     C57077  10.726   5.006   4.403 -0.3727 -0.0418  0.6513
  433MOL0     C57078  10.998   5.343   4.249  0.0218  0.5593 -0.2107
  433MOL0     C57079  11.002   5.407   4.125 -0.4206  0.1093  0.1826
  433MOL0     C57080  11.119   5.477   4.093 -0.1242 -0.2335  0.2632
  433MOL0     C57081  11.237   5.468   4.162  0.5292  0.7095  0.4530
  433MOL0     O57082  11.336   5.541   4.107  0.2148 -0.1277 -0.2046
  433MOL0     C57083  11.435   5.597   4.192  0.9367 -0.5330  0.2933
  433MOL0     C57084  11.557   5.669   4.128 -0.2651  0.4987  0.4004
  433MOL0     C57085  11.582   5.620   3.981  0.2306 -0.0658  0.0063
  433MOL0     C57086  11.723   5.673   3.932 -0.4152  0.1799  0.5423
  433MOL0     C57087  11.824   5.567   3.920 -0.1124  0.2076  0.9728
  433MOL0     C57088  11.896   5.471   3.927 -0.1936  0.5162  0.0581
  433MOL0     C57089  11.241   5.394   4.274  0.2520  0.6896 -1.0048
  433MOL0     C57090  11.116   5.339   4.326 -0.3128  0.1692 -0.2421
  433MOL0     H57091  10.664   5.303   4.568  3.0325  0.0961 -0.0594
  433MOL0     H57092  10.475   5.181   4.640 -0.5097 -0.0728 -1.2213
  433MOL0     H57093  10.504   4.793   4.670  0.5532  1.5422 -0.5689
  433MOL0     H57094  10.406   4.753   4.517 -0.9102  2.6495 -2.0714
  433MOL0     H57095  10.281   4.880   4.764 -0.3601 -1.1920  1.8194
  433MOL0     H57096  10.309   4.710   4.753 -1.4314  1.1567  3.1036
  433MOL0     H57097  10.184   4.701   4.538 -1.4244 -1.7898  1.4729
  433MOL0     H57098  10.151   4.873   4.547 -0.6412  0.2669  0.5409
  433MOL0     H57099  10.030   4.663   4.737  0.3269 -0.0300 -0.4359
  433MOL0     H57100  10.052   4.841   4.771 -0.6612 -0.1522  0.7481
  433MOL0     H57101   9.919   4.700   4.543  2.2158 -0.5035  0.6664
  433MOL0     H57102   9.931   4.879   4.563  2.2791 -0.4445 -0.3675
  433MOL0     H57103   9.715   4.817   4.625  1.3629 -2.7264 -2.3448
  433MOL0     H57104   9.805   4.878   4.770 -1.6626  1.2276 -0.4195
  433MOL0     H57105   9.733   4.584   4.712 -1.9360  0.4235  1.0230
  433MOL0     H57106   9.847   4.638   4.838  0.9148  1.8863 -0.4078
  433MOL0     H57107   9.691   4.771   4.953  0.3256 -0.3975  0.3110
  433MOL0     H57108   9.629   4.610   4.929 -2.4626  0.0265 -0.5925
  433MOL0     H57109   9.473   4.583   4.672  0.1430  0.0631 -2.0567
  433MOL0     H57110   9.291   4.732   4.475  0.1513  1.3250  0.2718
  433MOL0     H57111   9.183   4.830   4.579 -3.2525 -1.6575  0.2750
  433MOL0     H57112   9.143   4.601   4.700  0.2292 -0.6451  0.0399
  433MOL0     H57113   9.247   4.528   4.571  0.6922  0.0676 -2.3102
  433MOL0     H57114   9.088   4.612   4.403  0.2740  1.4156  1.0552
  433MOL0     H57115   9.011   4.490   4.506  2.0496 -0.7976  1.8059
  433MOL0     H57116   8.993   4.780   4.581 -0.9804  1.3564 -1.1074
  433MOL0     H57117   8.871   4.652   4.619 -0.4685 -4.8244 -1.9886
  433MOL0     H57118   8.809   4.909   4.627 -1.5802 -0.0954  1.3457
  433MOL0     H57119   8.606   5.005   4.666  1.8234  0.3116 -0.7616
  433MOL0     H57120   8.144   5.029   4.623  0.3699 -2.0504 -1.0624
  433MOL0     H57121   7.905   5.078   4.646 -1.3952 -3.8691  0.2401
  433MOL0     H57122   7.686   5.241   4.556  1.5597 -0.1318 -1.0020
  433MOL0     H57123   7.715   5.088   4.639 -0.6280  0.4590 -0.0636
  433MOL0     H57124   7.541   4.983   4.474 -0.1923 -1.0618  0.7911
  433MOL0     H57125   7.490   5.152   4.435  0.7464  1.7916  1.4802
  433MOL0     H57126   7.434   5.197   4.686  1.9944 -0.4098  0.1930
  433MOL0     H57127   7.472   5.031   4.715  0.4044 -0.9628 -1.6273
  433MOL0     H57128   7.253   5.142   4.531  0.0005 -0.9219 -1.6456
  433MOL0     H57129   7.288   4.977   4.537  0.5550 -0.6190  0.3977
  433MOL0     H57130   7.238   5.131   4.796  1.3471 -0.1438 -1.1498
  433MOL0     H57131   7.221   4.953   4.773 -1.2966 -1.1350 -2.4236
  433MOL0     H57132   7.006   5.027   4.628 -1.4612  0.1718 -0.3650
  433MOL0     H57133   7.030   5.189   4.687  1.7080  1.1290  1.3711
  433MOL0     H57134   7.009   4.942   4.863  1.0154  0.2704 -0.9377
  433MOL0     H57135   7.027   5.106   4.920 -0.1546 -0.6711  1.3472
  433MOL0     H57136   6.759   5.029   4.918 -2.4581  1.7635 -1.0852
  433MOL0     H57137   6.790   5.012   4.745 -1.7062  1.1867 -0.3649
  433MOL0     H57138   7.877   5.059   4.218 -2.3306 -1.6334  1.5008
  433MOL0     H57139   8.095   5.014   4.189  1.3887 -0.6466  0.5237
  433MOL0     H57140   8.475   4.882   4.270 -1.9557 -0.6152  0.6782
  433MOL0     H57141   8.688   4.758   4.247  0.5818  1.6999 -1.6330
  433MOL0     H57142  10.585   4.839   4.419 -0.6866 -2.2914  3.8598
  433MOL0     H57143  10.798   4.953   4.342  0.2360  0.2097  1.1493
  433MOL0     H57144  10.922   5.407   4.051 -0.4389 -1.7718  0.1640
  433MOL0     H57145  11.103   5.541   4.007  1.5054 -0.1652 -0.0083
  433MOL0     H57146  11.475   5.520   4.259  1.4119 -0.7417 -0.2238
  433MOL0     H57147  11.394   5.666   4.266  1.9577 -1.2829  1.6029
  433MOL0     H57148  11.550   5.778   4.128 -0.5289  0.4808 -0.0100
  433MOL0     H57149  11.645   5.636   4.184 -0.6878  0.9168  1.3242
  433MOL0     H57150  11.504   5.657   3.913 -1.4565 -0.2770  1.7253
  433MOL0     H57151  11.578   5.512   3.971  1.9215  0.0102 -2.3413
  433MOL0     H57152  11.707   5.706   3.829  0.7108 -0.1407  0.2518
  433MOL0     H57153  11.765   5.756   3.989 -0.5012  1.2932 -0.9811
  433MOL0     H57154  11.954   5.381   3.928 -2.1150 -0.8014  1.2146
  433MOL0     H57155  11.326   5.381   4.341  0.0567  0.8812 -0.7204
  433MOL0     H57156  11.105   5.291   4.422 -0.3222  2.6722  1.0893
  434MOL0     O57157   0.416   8.002   5.684  0.8308 -0.6454  0.1869
  434MOL0     C57158   0.513   8.051   5.637 -0.9784  0.4168 -0.6170
  434MOL0     O57159   0.549   8.053   5.505  0.2935 -0.0417 -0.2080
  434MOL0     C57160   0.441   8.047   5.420  0.5454 -0.2861  0.2456
  434MOL0     C57161   0.305   8.091   5.456 -0.5641 -0.1881 -0.4294
  434MOL0     C57162   0.199   8.059   5.371  0.1964 -0.1391 -0.2044
  434MOL0     C57163   0.215   7.984   5.250 -0.6017  1.0055 -0.0479
  434MOL0     O57164   0.128   7.937   5.151 -0.9991  0.3302 -0.0760
  434MOL0     C57165  -0.008   7.989   5.168 -0.6285  0.2285 -0.2939
  434MOL0     C57166  -0.090   7.960   5.043  0.2292 -1.0101 -0.4978
  434MOL0     C57167  -0.031   8.026   4.914  0.9211 -0.3125 -0.1200
  434MOL0     C57168  -0.097   7.978   4.786  0.1069 -0.1774  0.3607
  434MOL0     C57169  -0.246   7.996   4.783 -0.8352  0.0325  0.4056
  434MOL0     C57170  -0.287   8.144   4.779 -0.5224  0.2520 -0.0247
  434MOL0     C57171  -0.430   8.172   4.731 -0.4701 -0.0371  1.0463
  434MOL0     C57172  -0.538   8.114   4.819 -0.7521 -0.1531 -0.3216
  434MOL0     N57173  -0.673   8.147   4.759 -0.6849 -0.1819 -0.0815
  434MOL0     C57174  -0.780   8.160   4.842  0.4543  0.8560 -0.2526
  434MOL0     C57175  -0.884   8.170   4.752  0.0829 -0.1416 -0.0923
  434MOL0     C57176  -1.026   8.194   4.796  0.2035  1.3198  0.3317
  434MOL0     C57177  -1.122   8.149   4.690  0.7676  0.1012  0.4598
  434MOL0     C57178  -1.262   8.192   4.750 -0.4280 -0.1744 -0.1267
  434MOL0     C57179  -1.370   8.154   4.659  0.0184  0.0036  0.3049
  434MOL0     O57180  -1.367   8.008   4.656  0.3213 -0.7518 -0.9219
  434MOL0     C57181  -1.479   7.932   4.657 -0.3140  0.3145  0.2595
  434MOL0     C57182  -1.612   7.984   4.688  0.2857 -0.2797 -0.0811
  434MOL0     C57183  -1.725   7.892   4.688  0.3897  0.4053  0.3660
  434MOL0     C57184  -1.714   7.750   4.662  0.0586 -0.0025 -0.4229
  434MOL0     C57185  -1.831   7.662   4.656  0.6344 -0.3269  0.8442
  434MOL0     O57186  -1.947   7.724   4.637 -0.2129 -0.2052 -0.2882
  434MOL0     C57187  -2.058   7.656   4.596 -0.9721  0.3790 -0.0878
  434MOL0     C57188  -2.121   7.568   4.679 -0.3168 -1.0845 -0.5358
  434MOL0     C57189  -2.241   7.502   4.643  0.4115  0.4710 -0.3614
  434MOL0     C57190  -2.291   7.516   4.513  0.1838 -0.3341  0.5225
  434MOL0     O57191  -2.402   7.434   4.484  0.0810  0.2040 -0.3417
  434MOL0     C57192  -2.448   7.422   4.354  0.4117  0.4485 -0.4439
  434MOL0     C57193  -2.569   7.515   4.328 -0.8803  0.8046  0.1705
  434MOL0     C57194  -2.675   7.506   4.434  0.2835  0.2056  0.2333
  434MOL0     C57195  -2.798   7.573   4.384  0.1165  0.8115 -0.9154
  434MOL0     C57196  -2.891   7.625   4.494  0.2070  0.9972 -0.5110
  434MOL0     C57197  -3.012   7.694   4.426  0.5380 -0.0473  0.4874
  434MOL0     C57198  -3.139   7.657   4.512 -0.5530 -0.4927  0.0500
  434MOL0     C57199  -3.264   7.692   4.420 -0.7416 -0.3186  0.2476
  434MOL0    Cl57200  -3.421   7.700   4.520  0.0105  0.4403 -0.1741
  434MOL0     C57201  -2.224   7.609   4.417 -0.3813  0.6025 -0.7734
  434MOL0     C57202  -2.109   7.676   4.468  0.4795  0.0157  0.2610
  434MOL0     O57203  -1.815   7.537   4.652 -0.0589 -0.5783 -0.6851
  434MOL0     C57204  -1.581   7.708   4.640 -0.4566 -0.1921 -1.0229
  434MOL0     C57205  -1.469   7.796   4.630  0.8966  0.1600 -0.2947
  434MOL0     N57206  -0.836   8.158   4.622  0.4493  0.6215 -0.3314
  434MOL0     N57207  -0.710   8.135   4.628 -0.1829  0.0250  0.2115
  434MOL0     C57208   0.351   7.947   5.217 -0.2140 -0.1414  0.3531
  434MOL0     C57209   0.456   7.976   5.302  0.0909 -0.2993 -0.2389
  434MOL0     C57210   0.608   8.090   5.741  0.2527 -0.9212  0.5863
  434MOL0     C57211   0.728   8.154   5.707  0.1214 -0.0680 -0.1696
  434MOL0     C57212   0.823   8.208   5.808 -0.1666  0.3032  0.4371
  434MOL0     C57213   0.790   8.174   5.940 -0.4305 -0.6375 -0.3152
  434MOL0     O57214   0.862   8.232   6.050  0.3568 -0.1402 -0.3998
  434MOL0     C57215   1.008   8.222   6.043  0.2234  1.1316  1.2734
  434MOL0     C57216   1.062   8.318   6.147  0.0037 -0.6235  0.9620
  434MOL0     C57217   1.217   8.314   6.139 -0.2276 -0.2382  0.2778
  434MOL0     C57218   1.271   8.430   6.219  0.1067  0.5757 -0.2330
  434MOL0     C57219   1.414   8.401   6.245  0.2750  0.4186  0.9383
  434MOL0     C57220   1.529   8.388   6.265 -0.2995  0.0836 -0.2098
  434MOL0     C57221   0.671   8.112   5.980  1.1352 -0.6786 -0.7266
  434MOL0     C57222   0.583   8.064   5.880  0.0487 -0.7694  0.5465
  434MOL0     H57223   0.282   8.157   5.540  0.0665 -1.3352  0.6706
  434MOL0     H57224   0.102   8.090   5.409 -0.1445  0.3270 -1.4001
  434MOL0     H57225  -0.016   8.092   5.202  1.7134  0.1370  0.7570
  434MOL0     H57226  -0.042   7.928   5.253  0.2958 -0.5522 -0.4708
  434MOL0     H57227  -0.189   8.000   5.068  0.6031  1.0399 -2.0446
  434MOL0     H57228  -0.104   7.853   5.028  0.6667 -1.0592 -0.5640
  434MOL0     H57229   0.078   8.017   4.910  0.9517 -0.4489  0.7311
  434MOL0     H57230  -0.043   8.134   4.928  1.6207 -0.4359  1.7285
  434MOL0     H57231  -0.050   8.041   4.711  0.8162 -2.0274 -0.8251
  434MOL0     H57232  -0.073   7.873   4.764  0.4736  0.4251 -2.4230
  434MOL0     H57233  -0.300   7.944   4.862  0.2040 -0.9578  0.4830
  434MOL0     H57234  -0.277   7.950   4.689  3.1685  0.1301 -1.1533
  434MOL0     H57235  -0.224   8.196   4.705 -0.7278  0.8672  0.2235
  434MOL0     H57236  -0.275   8.193   4.876  1.2912 -0.2438  0.0373
  434MOL0     H57237  -0.449   8.279   4.724 -1.6040 -0.2790  0.0834
  434MOL0     H57238  -0.437   8.138   4.627  0.6837  3.6075 -0.3624
  434MOL0     H57239  -0.525   8.138   4.925  0.5210 -3.1460  0.3044
  434MOL0     H57240  -0.530   8.005   4.811  0.4839  0.0670 -3.9528
  434MOL0     H57241  -0.777   8.172   4.950  1.4426 -0.7551 -0.0688
  434MOL0     H57242  -1.036   8.301   4.819  0.7435  0.8746  2.9555
  434MOL0     H57243  -1.044   8.140   4.889 -1.8673 -4.2716 -2.8310
  434MOL0     H57244  -1.109   8.040   4.685  2.1648  0.2417  0.6207
  434MOL0     H57245  -1.108   8.192   4.590 -0.0715  1.8073  1.0328
  434MOL0     H57246  -1.284   8.142   4.845 -5.4744 -1.6899 -1.7998
  434MOL0     H57247  -1.260   8.298   4.779  0.1269 -0.8927  2.8202
  434MOL0     H57248  -1.351   8.197   4.560  1.3208  0.4841  0.7476
  434MOL0     H57249  -1.457   8.203   4.705  0.6466  1.8653 -0.4038
  434MOL0     H57250  -1.613   8.090   4.715  3.3752  0.0183 -0.7101
  434MOL0     H57251  -1.820   7.945   4.693  0.4437  0.5428 -0.0430
  434MOL0     H57252  -2.086   7.538   4.777 -0.6314 -0.1844 -0.1328
  434MOL0     H57253  -2.302   7.429   4.694 -0.3392 -0.2465 -2.1918
  434MOL0     H57254  -2.490   7.321   4.343  0.2246  0.4832 -0.0543
  434MOL0     H57255  -2.372   7.430   4.276 -0.2309  3.0595 -0.8953
  434MOL0     H57256  -2.613   7.492   4.230 -3.0197 -0.6200  1.3988
  434MOL0     H57257  -2.538   7.620   4.326  2.1655  0.0057 -0.4753
  434MOL0     H57258  -2.637   7.541   4.530 -2.4960 -0.5914  1.7416
  434MOL0     H57259  -2.690   7.400   4.460 -0.0130  0.6374  1.9441
  434MOL0     H57260  -2.781   7.654   4.313 -1.3239  2.2654  0.3014
  434MOL0     H57261  -2.857   7.502   4.325  0.3827 -1.1550  1.0439
  434MOL0     H57262  -2.849   7.691   4.570 -0.5035  0.6026  0.2413
  434MOL0     H57263  -2.919   7.533   4.546 -0.3002  1.6532  0.4064
  434MOL0     H57264  -3.033   7.657   4.325 -0.1621 -0.8701  0.9276
  434MOL0     H57265  -2.994   7.802   4.420 -1.8851  0.5263  2.0645
  434MOL0     H57266  -3.138   7.548   4.524  0.6898 -0.5767 -0.6328
  434MOL0     H57267  -3.140   7.709   4.609 -1.5037  0.3856 -0.4142
  434MOL0     H57268  -3.276   7.616   4.343  0.1721  0.6907 -0.9280
  434MOL0     H57269  -3.239   7.785   4.367 -0.0749 -1.4868 -1.5623
  434MOL0     H57270  -2.257   7.626   4.315 -0.9449 -3.4213 -1.3921
  434MOL0     H57271  -2.081   7.759   4.403 -3.4747  0.2724 -1.4054
  434MOL0     H57272  -1.576   7.605   4.605 -2.1408  0.3787 -3.2043
  434MOL0     H57273  -1.369   7.755   4.621 -0.1040 -2.6255  0.2498
  434MOL0     H57274   0.367   7.892   5.124  5.4730  0.8704  0.3401
  434MOL0     H57275   0.557   7.938   5.287  0.6061  0.9822 -0.1636
  434MOL0     H57276   0.769   8.156   5.606  2.2492 -0.9730  0.6008
  434MOL0     H57277   0.907   8.270   5.780 -0.2515  0.3204  0.2156
  434MOL0     H57278   1.047   8.246   5.943  0.4269  2.0024  1.5559
  434MOL0     H57279   1.042   8.123   6.074  3.1846  2.2552  1.9723
  434MOL0     H57280   1.032   8.421   6.125  1.7275 -0.0096  1.3268
  434MOL0     H57281   1.019   8.293   6.245 -0.5494 -0.4963  0.7568
  434MOL0     H57282   1.260   8.318   6.038  0.6017  1.8909  0.6656
  434MOL0     H57283   1.258   8.221   6.180 -1.6598 -0.0728  2.2256
  434MOL0     H57284   1.259   8.524   6.164 -0.3911  0.4475 -0.3537
  434MOL0     H57285   1.207   8.446   6.306  0.8510  1.7106  0.1178
  434MOL0     H57286   1.633   8.383   6.287 -0.4234 -0.4992  0.2620
  434MOL0     H57287   0.668   8.092   6.087 -1.5681 -1.4706 -0.8746
  434MOL0     H57288   0.492   8.010   5.905 -0.1725 -1.3751 -1.3625
  435MOL0     O57289   1.313   7.701  11.048 -0.6061 -0.5031  0.3248
  435MOL0     C57290   1.363   7.668  10.940 -1.1857  0.6681  0.5891
  435MOL0     O57291   1.297   7.626  10.827 -0.0018  0.6755 -0.0375
  435MOL0     C57292   1.159   7.623  10.828  0.9434 -0.1744  0.0705
  435MOL0     C57293   1.098   7.641  10.700 -0.6058  0.1385  0.3675
  435MOL0     C57294   0.964   7.649  10.684  0.4977 -0.4889 -1.2049
  435MOL0     C57295   0.877   7.638  10.793 -0.0545 -0.0431  0.9347
  435MOL0     O57296   0.738   7.644  10.784 -0.2026 -0.5346  0.5067
  435MOL0     C57297   0.679   7.640  10.655  0.5780  0.3665 -0.0609
  435MOL0     C57298   0.531   7.664  10.677 -0.3637 -0.8124  0.1309
  435MOL0     C57299   0.447   7.642  10.556  0.1544  0.1194 -0.1835
  435MOL0     C57300   0.301   7.670  10.603 -1.4626  0.1841 -0.1154
  435MOL0     C57301   0.193   7.668  10.493  0.1073 -0.4318 -0.1298
  435MOL0     C57302   0.058   7.723  10.546 -0.1703 -0.5994  0.9286
  435MOL0     C57303  -0.049   7.736  10.438 -0.1752 -0.9154 -0.0771
  435MOL0     C57304  -0.186   7.769  10.506 -0.1464  0.1025  0.5430
  435MOL0     N57305  -0.276   7.807  10.400  0.6487 -0.0359  0.2101
  435MOL0     C57306  -0.345   7.725  10.314  0.1225  0.4632 -0.6362
  435MOL0     C57307  -0.405   7.807  10.226  0.0147  0.6596 -1.0601
  435MOL0     C57308  -0.475   7.753  10.102  0.1894  0.2337 -0.4286
  435MOL0     C57309  -0.516   7.873  10.011  0.6813 -0.1918  0.2494
  435MOL0     C57310  -0.561   7.839   9.869  1.3518 -0.1871  0.3044
  435MOL0     C57311  -0.589   7.956   9.783  0.4350  0.1736  0.3623
  435MOL0     O57312  -0.678   8.051   9.843  0.2805  0.5968  0.0434
  435MOL0     C57313  -0.809   8.047   9.793 -0.0029 -0.3944  0.1620
  435MOL0     C57314  -0.896   8.152   9.831 -0.0571 -0.7185  0.7173
  435MOL0     C57315  -1.032   8.165   9.795 -1.1553 -0.0999  0.2923
  435MOL0     C57316  -1.094   8.059   9.724 -0.5136  0.2539 -0.3326
  435MOL0     C57317  -1.244   8.065   9.707 -0.6582  0.1806 -0.5350
  435MOL0     O57318  -1.307   8.183   9.708 -0.2158 -0.1298  0.0976
  435MOL0     C57319  -1.443   8.184   9.696 -0.4334 -0.0947 -0.5047
  435MOL0     C57320  -1.520   8.256   9.784  0.0968  0.7616 -0.5331
  435MOL0     C57321  -1.656   8.243   9.780  0.2798 -0.2311  0.7577
  435MOL0     C57322  -1.717   8.187   9.668  0.4241  0.1062 -0.2890
  435MOL0     O57323  -1.857   8.168   9.654 -0.0330 -0.3515  0.1582
  435MOL0     C57324  -1.932   8.274   9.722  0.2848  1.3802  0.2509
  435MOL0     C57325  -2.084   8.256   9.693  0.1086  0.3016 -0.4072
  435MOL0     C57326  -2.142   8.116   9.732  0.3860  0.0601 -0.5742
  435MOL0     C57327  -2.297   8.118   9.747 -0.2116 -1.4052  0.9596
  435MOL0     C57328  -2.368   8.106   9.614 -0.1589  0.2218  0.0666
  435MOL0     C57329  -2.526   8.124   9.625  0.3047 -0.3878 -0.1236
  435MOL0     C57330  -2.595   8.172   9.502 -0.9177 -0.7568  0.2627
  435MOL0     C57331  -2.740   8.201   9.530  0.0500  0.0180  0.1168
  435MOL0    Cl57332  -2.831   8.061   9.574 -0.0555 -0.1040  0.1256
  435MOL0     C57333  -1.642   8.129   9.566 -0.4966  0.8739  0.3379
  435MOL0     C57334  -1.504   8.129   9.580 -0.4887 -0.2428  0.7312
  435MOL0     O57335  -1.298   7.950   9.700  0.0643 -0.0787 -0.5630
  435MOL0     C57336  -1.014   7.949   9.697  0.8616  0.1749  0.7977
  435MOL0     C57337  -0.878   7.944   9.726  0.2904  0.2880 -0.8575
  435MOL0     N57338  -0.369   7.932  10.262 -0.4227  0.3642 -0.2653
  435MOL0     N57339  -0.291   7.940  10.368 -0.3398 -0.0043  0.2813
  435MOL0     C57340   0.927   7.610  10.918  0.2127  0.3402  0.3607
  435MOL0     C57341   1.063   7.605  10.935 -0.3533 -0.3868 -0.2482
  435MOL0     C57342   1.511   7.651  10.928  0.6782  0.2180  0.0037
  435MOL0     C57343   1.605   7.690  11.022 -0.0548  0.2074 -0.4393
  435MOL0     C57344   1.745   7.683  11.008 -0.0847 -0.3986 -0.6067
  435MOL0     C57345   1.800   7.627  10.893 -0.1319  0.0099  0.8091
  435MOL0     O57346   1.935   7.611  10.884  0.2092 -0.5849  0.1525
  435MOL0     C57347   1.992   7.666  10.761  0.0534  0.1475 -0.0805
  435MOL0     C57348   2.023   7.816  10.753  0.6113  0.3595  0.1507
  435MOL0     C57349   2.177   7.853  10.765  0.6733  0.2060  0.2255
  435MOL0     C57350   2.230   7.817  10.904  0.8166  0.0597  0.3410
  435MOL0     C57351   2.374   7.835  10.892 -1.2403 -0.0457 -0.4147
  435MOL0     C57352   2.496   7.858  10.896 -0.4808 -0.5064  0.0430
  435MOL0     C57353   1.709   7.568  10.801  0.4755  0.6883  0.4870
  435MOL0     C57354   1.567   7.585  10.813 -1.1906  0.4902  0.6226
  435MOL0     H57355   1.160   7.653  10.611 -1.7220 -2.1335 -0.8334
  435MOL0     H57356   0.927   7.669  10.583  2.6064 -0.9857 -2.1313
  435MOL0     H57357   0.695   7.541  10.612  2.2085  1.0285 -1.0346
  435MOL0     H57358   0.707   7.720  10.586 -1.1874 -0.1439 -1.4611
  435MOL0     H57359   0.507   7.763  10.717 -2.0312 -0.4513 -1.5988
  435MOL0     H57360   0.496   7.594  10.754  1.1455  0.8091  2.4041
  435MOL0     H57361   0.463   7.542  10.515  0.2700  0.5469 -1.1985
  435MOL0     H57362   0.466   7.718  10.480 -0.4013 -0.5092 -0.9594
  435MOL0     H57363   0.269   7.598  10.679 -0.5120  0.5144  0.6173
  435MOL0     H57364   0.290   7.764  10.657 -0.8535 -0.8952  2.0096
  435MOL0     H57365   0.175   7.568  10.452  1.6048  0.1984 -2.4608
  435MOL0     H57366   0.219   7.734  10.410 -0.8004 -3.7907 -3.3269
  435MOL0     H57367   0.069   7.822  10.590 -0.8564 -0.2878  0.4126
  435MOL0     H57368   0.018   7.645  10.612  1.5866 -2.1884  0.1935
  435MOL0     H57369  -0.028   7.824  10.377 -1.7112  1.8874  3.0893
  435MOL0     H57370  -0.050   7.642  10.382  0.8331 -1.9787  1.6151
  435MOL0     H57371  -0.163   7.852  10.573  0.9910  1.6238 -1.6068
  435MOL0     H57372  -0.223   7.685  10.566  3.2712 -1.2206  1.0317
  435MOL0     H57373  -0.361   7.619  10.327 -1.3028  0.6892 -0.3579
  435MOL0     H57374  -0.569   7.704  10.129 -1.7409  3.5316 -0.5117
  435MOL0     H57375  -0.409   7.680  10.054  2.5984  1.6110  0.6235
  435MOL0     H57376  -0.426   7.934  10.000 -0.1525  0.9685 -0.3215
  435MOL0     H57377  -0.600   7.920  10.062 -1.0785 -2.2940 -0.5331
  435MOL0     H57378  -0.481   7.778   9.826  0.2890 -1.1151 -0.4309
  435MOL0     H57379  -0.650   7.776   9.878  2.3020 -1.5081  0.6935
  435MOL0     H57380  -0.633   7.926   9.687  0.6907  2.2569 -0.4737
  435MOL0     H57381  -0.501   8.018   9.761  1.0646 -1.0545 -0.6995
  435MOL0     H57382  -0.845   8.224   9.895  0.8840 -0.3043 -0.4656
  435MOL0     H57383  -1.099   8.248   9.814 -2.5242 -1.1599  0.2616
  435MOL0     H57384  -1.470   8.308   9.865 -1.7252  0.1020  1.0892
  435MOL0     H57385  -1.712   8.298   9.855  0.5741 -1.3673  1.8396
  435MOL0     H57386  -1.899   8.374   9.692 -1.2595  1.7426 -0.3410
  435MOL0     H57387  -1.910   8.263   9.829  0.1514 -0.7063  0.1095
  435MOL0     H57388  -2.108   8.277   9.588 -3.8441 -0.9486  0.0873
  435MOL0     H57389  -2.132   8.333   9.754  0.0774  0.3113 -0.4432
  435MOL0     H57390  -2.102   8.088   9.830 -0.3354 -0.0939 -0.3153
  435MOL0     H57391  -2.111   8.039   9.660  1.0476 -1.7551  1.5448
  435MOL0     H57392  -2.331   8.034   9.808 -0.9473 -2.2716 -0.5890
  435MOL0     H57393  -2.330   8.216   9.783  2.5351  0.3465 -0.9112
  435MOL0     H57394  -2.344   8.012   9.563  0.4999  1.2828 -1.6775
  435MOL0     H57395  -2.345   8.185   9.542 -1.5741 -1.1681 -2.0196
  435MOL0     H57396  -2.551   8.188   9.711  3.4342 -2.7119  2.7933
  435MOL0     H57397  -2.567   8.027   9.654 -2.5209  0.1307 -2.0109
  435MOL0     H57398  -2.545   8.258   9.455  0.2112 -1.0589  0.8697
  435MOL0     H57399  -2.592   8.100   9.420  3.9637 -0.8557  0.2112
  435MOL0     H57400  -2.791   8.235   9.439 -0.8386  0.7394  0.8618
  435MOL0     H57401  -2.753   8.282   9.602 -0.9114  1.3693 -1.4897
  435MOL0     H57402  -1.690   8.072   9.487 -0.0681  0.5602  0.3030
  435MOL0     H57403  -1.463   8.071   9.498  0.7826  1.4737  0.0878
  435MOL0     H57404  -1.052   7.854   9.661 -1.9251  1.2593  0.6257
  435MOL0     H57405  -0.826   7.849   9.722  0.6842  0.4206  0.6684
  435MOL0     H57406   0.849   7.588  10.990  0.7958 -2.8190  0.1452
  435MOL0     H57407   1.106   7.589  11.033 -1.8036  1.9383  0.8322
  435MOL0     H57408   1.575   7.740  11.113 -0.1984  1.6002 -1.2125
  435MOL0     H57409   1.815   7.716  11.084  0.5198 -1.9830 -0.4368
  435MOL0     H57410   1.925   7.637  10.680  0.8996  1.3638 -1.2655
  435MOL0     H57411   2.084   7.607  10.749 -0.9724 -1.3515 -0.8419
  435MOL0     H57412   1.976   7.842  10.657 -2.7693 -0.1385  1.5295
  435MOL0     H57413   1.962   7.879  10.818 -0.8170  2.6484 -3.0963
  435MOL0     H57414   2.189   7.959  10.743  0.9147 -0.1583 -1.5573
  435MOL0     H57415   2.231   7.798  10.687 -0.4339  1.0431 -1.1891
  435MOL0     H57416   2.196   7.888  10.980  0.3229 -1.5933  1.6959
  435MOL0     H57417   2.208   7.718  10.942 -0.5696  0.6237  1.0626
  435MOL0     H57418   2.600   7.884  10.899 -0.4758  0.0015 -2.3209
  435MOL0     H57419   1.757   7.511  10.722  1.0354  1.6773  0.0901
  435MOL0     H57420   1.509   7.541  10.732  2.9518 -0.6662 -2.0213
  436MOL0     O57421   7.299   2.524   0.916  0.1416  0.3338 -0.8248
  436MOL0     C57422   7.394   2.597   0.942 -0.1056  0.9912 -0.7732
  436MOL0     O57423   7.384   2.733   0.968  0.0174  0.3051 -0.3586
  436MOL0     C57424   7.275   2.806   0.931  0.3443 -0.2849  0.4465
  436MOL0     C57425   7.153   2.788   0.990 -0.0025 -0.1126  0.4944
  436MOL0     C57426   7.051   2.870   0.954 -0.2220 -0.2105  0.9037
  436MOL0     C57427   7.061   2.975   0.857 -0.4909 -0.0065 -1.0269
  436MOL0     O57428   6.964   3.059   0.804 -0.0251 -0.2872 -0.5099
  436MOL0     C57429   6.853   3.072   0.893  0.2701  0.2469 -0.7591
  436MOL0     C57430   6.767   3.188   0.860  0.2568 -0.6345  0.4623
  436MOL0     C57431   6.648   3.202   0.963 -0.1555 -0.1443  0.2548
  436MOL0     C57432   6.548   3.308   0.915  0.2621 -0.5266 -0.4510
  436MOL0     C57433   6.459   3.368   1.034  0.7645  0.8290  0.5181
  436MOL0     C57434   6.388   3.258   1.114  0.4793 -0.4809  0.1039
  436MOL0     C57435   6.317   3.303   1.242 -0.7144  0.3859 -0.2222
  436MOL0     C57436   6.231   3.427   1.224 -0.0036 -0.6564 -1.0277
  436MOL0     N57437   6.117   3.404   1.133 -0.5135  0.0625  0.2810
  436MOL0     C57438   6.023   3.306   1.159  0.5705  0.7783  0.6976
  436MOL0     C57439   5.939   3.310   1.045  0.5045  0.2312 -0.5101
  436MOL0     C57440   5.815   3.228   1.027  0.1409 -0.5978  0.4328
  436MOL0     C57441   5.692   3.322   1.007  0.4098  0.3213  0.5823
  436MOL0     C57442   5.562   3.240   1.014 -0.1477 -0.0256  0.7164
  436MOL0     C57443   5.442   3.329   1.027 -0.0452  0.4128 -0.4993
  436MOL0     O57444   5.322   3.247   1.025 -0.7811  0.2647  0.3626
  436MOL0     C57445   5.198   3.297   1.039  0.1551  0.1040 -0.1692
  436MOL0     C57446   5.092   3.204   1.037  0.4302  0.1019 -0.1135
  436MOL0     C57447   4.960   3.255   1.031  0.2177 -0.3339 -0.3013
  436MOL0     C57448   4.933   3.394   1.021 -0.6713  0.8111  0.5927
  436MOL0     C57449   4.797   3.444   1.011 -0.1545  0.5618 -0.2481
  436MOL0     O57450   4.697   3.351   1.012 -0.0248  0.0062  0.1199
  436MOL0     C57451   4.565   3.389   0.997  0.0088 -0.3214 -0.6786
  436MOL0     C57452   4.482   3.350   1.099  0.2353 -0.7852 -0.5459
  436MOL0     C57453   4.345   3.385   1.095  0.4006  0.1664 -0.2907
  436MOL0     C57454   4.297   3.468   0.993 -0.6909 -0.3790  1.0032
  436MOL0     O57455   4.171   3.523   0.992 -0.0120 -0.0460 -0.6462
  436MOL0     C57456   4.073   3.454   1.072 -0.0283  0.0480 -0.1227
  436MOL0     C57457   3.940   3.529   1.062 -0.2197 -0.0243  0.0972
  436MOL0     C57458   3.822   3.436   1.070 -0.2452  0.3534  0.2597
  436MOL0     C57459   3.694   3.517   1.048  1.0764 -0.0886  0.1121
  436MOL0     C57460   3.568   3.428   1.077 -0.8226 -0.6551  0.2872
  436MOL0     C57461   3.435   3.489   1.043 -0.5316 -0.6827 -0.3197
  436MOL0     C57462   3.411   3.560   0.908  0.3170  0.0610 -1.4369
  436MOL0     C57463   3.464   3.491   0.781  0.0841  0.6906  0.6830
  436MOL0    Cl57464   3.407   3.321   0.774  0.7856 -0.2611 -0.4748
  436MOL0     C57465   4.383   3.501   0.898 -0.6375  0.4375  0.0965
  436MOL0     C57466   4.522   3.466   0.893 -0.1741  0.0079  0.1064
  436MOL0     O57467   4.787   3.567   0.990  0.7550 -0.5498  0.0730
  436MOL0     C57468   5.043   3.482   1.026  0.7300  0.0363 -1.6131
  436MOL0     C57469   5.173   3.432   1.037 -0.6891 -0.8578 -0.3673
  436MOL0     N57470   5.994   3.394   0.954 -0.0873 -0.2305 -0.1619
  436MOL0     N57471   6.092   3.460   1.012 -0.2144  0.3270 -0.3971
  436MOL0     C57472   7.183   2.993   0.790  1.3988  0.5988  0.3303
  436MOL0     C57473   7.293   2.913   0.839 -0.0983  0.6090 -0.4530
  436MOL0     C57474   7.524   2.543   0.961 -0.4902 -0.3977  0.4532
  436MOL0     C57475   7.555   2.408   0.946 -0.2358  0.0777 -0.5262
  436MOL0     C57476   7.680   2.361   0.964 -0.7743  0.8097  0.2438
  436MOL0     C57477   7.789   2.445   1.002 -0.6410  0.2833  0.2754
  436MOL0     O57478   7.920   2.400   1.018  0.0377 -0.6515  0.2288
  436MOL0     C57479   7.945   2.260   1.050  0.6094 -0.0377 -0.7763
  436MOL0     C57480   8.095   2.234   1.072  0.3194  0.7559 -0.3088
  436MOL0     C57481   8.172   2.272   0.941  0.0667  0.5960  0.4804
  436MOL0     C57482   8.304   2.187   0.922  0.0687  0.0487  0.0883
  436MOL0     C57483   8.395   2.196   1.034 -0.5811  0.3098  0.2573
  436MOL0     C57484   8.457   2.224   1.135 -0.0430 -0.2498  0.1385
  436MOL0     C57485   7.758   2.581   1.016 -0.7996 -0.2184 -0.2316
  436MOL0     C57486   7.629   2.628   0.985 -0.5224 -1.0177 -1.0492
  436MOL0     H57487   7.129   2.708   1.060 -1.9230  0.6423  0.7488
  436MOL0     H57488   6.955   2.858   1.002 -0.1815 -1.2266  0.7431
  436MOL0     H57489   6.890   3.094   0.993 -1.9870 -2.0444  0.6945
  436MOL0     H57490   6.785   2.987   0.898 -0.4942  0.9163  2.1934
  436MOL0     H57491   6.735   3.182   0.755  2.9535 -2.9063 -0.3519
  436MOL0     H57492   6.825   3.280   0.863  1.7310 -1.5473  2.4475
  436MOL0     H57493   6.698   3.229   1.056  2.0837  0.3634 -1.0202
  436MOL0     H57494   6.588   3.110   0.970 -0.0830 -0.5070 -2.5031
  436MOL0     H57495   6.599   3.394   0.869 -0.4501 -0.7120 -1.6498
  436MOL0     H57496   6.490   3.259   0.836  1.8533 -1.8042 -0.8767
  436MOL0     H57497   6.396   3.452   1.005  0.3069  0.3797  0.1961
  436MOL0     H57498   6.531   3.410   1.105  0.5642  2.2305 -0.0941
  436MOL0     H57499   6.449   3.175   1.153  1.5383 -0.0545 -0.5978
  436MOL0     H57500   6.310   3.218   1.049  0.6267 -2.5925  1.1484
  436MOL0     H57501   6.260   3.220   1.286 -0.0812  0.3187  0.4864
  436MOL0     H57502   6.387   3.321   1.324 -0.6549 -0.8828  0.0178
  436MOL0     H57503   6.289   3.506   1.175  0.3446 -0.0887  0.2356
  436MOL0     H57504   6.205   3.465   1.324  1.2507  0.7724 -1.2024
  436MOL0     H57505   6.004   3.237   1.241  1.1676 -1.4047 -0.9337
  436MOL0     H57506   5.796   3.156   1.107 -2.5548 -2.0158 -1.3041
  436MOL0     H57507   5.818   3.171   0.934 -0.2320 -0.4287  0.3145
  436MOL0     H57508   5.698   3.366   0.907  1.8473 -0.8058  0.1322
  436MOL0     H57509   5.684   3.400   1.084  0.3962 -0.8187  1.7844
  436MOL0     H57510   5.548   3.181   0.923  0.8028 -1.0574  1.2261
  436MOL0     H57511   5.568   3.175   1.102  0.1404  0.8960  1.3910
  436MOL0     H57512   5.436   3.405   0.948  0.2692  3.0573  1.8441
  436MOL0     H57513   5.449   3.382   1.123 -0.5833 -2.6863  1.3991
  436MOL0     H57514   5.116   3.098   1.044 -0.5243 -0.0768  6.1558
  436MOL0     H57515   4.875   3.188   1.023 -1.3497  1.5063  0.2749
  436MOL0     H57516   4.527   3.292   1.180 -0.4027 -0.7287 -0.1463
  436MOL0     H57517   4.285   3.338   1.172  0.8384  1.0628  0.6041
  436MOL0     H57518   4.098   3.450   1.178  2.1267 -0.8890 -0.6170
  436MOL0     H57519   4.058   3.349   1.045 -1.9078 -0.6740  3.1872
  436MOL0     H57520   3.944   3.584   0.967  4.4565 -0.1085  0.0570
  436MOL0     H57521   3.930   3.609   1.136  1.2417  1.3973 -1.1712
  436MOL0     H57522   3.831   3.396   1.172  0.3545 -0.6080 -0.1522
  436MOL0     H57523   3.825   3.356   0.996  2.9676  1.5620 -1.0873
  436MOL0     H57524   3.681   3.616   1.092 -2.1181 -0.0580 -0.6176
  436MOL0     H57525   3.704   3.528   0.939  2.0832 -0.8764  0.1062
  436MOL0     H57526   3.563   3.415   1.186 -3.4019 -0.2373  0.3030
  436MOL0     H57527   3.574   3.328   1.032 -2.5027  0.0439 -1.6471
  436MOL0     H57528   3.415   3.563   1.122 -0.2821 -1.0044  0.0528
  436MOL0     H57529   3.360   3.410   1.054 -0.1859 -0.8775  0.7720
  436MOL0     H57530   3.304   3.580   0.904  0.9035  4.0491 -1.0779
  436MOL0     H57531   3.459   3.658   0.915  1.0084 -0.3399 -0.3190
  436MOL0     H57532   3.573   3.499   0.770 -0.3270  3.3111 -5.1824
  436MOL0     H57533   3.406   3.535   0.700  1.1400 -3.2342 -2.4880
  436MOL0     H57534   4.350   3.564   0.816  3.9949  1.1711 -1.5482
  436MOL0     H57535   4.582   3.485   0.805 -0.4440 -2.1012 -0.6004
  436MOL0     H57536   5.030   3.588   1.044 -2.1984 -0.5828  0.7890
  436MOL0     H57537   5.258   3.498   1.047 -2.6586  1.4903  2.3943
  436MOL0     H57538   7.186   3.072   0.716 -1.3175 -0.9642 -1.5914
  436MOL0     H57539   7.394   2.926   0.803 -0.1717  1.0367 -0.5024
  436MOL0     H57540   7.481   2.338   0.909  0.2700 -1.5812  1.4161
  436MOL0     H57541   7.689   2.256   0.940  0.9505  0.4354  2.2728
  436MOL0     H57542   7.915   2.195   0.967  0.9156  0.8546 -1.6142
  436MOL0     H57543   7.893   2.225   1.139  3.4575 -2.1604  0.1970
  436MOL0     H57544   8.133   2.285   1.161 -1.2011  0.3158  0.6399
  436MOL0     H57545   8.109   2.128   1.094  1.7906  0.9599 -0.2130
  436MOL0     H57546   8.206   2.376   0.936  1.4659  0.1573  0.3575
  436MOL0     H57547   8.115   2.249   0.850  1.8628 -2.1275 -0.0988
  436MOL0     H57548   8.275   2.083   0.902 -1.0315  0.0691  1.4481
  436MOL0     H57549   8.361   2.229   0.839 -0.2949 -0.1079 -0.2448
  436MOL0     H57550   8.507   2.251   1.226  0.7148  0.5645 -0.5010
  436MOL0     H57551   7.843   2.648   1.028 -0.9481  0.1098 -0.9707
  436MOL0     H57552   7.619   2.736   0.981 -0.8163 -1.0779 -2.7282
  437MOL0     O57553   6.490  10.968   7.456  0.2361 -0.3180  0.4712
  437MOL0     C57554   6.578  10.927   7.380  0.0744 -0.2648  0.2786
  437MOL0     O57555   6.552  10.873   7.256  0.1426 -0.1240 -0.6438
  437MOL0     C57556   6.422  10.870   7.207 -0.8200  0.0942 -1.0706
  437MOL0     C57557   6.319  10.966   7.241 -0.2605  0.4457  0.3719
  437MOL0     C57558   6.184  10.948   7.210 -0.1785 -0.0366 -0.2711
  437MOL0     C57559   6.143  10.838   7.131  0.7679 -0.3679 -0.0097
  437MOL0     O57560   6.008  10.805   7.096 -0.3718 -0.4405 -0.1519
  437MOL0     C57561   5.916  10.910   7.110  0.1271 -0.0868  0.0305
  437MOL0     C57562   5.776  10.867   7.099 -0.1036  0.3797 -0.3416
  437MOL0     C57563   5.686  10.981   7.146  0.5152 -0.3354  0.4098
  437MOL0     C57564   5.540  10.944   7.138 -0.1082 -0.3755 -0.0886
  437MOL0     C57565   5.466  11.070   7.122 -0.8734 -0.6321 -0.7203
  437MOL0     C57566   5.313  11.049   7.135 -0.5473  0.6210  0.1310
  437MOL0     C57567   5.228  11.171   7.109  0.1829  0.5309  0.0652
  437MOL0     C57568   5.094  11.157   7.177  0.3145  0.6809  0.6015
  437MOL0     N57569   5.017  11.278   7.155  0.1807 -0.1458 -0.6934
  437MOL0     C57570   4.922  11.302   7.064  0.6468 -0.5341  1.0281
  437MOL0     C57571   4.911  11.439   7.049  0.1608 -0.7578  0.5322
  437MOL0     C57572   4.831  11.500   6.942  0.3200  0.6060 -0.2143
  437MOL0     C57573   4.683  11.499   6.984 -0.0019 -0.0740  0.6964
  437MOL0     C57574   4.596  11.559   6.872 -0.3391  0.5951  0.9429
  437MOL0     C57575   4.452  11.582   6.923  1.6661 -0.3200 -0.0992
  437MOL0     O57576   4.373  11.618   6.814 -0.4831  0.0159 -0.2354
  437MOL0     C57577   4.235  11.633   6.820  0.8928  0.0052 -0.8796
  437MOL0     C57578   4.156  11.612   6.938  0.0784 -0.4835  0.0868
  437MOL0     C57579   4.019  11.630   6.933 -0.4125 -0.2182  0.0242
  437MOL0     C57580   3.951  11.646   6.804 -0.2313 -0.0343 -0.2281
  437MOL0     C57581   3.811  11.650   6.803 -0.0691  0.2841 -0.7288
  437MOL0     O57582   3.752  11.628   6.923 -0.5171  0.5142 -0.2359
  437MOL0     C57583   3.622  11.584   6.942 -0.5510 -0.8398 -0.2207
  437MOL0     C57584   3.565  11.584   7.063  0.1509 -0.5640 -0.5197
  437MOL0     C57585   3.439  11.541   7.098  0.1774 -0.2186  0.8830
  437MOL0     C57586   3.363  11.481   6.998 -0.3012  0.4894 -0.2857
  437MOL0     O57587   3.249  11.424   7.048  0.1113  0.9778  0.2605
  437MOL0     C57588   3.142  11.420   6.958  0.1423 -0.0025  0.0237
  437MOL0     C57589   3.099  11.573   6.935 -0.6668 -0.1494  0.3181
  437MOL0     C57590   3.081  11.645   7.070  0.2467  0.6607 -0.2145
  437MOL0     C57591   3.005  11.774   7.048  0.1438  0.1901 -0.3158
  437MOL0     C57592   3.013  11.889   7.149  0.2102  0.7129 -0.5458
  437MOL0     C57593   2.967  11.849   7.301  0.3262 -0.6552  0.0080
  437MOL0     C57594   2.818  11.832   7.315 -0.0919 -0.4614  0.2753
  437MOL0     C57595   2.782  11.796   7.456  1.0017  0.8458  1.3412
  437MOL0    Cl57596   2.610  11.790   7.491 -0.4085  0.0678 -0.3523
  437MOL0     C57597   3.411  11.479   6.869 -0.2331  0.3447  0.4457
  437MOL0     C57598   3.544  11.533   6.836  0.0899 -0.3599 -0.4688
  437MOL0     O57599   3.758  11.679   6.700  0.1257 -0.1667 -0.9088
  437MOL0     C57600   4.039  11.648   6.690  0.7174 -0.2463  0.2097
  437MOL0     C57601   4.175  11.638   6.696 -0.2522  0.2332 -0.0690
  437MOL0     N57602   4.988  11.495   7.146  0.2469  0.8020 -0.2699
  437MOL0     N57603   5.046  11.400   7.217  0.5941  0.0504  0.6016
  437MOL0     C57604   6.241  10.752   7.089  0.1593 -0.0333 -0.4642
  437MOL0     C57605   6.379  10.755   7.130  0.0885 -0.0374  0.5610
  437MOL0     C57606   6.721  10.928   7.425  0.2133 -0.7447  0.6149
  437MOL0     C57607   6.822  10.878   7.345 -0.0578 -0.7778  0.4386
  437MOL0     C57608   6.955  10.866   7.397 -0.0701 -0.3523 -0.1013
  437MOL0     C57609   6.987  10.914   7.524 -0.0780  0.1075 -0.1288
  437MOL0     O57610   7.117  10.896   7.576  0.2177  0.0295 -0.0228
  437MOL0     C57611   7.222  10.853   7.482  0.3220  0.0852  1.0977
  437MOL0     C57612   7.355  10.840   7.555 -0.1844 -0.0678  0.4841
  437MOL0     C57613   7.478  10.912   7.496 -0.0736  0.7790  0.0729
  437MOL0     C57614   7.536  10.841   7.370  0.7766  0.6015  0.1229
  437MOL0     C57615   7.662  10.914   7.336 -0.0310  0.1252  0.2543
  437MOL0     C57616   7.778  10.947   7.321 -0.3976  0.2936 -0.1136
  437MOL0     C57617   6.880  10.954   7.606 -0.5230  0.9351  0.4659
  437MOL0     C57618   6.752  10.968   7.554 -0.0851  0.4979 -0.1281
  437MOL0     H57619   6.355  11.057   7.286 -0.4554  0.7001  0.0224
  437MOL0     H57620   6.117  11.015   7.263  0.5054 -0.1782  0.7911
  437MOL0     H57621   5.941  10.989   7.039  3.1606  0.1899  1.2594
  437MOL0     H57622   5.929  10.962   7.206 -0.1547 -0.2556  0.1624
  437MOL0     H57623   5.756  10.773   7.151  2.0568  0.6935  1.1908
  437MOL0     H57624   5.760  10.845   6.993  0.4826  1.1212 -0.5948
  437MOL0     H57625   5.709  11.071   7.089  1.9983 -1.2599 -0.5224
  437MOL0     H57626   5.710  11.002   7.251  0.7048 -0.6033  0.4229
  437MOL0     H57627   5.512  10.886   7.050 -3.6091 -0.8062  1.1496
  437MOL0     H57628   5.510  10.878   7.220 -2.9567  0.4077 -0.3948
  437MOL0     H57629   5.486  11.125   7.030 -0.3788  2.4061  1.0877
  437MOL0     H57630   5.497  11.134   7.205  0.5422 -1.0621 -0.8780
  437MOL0     H57631   5.300  11.018   7.240  0.6016  0.0488  0.1310
  437MOL0     H57632   5.287  10.964   7.072 -0.2098  1.2983 -0.9404
  437MOL0     H57633   5.274  11.262   7.149  1.7385 -0.1818 -0.0275
  437MOL0     H57634   5.216  11.198   7.003  0.3411  2.6148  0.5327
  437MOL0     H57635   5.107  11.139   7.284 -0.5685  0.0291  0.6097
  437MOL0     H57636   5.031  11.081   7.131  0.6134  0.2014  0.9835
  437MOL0     H57637   4.868  11.237   6.995 -0.0022  2.3413 -1.3591
  437MOL0     H57638   4.846  11.458   6.842 -2.5090 -0.2326 -0.3628
  437MOL0     H57639   4.870  11.601   6.954  0.4966  0.4148  1.0460
  437MOL0     H57640   4.672  11.558   7.075  1.2031  2.0170 -0.4265
  437MOL0     H57641   4.654  11.394   6.991  0.0013 -0.0988  0.3533
  437MOL0     H57642   4.642  11.652   6.837 -2.8509  1.4048 -0.4725
  437MOL0     H57643   4.591  11.500   6.780 -0.1192  1.0855  0.6132
  437MOL0     H57644   4.458  11.653   7.005 -1.1332 -1.0348  0.8127
  437MOL0     H57645   4.410  11.488   6.961 -0.7201  1.8748  3.1382
  437MOL0     H57646   4.207  11.583   7.030  2.4220  1.9253 -0.3205
  437MOL0     H57647   3.957  11.603   7.018 -2.7813 -2.7694 -2.2871
  437MOL0     H57648   3.626  11.633   7.139  1.2945 -2.6208 -0.0377
  437MOL0     H57649   3.413  11.556   7.202  1.2266 -0.7062  1.2191
  437MOL0     H57650   3.060  11.366   7.007 -1.0445  1.9451  0.2798
  437MOL0     H57651   3.168  11.371   6.863  0.2410  1.3833 -0.6924
  437MOL0     H57652   3.008  11.584   6.876 -0.2618  2.3161  0.0580
  437MOL0     H57653   3.170  11.628   6.872 -2.0746  1.2022 -0.1652
  437MOL0     H57654   3.179  11.664   7.115 -0.2269  0.6237  0.8579
  437MOL0     H57655   3.024  11.569   7.122  1.5838 -0.5196 -0.4151
  437MOL0     H57656   3.039  11.814   6.952  1.2165  1.6358  0.6349
  437MOL0     H57657   2.898  11.749   7.047 -0.5170  2.7004  0.9681
  437MOL0     H57658   2.948  11.970   7.114 -0.4960  0.7003  0.6990
  437MOL0     H57659   3.117  11.923   7.143  0.7591 -0.0341  2.9719
  437MOL0     H57660   3.004  11.929   7.365 -0.0549 -1.1582  0.8660
  437MOL0     H57661   3.017  11.757   7.335  0.9620  0.2046  1.4737
  437MOL0     H57662   2.779  11.932   7.292  1.8109  0.0417 -1.0180
  437MOL0     H57663   2.764  11.770   7.242 -1.0485 -0.0862  0.6387
  437MOL0     H57664   2.833  11.867   7.521  1.8898 -0.6953  2.3973
  437MOL0     H57665   2.817  11.696   7.484  0.5281  0.1263 -0.4580
  437MOL0     H57666   3.361  11.444   6.779  0.5142  1.9039 -0.6170
  437MOL0     H57667   3.591  11.520   6.739  0.2637  0.8800 -0.5708
  437MOL0     H57668   3.996  11.654   6.591  0.3846  0.5973  0.3953
  437MOL0     H57669   4.228  11.628   6.602  2.3254 -2.1435  1.4692
  437MOL0     H57670   6.206  10.665   7.034 -3.7515  0.9778  0.0685
  437MOL0     H57671   6.447  10.674   7.105 -0.4786 -0.7100  1.1323
  437MOL0     H57672   6.791  10.838   7.249  2.0541 -0.2392 -0.5455
  437MOL0     H57673   7.014  10.820   7.319 -1.3698 -0.7928 -0.8623
  437MOL0     H57674   7.222  10.931   7.404  2.8560 -0.7529  0.1609
  437MOL0     H57675   7.206  10.763   7.423 -0.2465  2.7016 -3.2062
  437MOL0     H57676   7.345  10.882   7.655 -1.9343  0.6047  0.0657
  437MOL0     H57677   7.372  10.733   7.565  2.2857  0.3202  1.2140
  437MOL0     H57678   7.557  10.919   7.571 -0.0999  0.7316  0.1052
  437MOL0     H57679   7.448  11.015   7.470 -1.6566  0.5668  0.9532
  437MOL0     H57680   7.567  10.740   7.398 -0.5317  0.6181  1.7373
  437MOL0     H57681   7.464  10.833   7.288 -0.6727 -0.5537  1.4458
  437MOL0     H57682   7.880  10.979   7.312  0.0909 -0.1240  2.8749
  437MOL0     H57683   6.904  10.963   7.711  2.7148  1.2653 -0.2061
  437MOL0     H57684   6.673  11.008   7.617  2.8413 -1.0653  5.0931
  438MOL0     O57685   9.019  10.456   2.524  0.0460  0.0137 -0.0564
  438MOL0     C57686   9.096  10.363   2.552 -0.4878  0.3974 -0.6790
  438MOL0     O57687   9.060  10.233   2.558  0.1671 -0.6737 -0.4805
  438MOL0     C57688   8.935  10.190   2.506 -0.0614 -0.0295  0.7275
  438MOL0     C57689   8.827  10.264   2.450 -0.2747  0.4730  0.8134
  438MOL0     C57690   8.706  10.206   2.413  0.0936 -0.3162  1.0104
  438MOL0     C57691   8.683  10.070   2.452  0.7292 -0.7333  0.2895
  438MOL0     O57692   8.565  10.004   2.429  0.2062  0.1901 -0.3814
  438MOL0     C57693   8.463  10.057   2.352 -0.2296 -0.5263 -0.0897
  438MOL0     C57694   8.481  10.042   2.194  0.0548  0.7692 -0.9588
  438MOL0     C57695   8.455   9.903   2.145  0.0142  0.4652  0.3417
  438MOL0     C57696   8.310   9.852   2.179 -0.2010 -0.8747 -0.7238
  438MOL0     C57697   8.252   9.741   2.098 -0.3438  0.1836 -0.7634
  438MOL0     C57698   8.112   9.707   2.155  0.7980  0.1658 -0.6627
  438MOL0     C57699   8.044   9.600   2.079  0.0611  0.6093 -0.1283
  438MOL0     C57700   8.127   9.516   1.977  0.5664  0.1675  0.0254
  438MOL0     N57701   8.048   9.410   1.909 -0.7352  0.2157 -0.1022
  438MOL0     C57702   7.918   9.416   1.884  0.5289 -0.7024  0.3358
  438MOL0     C57703   7.887   9.298   1.817 -0.1818  0.4545  0.7674
  438MOL0     C57704   7.759   9.262   1.742  0.0307  0.0409  0.4727
  438MOL0     C57705   7.644   9.246   1.852 -0.6412 -0.2057 -0.2880
  438MOL0     C57706   7.509   9.267   1.786 -0.3561 -0.3461  0.3981
  438MOL0     C57707   7.398   9.262   1.893  0.6486 -0.1259 -0.0923
  438MOL0     O57708   7.388   9.126   1.948  0.5977 -0.7787  0.1611
  438MOL0     C57709   7.271   9.099   2.009  0.8261 -0.1804  0.1764
  438MOL0     C57710   7.169   9.196   2.039 -0.4072  0.6659  0.0999
  438MOL0     C57711   7.057   9.169   2.115 -0.7012  0.0910 -0.2758
  438MOL0     C57712   7.026   9.034   2.147 -0.0414  0.3113  0.6854
  438MOL0     C57713   6.904   9.003   2.224  0.2947 -0.0629  0.4109
  438MOL0     O57714   6.877   8.882   2.268 -0.1922  0.2411  0.0374
  438MOL0     C57715   6.747   8.861   2.313 -1.0562 -0.3229  0.6296
  438MOL0     C57716   6.651   8.846   2.218  0.9813 -0.2270 -0.0157
  438MOL0     C57717   6.520   8.810   2.245 -0.7479  0.8067  0.6732
  438MOL0     C57718   6.480   8.788   2.383  0.0381  0.3094 -0.1143
  438MOL0     O57719   6.351   8.768   2.440  0.3841  0.3479  0.5967
  438MOL0     C57720   6.249   8.777   2.332  0.4199  0.0659  0.3775
  438MOL0     C57721   6.116   8.737   2.401 -0.3272 -1.0306  0.7515
  438MOL0     C57722   6.008   8.757   2.294 -0.3809 -0.6651  0.1895
  438MOL0     C57723   5.868   8.781   2.356 -0.3748 -0.1159 -0.5411
  438MOL0     C57724   5.770   8.807   2.247 -1.0979 -0.7651 -0.7478
  438MOL0     C57725   5.639   8.842   2.305 -0.7451  0.3907 -0.1586
  438MOL0     C57726   5.637   8.978   2.376  0.1897  0.5942  0.8474
  438MOL0     C57727   5.550   8.994   2.493 -0.2869 -0.3446 -0.3021
  438MOL0    Cl57728   5.587   8.888   2.620  0.0749  0.1279 -0.0801
  438MOL0     C57729   6.581   8.815   2.477 -0.8378  0.3287 -0.6913
  438MOL0     C57730   6.715   8.846   2.443  0.1766 -0.2914  0.7474
  438MOL0     O57731   6.838   9.103   2.251  0.2374 -0.0083  0.0198
  438MOL0     C57732   7.116   8.935   2.095 -0.8368 -0.4151  0.3579
  438MOL0     C57733   7.244   8.969   2.037  0.6154  0.1418 -0.5280
  438MOL0     N57734   7.997   9.216   1.816  0.3703  0.1788 -0.3166
  438MOL0     N57735   8.090   9.285   1.872 -0.2436 -0.2356  0.1883
  438MOL0     C57736   8.786   9.998   2.513  0.3351  0.2458 -0.1776
  438MOL0     C57737   8.918  10.052   2.534 -0.1336 -0.0024  1.1054
  438MOL0     C57738   9.236  10.405   2.595  0.0742  0.8497  0.8720
  438MOL0     C57739   9.340  10.311   2.623  0.7580 -1.3667  0.7163
  438MOL0     C57740   9.464  10.346   2.663 -0.7728  0.5219  0.1072
  438MOL0     C57741   9.499  10.477   2.692  0.6849  0.0762 -0.6390
  438MOL0     O57742   9.616  10.499   2.763  0.3768  0.2486  0.4432
  438MOL0     C57743   9.645  10.638   2.792  0.3479 -1.0542  0.3637
  438MOL0     C57744   9.775  10.656   2.872  0.6568  0.1347  0.5078
  438MOL0     C57745   9.764  10.618   3.022  0.3857 -0.3278 -0.4006
  438MOL0     C57746   9.700  10.730   3.102 -0.5786  0.0963  0.7630
  438MOL0     C57747   9.793  10.849   3.114 -0.2105 -0.3902 -0.3466
  438MOL0     C57748   9.882  10.930   3.133 -0.1986 -0.2036 -0.0586
  438MOL0     C57749   9.401  10.574   2.668  0.2569  0.0738 -0.5374
  438MOL0     C57750   9.274  10.542   2.615  0.8328  0.5246 -0.2624
  438MOL0     H57751   8.833  10.371   2.433 -2.6618  0.2531 -2.1605
  438MOL0     H57752   8.625  10.260   2.365  1.2756  0.5204 -0.1254
  438MOL0     H57753   8.437  10.161   2.372 -1.9517 -0.9169 -0.1170
  438MOL0     H57754   8.377   9.998   2.388 -1.2682 -0.5347 -2.4341
  438MOL0     H57755   8.586  10.064   2.170 -0.6728  3.0732 -2.4109
  438MOL0     H57756   8.415  10.115   2.146  1.3218  0.0741 -4.0053
  438MOL0     H57757   8.541   9.839   2.168  2.5290  2.6904 -2.0974
  438MOL0     H57758   8.452   9.910   2.035 -1.0093 -2.6492  0.0815
  438MOL0     H57759   8.316   9.823   2.284 -2.2724  4.3227  1.1215
  438MOL0     H57760   8.241   9.936   2.173  1.5154  0.6786  0.1411
  438MOL0     H57761   8.306   9.648   2.118 -0.5268  0.5305  1.6473
  438MOL0     H57762   8.249   9.777   1.995  0.2095 -0.2006 -0.9142
  438MOL0     H57763   8.036   9.785   2.158  0.1785 -0.3460  3.9002
  438MOL0     H57764   8.124   9.673   2.258  1.1453 -1.4289 -1.2005
  438MOL0     H57765   8.017   9.527   2.155  1.8818  0.6407  0.6078
  438MOL0     H57766   7.950   9.633   2.035 -0.2818 -1.1810 -0.8459
  438MOL0     H57767   8.219   9.481   2.025  1.5149  1.6409 -0.6461
  438MOL0     H57768   8.161   9.572   1.889  0.6661  0.2351  0.1063
  438MOL0     H57769   7.849   9.499   1.881  1.0709 -0.2657 -1.3943
  438MOL0     H57770   7.764   9.170   1.683 -2.1191  0.0633  0.1880
  438MOL0     H57771   7.726   9.353   1.691 -1.3481 -0.4597  0.4176
  438MOL0     H57772   7.669   9.318   1.931 -1.8214 -0.4629  0.3340
  438MOL0     H57773   7.652   9.157   1.914  0.6966  0.8803  1.1945
  438MOL0     H57774   7.503   9.366   1.740 -1.0071 -0.9421 -0.8573
  438MOL0     H57775   7.496   9.189   1.711 -0.1680  0.7439 -0.8157
  438MOL0     H57776   7.309   9.310   1.851  0.3313  0.5822  1.3236
  438MOL0     H57777   7.435   9.324   1.974  0.0449 -0.1891  0.2406
  438MOL0     H57778   7.183   9.302   2.023  0.5429  0.3846 -1.1628
  438MOL0     H57779   6.985   9.245   2.145 -0.0416  0.2088  1.0904
  438MOL0     H57780   6.676   8.871   2.115  2.6034 -0.5758  0.2597
  438MOL0     H57781   6.444   8.791   2.171 -0.9004  2.1184  0.4722
  438MOL0     H57782   6.275   8.693   2.267  1.1810 -1.2927  2.3330
  438MOL0     H57783   6.240   8.876   2.286 -0.3514 -0.8482 -1.5307
  438MOL0     H57784   6.099   8.800   2.488  3.1551  1.3637 -0.1084
  438MOL0     H57785   6.123   8.634   2.439 -0.3789 -1.9929 -1.6388
  438MOL0     H57786   6.005   8.672   2.226 -0.3641 -0.6428  0.1601
  438MOL0     H57787   6.041   8.838   2.228  2.6184 -2.4183 -0.6506
  438MOL0     H57788   5.841   8.712   2.436  4.2916  0.8531  2.2518
  438MOL0     H57789   5.888   8.871   2.414 -1.5833  0.5590 -1.1417
  438MOL0     H57790   5.766   8.717   2.185  0.5302 -2.1009  0.9853
  438MOL0     H57791   5.808   8.885   2.181  0.3747 -1.0888 -0.3183
  438MOL0     H57792   5.601   8.776   2.383 -0.6505 -0.0097 -0.4490
  438MOL0     H57793   5.566   8.851   2.224 -0.5223 -3.2390 -0.9358
  438MOL0     H57794   5.735   9.016   2.410  0.5973 -0.0689  0.4278
  438MOL0     H57795   5.606   9.050   2.299 -3.0984 -2.0673 -0.5395
  438MOL0     H57796   5.444   8.982   2.472 -0.9768  0.6289  2.2353
  438MOL0     H57797   5.549   9.097   2.531 -0.7273  0.0699 -1.4143
  438MOL0     H57798   6.548   8.812   2.581  1.2256  0.7663  0.0155
  438MOL0     H57799   6.783   8.881   2.520 -2.2908  1.6006  2.2122
  438MOL0     H57800   7.099   8.829   2.112 -0.4027 -0.1693  2.5983
  438MOL0     H57801   7.327   8.901   2.022  0.9120  0.8068 -2.1619
  438MOL0     H57802   8.763   9.903   2.559 -2.7883  0.4529 -1.1026
  438MOL0     H57803   9.001   9.990   2.568 -0.1042 -0.1206  0.8203
  438MOL0     H57804   9.326  10.204   2.622  0.4296 -1.3336 -1.0915
  438MOL0     H57805   9.540  10.269   2.675  0.4204  1.5581 -0.5549
  438MOL0     H57806   9.564  10.692   2.841 -1.4040 -2.7780 -0.4920
  438MOL0     H57807   9.661  10.693   2.698 -0.7235 -1.3389 -0.0040
  438MOL0     H57808   9.857  10.594   2.834 -0.1753 -1.1816  0.8145
  438MOL0     H57809   9.795  10.763   2.856 -0.8359  0.1511 -1.7027
  438MOL0     H57810   9.861  10.584   3.060  1.0362  2.0632  0.2517
  438MOL0     H57811   9.700  10.530   3.025  1.8082 -1.3940 -0.0102
  438MOL0     H57812   9.602  10.761   3.065 -0.6972  0.6771  1.5506
  438MOL0     H57813   9.688  10.696   3.205  1.5862  1.3529  1.4860
  438MOL0     H57814   9.958  11.005   3.127  1.6799 -2.0727 -0.9587
  438MOL0     H57815   9.421  10.678   2.690  2.2394  0.2166 -2.5769
  438MOL0     H57816   9.190  10.610   2.603 -1.2757 -2.1333 -1.4228
  439MOL0     O57817   4.130   8.435   4.783 -0.1540 -0.4371  0.4922
  439MOL0     C57818   4.174   8.350   4.707 -0.5433  0.9267 -0.2374
  439MOL0     O57819   4.107   8.246   4.651 -0.2342 -0.3936 -0.5324
  439MOL0     C57820   3.978   8.223   4.700  0.3149 -1.7316  0.7221
  439MOL0     C57821   3.964   8.164   4.822 -0.5818  0.7000  0.0168
  439MOL0     C57822   3.838   8.123   4.861  0.3708 -0.1309  0.1368
  439MOL0     C57823   3.725   8.139   4.787  0.6415 -0.7061  0.1738
  439MOL0     O57824   3.609   8.075   4.832  0.2765 -0.1034  0.5580
  439MOL0     C57825   3.486   8.133   4.798  0.3063 -0.0870 -0.2477
  439MOL0     C57826   3.462   8.275   4.860  0.5319 -0.1645  0.3705
  439MOL0     C57827   3.314   8.308   4.880 -0.8468  0.1202  0.2782
  439MOL0     C57828   3.215   8.268   4.772  0.2103 -0.0824  0.4546
  439MOL0     C57829   3.081   8.343   4.779 -0.0812 -0.2914  0.4555
  439MOL0     C57830   2.976   8.244   4.749 -0.5841 -0.3953  0.6148
  439MOL0     C57831   2.847   8.318   4.737 -0.1660 -0.6330 -0.4973
  439MOL0     C57832   2.747   8.221   4.721  0.4490  0.0617  0.6847
  439MOL0     N57833   2.618   8.285   4.703 -0.5597 -0.0332 -0.0725
  439MOL0     C57834   2.572   8.352   4.597 -0.0642 -0.7522 -0.1303
  439MOL0     C57835   2.443   8.377   4.618  0.0882  0.5609 -0.1151
  439MOL0     C57836   2.355   8.445   4.520 -0.0290 -0.0778  0.2994
  439MOL0     C57837   2.235   8.502   4.585  0.3653  0.0518 -0.5601
  439MOL0     C57838   2.179   8.600   4.482  1.2206 -0.5119  0.9690
  439MOL0     C57839   2.044   8.652   4.521 -0.4332 -0.0324  0.0137
  439MOL0     O57840   1.936   8.547   4.521  0.2678 -0.2485 -0.1880
  439MOL0     C57841   1.807   8.595   4.505 -0.1759 -0.3826  1.2742
  439MOL0     C57842   1.758   8.717   4.552 -0.0295  0.9194  0.4504
  439MOL0     C57843   1.625   8.755   4.529 -0.3400 -0.4212  0.7872
  439MOL0     C57844   1.533   8.669   4.480 -0.9813 -0.2281  0.6589
  439MOL0     C57845   1.389   8.704   4.477 -0.3698 -0.0757  0.4552
  439MOL0     O57846   1.299   8.595   4.441 -0.3702  0.1818 -0.2565
  439MOL0     C57847   1.171   8.641   4.390  0.1580 -0.3268 -0.9947
  439MOL0     C57848   1.156   8.745   4.291  0.4109  0.5100 -0.8145
  439MOL0     C57849   1.026   8.786   4.260  0.1084 -0.4221  0.0438
  439MOL0     C57850   0.914   8.718   4.302 -0.6965 -0.7703  0.1496
  439MOL0     O57851   0.792   8.748   4.240 -0.6283 -0.5697  0.3819
  439MOL0     C57852   0.670   8.699   4.304 -0.0646 -0.5461  0.3230
  439MOL0     C57853   0.549   8.761   4.238  0.2145  0.4495  0.4696
  439MOL0     C57854   0.411   8.723   4.303  0.5766 -0.5727 -0.1993
  439MOL0     C57855   0.314   8.841   4.284  0.1519  0.6757 -0.3942
  439MOL0     C57856   0.174   8.814   4.350 -0.2079 -0.0377  0.5104
  439MOL0     C57857   0.081   8.938   4.377  0.0041 -0.8608 -0.4392
  439MOL0     C57858   0.051   9.012   4.247 -0.8514 -0.2681  0.7355
  439MOL0     C57859  -0.066   9.114   4.266  0.6102  0.6119 -0.1800
  439MOL0    Cl57860  -0.228   9.033   4.283  0.0987  0.1285  0.2313
  439MOL0     C57861   0.934   8.614   4.391  0.5181 -0.0966  0.1507
  439MOL0     C57862   1.056   8.573   4.434 -0.5600  0.4648 -0.2583
  439MOL0     O57863   1.355   8.815   4.515  0.3879 -0.5616  0.6877
  439MOL0     C57864   1.573   8.538   4.450  0.2171 -0.1399  0.3456
  439MOL0     C57865   1.706   8.509   4.455 -0.9861 -0.2440 -0.4716
  439MOL0     N57866   2.409   8.330   4.745 -0.4325  0.3566  0.2855
  439MOL0     N57867   2.515   8.270   4.789  0.4615  0.1663  0.1163
  439MOL0     C57868   3.736   8.218   4.674 -0.3365 -0.0634  0.3225
  439MOL0     C57869   3.863   8.255   4.625  0.1111  0.1215  1.0418
  439MOL0     C57870   4.319   8.360   4.681 -0.1747  0.7365  0.1699
  439MOL0     C57871   4.399   8.473   4.704 -0.1292 -0.2668  0.2142
  439MOL0     C57872   4.527   8.476   4.662 -0.3571 -0.3819 -0.0250
  439MOL0     C57873   4.592   8.359   4.611 -0.1234 -0.3787  0.2227
  439MOL0     O57874   4.722   8.346   4.582 -0.1409 -0.7202  0.8988
  439MOL0     C57875   4.812   8.427   4.653  0.0287 -0.5617 -0.4319
  439MOL0     C57876   4.935   8.329   4.675  0.7257 -0.3960 -0.1338
  439MOL0     C57877   5.042   8.376   4.769  0.2665 -0.0336 -0.2493
  439MOL0     C57878   5.129   8.254   4.809 -1.0135 -0.2684  0.7437
  439MOL0     C57879   5.271   8.278   4.844  0.3807 -0.1690  0.6947
  439MOL0     C57880   5.386   8.292   4.855 -0.1056  0.4639 -0.8777
  439MOL0     C57881   4.513   8.250   4.589  0.3920  1.0131 -0.5751
  439MOL0     C57882   4.378   8.246   4.617 -0.1592 -0.2271  0.4030
  439MOL0     H57883   4.057   8.139   4.874 -1.5535 -1.8929  0.6796
  439MOL0     H57884   3.821   8.059   4.947 -2.0958  1.0092  0.5764
  439MOL0     H57885   3.409   8.063   4.831 -0.2112  0.3794 -0.4401
  439MOL0     H57886   3.480   8.135   4.689 -1.8208 -1.3129 -0.2031
  439MOL0     H57887   3.518   8.345   4.796  1.3077 -0.9564  0.1515
  439MOL0     H57888   3.513   8.275   4.957  2.9545 -2.2140 -0.7526
  439MOL0     H57889   3.312   8.417   4.878  5.3566  0.6070 -2.1509
  439MOL0     H57890   3.282   8.267   4.976  0.7110 -2.7925 -0.3452
  439MOL0     H57891   3.262   8.285   4.674 -0.9915  0.3236 -0.0801
  439MOL0     H57892   3.194   8.161   4.770 -1.3217  0.1557  2.1651
  439MOL0     H57893   3.081   8.416   4.697  0.4581 -1.1543 -0.3353
  439MOL0     H57894   3.066   8.383   4.880  2.7626 -1.7486  1.5540
  439MOL0     H57895   2.970   8.156   4.814  0.6683 -0.5016  0.6100
  439MOL0     H57896   3.006   8.198   4.654  2.2813 -2.5173  2.3708
  439MOL0     H57897   2.828   8.373   4.830  0.8576  1.3916 -1.4257
  439MOL0     H57898   2.837   8.371   4.642 -3.8355  0.4975  0.3442
  439MOL0     H57899   2.740   8.166   4.816  2.1834 -0.3724  0.6042
  439MOL0     H57900   2.772   8.163   4.632 -1.6478  0.1070  0.0065
  439MOL0     H57901   2.628   8.368   4.506  1.2288 -1.3061  0.5463
  439MOL0     H57902   2.329   8.374   4.441  2.0167 -0.4554 -0.0961
  439MOL0     H57903   2.411   8.528   4.475 -3.2636  0.6244 -2.8941
  439MOL0     H57904   2.272   8.561   4.669  2.5114 -2.3698  0.3439
  439MOL0     H57905   2.164   8.425   4.617 -1.6631  1.9793 -0.2716
  439MOL0     H57906   2.245   8.685   4.462  0.3830 -0.1473 -0.3670
  439MOL0     H57907   2.170   8.542   4.390 -1.9012 -1.0017  1.4821
  439MOL0     H57908   2.021   8.736   4.454 -0.4265 -0.1961 -0.1967
  439MOL0     H57909   2.055   8.697   4.620  1.1501 -1.3358  0.4766
  439MOL0     H57910   1.815   8.791   4.606 -0.2941 -0.0952  2.2132
  439MOL0     H57911   1.599   8.857   4.556 -3.8827 -0.7330 -0.8303
  439MOL0     H57912   1.236   8.798   4.240 -0.2191  0.4674 -1.8857
  439MOL0     H57913   1.024   8.860   4.181 -0.0880  2.1551  2.2851
  439MOL0     H57914   0.688   8.722   4.409  1.6158  2.1703 -0.4482
  439MOL0     H57915   0.670   8.591   4.285 -0.4798 -0.7875  1.6166
  439MOL0     H57916   0.551   8.716   4.138  0.1672 -2.2258  1.5660
  439MOL0     H57917   0.570   8.868   4.239  3.8670 -0.0776 -1.2907
  439MOL0     H57918   0.426   8.715   4.411  1.7743  0.2200 -0.2877
  439MOL0     H57919   0.370   8.629   4.266 -0.1209 -0.5762  0.5710
  439MOL0     H57920   0.350   8.936   4.326 -2.2226  2.2065 -1.6041
  439MOL0     H57921   0.305   8.850   4.176  1.4686 -1.5813 -0.7489
  439MOL0     H57922   0.192   8.759   4.443  0.4099 -0.4219  0.1670
  439MOL0     H57923   0.116   8.754   4.280  1.2057  2.2207 -2.8425
  439MOL0     H57924   0.120   9.011   4.447 -2.1580 -0.2435  0.2036
  439MOL0     H57925  -0.008   8.901   4.429  0.7181 -2.1127 -0.0703
  439MOL0     H57926   0.145   9.062   4.220 -0.5691 -0.9043  0.5061
  439MOL0     H57927   0.037   8.944   4.162 -0.1968 -1.0173  1.2036
  439MOL0     H57928  -0.081   9.176   4.177 -2.9463 -0.9626 -0.8564
  439MOL0     H57929  -0.052   9.186   4.348  0.8695  2.3462 -1.6745
  439MOL0     H57930   0.857   8.540   4.412  0.3747  0.2621  0.8982
  439MOL0     H57931   1.064   8.499   4.513 -2.1809  1.6302  1.0774
  439MOL0     H57932   1.513   8.455   4.415 -2.1761  1.2419  0.9299
  439MOL0     H57933   1.741   8.409   4.431  0.4482 -0.5761  2.4686
  439MOL0     H57934   3.653   8.238   4.608  2.1178 -1.7056 -3.6593
  439MOL0     H57935   3.883   8.308   4.532  1.0035 -2.8965 -0.6697
  439MOL0     H57936   4.360   8.561   4.753 -1.5173 -1.4618  1.3138
  439MOL0     H57937   4.583   8.569   4.665  0.8006 -1.0481 -0.5098
  439MOL0     H57938   4.776   8.462   4.751 -2.8662 -1.9752 -0.9139
  439MOL0     H57939   4.828   8.515   4.589 -3.4151 -0.8060 -1.8034
  439MOL0     H57940   4.900   8.234   4.716 -1.2456 -0.6507 -2.2058
  439MOL0     H57941   4.975   8.300   4.578  1.7886 -0.6755  0.3737
  439MOL0     H57942   4.997   8.420   4.859 -0.6850  2.0461 -1.6809
  439MOL0     H57943   5.103   8.453   4.722  1.7534 -0.7273  0.4528
  439MOL0     H57944   5.077   8.211   4.895 -2.5003 -1.1766 -0.5673
  439MOL0     H57945   5.133   8.185   4.724 -0.0693  0.7868 -0.1058
  439MOL0     H57946   5.491   8.313   4.855 -0.3273  1.5929 -0.6425
  439MOL0     H57947   4.558   8.162   4.545  2.3096  1.8638 -0.3882
  439MOL0     H57948   4.315   8.158   4.607 -0.2431 -0.2759  1.2677
  440MOL0     O57949   6.049   7.560   2.518  0.4658 -0.0578  0.7428
  440MOL0     C57950   6.042   7.616   2.408  0.6002  0.0849  0.0536
  440MOL0     O57951   5.951   7.712   2.374 -0.6358  0.8113  0.1864
  440MOL0     C57952   5.874   7.777   2.470  0.7105 -0.3282  0.5399
  440MOL0     C57953   5.739   7.769   2.469  0.8842 -0.0603  0.3653
  440MOL0     C57954   5.664   7.837   2.562 -0.6506  0.5163  0.5121
  440MOL0     C57955   5.725   7.912   2.659 -0.5165 -0.9111 -0.0513
  440MOL0     O57956   5.654   7.984   2.755  0.0588  0.5902  0.0848
  440MOL0     C57957   5.527   7.924   2.798 -0.6309  0.2610 -0.1747
  440MOL0     C57958   5.531   7.974   2.943 -0.1579  0.2705 -0.0244
  440MOL0     C57959   5.412   7.906   3.023 -0.7652  0.0676  0.5622
  440MOL0     C57960   5.275   7.976   2.992  0.4583  0.0916  0.3233
  440MOL0     C57961   5.159   7.923   3.082 -0.3761  0.2469 -0.3951
  440MOL0     C57962   5.022   7.971   3.026  1.0926 -0.2419 -0.1394
  440MOL0     C57963   4.913   7.994   3.135 -0.0768  0.0416  0.0852
  440MOL0     C57964   4.790   8.085   3.084 -0.3185  0.0623 -0.5638
  440MOL0     N57965   4.694   8.011   3.002  0.1078 -0.4729 -0.7391
  440MOL0     C57966   4.564   7.988   3.053 -0.2927  0.2613 -0.2037
  440MOL0     C57967   4.501   7.930   2.947 -0.0896 -0.3198  0.3901
  440MOL0     C57968   4.365   7.875   2.950  0.2217  0.3859  0.9723
  440MOL0     C57969   4.257   7.985   2.928 -0.3924  0.4950 -0.7915
  440MOL0     C57970   4.129   7.909   2.914  0.1133 -0.9137  0.2616
  440MOL0     C57971   4.001   7.999   2.915 -0.9896  0.0549  0.6804
  440MOL0     O57972   3.978   8.050   3.046  0.7914 -0.4061  0.2419
  440MOL0     C57973   3.872   8.124   3.071  0.8248 -0.6607 -0.5291
  440MOL0     C57974   3.744   8.121   3.001 -0.0536 -0.0993  0.2843
  440MOL0     C57975   3.641   8.223   3.018  0.2749 -0.7463  0.1635
  440MOL0     C57976   3.658   8.310   3.132  0.8216  0.4265  0.0796
  440MOL0     C57977   3.558   8.408   3.173 -0.1415  0.5305 -0.2809
  440MOL0     O57978   3.431   8.384   3.128 -0.1291  0.3345 -0.3309
  440MOL0     C57979   3.325   8.459   3.171  0.9843 -0.0795  0.5749
  440MOL0     C57980   3.266   8.537   3.072 -0.0384 -0.0772 -0.6341
  440MOL0     C57981   3.174   8.630   3.111 -0.1106  0.3576 -0.0020
  440MOL0     C57982   3.136   8.640   3.239  0.6526  1.0384  0.0384
  440MOL0     O57983   3.045   8.746   3.264 -0.2783 -0.3592 -0.1350
  440MOL0     C57984   2.919   8.688   3.315  0.5449 -0.9833  0.9144
  440MOL0     C57985   2.807   8.786   3.260  0.1616  0.4804  0.2379
  440MOL0     C57986   2.657   8.727   3.258 -0.4078 -0.5866 -0.5793
  440MOL0     C57987   2.558   8.847   3.277  0.4586  0.1837  0.0954
  440MOL0     C57988   2.427   8.807   3.345 -0.4122 -0.1136 -0.9979
  440MOL0     C57989   2.334   8.920   3.373  0.6867 -0.0335 -0.0222
  440MOL0     C57990   2.224   8.874   3.470  0.0201 -0.4432 -0.3531
  440MOL0     C57991   2.106   8.967   3.484 -0.1780  0.0825 -0.0090
  440MOL0    Cl57992   1.986   8.902   3.600 -0.1328 -0.0921  0.0230
  440MOL0     C57993   3.188   8.559   3.335  0.6481 -0.6478  0.1010
  440MOL0     C57994   3.282   8.469   3.298 -0.2105  0.2413 -0.5324
  440MOL0     O57995   3.586   8.506   3.236 -0.1160 -0.2532 -0.1496
  440MOL0     C57996   3.775   8.302   3.209  0.0140  0.2476  0.3332
  440MOL0     C57997   3.878   8.216   3.170  0.4385  0.5214 -0.6950
  440MOL0     N57998   4.582   7.912   2.845 -0.2016  1.2015 -0.4819
  440MOL0     N57999   4.699   7.964   2.870 -0.2010 -0.5346 -0.1318
  440MOL0     C58000   5.864   7.932   2.653  0.2683  0.6441 -0.3335
  440MOL0     C58001   5.935   7.858   2.559  0.3038  0.1968 -0.4640
  440MOL0     C58002   6.133   7.571   2.307  0.4877  0.2548  0.0350
  440MOL0     C58003   6.221   7.465   2.330  0.0817 -0.2598 -0.2649
  440MOL0     C58004   6.290   7.402   2.223  0.0868  0.2893 -0.2082
  440MOL0     C58005   6.275   7.441   2.092  0.1879 -0.4209 -0.2115
  440MOL0     O58006   6.347   7.374   1.999  0.8623 -0.1613 -0.7749
  440MOL0     C58007   6.346   7.423   1.867  0.1464  0.6671  0.4484
  440MOL0     C58008   6.467   7.362   1.798 -1.2911  0.5063 -0.6989
  440MOL0     C58009   6.486   7.422   1.653  0.9638 -0.2488 -0.7653
  440MOL0     C58010   6.624   7.389   1.588 -0.0638 -0.1735  0.4539
  440MOL0     C58011   6.659   7.247   1.573  0.6489 -0.5684 -0.2159
  440MOL0     C58012   6.671   7.129   1.559 -0.2473 -0.4611 -0.1831
  440MOL0     C58013   6.190   7.554   2.067  0.0797 -0.2970 -0.1142
  440MOL0     C58014   6.116   7.613   2.170  1.0729  0.0539  0.5412
  440MOL0     H58015   5.689   7.707   2.395 -2.9936 -0.7099  3.1703
  440MOL0     H58016   5.560   7.806   2.570 -0.5931 -1.0509 -2.9573
  440MOL0     H58017   5.520   7.815   2.789  0.7754  0.3356 -4.2060
  440MOL0     H58018   5.451   7.974   2.738 -1.4753  1.6887  1.9777
  440MOL0     H58019   5.514   8.082   2.944 -0.6413  0.2184  2.0047
  440MOL0     H58020   5.625   7.948   2.992 -0.9585 -2.0891  0.4030
  440MOL0     H58021   5.433   7.892   3.129 -1.6975 -0.6708  0.6689
  440MOL0     H58022   5.400   7.800   2.995 -1.4421  0.2874 -0.0099
  440MOL0     H58023   5.287   8.084   2.997 -1.4409  0.4391 -1.3380
  440MOL0     H58024   5.248   7.953   2.888  0.7434  1.1546  0.0005
  440MOL0     H58025   5.169   7.964   3.183 -0.7177 -0.4936 -0.0621
  440MOL0     H58026   5.151   7.814   3.084 -0.4335  0.2541  1.5175
  440MOL0     H58027   4.991   7.896   2.953 -0.2020 -0.4188  0.5444
  440MOL0     H58028   5.043   8.068   2.980  3.5416 -0.4484  0.4219
  440MOL0     H58029   4.888   7.897   3.179 -0.2248 -0.2543 -0.6250
  440MOL0     H58030   4.946   8.048   3.224 -2.5429  0.0354  1.0831
  440MOL0     H58031   4.845   8.158   3.024  0.9653 -1.2731 -1.0869
  440MOL0     H58032   4.738   8.124   3.171 -1.3566  0.1572 -1.2137
  440MOL0     H58033   4.517   8.012   3.148  0.2303 -0.2940  0.2055
  440MOL0     H58034   4.340   7.822   3.042  1.3571 -1.6113  0.1756
  440MOL0     H58035   4.355   7.792   2.880  2.0016  1.9469 -1.2967
  440MOL0     H58036   4.296   8.035   2.839  1.8256 -0.4753 -0.4178
  440MOL0     H58037   4.254   8.047   3.018  1.8820 -5.3909  4.0492
  440MOL0     H58038   4.131   7.852   2.821  1.6971 -0.3091 -0.0975
  440MOL0     H58039   4.119   7.830   2.990 -1.7391 -0.5561  0.4341
  440MOL0     H58040   3.908   7.951   2.883 -0.7304 -0.0107  0.0009
  440MOL0     H58041   4.026   8.077   2.842  1.0732  0.5520  1.8474
  440MOL0     H58042   3.715   8.053   2.921 -1.7105  1.2642 -0.3426
  440MOL0     H58043   3.552   8.227   2.957  1.3160 -2.1059 -1.5485
  440MOL0     H58044   3.284   8.536   2.965 -0.2000 -0.5117 -0.6597
  440MOL0     H58045   3.122   8.695   3.042 -0.1995  1.7128  1.2926
  440MOL0     H58046   2.914   8.698   3.424 -2.2684  0.1557  0.7848
  440MOL0     H58047   2.891   8.590   3.275 -0.3937  0.1976 -1.5175
  440MOL0     H58048   2.836   8.818   3.159  0.4367  2.7701  0.9860
  440MOL0     H58049   2.801   8.876   3.323 -3.9579 -1.3627  2.9037
  440MOL0     H58050   2.642   8.660   3.344  1.0758  2.3096  2.1658
  440MOL0     H58051   2.637   8.672   3.166 -0.9324  1.0130 -1.4658
  440MOL0     H58052   2.600   8.925   3.340  1.2982 -0.4217  0.3101
  440MOL0     H58053   2.543   8.881   3.175  1.9258 -0.5921 -0.4170
  440MOL0     H58054   2.444   8.760   3.442 -1.0484  0.5571 -0.5516
  440MOL0     H58055   2.370   8.734   3.288  1.2170 -1.6387 -0.7477
  440MOL0     H58056   2.282   8.951   3.282 -0.1920 -2.9795 -0.6128
  440MOL0     H58057   2.391   9.005   3.413  0.4478  0.4966 -0.7920
  440MOL0     H58058   2.173   8.780   3.444 -3.9819  1.0324  1.2416
  440MOL0     H58059   2.273   8.863   3.568 -1.9898 -0.2448  0.7387
  440MOL0     H58060   2.060   8.973   3.384 -2.1491 -0.7281  0.7963
  440MOL0     H58061   2.133   9.069   3.515  0.9908 -0.4526  0.7770
  440MOL0     H58062   3.148   8.557   3.436  2.1291 -0.7095  0.7084
  440MOL0     H58063   3.333   8.405   3.369 -0.4244  0.5620 -0.0886
  440MOL0     H58064   3.799   8.370   3.290  0.3892  0.9842 -0.3801
  440MOL0     H58065   3.969   8.204   3.228 -0.4634 -3.4911  0.2078
  440MOL0     H58066   5.912   7.996   2.727  1.1569 -1.7969  1.3363
  440MOL0     H58067   6.044   7.856   2.567  0.3155  1.0465 -0.3445
  440MOL0     H58068   6.244   7.436   2.432 -2.3393  1.4051  0.8459
  440MOL0     H58069   6.356   7.319   2.244 -0.4369  0.2018  1.2114
  440MOL0     H58070   6.355   7.532   1.857  1.3191  0.4102 -2.5023
  440MOL0     H58071   6.259   7.386   1.812  0.5596  2.4129 -1.5513
  440MOL0     H58072   6.563   7.385   1.846 -1.9426  0.4067  0.6950
  440MOL0     H58073   6.462   7.253   1.795  2.2245  0.1436  1.0757
  440MOL0     H58074   6.480   7.531   1.656 -1.3684 -0.3528  0.5320
  440MOL0     H58075   6.396   7.392   1.600  1.0552  0.8034 -1.5435
  440MOL0     H58076   6.619   7.439   1.491 -0.5084 -2.3577 -0.7120
  440MOL0     H58077   6.705   7.436   1.645 -0.2188 -1.6307  1.9654
  440MOL0     H58078   6.663   7.024   1.541  1.5883 -0.8668  1.1063
  440MOL0     H58079   6.169   7.599   1.970  1.9008  1.1875  0.1194
  440MOL0     H58080   6.047   7.694   2.154  0.8953 -0.0445  0.7966
  441MOL0     O58081   6.141   6.700   4.127  0.2837 -0.3505 -0.0107
  441MOL0     C58082   6.240   6.631   4.129 -0.8188  0.1197 -0.2957
  441MOL0     O58083   6.252   6.514   4.197 -0.2109 -0.1806  0.4683
  441MOL0     C58084   6.144   6.457   4.282 -0.8907 -0.1128 -0.0153
  441MOL0     C58085   6.154   6.325   4.308  0.6166  1.1777  0.5339
  441MOL0     C58086   6.070   6.256   4.391  0.5404  0.9664 -0.5343
  441MOL0     C58087   5.957   6.320   4.437  0.5003  0.5440  0.1180
  441MOL0     O58088   5.864   6.250   4.517  0.3223 -0.7457 -0.0868
  441MOL0     C58089   5.729   6.295   4.523  0.8269 -0.3752 -0.7795
  441MOL0     C58090   5.720   6.382   4.644 -0.2224 -0.1802  0.4019
  441MOL0     C58091   5.572   6.426   4.651  0.0068  0.0564 -0.8419
  441MOL0     C58092   5.530   6.492   4.789  0.1189 -0.5137 -0.4815
  441MOL0     C58093   5.374   6.487   4.822  1.2077  0.2980  0.3708
  441MOL0     C58094   5.297   6.561   4.713  0.1199  0.7352  0.5050
  441MOL0     C58095   5.156   6.574   4.751  0.1225 -0.5433 -0.9234
  441MOL0     C58096   5.136   6.718   4.797  0.2782 -0.4757 -1.3770
  441MOL0     N58097   4.992   6.745   4.817  0.2059  0.2921 -0.0615
  441MOL0     C58098   4.898   6.737   4.714 -0.4438  0.3844 -0.1332
  441MOL0     C58099   4.783   6.765   4.774 -0.1092  0.4088  0.0658
  441MOL0     C58100   4.645   6.750   4.708  0.5072 -0.9583 -0.7584
  441MOL0     C58101   4.542   6.689   4.806  0.5878 -0.8447 -0.4286
  441MOL0     C58102   4.484   6.802   4.888 -0.8354  0.0593  0.0885
  441MOL0     C58103   4.369   6.747   4.975 -0.0646 -0.2189  0.1203
  441MOL0     O58104   4.279   6.655   4.916 -0.0438 -0.1827  0.1742
  441MOL0     C58105   4.181   6.700   4.820 -1.0458 -0.0439  0.1266
  441MOL0     C58106   4.127   6.603   4.735 -0.5777 -0.1194  0.5718
  441MOL0     C58107   4.026   6.630   4.642  0.7718  0.0360  0.4321
  441MOL0     C58108   3.971   6.761   4.629  0.4452 -0.1688  0.0315
  441MOL0     C58109   3.857   6.793   4.542 -0.5421  0.4845  0.2948
  441MOL0     O58110   3.854   6.924   4.510  0.4879 -0.4306  0.7920
  441MOL0     C58111   3.743   6.972   4.445  0.8058 -0.1881  0.6741
  441MOL0     C58112   3.762   7.055   4.331 -0.6036  0.7413  0.4596
  441MOL0     C58113   3.653   7.100   4.254 -0.2560 -0.8747 -0.4072
  441MOL0     C58114   3.520   7.084   4.303 -0.5491 -0.3635  0.3051
  441MOL0     O58115   3.408   7.138   4.237 -0.6477 -0.0117 -0.2781
  441MOL0     C58116   3.388   7.100   4.104 -0.2874 -0.0376  0.0158
  441MOL0     C58117   3.256   7.170   4.063  0.1937 -0.8704  0.5423
  441MOL0     C58118   3.126   7.118   4.132  0.1000 -0.3551 -0.9597
  441MOL0     C58119   3.011   7.181   4.054  0.0712 -0.0743  0.5465
  441MOL0     C58120   2.892   7.171   4.149 -0.9461 -0.4886 -0.1442
  441MOL0     C58121   2.769   7.242   4.078 -0.0590 -0.1134  0.2046
  441MOL0     C58122   2.650   7.220   4.167  0.2506 -0.2607 -0.2211
  441MOL0     C58123   2.537   7.298   4.107  1.0160 -0.3261  0.6151
  441MOL0    Cl58124   2.386   7.233   4.180 -0.2341 -0.2844 -0.0031
  441MOL0     C58125   3.496   7.004   4.418 -0.6098  0.2659  0.8908
  441MOL0     C58126   3.611   6.952   4.489 -0.2734  0.0935  0.3244
  441MOL0     O58127   3.779   6.707   4.512 -0.5371 -0.0205 -0.1312
  441MOL0     C58128   4.041   6.868   4.703 -0.7632  0.4105 -0.4457
  441MOL0     C58129   4.145   6.837   4.795  0.2561  0.1142 -0.2463
  441MOL0     N58130   4.805   6.803   4.905 -0.3972  0.2377  0.3840
  441MOL0     N58131   4.929   6.786   4.927 -0.4061  0.3996 -0.1970
  441MOL0     C58132   5.946   6.458   4.416  0.1231 -0.1769 -0.8484
  441MOL0     C58133   6.040   6.525   4.346 -0.0714  0.4344 -0.0035
  441MOL0     C58134   6.358   6.679   4.043  0.3971  0.2047 -0.2026
  441MOL0     C58135   6.351   6.795   3.973  0.2476 -0.3909  0.8738
  441MOL0     C58136   6.452   6.848   3.898  0.4029  0.7636  0.5730
  441MOL0     C58137   6.571   6.774   3.883 -0.1347  0.0205 -0.4600
  441MOL0     O58138   6.669   6.818   3.796  0.1671  0.4315 -0.3877
  441MOL0     C58139   6.805   6.791   3.828 -0.6947  0.0440 -0.2478
  441MOL0     C58140   6.892   6.892   3.742  0.0129  0.1874  0.0898
  441MOL0     C58141   6.861   6.896   3.586  0.0109  0.0913 -1.0030
  441MOL0     C58142   6.905   6.769   3.509 -0.5004 -0.0920 -1.2742
  441MOL0     C58143   7.048   6.762   3.476  0.1650  0.1300  1.0756
  441MOL0     C58144   7.159   6.766   3.438 -0.5054 -0.0314  0.1555
  441MOL0     C58145   6.578   6.654   3.951  0.6886 -0.6504  0.0069
  441MOL0     C58146   6.475   6.608   4.032 -0.1569  0.0110 -0.7088
  441MOL0     H58147   6.238   6.269   4.267 -0.9346  0.2522 -1.6051
  441MOL0     H58148   6.101   6.158   4.424  3.4983  2.3204  1.0694
  441MOL0     H58149   5.660   6.212   4.541  1.2910 -0.7055 -0.5087
  441MOL0     H58150   5.686   6.344   4.435  1.0960  1.6068  0.1448
  441MOL0     H58151   5.788   6.467   4.637 -0.3740 -0.0803  0.1210
  441MOL0     H58152   5.752   6.322   4.730  1.1687  0.7307  0.5612
  441MOL0     H58153   5.517   6.332   4.639  0.2894 -0.3036  0.4398
  441MOL0     H58154   5.547   6.493   4.569  2.2131  1.8315 -0.1645
  441MOL0     H58155   5.585   6.430   4.860  3.1883  2.5912  0.1582
  441MOL0     H58156   5.566   6.595   4.802  2.2974 -1.2603 -0.2979
  441MOL0     H58157   5.351   6.525   4.921 -0.7458 -2.7913  1.2541
  441MOL0     H58158   5.342   6.382   4.823 -0.7283  0.8110 -1.3547
  441MOL0     H58159   5.291   6.494   4.626 -2.7323 -0.5466  1.5648
  441MOL0     H58160   5.349   6.648   4.672  0.8537 -0.4203 -1.1293
  441MOL0     H58161   5.083   6.547   4.674 -0.6109 -0.4085 -0.2974
  441MOL0     H58162   5.134   6.510   4.837 -2.3016 -1.2871 -2.0118
  441MOL0     H58163   5.169   6.796   4.727  0.5752  1.7289  1.0423
  441MOL0     H58164   5.183   6.727   4.896  1.1287 -2.3475 -1.5764
  441MOL0     H58165   4.907   6.717   4.608 -0.0763  2.2926 -0.4991
  441MOL0     H58166   4.645   6.689   4.617 -0.1258 -1.0918 -0.6771
  441MOL0     H58167   4.614   6.844   4.662  1.8361 -0.1194 -0.0026
  441MOL0     H58168   4.593   6.610   4.863  2.0613  0.4640  0.1473
  441MOL0     H58169   4.474   6.642   4.735 -0.0605  1.3992 -1.3780
  441MOL0     H58170   4.556   6.843   4.960 -1.2770 -1.4261  1.4434
  441MOL0     H58171   4.451   6.880   4.819 -0.0084 -1.1451 -1.7635
  441MOL0     H58172   4.315   6.834   5.012 -1.1204 -0.4794 -0.7481
  441MOL0     H58173   4.406   6.699   5.066  1.4978 -1.6881 -1.2291
  441MOL0     H58174   4.146   6.498   4.759 -2.8015  0.0751  3.9588
  441MOL0     H58175   3.982   6.550   4.584 -1.0594 -0.2716  2.1427
  441MOL0     H58176   3.862   7.093   4.313 -0.2364  0.3990  1.6455
  441MOL0     H58177   3.676   7.169   4.174 -0.1671  0.8427  1.0427
  441MOL0     H58178   3.376   6.992   4.111  0.2692 -0.0433  1.2977
  441MOL0     H58179   3.476   7.128   4.044  0.8188 -2.2592  0.4916
  441MOL0     H58180   3.249   7.145   3.957  4.5546 -0.4497 -0.0540
  441MOL0     H58181   3.264   7.278   4.079 -3.7772 -0.3035 -0.3045
  441MOL0     H58182   3.130   7.147   4.237  2.9382 -0.2752 -1.0312
  441MOL0     H58183   3.128   7.008   4.131  2.5900 -0.4160  0.5938
  441MOL0     H58184   3.025   7.286   4.027  0.3255  0.0806  1.2679
  441MOL0     H58185   2.987   7.114   3.971  2.0625 -2.9519  2.0987
  441MOL0     H58186   2.928   7.231   4.233 -0.1480 -2.1837  0.7585
  441MOL0     H58187   2.881   7.065   4.173 -2.4815  0.3161  3.3894
  441MOL0     H58188   2.746   7.184   3.988  1.1348 -1.1323  0.5228
  441MOL0     H58189   2.796   7.347   4.066 -1.1437  0.0871 -0.5575
  441MOL0     H58190   2.617   7.116   4.178 -2.0720  0.1733 -2.2308
  441MOL0     H58191   2.674   7.256   4.268  0.5664 -2.5283  0.5694
  441MOL0     H58192   2.538   7.273   4.000 -0.1367 -1.3255  0.8113
  441MOL0     H58193   2.540   7.407   4.118  0.8610 -0.2684  0.1374
  441MOL0     H58194   3.394   6.973   4.439 -0.0383 -2.2274  0.3286
  441MOL0     H58195   3.603   6.888   4.576  2.7343 -1.7900 -0.6238
  441MOL0     H58196   4.028   6.976   4.696  1.0340  0.7552  0.7941
  441MOL0     H58197   4.201   6.915   4.846 -0.1953 -0.0021  0.4429
  441MOL0     H58198   5.862   6.523   4.439 -0.4856 -0.8396 -1.1653
  441MOL0     H58199   6.034   6.631   4.322  1.2277  0.6057  0.3847
  441MOL0     H58200   6.249   6.833   3.970  0.7147  0.8471  0.1173
  441MOL0     H58201   6.430   6.942   3.848  0.8103  3.2028  4.5108
  441MOL0     H58202   6.832   6.687   3.805 -2.9171 -0.5550 -0.4047
  441MOL0     H58203   6.823   6.816   3.933  0.8478  2.6267 -1.0343
  441MOL0     H58204   6.881   6.992   3.785 -4.0045  1.4082 -3.2057
  441MOL0     H58205   6.994   6.857   3.762 -1.0307 -3.2039  0.1351
  441MOL0     H58206   6.917   6.981   3.545 -1.8623  1.1145 -1.5826
  441MOL0     H58207   6.753   6.911   3.580 -0.5525 -2.2635  1.3177
  441MOL0     H58208   6.882   6.677   3.563 -1.1388  1.5845  1.5800
  441MOL0     H58209   6.859   6.779   3.410 -2.7448  2.3993 -0.1056
  441MOL0     H58210   7.264   6.754   3.418  0.1963  1.5518  2.4420
  441MOL0     H58211   6.667   6.592   3.942 -1.1716 -3.3381 -1.2559
  441MOL0     H58212   6.497   6.519   4.090  2.2759  0.6363 -0.5992
  442MOL0     O58213   2.923   1.291   8.320  0.0284  0.0802 -0.3098
  442MOL0     C58214   2.901   1.269   8.199  0.3400 -0.6849  0.9345
  442MOL0     O58215   2.981   1.193   8.110  0.0490  0.0599  0.3936
  442MOL0     C58216   3.116   1.164   8.141 -0.1994 -0.3544  0.8278
  442MOL0     C58217   3.166   1.037   8.126  0.3820 -0.1758 -0.2459
  442MOL0     C58218   3.299   1.004   8.162 -0.6187  0.2542  0.4951
  442MOL0     C58219   3.386   1.104   8.212  0.0666 -0.6754 -0.2509
  442MOL0     O58220   3.522   1.078   8.247 -0.7474 -0.9639  0.7837
  442MOL0     C58221   3.582   0.949   8.212 -0.8123  0.2088 -0.7888
  442MOL0     C58222   3.743   0.954   8.225  0.0376  0.7962 -0.1149
  442MOL0     C58223   3.819   1.044   8.130 -0.2979  0.2323  0.0954
  442MOL0     C58224   3.815   0.983   7.981 -0.7031 -0.1901 -0.2219
  442MOL0     C58225   3.892   1.078   7.892  0.5254 -0.7105  0.5026
  442MOL0     C58226   4.045   1.088   7.898 -0.1323 -0.3322 -0.2964
  442MOL0     C58227   4.087   1.230   7.859 -0.0619 -0.0056  0.6352
  442MOL0     C58228   4.241   1.238   7.871 -0.7240  0.5246  0.3354
  442MOL0     N58229   4.292   1.359   7.807  0.0332 -0.6192 -0.3181
  442MOL0     C58230   4.256   1.485   7.846  0.4338 -0.4038 -0.2725
  442MOL0     C58231   4.335   1.575   7.780  0.5364  0.9285  0.3272
  442MOL0     C58232   4.346   1.719   7.800 -0.3683 -0.1104  0.6616
  442MOL0     C58233   4.348   1.754   7.947  0.1425 -0.2470 -0.2102
  442MOL0     C58234   4.385   1.906   7.959 -0.2394 -0.3486 -0.2760
  442MOL0     C58235   4.361   1.967   8.098 -0.0565 -0.1251  0.5863
  442MOL0     O58236   4.263   1.901   8.186  0.2134  0.0651 -0.2119
  442MOL0     C58237   4.126   1.925   8.165  0.1848 -0.2444 -0.3854
  442MOL0     C58238   4.042   1.836   8.222 -0.8305 -0.4193 -0.7251
  442MOL0     C58239   3.906   1.850   8.209  0.1144 -1.0703 -0.6337
  442MOL0     C58240   3.847   1.958   8.129  0.8623 -0.2690 -0.8670
  442MOL0     C58241   3.698   1.985   8.116  0.0419  0.1192 -0.2906
  442MOL0     O58242   3.659   2.086   8.035  0.2286 -0.1606  0.2271
  442MOL0     C58243   3.534   2.104   7.992 -1.1529 -0.5589 -0.4660
  442MOL0     C58244   3.482   2.227   7.981  0.2744 -1.0805 -0.7489
  442MOL0     C58245   3.366   2.257   7.922  0.2163 -0.8029 -0.3034
  442MOL0     C58246   3.272   2.160   7.878 -0.4778  0.0784  0.7875
  442MOL0     O58247   3.157   2.202   7.816 -0.0794 -0.5391 -0.0428
  442MOL0     C58248   3.071   2.094   7.770  0.7133  0.5350 -0.5888
  442MOL0     C58249   2.952   2.147   7.686  0.8857  0.0855  0.5566
  442MOL0     C58250   2.895   2.280   7.736 -0.3273  0.8317  0.2713
  442MOL0     C58251   2.796   2.341   7.640 -0.5050  0.1668  0.1682
  442MOL0     C58252   2.742   2.470   7.702  0.0644 -0.5666  1.2281
  442MOL0     C58253   2.641   2.543   7.602  1.0818  0.1253 -0.5041
  442MOL0     C58254   2.700   2.563   7.465 -0.9599  0.0124 -0.7395
  442MOL0     C58255   2.614   2.665   7.397  0.3632 -0.5234 -0.8145
  442MOL0    Cl58256   2.672   2.722   7.246 -0.1155 -0.0147 -0.1469
  442MOL0     C58257   3.319   2.030   7.898 -0.0381  1.1482  0.0989
  442MOL0     C58258   3.448   2.001   7.947 -0.0611 -0.0349  0.2325
  442MOL0     O58259   3.629   1.914   8.189  0.0587 -0.4293 -0.7786
  442MOL0     C58260   3.940   2.048   8.078 -0.3839  0.3314 -0.3234
  442MOL0     C58261   4.080   2.032   8.094 -0.1113 -0.4176 -0.2702
  442MOL0     N58262   4.435   1.502   7.715  0.2722  0.3343 -0.4187
  442MOL0     N58263   4.408   1.371   7.737  0.2268 -0.1506 -0.1216
  442MOL0     C58264   3.330   1.228   8.236  0.1518 -0.5990 -0.3700
  442MOL0     C58265   3.206   1.261   8.195  0.9569  0.1101  0.3909
  442MOL0     C58266   2.787   1.337   8.133 -0.1934  0.0683  0.0881
  442MOL0     C58267   2.695   1.419   8.206 -0.5007  0.4549  0.4984
  442MOL0     C58268   2.587   1.476   8.138  0.7840 -0.0632  1.2610
  442MOL0     C58269   2.555   1.443   8.002 -0.5032 -0.1711  0.2413
  442MOL0     O58270   2.447   1.465   7.919 -0.6232 -1.3379  0.3859
  442MOL0     C58271   2.343   1.553   7.958  0.9658 -0.2815 -0.1335
  442MOL0     C58272   2.251   1.470   8.048 -0.5033 -0.0675  0.4030
  442MOL0     C58273   2.162   1.569   8.133 -0.1593  0.4968 -0.5789
  442MOL0     C58274   2.092   1.682   8.072  0.5963 -0.0196  0.0165
  442MOL0     C58275   2.009   1.645   7.951 -0.0982 -0.0917  0.4610
  442MOL0     C58276   1.936   1.630   7.857 -0.2179 -0.2937  0.9688
  442MOL0     C58277   2.649   1.373   7.940 -0.2225 -0.4946  0.5419
  442MOL0     C58278   2.763   1.320   7.997 -0.1389 -0.2289  0.0009
  442MOL0     H58279   3.103   0.959   8.083  0.9809 -1.1265  0.5538
  442MOL0     H58280   3.335   0.904   8.139 -1.6944  0.2760 -1.5100
  442MOL0     H58281   3.563   0.918   8.109 -0.8777  0.5636 -0.8839
  442MOL0     H58282   3.550   0.870   8.281  0.9468  0.4708  0.3953
  442MOL0     H58283   3.796   0.858   8.235 -1.0689  0.2103  0.2821
  442MOL0     H58284   3.756   1.001   8.323 -0.8765 -3.0671  2.0756
  442MOL0     H58285   3.924   1.053   8.157  0.2659  2.3092 -2.3609
  442MOL0     H58286   3.771   1.141   8.141  0.0362  0.0713  4.7918
  442MOL0     H58287   3.857   0.882   7.971  0.5265  0.1320  1.3345
  442MOL0     H58288   3.712   0.986   7.945 -1.1038  0.0469  0.9158
  442MOL0     H58289   3.840   1.174   7.900 -0.3069 -1.1189  0.1201
  442MOL0     H58290   3.867   1.043   7.791  3.3941 -1.6786  0.0534
  442MOL0     H58291   4.080   1.007   7.835  0.9709  0.1523 -0.3310
  442MOL0     H58292   4.090   1.073   7.997 -0.1710 -0.1066 -0.2430
  442MOL0     H58293   4.060   1.262   7.758 -1.5495 -0.5658  0.8379
  442MOL0     H58294   4.045   1.300   7.931  1.3677  3.3176 -1.5047
  442MOL0     H58295   4.290   1.148   7.832 -2.1289 -0.0336 -0.1865
  442MOL0     H58296   4.265   1.247   7.977  1.5524 -1.8729  0.1447
  442MOL0     H58297   4.187   1.520   7.923  0.9496  3.5719 -1.3856
  442MOL0     H58298   4.267   1.767   7.741  0.9386  1.1893 -0.0636
  442MOL0     H58299   4.435   1.756   7.750 -0.7950 -1.3437 -1.0937
  442MOL0     H58300   4.417   1.698   8.011  2.1910  1.8151 -0.4841
  442MOL0     H58301   4.247   1.736   7.985  0.9417 -1.7695  1.3322
  442MOL0     H58302   4.484   1.919   7.914 -1.9101 -0.5595 -4.3502
  442MOL0     H58303   4.321   1.966   7.895  1.0435  0.3000 -0.9955
  442MOL0     H58304   4.347   2.075   8.088  0.1725 -0.1092  0.4440
  442MOL0     H58305   4.451   1.962   8.159  0.7944  1.0378 -0.5378
  442MOL0     H58306   4.078   1.750   8.278  0.9627 -0.7531 -2.2847
  442MOL0     H58307   3.831   1.784   8.252  0.2781 -0.7618  0.1384
  442MOL0     H58308   3.531   2.315   8.022  0.4649 -1.9712  1.0212
  442MOL0     H58309   3.343   2.362   7.912 -0.4197 -0.8305  0.6867
  442MOL0     H58310   3.029   2.048   7.860 -0.8003  0.6373 -1.2124
  442MOL0     H58311   3.117   2.015   7.710 -0.5978 -2.2008  1.7475
  442MOL0     H58312   2.870   2.075   7.682  0.1174  0.9286 -3.8799
  442MOL0     H58313   2.984   2.167   7.583  0.3756 -0.0235  0.3734
  442MOL0     H58314   2.982   2.346   7.733 -1.4990  2.4460  0.4482
  442MOL0     H58315   2.851   2.266   7.836  0.4203 -0.9427  0.3771
  442MOL0     H58316   2.850   2.367   7.548  0.7444  0.7927  1.0499
  442MOL0     H58317   2.715   2.274   7.611  1.3496 -1.8747 -0.5872
  442MOL0     H58318   2.820   2.545   7.714  0.0130  0.4362 -3.1570
  442MOL0     H58319   2.689   2.441   7.794  1.5165  0.2577  2.3716
  442MOL0     H58320   2.601   2.637   7.641 -1.1003 -1.1418  0.5566
  442MOL0     H58321   2.559   2.473   7.583  0.5798  0.5208  0.1659
  442MOL0     H58322   2.805   2.594   7.475 -1.2096  0.7520 -0.3162
  442MOL0     H58323   2.702   2.464   7.420  3.0997 -0.5752  0.3042
  442MOL0     H58324   2.595   2.754   7.458  0.9303 -0.9456 -0.0047
  442MOL0     H58325   2.521   2.615   7.368  0.4840 -2.1888  1.3644
  442MOL0     H58326   3.251   1.950   7.868 -0.3025  1.5708 -0.4292
  442MOL0     H58327   3.480   1.897   7.952 -0.9429 -0.4131 -1.3518
  442MOL0     H58328   3.912   2.126   8.008  1.9633  1.0440 -0.5423
  442MOL0     H58329   4.134   2.114   8.047 -0.7405 -0.3468 -0.8791
  442MOL0     H58330   3.402   1.302   8.271 -2.6478  1.8728  0.5720
  442MOL0     H58331   3.161   1.358   8.216 -0.6564 -0.6030  0.3720
  442MOL0     H58332   2.720   1.444   8.308  0.5191 -1.1594  0.6844
  442MOL0     H58333   2.514   1.530   8.198  0.6037 -0.1074  1.0818
  442MOL0     H58334   2.287   1.609   7.882 -0.7278 -1.6878  0.0319
  442MOL0     H58335   2.386   1.633   8.020  0.6030  0.0073 -0.2502
  442MOL0     H58336   2.178   1.415   7.987  0.2126 -1.0047  0.3617
  442MOL0     H58337   2.307   1.401   8.111 -2.4879  0.6993  3.1633
  442MOL0     H58338   2.237   1.601   8.205 -0.6453  1.8912 -0.6707
  442MOL0     H58339   2.089   1.504   8.183  1.0224 -1.7142 -1.5373
  442MOL0     H58340   2.026   1.731   8.145  3.1263  0.7739  1.9063
  442MOL0     H58341   2.176   1.745   8.042  1.0285 -0.1822  0.8642
  442MOL0     H58342   1.881   1.619   7.766 -2.1085 -0.2859  2.0770
  442MOL0     H58343   2.630   1.350   7.836  1.2849  2.1430 -0.4158
  442MOL0     H58344   2.831   1.256   7.940  1.1896  1.7359 -0.7368
  443MOL0     O58345   4.746   6.455   7.970  0.2297 -0.0880 -0.1727
  443MOL0     C58346   4.781   6.355   8.037 -0.4217  0.2421 -0.2144
  443MOL0     O58347   4.693   6.259   8.084  0.4495 -0.0239 -0.5713
  443MOL0     C58348   4.561   6.283   8.060 -0.1051 -0.2334 -0.4673
  443MOL0     C58349   4.503   6.397   8.126 -0.0135  0.6056 -0.3323
  443MOL0     C58350   4.370   6.417   8.110  0.4503 -0.1875  0.5035
  443MOL0     C58351   4.288   6.339   8.037 -1.1900  0.2679  1.1523
  443MOL0     O58352   4.154   6.365   8.029  0.2370  0.5392 -0.3678
  443MOL0     C58353   4.085   6.293   7.922  0.0789  0.0558 -0.7235
  443MOL0     C58354   3.939   6.340   7.915  0.1139  0.4709  0.2327
  443MOL0     C58355   3.855   6.239   7.832 -0.0085  0.0842 -0.1651
  443MOL0     C58356   3.742   6.311   7.755 -0.8186 -0.5621 -0.6289
  443MOL0     C58357   3.633   6.360   7.855 -0.9164 -0.6908  0.9712
  443MOL0     C58358   3.532   6.249   7.884 -0.3175  0.0967 -0.7981
  443MOL0     C58359   3.438   6.306   7.999 -0.3970 -0.6747  1.1619
  443MOL0     C58360   3.332   6.205   8.037 -0.1095 -0.7195 -0.4030
  443MOL0     N58361   3.209   6.237   7.968 -0.4032  1.3930 -0.3683
  443MOL0     C58362   3.201   6.242   7.830 -0.1689 -0.3427 -0.4730
  443MOL0     C58363   3.080   6.307   7.816 -0.4106  0.4405 -0.4309
  443MOL0     C58364   3.023   6.340   7.680  0.3118  0.3595 -0.8652
  443MOL0     C58365   3.086   6.476   7.637  0.1397 -0.1368 -0.8519
  443MOL0     C58366   3.017   6.522   7.511  0.1913 -1.0112  0.1972
  443MOL0     C58367   3.030   6.675   7.491  0.0597  0.9688  0.4999
  443MOL0     O58368   3.161   6.693   7.434  0.2006  1.2112  0.5814
  443MOL0     C58369   3.208   6.822   7.419  0.4284 -0.1684 -0.6428
  443MOL0     C58370   3.346   6.828   7.392  0.4473 -0.1646 -0.1576
  443MOL0     C58371   3.410   6.946   7.372 -0.1255  0.2821  0.6811
  443MOL0     C58372   3.335   7.067   7.386  0.3984  0.4246  0.1738
  443MOL0     C58373   3.405   7.194   7.375  0.5436  0.4175 -0.0655
  443MOL0     O58374   3.529   7.191   7.314 -0.0346 -0.0944 -0.2204
  443MOL0     C58375   3.607   7.302   7.323 -0.9433  0.1203  0.1511
  443MOL0     C58376   3.713   7.287   7.414 -1.2442  0.0961 -0.2802
  443MOL0     C58377   3.787   7.401   7.451 -0.0801 -0.3103 -0.4050
  443MOL0     C58378   3.763   7.529   7.391  0.1837  0.5504 -1.1630
  443MOL0     O58379   3.818   7.650   7.421 -0.5985  0.2418 -0.2123
  443MOL0     C58380   3.918   7.670   7.521  0.5398 -0.1196  0.2511
  443MOL0     C58381   3.964   7.808   7.529  0.2161 -1.1508 -0.4773
  443MOL0     C58382   4.097   7.819   7.608  0.1105  0.2643  0.3498
  443MOL0     C58383   4.153   7.953   7.596  0.7244 -0.5390  0.7582
  443MOL0     C58384   4.282   7.972   7.673  0.5667 -0.0705  0.2104
  443MOL0     C58385   4.359   8.103   7.624 -1.1535  0.4530 -0.4629
  443MOL0     C58386   4.288   8.224   7.682 -0.2805 -0.3530 -0.4345
  443MOL0     C58387   4.344   8.353   7.611 -0.4441 -1.0113  0.4724
  443MOL0    Cl58388   4.285   8.486   7.721 -0.2305  0.2844 -0.3907
  443MOL0     C58389   3.672   7.533   7.282  0.2145  0.2011 -0.3372
  443MOL0     C58390   3.591   7.417   7.256 -0.6688 -0.4904  0.7483
  443MOL0     O58391   3.344   7.295   7.414 -0.3305 -0.2143 -0.1958
  443MOL0     C58392   3.195   7.058   7.411 -0.2241  0.8865 -0.1279
  443MOL0     C58393   3.135   6.938   7.426 -0.0116  1.0864  0.5136
  443MOL0     N58394   3.020   6.322   7.940  0.3064 -0.3864  0.3907
  443MOL0     N58395   3.100   6.286   8.027 -0.4721 -0.1219 -0.6175
  443MOL0     C58396   4.353   6.226   7.966 -0.1524  0.0283  0.6607
  443MOL0     C58397   4.482   6.196   7.992  0.0936  1.6032  0.4006
  443MOL0     C58398   4.924   6.318   8.048 -0.5348 -0.0934 -1.1518
  443MOL0     C58399   5.023   6.407   8.004 -0.5724 -0.3598 -0.5297
  443MOL0     C58400   5.158   6.366   8.015 -0.3211  0.5470  0.5315
  443MOL0     C58401   5.194   6.239   8.058  0.3452  0.1353  0.2673
  443MOL0     O58402   5.319   6.196   8.091  0.4016 -0.2209  0.0381
  443MOL0     C58403   5.406   6.186   7.976 -0.0621 -0.0109  0.7470
  443MOL0     C58404   5.394   6.045   7.899 -0.9585 -0.4804  0.1817
  443MOL0     C58405   5.387   5.923   7.997 -0.1591 -0.2066 -0.3284
  443MOL0     C58406   5.367   5.797   7.919 -0.6818  0.1398  0.4150
  443MOL0     C58407   5.469   5.752   7.815  0.5908  0.5775  0.0644
  443MOL0     C58408   5.553   5.718   7.735  0.2559 -0.1813  0.7265
  443MOL0     C58409   5.093   6.153   8.093  0.7229  0.1141 -0.0173
  443MOL0     C58410   4.963   6.188   8.093 -0.1297  0.3608  0.4173
  443MOL0     H58411   4.574   6.457   8.182  0.3298 -0.3556  0.2877
  443MOL0     H58412   4.327   6.501   8.164 -1.3448 -1.0572  0.4909
  443MOL0     H58413   4.081   6.186   7.944 -1.1139 -0.0448 -1.3399
  443MOL0     H58414   4.132   6.311   7.825 -1.7873  0.7276 -1.5479
  443MOL0     H58415   3.934   6.437   7.865 -0.7820 -1.3226 -3.5211
  443MOL0     H58416   3.905   6.338   8.019 -0.4208 -3.5964  0.1462
  443MOL0     H58417   3.815   6.157   7.891 -1.6411 -0.0709 -1.4364
  443MOL0     H58418   3.919   6.204   7.750  2.2719  2.4526  0.4719
  443MOL0     H58419   3.795   6.400   7.720  2.3420 -1.1685  2.0649
  443MOL0     H58420   3.697   6.247   7.679 -2.0139 -1.9993  1.1909
  443MOL0     H58421   3.578   6.440   7.805 -0.6929 -0.6757  0.7496
  443MOL0     H58422   3.673   6.397   7.950 -2.0584 -3.4038  2.6571
  443MOL0     H58423   3.583   6.165   7.931 -1.8276  1.4480  3.9029
  443MOL0     H58424   3.473   6.223   7.796  0.4023  0.6691 -1.4627
  443MOL0     H58425   3.510   6.336   8.076 -0.4355  0.3798  0.7976
  443MOL0     H58426   3.383   6.393   7.964  1.2877  0.2569  0.6894
  443MOL0     H58427   3.326   6.208   8.146  1.9700 -0.5786 -0.2415
  443MOL0     H58428   3.365   6.100   8.033  1.6582 -0.6041  4.4110
  443MOL0     H58429   3.271   6.199   7.759  0.9655 -1.4399  1.2275
  443MOL0     H58430   2.914   6.349   7.685  0.3157 -0.2958  2.1091
  443MOL0     H58431   3.045   6.258   7.610 -0.2871  0.0591 -0.7053
  443MOL0     H58432   3.190   6.454   7.610  0.0096 -3.0824  0.6839
  443MOL0     H58433   3.081   6.549   7.718  1.4930 -1.3634  0.3933
  443MOL0     H58434   3.048   6.463   7.424 -1.8598  0.1340 -1.4250
  443MOL0     H58435   2.908   6.516   7.518 -0.0968  1.0252 -1.3905
  443MOL0     H58436   2.998   6.738   7.574 -2.2972 -0.2633  0.5947
  443MOL0     H58437   2.956   6.698   7.414 -0.0907 -1.1471 -0.0360
  443MOL0     H58438   3.392   6.733   7.367 -0.9697 -1.2910  1.2938
  443MOL0     H58439   3.514   6.955   7.343 -0.0555  1.0706  1.1403
  443MOL0     H58440   3.732   7.194   7.465 -0.4769 -0.1407 -0.9809
  443MOL0     H58441   3.859   7.394   7.532  0.8502 -0.8219 -1.2515
  443MOL0     H58442   4.001   7.603   7.498 -1.1516 -2.6885  1.1774
  443MOL0     H58443   3.886   7.645   7.623  3.0688  0.4179  1.2467
  443MOL0     H58444   3.884   7.870   7.571 -1.3163 -1.9150 -2.1535
  443MOL0     H58445   3.971   7.850   7.428 -2.7403 -0.7142 -0.5679
  443MOL0     H58446   4.165   7.740   7.574  0.2823 -0.1220  1.5183
  443MOL0     H58447   4.075   7.817   7.715  0.7228  2.7671  0.5866
  443MOL0     H58448   4.173   7.966   7.489 -0.7423 -0.0120  0.5225
  443MOL0     H58449   4.082   8.032   7.621  1.3435  0.3241 -0.1141
  443MOL0     H58450   4.353   7.891   7.657  0.4192 -0.0856 -0.3918
  443MOL0     H58451   4.265   7.977   7.781 -2.2331 -3.4916  0.1085
  443MOL0     H58452   4.366   8.105   7.515 -2.1915 -2.7972 -0.7022
  443MOL0     H58453   4.461   8.096   7.664 -0.5291 -1.4723 -2.2167
  443MOL0     H58454   4.181   8.215   7.659 -0.0462  2.6047 -3.3820
  443MOL0     H58455   4.299   8.227   7.791  0.0040 -1.6508 -0.4165
  443MOL0     H58456   4.316   8.379   7.509  4.2299  1.5459 -0.4561
  443MOL0     H58457   4.453   8.354   7.608 -0.4392  1.1153 -0.1040
  443MOL0     H58458   3.643   7.632   7.247  0.3179  1.2479  2.3128
  443MOL0     H58459   3.506   7.432   7.190 -0.7469  0.9624  1.1418
  443MOL0     H58460   3.143   7.152   7.424 -0.2648  0.5119  3.3125
  443MOL0     H58461   3.028   6.927   7.440 -0.1538 -0.2514 -1.2310
  443MOL0     H58462   4.291   6.162   7.904  1.7620 -1.3387  0.0540
  443MOL0     H58463   4.523   6.104   7.952  1.1305  0.9632  2.7624
  443MOL0     H58464   4.989   6.507   7.981 -0.2865  0.1456  1.1489
  443MOL0     H58465   5.236   6.438   7.993  1.2296 -0.3971  2.5888
  443MOL0     H58466   5.509   6.200   8.011  0.8789  0.4039 -1.9419
  443MOL0     H58467   5.394   6.259   7.895 -1.3940 -1.3855 -0.3346
  443MOL0     H58468   5.300   6.054   7.843 -1.6209 -1.1661  1.1576
  443MOL0     H58469   5.484   6.042   7.836 -0.4056 -0.5854  0.9702
  443MOL0     H58470   5.314   5.929   8.078  0.7965 -1.3736  0.6663
  443MOL0     H58471   5.485   5.911   8.043  1.4064 -1.7300 -3.6761
  443MOL0     H58472   5.358   5.715   7.992 -1.0443 -1.4407 -1.3218
  443MOL0     H58473   5.267   5.807   7.876 -1.8331  0.9835  3.0773
  443MOL0     H58474   5.624   5.673   7.669 -0.5273 -0.2423 -0.0979
  443MOL0     H58475   5.125   6.053   8.122 -0.7726 -0.0209  1.3471
  443MOL0     H58476   4.889   6.121   8.135 -0.9198  1.2955  0.5712
  444MOL0     O58477   4.061   8.727   4.064 -0.1845 -0.2643  0.3302
  444MOL0     C58478   4.090   8.690   3.947  0.3978  0.5798 -0.0518
  444MOL0     O58479   4.002   8.649   3.853  0.0195  0.4237  0.3776
  444MOL0     C58480   3.870   8.642   3.884  0.7188 -0.0499 -0.2616
  444MOL0     C58481   3.808   8.538   3.949  0.6871 -0.2258  0.1883
  444MOL0     C58482   3.673   8.554   3.973 -0.0540 -0.0893  0.8220
  444MOL0     C58483   3.591   8.661   3.940  0.1315  0.2065 -0.3099
  444MOL0     O58484   3.464   8.658   3.983  0.8367  0.0636 -0.5519
  444MOL0     C58485   3.383   8.777   3.986 -0.1854 -0.2859 -1.2283
  444MOL0     C58486   3.246   8.734   4.035  0.1295 -0.1127  0.0559
  444MOL0     C58487   3.147   8.852   4.046  0.1610 -0.4780  0.4392
  444MOL0     C58488   3.019   8.821   4.134 -0.1896 -0.6672 -0.0263
  444MOL0     C58489   2.963   8.962   4.166  0.3390  0.0276 -0.1730
  444MOL0     C58490   2.827   8.954   4.232 -0.0141 -0.3564 -0.2190
  444MOL0     C58491   2.767   9.098   4.259 -0.0482  0.4976 -0.6817
  444MOL0     C58492   2.611   9.092   4.257  0.2448  0.8411  0.0506
  444MOL0     N58493   2.552   8.992   4.359 -0.0103 -0.4408 -0.1818
  444MOL0     C58494   2.499   9.025   4.481  0.0805 -0.4440 -0.8494
  444MOL0     C58495   2.452   8.909   4.527 -0.2929 -0.2287  0.5973
  444MOL0     C58496   2.392   8.887   4.660 -0.1723 -0.4020 -0.5256
  444MOL0     C58497   2.266   8.971   4.679 -0.8123  0.8909  0.0404
  444MOL0     C58498   2.175   8.916   4.799 -0.2853  0.6584 -0.1168
  444MOL0     C58499   2.067   9.015   4.840  0.3885  0.1735 -0.0418
  444MOL0     O58500   2.005   9.067   4.721  0.7675  0.0694 -0.1244
  444MOL0     C58501   1.865   9.076   4.719 -0.5385  0.4781 -0.5476
  444MOL0     C58502   1.792   9.090   4.605 -0.1243  0.8019 -0.7114
  444MOL0     C58503   1.656   9.119   4.600 -0.1113 -0.4502 -0.2537
  444MOL0     C58504   1.583   9.126   4.718  0.1527  0.5051  0.6573
  444MOL0     C58505   1.431   9.137   4.727 -0.0208  0.5860  0.3329
  444MOL0     O58506   1.364   9.118   4.613 -0.6484 -0.1450  0.7599
  444MOL0     C58507   1.238   9.153   4.592 -0.0451 -0.2974 -0.4310
  444MOL0     C58508   1.167   9.072   4.503 -0.0196 -0.0885  0.1158
  444MOL0     C58509   1.029   9.085   4.488 -0.2838  1.3196  0.2514
  444MOL0     C58510   0.967   9.189   4.562  0.5500 -0.6560  0.1970
  444MOL0     O58511   0.828   9.213   4.545  0.0649 -0.2896 -0.1678
  444MOL0     C58512   0.746   9.116   4.482  0.1199 -0.5937 -0.9862
  444MOL0     C58513   0.591   9.145   4.526 -0.2300  0.2135  0.3661
  444MOL0     C58514   0.519   9.236   4.424  0.3365 -1.6013  0.4772
  444MOL0     C58515   0.401   9.306   4.505 -0.0968  0.6623  0.1372
  444MOL0     C58516   0.314   9.396   4.415  0.1439  0.2688  0.0033
  444MOL0     C58517   0.203   9.451   4.501 -0.2508 -0.6925  0.2327
  444MOL0     C58518   0.096   9.511   4.405  0.1474 -0.5815 -0.3364
  444MOL0     C58519  -0.023   9.561   4.486 -0.4010 -0.2431  0.3470
  444MOL0    Cl58520  -0.123   9.411   4.519  0.1995 -0.4402 -0.3196
  444MOL0     C58521   1.043   9.281   4.628  0.5653  0.6384 -0.7235
  444MOL0     C58522   1.174   9.254   4.655 -0.3657 -0.5619  0.5498
  444MOL0     O58523   1.383   9.171   4.832 -0.6641  0.0065 -0.1665
  444MOL0     C58524   1.660   9.122   4.836  0.5473 -0.4625  0.5491
  444MOL0     C58525   1.792   9.105   4.836  0.4436 -0.4714  0.2917
  444MOL0     N58526   2.470   8.811   4.443 -0.3193  0.6544  1.5175
  444MOL0     N58527   2.538   8.856   4.336 -0.2408 -0.2493 -0.3436
  444MOL0     C58528   3.660   8.772   3.885 -0.9531  0.0072  0.3045
  444MOL0     C58529   3.801   8.758   3.852 -0.7818  0.0089  0.1272
  444MOL0     C58530   4.225   8.700   3.902  0.2854  1.0058  0.6910
  444MOL0     C58531   4.317   8.763   3.981 -0.5651  0.6740 -0.7039
  444MOL0     C58532   4.454   8.764   3.951  0.3060 -0.3795 -0.2283
  444MOL0     C58533   4.495   8.715   3.824  0.0204 -0.0805  0.1933
  444MOL0     O58534   4.623   8.716   3.776  0.2638  0.1511 -0.9154
  444MOL0     C58535   4.727   8.781   3.849 -0.0064  0.3233  0.1108
  444MOL0     C58536   4.709   8.933   3.829 -0.2995 -0.2246 -0.0181
  444MOL0     C58537   4.828   9.016   3.776  0.0060  0.4300  0.6672
  444MOL0     C58538   4.843   9.009   3.627  0.8056 -0.1799 -0.5628
  444MOL0     C58539   4.970   9.073   3.589 -0.0471  0.1971 -0.3083
  444MOL0     C58540   5.067   9.132   3.548 -0.4454  0.2648 -0.3041
  444MOL0     C58541   4.406   8.651   3.742  0.1137 -0.7210  0.1793
  444MOL0     C58542   4.273   8.637   3.787 -0.8402 -0.5387 -0.3466
  444MOL0     H58543   3.858   8.448   3.983 -0.2495 -1.2190 -0.9545
  444MOL0     H58544   3.617   8.469   4.013 -1.6207  0.9274  0.8723
  444MOL0     H58545   3.369   8.822   3.887 -2.0146 -1.1646 -1.4058
  444MOL0     H58546   3.429   8.853   4.049  1.4410 -1.6127 -0.7402
  444MOL0     H58547   3.265   8.681   4.129  0.4598 -3.9672 -1.9738
  444MOL0     H58548   3.210   8.665   3.958 -0.6140  0.8438 -0.4701
  444MOL0     H58549   3.106   8.870   3.946  0.3153 -1.0204  0.2778
  444MOL0     H58550   3.190   8.947   4.081 -0.9735  0.7452 -1.3128
  444MOL0     H58551   2.943   8.759   4.086 -0.3896  0.8202 -1.7195
  444MOL0     H58552   3.046   8.772   4.228 -2.1911 -1.2975  0.2556
  444MOL0     H58553   2.958   9.024   4.076 -0.9065 -0.1760 -0.2589
  444MOL0     H58554   3.028   9.027   4.225  1.2846  2.5313 -3.6296
  444MOL0     H58555   2.833   8.897   4.325 -3.4849 -1.2098 -0.3886
  444MOL0     H58556   2.760   8.898   4.167  0.2950 -0.3778 -0.5208
  444MOL0     H58557   2.808   9.133   4.355  4.5549 -1.8490 -1.4934
  444MOL0     H58558   2.786   9.168   4.177 -1.3889  2.5133  0.6379
  444MOL0     H58559   2.583   9.059   4.156  2.4982  0.3776 -0.4775
  444MOL0     H58560   2.572   9.194   4.274 -1.7370  0.0187  0.7727
  444MOL0     H58561   2.503   9.124   4.526 -2.4128 -1.2141  1.2793
  444MOL0     H58562   2.467   8.901   4.739 -1.6153 -2.3247  1.2851
  444MOL0     H58563   2.358   8.783   4.667  0.7395 -0.7972 -1.6875
  444MOL0     H58564   2.207   8.966   4.587 -2.5737  2.1824  1.0410
  444MOL0     H58565   2.299   9.074   4.692 -0.3356  0.7357  0.0707
  444MOL0     H58566   2.134   8.817   4.775 -0.8756  0.9857 -0.4624
  444MOL0     H58567   2.249   8.904   4.879  0.7192 -0.2216 -1.1507
  444MOL0     H58568   2.124   9.094   4.888 -0.6774  0.9590 -0.0228
  444MOL0     H58569   1.994   8.963   4.903  1.9788 -1.8545  0.2329
  444MOL0     H58570   1.848   9.086   4.512  1.1560 -1.7162  0.0953
  444MOL0     H58571   1.608   9.126   4.503  1.5645  1.1651 -1.0277
  444MOL0     H58572   1.214   8.995   4.444 -3.8334 -2.1592 -0.5239
  444MOL0     H58573   0.976   9.022   4.418  1.9033  0.4608 -0.7191
  444MOL0     H58574   0.778   9.015   4.509  3.4425  0.4339 -0.6451
  444MOL0     H58575   0.744   9.106   4.373 -0.9537 -1.2405 -0.9276
  444MOL0     H58576   0.592   9.199   4.621  0.4167 -1.1057  1.1364
  444MOL0     H58577   0.529   9.056   4.539 -1.8529  1.1440 -0.6885
  444MOL0     H58578   0.482   9.178   4.339  1.7982 -1.3824 -0.3323
  444MOL0     H58579   0.588   9.310   4.384  0.6529 -1.2691  1.5933
  444MOL0     H58580   0.332   9.231   4.544  0.0878 -0.0959 -0.9596
  444MOL0     H58581   0.437   9.360   4.594 -0.0334 -0.2348  0.6691
  444MOL0     H58582   0.273   9.336   4.334 -1.5118  1.7370 -0.2902
  444MOL0     H58583   0.377   9.477   4.379  0.3962 -0.2327 -0.6929
  444MOL0     H58584   0.244   9.526   4.570 -2.2636 -0.9351  1.7871
  444MOL0     H58585   0.143   9.374   4.551 -2.8838  1.7700  1.1427
  444MOL0     H58586   0.134   9.600   4.353 -0.1090  0.8349  1.7682
  444MOL0     H58587   0.054   9.445   4.329 -1.3517 -1.2595  1.0192
  444MOL0     H58588  -0.078   9.640   4.435 -0.1304  0.2409  0.7956
  444MOL0     H58589   0.013   9.601   4.581  0.0777 -1.8834  0.8905
  444MOL0     H58590   1.003   9.374   4.666 -0.5979  0.2877 -1.0522
  444MOL0     H58591   1.232   9.327   4.711  0.7958 -0.9571 -0.1044
  444MOL0     H58592   1.608   9.143   4.929  0.5088 -0.4397  0.5225
  444MOL0     H58593   1.844   9.099   4.931 -0.2954  1.6777  0.8871
  444MOL0     H58594   3.597   8.857   3.861 -0.0437  0.7034  0.3169
  444MOL0     H58595   3.846   8.843   3.802  0.0287 -0.4843  0.0049
  444MOL0     H58596   4.284   8.816   4.070 -0.8245  2.0432 -1.5729
  444MOL0     H58597   4.523   8.797   4.028  0.3842  1.6008 -1.0873
  444MOL0     H58598   4.827   8.756   3.813 -0.2100  2.9496 -2.7732
  444MOL0     H58599   4.721   8.770   3.958 -2.0255  2.9485  0.3933
  444MOL0     H58600   4.624   8.952   3.763 -1.3443  3.0016  1.9985
  444MOL0     H58601   4.678   8.985   3.920  1.3202 -1.0929  1.0878
  444MOL0     H58602   4.919   8.970   3.815  0.5873  0.9114 -0.1078
  444MOL0     H58603   4.804   9.117   3.812 -2.6682  0.7447 -1.6915
  444MOL0     H58604   4.832   8.908   3.587  0.4390  1.3305 -4.7548
  444MOL0     H58605   4.760   9.062   3.580 -0.1232 -1.1576 -0.0577
  444MOL0     H58606   5.149   9.181   3.499 -0.5409 -0.2572 -0.9892
  444MOL0     H58607   4.441   8.606   3.650 -2.1092 -2.1717 -0.0114
  444MOL0     H58608   4.204   8.578   3.727 -1.0351 -1.9197  1.1675
  445MOL0     O58609   8.498   9.662   6.473 -0.3268 -0.1783  0.0097
  445MOL0     C58610   8.521   9.714   6.365 -0.7391  0.0991  0.1140
  445MOL0     O58611   8.460   9.696   6.257  0.2757 -0.1623  0.2579
  445MOL0     C58612   8.345   9.619   6.265 -0.2212  0.0320  0.1502
  445MOL0     C58613   8.340   9.502   6.189 -0.7586  0.3039 -0.1018
  445MOL0     C58614   8.220   9.427   6.186  0.6976 -0.2204  0.3388
  445MOL0     C58615   8.102   9.470   6.256 -0.8910 -0.8496  0.4712
  445MOL0     O58616   7.983   9.402   6.252  0.3481  0.2641 -0.0021
  445MOL0     C58617   7.991   9.279   6.325  1.7047 -0.0635  0.0044
  445MOL0     C58618   7.935   9.296   6.469  0.2623 -0.1420  0.2624
  445MOL0     C58619   7.900   9.153   6.526  0.1540 -0.5939 -0.2680
  445MOL0     C58620   7.822   9.150   6.664  0.4835 -0.3728 -0.3914
  445MOL0     C58621   7.787   9.007   6.716 -0.2434  0.0059 -0.0557
  445MOL0     C58622   7.919   8.925   6.731  0.1794  0.2757 -0.2468
  445MOL0     C58623   7.908   8.792   6.797  0.4292  0.7128 -0.1932
  445MOL0     C58624   7.885   8.794   6.954 -0.5810  0.1878  0.4585
  445MOL0     N58625   7.822   8.671   7.014  0.1066 -0.9498 -0.0663
  445MOL0     C58626   7.726   8.591   6.963  0.5106 -0.3500 -0.0846
  445MOL0     C58627   7.708   8.502   7.061  0.6059 -0.3539 -0.7373
  445MOL0     C58628   7.613   8.385   7.054  0.2246  0.1120  0.9597
  445MOL0     C58629   7.460   8.430   7.065  0.0536 -0.4689 -0.3464
  445MOL0     C58630   7.413   8.435   7.207  0.7675  0.2153 -0.7064
  445MOL0     C58631   7.274   8.487   7.227  0.1917 -0.4850  0.3351
  445MOL0     O58632   7.246   8.460   7.362 -0.3044  0.3285  0.2079
  445MOL0     C58633   7.128   8.502   7.421  0.8469 -0.0868  0.2871
  445MOL0     C58634   7.023   8.565   7.345 -0.0171 -0.5974 -0.7738
  445MOL0     C58635   6.902   8.600   7.390  0.3838 -0.0867 -0.0981
  445MOL0     C58636   6.873   8.569   7.530 -0.0470  0.2747  0.8245
  445MOL0     C58637   6.733   8.597   7.571 -0.4832 -0.8971 -0.6651
  445MOL0     O58638   6.697   8.575   7.703 -1.1701  0.9223 -0.8698
  445MOL0     C58639   6.566   8.585   7.748  0.9500  0.7011 -1.0126
  445MOL0     C58640   6.550   8.658   7.869  0.1555 -0.3129 -0.4082
  445MOL0     C58641   6.427   8.661   7.939  0.4278 -0.2817  0.2152
  445MOL0     C58642   6.318   8.594   7.879  0.3109 -0.4371  0.3415
  445MOL0     O58643   6.188   8.604   7.924 -0.2447 -0.2387  0.3265
  445MOL0     C58644   6.132   8.730   7.952 -0.2112 -0.6687 -0.4158
  445MOL0     C58645   5.977   8.711   7.951 -0.2661 -0.1384 -0.2264
  445MOL0     C58646   5.913   8.825   8.030  0.8355  0.1580 -0.1961
  445MOL0     C58647   5.765   8.798   8.074 -0.1046  0.0082 -0.8424
  445MOL0     C58648   5.673   8.786   7.949  0.2747 -0.5223 -0.0612
  445MOL0     C58649   5.529   8.815   7.978 -0.2612 -0.0788  0.4251
  445MOL0     C58650   5.455   8.848   7.838  0.9912 -0.1710 -0.2136
  445MOL0     C58651   5.305   8.861   7.866  0.1502  0.1723 -0.2013
  445MOL0    Cl58652   5.273   9.016   7.956 -0.0841 -0.4931  0.2172
  445MOL0     C58653   6.340   8.519   7.763  0.9922  0.2017  0.0194
  445MOL0     C58654   6.460   8.514   7.700  0.9019 -0.2414 -0.0831
  445MOL0     O58655   6.663   8.641   7.484 -0.0273  0.8649  0.3778
  445MOL0     C58656   6.969   8.501   7.612 -0.2583 -0.3759  0.7721
  445MOL0     C58657   7.104   8.480   7.560 -0.0673  1.0642 -0.0316
  445MOL0     N58658   7.795   8.520   7.171 -0.4209  0.5389  0.1328
  445MOL0     N58659   7.873   8.616   7.131  0.0312  0.4846 -0.0378
  445MOL0     C58660   8.114   9.585   6.334  0.1281  0.5807  0.7959
  445MOL0     C58661   8.232   9.662   6.331 -0.2373  1.0405  0.1482
  445MOL0     C58662   8.619   9.820   6.358  0.4873 -0.1686  0.0413
  445MOL0     C58663   8.689   9.852   6.475  0.6523  0.0305 -0.2146
  445MOL0     C58664   8.788   9.954   6.481 -0.0770  0.6650 -0.1151
  445MOL0     C58665   8.830  10.006   6.353  0.2376 -0.0378  0.3841
  445MOL0     O58666   8.929  10.102   6.340 -0.3850  0.3591 -0.9570
  445MOL0     C58667   9.063  10.045   6.336  0.2766  0.1179  0.6605
  445MOL0     C58668   9.153  10.118   6.430 -0.3242 -0.4727 -0.4925
  445MOL0     C58669   9.218  10.229   6.349 -1.0434  0.6832  0.2900
  445MOL0     C58670   9.279  10.326   6.461 -0.6225  0.4466 -0.2788
  445MOL0     C58671   9.365  10.435   6.406 -0.4477 -0.6617  0.4017
  445MOL0     C58672   9.472  10.584   6.336 -0.4493  0.3810 -0.1100
  445MOL0     C58673   8.768   9.964   6.234  0.0409 -1.5175  0.3762
  445MOL0     C58674   8.657   9.886   6.238  0.5550  0.5199  0.0213
  445MOL0     H58675   8.431   9.475   6.136 -1.7536  1.4604 -2.5767
  445MOL0     H58676   8.217   9.338   6.124 -1.0843  0.8973 -1.2834
  445MOL0     H58677   8.094   9.244   6.330  2.0952  1.2183  2.4557
  445MOL0     H58678   7.928   9.209   6.270  0.2193 -0.4628  2.0804
  445MOL0     H58679   7.844   9.355   6.458  0.6575  1.0585  2.7545
  445MOL0     H58680   8.010   9.356   6.523 -3.1602  5.2930 -0.2677
  445MOL0     H58681   7.996   9.104   6.542 -0.1526 -0.1218  3.9593
  445MOL0     H58682   7.842   9.098   6.451 -1.0883  0.4145 -0.0841
  445MOL0     H58683   7.887   9.193   6.740 -0.6447 -0.8400  0.8708
  445MOL0     H58684   7.734   9.213   6.646  1.8678  1.5928 -0.6419
  445MOL0     H58685   7.719   8.959   6.644 -1.0960 -0.3171  0.9369
  445MOL0     H58686   7.731   9.006   6.810 -4.5956 -1.7053 -2.3777
  445MOL0     H58687   8.003   8.981   6.774  0.7447 -0.7230 -0.0118
  445MOL0     H58688   7.957   8.916   6.628  0.0851  1.1805 -0.3662
  445MOL0     H58689   7.823   8.741   6.751  1.3954  0.1098 -1.3527
  445MOL0     H58690   7.994   8.728   6.777 -0.3243 -0.7140  0.8650
  445MOL0     H58691   7.816   8.877   6.968 -0.7580  0.0359  0.4926
  445MOL0     H58692   7.970   8.824   7.016  0.2036  0.3588 -0.6778
  445MOL0     H58693   7.668   8.601   6.872  2.7132  1.8520 -1.3589
  445MOL0     H58694   7.642   8.298   7.115 -0.5983 -1.4171 -0.7528
  445MOL0     H58695   7.624   8.349   6.951  2.8015 -0.8110  1.4904
  445MOL0     H58696   7.399   8.356   7.011  3.1487 -3.3084 -0.2294
  445MOL0     H58697   7.429   8.529   7.031 -2.1008 -0.6361  0.8827
  445MOL0     H58698   7.425   8.340   7.260  1.4309  1.2451  1.0789
  445MOL0     H58699   7.475   8.496   7.274 -1.4645 -0.9485  2.7275
  445MOL0     H58700   7.206   8.429   7.163  0.0980 -0.1520  0.1313
  445MOL0     H58701   7.266   8.592   7.197 -2.5708 -0.1191  1.9466
  445MOL0     H58702   7.040   8.583   7.239  0.6483  0.3406 -0.5131
  445MOL0     H58703   6.826   8.639   7.323  0.7270  0.3125 -0.2607
  445MOL0     H58704   6.631   8.718   7.908 -1.0223  0.2954  1.1920
  445MOL0     H58705   6.423   8.711   8.035 -0.0179  0.8556 -0.3711
  445MOL0     H58706   6.164   8.812   7.887  2.0447 -0.2280  1.1297
  445MOL0     H58707   6.159   8.767   8.052 -0.1810  0.2510 -0.7570
  445MOL0     H58708   5.963   8.620   8.010  0.5625 -0.3905 -0.4020
  445MOL0     H58709   5.940   8.706   7.848  0.3412  2.2526 -0.6091
  445MOL0     H58710   5.926   8.920   7.978  0.3790 -0.4884 -1.5353
  445MOL0     H58711   5.965   8.833   8.127  0.1689 -3.4421  0.5882
  445MOL0     H58712   5.766   8.703   8.129  2.6463 -0.3134 -1.3190
  445MOL0     H58713   5.733   8.884   8.133 -0.1465  1.0636 -2.3686
  445MOL0     H58714   5.681   8.694   7.890 -0.0044  0.8032 -2.2786
  445MOL0     H58715   5.707   8.873   7.892  1.7935  1.7700  3.9367
  445MOL0     H58716   5.531   8.905   8.040 -1.3624 -0.0029  0.3677
  445MOL0     H58717   5.480   8.740   8.040 -0.0308 -0.2049  0.4538
  445MOL0     H58718   5.495   8.936   7.786  0.1470  0.3446 -0.0146
  445MOL0     H58719   5.461   8.765   7.767 -1.6104 -1.5411  1.0678
  445MOL0     H58720   5.272   8.767   7.912 -1.0269  0.6066 -0.1143
  445MOL0     H58721   5.240   8.858   7.778 -3.1063  1.1030  1.9853
  445MOL0     H58722   6.260   8.456   7.727  2.1795 -1.8853  0.8999
  445MOL0     H58723   6.478   8.464   7.605  1.6616 -1.0213  0.4574
  445MOL0     H58724   6.952   8.471   7.715  0.2912 -0.2015  0.9161
  445MOL0     H58725   7.191   8.454   7.619 -0.6744 -0.6016  0.1853
  445MOL0     H58726   8.029   9.616   6.393 -0.9896 -2.4909  0.9723
  445MOL0     H58727   8.242   9.752   6.390 -2.8550 -0.6211  3.5309
  445MOL0     H58728   8.653   9.816   6.571 -2.1934  1.0892 -0.7742
  445MOL0     H58729   8.831   9.996   6.571 -0.8371  4.1829 -1.2703
  445MOL0     H58730   9.091  10.041   6.230 -2.3489 -1.4390 -0.0633
  445MOL0     H58731   9.058   9.940   6.365 -1.5770 -0.1909 -0.6259
  445MOL0     H58732   9.110  10.138   6.528  2.0797 -0.0971  0.5722
  445MOL0     H58733   9.243  10.058   6.448  1.1844  1.8736  0.2040
  445MOL0     H58734   9.135  10.287   6.307 -1.3898 -0.4414 -0.6183
  445MOL0     H58735   9.290  10.195   6.274 -1.6942  1.6221 -0.7947
  445MOL0     H58736   9.200  10.366   6.525 -1.6784  1.3109 -2.0413
  445MOL0     H58737   9.339  10.269   6.532 -2.2842 -1.7624 -0.5315
  445MOL0     H58738   9.533  10.656   6.285  1.5775 -0.2832  1.2108
  445MOL0     H58739   8.796  10.010   6.140  0.2289 -2.2860  0.0535
  445MOL0     H58740   8.601   9.859   6.149 -1.7372  2.9404  0.6035
  446MOL0     O58741   5.136   9.448   3.790  0.1530  0.1404 -0.1179
  446MOL0     C58742   5.140   9.458   3.671 -0.7550  0.8395  0.5543
  446MOL0     O58743   5.035   9.449   3.587 -0.0587  0.5189  0.5958
  446MOL0     C58744   4.921   9.512   3.636  0.9579 -0.1526 -0.4928
  446MOL0     C58745   4.806   9.444   3.599 -0.3783  0.3401  0.1594
  446MOL0     C58746   4.683   9.502   3.633 -0.1983 -0.1710  0.3511
  446MOL0     C58747   4.667   9.628   3.688  0.7344  0.4056 -0.3674
  446MOL0     O58748   4.548   9.686   3.715  0.7375 -0.1932 -0.1583
  446MOL0     C58749   4.425   9.640   3.655 -0.6841 -0.4261  0.0216
  446MOL0     C58750   4.313   9.726   3.731  0.0520 -0.6214 -1.0934
  446MOL0     C58751   4.172   9.710   3.672 -0.1715  0.5634  1.5943
  446MOL0     C58752   4.145   9.563   3.688 -0.6168  0.4616  0.2428
  446MOL0     C58753   4.001   9.520   3.668  0.1592  0.6618 -0.3891
  446MOL0     C58754   3.990   9.365   3.678 -0.6349  0.6214  0.0638
  446MOL0     C58755   3.842   9.328   3.697 -0.2792 -0.7098 -0.2039
  446MOL0     C58756   3.829   9.177   3.673 -0.1850  0.0470  0.2600
  446MOL0     N58757   3.897   9.091   3.776 -0.0845 -0.4757 -0.6986
  446MOL0     C58758   3.860   9.084   3.912 -0.5463  0.6848  0.4924
  446MOL0     C58759   3.971   9.044   3.980  0.4193  0.1216  0.3304
  446MOL0     C58760   3.992   9.037   4.124  0.3362 -0.2320 -0.2562
  446MOL0     C58761   3.872   8.966   4.190  0.3286  1.0207 -0.2258
  446MOL0     C58762   3.771   9.066   4.260 -0.0975  0.0632  0.5248
  446MOL0     C58763   3.633   8.994   4.280 -0.0312  0.7051 -0.3231
  446MOL0     O58764   3.528   9.091   4.290 -0.4859  0.0696 -0.3735
  446MOL0     C58765   3.401   9.046   4.331  0.1642 -0.0262  0.7820
  446MOL0     C58766   3.314   9.148   4.369 -0.2011 -0.4811  0.0415
  446MOL0     C58767   3.196   9.116   4.438 -0.1583 -0.5342  0.2565
  446MOL0     C58768   3.170   8.979   4.455  0.5223  0.2840  1.3907
  446MOL0     C58769   3.053   8.930   4.532 -1.0750 -0.1000  0.3251
  446MOL0     O58770   3.017   8.803   4.523  0.1100 -0.8614 -0.2740
  446MOL0     C58771   2.940   8.751   4.624 -0.2047 -0.5252  0.1676
  446MOL0     C58772   2.991   8.738   4.754  0.3055 -0.3423 -0.0161
  446MOL0     C58773   2.913   8.688   4.855  0.3456  0.7354  1.3389
  446MOL0     C58774   2.779   8.653   4.824 -0.7638 -0.4388 -0.3191
  446MOL0     O58775   2.707   8.617   4.931  0.1931  0.0843 -0.4745
  446MOL0     C58776   2.557   8.590   4.930  0.2234 -0.0151  0.4976
  446MOL0     C58777   2.484   8.720   4.969 -0.4111 -0.0855 -0.9810
  446MOL0     C58778   2.476   8.734   5.119 -0.5310  0.1351 -0.4348
  446MOL0     C58779   2.428   8.873   5.141 -0.5555 -0.2733  0.2752
  446MOL0     C58780   2.398   8.905   5.281 -1.1559 -0.5926 -0.4903
  446MOL0     C58781   2.517   8.888   5.381 -0.2433  0.0549  0.3656
  446MOL0     C58782   2.482   8.970   5.513 -0.1109  0.0060  0.0151
  446MOL0     C58783   2.599   8.959   5.613  0.0160  0.3804 -0.1958
  446MOL0    Cl58784   2.588   8.794   5.692 -0.3708 -0.1795 -0.1179
  446MOL0     C58785   2.725   8.673   4.699 -0.0792  0.3373  0.6683
  446MOL0     C58786   2.812   8.722   4.595 -0.3081 -0.8623 -0.5106
  446MOL0     O58787   2.996   9.005   4.601  0.6376 -0.1349  0.4748
  446MOL0     C58788   3.254   8.880   4.398  0.2704  0.3778 -0.0944
  446MOL0     C58789   3.364   8.912   4.329  0.0533  0.1093 -0.0392
  446MOL0     N58790   4.067   9.004   3.890 -0.2972  0.6674  0.4133
  446MOL0     N58791   4.017   9.042   3.771 -0.3516  0.6346  0.5688
  446MOL0     C58792   4.784   9.696   3.721  0.4112  0.4753  0.2465
  446MOL0     C58793   4.912   9.640   3.702  0.4420  0.1592  0.9020
  446MOL0     C58794   5.282   9.490   3.608  0.2920  0.4619  0.3205
  446MOL0     C58795   5.400   9.450   3.672  0.3194 -1.3166 -0.2358
  446MOL0     C58796   5.530   9.469   3.621  0.3541 -0.6454 -0.0767
  446MOL0     C58797   5.534   9.534   3.496 -0.9962  0.6839 -0.1424
  446MOL0     O58798   5.654   9.548   3.427 -0.0922  0.8394 -0.5839
  446MOL0     C58799   5.753   9.631   3.487 -0.3970 -0.8365 -0.0652
  446MOL0     C58800   5.720   9.784   3.501  0.4642 -0.8411 -0.1255
  446MOL0     C58801   5.689   9.839   3.362 -0.0048  0.3570  0.5184
  446MOL0     C58802   5.630   9.983   3.370 -0.7720 -0.0608 -0.6693
  446MOL0     C58803   5.612  10.062   3.253 -0.1197  0.0943  0.4779
  446MOL0     C58804   5.617  10.137   3.153  0.9243  0.8105  0.2395
  446MOL0     C58805   5.418   9.570   3.426 -0.2376 -0.1441 -0.8043
  446MOL0     C58806   5.292   9.554   3.491  0.5094  0.5511  0.6186
  446MOL0     H58807   4.815   9.343   3.559  0.7585  0.5687 -0.1991
  446MOL0     H58808   4.594   9.442   3.619 -0.6247  0.5100  0.0722
  446MOL0     H58809   4.413   9.535   3.681 -1.8270  0.3202  2.8309
  446MOL0     H58810   4.419   9.661   3.548  3.7222  0.2416 -0.2946
  446MOL0     H58811   4.345   9.830   3.720  2.9386 -0.9979  1.9726
  446MOL0     H58812   4.315   9.707   3.839 -2.1551  1.5384 -0.5940
  446MOL0     H58813   4.177   9.751   3.570  5.0393  4.3083  2.9157
  446MOL0     H58814   4.103   9.778   3.723  0.4977  1.8990  0.7841
  446MOL0     H58815   4.202   9.506   3.614 -2.5907 -0.5626 -0.5900
  446MOL0     H58816   4.171   9.535   3.790 -1.9762 -0.7254  0.2927
  446MOL0     H58817   3.967   9.546   3.567  1.4229 -2.4607 -1.7405
  446MOL0     H58818   3.933   9.554   3.747 -0.6164 -0.7898 -0.3863
  446MOL0     H58819   4.048   9.318   3.758 -0.2426 -0.5509 -0.8790
  446MOL0     H58820   4.035   9.316   3.592 -0.0432 -0.6119  1.0529
  446MOL0     H58821   3.808   9.352   3.798  0.5002 -0.7561  0.0751
  446MOL0     H58822   3.786   9.379   3.617  1.6005 -0.8668 -1.6961
  446MOL0     H58823   3.870   9.143   3.578  0.4404  0.7817  0.2592
  446MOL0     H58824   3.725   9.144   3.680 -0.5528  0.5773 -2.1133
  446MOL0     H58825   3.768   9.127   3.950 -0.3339  1.1313  0.5083
  446MOL0     H58826   4.006   9.141   4.156  1.4895 -1.3639  3.2994
  446MOL0     H58827   4.086   8.984   4.142  1.0207  1.3212  0.9362
  446MOL0     H58828   3.905   8.915   4.281 -0.9315 -0.4910 -0.5685
  446MOL0     H58829   3.829   8.893   4.121  0.8924  1.1928 -0.7701
  446MOL0     H58830   3.823   9.093   4.352 -0.7415 -0.1332  0.9447
  446MOL0     H58831   3.761   9.159   4.202 -0.9316  0.2806  1.0004
  446MOL0     H58832   3.637   8.923   4.363 -2.0799 -1.6931 -2.1374
  446MOL0     H58833   3.611   8.920   4.203 -0.5265 -1.4131  1.7298
  446MOL0     H58834   3.346   9.252   4.370 -1.7433  0.0283  1.5332
  446MOL0     H58835   3.119   9.185   4.473 -0.1128 -1.0613  1.4317
  446MOL0     H58836   3.091   8.770   4.783  1.0302 -1.8052 -0.8149
  446MOL0     H58837   2.934   8.686   4.961 -0.3706 -1.2958  1.4762
  446MOL0     H58838   2.535   8.511   5.003  1.5756 -1.4998 -0.6183
  446MOL0     H58839   2.515   8.546   4.839 -2.5407 -0.6455  1.9736
  446MOL0     H58840   2.381   8.715   4.932  0.0439 -0.7615 -2.2197
  446MOL0     H58841   2.533   8.808   4.927 -0.5876  0.4759 -0.0421
  446MOL0     H58842   2.582   8.728   5.143 -0.9071  1.0139  1.5963
  446MOL0     H58843   2.430   8.658   5.184  1.6143 -0.4619  0.4704
  446MOL0     H58844   2.494   8.945   5.089 -0.4788 -0.9567 -0.5942
  446MOL0     H58845   2.329   8.878   5.096 -0.4059  1.6158  0.0650
  446MOL0     H58846   2.310   8.852   5.317 -1.9845  0.6877 -0.5655
  446MOL0     H58847   2.377   9.013   5.279  1.9376  0.1594  0.9658
  446MOL0     H58848   2.608   8.918   5.328 -1.8795  0.0946 -2.6659
  446MOL0     H58849   2.533   8.782   5.406 -2.4727 -0.3203  0.4006
  446MOL0     H58850   2.476   9.075   5.482  2.8375 -0.3404 -2.1360
  446MOL0     H58851   2.389   8.930   5.554  0.5065  0.1746  1.6409
  446MOL0     H58852   2.578   9.049   5.672 -0.5670 -0.1707  0.4489
  446MOL0     H58853   2.697   8.974   5.567  0.1057  2.1930  0.4978
  446MOL0     H58854   2.622   8.648   4.678  0.1246  0.9457 -1.2480
  446MOL0     H58855   2.784   8.751   4.495  1.7202  0.6216 -0.7045
  446MOL0     H58856   3.243   8.773   4.414  0.0356  0.2906 -0.8064
  446MOL0     H58857   3.428   8.840   4.279  0.0805 -0.5745  0.9532
  446MOL0     H58858   4.758   9.794   3.761 -0.5220 -0.4893  2.0768
  446MOL0     H58859   5.005   9.691   3.726  0.4383  0.1925  0.8438
  446MOL0     H58860   5.385   9.382   3.755 -0.9270 -1.5396 -0.6169
  446MOL0     H58861   5.614   9.429   3.677 -0.9222 -1.6870  1.1704
  446MOL0     H58862   5.848   9.619   3.435  0.3642 -0.3232  1.1663
  446MOL0     H58863   5.768   9.599   3.590  1.6795 -1.1056 -0.4181
  446MOL0     H58864   5.638   9.813   3.567  0.5033 -0.3372 -0.2901
  446MOL0     H58865   5.805   9.842   3.540 -0.6804  0.5589  0.3891
  446MOL0     H58866   5.611   9.773   3.325  0.1655 -0.4642  1.5473
  446MOL0     H58867   5.773   9.820   3.294  2.0634 -2.0530  3.4450
  446MOL0     H58868   5.527   9.960   3.400 -1.1682  0.0563 -1.8610
  446MOL0     H58869   5.676  10.033   3.455 -3.4890 -1.8393  2.0529
  446MOL0     H58870   5.640  10.202   3.071  2.5917 -2.3124 -1.9966
  446MOL0     H58871   5.421   9.615   3.328 -0.5226  1.8180  0.0499
  446MOL0     H58872   5.201   9.583   3.440  0.1435  1.0751  1.5544
  447MOL0     O58873   7.913   1.079   8.275 -0.2277  0.3589  0.5465
  447MOL0     C58874   7.850   0.977   8.319 -0.1008 -0.2604  0.3667
  447MOL0     O58875   7.788   0.963   8.443  0.0794 -0.0929  0.5022
  447MOL0     C58876   7.804   1.070   8.525  0.0334  0.3890 -0.2416
  447MOL0     C58877   7.924   1.105   8.582  0.8915  0.4038 -0.4350
  447MOL0     C58878   7.945   1.221   8.654 -0.3634 -0.4847 -0.1596
  447MOL0     C58879   7.835   1.314   8.663 -0.0611 -0.8993 -1.1485
  447MOL0     O58880   7.856   1.430   8.733  0.2188  0.5465  0.3598
  447MOL0     C58881   7.734   1.482   8.800 -0.0151  0.7955 -0.0861
  447MOL0     C58882   7.795   1.587   8.903  0.1789 -0.3345  0.8775
  447MOL0     C58883   7.681   1.658   8.972  0.7247  0.3796  0.1668
  447MOL0     C58884   7.586   1.737   8.877 -0.5780  0.0365  0.2264
  447MOL0     C58885   7.489   1.821   8.956 -0.2743  0.2144  0.0488
  447MOL0     C58886   7.379   1.743   9.026 -0.1217 -0.7671  0.3926
  447MOL0     C58887   7.245   1.805   8.989  0.7793  0.2505  0.4815
  447MOL0     C58888   7.133   1.735   9.060 -0.2993  0.3596  0.4863
  447MOL0     N58889   7.004   1.771   9.002  0.2330  0.1830  0.3074
  447MOL0     C58890   6.886   1.708   9.035 -1.0532  0.1703 -0.8576
  447MOL0     C58891   6.796   1.767   8.953  0.2254 -0.0466 -0.2643
  447MOL0     C58892   6.648   1.749   8.953 -0.3014  0.2677 -0.4534
  447MOL0     C58893   6.609   1.606   8.956 -0.8843  0.9159  0.6051
  447MOL0     C58894   6.588   1.551   8.818  0.2332  0.1104  0.1869
  447MOL0     C58895   6.703   1.553   8.723  0.3846 -0.1582 -0.2572
  447MOL0     O58896   6.816   1.476   8.780  0.2927  0.1016  0.6163
  447MOL0     C58897   6.941   1.515   8.742 -0.4580  1.2730 -0.1649
  447MOL0     C58898   7.048   1.469   8.825  0.1924 -1.2490 -0.4192
  447MOL0     C58899   7.183   1.481   8.777  0.9658 -1.5774  0.1257
  447MOL0     C58900   7.214   1.527   8.647  1.0844  0.0424 -0.0254
  447MOL0     C58901   7.352   1.540   8.603  0.3685  0.3798  0.2950
  447MOL0     O58902   7.390   1.639   8.513 -0.1430 -0.1037  0.6326
  447MOL0     C58903   7.519   1.642   8.478  0.1159  0.5387 -1.1365
  447MOL0     C58904   7.607   1.728   8.531  0.4949  0.5191 -0.5546
  447MOL0     C58905   7.746   1.726   8.509 -0.6441  1.5669 -0.2729
  447MOL0     C58906   7.808   1.612   8.446  0.1777  0.1495 -0.2599
  447MOL0     O58907   7.943   1.613   8.417 -0.1983  0.3792  0.3036
  447MOL0     C58908   8.000   1.481   8.394 -0.4546  0.1522  0.4709
  447MOL0     C58909   8.133   1.474   8.464  0.5077 -0.7263  0.5434
  447MOL0     C58910   8.243   1.549   8.393  0.0660  0.9704 -0.3314
  447MOL0     C58911   8.362   1.584   8.482 -0.2142 -0.1357  0.5867
  447MOL0     C58912   8.470   1.645   8.397  0.6457  0.1552  0.3129
  447MOL0     C58913   8.604   1.652   8.474  0.0616  0.1634 -0.1053
  447MOL0     C58914   8.690   1.756   8.409  0.0929  0.4844  0.0692
  447MOL0     C58915   8.841   1.745   8.451 -0.5286  0.1719  0.3691
  447MOL0    Cl58916   8.852   1.804   8.621 -0.0548  0.1712 -0.1798
  447MOL0     C58917   7.718   1.537   8.372  0.1757  0.4052 -0.5327
  447MOL0     C58918   7.583   1.546   8.397  0.2067  0.8044 -0.2285
  447MOL0     O58919   7.434   1.467   8.660 -0.2275 -0.2177  0.6098
  447MOL0     C58920   7.105   1.579   8.573  0.3351 -0.2108  0.5411
  447MOL0     C58921   6.976   1.575   8.622 -0.0838  0.1711 -0.3265
  447MOL0     N58922   6.857   1.858   8.876  0.2454 -0.1290 -0.0641
  447MOL0     N58923   6.980   1.854   8.899  0.7926 -0.1543 -0.0102
  447MOL0     C58924   7.709   1.278   8.600 -0.4586  0.5797 -0.8650
  447MOL0     C58925   7.695   1.151   8.542  0.0581 -0.2489  0.1974
  447MOL0     C58926   7.830   0.861   8.225  0.6383  0.1341 -0.6585
  447MOL0     C58927   7.807   0.734   8.279  0.6739 -0.2156 -0.1218
  447MOL0     C58928   7.788   0.627   8.192  0.4753  0.3995 -0.6763
  447MOL0     C58929   7.808   0.643   8.057 -0.0103 -1.1951 -0.6515
  447MOL0     O58930   7.810   0.532   7.977 -0.3461  0.3139  1.1905
  447MOL0     C58931   7.881   0.535   7.851  0.3775 -0.2107  0.5132
  447MOL0     C58932   7.988   0.427   7.839  0.3442  0.4751  0.1542
  447MOL0     C58933   8.075   0.439   7.959  0.0907  0.1946  0.2066
  447MOL0     C58934   8.195   0.347   7.950 -0.8692  0.1818  0.1664
  447MOL0     C58935   8.142   0.208   7.953 -0.1193 -0.8684  0.8208
  447MOL0     C58936   8.125   0.091   7.924  0.1712 -0.1744 -1.2624
  447MOL0     C58937   7.820   0.783   8.011 -0.1137  0.4060  0.0039
  447MOL0     C58938   7.836   0.885   8.090  0.7090  0.8237 -0.2796
  447MOL0     H58939   8.009   1.038   8.571 -1.7379 -2.9324 -2.3316
  447MOL0     H58940   8.047   1.246   8.684  0.2461 -1.0411 -1.6821
  447MOL0     H58941   7.682   1.405   8.857  0.9967 -0.6009 -1.0050
  447MOL0     H58942   7.667   1.532   8.729 -0.5260  2.0624  1.2387
  447MOL0     H58943   7.856   1.658   8.847 -2.0575 -0.1427 -1.5083
  447MOL0     H58944   7.856   1.531   8.974 -0.2994 -0.5515  1.1194
  447MOL0     H58945   7.714   1.733   9.046  0.1047 -0.8304  1.7239
  447MOL0     H58946   7.614   1.589   9.024 -0.9457  2.9194  1.6500
  447MOL0     H58947   7.640   1.811   8.817  0.0655  0.5446  1.3972
  447MOL0     H58948   7.528   1.678   8.806 -0.0039  1.1771 -1.2426
  447MOL0     H58949   7.442   1.883   8.880  2.5156  1.5998 -0.6653
  447MOL0     H58950   7.542   1.884   9.028  0.0579 -0.0954  0.0822
  447MOL0     H58951   7.406   1.741   9.132 -1.6345  4.3309  1.1316
  447MOL0     H58952   7.379   1.637   8.997  2.7004 -0.8020  0.2685
  447MOL0     H58953   7.245   1.912   9.010 -0.3863  0.0624  1.5796
  447MOL0     H58954   7.229   1.791   8.882 -0.9325  0.4302  0.6779
  447MOL0     H58955   7.119   1.766   9.164 -3.1725 -0.1097  0.3246
  447MOL0     H58956   7.151   1.628   9.072  2.3806  0.8811  2.0859
  447MOL0     H58957   6.864   1.626   9.103  0.9454 -1.5409 -2.1521
  447MOL0     H58958   6.607   1.799   8.865  0.8621  0.9761 -0.6137
  447MOL0     H58959   6.618   1.799   9.045  1.5329  1.3584 -0.4164
  447MOL0     H58960   6.520   1.593   9.018 -1.3167  0.8742 -0.0146
  447MOL0     H58961   6.684   1.542   9.005 -2.5936 -0.7927  1.1095
  447MOL0     H58962   6.577   1.446   8.845  1.3105 -0.6368 -2.0712
  447MOL0     H58963   6.501   1.583   8.760  1.1252 -1.0734 -1.9071
  447MOL0     H58964   6.733   1.657   8.711  0.3031 -0.2183 -1.0487
  447MOL0     H58965   6.667   1.515   8.627 -1.9517  2.0881 -0.3764
  447MOL0     H58966   7.021   1.417   8.917 -3.4070  1.5089  0.2884
  447MOL0     H58967   7.266   1.437   8.832  1.7675 -0.1901  0.0619
  447MOL0     H58968   7.572   1.819   8.579  0.3930 -0.6390  1.7099
  447MOL0     H58969   7.814   1.795   8.558  0.4093  0.0493  0.4996
  447MOL0     H58970   8.004   1.465   8.286 -1.4396  1.5968  0.1940
  447MOL0     H58971   7.938   1.394   8.420 -0.8218 -0.3452 -1.8738
  447MOL0     H58972   8.161   1.369   8.467  0.9748 -0.5765  1.6864
  447MOL0     H58973   8.122   1.515   8.565 -0.4900  1.2132 -0.2973
  447MOL0     H58974   8.201   1.638   8.345  0.2379  2.3625  1.9494
  447MOL0     H58975   8.281   1.484   8.314  0.0264 -0.1851  0.5771
  447MOL0     H58976   8.326   1.659   8.553  0.3383  0.7261 -0.0283
  447MOL0     H58977   8.394   1.493   8.534 -1.5416 -1.5115 -0.8556
  447MOL0     H58978   8.438   1.747   8.371 -1.4166 -0.2220  1.2392
  447MOL0     H58979   8.490   1.587   8.306  2.6175 -1.3680  1.6282
  447MOL0     H58980   8.652   1.554   8.480 -1.0147 -0.3448  0.3492
  447MOL0     H58981   8.595   1.677   8.580  1.3152  0.5468 -0.0674
  447MOL0     H58982   8.685   1.738   8.301 -1.2208  1.9586 -0.1563
  447MOL0     H58983   8.661   1.857   8.442  0.2746 -0.0224  1.8761
  447MOL0     H58984   8.916   1.807   8.402  2.1153 -1.7182  1.7627
  447MOL0     H58985   8.877   1.642   8.455 -1.4825 -0.2194 -0.7887
  447MOL0     H58986   7.749   1.453   8.310 -1.0769 -2.0774  1.9761
  447MOL0     H58987   7.516   1.466   8.368 -1.0617  1.5660  0.4492
  447MOL0     H58988   7.132   1.631   8.481 -2.4963  0.5306  0.0492
  447MOL0     H58989   6.895   1.625   8.569 -0.7196  1.5206  1.8008
  447MOL0     H58990   7.622   1.343   8.600 -1.0228 -0.1349  0.4745
  447MOL0     H58991   7.607   1.116   8.489 -0.1813 -2.0408  1.6788
  447MOL0     H58992   7.802   0.717   8.386  0.7927 -1.3123 -0.2737
  447MOL0     H58993   7.780   0.527   8.232 -0.9971  0.4996 -0.6413
  447MOL0     H58994   7.927   0.634   7.843 -0.5187  0.4295  2.5348
  447MOL0     H58995   7.815   0.541   7.764  0.5436 -0.8183  0.3404
  447MOL0     H58996   7.935   0.331   7.840 -0.0429  0.6877  0.2587
  447MOL0     H58997   8.049   0.449   7.752 -1.1011  0.1762 -0.9746
  447MOL0     H58998   8.018   0.403   8.045 -0.5381 -1.5669 -0.8917
  447MOL0     H58999   8.103   0.542   7.984  1.0161  0.0103 -0.0229
  447MOL0     H59000   8.245   0.353   7.853 -1.5380 -0.8277 -0.2591
  447MOL0     H59001   8.261   0.352   8.037 -1.4644 -1.6147  0.7724
  447MOL0     H59002   8.123  -0.014   7.906 -0.7893 -0.1865 -1.1083
  447MOL0     H59003   7.814   0.813   7.906  0.2341  3.6183  0.8125
  447MOL0     H59004   7.839   0.983   8.045 -2.1647  2.5675  2.8301
  448MOL0     O59005   4.988   0.839   8.504 -0.3410  0.3613 -0.9963
  448MOL0     C59006   5.072   0.922   8.535 -1.1561 -0.3215 -0.3560
  448MOL0     O59007   5.055   1.053   8.525 -0.0743  0.1372  0.0717
  448MOL0     C59008   4.928   1.097   8.483  0.0113 -0.0337  0.7995
  448MOL0     C59009   4.869   1.050   8.362 -0.1229 -0.3145 -0.1491
  448MOL0     C59010   4.747   1.107   8.313 -0.2635 -0.4278 -0.5972
  448MOL0     C59011   4.674   1.199   8.381 -0.0807 -0.5714  0.3100
  448MOL0     O59012   4.555   1.246   8.331 -0.6555 -0.4296  0.9338
  448MOL0     C59013   4.446   1.246   8.425  0.0230 -0.2812 -0.4196
  448MOL0     C59014   4.327   1.271   8.339 -0.2389 -0.0731  0.1370
  448MOL0     C59015   4.194   1.291   8.418 -0.6468  0.0326 -0.1963
  448MOL0     C59016   4.088   1.342   8.332  0.7645  0.5475  0.3337
  448MOL0     C59017   3.948   1.367   8.396 -0.4886 -0.1409 -0.2763
  448MOL0     C59018   3.910   1.266   8.507 -0.2487 -0.3734  0.1072
  448MOL0     C59019   3.776   1.314   8.562 -0.4056  0.0603 -0.2101
  448MOL0     C59020   3.658   1.266   8.468 -0.6238  1.1419  0.6377
  448MOL0     N59021   3.531   1.313   8.526 -0.3846 -0.0077 -0.1923
  448MOL0     C59022   3.474   1.253   8.634  0.0139  0.5175 -0.0391
  448MOL0     C59023   3.365   1.330   8.675 -0.0539 -0.0865  0.5039
  448MOL0     C59024   3.281   1.315   8.801  0.2995 -0.4887  0.8725
  448MOL0     C59025   3.138   1.265   8.783 -0.3487  0.0734 -0.2601
  448MOL0     C59026   3.133   1.142   8.689 -0.3938  0.5136  0.3969
  448MOL0     C59027   2.985   1.074   8.678 -0.7140 -0.4704 -0.4607
  448MOL0     O59028   2.973   0.969   8.772  0.5767  0.1254 -0.1595
  448MOL0     C59029   2.870   0.883   8.752 -0.0766 -0.6817  0.2947
  448MOL0     C59030   2.770   0.890   8.651 -0.6287  0.6470  0.0590
  448MOL0     C59031   2.670   0.791   8.646 -0.1721 -0.6863 -0.4404
  448MOL0     C59032   2.674   0.695   8.743  0.3957  0.1994 -0.6315
  448MOL0     C59033   2.568   0.586   8.744 -0.2233 -0.2053 -0.6281
  448MOL0     O59034   2.496   0.578   8.631  0.7929 -0.1394  0.4980
  448MOL0     C59035   2.400   0.479   8.635 -0.0942 -0.1580 -0.9360
  448MOL0     C59036   2.278   0.512   8.683 -0.3810  0.0949  0.3677
  448MOL0     C59037   2.174   0.424   8.681 -0.5298 -0.6114  0.2589
  448MOL0     C59038   2.191   0.290   8.640 -0.1032  1.0411 -0.4153
  448MOL0     O59039   2.087   0.198   8.636  0.3966  0.1154  0.6426
  448MOL0     C59040   1.965   0.222   8.702  0.6061 -0.3559 -0.6058
  448MOL0     C59041   1.874   0.102   8.674 -0.1094 -0.5506 -0.1719
  448MOL0     C59042   1.741   0.113   8.758 -0.4350 -0.5519  0.1916
  448MOL0     C59043   1.613   0.104   8.676 -0.1707  0.0612  0.0185
  448MOL0     C59044   1.610   0.209   8.559 -0.0530 -0.5138  0.0896
  448MOL0     C59045   1.481   0.194   8.476  0.0255 -0.8811  0.3979
  448MOL0     C59046   1.361   0.237   8.568 -0.7429 -0.2276 -0.3137
  448MOL0     C59047   1.232   0.259   8.488 -0.0297 -0.4220 -1.1439
  448MOL0    Cl59048   1.251   0.406   8.389  0.4863 -0.3865 -0.0939
  448MOL0     C59049   2.318   0.249   8.603 -0.3041  0.0970  0.2148
  448MOL0     C59050   2.427   0.346   8.598  0.6219  0.3425 -1.2304
  448MOL0     O59051   2.545   0.536   8.857 -0.2020  0.3781  0.1447
  448MOL0     C59052   2.773   0.690   8.838 -0.1403 -0.1595  0.8333
  448MOL0     C59053   2.869   0.783   8.847 -0.0224 -1.2047 -0.4704
  448MOL0     N59054   3.356   1.433   8.580 -0.7356 -0.1015 -0.3509
  448MOL0     N59055   3.451   1.414   8.493 -0.2042  0.4755 -0.6791
  448MOL0     C59056   4.731   1.241   8.502  0.6630 -1.0204 -0.1667
  448MOL0     C59057   4.851   1.191   8.548  0.4344 -0.6792 -0.4064
  448MOL0     C59058   5.204   0.865   8.572 -0.1523  0.3312 -0.4632
  448MOL0     C59059   5.318   0.938   8.558 -0.2764 -0.1840 -0.3798
  448MOL0     C59060   5.443   0.885   8.581 -0.2049  0.5542  0.3436
  448MOL0     C59061   5.456   0.749   8.597 -0.1473  0.0809  0.0870
  448MOL0     O59062   5.583   0.705   8.602 -0.2987  0.2214  0.5794
  448MOL0     C59063   5.616   0.559   8.640 -0.1601  0.1028  0.2576
  448MOL0     C59064   5.762   0.549   8.693 -1.4132 -0.3230 -0.0765
  448MOL0     C59065   5.790   0.644   8.808  0.3143  0.3575 -0.6285
  448MOL0     C59066   5.824   0.793   8.774  0.3094 -0.5898  0.3180
  448MOL0     C59067   5.963   0.812   8.724 -0.0336 -0.6031 -0.1368
  448MOL0     C59068   6.075   0.819   8.678  0.6967 -0.6761 -0.3536
  448MOL0     C59069   5.354   0.667   8.611  0.6137 -0.2440  0.0376
  448MOL0     C59070   5.224   0.729   8.609 -0.4401  1.2516  0.3766
  448MOL0     H59071   4.917   0.973   8.303 -1.3914 -2.7700  1.8543
  448MOL0     H59072   4.702   1.068   8.222 -1.4616 -0.5401  0.0239
  448MOL0     H59073   4.464   1.327   8.496 -0.2645 -0.4835 -0.1085
  448MOL0     H59074   4.431   1.152   8.479  0.1641 -0.5908 -0.9097
  448MOL0     H59075   4.311   1.183   8.276 -1.4389  2.5417 -3.5772
  448MOL0     H59076   4.343   1.350   8.266  0.8498 -0.8866 -0.5404
  448MOL0     H59077   4.216   1.362   8.499 -0.4652  0.4745 -0.6307
  448MOL0     H59078   4.155   1.201   8.465 -1.9892  1.0817  0.8046
  448MOL0     H59079   4.126   1.433   8.283 -2.6981  1.1341 -1.5456
  448MOL0     H59080   4.062   1.279   8.247  1.8039  3.2218 -2.1316
  448MOL0     H59081   3.874   1.369   8.315 -0.4947  1.7643 -0.2761
  448MOL0     H59082   3.945   1.469   8.435  0.6196 -0.7880  1.6413
  448MOL0     H59083   3.989   1.266   8.582  2.4559 -1.2343 -2.5585
  448MOL0     H59084   3.902   1.169   8.458 -1.3648 -1.1504  1.7399
  448MOL0     H59085   3.763   1.262   8.657  0.7899 -3.1875 -1.6840
  448MOL0     H59086   3.778   1.421   8.586  0.0858  0.2869 -1.2035
  448MOL0     H59087   3.662   1.159   8.447 -0.4750  0.9165  1.7706
  448MOL0     H59088   3.660   1.307   8.367  2.0709 -0.1672  0.0511
  448MOL0     H59089   3.503   1.167   8.694 -1.5972  1.9481  2.9932
  448MOL0     H59090   3.263   1.421   8.822 -0.7948 -0.3381 -0.6071
  448MOL0     H59091   3.336   1.267   8.882  0.0421 -1.1913  0.6441
  448MOL0     H59092   3.075   1.339   8.732  0.5678  0.1999 -1.2520
  448MOL0     H59093   3.094   1.254   8.883 -0.7327 -1.2297 -0.5526
  448MOL0     H59094   3.172   1.163   8.589 -0.4894  2.7401  0.7783
  448MOL0     H59095   3.201   1.058   8.707  0.1949  0.4047 -1.9729
  448MOL0     H59096   2.985   1.038   8.575 -0.5366  0.7822 -0.9138
  448MOL0     H59097   2.908   1.148   8.703 -1.5928 -1.5242  0.0521
  448MOL0     H59098   2.775   0.974   8.583  1.7292  1.4942  1.1749
  448MOL0     H59099   2.587   0.804   8.578 -2.7221  0.5284  2.6713
  448MOL0     H59100   2.265   0.615   8.714 -2.8745  0.2452 -0.9439
  448MOL0     H59101   2.078   0.473   8.692  0.4060  1.6001 -0.8505
  448MOL0     H59102   1.929   0.315   8.658  2.1002  0.9349  0.7765
  448MOL0     H59103   1.975   0.236   8.810 -3.2862  3.0705 -0.4523
  448MOL0     H59104   1.918   0.009   8.713 -2.2628 -1.2185  0.8562
  448MOL0     H59105   1.883   0.083   8.567 -0.7664 -0.2925 -0.2766
  448MOL0     H59106   1.750   0.214   8.798  3.0827 -0.6045 -0.1825
  448MOL0     H59107   1.752   0.034   8.832 -0.2305 -0.8052 -0.1095
  448MOL0     H59108   1.607   0.004   8.632 -1.8685  1.3042 -2.8689
  448MOL0     H59109   1.537   0.131   8.750  1.8977  1.7024  1.6821
  448MOL0     H59110   1.698   0.205   8.493 -0.8498 -0.6679 -1.0069
  448MOL0     H59111   1.610   0.310   8.599 -2.5664 -1.3621  2.5359
  448MOL0     H59112   1.461   0.090   8.448  0.0546 -0.5825 -0.7832
  448MOL0     H59113   1.491   0.266   8.393 -2.3405 -0.4828  0.3671
  448MOL0     H59114   1.339   0.158   8.641 -1.8965  0.2989 -0.0811
  448MOL0     H59115   1.393   0.327   8.620 -0.4329 -0.4902 -0.0421
  448MOL0     H59116   1.155   0.279   8.563 -0.8130  0.4376 -2.1464
  448MOL0     H59117   1.191   0.182   8.422 -0.2038  0.0084 -1.5367
  448MOL0     H59118   2.325   0.147   8.565  0.1102 -0.3173  1.3729
  448MOL0     H59119   2.528   0.339   8.559  1.4971  1.1900  0.7357
  448MOL0     H59120   2.769   0.611   8.912  0.6087  0.3708  1.4573
  448MOL0     H59121   2.941   0.770   8.928 -0.4414 -1.3789 -0.1240
  448MOL0     H59122   4.678   1.296   8.579 -0.5890 -2.9436  0.3895
  448MOL0     H59123   4.884   1.231   8.643  1.1933 -0.6485 -0.6770
  448MOL0     H59124   5.307   1.044   8.537  0.1143 -0.1098 -0.2074
  448MOL0     H59125   5.536   0.936   8.557 -1.0438  2.8313  1.6210
  448MOL0     H59126   5.616   0.493   8.554 -0.5376 -0.6006  0.7918
  448MOL0     H59127   5.541   0.522   8.710 -2.3133  0.9819 -1.4927
  448MOL0     H59128   5.784   0.445   8.719 -0.5161 -0.1506 -0.1339
  448MOL0     H59129   5.835   0.588   8.622 -1.4173  2.1998  1.2087
  448MOL0     H59130   5.861   0.601   8.880  1.1299 -0.9598 -2.1583
  448MOL0     H59131   5.692   0.634   8.855  0.4957  0.9539 -0.1020
  448MOL0     H59132   5.750   0.839   8.708  0.3136  0.9211  1.3177
  448MOL0     H59133   5.824   0.861   8.860  1.2835 -0.8624  0.5534
  448MOL0     H59134   6.171   0.820   8.632  1.8576 -0.4019  1.9096
  448MOL0     H59135   5.365   0.561   8.633  2.3264 -0.1617 -0.2817
  448MOL0     H59136   5.136   0.666   8.615  0.8325 -0.6185  0.0976
  449MOL0     O59137   4.595   3.091   8.908 -0.5863  0.5574  0.0203
  449MOL0     C59138   4.651   2.990   8.861  0.3497 -0.2624  0.3181
  449MOL0     O59139   4.619   2.928   8.745 -0.1086 -0.2603  0.3017
  449MOL0     C59140   4.504   2.974   8.679  0.3404  0.1002  0.2183
  449MOL0     C59141   4.507   3.057   8.571  0.0922 -0.0442  0.6789
  449MOL0     C59142   4.391   3.112   8.515  0.5808  0.0612  0.9527
  449MOL0     C59143   4.264   3.080   8.573  0.5904 -0.0289 -0.1043
  449MOL0     O59144   4.161   3.153   8.523  0.5940  0.1321  0.4411
  449MOL0     C59145   4.033   3.087   8.505 -0.0256 -0.5250  0.3443
  449MOL0     C59146   3.948   3.174   8.414  0.3080 -0.3238  0.5469
  449MOL0     C59147   3.818   3.107   8.372 -0.2327 -0.5295 -0.4742
  449MOL0     C59148   3.740   3.207   8.289  0.4005  0.6420  0.1740
  449MOL0     C59149   3.614   3.136   8.245 -0.1385 -0.2048  0.6548
  449MOL0     C59150   3.531   3.230   8.170 -0.0964 -0.5852 -0.4701
  449MOL0     C59151   3.402   3.169   8.103 -0.3841 -0.8766 -0.3122
  449MOL0     C59152   3.306   3.094   8.193  0.5424  0.1722 -0.3526
  449MOL0     N59153   3.183   3.054   8.132 -0.1392 -1.1237  0.5753
  449MOL0     C59154   3.159   3.017   8.001  0.0496 -0.3690 -0.9277
  449MOL0     C59155   3.026   2.982   7.995 -0.8824 -0.3974  0.7965
  449MOL0     C59156   2.964   2.919   7.875 -0.0676 -0.5096  0.2285
  449MOL0     C59157   2.869   3.021   7.805  0.7795  0.2067 -0.1064
  449MOL0     C59158   2.778   2.954   7.703  0.3815  0.1283  0.2286
  449MOL0     C59159   2.670   3.057   7.664 -0.1156  0.1299  0.7977
  449MOL0     O59160   2.553   2.987   7.607  0.3898 -0.2069  0.4222
  449MOL0     C59161   2.449   2.959   7.695  0.0392  0.2475 -0.0810
  449MOL0     C59162   2.464   2.932   7.829 -0.0388 -0.5634 -0.5220
  449MOL0     C59163   2.354   2.877   7.896 -0.2292 -0.4392 -0.2288
  449MOL0     C59164   2.233   2.847   7.833 -0.6393 -0.4588 -0.0515
  449MOL0     C59165   2.126   2.793   7.916  0.3045 -0.6823  0.3941
  449MOL0     O59166   2.029   2.726   7.850  0.6163  0.4709 -0.4375
  449MOL0     C59167   1.927   2.671   7.927 -0.9120  0.6715  0.4652
  449MOL0     C59168   1.937   2.532   7.935  0.0699 -0.5748  0.0550
  449MOL0     C59169   1.844   2.459   8.004  0.1133 -0.1933 -0.9125
  449MOL0     C59170   1.739   2.528   8.070 -0.5428  0.3727  0.4297
  449MOL0     O59171   1.640   2.461   8.136 -0.1770 -0.3981  0.6368
  449MOL0     C59172   1.572   2.361   8.072  0.1184 -0.0094 -0.7468
  449MOL0     C59173   1.435   2.338   8.135  1.1023 -0.5215  0.1291
  449MOL0     C59174   1.364   2.222   8.055  0.1334 -0.2679 -0.6705
  449MOL0     C59175   1.228   2.193   8.116 -0.6211 -0.6671  0.5148
  449MOL0     C59176   1.128   2.116   8.017 -0.8152 -0.4912  0.6272
  449MOL0     C59177   1.002   2.074   8.094 -0.7579 -0.0904  0.1551
  449MOL0     C59178   0.909   2.004   8.001 -0.6019 -0.3984 -0.1585
  449MOL0     C59179   0.784   1.970   8.083  0.5564 -0.2404 -0.0248
  449MOL0    Cl59180   0.817   1.841   8.194  0.0973 -0.0229 -0.1692
  449MOL0     C59181   1.724   2.664   8.058 -0.6608  0.2660  0.2788
  449MOL0     C59182   1.822   2.738   7.988 -0.7030  0.0389  1.2960
  449MOL0     O59183   2.127   2.817   8.041 -0.0076  0.2476  1.1015
  449MOL0     C59184   2.226   2.871   7.701  0.4518  0.1070  0.1660
  449MOL0     C59185   2.326   2.931   7.632 -0.8280  0.1334  0.1107
  449MOL0     N59186   2.968   3.011   8.116  0.1942 -0.6478 -0.2545
  449MOL0     N59187   3.062   3.057   8.198 -0.5505  1.1373  0.4675
  449MOL0     C59188   4.260   2.978   8.673  0.4897 -0.2231 -0.1338
  449MOL0     C59189   4.379   2.940   8.735 -0.0279 -0.0844 -0.1205
  449MOL0     C59190   4.762   2.945   8.937 -0.3870 -1.0396  0.8780
  449MOL0     C59191   4.853   3.045   8.974  0.4308 -0.6826 -0.0160
  449MOL0     C59192   4.972   3.013   9.042  0.3602  0.1718 -0.7035
  449MOL0     C59193   4.986   2.884   9.103 -0.4500 -0.0941 -0.5014
  449MOL0     O59194   5.072   2.859   9.208  0.2167  0.3068  0.7198
  449MOL0     C59195   5.206   2.913   9.190  1.2037  0.6860  0.3472
  449MOL0     C59196   5.284   2.797   9.132 -0.0744 -0.3477  1.1261
  449MOL0     C59197   5.305   2.676   9.219 -0.1591  0.0663  0.8002
  449MOL0     C59198   5.385   2.562   9.157 -0.6118 -0.4438  0.3756
  449MOL0     C59199   5.534   2.604   9.141 -0.1031 -0.1572  1.3770
  449MOL0     C59200   5.644   2.649   9.121 -0.1456  1.0102 -0.4893
  449MOL0     C59201   4.892   2.788   9.071 -0.4541  0.4490 -0.1465
  449MOL0     C59202   4.781   2.819   8.990  0.7685  0.0001  0.4196
  449MOL0     H59203   4.597   3.074   8.513  0.0616 -0.7992  0.4082
  449MOL0     H59204   4.397   3.184   8.434 -3.0262  1.0260  1.3429
  449MOL0     H59205   3.981   3.067   8.599  0.0809 -0.2339  0.4656
  449MOL0     H59206   4.059   2.991   8.460 -0.7096 -0.5731  0.0403
  449MOL0     H59207   4.001   3.198   8.321  1.2290  1.4591  1.4702
  449MOL0     H59208   3.919   3.268   8.463  0.6965 -1.5927  3.4119
  449MOL0     H59209   3.763   3.076   8.461 -0.1668  1.4194  0.3090
  449MOL0     H59210   3.836   3.014   8.317 -3.3920 -2.8746  2.0398
  449MOL0     H59211   3.714   3.287   8.359 -1.5421 -0.2008  0.4775
  449MOL0     H59212   3.799   3.236   8.202  0.8703  0.7623  0.5284
  449MOL0     H59213   3.568   3.086   8.330  1.0217 -1.3861  0.6222
  449MOL0     H59214   3.653   3.063   8.173 -3.4201  0.2823 -1.8081
  449MOL0     H59215   3.593   3.279   8.095 -2.2869  1.4352 -1.0982
  449MOL0     H59216   3.509   3.308   8.243  3.5299  2.0228 -1.8753
  449MOL0     H59217   3.343   3.249   8.056  1.0277  0.6267  0.3785
  449MOL0     H59218   3.442   3.103   8.025 -0.2893 -1.9365  0.6147
  449MOL0     H59219   3.273   3.154   8.278 -2.4786 -3.3198  1.2455
  449MOL0     H59220   3.359   3.004   8.226 -1.8627 -1.2443 -0.1020
  449MOL0     H59221   3.236   3.008   7.925  0.5542 -1.2869 -0.3220
  449MOL0     H59222   2.911   2.831   7.912 -2.2191  0.7519  0.3569
  449MOL0     H59223   3.036   2.886   7.800  1.2327 -1.8972  1.9974
  449MOL0     H59224   2.927   3.104   7.763 -1.3808  0.8325 -2.0641
  449MOL0     H59225   2.799   3.066   7.876 -1.2329 -1.6375 -0.8079
  449MOL0     H59226   2.825   2.918   7.610  0.9101  0.9454  0.1642
  449MOL0     H59227   2.729   2.866   7.745  0.2667 -0.5766 -1.2954
  449MOL0     H59228   2.703   3.130   7.589 -1.6843  0.3537  0.2910
  449MOL0     H59229   2.641   3.131   7.739  0.2576 -0.3803  1.4581
  449MOL0     H59230   2.555   2.967   7.876 -0.8819 -0.6812  1.2858
  449MOL0     H59231   2.362   2.859   8.002  2.3119  1.6780  0.0724
  449MOL0     H59232   2.023   2.491   7.882 -0.1825 -1.6091  0.4184
  449MOL0     H59233   1.849   2.351   8.011  2.0136 -0.0893  0.1642
  449MOL0     H59234   1.626   2.267   8.081 -1.0199 -0.7797 -1.5853
  449MOL0     H59235   1.562   2.377   7.964  0.6303 -0.3326 -0.8423
  449MOL0     H59236   1.375   2.429   8.130 -1.9995 -2.4239 -0.0717
  449MOL0     H59237   1.437   2.299   8.237  0.0131  0.5582  0.5868
  449MOL0     H59238   1.421   2.130   8.066  0.6100  0.2465  1.7889
  449MOL0     H59239   1.362   2.249   7.949  0.6672  1.2184 -0.3325
  449MOL0     H59240   1.242   2.124   8.200  1.7527  0.9771  1.5763
  449MOL0     H59241   1.188   2.288   8.153  2.1213  1.8370 -2.3940
  449MOL0     H59242   1.169   2.031   7.962  2.6127  1.8928 -0.8210
  449MOL0     H59243   1.105   2.191   7.941  2.7037 -0.6988 -0.8293
  449MOL0     H59244   0.953   2.160   8.140  0.8913  2.2780 -2.1848
  449MOL0     H59245   1.041   2.007   8.171  1.8282  2.2816  1.0950
  449MOL0     H59246   0.891   2.071   7.917  0.9975  0.7799  0.3866
  449MOL0     H59247   0.954   1.908   7.973 -1.7004 -1.4112  1.3817
  449MOL0     H59248   0.720   1.936   8.000  3.5504  2.9136 -4.0432
  449MOL0     H59249   0.745   2.058   8.133 -1.0919  1.1864 -3.4563
  449MOL0     H59250   1.628   2.700   8.093 -1.4946 -1.1882 -0.4095
  449MOL0     H59251   1.809   2.845   7.977 -2.1613 -0.1852  0.4997
  449MOL0     H59252   2.135   2.848   7.646 -0.1341  0.5587  0.9272
  449MOL0     H59253   2.323   2.960   7.528 -0.7185  1.8118  0.5530
  449MOL0     H59254   4.164   2.945   8.712  0.1616  1.0021  0.1603
  449MOL0     H59255   4.382   2.881   8.826 -0.8628  2.2331  1.5018
  449MOL0     H59256   4.837   3.145   8.935  2.5036 -0.5324 -0.5929
  449MOL0     H59257   5.038   3.098   9.056 -0.2930  1.2006 -3.3667
  449MOL0     H59258   5.246   2.930   9.290 -0.4315  0.9498  0.9945
  449MOL0     H59259   5.203   3.002   9.127 -2.3297 -0.8291 -2.0102
  449MOL0     H59260   5.259   2.763   9.031 -0.6568  1.9690  0.4285
  449MOL0     H59261   5.380   2.846   9.109  0.1143 -1.9370 -2.1143
  449MOL0     H59262   5.203   2.643   9.238 -1.3321  1.4546 -2.3065
  449MOL0     H59263   5.356   2.701   9.312  0.8978 -2.7481  1.0791
  449MOL0     H59264   5.386   2.475   9.223  0.8101 -1.7687 -1.2746
  449MOL0     H59265   5.348   2.534   9.058 -0.8680  2.8425 -0.5650
  449MOL0     H59266   5.739   2.698   9.112  0.9540 -1.2935 -3.3706
  449MOL0     H59267   4.898   2.685   9.103  1.1092  0.9726  1.4230
  449MOL0     H59268   4.724   2.734   8.953  3.6512 -1.8009 -0.1866
  450MOL0     O59269   9.240  10.011  10.221  0.2494 -0.4545 -0.2764
  450MOL0     C59270   9.280  10.082  10.309  0.1196  0.4458 -0.6304
  450MOL0     O59271   9.203  10.176  10.376 -0.0242 -0.0287  0.3577
  450MOL0     C59272   9.065  10.188  10.367  0.3837 -0.6003  0.2615
  450MOL0     C59273   8.998  10.271  10.458  0.1068  0.1108 -1.0511
  450MOL0     C59274   8.862  10.279  10.465 -0.5143 -0.9780 -0.3942
  450MOL0     C59275   8.784  10.210  10.371  0.4545 -0.1466 -0.7777
  450MOL0     O59276   8.650  10.236  10.377 -0.4092 -0.0531 -0.1863
  450MOL0     C59277   8.586  10.261  10.257 -0.1482  0.1649  0.3743
  450MOL0     C59278   8.448  10.310  10.300 -0.3378  0.0647  0.1963
  450MOL0     C59279   8.375  10.389  10.186 -0.5764 -0.1657  0.0793
  450MOL0     C59280   8.272  10.485  10.249 -0.3092 -0.6184 -0.4834
  450MOL0     C59281   8.221  10.590  10.147  0.3508  0.3225 -0.0437
  450MOL0     C59282   8.135  10.539  10.036  0.2969 -0.4543  0.0213
  450MOL0     C59283   8.094  10.658   9.941  0.0084  0.0851  0.6578
  450MOL0     C59284   8.039  10.787  10.009  0.4592 -0.4336  0.1348
  450MOL0     N59285   7.919  10.763  10.093  0.4112 -0.1252  0.0000
  450MOL0     C59286   7.823  10.675  10.076 -0.0378 -0.3831  0.1122
  450MOL0     C59287   7.758  10.675  10.197 -0.1516  0.0595 -0.0008
  450MOL0     C59288   7.626  10.599  10.216 -0.2469 -0.6177 -0.3821
  450MOL0     C59289   7.512  10.682  10.167  0.6138 -0.1370  0.8957
  450MOL0     C59290   7.522  10.739  10.025 -0.2307  0.6185  0.1321
  450MOL0     C59291   7.405  10.818   9.985  0.0603 -0.5687 -0.1973
  450MOL0     O59292   7.311  10.725   9.946  0.4135  0.9904 -0.1174
  450MOL0     C59293   7.182  10.772   9.925 -0.9023 -0.2655 -0.2673
  450MOL0     C59294   7.081  10.676   9.941 -0.4316 -0.3261  0.7499
  450MOL0     C59295   6.953  10.712   9.912  0.2252 -0.1691 -0.4477
  450MOL0     C59296   6.918  10.843   9.886  1.2681  0.2171  0.1119
  450MOL0     C59297   6.776  10.869   9.848  0.1809  0.4654  0.7804
  450MOL0     O59298   6.743  10.983   9.782 -0.0067 -0.4865  0.1430
  450MOL0     C59299   6.618  11.043   9.802 -0.4201 -0.5247  0.0674
  450MOL0     C59300   6.542  11.088   9.690 -0.5136  0.1653 -1.4566
  450MOL0     C59301   6.415  11.140   9.716  0.2463 -0.1400  0.0202
  450MOL0     C59302   6.366  11.161   9.840 -0.2571 -0.2348 -0.2047
  450MOL0     O59303   6.249  11.233   9.850 -0.0709  0.6216  0.4011
  450MOL0     C59304   6.177  11.218   9.975 -0.2133  0.0532  0.5842
  450MOL0     C59305   6.032  11.254   9.944  0.1882 -0.0145  0.2739
  450MOL0     C59306   5.937  11.214  10.054 -0.1113 -0.3682  0.0358
  450MOL0     C59307   5.792  11.232  10.008 -0.2993  0.1435  1.2222
  450MOL0     C59308   5.690  11.236  10.123 -0.1910  0.1120 -0.6242
  450MOL0     C59309   5.541  11.228  10.083  0.3982  0.3532  0.0981
  450MOL0     C59310   5.443  11.215  10.199  0.9160  0.0202  0.1665
  450MOL0     C59311   5.300  11.257  10.151 -0.2860  0.2165 -0.2976
  450MOL0    Cl59312   5.267  11.139  10.027 -0.1112 -0.8956 -0.0220
  450MOL0     C59313   6.444  11.121   9.956  0.7275 -0.7703 -0.4298
  450MOL0     C59314   6.574  11.070   9.934 -0.6830  0.1780 -0.2967
  450MOL0     O59315   6.692  10.795   9.893  0.7737 -0.5767 -0.1576
  450MOL0     C59316   7.009  10.943   9.884  0.4265 -0.0156 -1.1484
  450MOL0     C59317   7.144  10.911   9.907  0.4359 -0.1545  0.4688
  450MOL0     N59318   7.822  10.755  10.288 -0.3803  0.4588 -0.3360
  450MOL0     N59319   7.919  10.812  10.226 -0.1115  0.0082 -0.5864
  450MOL0     C59320   8.848  10.127  10.285  0.8581  0.0782  1.2427
  450MOL0     C59321   8.984  10.114  10.283 -0.0016  0.5263  0.0344
  450MOL0     C59322   9.417  10.049  10.364 -0.6574  0.1368 -0.3502
  450MOL0     C59323   9.462  10.084  10.495 -1.7176 -0.3404 -0.0671
  450MOL0     C59324   9.589  10.048  10.539 -0.1629  0.6492 -0.3679
  450MOL0     C59325   9.668   9.986  10.446 -0.3187 -0.6966  0.7890
  450MOL0     O59326   9.796   9.935  10.481  0.4520  0.4848 -0.4393
  450MOL0     C59327   9.835   9.914  10.615 -0.3413 -0.0072 -0.5549
  450MOL0     C59328   9.974   9.847  10.600 -1.0260 -0.9345  0.5011
  450MOL0     C59329   9.970   9.697  10.557 -1.9551  0.2175  0.8989
  450MOL0     C59330  10.105   9.638  10.517 -0.1705 -0.5939 -0.9209
  450MOL0     C59331  10.179   9.608  10.644 -0.4758  0.4163 -0.1530
  450MOL0     C59332  10.257   9.584  10.732 -0.0995 -0.2043 -0.2020
  450MOL0     C59333   9.631   9.953  10.319  0.4625  0.3838 -0.0153
  450MOL0     C59334   9.503   9.980  10.272  0.1346 -0.4289 -0.4646
  450MOL0     H59335   9.051  10.345  10.518 -3.7162  1.7677  0.5944
  450MOL0     H59336   8.815  10.355  10.526  3.1858  0.2794  1.1586
  450MOL0     H59337   8.585  10.174  10.191  2.8456  0.1564  0.2293
  450MOL0     H59338   8.634  10.344  10.206  1.3056 -0.4099  0.7497
  450MOL0     H59339   8.471  10.383  10.377  4.0114 -0.1857 -0.6363
  450MOL0     H59340   8.383  10.233  10.343  0.4893  0.1564  1.6717
  450MOL0     H59341   8.315  10.324  10.122  1.4173 -1.1712 -0.8874
  450MOL0     H59342   8.453  10.443  10.131 -0.9689 -1.0232 -1.3752
  450MOL0     H59343   8.183  10.438  10.293 -1.0048  0.6032 -0.5391
  450MOL0     H59344   8.311  10.547  10.331 -0.4680 -0.2413 -0.6899
  450MOL0     H59345   8.300  10.661  10.118 -0.6234  2.0593  1.3283
  450MOL0     H59346   8.157  10.655  10.208 -0.6098  0.5141 -1.2114
  450MOL0     H59347   8.043  10.489  10.069 -0.2432 -0.0615 -0.8693
  450MOL0     H59348   8.192  10.459   9.986 -1.5531 -1.4985 -0.5164
  450MOL0     H59349   8.186  10.680   9.886 -0.1443  3.3569  1.5581
  450MOL0     H59350   8.015  10.622   9.874  1.1997 -1.1225 -0.1501
  450MOL0     H59351   8.012  10.860   9.932  0.0214 -0.6200  0.1062
  450MOL0     H59352   8.115  10.848  10.060 -1.0752  0.9633  0.8624
  450MOL0     H59353   7.803  10.623   9.983 -1.2112  0.4394 -0.1073
  450MOL0     H59354   7.620  10.593  10.325  0.8364  2.8061 -0.0151
  450MOL0     H59355   7.620  10.503  10.164  1.7202 -0.4459 -1.0158
  450MOL0     H59356   7.497  10.760  10.243 -2.5016  1.0398 -0.7494
  450MOL0     H59357   7.417  10.628  10.170 -0.6552  1.9940  0.7544
  450MOL0     H59358   7.610  10.804  10.029  0.1567  0.0442  2.4394
  450MOL0     H59359   7.546  10.659   9.954 -1.3092 -0.6994  1.1861
  450MOL0     H59360   7.429  10.895   9.911  1.0178  0.1342  0.8139
  450MOL0     H59361   7.370  10.871  10.074  0.8977 -1.0649  0.4400
  450MOL0     H59362   7.113  10.574   9.960 -1.8455 -1.0419 -0.5085
  450MOL0     H59363   6.881  10.632   9.904  0.7274 -0.8154  1.0386
  450MOL0     H59364   6.576  11.073   9.588 -0.9492 -2.5607 -1.2857
  450MOL0     H59365   6.347  11.166   9.635 -0.9985  0.1695  1.1118
  450MOL0     H59366   6.228  11.284  10.046  3.6850  0.4383 -2.2243
  450MOL0     H59367   6.193  11.112   9.997 -0.5154 -0.1435 -0.1472
  450MOL0     H59368   6.003  11.209   9.849 -0.0699  2.9671 -1.1759
  450MOL0     H59369   6.029  11.363   9.934  1.9066  0.3764  2.8982
  450MOL0     H59370   5.953  11.257  10.153 -0.3443 -0.3845  0.0812
  450MOL0     H59371   5.953  11.106  10.066 -0.2681 -0.4120 -0.1490
  450MOL0     H59372   5.778  11.326   9.953 -2.1847 -0.7285  0.1330
  450MOL0     H59373   5.754  11.161   9.934 -1.4464  0.7782  1.1634
  450MOL0     H59374   5.708  11.320  10.191 -1.7964  0.4503 -0.5811
  450MOL0     H59375   5.718  11.155  10.191  1.0345  1.7952  0.9818
  450MOL0     H59376   5.524  11.147  10.011 -0.0128 -0.1384  0.7370
  450MOL0     H59377   5.526  11.330  10.045  0.0432  0.9727  1.8086
  450MOL0     H59378   5.448  11.108  10.223  1.7330  0.3382  1.5945
  450MOL0     H59379   5.475  11.275  10.285  1.1968 -0.3984  0.3611
  450MOL0     H59380   5.311  11.360  10.117 -0.7910  1.2377  2.3532
  450MOL0     H59381   5.234  11.248  10.238 -1.9931 -0.7025 -1.6306
  450MOL0     H59382   6.402  11.135  10.055 -1.1399 -1.1924 -1.1193
  450MOL0     H59383   6.637  11.047  10.020 -0.0239 -1.7360 -1.2290
  450MOL0     H59384   6.963  11.039   9.867 -0.3897 -0.0987  0.4150
  450MOL0     H59385   7.228  10.979   9.917  1.4507 -1.1048 -1.1240
  450MOL0     H59386   8.784  10.059  10.229  0.3979  1.5378 -0.0591
  450MOL0     H59387   9.022  10.034  10.220 -2.6504 -3.7514  3.2858
  450MOL0     H59388   9.392  10.131  10.564 -2.7035  0.1309 -1.3497
  450MOL0     H59389   9.620  10.060  10.642 -1.1522  3.6585 -0.3195
  450MOL0     H59390   9.767   9.845  10.666  0.6325 -2.5356 -2.4636
  450MOL0     H59391   9.857  10.004  10.673  1.3957 -1.6767  1.5808
  450MOL0     H59392  10.034   9.897  10.523 -0.8724 -0.8100  0.7009
  450MOL0     H59393  10.022   9.850  10.698  0.1497 -0.9959 -0.0529
  450MOL0     H59394   9.905   9.693  10.469 -0.4753 -3.4899 -0.2363
  450MOL0     H59395   9.928   9.631  10.634 -0.8106 -0.3786  1.0342
  450MOL0     H59396  10.091   9.551  10.453 -0.5160  0.4781 -2.3510
  450MOL0     H59397  10.161   9.715  10.463 -0.0060 -0.8626 -1.1380
  450MOL0     H59398  10.340   9.572  10.798 -1.0858 -0.6187  0.9985
  450MOL0     H59399   9.700   9.906  10.250 -1.0473 -0.9271 -0.6842
  450MOL0     H59400   9.470   9.946  10.175  1.4460 -1.7609 -0.4858
  451MOL0     O59401   5.225  10.451   3.443 -0.5966 -0.1370  0.1635
  451MOL0     C59402   5.275  10.377   3.531  0.5552  0.4165  0.3438
  451MOL0     O59403   5.209  10.354   3.646  0.8443 -0.0348  0.4657
  451MOL0     C59404   5.090  10.424   3.659  0.0746  0.2701 -0.5138
  451MOL0     C59405   4.970  10.354   3.650 -0.6862 -0.3193  0.1738
  451MOL0     C59406   4.850  10.419   3.668  0.2851  0.4150  0.1593
  451MOL0     C59407   4.837  10.555   3.690 -0.2755  0.6277  0.7563
  451MOL0     O59408   4.716  10.616   3.703 -0.4911 -0.5264 -0.1426
  451MOL0     C59409   4.708  10.750   3.743  0.1325  0.2508  0.5618
  451MOL0     C59410   4.555  10.782   3.737  0.2096 -0.7408 -0.1557
  451MOL0     C59411   4.464  10.738   3.853  0.2656 -0.4035  0.4153
  451MOL0     C59412   4.319  10.772   3.817 -0.2896 -0.4109 -0.0617
  451MOL0     C59413   4.277  10.917   3.846  0.0191  0.1921  0.3089
  451MOL0     C59414   4.129  10.926   3.803  0.3880  0.2960 -0.0193
  451MOL0     C59415   4.076  11.062   3.846 -0.7952  0.3694  0.3732
  451MOL0     C59416   3.934  11.067   3.799 -0.2411 -0.3243 -0.5003
  451MOL0     N59417   3.871  11.172   3.869  0.0938 -0.4659 -0.1650
  451MOL0     C59418   3.775  11.153   3.962  0.1416 -0.6590  0.3112
  451MOL0     C59419   3.710  11.271   3.968 -0.0619 -0.0997  0.3944
  451MOL0     C59420   3.580  11.308   4.041 -0.8546 -0.5271 -0.4063
  451MOL0     C59421   3.465  11.298   3.934  0.4501 -1.0749 -0.6986
  451MOL0     C59422   3.456  11.160   3.870 -0.4442  0.0623 -0.3371
  451MOL0     C59423   3.334  11.125   3.793  0.4308  0.1165 -0.9188
  451MOL0     O59424   3.238  11.058   3.882  0.0890  0.3072  0.1725
  451MOL0     C59425   3.105  11.091   3.873 -0.4811 -0.0883 -0.6107
  451MOL0     C59426   3.027  11.069   3.992  0.5124  0.6802 -0.6203
  451MOL0     C59427   2.893  11.098   3.990  0.4263  0.5273  0.1208
  451MOL0     C59428   2.835  11.153   3.867 -0.5901  0.8501 -0.7206
  451MOL0     C59429   2.683  11.158   3.853 -0.2678 -0.9976 -0.0493
  451MOL0     O59430   2.596  11.094   3.940  0.5295 -1.0251  0.1961
  451MOL0     C59431   2.456  11.085   3.919  0.3973  0.4492 -0.3460
  451MOL0     C59432   2.378  11.053   4.033  0.4049  0.4610  1.1455
  451MOL0     C59433   2.241  11.009   4.010 -0.0046 -0.2645 -0.8163
  451MOL0     C59434   2.189  11.004   3.887  0.5910 -0.1597 -0.3415
  451MOL0     O59435   2.061  10.962   3.859  0.3052  0.1563  0.2432
  451MOL0     C59436   1.960  10.962   3.963  0.1234  0.9273  0.8741
  451MOL0     C59437   1.828  10.916   3.906  0.0822  0.4954  0.3460
  451MOL0     C59438   1.718  10.889   4.016 -0.8619 -0.3032 -0.5546
  451MOL0     C59439   1.588  10.852   3.949  0.2770  0.4424 -0.3858
  451MOL0     C59440   1.486  10.820   4.060 -0.5368  0.1113 -0.0890
  451MOL0     C59441   1.344  10.781   4.006 -0.6382 -0.2886 -0.4742
  451MOL0     C59442   1.293  10.897   3.907 -0.9256  1.2041 -0.5038
  451MOL0     C59443   1.150  10.875   3.862  0.3815  0.5517 -0.3135
  451MOL0    Cl59444   1.045  10.860   4.008  0.0145 -0.1944  0.0897
  451MOL0     C59445   2.267  11.046   3.778  0.2145 -0.6809 -0.9055
  451MOL0     C59446   2.401  11.087   3.790 -0.1984  0.0527 -0.0929
  451MOL0     O59447   2.647  11.240   3.763  0.1521  0.1000 -0.1960
  451MOL0     C59448   2.912  11.167   3.750 -0.4055 -0.0765 -1.0817
  451MOL0     C59449   3.049  11.139   3.755 -0.0963 -0.9022 -0.5669
  451MOL0     N59450   3.768  11.364   3.881  0.1047  0.1377  0.4500
  451MOL0     N59451   3.865  11.297   3.822 -0.2375  0.0687  0.2871
  451MOL0     C59452   4.959  10.625   3.700  0.6310 -0.2348 -0.2229
  451MOL0     C59453   5.083  10.563   3.685 -0.2611 -0.7641 -0.1582
  451MOL0     C59454   5.413  10.332   3.524  0.1723 -0.8123 -0.6869
  451MOL0     C59455   5.498  10.358   3.411 -0.5905  0.0220  0.1718
  451MOL0     C59456   5.637  10.357   3.420  0.5973  0.9624  0.4283
  451MOL0     C59457   5.702  10.311   3.536  0.0783  0.6893  0.2900
  451MOL0     O59458   5.840  10.296   3.545  0.3495  0.7931  0.0010
  451MOL0     C59459   5.924  10.342   3.440  0.0653  0.1082  0.0197
  451MOL0     C59460   6.064  10.327   3.486 -0.7988 -0.1709  0.3711
  451MOL0     C59461   6.165  10.397   3.383 -0.1071 -0.3005 -0.0589
  451MOL0     C59462   6.312  10.371   3.437  0.5531  0.4963 -0.3054
  451MOL0     C59463   6.395  10.326   3.322 -0.3623  0.4397 -0.7469
  451MOL0     C59464   6.473  10.301   3.239 -0.3753  0.1033  0.5459
  451MOL0     C59465   5.623  10.282   3.653 -0.0575  0.4040 -0.1675
  451MOL0     C59466   5.480  10.296   3.641  0.4014 -0.7839 -0.1895
  451MOL0     H59467   4.978  10.249   3.624 -1.4313 -0.5147  0.7062
  451MOL0     H59468   4.768  10.348   3.670  2.7323 -2.6344  1.8372
  451MOL0     H59469   4.766  10.815   3.677  1.1980  1.0246  2.1936
  451MOL0     H59470   4.753  10.750   3.842  4.7843  1.2345 -1.3236
  451MOL0     H59471   4.516  10.735   3.647 -2.1211  0.0934  0.3328
  451MOL0     H59472   4.535  10.889   3.723 -0.0391 -0.6874  0.5227
  451MOL0     H59473   4.493  10.781   3.949 -2.4325  1.6280  0.4260
  451MOL0     H59474   4.462  10.628   3.849 -1.8421 -0.3669 -1.5184
  451MOL0     H59475   4.300  10.741   3.714 -0.8651 -1.0134  0.2144
  451MOL0     H59476   4.253  10.709   3.878 -0.7544 -1.2241 -1.3759
  451MOL0     H59477   4.347  10.985   3.797  1.5097  0.0839  2.1523
  451MOL0     H59478   4.294  10.935   3.953 -0.5605  4.3756 -0.1674
  451MOL0     H59479   4.076  10.855   3.867  1.3517 -2.4106 -2.0695
  451MOL0     H59480   4.116  10.910   3.696  0.2494  0.3374 -0.0088
  451MOL0     H59481   4.082  11.083   3.954  2.8640 -2.0257  0.8200
  451MOL0     H59482   4.122  11.145   3.793 -0.0263 -0.9264 -1.0390
  451MOL0     H59483   3.889  10.970   3.824  0.1382 -0.9665 -2.1434
  451MOL0     H59484   3.929  11.069   3.689 -1.3193 -1.9775 -0.5309
  451MOL0     H59485   3.756  11.062   4.019  2.5601 -1.0765  0.5743
  451MOL0     H59486   3.594  11.409   4.079  0.2443 -1.5940  2.2333
  451MOL0     H59487   3.570  11.238   4.124 -2.1731  0.0012 -0.0986
  451MOL0     H59488   3.465  11.384   3.866 -0.8206 -1.5602 -1.3307
  451MOL0     H59489   3.374  11.315   3.992  0.9451  0.3531 -0.2865
  451MOL0     H59490   3.542  11.152   3.803  1.0239  0.2895  1.4157
  451MOL0     H59491   3.453  11.083   3.949 -2.3731  3.1395  2.8684
  451MOL0     H59492   3.353  11.066   3.703 -1.1590  0.4131 -1.4917
  451MOL0     H59493   3.292  11.213   3.744  0.0189 -1.5474 -3.8042
  451MOL0     H59494   3.075  11.020   4.076 -1.6976 -3.7298 -1.5976
  451MOL0     H59495   2.823  11.078   4.071 -4.6131  1.9299 -3.3576
  451MOL0     H59496   2.420  11.045   4.133  0.8937 -2.5769  0.7912
  451MOL0     H59497   2.186  10.981   4.099  0.7339 -0.3511 -0.3778
  451MOL0     H59498   1.944  11.062   4.005 -1.6140  1.8255 -1.6967
  451MOL0     H59499   1.993  10.891   4.040  1.7193  3.4207  2.6526
  451MOL0     H59500   1.851  10.830   3.844 -1.7600  1.4266 -1.7657
  451MOL0     H59501   1.788  10.992   3.838 -0.5988 -0.3497 -0.2148
  451MOL0     H59502   1.713  10.974   4.084  1.3802  0.3366 -1.0875
  451MOL0     H59503   1.751  10.800   4.071  0.2225 -0.4770 -1.4453
  451MOL0     H59504   1.560  10.927   3.875 -0.7570  0.9291  0.4672
  451MOL0     H59505   1.608  10.762   3.890  1.1709 -1.1067  2.1335
  451MOL0     H59506   1.483  10.908   4.125  0.0605  0.0630  0.0121
  451MOL0     H59507   1.523  10.738   4.122  0.2179  0.4451 -0.0821
  451MOL0     H59508   1.276  10.763   4.090  0.2533  0.6194  0.4695
  451MOL0     H59509   1.348  10.688   3.948  0.6462  0.2911 -1.3539
  451MOL0     H59510   1.302  10.999   3.946 -1.0365  1.7114 -1.7322
  451MOL0     H59511   1.353  10.885   3.816  1.0213  1.7789  0.6572
  451MOL0     H59512   1.145  10.787   3.797  1.5237  0.4542 -0.2842
  451MOL0     H59513   1.112  10.960   3.804  0.6850  0.1057 -1.1760
  451MOL0     H59514   2.227  11.046   3.677  2.1675 -0.2775 -1.7203
  451MOL0     H59515   2.461  11.101   3.701 -0.8412  1.7001 -0.3013
  451MOL0     H59516   2.869  11.203   3.657  0.1994 -0.6103 -1.5820
  451MOL0     H59517   3.105  11.137   3.662  3.1735 -3.5783  1.2628
  451MOL0     H59518   4.956  10.733   3.713 -2.2063 -0.1832 -0.7204
  451MOL0     H59519   5.169  10.630   3.691 -0.0043 -0.9154 -1.6611
  451MOL0     H59520   5.448  10.386   3.319  3.5128 -1.1745 -2.7329
  451MOL0     H59521   5.692  10.377   3.328  0.1829 -3.2514 -0.9601
  451MOL0     H59522   5.896  10.446   3.422 -2.2642 -0.3652  0.5859
  451MOL0     H59523   5.904  10.280   3.352 -1.0402 -1.5019  1.3448
  451MOL0     H59524   6.089  10.373   3.581  2.3759  0.6859 -0.7375
  451MOL0     H59525   6.081  10.219   3.485 -2.8645 -0.5693 -1.8514
  451MOL0     H59526   6.145  10.504   3.395  1.0131 -0.2483  1.7933
  451MOL0     H59527   6.145  10.355   3.284 -1.7971 -3.2773  1.4015
  451MOL0     H59528   6.360  10.451   3.493  3.2671  0.4397 -2.3498
  451MOL0     H59529   6.308  10.292   3.513 -1.0960  2.0671  1.3204
  451MOL0     H59530   6.536  10.292   3.153  0.1754 -1.1876  1.0600
  451MOL0     H59531   5.694  10.245   3.726  0.2906  1.1615 -0.1141
  451MOL0     H59532   5.423  10.269   3.730 -1.3557  2.5045 -0.1604
  452MOL0     O59533   0.353   9.619   5.354  0.1523 -0.0951 -0.0371
  452MOL0     C59534   0.454   9.572   5.401 -0.4580  0.0869  0.2171
  452MOL0     O59535   0.459   9.457   5.478  0.1740 -0.4924 -0.6846
  452MOL0     C59536   0.353   9.376   5.483 -0.0833 -0.3240 -0.3218
  452MOL0     C59537   0.322   9.345   5.611  0.4466  1.0146 -0.3835
  452MOL0     C59538   0.242   9.233   5.627 -0.0662 -0.1814 -0.4768
  452MOL0     C59539   0.179   9.175   5.515 -0.3735 -0.2771 -0.2940
  452MOL0     O59540   0.091   9.075   5.538 -0.1857  0.8573 -0.2771
  452MOL0     C59541  -0.029   9.062   5.453 -0.0032  0.5543 -0.7268
  452MOL0     C59542  -0.130   8.984   5.545  0.0656 -0.3519  0.0069
  452MOL0     C59543  -0.265   8.962   5.470 -0.1337 -0.3538  0.2642
  452MOL0     C59544  -0.253   8.851   5.354  0.1849 -0.3862 -0.2462
  452MOL0     C59545  -0.375   8.828   5.277 -0.5230 -0.1112 -0.2718
  452MOL0     C59546  -0.503   8.826   5.355  0.5190  0.3292 -0.0125
  452MOL0     C59547  -0.628   8.760   5.291 -0.5550  0.0785 -0.1878
  452MOL0     C59548  -0.746   8.734   5.379 -0.0694 -0.3587  0.8634
  452MOL0     N59549  -0.839   8.638   5.329 -0.6077 -0.5417  0.9012
  452MOL0     C59550  -0.819   8.515   5.281 -0.2332  0.3667 -0.2935
  452MOL0     C59551  -0.928   8.479   5.207 -0.2914  0.0975 -1.1946
  452MOL0     C59552  -0.942   8.348   5.137  0.5502 -0.1001  0.0538
  452MOL0     C59553  -1.007   8.243   5.230  0.1253  1.1919  0.5922
  452MOL0     C59554  -1.145   8.282   5.277  0.3307  0.0425 -0.2330
  452MOL0     C59555  -1.233   8.318   5.164  0.2777  0.2299 -0.4899
  452MOL0     O59556  -1.369   8.305   5.209 -0.0616 -0.9649 -0.1503
  452MOL0     C59557  -1.468   8.321   5.115  0.1215 -0.1405  0.1918
  452MOL0     C59558  -1.593   8.281   5.148  0.0745  0.2364 -0.9395
  452MOL0     C59559  -1.695   8.271   5.059 -0.3630 -0.2290  0.2007
  452MOL0     C59560  -1.670   8.312   4.920  0.4684 -0.5514  0.1047
  452MOL0     C59561  -1.781   8.295   4.820 -0.2487  0.1756 -0.0243
  452MOL0     O59562  -1.888   8.238   4.864 -0.0621  0.0008  0.1714
  452MOL0     C59563  -1.996   8.205   4.783  0.2126  0.2361 -0.0387
  452MOL0     C59564  -1.993   8.178   4.647 -0.2929  0.5862  0.3863
  452MOL0     C59565  -2.105   8.136   4.577 -0.3365  0.8504 -0.4611
  452MOL0     C59566  -2.224   8.117   4.648  0.5565  0.7772  0.0992
  452MOL0     O59567  -2.337   8.076   4.595  0.5192 -0.3290  0.5593
  452MOL0     C59568  -2.319   7.949   4.529 -0.6895 -0.2761  0.2806
  452MOL0     C59569  -2.456   7.894   4.484 -0.2480  0.0347  0.2765
  452MOL0     C59570  -2.559   8.003   4.433 -0.6879  0.8222 -0.5205
  452MOL0     C59571  -2.683   7.949   4.362 -0.6875 -0.4406  0.0586
  452MOL0     C59572  -2.727   8.055   4.253  0.3148 -0.3718 -0.3760
  452MOL0     C59573  -2.865   8.037   4.193 -0.1886  0.6223 -0.8429
  452MOL0     C59574  -2.977   8.095   4.285 -0.3669  0.1005 -0.6287
  452MOL0     C59575  -3.110   8.062   4.233  0.1746 -0.0059 -0.1944
  452MOL0    Cl59576  -3.232   8.103   4.360 -0.1492  0.0421  0.0420
  452MOL0     C59577  -2.226   8.139   4.790 -0.0721  0.1515 -0.5811
  452MOL0     C59578  -2.114   8.183   4.854 -0.1471 -0.8110  0.3659
  452MOL0     O59579  -1.777   8.361   4.716  0.1822  0.7097  0.4922
  452MOL0     C59580  -1.545   8.368   4.887 -1.0442 -0.0912  0.0349
  452MOL0     C59581  -1.448   8.376   4.987  0.1542  0.2165  0.0373
  452MOL0     N59582  -1.015   8.585   5.215  0.2588 -0.6260  0.8520
  452MOL0     N59583  -0.955   8.682   5.276  0.5071 -0.0041 -0.7732
  452MOL0     C59584   0.203   9.219   5.384 -0.2487  1.0743  0.5732
  452MOL0     C59585   0.303   9.314   5.378 -0.3140 -0.1495  0.5203
  452MOL0     C59586   0.576   9.629   5.360 -0.4296 -0.4262 -0.8350
  452MOL0     C59587   0.584   9.755   5.291  0.1465 -0.1590  0.2341
  452MOL0     C59588   0.705   9.794   5.232  0.8151 -0.1417 -0.5909
  452MOL0     C59589   0.825   9.729   5.264 -0.2386  0.0250  0.7577
  452MOL0     O59590   0.948   9.763   5.225 -0.0244  0.3605  0.5843
  452MOL0     C59591   0.969   9.808   5.091  0.0510 -0.5124  0.0352
  452MOL0     C59592   0.974   9.692   5.000 -0.4778  0.4238 -0.0987
  452MOL0     C59593   1.078   9.590   5.043 -0.2632  0.2512  0.7255
  452MOL0     C59594   1.218   9.652   5.007 -0.3684  0.4705  0.5141
  452MOL0     C59595   1.315   9.546   5.009 -0.1250  0.7601  0.0288
  452MOL0     C59596   1.402   9.463   5.027  0.6121  0.2711  0.2454
  452MOL0     C59597   0.816   9.604   5.339 -0.0425 -0.1695  0.2778
  452MOL0     C59598   0.694   9.562   5.388  0.0450  0.3161 -0.2350
  452MOL0     H59599   0.383   9.382   5.693 -2.5038 -0.5821  2.7890
  452MOL0     H59600   0.236   9.195   5.728 -0.8180  2.0103  0.3787
  452MOL0     H59601   0.001   8.999   5.368 -1.5228 -0.2342 -0.7247
  452MOL0     H59602  -0.072   9.160   5.435 -1.4106  0.0148 -0.4183
  452MOL0     H59603  -0.155   9.052   5.627 -0.7902  0.6393 -1.0360
  452MOL0     H59604  -0.098   8.892   5.594 -1.2371  0.8027  3.2702
  452MOL0     H59605  -0.299   9.057   5.428 -1.4143 -0.7357  0.3872
  452MOL0     H59606  -0.348   8.921   5.528 -0.9454 -1.0240 -1.3024
  452MOL0     H59607  -0.176   8.879   5.281  1.4544  0.0523  1.2075
  452MOL0     H59608  -0.219   8.764   5.410 -1.9694 -1.1980 -0.1143
  452MOL0     H59609  -0.358   8.731   5.229 -0.0655  0.2112 -0.7726
  452MOL0     H59610  -0.390   8.911   5.209 -0.3956 -1.2402 -1.7257
  452MOL0     H59611  -0.526   8.931   5.377 -0.9207 -0.2911  1.6979
  452MOL0     H59612  -0.494   8.777   5.453 -0.0181  1.2302  0.5020
  452MOL0     H59613  -0.663   8.829   5.214  0.0879  2.1857  1.3163
  452MOL0     H59614  -0.606   8.665   5.242  1.1944  0.6642 -0.5958
  452MOL0     H59615  -0.799   8.829   5.388 -1.4071 -1.0239  0.2710
  452MOL0     H59616  -0.713   8.710   5.481  0.1602  1.6840  1.3224
  452MOL0     H59617  -0.725   8.463   5.297 -1.3797 -1.9799 -0.6252
  452MOL0     H59618  -0.843   8.318   5.103  0.4585  0.0466 -0.3464
  452MOL0     H59619  -1.007   8.355   5.049 -0.4985 -1.0328  0.7259
  452MOL0     H59620  -0.941   8.217   5.313 -0.0660 -0.1932  0.3300
  452MOL0     H59621  -1.026   8.152   5.172  0.1463  1.4931  0.1064
  452MOL0     H59622  -1.190   8.199   5.333  2.8249 -2.6296 -1.8905
  452MOL0     H59623  -1.138   8.362   5.352  0.7333  2.0207 -2.2867
  452MOL0     H59624  -1.223   8.257   5.074 -0.8628  2.6171 -2.3366
  452MOL0     H59625  -1.216   8.423   5.139 -0.3504  1.1607  2.5796
  452MOL0     H59626  -1.595   8.251   5.252  1.0421 -2.4677 -1.6217
  452MOL0     H59627  -1.792   8.239   5.097 -0.2277 -0.9193 -0.0097
  452MOL0     H59628  -1.898   8.175   4.594  0.4281 -1.0694  1.7158
  452MOL0     H59629  -2.095   8.119   4.470 -1.1564  0.9137 -0.5475
  452MOL0     H59630  -2.279   7.869   4.593  0.1392  0.7011  1.0180
  452MOL0     H59631  -2.259   7.962   4.439 -0.3195  2.3486  0.8099
  452MOL0     H59632  -2.492   7.836   4.570 -0.1427  0.3739  0.5483
  452MOL0     H59633  -2.438   7.823   4.403 -0.4406 -0.4366  0.6402
  452MOL0     H59634  -2.510   8.079   4.373 -1.5462  0.2874 -1.9528
  452MOL0     H59635  -2.597   8.051   4.523 -2.3101 -0.8004 -0.2716
  452MOL0     H59636  -2.657   7.853   4.317  0.5128 -1.2867  2.3811
  452MOL0     H59637  -2.772   7.945   4.425 -2.0801  0.2987 -1.7933
  452MOL0     H59638  -2.661   8.048   4.166 -0.3651 -2.1833 -0.7816
  452MOL0     H59639  -2.720   8.152   4.303 -0.4763 -1.4592  1.9973
  452MOL0     H59640  -2.877   7.928   4.198  2.3515  0.2586 -1.2900
  452MOL0     H59641  -2.867   8.075   4.090  1.1210  1.0093 -0.7429
  452MOL0     H59642  -2.967   8.043   4.380 -2.6934  2.9119  1.2972
  452MOL0     H59643  -2.969   8.203   4.294  0.9050  0.0706 -1.0363
  452MOL0     H59644  -3.109   7.955   4.213 -1.9213 -0.2608  0.8492
  452MOL0     H59645  -3.126   8.117   4.140  3.3938  0.5489 -0.5415
  452MOL0     H59646  -2.326   8.121   4.829  0.0369 -1.0828 -0.8349
  452MOL0     H59647  -2.113   8.199   4.961 -4.8445 -2.4117  0.8698
  452MOL0     H59648  -1.516   8.412   4.793  1.1057  1.2454  1.2369
  452MOL0     H59649  -1.356   8.422   4.954  1.0272 -2.3460 -1.3899
  452MOL0     H59650   0.159   9.178   5.293  0.8555  0.7143  0.1803
  452MOL0     H59651   0.341   9.351   5.283  0.0236  0.1591  0.7732
  452MOL0     H59652   0.494   9.815   5.281  1.8180  2.1831 -2.0831
  452MOL0     H59653   0.698   9.884   5.173  1.4346  0.6148  0.4419
  452MOL0     H59654   1.056   9.871   5.072 -0.8425 -0.1936 -3.8761
  452MOL0     H59655   0.884   9.871   5.064  1.4000  0.3346 -2.5588
  452MOL0     H59656   0.876   9.644   4.992  0.1860 -1.2868  1.2237
  452MOL0     H59657   1.002   9.732   4.902 -0.9057  1.6011  0.2414
  452MOL0     H59658   1.068   9.499   4.983 -0.3200 -2.4577  4.5050
  452MOL0     H59659   1.064   9.564   5.148  2.0990 -2.6918  0.4453
  452MOL0     H59660   1.234   9.706   4.913  2.8307  0.3780  0.8849
  452MOL0     H59661   1.243   9.728   5.082  3.3188 -0.0978  0.0334
  452MOL0     H59662   1.480   9.392   5.040 -0.5513 -1.4270 -1.4355
  452MOL0     H59663   0.904   9.544   5.354 -0.0529 -0.9868 -2.4327
  452MOL0     H59664   0.696   9.468   5.443 -0.5701  0.0290 -0.6968
  453MOL0     O59665   1.541  10.319   6.989 -0.6938 -0.0371 -0.4100
  453MOL0     C59666   1.546  10.228   7.074  1.0695 -0.0445 -0.4615
  453MOL0     O59667   1.440  10.144   7.105  0.0158 -0.7173  0.0480
  453MOL0     C59668   1.308  10.165   7.075  0.1920  0.5646 -0.2270
  453MOL0     C59669   1.241  10.269   7.011  0.2440 -0.5503 -0.2135
  453MOL0     C59670   1.104  10.262   6.987 -0.6719  0.8711 -0.1933
  453MOL0     C59671   1.039  10.143   7.012  0.2489 -0.4800 -0.8002
  453MOL0     O59672   0.905  10.132   6.993 -0.4347 -0.2204  0.3652
  453MOL0     C59673   0.851  10.164   6.868  0.4078  0.4171 -0.4783
  453MOL0     C59674   0.705  10.212   6.894 -0.6188 -0.7604 -0.7653
  453MOL0     C59675   0.614  10.097   6.946  0.3641 -0.3155 -0.4459
  453MOL0     C59676   0.459  10.136   6.943  0.1075  0.5194 -0.0366
  453MOL0     C59677   0.368  10.023   6.910  1.0320  0.8032 -0.5324
  453MOL0     C59678   0.221  10.055   6.901  0.0866  0.1887  0.6771
  453MOL0     C59679   0.129   9.933   6.863  0.4678 -0.0305 -0.5144
  453MOL0     C59680  -0.019   9.976   6.831  0.5027 -0.0616  1.1158
  453MOL0     N59681  -0.099   9.874   6.766  0.5462 -0.4058  0.6664
  453MOL0     C59682  -0.200   9.803   6.835 -0.5292  0.7395 -0.0721
  453MOL0     C59683  -0.248   9.722   6.737  0.4670  0.3143  0.5147
  453MOL0     C59684  -0.351   9.611   6.763 -0.4899  0.3768 -0.3228
  453MOL0     C59685  -0.500   9.640   6.733  0.5489 -0.2954  0.0137
  453MOL0     C59686  -0.517   9.663   6.587 -0.6564  0.2029 -0.1403
  453MOL0     C59687  -0.659   9.686   6.542 -0.2627  0.7703  0.1448
  453MOL0     O59688  -0.731   9.559   6.566  0.6020  0.1696 -0.0090
  453MOL0     C59689  -0.863   9.547   6.526 -0.4377 -0.3728 -0.2635
  453MOL0     C59690  -0.931   9.441   6.574 -0.3932 -0.4151 -0.2785
  453MOL0     C59691  -1.055   9.408   6.521  0.2514  0.1234  0.2594
  453MOL0     C59692  -1.113   9.489   6.414  0.9683  0.3112  0.0676
  453MOL0     C59693  -1.250   9.462   6.366  0.7364  0.2046 -0.0462
  453MOL0     O59694  -1.306   9.341   6.395  0.0033 -0.0138 -0.1267
  453MOL0     C59695  -1.439   9.321   6.370 -0.7203  0.9569  0.2741
  453MOL0     C59696  -1.476   9.264   6.249  0.1665  0.1140 -0.3548
  453MOL0     C59697  -1.613   9.241   6.222 -0.1659  0.7194 -0.6719
  453MOL0     C59698  -1.706   9.275   6.315 -0.6392 -0.6533 -0.5961
  453MOL0     O59699  -1.843   9.261   6.283  0.3774  0.5324 -0.0547
  453MOL0     C59700  -1.951   9.249   6.372  0.5382 -0.3370 -0.2141
  453MOL0     C59701  -2.067   9.179   6.314 -0.7123 -0.0436  0.3016
  453MOL0     C59702  -2.197   9.204   6.387  0.8256  0.6319  0.1260
  453MOL0     C59703  -2.191   9.170   6.537 -0.8369  0.1816 -0.0745
  453MOL0     C59704  -2.210   9.019   6.570 -0.1942 -0.0964  0.1858
  453MOL0     C59705  -2.362   8.982   6.541  0.2174 -0.3438  0.1609
  453MOL0     C59706  -2.402   8.868   6.630  0.5597 -0.3400 -0.3637
  453MOL0     C59707  -2.409   8.899   6.776  0.2297  1.5009 -0.5245
  453MOL0    Cl59708  -2.483   8.754   6.854  0.1198 -0.6271 -0.0451
  453MOL0     C59709  -1.671   9.343   6.428  0.1375 -0.0715 -0.8018
  453MOL0     C59710  -1.535   9.356   6.463  0.3261  0.3777  0.2652
  453MOL0     O59711  -1.295   9.543   6.281  0.0130  0.1892  0.2650
  453MOL0     C59712  -1.049   9.606   6.387 -0.2522  0.3628  0.1783
  453MOL0     C59713  -0.923   9.634   6.430 -0.6940  0.1600 -0.5271
  453MOL0     N59714  -0.172   9.741   6.625 -0.6616 -0.4843 -0.2248
  453MOL0     N59715  -0.086   9.837   6.635 -0.1200 -0.7046 -0.1657
  453MOL0     C59716   1.104  10.035   7.071 -0.4626 -0.7154  0.9261
  453MOL0     C59717   1.240  10.049   7.107 -0.2549  0.2131  0.5603
  453MOL0     C59718   1.668  10.210   7.148  0.1428 -0.1571 -0.7085
  453MOL0     C59719   1.774  10.303   7.137 -0.5575  0.9991  0.1057
  453MOL0     C59720   1.902  10.287   7.201  0.5678 -0.1227  1.2016
  453MOL0     C59721   1.918  10.161   7.261 -0.2846 -1.0536  0.1353
  453MOL0     O59722   2.036  10.112   7.318  0.1009  0.1952  0.8033
  453MOL0     C59723   2.145  10.204   7.326 -0.7780  0.1879 -0.0257
  453MOL0     C59724   2.268  10.143   7.397  0.0114  0.6424  0.4210
  453MOL0     C59725   2.379  10.231   7.452  0.2681 -0.2123  0.2800
  453MOL0     C59726   2.425  10.334   7.344  0.3575 -0.0900 -0.2688
  453MOL0     C59727   2.537  10.401   7.416 -0.0963  0.1190  0.0342
  453MOL0     C59728   2.639  10.440   7.465 -0.3667 -0.9358  0.4524
  453MOL0     C59729   1.811  10.077   7.279  0.2168 -0.0031 -0.2382
  453MOL0     C59730   1.691  10.098   7.226  0.5795 -1.1658 -0.1634
  453MOL0     H59731   1.288  10.363   6.982 -0.1305 -1.0385 -2.6125
  453MOL0     H59732   1.043  10.347   6.958 -1.3740  0.7758  0.9191
  453MOL0     H59733   0.860  10.074   6.807 -0.1730 -0.4893  0.7423
  453MOL0     H59734   0.905  10.246   6.820  0.4365  1.2124  0.8562
  453MOL0     H59735   0.654  10.261   6.811 -0.3409  0.0271 -0.4898
  453MOL0     H59736   0.709  10.290   6.971 -3.4770 -0.0976 -1.1932
  453MOL0     H59737   0.647  10.060   7.044 -2.2098 -0.1197  0.5790
  453MOL0     H59738   0.625  10.008   6.883  1.1919  0.0724 -0.8643
  453MOL0     H59739   0.433  10.177   7.041 -0.6137  0.5998 -0.2549
  453MOL0     H59740   0.441  10.211   6.866  1.4980  0.2294 -0.6738
  453MOL0     H59741   0.374   9.956   6.997 -0.8466  0.6545 -0.4677
  453MOL0     H59742   0.398   9.957   6.828 -0.8300 -1.9175  0.7837
  453MOL0     H59743   0.217  10.137   6.829  2.2668 -0.3641 -0.1683
  453MOL0     H59744   0.183  10.101   6.992  1.1432 -0.3125  1.3927
  453MOL0     H59745   0.177   9.890   6.775 -0.2388  2.2014 -2.0778
  453MOL0     H59746   0.136   9.853   6.937 -0.7759 -0.2951 -0.6608
  453MOL0     H59747  -0.007  10.060   6.762  2.5589 -0.6392  0.6949
  453MOL0     H59748  -0.071  10.023   6.915 -1.1632 -2.6800  1.6533
  453MOL0     H59749  -0.229   9.794   6.940  2.1068 -0.1676  0.6556
  453MOL0     H59750  -0.334   9.587   6.869  1.4058 -0.9219 -0.8541
  453MOL0     H59751  -0.322   9.515   6.719 -1.7878 -0.6544  0.9714
  453MOL0     H59752  -0.543   9.728   6.781 -1.9243 -1.4972  0.1986
  453MOL0     H59753  -0.563   9.556   6.766  0.8947 -1.2117 -1.5610
  453MOL0     H59754  -0.459   9.751   6.557 -0.1762 -0.0749 -0.0316
  453MOL0     H59755  -0.470   9.582   6.531 -2.5983  1.0077 -3.1544
  453MOL0     H59756  -0.655   9.725   6.440 -3.7264  1.3622  0.1256
  453MOL0     H59757  -0.694   9.764   6.609 -0.5375 -0.9070  2.0705
  453MOL0     H59758  -0.887   9.375   6.648 -1.4393  0.4852  1.2032
  453MOL0     H59759  -1.106   9.320   6.560  2.5384 -1.2049  0.3986
  453MOL0     H59760  -1.401   9.250   6.172 -0.2653 -3.1066 -0.3037
  453MOL0     H59761  -1.633   9.206   6.122  2.1689 -0.0257 -0.9404
  453MOL0     H59762  -1.975   9.354   6.389 -1.8321 -0.3619 -2.7620
  453MOL0     H59763  -1.922   9.199   6.465 -0.2206  0.4125  0.4442
  453MOL0     H59764  -2.037   9.076   6.337 -1.0198 -0.1736  0.1392
  453MOL0     H59765  -2.078   9.198   6.207  0.0453  1.7548  0.5228
  453MOL0     H59766  -2.277   9.144   6.343 -0.8827  0.9123  2.6428
  453MOL0     H59767  -2.219   9.311   6.380  1.3400  0.8071  1.0317
  453MOL0     H59768  -2.099   9.213   6.577 -0.5458 -0.2076 -0.3175
  453MOL0     H59769  -2.279   9.214   6.585 -1.7425 -2.4965  0.9200
  453MOL0     H59770  -2.190   9.005   6.677  2.3294 -0.2783 -0.2458
  453MOL0     H59771  -2.141   8.952   6.518 -2.9536 -4.0762  1.1814
  453MOL0     H59772  -2.377   8.948   6.438  2.4841  1.2820 -0.8067
  453MOL0     H59773  -2.429   9.066   6.563 -0.2025 -1.0699  1.7732
  453MOL0     H59774  -2.502   8.830   6.609  0.7707 -0.8335 -0.5116
  453MOL0     H59775  -2.332   8.785   6.614  0.1398 -1.1178  1.5062
  453MOL0     H59776  -2.478   8.983   6.783  0.8442  1.9479  0.2098
  453MOL0     H59777  -2.312   8.909   6.825  1.2051 -1.9344 -1.4738
  453MOL0     H59778  -1.741   9.364   6.508  0.0347 -0.5129 -0.7748
  453MOL0     H59779  -1.492   9.400   6.553  0.5237 -0.0297  0.3704
  453MOL0     H59780  -1.112   9.665   6.323  0.1823  0.2089 -0.4038
  453MOL0     H59781  -0.883   9.732   6.404  2.0037 -0.4701  0.8772
  453MOL0     H59782   1.049   9.943   7.087 -0.9808 -0.4164  0.8658
  453MOL0     H59783   1.294   9.959   7.136 -2.3097 -1.0649  0.6031
  453MOL0     H59784   1.746  10.396   7.088  3.5528  3.3151  1.6409
  453MOL0     H59785   1.975  10.366   7.189 -0.4941  0.7459  0.0177
  453MOL0     H59786   2.108  10.292   7.380 -2.8471  1.4391 -3.1951
  453MOL0     H59787   2.166  10.247   7.228  1.6709  0.2602  0.4772
  453MOL0     H59788   2.227  10.101   7.489 -1.6450 -1.5379 -1.2050
  453MOL0     H59789   2.310  10.057   7.344 -0.0265  0.8713  0.0158
  453MOL0     H59790   2.460  10.164   7.483  0.2144 -0.1781  0.4914
  453MOL0     H59791   2.359  10.288   7.543  1.5114 -0.7466  0.9174
  453MOL0     H59792   2.456  10.282   7.253 -1.3873 -1.4062 -0.1562
  453MOL0     H59793   2.348  10.405   7.313  1.5291  1.4858  0.2990
  453MOL0     H59794   2.723  10.490   7.510 -1.6403  0.8265  0.9829
  453MOL0     H59795   1.837   9.982   7.325  0.1149 -0.9667 -2.0550
  453MOL0     H59796   1.614  10.026   7.251  0.5530 -0.5153  1.8416
  454MOL0     O59797   2.226   6.659   8.527  0.4752 -0.1896 -0.0280
  454MOL0     C59798   2.332   6.608   8.546 -0.3117  0.4359 -0.1123
  454MOL0     O59799   2.363   6.479   8.578  0.9302  0.3541  0.0426
  454MOL0     C59800   2.265   6.388   8.609 -0.0025 -0.2023 -0.5547
  454MOL0     C59801   2.150   6.426   8.672  0.3038  0.3532 -0.4762
  454MOL0     C59802   2.047   6.338   8.710 -0.2078 -0.0025 -0.2556
  454MOL0     C59803   2.061   6.207   8.673  0.3590 -0.0660 -0.1860
  454MOL0     O59804   1.959   6.120   8.700 -0.4576 -0.0945  0.8156
  454MOL0     C59805   1.910   6.047   8.586  0.1379 -0.8944  0.2305
  454MOL0     C59806   1.787   5.964   8.597 -0.8459  0.7191 -0.7349
  454MOL0     C59807   1.678   6.028   8.683  0.3764 -0.6743  0.4692
  454MOL0     C59808   1.553   5.946   8.661  0.2909 -0.4750 -0.3342
  454MOL0     C59809   1.426   5.990   8.732  1.2423  0.8278  0.5541
  454MOL0     C59810   1.314   5.888   8.721  0.4418  1.0693  0.3155
  454MOL0     C59811   1.269   5.864   8.582  1.3268 -0.2295 -0.5678
  454MOL0     C59812   1.170   5.748   8.572 -0.1488 -0.0451 -0.4952
  454MOL0     N59813   1.031   5.792   8.524 -0.5843  0.1655 -0.4188
  454MOL0     C59814   0.939   5.703   8.486 -0.6475 -0.4615  0.6196
  454MOL0     C59815   0.822   5.772   8.491 -0.4056 -1.1093  0.5999
  454MOL0     C59816   0.689   5.712   8.455  0.1154 -0.1741  0.4537
  454MOL0     C59817   0.578   5.780   8.526 -0.4113 -0.1550  0.3459
  454MOL0     C59818   0.441   5.757   8.472  0.9916  0.2454 -0.3441
  454MOL0     C59819   0.346   5.812   8.574  0.7870 -0.2483 -1.3152
  454MOL0     O59820   0.244   5.722   8.609  1.0842 -0.2264 -0.2264
  454MOL0     C59821   0.153   5.675   8.508 -0.4920  0.0600  0.7535
  454MOL0     C59822   0.122   5.746   8.395 -0.4789 -0.5985 -0.5763
  454MOL0     C59823   0.029   5.694   8.307  0.3726 -0.1290  0.6999
  454MOL0     C59824  -0.050   5.583   8.336  0.0888  1.2830  0.0672
  454MOL0     C59825  -0.155   5.535   8.247  0.2875  0.4870 -0.4232
  454MOL0     O59826  -0.182   5.402   8.266 -0.2623 -0.7334  0.9914
  454MOL0     C59827  -0.275   5.349   8.183  0.8475 -0.3957 -0.1695
  454MOL0     C59828  -0.399   5.301   8.234 -1.0002  0.5518 -0.0032
  454MOL0     C59829  -0.488   5.235   8.150  0.3122  0.7368  0.6108
  454MOL0     C59830  -0.466   5.231   8.009  0.9771  0.3491  0.1939
  454MOL0     O59831  -0.549   5.177   7.912  0.8447  0.7190 -0.3273
  454MOL0     C59832  -0.680   5.122   7.948 -0.5555 -0.5586  0.2903
  454MOL0     C59833  -0.679   4.977   7.999  0.0367  0.1172  0.7048
  454MOL0     C59834  -0.818   4.944   8.047  1.1707 -0.3695 -0.4074
  454MOL0     C59835  -0.820   4.791   8.074 -0.0022  0.0964  0.2975
  454MOL0     C59836  -0.809   4.696   7.959 -0.1158 -0.1224 -0.6225
  454MOL0     C59837  -0.908   4.718   7.854  0.4557 -0.4427  0.4020
  454MOL0     C59838  -1.061   4.700   7.885  0.1309 -0.3407  0.3077
  454MOL0     C59839  -1.106   4.559   7.913  0.3282 -0.2804 -0.4169
  454MOL0    Cl59840  -1.052   4.464   7.785  0.2378  0.4484  0.0414
  454MOL0     C59841  -0.352   5.284   7.959  0.0321 -0.1172 -0.5232
  454MOL0     C59842  -0.253   5.335   8.044 -0.1817  0.3368 -0.8262
  454MOL0     O59843  -0.197   5.607   8.155  0.4953 -0.2153  0.1695
  454MOL0     C59844  -0.026   5.517   8.459  0.2008 -0.9963 -0.0079
  454MOL0     C59845   0.080   5.565   8.543  0.1597  0.4433 -0.2853
  454MOL0     N59846   0.854   5.905   8.535 -0.4844  0.3797 -0.1050
  454MOL0     N59847   0.981   5.912   8.558 -0.4067 -0.5297 -0.5050
  454MOL0     C59848   2.180   6.161   8.616  0.2968 -0.1424  0.1469
  454MOL0     C59849   2.275   6.250   8.581 -0.9422 -0.6141 -0.7160
  454MOL0     C59850   2.447   6.706   8.530  0.5393 -0.1990 -0.6210
  454MOL0     C59851   2.424   6.842   8.500 -0.7517 -0.4529 -0.1826
  454MOL0     C59852   2.534   6.933   8.501 -0.5623  0.6152 -0.3279
  454MOL0     C59853   2.667   6.888   8.542  0.8471  0.6681  0.5430
  454MOL0     O59854   2.774   6.974   8.561  0.3385  0.2999  0.4844
  454MOL0     C59855   2.771   7.112   8.513  0.3068  0.1405 -0.4644
  454MOL0     C59856   2.775   7.107   8.363 -0.3174  0.3646  0.0654
  454MOL0     C59857   2.770   7.254   8.310  0.0880 -0.1812  0.1448
  454MOL0     C59858   2.761   7.249   8.159 -0.5518  0.4653  0.5781
  454MOL0     C59859   2.886   7.196   8.112  0.3626  0.7550  0.1242
  454MOL0     C59860   3.000   7.158   8.079  0.2806  0.2070  0.5374
  454MOL0     C59861   2.681   6.754   8.570 -0.3817 -0.1658 -0.2053
  454MOL0     C59862   2.576   6.662   8.570 -0.4735 -0.3637 -0.6557
  454MOL0     H59863   2.113   6.526   8.693 -0.1264 -0.3269  2.4111
  454MOL0     H59864   1.950   6.373   8.744 -0.7959 -0.9888 -0.8576
  454MOL0     H59865   1.990   5.974   8.569  1.1023  0.0436  0.5968
  454MOL0     H59866   1.897   6.110   8.497  2.6982  0.2352  0.5557
  454MOL0     H59867   1.813   5.869   8.644 -3.1697  1.2194  1.8376
  454MOL0     H59868   1.751   5.933   8.499 -1.2395  1.1956 -0.7450
  454MOL0     H59869   1.654   6.128   8.646  0.5087  0.3206  2.9288
  454MOL0     H59870   1.716   6.035   8.785  3.3645 -0.6725 -0.5569
  454MOL0     H59871   1.531   5.945   8.554 -1.1386 -1.7808 -0.0590
  454MOL0     H59872   1.576   5.843   8.688  1.5464 -0.7012 -2.0775
  454MOL0     H59873   1.381   6.078   8.685 -0.6713 -1.0440 -1.3158
  454MOL0     H59874   1.459   6.007   8.835 -2.6322  0.8399  1.9276
  454MOL0     H59875   1.225   5.906   8.781  2.0847  1.4056  2.8227
  454MOL0     H59876   1.341   5.791   8.763 -0.2237  0.6442 -0.2306
  454MOL0     H59877   1.221   5.957   8.552 -1.1793 -0.2402  2.8444
  454MOL0     H59878   1.357   5.852   8.518  2.2375  0.2228  0.5700
  454MOL0     H59879   1.141   5.697   8.665 -2.6717 -2.4443 -2.4138
  454MOL0     H59880   1.212   5.672   8.505  0.7831 -0.1755  0.2270
  454MOL0     H59881   0.955   5.599   8.460 -0.0486 -0.1148 -0.4583
  454MOL0     H59882   0.694   5.605   8.474  1.8019 -0.1810  0.1022
  454MOL0     H59883   0.686   5.723   8.346 -1.3071  3.2054  0.7085
  454MOL0     H59884   0.592   5.888   8.537  2.1881 -0.3780 -0.0936
  454MOL0     H59885   0.583   5.741   8.628 -4.0671 -2.7075 -0.2840
  454MOL0     H59886   0.421   5.806   8.376 -0.2899 -0.0222 -0.2225
  454MOL0     H59887   0.425   5.649   8.466  1.4137  0.1308  0.5110
  454MOL0     H59888   0.294   5.899   8.533 -1.2663 -0.0790  1.4143
  454MOL0     H59889   0.391   5.850   8.666 -1.5454 -1.2282  0.3269
  454MOL0     H59890   0.161   5.844   8.372 -0.2707 -0.8237 -1.2213
  454MOL0     H59891   0.010   5.744   8.212 -0.0499  0.7168  1.2198
  454MOL0     H59892  -0.416   5.299   8.341 -0.4141 -1.0962  0.0846
  454MOL0     H59893  -0.586   5.210   8.189 -1.2686  2.2173 -2.1175
  454MOL0     H59894  -0.736   5.126   7.854  0.2536  0.5804 -0.1654
  454MOL0     H59895  -0.729   5.191   8.018  0.3405 -0.4383  0.8094
  454MOL0     H59896  -0.606   4.967   8.080 -0.5666  0.7530  1.3446
  454MOL0     H59897  -0.655   4.927   7.904  0.1883 -0.6268  1.1248
  454MOL0     H59898  -0.899   4.967   7.977  1.5097  0.0247 -0.6697
  454MOL0     H59899  -0.842   4.983   8.147  0.4926 -2.6579  0.3845
  454MOL0     H59900  -0.749   4.755   8.149  1.6735 -0.7799 -1.6234
  454MOL0     H59901  -0.923   4.778   8.109  0.3101  0.3342  1.3454
  454MOL0     H59902  -0.816   4.591   7.990 -1.6543  0.1799  0.1456
  454MOL0     H59903  -0.706   4.704   7.923 -0.0270 -0.9076 -0.5758
  454MOL0     H59904  -0.883   4.652   7.770 -3.4413 -2.5650  0.6850
  454MOL0     H59905  -0.911   4.819   7.811 -1.9730 -0.9807 -0.8659
  454MOL0     H59906  -1.091   4.770   7.963 -0.7311 -0.9983  0.5841
  454MOL0     H59907  -1.125   4.727   7.801 -1.2924  1.0888  1.7714
  454MOL0     H59908  -1.215   4.555   7.925  0.3707 -1.3037 -0.2532
  454MOL0     H59909  -1.059   4.537   8.009 -1.8593  1.5007  1.2069
  454MOL0     H59910  -0.339   5.310   7.854  0.5902  1.7829 -0.0357
  454MOL0     H59911  -0.163   5.380   8.003  0.8024 -1.1447 -0.3603
  454MOL0     H59912  -0.088   5.434   8.490 -1.2114 -0.7391 -1.9777
  454MOL0     H59913   0.103   5.512   8.635  1.3558  1.0177 -0.2321
  454MOL0     H59914   2.197   6.059   8.584  4.2189  1.1563 -2.6572
  454MOL0     H59915   2.366   6.211   8.537  2.3625  1.5705  3.4312
  454MOL0     H59916   2.324   6.881   8.485 -0.8435 -1.2586 -1.8890
  454MOL0     H59917   2.523   7.040   8.484 -0.2615  0.9135  1.2088
  454MOL0     H59918   2.852   7.171   8.556  1.1844 -1.3751  0.0784
  454MOL0     H59919   2.684   7.162   8.557  1.0609  0.2383  0.9969
  454MOL0     H59920   2.872   7.064   8.336  0.1982 -0.3278  2.6689
  454MOL0     H59921   2.694   7.043   8.328 -1.7548  1.4442  1.2948
  454MOL0     H59922   2.858   7.316   8.328  1.5759 -1.4630 -2.2222
  454MOL0     H59923   2.674   7.295   8.345 -1.2797 -0.1145 -3.2180
  454MOL0     H59924   2.687   7.179   8.121  1.8976 -3.7697  2.8232
  454MOL0     H59925   2.743   7.348   8.115  2.3646  1.4088  1.2561
  454MOL0     H59926   3.096   7.117   8.058  0.2445  1.2529 -2.0836
  454MOL0     H59927   2.784   6.723   8.584 -0.1241  1.1120  0.9936
  454MOL0     H59928   2.593   6.557   8.590  1.4119 -0.0372 -0.3275
  455MOL0     O59929  10.441   1.859   8.303 -0.0743 -0.0656  0.0480
  455MOL0     C59930  10.545   1.896   8.252  0.4949 -0.9019  0.3421
  455MOL0     O59931  10.570   2.024   8.214  0.2705 -0.1895  0.3782
  455MOL0     C59932  10.477   2.115   8.239  0.3870  0.5630 -0.1053
  455MOL0     C59933  10.373   2.138   8.147  0.5060 -0.1927  0.2412
  455MOL0     C59934  10.292   2.250   8.166 -0.0684 -0.2858 -0.3716
  455MOL0     C59935  10.298   2.326   8.282 -0.2272 -0.3018 -0.3619
  455MOL0     O59936  10.218   2.429   8.321 -0.4675 -0.2202 -0.1872
  455MOL0     C59937  10.128   2.472   8.217  0.2529 -0.2603  0.2865
  455MOL0     C59938  10.001   2.388   8.249 -0.4205  0.8745  0.0562
  455MOL0     C59939   9.897   2.417   8.151  0.8554 -0.2522  0.2397
  455MOL0     C59940   9.771   2.332   8.161  0.3673  0.2418  0.0202
  455MOL0     C59941   9.659   2.383   8.072 -0.1744 -0.3833 -0.1237
  455MOL0     C59942   9.542   2.297   8.068  0.3188 -0.2053  0.7175
  455MOL0     C59943   9.480   2.279   8.205  0.0815 -0.0917  0.1554
  455MOL0     C59944   9.439   2.401   8.282 -0.2769 -0.2197  0.5525
  455MOL0     N59945   9.334   2.485   8.223 -0.5275 -0.6912  0.2603
  455MOL0     C59946   9.237   2.541   8.305  0.2646 -0.6713 -0.7153
  455MOL0     C59947   9.175   2.616   8.223 -0.3041  0.1136  0.9925
  455MOL0     C59948   9.050   2.694   8.262 -0.3916 -0.2310  0.6818
  455MOL0     C59949   8.973   2.745   8.144  0.5147  0.3548  0.3169
  455MOL0     C59950   8.866   2.841   8.183  0.4703 -0.3046 -0.1825
  455MOL0     C59951   8.927   2.987   8.207 -0.3237 -0.5630 -0.5255
  455MOL0     O59952   8.830   3.092   8.172  0.2715 -0.3132 -0.5488
  455MOL0     C59953   8.710   3.103   8.242 -0.2053 -0.6689  0.1685
  455MOL0     C59954   8.700   3.094   8.384 -0.4825  0.3984  0.3293
  455MOL0     C59955   8.580   3.120   8.447 -0.3332 -0.7765  0.2922
  455MOL0     C59956   8.459   3.144   8.366  0.1457 -0.0994  0.3346
  455MOL0     C59957   8.330   3.153   8.440  0.1804  0.1048 -0.0081
  455MOL0     O59958   8.212   3.197   8.369 -0.8585 -0.1916  0.3027
  455MOL0     C59959   8.092   3.217   8.438 -0.5874  0.3011  0.5749
  455MOL0     C59960   7.971   3.155   8.412  0.6411  0.5040  0.6543
  455MOL0     C59961   7.847   3.184   8.484  0.2835  0.3601  0.3733
  455MOL0     C59962   7.844   3.263   8.595 -1.3142  0.5531 -0.5452
  455MOL0     O59963   7.737   3.267   8.674 -0.0520  0.3415 -0.4295
  455MOL0     C59964   7.731   3.378   8.767 -0.0074 -0.4367 -0.0935
  455MOL0     C59965   7.606   3.390   8.849  0.4028 -0.0597  0.4251
  455MOL0     C59966   7.629   3.478   8.971 -0.4155 -0.2253 -0.4139
  455MOL0     C59967   7.495   3.501   9.033  0.8757  1.1877  0.0656
  455MOL0     C59968   7.511   3.578   9.161  0.0614 -0.6556 -0.4793
  455MOL0     C59969   7.376   3.599   9.229  0.5810 -0.0199 -0.6046
  455MOL0     C59970   7.297   3.485   9.291  0.3409  0.2034  0.1440
  455MOL0     C59971   7.143   3.517   9.320 -0.0409  0.8382  0.2711
  455MOL0    Cl59972   7.120   3.644   9.449 -0.0789 -0.1575  0.1919
  455MOL0     C59973   7.972   3.323   8.631 -0.5874  0.8473 -0.5833
  455MOL0     C59974   8.086   3.300   8.550  0.0150 -0.4018 -0.1048
  455MOL0     O59975   8.332   3.114   8.558 -0.9109 -0.5315 -0.4990
  455MOL0     C59976   8.475   3.151   8.224  0.1954 -0.2058 -1.0303
  455MOL0     C59977   8.598   3.136   8.165 -0.4776 -0.1450 -0.3173
  455MOL0     N59978   9.244   2.619   8.097  0.0235  0.4740  0.5939
  455MOL0     N59979   9.333   2.526   8.098  0.8664  0.3752  0.7917
  455MOL0     C59980  10.402   2.298   8.374  0.8041 -0.0395 -0.0285
  455MOL0     C59981  10.483   2.193   8.353  0.0111 -0.4523  0.4660
  455MOL0     C59982  10.649   1.802   8.225 -0.5517 -0.1955 -0.7113
  455MOL0     C59983  10.634   1.669   8.271  0.0270 -0.0857  0.4341
  455MOL0     C59984  10.731   1.571   8.247  0.9837 -0.0497 -0.7450
  455MOL0     C59985  10.853   1.609   8.194 -0.2356 -0.9795 -0.2991
  455MOL0     O59986  10.964   1.522   8.170 -0.4540  0.4867  0.1859
  455MOL0     C59987  10.953   1.385   8.203 -0.0566 -0.0276 -0.9422
  455MOL0     C59988  11.079   1.314   8.149 -0.0534 -0.1851  0.3941
  455MOL0     C59989  11.075   1.160   8.163 -0.1908  0.0148 -0.2412
  455MOL0     C59990  11.202   1.092   8.119 -0.2853 -0.7809  0.6263
  455MOL0     C59991  11.274   1.147   8.000  0.1101 -0.0630  0.7529
  455MOL0     C59992  11.328   1.200   7.904  0.2696 -0.5306  0.3909
  455MOL0     C59993  10.867   1.740   8.146 -0.6333  0.1437  0.1270
  455MOL0     C59994  10.771   1.838   8.164  0.1053  0.2220 -0.0845
  455MOL0     H59995  10.365   2.076   8.059 -2.3137 -2.0274  1.6514
  455MOL0     H59996  10.205   2.255   8.101 -1.2690 -3.3413  0.7811
  455MOL0     H59997  10.164   2.464   8.115 -1.5746  0.6701 -0.4870
  455MOL0     H59998  10.108   2.578   8.238 -1.1451 -0.0173 -1.9691
  455MOL0     H59999   9.956   2.419   8.343  2.8293  0.1648  1.9953
  455MOL0     H60000  10.021   2.280   8.259  1.2997  1.3827  4.3327
  455MOL0     H60001   9.931   2.412   8.047 -0.4628  3.2158 -0.5140
  455MOL0     H60002   9.866   2.522   8.163  1.4627 -0.1557  0.9677
  455MOL0     H60003   9.791   2.228   8.135  0.5904  0.7341 -1.9889
  455MOL0     H60004   9.723   2.319   8.258 -1.6206  0.2455 -0.8947
  455MOL0     H60005   9.692   2.379   7.968 -0.6520 -0.4416 -0.2784
  455MOL0     H60006   9.630   2.482   8.109 -0.7892 -1.2530  1.8748
  455MOL0     H60007   9.566   2.201   8.021  1.6797 -0.1796  1.2961
  455MOL0     H60008   9.476   2.353   8.002  0.0283  1.0586  2.0244
  455MOL0     H60009   9.390   2.217   8.195 -0.7582  0.9987  0.6842
  455MOL0     H60010   9.536   2.217   8.276 -1.8846 -2.2686 -0.0505
  455MOL0     H60011   9.525   2.463   8.309 -0.0544  0.1411 -0.8963
  455MOL0     H60012   9.408   2.369   8.382 -0.0526  0.8702  0.9867
  455MOL0     H60013   9.211   2.520   8.408 -1.1441 -2.1738 -1.3365
  455MOL0     H60014   9.068   2.774   8.334  2.9928  1.7736 -2.1135
  455MOL0     H60015   8.985   2.619   8.309 -0.1484  0.1087  1.5824
  455MOL0     H60016   8.930   2.661   8.088  2.1083  0.6459 -1.4220
  455MOL0     H60017   9.048   2.794   8.081 -0.7536  0.1616 -1.4039
  455MOL0     H60018   8.794   2.850   8.101  0.6584  0.3126 -0.2877
  455MOL0     H60019   8.817   2.797   8.270 -1.1677  0.6450 -0.5880
  455MOL0     H60020   9.013   3.002   8.141 -1.7698  0.9094 -2.1698
  455MOL0     H60021   8.969   2.990   8.308  1.1396 -0.5133 -1.1134
  455MOL0     H60022   8.788   3.067   8.443 -0.2267  1.3359  0.3855
  455MOL0     H60023   8.576   3.129   8.555 -0.8177 -2.2983  0.4215
  455MOL0     H60024   7.966   3.077   8.337 -0.8681 -0.1657  1.4139
  455MOL0     H60025   7.751   3.141   8.456 -0.1627  1.0204  0.8604
  455MOL0     H60026   7.741   3.469   8.707 -0.4745 -1.6107 -2.0488
  455MOL0     H60027   7.816   3.360   8.833  0.0375 -1.6114 -0.4460
  455MOL0     H60028   7.567   3.295   8.887 -1.5097  1.3408  2.2459
  455MOL0     H60029   7.528   3.442   8.792  1.1100  0.4882 -0.0565
  455MOL0     H60030   7.670   3.577   8.947  0.7241 -1.1340 -2.5034
  455MOL0     H60031   7.693   3.422   9.040 -0.7532  1.0801  1.0233
  455MOL0     H60032   7.424   3.554   8.969  0.6483  0.2102 -0.5221
  455MOL0     H60033   7.457   3.400   9.053  2.5589  0.7449  1.2532
  455MOL0     H60034   7.553   3.678   9.146 -1.0495 -0.2308 -0.8323
  455MOL0     H60035   7.576   3.526   9.232 -0.5350 -0.4912  0.1954
  455MOL0     H60036   7.301   3.656   9.173 -0.2618  1.3595  1.7959
  455MOL0     H60037   7.395   3.673   9.307 -0.0880 -1.4957  1.0115
  455MOL0     H60038   7.293   3.392   9.233  0.4378 -0.1995  0.7713
  455MOL0     H60039   7.343   3.459   9.386  0.1434 -2.1645 -0.3474
  455MOL0     H60040   7.091   3.430   9.361 -0.4845  1.6425  1.4434
  455MOL0     H60041   7.095   3.556   9.230  0.6235 -1.9183 -1.4162
  455MOL0     H60042   7.987   3.376   8.724 -0.2391 -1.0709  0.4921
  455MOL0     H60043   8.180   3.351   8.572  0.4205 -0.3394 -1.7795
  455MOL0     H60044   8.392   3.194   8.168 -0.3243  3.9020  2.3400
  455MOL0     H60045   8.616   3.151   8.059  3.1050 -0.0300  0.1713
  455MOL0     H60046  10.417   2.350   8.468 -1.7575 -1.1068  1.0665
  455MOL0     H60047  10.571   2.184   8.416  2.5275 -3.4541 -3.0632
  455MOL0     H60048  10.547   1.639   8.329  0.7618  0.3306  1.7996
  455MOL0     H60049  10.715   1.470   8.283  2.0920 -0.4828 -1.3985
  455MOL0     H60050  10.859   1.341   8.166 -2.4793 -1.4447  5.5712
  455MOL0     H60051  10.953   1.365   8.310  5.2173 -0.5828 -0.7783
  455MOL0     H60052  11.080   1.333   8.041  1.1674  4.4225  1.0084
  455MOL0     H60053  11.168   1.357   8.197  0.2026 -1.1578  0.8182
  455MOL0     H60054  10.991   1.112   8.112  1.6386 -3.7109 -0.0871
  455MOL0     H60055  11.075   1.138   8.270  0.3255 -0.5794 -0.3610
  455MOL0     H60056  11.266   1.099   8.207  1.3205 -1.1651 -0.4841
  455MOL0     H60057  11.186   0.984   8.106  0.1592 -0.6606 -1.2271
  455MOL0     H60058  11.381   1.247   7.823  0.0378 -1.4911 -0.3307
  455MOL0     H60059  10.965   1.745   8.100 -0.1222 -1.5168  0.9631
  455MOL0     H60060  10.792   1.939   8.132 -1.1527  0.8475  0.9986
  456MOL0     O60061   3.344   4.205  10.323  1.2667 -0.5864 -0.1292
  456MOL0     C60062   3.339   4.245  10.437  0.5822  0.0964  0.1839
  456MOL0     O60063   3.224   4.234  10.523 -0.2914 -0.1367  0.1838
  456MOL0     C60064   3.102   4.173  10.486 -0.4074 -0.4325 -0.0809
  456MOL0     C60065   3.068   4.145  10.349  0.7491 -1.3676 -0.7673
  456MOL0     C60066   2.932   4.096  10.327 -0.4003 -0.4035  0.3751
  456MOL0     C60067   2.843   4.074  10.430 -0.1191  0.0430  0.3735
  456MOL0     O60068   2.722   4.040  10.390 -0.3066  0.5316  1.5066
  456MOL0     C60069   2.635   3.959  10.467 -0.0817 -0.2513  0.1524
  456MOL0     C60070   2.550   4.059  10.544 -0.6612  0.7477 -0.4184
  456MOL0     C60071   2.460   4.127  10.444  0.2556  0.2269 -0.5763
  456MOL0     C60072   2.368   4.222  10.526  0.2802  0.3068 -0.0665
  456MOL0     C60073   2.277   4.315  10.442 -0.1212  0.3368  0.8433
  456MOL0     C60074   2.174   4.388  10.527  0.7391 -0.0582  0.7457
  456MOL0     C60075   2.090   4.476  10.434 -0.3894 -0.5101  0.5835
  456MOL0     C60076   1.963   4.518  10.526  0.3103 -0.1509  0.3367
  456MOL0     N60077   1.879   4.413  10.573  0.0520 -0.3460  0.8863
  456MOL0     C60078   1.816   4.323  10.488 -0.1279 -0.9094  0.2977
  456MOL0     C60079   1.716   4.271  10.566  0.4760  0.0537 -0.0640
  456MOL0     C60080   1.607   4.178  10.530 -0.6055  0.2026  0.0129
  456MOL0     C60081   1.471   4.232  10.500 -0.1703 -0.4876 -0.1448
  456MOL0     C60082   1.386   4.291  10.615 -0.5069 -0.1131 -0.5309
  456MOL0     C60083   1.372   4.195  10.731 -0.6890 -0.1249  0.1347
  456MOL0     O60084   1.322   4.075  10.675 -0.5333 -0.0539 -0.2253
  456MOL0     C60085   1.192   4.046  10.671  0.0295  0.2228  0.1620
  456MOL0     C60086   1.087   4.124  10.726  0.4840  0.2072 -0.0889
  456MOL0     C60087   0.953   4.089  10.729  0.2577  0.9878  0.1050
  456MOL0     C60088   0.923   3.964  10.667  0.2080  0.7393 -0.1731
  456MOL0     C60089   0.783   3.922  10.660 -0.2634  0.6082  0.0082
  456MOL0     O60090   0.691   4.011  10.704  0.3846  0.5752 -0.6931
  456MOL0     C60091   0.562   3.971  10.742 -1.0773  0.0160  0.5963
  456MOL0     C60092   0.466   3.959  10.644  0.3590 -0.0396 -0.3226
  456MOL0     C60093   0.329   3.919  10.679 -0.1674  0.2738  0.1240
  456MOL0     C60094   0.294   3.890  10.813 -1.2085  0.1270  0.1784
  456MOL0     O60095   0.167   3.864  10.865 -0.1718 -0.4401  0.9994
  456MOL0     C60096   0.051   3.875  10.783 -1.3437 -0.5188 -0.1763
  456MOL0     C60097  -0.069   3.793  10.846  1.4885 -0.3253  0.3015
  456MOL0     C60098  -0.098   3.833  10.993  1.6114 -1.0480  0.0695
  456MOL0     C60099  -0.226   3.780  11.050 -0.7068  0.0848  1.0043
  456MOL0     C60100  -0.233   3.796  11.198  0.4824  0.1246 -0.2055
  456MOL0     C60101  -0.371   3.760  11.263  1.3114 -0.1243  0.0681
  456MOL0     C60102  -0.479   3.862  11.238 -0.2862 -0.6033 -0.1445
  456MOL0     C60103  -0.622   3.820  11.212 -0.9146  0.3817 -0.2211
  456MOL0    Cl60104  -0.632   3.754  11.048 -0.2140  0.1253 -0.2797
  456MOL0     C60105   0.401   3.901  10.907 -0.5455 -0.9437  0.1696
  456MOL0     C60106   0.533   3.940  10.877  0.1806  0.5414  0.6561
  456MOL0     O60107   0.756   3.816  10.610 -0.5464  0.5103  0.0578
  456MOL0     C60108   1.023   3.885  10.605  0.0861  0.1276 -0.4554
  456MOL0     C60109   1.160   3.933  10.604  1.1709 -0.1983  0.3999
  456MOL0     N60110   1.719   4.329  10.684  0.2489  0.2243 -0.1339
  456MOL0     N60111   1.817   4.415  10.690  0.2386  0.4303 -0.3048
  456MOL0     C60112   2.884   4.095  10.562 -0.3194  0.0955  0.6874
  456MOL0     C60113   3.013   4.141  10.591  0.2662  0.6174  0.7151
  456MOL0     C60114   3.454   4.328  10.481  0.1112  0.3901  1.1599
  456MOL0     C60115   3.561   4.346  10.391 -0.7640  0.3596  0.1577
  456MOL0     C60116   3.669   4.426  10.430  0.3564  0.0125  0.6688
  456MOL0     C60117   3.675   4.477  10.561 -0.8404  0.0581  0.7694
  456MOL0     O60118   3.790   4.547  10.580  0.2202 -0.3355 -0.3020
  456MOL0     C60119   3.772   4.687  10.585  0.5415  0.1583 -0.0516
  456MOL0     C60120   3.902   4.772  10.560  1.1759  0.5157 -0.6495
  456MOL0     C60121   3.994   4.743  10.672  0.2783  0.2123 -0.3073
  456MOL0     C60122   4.132   4.799  10.645 -0.1480  0.0444 -0.6731
  456MOL0     C60123   4.143   4.943  10.640 -0.7851 -0.3184 -0.3557
  456MOL0     C60124   4.145   5.068  10.637 -0.5878 -0.5046  0.4775
  456MOL0     C60125   3.580   4.434  10.655  0.1014 -0.1404  0.4848
  456MOL0     C60126   3.456   4.374  10.613  0.0105 -0.5144  0.6600
  456MOL0     H60127   3.126   4.169  10.260  2.1325  0.8482  0.6318
  456MOL0     H60128   2.901   4.076  10.225  0.5637 -0.0966  0.0134
  456MOL0     H60129   2.680   3.886  10.535 -0.5179 -0.9712 -0.3300
  456MOL0     H60130   2.574   3.899  10.400 -1.1083 -0.4627  1.2543
  456MOL0     H60131   2.618   4.125  10.598  0.9216 -2.0760  1.2556
  456MOL0     H60132   2.484   4.003  10.611  1.2843 -0.9599  0.1829
  456MOL0     H60133   2.405   4.058  10.380 -0.7703  0.2123  0.2845
  456MOL0     H60134   2.510   4.185  10.366  1.3390 -1.6415 -1.3187
  456MOL0     H60135   2.306   4.153  10.585 -0.0582 -1.3288 -2.2319
  456MOL0     H60136   2.443   4.279  10.582  2.7975 -3.0676  0.2759
  456MOL0     H60137   2.219   4.249  10.377  0.4667 -1.1777  1.7923
  456MOL0     H60138   2.340   4.379  10.379 -2.3204  0.0278 -1.8449
  456MOL0     H60139   2.217   4.452  10.605  3.1708  1.8853 -1.9634
  456MOL0     H60140   2.113   4.312  10.575 -0.3085  2.2821  3.4027
  456MOL0     H60141   2.145   4.563  10.397  2.2534 -1.1472  2.6571
  456MOL0     H60142   2.058   4.418  10.347  2.2236 -0.4706 -0.4744
  456MOL0     H60143   1.890   4.587  10.482  0.2304  1.5601  2.9183
  456MOL0     H60144   2.006   4.565  10.615  0.8568  0.5738 -0.2988
  456MOL0     H60145   1.837   4.285  10.388 -2.2158 -1.3352 -0.0283
  456MOL0     H60146   1.597   4.115  10.620 -0.1865  1.5783  1.0561
  456MOL0     H60147   1.647   4.115  10.450 -2.2145 -1.0502  0.1339
  456MOL0     H60148   1.413   4.152  10.454  3.0154 -2.2649 -1.4002
  456MOL0     H60149   1.480   4.311  10.426  0.0170  0.0169  0.4024
  456MOL0     H60150   1.437   4.380  10.652 -2.6137  0.4194  1.3132
  456MOL0     H60151   1.290   4.327  10.578 -1.1303  0.1870  1.2798
  456MOL0     H60152   1.305   4.228  10.812  2.1811  2.4412  1.6512
  456MOL0     H60153   1.465   4.177  10.786 -1.5999  0.4425  1.9727
  456MOL0     H60154   1.103   4.222  10.770 -0.0713  0.6106 -0.7597
  456MOL0     H60155   0.874   4.141  10.783 -0.9653 -1.4104  0.7902
  456MOL0     H60156   0.478   3.976  10.537  1.3404 -0.0363 -0.2130
  456MOL0     H60157   0.263   3.935  10.594 -0.8163  0.4176  0.6444
  456MOL0     H60158   0.070   3.848  10.679 -1.4777 -1.3965  0.0193
  456MOL0     H60159   0.016   3.979  10.786 -1.1257 -0.4371 -0.3572
  456MOL0     H60160  -0.048   3.686  10.853  0.2609 -0.6852 -1.1081
  456MOL0     H60161  -0.153   3.808  10.778  1.2361 -2.3846  0.1098
  456MOL0     H60162  -0.096   3.942  10.997  2.2274 -1.0797  0.6511
  456MOL0     H60163  -0.019   3.800  11.061  0.0798 -2.4308  1.2634
  456MOL0     H60164  -0.307   3.819  10.988  1.9865  1.9891 -1.5925
  456MOL0     H60165  -0.227   3.672  11.035 -1.3109  0.5009 -2.8112
  456MOL0     H60166  -0.186   3.889  11.231 -0.7939 -0.0641  2.3735
  456MOL0     H60167  -0.164   3.719  11.235  0.4963  0.6198  0.8198
  456MOL0     H60168  -0.356   3.755  11.372 -0.4231 -0.9093  0.2991
  456MOL0     H60169  -0.413   3.664  11.231  1.2206 -0.2576  0.5797
  456MOL0     H60170  -0.499   3.929  11.322 -2.7293  0.8047 -1.7201
  456MOL0     H60171  -0.449   3.926  11.154  0.2841 -0.4693  0.1583
  456MOL0     H60172  -0.692   3.903  11.224 -0.5237  0.5301  1.2570
  456MOL0     H60173  -0.651   3.745  11.286 -2.0584 -0.8474 -1.8299
  456MOL0     H60174   0.379   3.879  11.011  2.1270  0.1220  1.0450
  456MOL0     H60175   0.611   3.951  10.952  0.5906  0.9837  0.1777
  456MOL0     H60176   1.000   3.792  10.553  1.5152  1.9382 -4.8088
  456MOL0     H60177   1.231   3.869  10.552 -0.2138 -1.8045  0.3935
  456MOL0     H60178   2.824   4.071  10.650 -0.9960 -0.5981  0.0566
  456MOL0     H60179   3.055   4.130  10.690 -0.8583  0.9620  1.2488
  456MOL0     H60180   3.551   4.302  10.292 -0.0012 -0.7473  0.5592
  456MOL0     H60181   3.746   4.468  10.367  2.0427 -1.5080  1.6071
  456MOL0     H60182   3.732   4.704  10.685 -2.6620  4.3895 -1.7408
  456MOL0     H60183   3.690   4.714  10.519 -0.9899 -1.6458  1.0116
  456MOL0     H60184   3.952   4.739  10.468 -0.5825  0.3925 -1.6085
  456MOL0     H60185   3.880   4.879  10.552  0.0464  0.3919  0.4797
  456MOL0     H60186   4.016   4.637  10.691  0.8404  0.5306  0.9165
  456MOL0     H60187   3.955   4.787  10.764  0.2471  1.7646 -1.0387
  456MOL0     H60188   4.193   4.765  10.729  1.1862  0.0255 -1.6226
  456MOL0     H60189   4.171   4.761  10.550 -0.2115 -1.6725 -0.0542
  456MOL0     H60190   4.142   5.175  10.644  0.9452 -0.3537 -0.6784
  456MOL0     H60191   3.608   4.458  10.757  0.6024  0.0569  0.3041
  456MOL0     H60192   3.369   4.367  10.678 -1.2194  1.6128 -0.6050
  457MOL0     O60193   0.311   5.419   8.772  0.2711 -0.1204 -0.3799
  457MOL0     C60194   0.354   5.337   8.850  0.3145 -0.1314 -0.5889
  457MOL0     O60195   0.274   5.250   8.914  0.4242 -0.0298 -0.2549
  457MOL0     C60196   0.149   5.229   8.866 -0.2009 -0.0534  0.3793
  457MOL0     C60197   0.116   5.163   8.748 -0.2354  0.0913  0.5260
  457MOL0     C60198  -0.025   5.153   8.715 -0.0673  0.4983  0.6398
  457MOL0     C60199  -0.123   5.215   8.793  0.7898  0.5391  0.2540
  457MOL0     O60200  -0.261   5.197   8.771 -0.8107 -0.4209  0.1105
  457MOL0     C60201  -0.305   5.162   8.637  0.1291 -0.4276 -0.0644
  457MOL0     C60202  -0.456   5.182   8.616  0.1573 -0.1578  0.1678
  457MOL0     C60203  -0.547   5.072   8.674 -0.4405 -0.3280 -0.2010
  457MOL0     C60204  -0.699   5.074   8.639  0.7666 -1.3020 -0.3698
  457MOL0     C60205  -0.777   4.958   8.703  0.1819  0.1184 -0.0367
  457MOL0     C60206  -0.929   4.979   8.690 -0.1245 -0.3925  0.8377
  457MOL0     C60207  -1.017   4.880   8.762 -0.3022 -0.6036 -0.1708
  457MOL0     C60208  -0.976   4.737   8.777  0.9112  0.2092 -0.5799
  457MOL0     N60209  -1.100   4.664   8.817  1.0472 -0.0578  0.4462
  457MOL0     C60210  -1.152   4.658   8.947 -0.2667 -0.9655  0.1590
  457MOL0     C60211  -1.261   4.586   8.946 -0.0528 -0.3229  0.6797
  457MOL0     C60212  -1.357   4.538   9.054 -0.4448  0.0819 -0.4844
  457MOL0     C60213  -1.466   4.638   9.078  0.6495 -0.5455  0.3792
  457MOL0     C60214  -1.529   4.685   8.944 -0.1395  0.5520 -0.2742
  457MOL0     C60215  -1.660   4.773   8.954  0.0871 -0.1611  0.2899
  457MOL0     O60216  -1.724   4.782   8.826  0.4086 -0.3478  0.1417
  457MOL0     C60217  -1.827   4.870   8.819  1.1106 -0.4822 -0.2101
  457MOL0     C60218  -1.865   4.964   8.916  0.6694 -0.4720  0.5142
  457MOL0     C60219  -1.991   5.037   8.904 -0.3462  0.9496 -0.3657
  457MOL0     C60220  -2.081   5.015   8.796 -0.0391  0.2372 -0.0127
  457MOL0     C60221  -2.198   5.095   8.780 -0.0938 -0.2301  0.0903
  457MOL0     O60222  -2.304   5.033   8.720 -0.3300 -0.0842  0.2585
  457MOL0     C60223  -2.420   5.102   8.743  0.4794  0.7976  0.0729
  457MOL0     C60224  -2.470   5.124   8.871 -0.5487 -0.3889 -0.2676
  457MOL0     C60225  -2.587   5.204   8.890 -0.5649 -0.0509 -0.0752
  457MOL0     C60226  -2.661   5.243   8.779 -0.3913 -1.1150 -0.1893
  457MOL0     O60227  -2.786   5.309   8.788 -0.3557 -0.2629  0.2093
  457MOL0     C60228  -2.811   5.384   8.909  0.0254 -0.1117 -0.1385
  457MOL0     C60229  -2.942   5.464   8.890 -0.2347 -0.3620  0.5109
  457MOL0     C60230  -3.067   5.367   8.901 -0.5113 -0.0143  0.2208
  457MOL0     C60231  -3.188   5.455   8.860 -0.8002 -1.5432 -0.2268
  457MOL0     C60232  -3.304   5.355   8.833  0.1145  0.6082  0.2036
  457MOL0     C60233  -3.413   5.430   8.767 -0.0075 -0.1940  0.4122
  457MOL0     C60234  -3.542   5.342   8.769 -0.1580 -0.1281  0.2113
  457MOL0     C60235  -3.664   5.413   8.725  0.6250 -0.1125  0.3817
  457MOL0    Cl60236  -3.808   5.302   8.722 -0.2082  0.3113  0.0319
  457MOL0     C60237  -2.617   5.202   8.651 -0.0128 -0.5667 -0.5584
  457MOL0     C60238  -2.498   5.136   8.636 -0.2193 -0.0184  0.3019
  457MOL0     O60239  -2.195   5.206   8.823 -0.0690  0.0670 -0.8521
  457MOL0     C60240  -2.040   4.923   8.703 -0.7895  0.4171 -0.6481
  457MOL0     C60241  -1.921   4.848   8.715  0.4010  0.3223  0.1266
  457MOL0     N60242  -1.283   4.546   8.816 -0.1489  0.2936  0.6909
  457MOL0     N60243  -1.188   4.589   8.741 -0.4659  0.1765 -0.5735
  457MOL0     C60244  -0.080   5.280   8.909  0.6012 -0.6221 -0.1890
  457MOL0     C60245   0.055   5.296   8.944 -0.2853 -0.2134 -0.9081
  457MOL0     C60246   0.499   5.351   8.875 -1.3108  0.2716  0.1918
  457MOL0     C60247   0.589   5.392   8.772 -0.1725  0.8965  0.3261
  457MOL0     C60248   0.723   5.406   8.790  0.4481 -0.5338  0.0437
  457MOL0     C60249   0.786   5.391   8.914 -0.1009 -0.1898 -0.0886
  457MOL0     O60250   0.924   5.400   8.933  0.0401  0.5709 -0.6587
  457MOL0     C60251   0.989   5.516   8.883  0.3113  0.0556  0.6142
  457MOL0     C60252   0.978   5.632   8.992  0.4246 -1.2283  0.6090
  457MOL0     C60253   1.049   5.761   8.944  0.8871  0.0102 -0.4045
  457MOL0     C60254   1.011   5.875   9.049  0.2906 -0.2513 -0.0952
  457MOL0     C60255   1.135   5.947   9.095  0.7542 -0.7511 -0.5513
  457MOL0     C60256   1.235   6.016   9.118 -0.1184  0.4266  0.1723
  457MOL0     C60257   0.701   5.344   9.018 -0.0887 -0.8335 -0.1156
  457MOL0     C60258   0.559   5.319   9.003 -0.5374 -0.6003  0.2445
  457MOL0     H60259   0.189   5.099   8.700 -1.6843 -5.6126  4.7905
  457MOL0     H60260  -0.061   5.104   8.626 -1.0295  1.4691  0.4782
  457MOL0     H60261  -0.291   5.055   8.623 -2.2688 -0.9914  1.3683
  457MOL0     H60262  -0.247   5.214   8.561 -1.0659  1.7709  0.4473
  457MOL0     H60263  -0.479   5.189   8.509  0.2835 -0.9554  0.0838
  457MOL0     H60264  -0.486   5.278   8.661 -1.3906  0.1588 -1.4401
  457MOL0     H60265  -0.532   5.083   8.782  1.1183 -0.9838 -0.3178
  457MOL0     H60266  -0.509   4.974   8.646 -0.7616 -0.3552 -0.5480
  457MOL0     H60267  -0.730   5.168   8.687  0.2630 -1.4913 -0.3177
  457MOL0     H60268  -0.713   5.075   8.531 -1.7994  2.4685 -0.2057
  457MOL0     H60269  -0.754   4.968   8.810 -2.6879  1.4881  0.5571
  457MOL0     H60270  -0.740   4.861   8.670 -1.6167  0.4289 -3.2883
  457MOL0     H60271  -0.950   4.986   8.583 -0.8662  3.4874  1.0972
  457MOL0     H60272  -0.954   5.080   8.725 -0.0336 -0.0038 -0.1720
  457MOL0     H60273  -1.026   4.926   8.860  2.4909  0.6047 -0.3837
  457MOL0     H60274  -1.118   4.887   8.721 -1.1360  2.2092  2.0271
  457MOL0     H60275  -0.900   4.730   8.855  1.8799 -0.6283 -1.5785
  457MOL0     H60276  -0.931   4.702   8.684  0.0845 -2.1661 -0.1543
  457MOL0     H60277  -1.121   4.710   9.037 -0.7530  1.1622 -0.8353
  457MOL0     H60278  -1.286   4.525   9.135 -0.3685 -1.9105 -0.8214
  457MOL0     H60279  -1.404   4.444   9.023  1.4721 -1.2751  0.5086
  457MOL0     H60280  -1.421   4.728   9.121  0.4699 -0.0483 -0.4571
  457MOL0     H60281  -1.538   4.610   9.156 -2.7341 -0.1030 -2.3231
  457MOL0     H60282  -1.457   4.743   8.885  0.4484 -1.3060 -1.4446
  457MOL0     H60283  -1.554   4.596   8.886  0.5231  0.4217 -0.3623
  457MOL0     H60284  -1.615   4.869   8.982  1.5683 -0.9486  0.7625
  457MOL0     H60285  -1.730   4.735   9.029 -0.6044 -2.7424 -1.5379
  457MOL0     H60286  -1.801   4.996   8.998 -0.5307  3.2213  0.1855
  457MOL0     H60287  -2.008   5.099   8.991  2.8734 -0.2535  1.2822
  457MOL0     H60288  -2.425   5.094   8.965  0.2235 -0.1676 -0.5552
  457MOL0     H60289  -2.615   5.227   8.992  1.3039  0.6912  0.3140
  457MOL0     H60290  -2.734   5.459   8.924 -1.1181  1.0886 -0.0608
  457MOL0     H60291  -2.814   5.320   8.998  0.7517 -1.8025 -1.2645
  457MOL0     H60292  -2.948   5.522   8.797 -0.9572 -1.5728 -0.2273
  457MOL0     H60293  -2.952   5.535   8.972  0.8692  0.8283 -0.3525
  457MOL0     H60294  -3.078   5.319   8.999 -1.9049 -1.5160 -0.6274
  457MOL0     H60295  -3.053   5.285   8.830 -0.1186 -1.5162  1.9413
  457MOL0     H60296  -3.228   5.521   8.938 -0.5568 -1.0359 -0.5337
  457MOL0     H60297  -3.159   5.515   8.774 -0.1849 -0.2804  0.8167
  457MOL0     H60298  -3.323   5.315   8.933  0.2374 -0.2305 -0.1019
  457MOL0     H60299  -3.277   5.270   8.770 -1.2469 -1.8235  2.6877
  457MOL0     H60300  -3.375   5.465   8.671  0.6053  0.3819  0.8529
  457MOL0     H60301  -3.431   5.516   8.833  1.6429 -0.7129  1.6081
  457MOL0     H60302  -3.518   5.253   8.709 -4.5082 -1.5129  0.1704
  457MOL0     H60303  -3.563   5.308   8.871 -1.2448  1.0585  0.4096
  457MOL0     H60304  -3.649   5.438   8.620 -2.0935 -3.0705 -0.8700
  457MOL0     H60305  -3.681   5.499   8.790  0.3854  0.5531 -0.5602
  457MOL0     H60306  -2.679   5.229   8.566  0.2139 -1.7119 -1.1110
  457MOL0     H60307  -2.455   5.101   8.542 -1.5080 -2.4072  0.5130
  457MOL0     H60308  -2.105   4.893   8.621  0.3873 -0.1903 -1.3956
  457MOL0     H60309  -1.885   4.771   8.648  1.4167  0.6886  0.2396
  457MOL0     H60310  -0.158   5.337   8.958 -0.0443 -0.7157 -1.0731
  457MOL0     H60311   0.082   5.353   9.032  1.9939 -0.7665 -1.2082
  457MOL0     H60312   0.553   5.403   8.670 -1.9390  0.9913  0.9322
  457MOL0     H60313   0.767   5.448   8.701 -0.5060  0.2113 -0.0915
  457MOL0     H60314   0.951   5.543   8.784  2.8207  2.0672  0.0747
  457MOL0     H60315   1.093   5.482   8.873  0.3073 -0.8028  2.9508
  457MOL0     H60316   0.871   5.656   8.995  0.8079  0.6874  0.3349
  457MOL0     H60317   1.008   5.611   9.095 -2.1896  1.3513  2.0519
  457MOL0     H60318   1.010   5.791   8.846  0.7605  0.5579 -0.1905
  457MOL0     H60319   1.158   5.748   8.942  0.9296  0.1914  0.4943
  457MOL0     H60320   0.935   5.938   9.002 -1.4626 -1.8385  0.5242
  457MOL0     H60321   0.973   5.826   9.139  2.1491 -1.5111  0.0596
  457MOL0     H60322   1.321   6.079   9.132  0.5782  0.2408 -2.5260
  457MOL0     H60323   0.748   5.314   9.111 -0.9089 -1.6287  0.0521
  457MOL0     H60324   0.504   5.278   9.088  2.1498 -1.0845  1.8430
  458MOL0     O60325   2.165   2.673   0.966 -0.4660 -0.1534  0.1036
  458MOL0     C60326   2.266   2.628   0.904  1.2403 -0.0677  0.0982
  458MOL0     O60327   2.272   2.499   0.851 -0.3099  0.1644  0.2541
  458MOL0     C60328   2.181   2.414   0.897 -0.0760 -0.5864 -0.5348
  458MOL0     C60329   2.052   2.396   0.838  0.3696  0.0910 -0.7092
  458MOL0     C60330   1.956   2.307   0.906  0.2680  0.1770  0.5835
  458MOL0     C60331   1.982   2.241   1.030  0.4120  0.5354  0.5786
  458MOL0     O60332   1.903   2.163   1.107 -0.4839  0.5502  0.9540
  458MOL0     C60333   1.760   2.182   1.080  0.8686  0.3516 -0.3365
  458MOL0     C60334   1.681   2.098   1.176 -0.2195 -0.2856 -0.2304
  458MOL0     C60335   1.713   2.137   1.324 -0.3129  0.3761 -0.9110
  458MOL0     C60336   1.633   2.048   1.423  0.6363  0.9289  0.3393
  458MOL0     C60337   1.485   2.073   1.403  0.5067 -0.4930 -0.3675
  458MOL0     C60338   1.408   2.033   1.528  0.0680 -0.0134 -0.3478
  458MOL0     C60339   1.257   2.035   1.505  0.2857  0.5629 -0.8137
  458MOL0     C60340   1.183   2.027   1.637  0.7974  0.1415 -0.3141
  458MOL0     N60341   1.035   2.023   1.618 -0.6570  0.0156 -0.2051
  458MOL0     C60342   0.958   2.075   1.517  0.0990 -0.2078  0.4638
  458MOL0     C60343   0.829   2.066   1.555  0.0200  0.3666  0.1951
  458MOL0     C60344   0.703   2.113   1.486  0.4687 -0.4078  0.5172
  458MOL0     C60345   0.580   2.040   1.520 -0.4186  0.5250  0.0368
  458MOL0     C60346   0.450   2.092   1.455  0.0776 -0.0818 -0.3394
  458MOL0     C60347   0.314   2.031   1.490  0.6578  0.3138  0.0922
  458MOL0     O60348   0.198   2.104   1.427 -0.4277  0.0471  0.3434
  458MOL0     C60349   0.073   2.043   1.444 -0.6665  0.4982  0.4568
  458MOL0     C60350  -0.031   2.129   1.397 -0.1789  0.6752 -0.5863
  458MOL0     C60351  -0.162   2.073   1.379 -0.0665 -0.8645  0.4881
  458MOL0     C60352  -0.192   1.938   1.414 -0.2703  0.1542 -0.5245
  458MOL0     C60353  -0.324   1.882   1.389 -0.4459  1.4579 -0.0245
  458MOL0     O60354  -0.394   1.934   1.283  0.7539  0.6441 -0.0582
  458MOL0     C60355  -0.527   1.896   1.262 -0.1311  1.0525  1.1634
  458MOL0     C60356  -0.568   1.756   1.265  0.1196  0.3778  0.5954
  458MOL0     C60357  -0.690   1.715   1.212 -0.5265  0.6183  0.3711
  458MOL0     C60358  -0.781   1.803   1.151 -0.5252 -0.3359  0.2635
  458MOL0     O60359  -0.906   1.763   1.105 -0.8613 -0.1236  1.2559
  458MOL0     C60360  -0.959   1.829   0.988  1.2304  0.2938 -0.4405
  458MOL0     C60361  -1.035   1.720   0.910  0.4533  0.3740  0.5506
  458MOL0     C60362  -1.103   1.772   0.783  0.1487  0.6348  0.1492
  458MOL0     C60363  -1.195   1.668   0.718 -0.9018 -1.1367  0.2135
  458MOL0     C60364  -1.316   1.626   0.804 -0.8677  0.2390  0.3119
  458MOL0     C60365  -1.402   1.750   0.844 -0.1441  0.6449  0.3606
  458MOL0     C60366  -1.548   1.736   0.886 -0.1667 -0.5494  0.3834
  458MOL0     C60367  -1.654   1.740   0.779 -0.8883 -0.0661  0.7928
  458MOL0    Cl60368  -1.803   1.682   0.844  0.7306 -0.0662  0.2181
  458MOL0     C60369  -0.745   1.937   1.156 -0.1970 -0.8925  0.2309
  458MOL0     C60370  -0.625   1.978   1.208 -0.1094  0.2625  0.5454
  458MOL0     O60371  -0.370   1.800   1.468 -0.0288 -0.9173  0.1802
  458MOL0     C60372  -0.089   1.853   1.455 -0.4993 -1.1759  0.7668
  458MOL0     C60373   0.040   1.906   1.479 -0.1965  0.6730 -0.1030
  458MOL0     N60374   0.829   2.010   1.680  0.1253  0.0523  0.1039
  458MOL0     N60375   0.953   1.983   1.713 -0.4731 -0.4881 -0.2850
  458MOL0     C60376   2.114   2.264   1.078 -0.7959  0.1495  0.0209
  458MOL0     C60377   2.211   2.340   1.007 -0.7134  0.1643 -0.0582
  458MOL0     C60378   2.380   2.711   0.888 -0.0758 -0.3549 -0.7221
  458MOL0     C60379   2.491   2.677   0.805 -0.5155  0.3306 -0.6077
  458MOL0     C60380   2.607   2.760   0.806 -0.1417 -0.3774  0.7011
  458MOL0     C60381   2.599   2.894   0.849 -0.6019  0.2155 -0.2921
  458MOL0     O60382   2.706   2.977   0.832 -0.4054  0.0556  0.8216
  458MOL0     C60383   2.700   3.110   0.889  0.2519  0.0310  0.1309
  458MOL0     C60384   2.809   3.191   0.821  0.2569 -0.1565  0.1437
  458MOL0     C60385   2.948   3.206   0.888  1.0248 -0.8680  0.0482
  458MOL0     C60386   3.055   3.262   0.805  0.2650 -0.5147 -0.0723
  458MOL0     C60387   3.046   3.406   0.790 -0.1514  0.1450 -0.2766
  458MOL0     C60388   3.044   3.521   0.764 -0.7587 -0.1626  0.2062
  458MOL0     C60389   2.485   2.940   0.916 -0.0372  0.5764 -0.2206
  458MOL0     C60390   2.383   2.847   0.952  0.2563  0.4710  0.7900
  458MOL0     H60391   2.021   2.459   0.756 -1.1614 -2.0738 -1.9072
  458MOL0     H60392   1.857   2.296   0.863  0.8411  1.4149 -1.1795
  458MOL0     H60393   1.729   2.153   0.979  0.3182  1.9508 -0.6552
  458MOL0     H60394   1.745   2.290   1.094  1.7512  0.5296 -0.6762
  458MOL0     H60395   1.711   1.994   1.161 -1.1842 -0.3370 -2.1805
  458MOL0     H60396   1.575   2.096   1.150 -0.7120  2.1194  1.2140
  458MOL0     H60397   1.686   2.239   1.351 -0.8954 -0.4209  1.9273
  458MOL0     H60398   1.819   2.127   1.347 -0.0625  1.5460 -1.4669
  458MOL0     H60399   1.660   1.944   1.405  0.4632  1.0729 -0.7891
  458MOL0     H60400   1.664   2.071   1.525  0.4801 -0.6677  0.7827
  458MOL0     H60401   1.447   2.002   1.329 -1.0191  0.5526 -0.6415
  458MOL0     H60402   1.466   2.175   1.369 -2.9084 -1.9378 -3.5187
  458MOL0     H60403   1.442   2.093   1.612 -0.7074  0.3413 -0.2775
  458MOL0     H60404   1.432   1.927   1.540 -0.6429 -0.2861 -1.2524
  458MOL0     H60405   1.235   2.131   1.457  0.1233  0.0581 -1.7784
  458MOL0     H60406   1.237   1.953   1.435 -0.3462  0.7740 -0.8844
  458MOL0     H60407   1.197   2.115   1.701 -4.0538 -0.1409  1.5267
  458MOL0     H60408   1.221   1.945   1.699 -0.5977  0.2210  0.6962
  458MOL0     H60409   0.989   2.127   1.427 -1.2937 -1.4801 -0.7835
  458MOL0     H60410   0.716   2.104   1.378  1.2604  1.4985  0.4177
  458MOL0     H60411   0.676   2.218   1.504 -0.7087 -0.6965  0.5433
  458MOL0     H60412   0.561   2.030   1.628 -2.9401  1.0967 -0.2807
  458MOL0     H60413   0.591   1.938   1.484 -0.4656  0.4645  0.1905
  458MOL0     H60414   0.445   2.197   1.486 -0.2659 -0.4417  0.8535
  458MOL0     H60415   0.469   2.086   1.347  0.1332  0.0667 -0.3384
  458MOL0     H60416   0.289   2.028   1.597 -2.1467  2.9079 -0.3375
  458MOL0     H60417   0.308   1.927   1.457 -1.5248  1.2824 -2.9756
  458MOL0     H60418  -0.001   2.231   1.379  2.2250 -0.0384 -1.0294
  458MOL0     H60419  -0.234   2.140   1.333 -1.8233 -2.1288  1.2569
  458MOL0     H60420  -0.499   1.686   1.313  0.7045  0.4982 -0.0477
  458MOL0     H60421  -0.718   1.611   1.220  0.0734  0.4799  0.7126
  458MOL0     H60422  -0.881   1.878   0.929  1.0044  2.5283  1.0063
  458MOL0     H60423  -1.029   1.909   1.011  0.2594 -0.4699 -0.6418
  458MOL0     H60424  -1.112   1.678   0.976 -0.9618 -0.8135 -1.7482
  458MOL0     H60425  -0.968   1.642   0.873 -1.6872 -2.4816  2.2346
  458MOL0     H60426  -1.026   1.808   0.715  0.2413  0.9445  0.4114
  458MOL0     H60427  -1.164   1.861   0.803 -0.1159  0.0602  2.2043
  458MOL0     H60428  -1.239   1.704   0.624  1.8202 -0.6099 -0.9407
  458MOL0     H60429  -1.138   1.583   0.680  2.2401  0.8183  0.2324
  458MOL0     H60430  -1.296   1.568   0.895 -0.1404  0.5256  0.3442
  458MOL0     H60431  -1.385   1.573   0.737 -2.7874  3.5389 -0.5442
  458MOL0     H60432  -1.390   1.818   0.760  1.0008 -1.0497 -0.9247
  458MOL0     H60433  -1.362   1.804   0.931 -1.6305  2.6753 -0.1669
  458MOL0     H60434  -1.561   1.635   0.927 -1.9124 -0.4824  0.0991
  458MOL0     H60435  -1.571   1.814   0.959  0.2362 -0.8795  0.8675
  458MOL0     H60436  -1.633   1.680   0.689 -2.6078  1.6317 -0.8355
  458MOL0     H60437  -1.667   1.841   0.740 -2.2116 -1.1064 -1.7455
  458MOL0     H60438  -0.807   2.017   1.119 -2.8778 -2.1518  1.7590
  458MOL0     H60439  -0.597   2.083   1.213 -1.3301  0.6686 -0.4487
  458MOL0     H60440  -0.108   1.746   1.467 -0.6107 -1.3990 -1.0019
  458MOL0     H60441   0.108   1.832   1.521  1.0280  1.9947  0.3283
  458MOL0     H60442   2.147   2.212   1.167 -0.3960  0.8223  0.2743
  458MOL0     H60443   2.311   2.335   1.048  0.5253 -1.2245 -3.0131
  458MOL0     H60444   2.500   2.581   0.754 -0.9683  0.3251 -0.6821
  458MOL0     H60445   2.698   2.727   0.757 -0.4561 -2.5627  1.4884
  458MOL0     H60446   2.718   3.108   0.997  1.0209 -2.4231  0.0264
  458MOL0     H60447   2.615   3.171   0.857 -0.2027 -0.8994 -0.4970
  458MOL0     H60448   2.816   3.138   0.725  1.5179  0.4254 -0.1042
  458MOL0     H60449   2.773   3.292   0.800 -0.2030 -0.5756 -1.2248
  458MOL0     H60450   2.968   3.115   0.945 -1.7002 -0.4793  1.8220
  458MOL0     H60451   2.925   3.281   0.965  1.4408  0.5679 -1.1760
  458MOL0     H60452   3.158   3.243   0.837  1.3067  1.8836 -1.6911
  458MOL0     H60453   3.045   3.216   0.706  1.7059 -5.8419  1.8894
  458MOL0     H60454   3.053   3.625   0.740 -1.1379 -0.4062 -1.0969
  458MOL0     H60455   2.480   3.045   0.942  2.2279  0.9111 -0.9489
  458MOL0     H60456   2.296   2.888   1.002  1.4817  2.8594  1.0955
  459MOL0     O60457   0.573   5.250   4.889 -0.3234  0.5168  0.4656
  459MOL0     C60458   0.689   5.223   4.905 -0.3033 -0.0951 -0.4478
  459MOL0     O60459   0.740   5.101   4.894  0.0952  0.3179 -0.0298
  459MOL0     C60460   0.650   5.002   4.871 -0.8088  0.3849  0.2573
  459MOL0     C60461   0.582   4.988   4.747 -0.5568 -1.0775 -0.3756
  459MOL0     C60462   0.500   4.878   4.716 -0.0233  0.2234 -0.4337
  459MOL0     C60463   0.503   4.771   4.799  0.7020 -0.1918 -0.0496
  459MOL0     O60464   0.426   4.668   4.746 -0.4775 -0.0648 -0.5557
  459MOL0     C60465   0.474   4.536   4.788  0.4566  0.4562  0.1141
  459MOL0     C60466   0.405   4.442   4.688  0.0311 -0.7013 -0.2941
  459MOL0     C60467   0.256   4.419   4.719 -0.1797 -0.1798  0.2244
  459MOL0     C60468   0.202   4.318   4.618 -0.4212 -0.5723 -0.0317
  459MOL0     C60469   0.047   4.312   4.640  0.0563  0.5717 -0.0813
  459MOL0     C60470  -0.002   4.197   4.558  0.5363  0.4324 -0.4272
  459MOL0     C60471  -0.153   4.177   4.595 -0.3262  0.7065 -0.2639
  459MOL0     C60472  -0.196   4.064   4.498 -0.5016 -0.2835 -0.7212
  459MOL0     N60473  -0.334   4.015   4.536 -1.2778  0.9035  0.9308
  459MOL0     C60474  -0.370   3.880   4.525  0.3203  0.3073  0.1542
  459MOL0     C60475  -0.503   3.885   4.510  1.0835  0.2818  0.6132
  459MOL0     C60476  -0.591   3.763   4.521  0.9010  0.5747  0.1452
  459MOL0     C60477  -0.740   3.792   4.541  0.8875 -0.9637  0.7086
  459MOL0     C60478  -0.816   3.665   4.579 -0.9204 -0.4873 -0.1511
  459MOL0     C60479  -0.968   3.686   4.592  0.5101  0.3385 -0.4547
  459MOL0     O60480  -1.010   3.764   4.476  0.4773 -0.0146 -0.1202
  459MOL0     C60481  -1.149   3.802   4.471  0.1686 -0.2184 -0.5721
  459MOL0     C60482  -1.239   3.756   4.376 -0.1918  0.1094 -0.2986
  459MOL0     C60483  -1.378   3.776   4.383 -0.1938 -0.2263  0.6569
  459MOL0     C60484  -1.421   3.852   4.491 -0.5128  0.4998 -1.0092
  459MOL0     C60485  -1.571   3.876   4.500  0.5848 -0.4093 -0.4914
  459MOL0     O60486  -1.646   3.810   4.412  0.4554 -0.4986 -0.0900
  459MOL0     C60487  -1.781   3.821   4.392 -0.5180  0.1189  0.5733
  459MOL0     C60488  -1.828   3.826   4.261 -0.1578 -0.0816  0.1099
  459MOL0     C60489  -1.969   3.850   4.234  0.0516  0.2008 -0.0840
  459MOL0     C60490  -2.054   3.873   4.339 -0.2018  0.4934 -0.1235
  459MOL0     O60491  -2.185   3.922   4.328 -0.2181  0.3542 -0.3086
  459MOL0     C60492  -2.235   3.977   4.212 -0.9744  0.0229 -0.3804
  459MOL0     C60493  -2.385   4.000   4.217 -0.5448 -0.8426  0.4475
  459MOL0     C60494  -2.470   3.879   4.240  0.1528  0.2755 -0.4823
  459MOL0     C60495  -2.605   3.916   4.299  0.2386 -0.0145  0.3637
  459MOL0     C60496  -2.706   3.803   4.302 -0.2976  0.2213 -0.6423
  459MOL0     C60497  -2.849   3.841   4.358 -0.4416  0.6361 -0.3915
  459MOL0     C60498  -2.960   3.755   4.299 -0.4383  0.0514 -0.0660
  459MOL0     C60499  -3.089   3.766   4.380  0.0704 -0.6620  0.1091
  459MOL0    Cl60500  -3.101   3.646   4.500  0.0778 -0.1533 -0.6569
  459MOL0     C60501  -2.008   3.860   4.472 -0.2083  0.2631 -0.5061
  459MOL0     C60502  -1.872   3.839   4.498  0.6826 -0.5394  0.1576
  459MOL0     O60503  -1.614   3.947   4.593  0.2640  0.6010  0.4707
  459MOL0     C60504  -1.337   3.902   4.590  0.3562 -0.4059 -0.1611
  459MOL0     C60505  -1.200   3.872   4.579 -0.1513 -0.4460 -0.2984
  459MOL0     N60506  -0.549   4.015   4.524 -0.5935 -0.2486 -0.6303
  459MOL0     N60507  -0.443   4.098   4.527  1.0004  0.5417  0.0484
  459MOL0     C60508   0.560   4.785   4.921  0.0342 -0.6136 -0.0343
  459MOL0     C60509   0.637   4.896   4.957  0.1071 -0.1990  0.2826
  459MOL0     C60510   0.768   5.336   4.955  0.7105 -1.1815 -0.3397
  459MOL0     C60511   0.707   5.459   4.995  0.2982 -0.2292 -0.7979
  459MOL0     C60512   0.788   5.561   5.050  0.8394 -0.1876 -0.2834
  459MOL0     C60513   0.929   5.546   5.054  0.6741  0.1635 -0.4750
  459MOL0     O60514   1.021   5.636   5.107  0.4907  0.3577 -0.4921
  459MOL0     C60515   0.961   5.750   5.176 -0.0258  1.1631  0.9904
  459MOL0     C60516   0.913   5.718   5.319  0.6347  0.4458 -0.1015
  459MOL0     C60517   1.031   5.690   5.408 -0.7854  1.2608  0.3931
  459MOL0     C60518   1.005   5.659   5.558 -0.2029 -0.6114  0.0391
  459MOL0     C60519   0.989   5.790   5.633  0.3146  0.5830 -0.0874
  459MOL0     C60520   0.979   5.897   5.684  0.3117 -1.2688 -0.5020
  459MOL0     C60521   0.982   5.427   5.006 -0.2913  0.5371 -0.3560
  459MOL0     C60522   0.908   5.320   4.958  0.8957  0.4228  0.6569
  459MOL0     H60523   0.576   5.081   4.690 -3.4935  0.2542  1.8074
  459MOL0     H60524   0.441   4.872   4.625 -1.0415 -0.7932  0.2694
  459MOL0     H60525   0.449   4.498   4.888  2.3959  0.8293  0.7767
  459MOL0     H60526   0.583   4.544   4.787  0.6305 -1.2976  1.4101
  459MOL0     H60527   0.461   4.349   4.704  1.5761  0.1867 -0.2892
  459MOL0     H60528   0.423   4.481   4.588 -0.5079  0.6429  0.1141
  459MOL0     H60529   0.201   4.512   4.702  0.4534  0.1630  0.0096
  459MOL0     H60530   0.229   4.395   4.822  0.7715  0.6490  0.6884
  459MOL0     H60531   0.228   4.359   4.520 -0.8929 -1.1294 -0.3915
  459MOL0     H60532   0.253   4.222   4.629  0.9031  0.3113  2.4218
  459MOL0     H60533   0.000   4.409   4.620  0.5644  0.6840 -0.7440
  459MOL0     H60534   0.032   4.296   4.747  3.9280 -0.5142  0.4566
  459MOL0     H60535   0.061   4.111   4.581  0.2759  0.8008  1.9909
  459MOL0     H60536   0.009   4.222   4.452  0.9874 -1.9259 -0.9811
  459MOL0     H60537  -0.169   4.137   4.695 -0.9409 -0.5759 -0.8429
  459MOL0     H60538  -0.208   4.271   4.593 -0.5517  0.7012  2.4462
  459MOL0     H60539  -0.122   3.984   4.496  0.8312  0.8854  0.4334
  459MOL0     H60540  -0.198   4.107   4.397 -1.3018  2.8301  0.5327
  459MOL0     H60541  -0.320   3.784   4.528 -0.6944 -0.2201  0.7518
  459MOL0     H60542  -0.568   3.701   4.608 -1.8719 -0.6728  0.1112
  459MOL0     H60543  -0.576   3.690   4.441  0.4018 -1.2679  1.6577
  459MOL0     H60544  -0.772   3.843   4.449 -1.2970 -0.4237  1.7058
  459MOL0     H60545  -0.762   3.875   4.607  3.7101  0.6356 -0.2147
  459MOL0     H60546  -0.796   3.586   4.506 -0.3172  0.6874 -1.3076
  459MOL0     H60547  -0.769   3.639   4.674  0.7723  2.0140 -0.1889
  459MOL0     H60548  -0.987   3.734   4.688 -2.0289 -1.9012  0.2791
  459MOL0     H60549  -1.017   3.588   4.591 -1.9899  1.4881 -2.2000
  459MOL0     H60550  -1.199   3.699   4.293  0.3151  0.1394 -0.0735
  459MOL0     H60551  -1.451   3.734   4.313 -0.4555 -0.4926  1.0804
  459MOL0     H60552  -1.763   3.797   4.178  2.7643  1.9826  1.4818
  459MOL0     H60553  -1.986   3.852   4.127  1.2057  0.3933 -0.2862
  459MOL0     H60554  -2.210   3.917   4.124 -0.2679  1.3560 -1.1137
  459MOL0     H60555  -2.185   4.072   4.191 -0.1010 -0.0931  1.0673
  459MOL0     H60556  -2.426   4.050   4.130 -0.0119 -1.5741 -0.2394
  459MOL0     H60557  -2.392   4.077   4.294  0.1593  2.4121 -2.5059
  459MOL0     H60558  -2.423   3.808   4.308  2.1402  1.0622 -0.9647
  459MOL0     H60559  -2.487   3.830   4.144  0.0556  0.9242 -0.8041
  459MOL0     H60560  -2.580   3.952   4.400 -0.2370  3.0368 -0.4997
  459MOL0     H60561  -2.657   4.002   4.255  1.3805 -0.5082 -2.0644
  459MOL0     H60562  -2.659   3.730   4.369 -0.4389 -1.3406 -2.1742
  459MOL0     H60563  -2.709   3.741   4.212 -1.6250 -0.5615 -0.0888
  459MOL0     H60564  -2.878   3.938   4.317  2.5934  1.6562 -0.4300
  459MOL0     H60565  -2.859   3.842   4.467  0.9990  1.3897 -0.2422
  459MOL0     H60566  -2.972   3.797   4.199 -0.3397 -1.2377 -0.6343
  459MOL0     H60567  -2.938   3.648   4.300  1.9309  0.4835 -0.3265
  459MOL0     H60568  -3.168   3.752   4.305  0.8267 -0.0216 -0.8379
  459MOL0     H60569  -3.103   3.866   4.422  0.4195  0.4185 -2.1827
  459MOL0     H60570  -2.071   3.888   4.556  0.4996  2.4487 -0.6515
  459MOL0     H60571  -1.842   3.844   4.602  1.9293 -2.1615 -0.0795
  459MOL0     H60572  -1.374   3.974   4.662 -1.4012 -0.3831 -1.0497
  459MOL0     H60573  -1.136   3.915   4.655 -2.2345  2.3845  0.0223
  459MOL0     H60574   0.545   4.699   4.986  0.0934 -0.5212  0.1021
  459MOL0     H60575   0.681   4.921   5.053  1.9928  2.3928 -1.1342
  459MOL0     H60576   0.601   5.474   4.974  0.0913 -0.4392  0.0614
  459MOL0     H60577   0.741   5.656   5.077  1.2076  0.2251 -1.0702
  459MOL0     H60578   0.879   5.796   5.120 -0.6760  1.3474  2.0644
  459MOL0     H60579   1.038   5.827   5.186  1.3320 -0.0464  0.1946
  459MOL0     H60580   0.859   5.801   5.367  1.5433  0.7846  0.3494
  459MOL0     H60581   0.845   5.632   5.315  0.0977  0.7071  1.9390
  459MOL0     H60582   1.108   5.768   5.405 -0.0763  0.5696  0.3153
  459MOL0     H60583   1.082   5.604   5.365 -2.4655  0.6000 -0.3820
  459MOL0     H60584   0.923   5.589   5.575  0.4472 -1.2366  0.6801
  459MOL0     H60585   1.096   5.616   5.602 -0.3041  0.3910  1.3085
  459MOL0     H60586   0.960   5.995   5.724 -1.0746 -1.2046 -1.2579
  459MOL0     H60587   1.090   5.423   5.008 -0.3052 -2.1224 -1.0142
  459MOL0     H60588   0.950   5.225   4.927  3.3431  1.4036  0.7723
  460MOL0     O60589   4.751   0.412   2.370 -0.1264 -0.8486  0.4402
  460MOL0     C60590   4.847   0.434   2.444 -0.4235 -0.2907  0.1963
  460MOL0     O60591   4.837   0.482   2.570 -0.2740 -0.2546 -0.6984
  460MOL0     C60592   4.708   0.501   2.623  0.1317  0.1922  0.2302
  460MOL0     C60593   4.610   0.571   2.564 -0.7141  0.2924 -0.9565
  460MOL0     C60594   4.479   0.589   2.615  0.1118 -0.1556  0.1263
  460MOL0     C60595   4.454   0.534   2.744  0.1687 -0.4740  0.8435
  460MOL0     O60596   4.327   0.546   2.802 -0.4093 -0.0970  0.4061
  460MOL0     C60597   4.316   0.517   2.939  0.0456 -0.2697 -0.0854
  460MOL0     C60598   4.178   0.543   2.989  0.3278  0.8283 -0.5827
  460MOL0     C60599   4.126   0.689   2.951 -0.4912 -0.4464  0.2021
  460MOL0     C60600   3.983   0.716   2.993 -0.2985  0.7427  0.4638
  460MOL0     C60601   3.977   0.726   3.146  0.9425 -0.2249 -0.8494
  460MOL0     C60602   3.836   0.763   3.199 -0.0633 -0.7169  0.1218
  460MOL0     C60603   3.827   0.719   3.348 -0.5333  0.6658  0.5834
  460MOL0     C60604   3.701   0.762   3.415 -0.1086  0.4266  0.4493
  460MOL0     N60605   3.697   0.897   3.475 -0.3563  0.5550 -0.8550
  460MOL0     C60606   3.615   1.001   3.449 -0.1928  0.6292  0.2450
  460MOL0     C60607   3.653   1.095   3.532  0.0993 -0.6481 -0.1851
  460MOL0     C60608   3.580   1.226   3.528  0.2170  0.8494  0.5763
  460MOL0     C60609   3.426   1.216   3.510  0.5020  0.0509 -0.0515
  460MOL0     C60610   3.353   1.347   3.546 -0.4269  0.8591  0.3167
  460MOL0     C60611   3.202   1.329   3.544  0.3133  0.4322  0.3760
  460MOL0     O60612   3.154   1.446   3.618 -0.4400  0.4639 -0.0073
  460MOL0     C60613   3.033   1.496   3.597 -0.3518 -0.4896 -0.2723
  460MOL0     C60614   2.925   1.426   3.546  0.5654 -0.0038  0.0156
  460MOL0     C60615   2.794   1.490   3.531 -1.0735  0.5342 -0.0442
  460MOL0     C60616   2.772   1.619   3.580 -0.5876 -0.0375  0.1313
  460MOL0     C60617   2.641   1.678   3.578  0.7072  0.9476  0.4633
  460MOL0     O60618   2.555   1.616   3.487  0.4528 -0.5816 -0.2329
  460MOL0     C60619   2.420   1.648   3.479 -1.1151  0.3229  0.5064
  460MOL0     C60620   2.358   1.653   3.358  0.0843 -0.4242  0.1468
  460MOL0     C60621   2.222   1.678   3.348 -0.9890 -0.1693 -0.2996
  460MOL0     C60622   2.145   1.702   3.459 -0.4964 -0.2664 -1.0943
  460MOL0     O60623   2.010   1.741   3.461  0.2986  0.1447 -0.2518
  460MOL0     C60624   1.931   1.667   3.365  0.1213 -0.0941 -0.1886
  460MOL0     C60625   1.783   1.715   3.374  0.0419 -0.0164  0.8581
  460MOL0     C60626   1.695   1.640   3.279 -0.3436  0.1041 -0.7035
  460MOL0     C60627   1.562   1.704   3.291 -0.0465  0.1832  0.8561
  460MOL0     C60628   1.450   1.641   3.205  0.8693  0.5278 -0.2124
  460MOL0     C60629   1.326   1.718   3.240  0.0542 -0.3659 -0.0612
  460MOL0     C60630   1.211   1.661   3.159  0.0754  0.7032 -0.2050
  460MOL0     C60631   1.082   1.734   3.208 -0.5407  0.7091  0.7572
  460MOL0    Cl60632   0.943   1.697   3.112  0.1640  0.2713  0.6770
  460MOL0     C60633   2.213   1.705   3.585  0.5413  0.2061  0.0706
  460MOL0     C60634   2.348   1.668   3.593  0.4502  0.2440 -0.1485
  460MOL0     O60635   2.610   1.775   3.644  0.3511  0.0815 -0.2605
  460MOL0     C60636   2.881   1.683   3.648 -0.6513  0.6209  0.2732
  460MOL0     C60637   3.011   1.625   3.642  0.1243  0.1586 -0.7697
  460MOL0     N60638   3.759   1.048   3.610  0.0242  0.1181  0.0967
  460MOL0     N60639   3.781   0.928   3.573  0.0416  0.2770 -0.5210
  460MOL0     C60640   4.557   0.472   2.816  0.3974  1.7573  0.1758
  460MOL0     C60641   4.682   0.450   2.753  0.7055 -0.1493 -0.6817
  460MOL0     C60642   4.980   0.435   2.387  0.2563  0.1337  0.0452
  460MOL0     C60643   5.004   0.395   2.256  0.5818  0.7507 -0.6004
  460MOL0     C60644   5.132   0.375   2.212  0.2337 -0.0660  0.3248
  460MOL0     C60645   5.240   0.388   2.298  1.4513 -0.0925 -0.0067
  460MOL0     O60646   5.370   0.376   2.261 -0.2578 -0.0374  0.2381
  460MOL0     C60647   5.410   0.346   2.133  0.4326 -0.5224  0.3525
  460MOL0     C60648   5.410   0.202   2.098  0.7387  0.4582 -0.1232
  460MOL0     C60649   5.484   0.119   2.201  0.2433  0.1092 -0.3300
  460MOL0     C60650   5.521  -0.022   2.142 -0.8946 -0.1150 -0.3114
  460MOL0     C60651   5.623  -0.079   2.222 -0.3549 -0.0239 -0.1061
  460MOL0     C60652   5.722  -0.112   2.279 -0.1860  0.0092  1.1167
  460MOL0     C60653   5.218   0.437   2.429  0.4355  0.4179  0.0735
  460MOL0     C60654   5.091   0.463   2.477  0.1060 -0.0135  0.0531
  460MOL0     H60655   4.636   0.617   2.469  2.4818  1.2393  0.2658
  460MOL0     H60656   4.393   0.623   2.558 -0.0393 -0.9746 -0.1380
  460MOL0     H60657   4.386   0.578   2.997  1.0679 -0.9691 -0.5429
  460MOL0     H60658   4.341   0.411   2.942  1.2110 -0.0436 -0.9857
  460MOL0     H60659   4.177   0.534   3.098 -2.4539 -5.2877 -0.7139
  460MOL0     H60660   4.099   0.474   2.957  0.3188  0.2723  0.5573
  460MOL0     H60661   4.135   0.715   2.845 -1.3338  0.2922  0.2921
  460MOL0     H60662   4.178   0.770   3.003 -1.9853  0.7214 -0.0274
  460MOL0     H60663   3.951   0.815   2.957 -1.2226 -0.2490 -1.6430
  460MOL0     H60664   3.915   0.639   2.956 -1.9986  2.6424 -0.6106
  460MOL0     H60665   4.044   0.806   3.177 -0.3054  0.1306  1.0779
  460MOL0     H60666   4.015   0.643   3.205  1.5440 -0.1070 -1.0575
  460MOL0     H60667   3.756   0.709   3.148 -2.6265  0.7029  2.3499
  460MOL0     H60668   3.824   0.870   3.179  3.8468 -0.0956  0.3773
  460MOL0     H60669   3.824   0.610   3.353 -0.7897  0.7111  1.8035
  460MOL0     H60670   3.913   0.755   3.407 -1.8564  0.6245  2.6493
  460MOL0     H60671   3.687   0.688   3.495 -0.7624 -0.1010 -0.1366
  460MOL0     H60672   3.617   0.751   3.346 -0.0603  3.1293 -0.1487
  460MOL0     H60673   3.552   1.004   3.360 -0.2574 -0.5773  0.2399
  460MOL0     H60674   3.628   1.293   3.456  3.1247 -0.2920  1.3329
  460MOL0     H60675   3.583   1.274   3.626  0.4543  2.0886 -0.0171
  460MOL0     H60676   3.387   1.129   3.563  1.8510 -0.9701 -0.6958
  460MOL0     H60677   3.408   1.199   3.404  1.7199  2.8930 -0.7987
  460MOL0     H60678   3.395   1.372   3.644  1.2148 -2.0136  0.4682
  460MOL0     H60679   3.384   1.425   3.477  0.0222 -0.4656 -1.0215
  460MOL0     H60680   3.155   1.236   3.578 -1.9004  1.0008 -0.9036
  460MOL0     H60681   3.170   1.348   3.441  0.9471  0.8280  0.2477
  460MOL0     H60682   2.935   1.322   3.515  2.9203 -0.4168  1.8793
  460MOL0     H60683   2.717   1.430   3.484 -0.0747 -1.0697  0.3146
  460MOL0     H60684   2.409   1.643   3.262  2.3212 -1.8556  1.3923
  460MOL0     H60685   2.174   1.700   3.253 -0.2714  3.1737  0.0072
  460MOL0     H60686   1.938   1.559   3.380 -0.8850 -0.5767 -2.7992
  460MOL0     H60687   1.963   1.703   3.267  0.2509 -0.3943 -0.2583
  460MOL0     H60688   1.780   1.820   3.342 -1.1103 -1.0261 -2.7372
  460MOL0     H60689   1.739   1.693   3.472 -1.6935 -1.0400 -0.1094
  460MOL0     H60690   1.681   1.536   3.310  0.1226  0.2343 -0.0448
  460MOL0     H60691   1.736   1.646   3.178 -0.5553  1.0978 -0.7380
  460MOL0     H60692   1.532   1.701   3.396 -1.7080  1.0453  0.4414
  460MOL0     H60693   1.568   1.811   3.270 -0.6161  0.5777  2.5233
  460MOL0     H60694   1.439   1.540   3.245  4.1819 -0.2458 -0.9910
  460MOL0     H60695   1.465   1.644   3.096 -3.1323  3.7001 -0.9436
  460MOL0     H60696   1.345   1.823   3.216 -3.3460  0.7559  1.5961
  460MOL0     H60697   1.316   1.701   3.347  2.6579  0.1090  0.3418
  460MOL0     H60698   1.223   1.675   3.051 -0.8285 -0.3859 -0.4645
  460MOL0     H60699   1.202   1.553   3.168  1.5652  0.6267  0.5659
  460MOL0     H60700   1.097   1.842   3.202  0.7023  0.5192  0.1683
  460MOL0     H60701   1.068   1.706   3.313  1.4538 -1.6802  0.4794
  460MOL0     H60702   2.163   1.735   3.677 -1.7359  1.7990 -1.5529
  460MOL0     H60703   2.396   1.668   3.690  0.2977 -1.5844 -0.0473
  460MOL0     H60704   2.862   1.770   3.710  2.5304  0.7714  1.2376
  460MOL0     H60705   3.099   1.669   3.689  0.5351 -0.5792 -0.8316
  460MOL0     H60706   4.552   0.423   2.913  0.7846  0.6013 -0.3838
  460MOL0     H60707   4.764   0.413   2.814  1.8347  1.3951 -1.1822
  460MOL0     H60708   4.926   0.364   2.186  0.9942  0.3234 -0.8799
  460MOL0     H60709   5.139   0.340   2.110  0.6749 -0.5314  0.5090
  460MOL0     H60710   5.508   0.389   2.112  0.2915 -0.4459 -0.1737
  460MOL0     H60711   5.344   0.392   2.058  1.7639  1.1212  0.1220
  460MOL0     H60712   5.308   0.167   2.115  0.8807 -0.0940 -0.4152
  460MOL0     H60713   5.443   0.180   1.997 -0.9919 -2.4628 -0.1678
  460MOL0     H60714   5.433   0.098   2.296  1.5194  1.2800  0.6578
  460MOL0     H60715   5.573   0.171   2.236  0.1048 -1.4429  2.6026
  460MOL0     H60716   5.438  -0.094   2.142 -1.5057  0.5323 -1.9749
  460MOL0     H60717   5.562  -0.015   2.041 -0.5642  0.1626 -0.1607
  460MOL0     H60718   5.801  -0.163   2.330  2.9331  1.5472 -1.7566
  460MOL0     H60719   5.306   0.452   2.490  0.0937 -0.4532  0.8076
  460MOL0     H60720   5.066   0.497   2.577 -2.1589  1.8042 -1.0482
  461MOL0     O60721   0.758   7.856   2.111  0.5000 -0.1785  0.5625
  461MOL0     C60722   0.675   7.762   2.108  1.1578  0.1078 -0.8049
  461MOL0     O60723   0.697   7.637   2.162 -0.4165 -0.0610  0.0475
  461MOL0     C60724   0.826   7.592   2.199  0.3707  0.3118 -0.0170
  461MOL0     C60725   0.855   7.462   2.176  0.5464 -0.4764 -0.2128
  461MOL0     C60726   0.980   7.408   2.203  0.0297 -0.1413  0.5205
  461MOL0     C60727   1.075   7.481   2.271 -1.2963  0.5758 -0.4779
  461MOL0     O60728   1.202   7.433   2.304 -0.2024  0.5004 -0.2205
  461MOL0     C60729   1.229   7.293   2.276  0.6448  0.3728 -0.6319
  461MOL0     C60730   1.373   7.256   2.323 -0.1994 -0.1469  0.5773
  461MOL0     C60731   1.411   7.114   2.285 -0.3424 -0.5115 -0.1902
  461MOL0     C60732   1.521   7.062   2.373 -0.3419 -0.1193 -0.4633
  461MOL0     C60733   1.587   6.937   2.308 -0.3921  0.2068 -0.1424
  461MOL0     C60734   1.644   6.961   2.172  0.6019 -0.2103 -0.0146
  461MOL0     C60735   1.747   6.849   2.141  0.5096 -0.2474  0.1352
  461MOL0     C60736   1.816   6.855   2.003 -0.1437 -0.3690  0.3526
  461MOL0     N60737   1.897   6.981   1.977  0.7557 -0.2552 -0.2875
  461MOL0     C60738   1.995   7.037   2.066  0.0630  0.7508 -0.2644
  461MOL0     C60739   2.043   7.146   2.009  0.6832 -0.4225  0.6277
  461MOL0     C60740   2.138   7.238   2.077 -0.7892 -0.1011  0.7926
  461MOL0     C60741   2.097   7.300   2.205  0.5032  0.2823 -0.9090
  461MOL0     C60742   1.994   7.407   2.203 -0.2744  0.0900  0.0354
  461MOL0     C60743   1.863   7.379   2.126  0.0803  0.0484  0.1320
  461MOL0     O60744   1.765   7.476   2.158  0.3406 -0.2258 -0.0632
  461MOL0     C60745   1.649   7.476   2.078  1.1867  0.3436 -0.5861
  461MOL0     C60746   1.635   7.403   1.951  0.3899 -0.8907 -0.0494
  461MOL0     C60747   1.518   7.415   1.879  0.5158  0.2658 -0.1851
  461MOL0     C60748   1.407   7.488   1.926 -0.7525  1.0155 -0.5032
  461MOL0     C60749   1.282   7.499   1.841  0.3378 -0.1189 -0.0003
  461MOL0     O60750   1.193   7.602   1.875  0.0164 -0.1386 -0.0284
  461MOL0     C60751   1.095   7.642   1.790  0.3832  0.1818  0.0819
  461MOL0     C60752   1.097   7.624   1.653  0.1404 -0.7866  0.2311
  461MOL0     C60753   0.979   7.657   1.587 -0.3374  0.1528  0.4724
  461MOL0     C60754   0.873   7.721   1.643 -0.2431  0.3979  0.5613
  461MOL0     O60755   0.761   7.749   1.555  0.0293 -0.1833 -0.3630
  461MOL0     C60756   0.637   7.753   1.622  0.2436  1.1747  0.2539
  461MOL0     C60757   0.528   7.750   1.515 -0.5663 -0.6736 -0.4157
  461MOL0     C60758   0.380   7.748   1.565  1.0515  0.2982  0.1482
  461MOL0     C60759   0.283   7.702   1.450  0.1156 -0.3625  0.1159
  461MOL0     C60760   0.139   7.732   1.500 -0.1192 -1.1199  0.5174
  461MOL0     C60761   0.030   7.673   1.402 -0.3438  0.2923 -1.2197
  461MOL0     C60762  -0.108   7.706   1.445  0.7011  0.3729 -0.2961
  461MOL0     C60763  -0.205   7.664   1.325 -0.2016  0.2742  1.3719
  461MOL0    Cl60764  -0.182   7.780   1.182  0.0043  0.0946 -0.5130
  461MOL0     C60765   0.881   7.763   1.778 -0.3906  1.0028 -0.2892
  461MOL0     C60766   0.991   7.720   1.854  0.1355 -0.6429  0.0955
  461MOL0     O60767   1.264   7.418   1.756 -0.4196 -0.0097 -0.4958
  461MOL0     C60768   1.431   7.561   2.042  1.2180 -0.1106  0.1322
  461MOL0     C60769   1.545   7.550   2.119  0.2712  0.0066 -0.0901
  461MOL0     N60770   1.978   7.157   1.885 -0.9608  0.4338 -0.2204
  461MOL0     N60771   1.889   7.067   1.871 -0.2706 -0.2206  0.2572
  461MOL0     C60772   1.048   7.607   2.311  0.0169  0.4819  0.0046
  461MOL0     C60773   0.921   7.660   2.286 -0.6493  0.1809  0.5191
  461MOL0     C60774   0.537   7.802   2.068 -0.1906 -0.0231  0.1904
  461MOL0     C60775   0.500   7.935   2.032 -0.3380 -1.1631 -0.3554
  461MOL0     C60776   0.373   7.958   1.970 -0.2674 -0.9347  0.6404
  461MOL0     C60777   0.292   7.862   1.950  0.7290  0.0746  0.2117
  461MOL0     O60778   0.171   7.868   1.884  0.2302 -0.0792  0.9318
  461MOL0     C60779   0.057   7.866   1.976  0.4954  0.7440  0.8668
  461MOL0     C60780  -0.061   7.946   1.925 -0.5286 -0.4463  0.3022
  461MOL0     C60781  -0.129   7.888   1.800 -0.3899 -0.3968  0.2199
  461MOL0     C60782  -0.224   7.989   1.735 -0.3994 -0.2784  0.1758
  461MOL0     C60783  -0.340   8.002   1.803 -0.1404  0.0739  0.0886
  461MOL0     C60784  -0.454   8.018   1.840 -0.2046 -0.2851 -0.7061
  461MOL0     C60785   0.320   7.736   1.993 -0.2388  0.1700  0.8934
  461MOL0     C60786   0.440   7.703   2.051  0.4794  0.1103 -0.3586
  461MOL0     H60787   0.796   7.402   2.107  1.0934 -0.9900 -0.2353
  461MOL0     H60788   0.987   7.307   2.163 -3.1535  0.3875 -1.7024
  461MOL0     H60789   1.216   7.278   2.168 -4.9637  0.2541 -0.2252
  461MOL0     H60790   1.155   7.225   2.318  0.3841 -0.0787 -1.7740
  461MOL0     H60791   1.357   7.263   2.431 -0.8861 -0.1283  0.4804
  461MOL0     H60792   1.449   7.325   2.287  0.8087 -1.1715  0.6636
  461MOL0     H60793   1.435   7.122   2.179  2.1480 -1.2802  0.2598
  461MOL0     H60794   1.322   7.051   2.296  0.0575 -0.9901  0.3708
  461MOL0     H60795   1.604   7.133   2.384  1.6527 -1.8194 -3.4129
  461MOL0     H60796   1.486   7.049   2.476 -4.6140  1.4721 -1.4967
  461MOL0     H60797   1.517   6.853   2.301  2.5708 -2.5606  0.9666
  461MOL0     H60798   1.670   6.910   2.373 -2.0908  0.5081  2.2989
  461MOL0     H60799   1.694   7.058   2.172  0.1781  0.0145 -0.5534
  461MOL0     H60800   1.567   6.971   2.095 -2.5736 -1.6648  2.7047
  461MOL0     H60801   1.816   6.851   2.225 -0.7274 -0.7713  1.1975
  461MOL0     H60802   1.691   6.755   2.139 -2.1917  1.2548  0.4507
  461MOL0     H60803   1.736   6.853   1.929 -1.1018 -0.7121  1.3568
  461MOL0     H60804   1.870   6.762   1.985  0.5074 -0.0982  0.8817
  461MOL0     H60805   2.011   7.005   2.168 -0.0003  1.7448  0.0668
  461MOL0     H60806   2.170   7.309   2.001 -2.0394  0.2645  0.5755
  461MOL0     H60807   2.222   7.171   2.097 -1.0909 -0.9499 -0.5938
  461MOL0     H60808   2.183   7.330   2.266  1.0791 -2.1188 -0.4194
  461MOL0     H60809   2.057   7.223   2.271  1.3049  1.0217  0.4856
  461MOL0     H60810   1.960   7.441   2.302  0.3880  3.8706 -0.8623
  461MOL0     H60811   2.046   7.493   2.160  0.2012 -0.2340 -0.0363
  461MOL0     H60812   1.827   7.278   2.147 -0.3020 -0.1814 -1.4976
  461MOL0     H60813   1.891   7.375   2.021 -1.5542  0.5068 -0.3596
  461MOL0     H60814   1.719   7.346   1.914  1.3032  0.3195  0.1236
  461MOL0     H60815   1.518   7.364   1.783  1.5134 -0.1996  0.0524
  461MOL0     H60816   1.180   7.571   1.606 -0.3274 -0.9116 -0.4670
  461MOL0     H60817   0.969   7.630   1.483 -1.7771 -1.3188  0.9639
  461MOL0     H60818   0.625   7.846   1.678 -2.1980 -0.2824  2.3868
  461MOL0     H60819   0.616   7.665   1.684  1.4270  2.1473  2.1265
  461MOL0     H60820   0.548   7.656   1.461  2.3578 -0.9209  0.8914
  461MOL0     H60821   0.538   7.835   1.446 -0.6039 -0.1181  0.2595
  461MOL0     H60822   0.363   7.852   1.595 -0.8072  0.0995 -0.1314
  461MOL0     H60823   0.368   7.687   1.655  0.0003  0.3182  0.0339
  461MOL0     H60824   0.305   7.759   1.360  0.6491  0.3466  0.6804
  461MOL0     H60825   0.290   7.593   1.440 -1.6193 -0.2745 -3.3264
  461MOL0     H60826   0.132   7.841   1.495 -0.6784 -1.1782  0.0483
  461MOL0     H60827   0.134   7.699   1.604 -0.9938 -0.6581  0.6328
  461MOL0     H60828   0.041   7.564   1.397 -1.3768  0.0569  0.7441
  461MOL0     H60829   0.041   7.712   1.301 -5.1747  0.2532 -2.0256
  461MOL0     H60830  -0.133   7.640   1.528  1.4235 -0.6498 -0.8738
  461MOL0     H60831  -0.124   7.811   1.472 -1.1846  0.8764 -2.9728
  461MOL0     H60832  -0.308   7.665   1.362 -0.6796  2.2692  0.1304
  461MOL0     H60833  -0.182   7.565   1.285 -0.2331  0.4080  1.0190
  461MOL0     H60834   0.793   7.822   1.806  1.0168  3.6553 -1.0972
  461MOL0     H60835   0.990   7.745   1.960  0.2784 -0.3399  0.0270
  461MOL0     H60836   1.354   7.632   2.070 -1.0255 -2.0148 -0.8556
  461MOL0     H60837   1.549   7.601   2.214 -0.2985  0.9598 -0.5558
  461MOL0     H60838   1.115   7.679   2.356  2.0530 -0.1551 -1.8672
  461MOL0     H60839   0.886   7.752   2.331 -0.8702 -0.3844  1.5353
  461MOL0     H60840   0.582   8.004   2.021 -1.5586  0.4503  0.2368
  461MOL0     H60841   0.352   8.061   1.941 -0.5909 -1.4839 -1.1696
  461MOL0     H60842   0.078   7.907   2.075 -0.7050  2.0636  0.6127
  461MOL0     H60843   0.024   7.764   2.000 -1.3807  1.0892 -0.0142
  461MOL0     H60844  -0.132   7.938   2.008 -0.7776  0.4677  0.1843
  461MOL0     H60845  -0.028   8.048   1.906 -2.6543  0.2480  0.1015
  461MOL0     H60846  -0.190   7.803   1.831  1.1091 -1.7435 -0.3783
  461MOL0     H60847  -0.061   7.867   1.717  0.3031 -0.6707  0.8522
  461MOL0     H60848  -0.170   8.084   1.727  0.2311 -0.5809  0.7006
  461MOL0     H60849  -0.255   7.952   1.637 -0.6721  1.0146 -0.2397
  461MOL0     H60850  -0.553   8.028   1.880 -0.4061 -4.4799  0.4037
  461MOL0     H60851   0.245   7.663   1.964 -1.6670  1.8062  0.3687
  461MOL0     H60852   0.454   7.603   2.089 -4.2559  0.8571  4.7683
  462MOL0     O60853   7.481   2.902   1.504 -0.0485 -0.2734  0.0020
  462MOL0     C60854   7.536   3.000   1.446  0.2099  0.6513 -0.4817
  462MOL0     O60855   7.469   3.097   1.390  0.5072 -1.2972  0.0892
  462MOL0     C60856   7.327   3.102   1.383 -0.1085  0.2807  1.2597
  462MOL0     C60857   7.251   3.004   1.322  0.1358  0.0423 -0.0288
  462MOL0     C60858   7.114   3.020   1.307 -0.4212 -0.0022 -0.0989
  462MOL0     C60859   7.050   3.129   1.361 -0.5916 -0.5345  0.2781
  462MOL0     O60860   6.914   3.133   1.352 -0.2035  0.1973 -0.0170
  462MOL0     C60861   6.849   3.170   1.472  0.9369 -0.4093  0.5743
  462MOL0     C60862   6.697   3.154   1.448 -0.3595 -0.6470 -0.4435
  462MOL0     C60863   6.622   3.153   1.586 -0.5323  0.0206  0.1720
  462MOL0     C60864   6.473   3.150   1.576  1.0251  0.5666  0.5693
  462MOL0     C60865   6.403   3.283   1.616 -0.0555 -0.4691 -0.0757
  462MOL0     C60866   6.257   3.264   1.657  0.1753 -0.6500 -0.7581
  462MOL0     C60867   6.192   3.402   1.657  1.2842  0.2734  0.0561
  462MOL0     C60868   6.042   3.407   1.692 -0.8997 -0.2379 -0.0364
  462MOL0     N60869   5.973   3.300   1.614  0.6271  0.0442  0.3474
  462MOL0     C60870   5.893   3.202   1.677  0.5880  0.6226  0.4930
  462MOL0     C60871   5.856   3.126   1.579 -0.6125 -0.0990  0.1640
  462MOL0     C60872   5.761   3.011   1.586 -0.7848 -0.4165  0.9524
  462MOL0     C60873   5.612   3.045   1.583 -0.4836 -0.9431 -0.2178
  462MOL0     C60874   5.525   2.921   1.598  0.3051 -0.3304  0.3271
  462MOL0     C60875   5.381   2.965   1.623 -0.1090 -0.4016 -0.7966
  462MOL0     O60876   5.331   3.014   1.496 -0.7578  0.5131 -0.5276
  462MOL0     C60877   5.200   3.049   1.484  1.3117  0.5405 -0.3581
  462MOL0     C60878   5.142   3.047   1.358  0.2020  0.4349 -0.7460
  462MOL0     C60879   5.012   3.082   1.335  0.1910 -0.4346  0.2478
  462MOL0     C60880   4.926   3.126   1.441  0.0966 -1.1725  0.0920
  462MOL0     C60881   4.784   3.158   1.413  0.3795  0.0528 -0.7424
  462MOL0     O60882   4.688   3.157   1.522 -0.0578  0.5753 -0.5477
  462MOL0     C60883   4.557   3.177   1.490 -0.4395 -0.1492  0.6238
  462MOL0     C60884   4.454   3.077   1.481  0.7870  0.6528 -0.1774
  462MOL0     C60885   4.317   3.109   1.459  0.6537 -0.4656 -0.7509
  462MOL0     C60886   4.286   3.235   1.436  1.0453 -0.7260  0.3016
  462MOL0     O60887   4.156   3.267   1.419 -0.3058 -0.1685 -0.6684
  462MOL0     C60888   4.113   3.379   1.498  0.3008  0.8635 -0.3209
  462MOL0     C60889   3.959   3.391   1.489 -0.4181  0.7987  1.2506
  462MOL0     C60890   3.883   3.265   1.538 -1.4929  0.0504 -0.0933
  462MOL0     C60891   3.741   3.312   1.524 -0.4325 -0.2605  0.8539
  462MOL0     C60892   3.632   3.217   1.597  0.0156 -0.0332  0.9693
  462MOL0     C60893   3.485   3.233   1.543  0.8120  0.5710  0.6228
  462MOL0     C60894   3.448   3.380   1.530  0.4172  0.5622  0.3601
  462MOL0     C60895   3.300   3.401   1.482 -0.7423  0.1071  0.1409
  462MOL0    Cl60896   3.267   3.303   1.340  0.0804  0.6972 -0.1333
  462MOL0     C60897   4.382   3.330   1.429  0.5011 -0.0645  0.7151
  462MOL0     C60898   4.514   3.305   1.456 -0.4760  0.3554 -0.3550
  462MOL0     O60899   4.759   3.176   1.290  0.2349  0.2117 -0.6237
  462MOL0     C60900   4.980   3.111   1.569 -0.0495 -0.6157  0.8808
  462MOL0     C60901   5.114   3.072   1.594  0.2461 -1.0799 -0.0621
  462MOL0     N60902   5.911   3.164   1.459 -0.1388 -0.3466  0.5438
  462MOL0     N60903   5.980   3.275   1.480 -0.0451 -0.8758 -0.5815
  462MOL0     C60904   7.122   3.228   1.422  0.6944 -0.8475  0.2406
  462MOL0     C60905   7.261   3.214   1.435 -0.8387 -0.4303  0.2186
  462MOL0     C60906   7.680   3.020   1.451 -0.2423  0.2542  0.0222
  462MOL0     C60907   7.743   3.136   1.414  0.0171 -0.3313  0.6369
  462MOL0     C60908   7.879   3.147   1.411 -0.0849  0.4490 -0.5653
  462MOL0     C60909   7.957   3.036   1.452 -0.2248 -0.1974  1.1985
  462MOL0     O60910   8.093   3.047   1.447  0.0288 -0.1739 -0.6432
  462MOL0     C60911   8.163   2.984   1.334 -0.3488 -0.5519 -1.6313
  462MOL0     C60912   8.314   3.020   1.358  0.0984  0.5776  0.0236
  462MOL0     C60913   8.401   2.960   1.245  0.6881  0.5248 -0.7059
  462MOL0     C60914   8.547   2.984   1.275 -0.8009 -0.6917  0.3418
  462MOL0     C60915   8.627   2.942   1.155  0.0852 -0.3635  0.2696
  462MOL0     C60916   8.693   2.900   1.064 -1.1271  0.0198 -0.0802
  462MOL0     C60917   7.899   2.915   1.480  0.0375  0.8259  0.3643
  462MOL0     C60918   7.762   2.908   1.483 -0.6514  0.4569 -0.3819
  462MOL0     H60919   7.309   2.924   1.275  0.9189 -0.1049  1.1297
  462MOL0     H60920   7.056   2.940   1.262 -1.5343  0.5976  0.2385
  462MOL0     H60921   6.874   3.276   1.485  1.0354 -0.0024 -2.2702
  462MOL0     H60922   6.862   3.104   1.558  1.1189 -1.6981 -0.4172
  462MOL0     H60923   6.672   3.067   1.387  0.8909 -4.1183  3.5160
  462MOL0     H60924   6.669   3.238   1.384  2.9849  1.1401  0.1849
  462MOL0     H60925   6.645   3.247   1.637 -0.0541  1.3555 -2.3563
  462MOL0     H60926   6.642   3.059   1.637  1.1944  0.0906 -0.3050
  462MOL0     H60927   6.437   3.115   1.479 -0.2259 -0.5617  1.3971
  462MOL0     H60928   6.431   3.079   1.648 -0.7411  2.2483  1.3050
  462MOL0     H60929   6.412   3.352   1.531 -3.0135  0.6294  0.3752
  462MOL0     H60930   6.456   3.329   1.700  3.0525 -1.9151 -1.0805
  462MOL0     H60931   6.254   3.229   1.760  0.1341  0.6429 -0.3025
  462MOL0     H60932   6.199   3.193   1.597 -0.1607 -0.7298 -0.3434
  462MOL0     H60933   6.239   3.459   1.738 -1.0454 -2.6493  3.8375
  462MOL0     H60934   6.205   3.440   1.556  0.7907 -2.5547 -1.1706
  462MOL0     H60935   6.014   3.507   1.657  1.9249  0.7641  0.3197
  462MOL0     H60936   6.028   3.398   1.800 -0.2119  0.0726  0.0828
  462MOL0     H60937   5.861   3.193   1.780  1.7824  1.5404  0.9700
  462MOL0     H60938   5.780   2.956   1.678  1.0170  2.3305  2.3922
  462MOL0     H60939   5.787   2.952   1.498 -0.2233  1.0136  0.1138
  462MOL0     H60940   5.571   3.086   1.490 -0.4981  0.0684  0.2214
  462MOL0     H60941   5.607   3.130   1.652  2.5874  1.4153 -2.6316
  462MOL0     H60942   5.538   2.858   1.509  0.3444  0.9929 -0.6302
  462MOL0     H60943   5.547   2.859   1.685  0.5367 -0.7268 -0.0087
  462MOL0     H60944   5.384   3.051   1.691 -0.9408  1.0648 -2.5358
  462MOL0     H60945   5.321   2.881   1.659 -1.9905  1.5336  0.8791
  462MOL0     H60946   5.199   3.013   1.273 -1.9794 -1.8157 -1.4276
  462MOL0     H60947   4.968   3.068   1.237  2.0648  0.2903 -0.7573
  462MOL0     H60948   4.493   2.977   1.497 -1.6015  0.0142  2.5173
  462MOL0     H60949   4.247   3.027   1.466  0.9048 -0.6312 -0.1852
  462MOL0     H60950   4.157   3.472   1.462 -1.0149  2.9998  3.0884
  462MOL0     H60951   4.147   3.364   1.601 -0.2719  0.3165 -0.2006
  462MOL0     H60952   3.936   3.408   1.384 -2.9029 -2.6110  1.0637
  462MOL0     H60953   3.929   3.477   1.549 -1.8407 -1.3591  3.8688
  462MOL0     H60954   3.908   3.238   1.641  1.2915  2.0348 -0.1143
  462MOL0     H60955   3.902   3.180   1.472  0.4203  1.5784 -1.6552
  462MOL0     H60956   3.727   3.410   1.572  2.7090  0.1400  1.1224
  462MOL0     H60957   3.718   3.310   1.417  0.3870 -0.7799  0.6752
  462MOL0     H60958   3.626   3.229   1.705  1.8353 -1.1564  1.2290
  462MOL0     H60959   3.674   3.119   1.575 -0.1308  0.1719 -0.3342
  462MOL0     H60960   3.416   3.178   1.608 -0.1828 -0.9052 -1.5379
  462MOL0     H60961   3.472   3.185   1.445 -2.1879 -0.6339  1.4894
  462MOL0     H60962   3.460   3.437   1.623  1.3579  0.4821  0.2962
  462MOL0     H60963   3.503   3.426   1.448 -1.4255 -0.9815 -1.8730
  462MOL0     H60964   3.283   3.501   1.441 -2.7183 -0.9358 -1.8287
  462MOL0     H60965   3.227   3.373   1.559  0.3752  0.0548  1.2002
  462MOL0     H60966   4.358   3.432   1.400 -1.4890  0.0360  2.4666
  462MOL0     H60967   4.586   3.387   1.450 -1.0208  0.7705 -1.5155
  462MOL0     H60968   4.919   3.127   1.657 -1.1201 -1.4651  0.3173
  462MOL0     H60969   5.161   3.077   1.691  2.6004  0.2719 -1.1919
  462MOL0     H60970   7.083   3.322   1.460 -0.9095 -0.3855 -2.3004
  462MOL0     H60971   7.319   3.291   1.484 -2.0194  0.9716 -0.5045
  462MOL0     H60972   7.686   3.228   1.403 -2.2178 -1.5940  1.2094
  462MOL0     H60973   7.921   3.245   1.392  1.1356  0.7679  3.0344
  462MOL0     H60974   8.127   3.019   1.237 -0.9140  1.9681 -0.5963
  462MOL0     H60975   8.163   2.875   1.340 -2.7446 -0.5196  0.7458
  462MOL0     H60976   8.335   3.124   1.382  2.7619 -0.2940  2.0334
  462MOL0     H60977   8.340   2.962   1.448 -1.3344 -0.5523 -0.2470
  462MOL0     H60978   8.362   3.002   1.152  1.7445  0.6184 -1.1184
  462MOL0     H60979   8.393   2.851   1.240  0.5078  0.4991  0.0329
  462MOL0     H60980   8.558   3.093   1.280 -0.9530 -0.3785 -3.1939
  462MOL0     H60981   8.581   2.940   1.369 -1.0007  1.0124  1.2507
  462MOL0     H60982   8.754   2.868   0.982 -1.8199  1.7244 -1.3203
  462MOL0     H60983   7.966   2.832   1.498 -2.1079 -1.0344  0.1708
  462MOL0     H60984   7.715   2.812   1.501 -1.7876  0.7700 -1.5016
  463MOL0     O60985   0.693   5.568   2.617 -0.3922  0.2847 -0.1221
  463MOL0     C60986   0.750   5.542   2.509 -0.2203  0.0824 -0.0973
  463MOL0     O60987   0.690   5.511   2.398  0.3611 -0.4059 -0.1296
  463MOL0     C60988   0.556   5.517   2.385 -0.2163 -0.1879 -0.2119
  463MOL0     C60989   0.481   5.406   2.401  0.2257  0.4307  0.5429
  463MOL0     C60990   0.346   5.415   2.409  0.4698  0.4502  0.1194
  463MOL0     C60991   0.277   5.534   2.417 -0.0810  0.8266  0.7718
  463MOL0     O60992   0.141   5.533   2.433 -0.3911  0.4144  0.5871
  463MOL0     C60993   0.072   5.638   2.365 -0.2948 -0.1634 -0.6035
  463MOL0     C60994  -0.079   5.601   2.339  1.5657 -0.6394  0.2149
  463MOL0     C60995  -0.112   5.498   2.234 -0.2304  0.2890 -0.6173
  463MOL0     C60996  -0.027   5.365   2.239 -0.6936 -0.1332 -0.1993
  463MOL0     C60997  -0.047   5.286   2.367 -0.2429  0.6294 -0.6874
  463MOL0     C60998   0.015   5.144   2.361  0.7965 -0.8076 -0.2279
  463MOL0     C60999  -0.050   5.039   2.263  0.0115 -0.3606  0.7718
  463MOL0     C61000  -0.204   5.030   2.266 -0.9959  0.6057  0.3089
  463MOL0     N61001  -0.257   4.950   2.384 -0.9471  1.0007 -0.6353
  463MOL0     C61002  -0.309   5.005   2.495 -0.1402 -0.1205 -0.2218
  463MOL0     C61003  -0.361   4.893   2.555  0.3045 -0.9694  0.2654
  463MOL0     C61004  -0.423   4.884   2.690  0.0767  0.5395 -0.5940
  463MOL0     C61005  -0.575   4.911   2.685  0.4621  1.8099 -0.6029
  463MOL0     C61006  -0.656   4.810   2.594 -0.1015 -0.5711  0.1180
  463MOL0     C61007  -0.806   4.828   2.619 -0.2664  0.6407  0.6198
  463MOL0     O61008  -0.897   4.757   2.537 -0.7186  0.1779  0.1285
  463MOL0     C61009  -1.029   4.748   2.576  0.5044  0.4477  0.1036
  463MOL0     C61010  -1.131   4.798   2.494 -0.0619  0.1690  0.2914
  463MOL0     C61011  -1.263   4.794   2.538  0.9267 -0.4405  0.5215
  463MOL0     C61012  -1.299   4.726   2.656  0.0851  0.3327  0.3651
  463MOL0     C61013  -1.442   4.708   2.697 -0.5750  0.8855 -0.1902
  463MOL0     O61014  -1.539   4.733   2.601 -0.1351  0.5389 -0.4496
  463MOL0     C61015  -1.667   4.728   2.655  0.0320 -0.3877  0.2021
  463MOL0     C61016  -1.751   4.643   2.578 -0.3500  0.3996 -0.3049
  463MOL0     C61017  -1.878   4.609   2.617 -0.4433 -0.8583 -0.1189
  463MOL0     C61018  -1.935   4.670   2.725  0.3462  0.3327 -0.9468
  463MOL0     O61019  -2.069   4.633   2.742  0.0011 -0.1865 -0.5809
  463MOL0     C61020  -2.149   4.720   2.828  0.1647 -0.3169 -0.1838
  463MOL0     C61021  -2.282   4.658   2.857 -0.4840  0.6089  0.0305
  463MOL0     C61022  -2.392   4.671   2.746  0.2455  0.7687  0.1651
  463MOL0     C61023  -2.516   4.596   2.787 -0.0104 -0.2819  0.2600
  463MOL0     C61024  -2.629   4.688   2.824 -0.4175  0.3595  0.1178
  463MOL0     C61025  -2.763   4.620   2.803 -0.5240  0.7467  0.4195
  463MOL0     C61026  -2.873   4.706   2.858  0.3037  0.4784  0.3652
  463MOL0     C61027  -3.011   4.644   2.812  0.2713 -0.1551 -0.4167
  463MOL0    Cl61028  -3.032   4.497   2.913 -0.2952 -0.3679 -0.1289
  463MOL0     C61029  -1.857   4.761   2.804 -0.3401  0.1308  0.2202
  463MOL0     C61030  -1.721   4.786   2.775  0.5102  0.1211  0.8499
  463MOL0     O61031  -1.460   4.659   2.814 -0.1337 -0.7592  0.4310
  463MOL0     C61032  -1.195   4.675   2.733  0.6945  0.1485 -0.6719
  463MOL0     C61033  -1.063   4.680   2.692 -0.6780  0.1093  0.4456
  463MOL0     N61034  -0.336   4.781   2.482  0.2696  0.1183  0.6229
  463MOL0     N61035  -0.279   4.819   2.375  0.6286 -0.7827 -0.3939
  463MOL0     C61036   0.351   5.648   2.398 -0.8355  0.4323  0.1085
  463MOL0     C61037   0.496   5.644   2.383 -0.1821  0.3102 -0.5406
  463MOL0     C61038   0.896   5.547   2.495 -0.0037  0.4284 -0.2063
  463MOL0     C61039   0.959   5.572   2.376  0.9402 -0.0677 -0.5698
  463MOL0     C61040   1.093   5.592   2.373 -0.3112  0.4563  0.5008
  463MOL0     C61041   1.170   5.576   2.484 -0.5545 -0.6671  0.4939
  463MOL0     O61042   1.302   5.579   2.485 -0.4844  0.7310  0.5907
  463MOL0     C61043   1.381   5.607   2.367 -1.0013 -0.2269  0.1946
  463MOL0     C61044   1.526   5.654   2.406 -0.4248  0.3238 -0.9285
  463MOL0     C61045   1.623   5.650   2.281  0.3994  0.6270 -0.4337
  463MOL0     C61046   1.767   5.686   2.315 -0.6746 -0.3545  0.2924
  463MOL0     C61047   1.849   5.661   2.201  0.5070  0.1560 -0.5631
  463MOL0     C61048   1.914   5.637   2.105 -0.0076  0.4897  0.5618
  463MOL0     C61049   1.115   5.545   2.609 -0.3132  0.7338  0.1836
  463MOL0     C61050   0.977   5.532   2.607  0.0315  0.9318 -0.7305
  463MOL0     H61051   0.528   5.309   2.392 -0.4444  0.2597 -1.8046
  463MOL0     H61052   0.279   5.330   2.419 -0.0825  0.7493 -0.8431
  463MOL0     H61053   0.112   5.671   2.269 -1.4670 -0.3980 -1.1839
  463MOL0     H61054   0.055   5.718   2.438 -0.7976  0.7125 -1.6646
  463MOL0     H61055  -0.123   5.697   2.310 -0.7409 -2.3871 -2.5732
  463MOL0     H61056  -0.123   5.556   2.429 -2.6012 -1.6934 -2.0914
  463MOL0     H61057  -0.113   5.537   2.132 -0.6112  0.0118 -0.7184
  463MOL0     H61058  -0.218   5.474   2.242 -0.1292 -0.6481 -1.8237
  463MOL0     H61059  -0.060   5.314   2.148 -1.9937 -0.4796  0.4440
  463MOL0     H61060   0.079   5.392   2.233 -1.2681  3.1606  1.9667
  463MOL0     H61061  -0.150   5.283   2.404  0.4753 -2.6762  1.5060
  463MOL0     H61062   0.011   5.331   2.447  0.1677 -0.8459 -0.1193
  463MOL0     H61063  -0.008   5.103   2.460 -0.9324 -0.1787 -0.3229
  463MOL0     H61064   0.121   5.154   2.341  0.4613 -1.6844 -2.7348
  463MOL0     H61065  -0.021   5.065   2.161  1.2671 -0.3543  1.1084
  463MOL0     H61066  -0.010   4.939   2.282  2.0933  0.1532 -0.5849
  463MOL0     H61067  -0.235   4.968   2.181 -0.1433 -1.6714  1.5713
  463MOL0     H61068  -0.265   5.120   2.255 -1.0632  0.4365 -0.8052
  463MOL0     H61069  -0.313   5.110   2.524  3.3472 -0.3622  1.6659
  463MOL0     H61070  -0.381   4.954   2.763 -0.3109 -1.2532  1.4707
  463MOL0     H61071  -0.411   4.782   2.727  0.1050  0.4789 -0.7716
  463MOL0     H61072  -0.585   5.012   2.644  0.8806  1.7254 -0.9246
  463MOL0     H61073  -0.614   4.921   2.787  0.9032  0.0681 -0.2408
  463MOL0     H61074  -0.629   4.825   2.489  1.2552 -0.8987  0.3981
  463MOL0     H61075  -0.627   4.713   2.636 -2.1769 -0.8604  0.9865
  463MOL0     H61076  -0.824   4.934   2.600  3.6360  1.6865  1.6855
  463MOL0     H61077  -0.830   4.818   2.725  0.0770 -1.5964  0.5332
  463MOL0     H61078  -1.105   4.852   2.404 -0.5519 -0.0303  0.0277
  463MOL0     H61079  -1.338   4.850   2.484  1.3642 -1.8820 -1.7133
  463MOL0     H61080  -1.708   4.610   2.484  0.6427  1.1872 -0.1466
  463MOL0     H61081  -1.945   4.552   2.553  0.2893 -1.6480 -0.2153
  463MOL0     H61082  -2.156   4.822   2.788  0.5580  0.3163  1.2879
  463MOL0     H61083  -2.084   4.727   2.916  2.2621 -3.3076 -1.3508
  463MOL0     H61084  -2.308   4.700   2.955  2.9068  3.9131 -0.2458
  463MOL0     H61085  -2.255   4.552   2.866 -0.6643  0.3991 -1.6403
  463MOL0     H61086  -2.361   4.636   2.647 -0.3027  0.9495 -0.0712
  463MOL0     H61087  -2.404   4.780   2.740 -1.0449  0.6816  0.9917
  463MOL0     H61088  -2.540   4.515   2.718 -0.4960  0.1618 -0.0985
  463MOL0     H61089  -2.491   4.554   2.885  0.1097  2.2229  1.3750
  463MOL0     H61090  -2.627   4.784   2.770  1.4380 -1.2668 -2.9596
  463MOL0     H61091  -2.626   4.715   2.930 -1.4921 -2.4996  0.9634
  463MOL0     H61092  -2.763   4.523   2.855  1.9853 -0.5428 -1.7041
  463MOL0     H61093  -2.775   4.600   2.696 -3.2387 -0.1715  0.8017
  463MOL0     H61094  -2.877   4.714   2.967 -1.0433  1.0866  0.2771
  463MOL0     H61095  -2.872   4.805   2.812 -2.5684  1.6229  2.5062
  463MOL0     H61096  -3.000   4.619   2.706 -0.1314 -1.5392 -0.1541
  463MOL0     H61097  -3.085   4.724   2.821  3.3393  2.9343 -0.4903
  463MOL0     H61098  -1.901   4.811   2.889 -4.2974 -1.7643 -0.4607
  463MOL0     H61099  -1.661   4.856   2.832  0.0593 -0.0856  1.5827
  463MOL0     H61100  -1.211   4.631   2.831 -1.1135  1.5513 -0.2747
  463MOL0     H61101  -0.986   4.635   2.754  2.2311 -0.3320 -3.1225
  463MOL0     H61102   0.307   5.746   2.388 -1.6321  0.2649  1.6378
  463MOL0     H61103   0.540   5.743   2.390 -1.3266  0.8114 -0.2058
  463MOL0     H61104   0.905   5.582   2.282  3.0195 -0.3861 -1.8388
  463MOL0     H61105   1.133   5.614   2.275  1.4471 -0.0475  1.0740
  463MOL0     H61106   1.342   5.693   2.313 -1.0300  2.5927  4.2740
  463MOL0     H61107   1.397   5.516   2.308 -0.8898 -0.2106  0.1988
  463MOL0     H61108   1.531   5.754   2.451 -0.3269  0.0750 -0.3882
  463MOL0     H61109   1.555   5.585   2.485 -0.9151  1.8727  0.6624
  463MOL0     H61110   1.585   5.717   2.203 -0.0615  0.2388 -0.5453
  463MOL0     H61111   1.630   5.547   2.246  3.0175 -0.8873  3.8220
  463MOL0     H61112   1.764   5.793   2.339  1.9182  0.3812 -2.0899
  463MOL0     H61113   1.783   5.618   2.399 -0.0887  0.0346  0.5069
  463MOL0     H61114   1.972   5.610   2.019  0.1266  4.0036 -0.6389
  463MOL0     H61115   1.176   5.540   2.699 -2.5143 -0.1989  1.7054
  463MOL0     H61116   0.929   5.500   2.699 -2.0339  1.2872 -1.6319
  464MOL0     O61117   0.101   5.530   7.234  0.5132 -0.5272 -0.0517
  464MOL0     C61118   0.112   5.440   7.309 -0.0950 -0.0731  0.1196
  464MOL0     O61119   0.015   5.354   7.353 -0.0049 -0.3423 -0.3842
  464MOL0     C61120  -0.124   5.352   7.309 -0.8599  0.4981 -0.2149
  464MOL0     C61121  -0.220   5.280   7.386 -0.2129  0.0439  0.5688
  464MOL0     C61122  -0.358   5.282   7.346  0.3920 -0.5948 -0.4993
  464MOL0     C61123  -0.398   5.338   7.217 -0.5402  0.6034  1.1300
  464MOL0     O61124  -0.526   5.351   7.174  0.6456  0.1486 -0.3515
  464MOL0     C61125  -0.639   5.289   7.242 -0.2376  0.7117  0.9429
  464MOL0     C61126  -0.768   5.331   7.159  0.2630  1.0732  0.1694
  464MOL0     C61127  -0.881   5.239   7.206 -0.2307  0.6430 -1.0380
  464MOL0     C61128  -0.942   5.161   7.093 -0.7082  0.8918 -0.0645
  464MOL0     C61129  -1.070   5.093   7.137  0.5911 -0.1523  0.3304
  464MOL0     C61130  -1.140   5.021   7.026  0.0458 -0.1044 -0.2271
  464MOL0     C61131  -1.257   4.932   7.068  0.0954  0.0992 -0.6654
  464MOL0     C61132  -1.188   4.792   7.101 -0.3259  0.1298 -0.0691
  464MOL0     N61133  -1.279   4.694   7.173  0.1132 -0.2226 -0.1551
  464MOL0     C61134  -1.406   4.649   7.140  0.2996  0.3462 -0.6438
  464MOL0     C61135  -1.443   4.575   7.248 -0.1779 -0.3291  0.0090
  464MOL0     C61136  -1.566   4.501   7.267  0.2629  0.2908 -0.3670
  464MOL0     C61137  -1.556   4.353   7.216 -0.7317  1.6698  0.5915
  464MOL0     C61138  -1.690   4.275   7.240 -0.6965 -0.0872 -0.7759
  464MOL0     C61139  -1.676   4.122   7.226 -0.0162 -0.3789  0.7118
  464MOL0     O61140  -1.807   4.069   7.225  0.4828  0.0537  0.4985
  464MOL0     C61141  -1.888   4.088   7.107  0.7211 -0.4085  0.4541
  464MOL0     C61142  -1.834   4.132   6.981 -0.3017  0.0890 -0.1478
  464MOL0     C61143  -1.918   4.129   6.866 -0.4913 -0.2324  0.1266
  464MOL0     C61144  -2.056   4.097   6.873 -0.5431 -1.1523  0.0020
  464MOL0     C61145  -2.153   4.105   6.760  0.4317 -0.4326  0.0280
  464MOL0     O61146  -2.115   4.175   6.652 -0.0578 -0.6976  1.1830
  464MOL0     C61147  -2.183   4.156   6.533 -0.5566 -0.3198 -0.1523
  464MOL0     C61148  -2.123   4.101   6.418 -0.5899  0.3909  0.7529
  464MOL0     C61149  -2.197   4.072   6.304 -0.3667 -0.4619 -0.4932
  464MOL0     C61150  -2.319   4.120   6.296  0.0302 -0.3588 -0.3170
  464MOL0     O61151  -2.381   4.113   6.171 -0.2260  0.5300  0.2216
  464MOL0     C61152  -2.507   4.172   6.150  0.2056 -0.1148  0.2663
  464MOL0     C61153  -2.563   4.113   6.023 -0.0101 -0.3531  1.2027
  464MOL0     C61154  -2.583   3.957   6.040 -0.3051 -0.6086  0.9453
  464MOL0     C61155  -2.688   3.901   5.939  0.6825 -0.4271  0.4139
  464MOL0     C61156  -2.724   3.757   5.977 -0.0388  0.4385  0.9625
  464MOL0     C61157  -2.798   3.689   5.863 -0.0508 -0.2798  0.4401
  464MOL0     C61158  -2.865   3.568   5.928 -0.5627 -0.0574  0.0620
  464MOL0     C61159  -2.977   3.511   5.838  0.1590  0.0090 -0.1734
  464MOL0    Cl61160  -3.062   3.380   5.928 -0.2080  0.7457 -0.0972
  464MOL0     C61161  -2.376   4.186   6.406 -0.2118  0.6369 -0.7994
  464MOL0     C61162  -2.314   4.198   6.530 -0.4102  0.2714 -0.2848
  464MOL0     O61163  -2.263   4.057   6.782  0.4558 -0.6943 -0.2523
  464MOL0     C61164  -2.109   4.071   6.999 -0.2800  0.3831 -0.4555
  464MOL0     C61165  -2.029   4.056   7.112 -0.1774 -0.0598  0.2656
  464MOL0     N61166  -1.332   4.568   7.341  0.0400 -0.2873  0.4506
  464MOL0     N61167  -1.242   4.647   7.301 -0.6505 -0.2629  0.5319
  464MOL0     C61168  -0.301   5.399   7.141  0.1535  0.3189  0.8809
  464MOL0     C61169  -0.165   5.408   7.181 -0.2574 -0.6263 -0.9853
  464MOL0     C61170   0.241   5.424   7.364  0.5011 -0.4582  0.7283
  464MOL0     C61171   0.336   5.536   7.341 -0.4278  0.6027  0.7302
  464MOL0     C61172   0.466   5.525   7.398 -0.0579 -0.5274 -0.5272
  464MOL0     C61173   0.501   5.420   7.477  0.3055  1.7893 -0.5370
  464MOL0     O61174   0.634   5.398   7.518 -0.0654 -0.6475  0.6499
  464MOL0     C61175   0.730   5.495   7.513 -0.1877 -0.6684  0.2472
  464MOL0     C61176   0.829   5.483   7.634  0.5927  0.9619  0.0617
  464MOL0     C61177   0.931   5.595   7.632 -0.1332 -0.1085 -0.4822
  464MOL0     C61178   1.015   5.603   7.753  0.1448 -0.3074 -0.1528
  464MOL0     C61179   1.138   5.688   7.722  0.2162  1.1183  0.2933
  464MOL0     C61180   1.236   5.756   7.701  0.4492  0.8701  0.2852
  464MOL0     C61181   0.408   5.314   7.505 -0.0455  0.0964 -0.0244
  464MOL0     C61182   0.284   5.318   7.448  0.3073  0.1393  0.4481
  464MOL0     H61183  -0.186   5.227   7.474 -0.9159 -0.6207  0.4510
  464MOL0     H61184  -0.431   5.236   7.410  1.1142 -0.3829  0.5006
  464MOL0     H61185  -0.640   5.318   7.347  1.1212  1.4874  0.7630
  464MOL0     H61186  -0.625   5.180   7.240  1.1018  0.8611  1.1383
  464MOL0     H61187  -0.742   5.318   7.054  1.3700 -0.1850  0.5592
  464MOL0     H61188  -0.792   5.437   7.171  0.7623  1.1160  0.8451
  464MOL0     H61189  -0.959   5.306   7.242 -0.1986  0.1334 -0.0033
  464MOL0     H61190  -0.838   5.180   7.287  0.5529  1.1558 -1.0643
  464MOL0     H61191  -0.964   5.227   7.009 -1.3418  1.4687  0.5345
  464MOL0     H61192  -0.874   5.085   7.054 -1.5171 -1.5044  2.7870
  464MOL0     H61193  -1.140   5.163   7.185  1.8112  1.2269  0.1665
  464MOL0     H61194  -1.039   5.016   7.209 -2.2095 -2.1028 -0.4022
  464MOL0     H61195  -1.070   4.957   6.971 -0.2279 -0.5617 -0.0523
  464MOL0     H61196  -1.175   5.097   6.956  0.9823 -0.5510 -1.2165
  464MOL0     H61197  -1.324   4.970   7.146 -0.2323 -0.2142 -0.7897
  464MOL0     H61198  -1.312   4.916   6.974  2.6841 -1.5444 -2.0010
  464MOL0     H61199  -1.098   4.810   7.159 -0.6911  0.8891  0.2679
  464MOL0     H61200  -1.159   4.746   7.006 -0.2314 -1.8049  0.8526
  464MOL0     H61201  -1.467   4.657   7.051  0.8750 -1.8734 -1.3045
  464MOL0     H61202  -1.654   4.551   7.226 -2.0024 -3.1948 -0.2088
  464MOL0     H61203  -1.573   4.505   7.376 -0.4901 -0.7936 -0.3643
  464MOL0     H61204  -1.481   4.294   7.268 -1.7347  0.2590  0.4905
  464MOL0     H61205  -1.534   4.359   7.109 -1.2851  3.4377  0.5409
  464MOL0     H61206  -1.736   4.309   7.333  1.1122  0.7680 -0.1565
  464MOL0     H61207  -1.768   4.300   7.167 -3.8243 -0.1651  2.2330
  464MOL0     H61208  -1.617   4.092   7.312  1.3594  1.8102  0.5906
  464MOL0     H61209  -1.622   4.093   7.135  1.2879 -0.3241  1.4612
  464MOL0     H61210  -1.730   4.161   6.970 -0.3877  0.7034  0.5593
  464MOL0     H61211  -1.881   4.160   6.769 -1.5177  0.4349 -0.0770
  464MOL0     H61212  -2.022   4.062   6.425 -0.5251  0.2337 -0.8054
  464MOL0     H61213  -2.158   4.025   6.214 -1.7435 -1.4657 -0.6034
  464MOL0     H61214  -2.484   4.279   6.147 -0.8638  0.2207  2.2772
  464MOL0     H61215  -2.581   4.170   6.231 -0.1237  4.3353  0.2984
  464MOL0     H61216  -2.503   4.123   5.931  1.2662  0.5829  2.0970
  464MOL0     H61217  -2.656   4.163   5.994 -1.6458 -3.0766  1.4832
  464MOL0     H61218  -2.614   3.945   6.144  3.0327  2.3998  2.4866
  464MOL0     H61219  -2.483   3.914   6.025 -0.1712 -0.0484  0.1924
  464MOL0     H61220  -2.777   3.964   5.935  0.0773 -1.3042 -1.0599
  464MOL0     H61221  -2.636   3.908   5.843  0.8481  1.4811  0.6016
  464MOL0     H61222  -2.794   3.763   6.061 -1.4765  2.0198 -0.2768
  464MOL0     H61223  -2.637   3.695   6.002 -2.5807 -3.2366  1.5536
  464MOL0     H61224  -2.738   3.651   5.780  0.0602 -2.1576  1.3308
  464MOL0     H61225  -2.875   3.752   5.819 -1.7239 -2.3672  0.2453
  464MOL0     H61226  -2.796   3.483   5.930 -1.8124 -1.1208 -0.3213
  464MOL0     H61227  -2.897   3.584   6.031  0.0699 -0.6924  0.3608
  464MOL0     H61228  -2.941   3.476   5.741  1.4950 -1.9094  0.9495
  464MOL0     H61229  -3.047   3.591   5.812 -2.9345 -3.1269 -2.4825
  464MOL0     H61230  -2.464   4.249   6.399  0.7958  2.6598  2.2329
  464MOL0     H61231  -2.362   4.244   6.616  0.5673 -1.9524  1.5613
  464MOL0     H61232  -2.214   4.042   7.008  0.2840 -1.6113  0.2165
  464MOL0     H61233  -2.072   4.045   7.211  1.5327  1.2972  1.2225
  464MOL0     H61234  -0.326   5.452   7.049  0.2117 -0.5930  0.3329
  464MOL0     H61235  -0.093   5.459   7.118  0.3752 -2.5925 -1.9531
  464MOL0     H61236   0.319   5.626   7.284  1.1757  2.1408  2.5459
  464MOL0     H61237   0.540   5.600   7.371 -0.5647 -0.0117 -0.5156
  464MOL0     H61238   0.690   5.597   7.512 -2.0342 -1.2603  2.9840
  464MOL0     H61239   0.775   5.490   7.414 -1.9242  0.4566 -0.6480
  464MOL0     H61240   0.787   5.466   7.734  0.8906  2.4251  0.4709
  464MOL0     H61241   0.870   5.384   7.615 -2.3806 -0.7722  1.8545
  464MOL0     H61242   0.883   5.690   7.608  0.5707  0.6242  0.8783
  464MOL0     H61243   1.004   5.574   7.552  1.4343  0.4390  0.7445
  464MOL0     H61244   0.953   5.644   7.833 -0.1749 -0.9611 -0.0615
  464MOL0     H61245   1.047   5.503   7.783 -1.9803 -0.8338  0.4899
  464MOL0     H61246   1.325   5.811   7.677  0.8820 -0.0483 -0.3091
  464MOL0     H61247   0.445   5.232   7.565  0.8570  0.1971 -0.4293
  464MOL0     H61248   0.212   5.240   7.470 -0.9413 -0.0078 -3.3486
  465MOL0     O61249   3.152  10.178   5.265 -0.9040  0.1657  0.4245
  465MOL0     C61250   3.116  10.085   5.340 -0.8549 -0.2273 -0.0409
  465MOL0     O61251   3.056  10.103   5.463 -0.2881  0.0649 -0.0732
  465MOL0     C61252   3.050  10.232   5.504 -0.1386  0.9519 -0.6718
  465MOL0     C61253   3.161  10.273   5.584 -0.0469 -0.5420 -0.1543
  465MOL0     C61254   3.181  10.409   5.611  0.2025 -0.0182 -1.1512
  465MOL0     C61255   3.091  10.502   5.578 -0.9917  1.0039  0.1504
  465MOL0     O61256   3.121  10.629   5.615  0.5624  0.1537 -0.4365
  465MOL0     C61257   3.010  10.723   5.611  0.4666  0.6332 -0.1281
  465MOL0     C61258   3.053  10.850   5.677  0.3075  0.1978  0.4863
  465MOL0     C61259   2.961  10.964   5.657  0.0979  0.5229  0.7869
  465MOL0     C61260   2.836  10.950   5.752  0.2732 -0.0739  0.5414
  465MOL0     C61261   2.718  11.032   5.699  0.5206 -0.7533  0.2874
  465MOL0     C61262   2.656  10.963   5.580 -0.0592  0.8596  0.9389
  465MOL0     C61263   2.509  10.984   5.565 -1.3502 -0.5124  0.4436
  465MOL0     C61264   2.463  10.963   5.423  0.2668 -0.3845  0.3679
  465MOL0     N61265   2.317  10.966   5.420 -0.3308  0.3372 -0.4783
  465MOL0     C61266   2.237  11.075   5.433 -0.6554 -0.1135  0.5436
  465MOL0     C61267   2.110  11.040   5.402  0.3838  0.0703  1.1086
  465MOL0     C61268   1.985  11.117   5.403  0.7698  0.0512  0.3341
  465MOL0     C61269   1.856  11.024   5.405 -0.3996  0.2548  0.1544
  465MOL0     C61270   1.723  11.103   5.406 -0.1601  0.2346 -0.7905
  465MOL0     C61271   1.667  11.116   5.267  0.7331  0.6033 -0.1051
  465MOL0     O61272   1.539  11.182   5.289  0.5250  0.3221  0.6058
  465MOL0     C61273   1.422  11.103   5.298  0.5503  0.4124 -0.1668
  465MOL0     C61274   1.297  11.165   5.281 -0.2893  0.1917 -0.1079
  465MOL0     C61275   1.181  11.090   5.278  0.9724 -0.3825 -0.1658
  465MOL0     C61276   1.174  10.956   5.291  0.8600 -0.1013 -0.3643
  465MOL0     C61277   1.040  10.883   5.306  0.7147  0.2260  0.0584
  465MOL0     O61278   0.928  10.961   5.292 -0.1086 -0.1975 -0.3352
  465MOL0     C61279   0.808  10.900   5.295 -0.1704 -0.0442  0.6577
  465MOL0     C61280   0.739  10.885   5.411 -0.0966 -0.2628 -0.4663
  465MOL0     C61281   0.605  10.856   5.408 -0.0593  0.0672  0.5436
  465MOL0     C61282   0.538  10.842   5.282 -0.2566  0.3864 -0.5022
  465MOL0     O61283   0.409  10.802   5.270 -0.0545  0.4280  1.1177
  465MOL0     C61284   0.319  10.868   5.351  0.4577 -0.4205  0.1259
  465MOL0     C61285   0.197  10.784   5.351  0.4648 -0.4828  0.3836
  465MOL0     C61286   0.102  10.846   5.242 -0.9446 -0.2681  0.2327
  465MOL0     C61287  -0.021  10.765   5.239  0.0026 -0.1323 -0.4098
  465MOL0     C61288  -0.118  10.831   5.142  0.9488 -0.0613 -0.3088
  465MOL0     C61289  -0.222  10.717   5.099  0.4289  0.0429  0.1362
  465MOL0     C61290  -0.326  10.778   5.009  0.5180 -0.5298 -0.8134
  465MOL0     C61291  -0.428  10.675   4.958 -0.1695 -0.0518  0.0849
  465MOL0    Cl61292  -0.503  10.749   4.810  0.2223 -0.1065  0.2232
  465MOL0     C61293   0.615  10.838   5.165  0.3916  0.2954  0.1936
  465MOL0     C61294   0.746  10.876   5.169  0.2410  0.3730  0.8972
  465MOL0     O61295   1.039  10.758   5.312  0.0252  0.2382  0.2093
  465MOL0     C61296   1.298  10.890   5.317 -0.2237 -0.2963 -0.5413
  465MOL0     C61297   1.421  10.962   5.318  0.9531  0.6335 -0.3053
  465MOL0     N61298   2.117  10.907   5.371 -0.1758  0.6914  0.6962
  465MOL0     N61299   2.236  10.864   5.399 -0.1270  0.5974  0.4935
  465MOL0     C61300   2.973  10.458   5.511  0.3575 -0.2435  1.6349
  465MOL0     C61301   2.955  10.321   5.478  1.0143 -0.4085  0.2708
  465MOL0     C61302   3.095   9.955   5.286  0.0799 -0.2165  0.6828
  465MOL0     C61303   2.996   9.868   5.343 -0.3415 -0.5924  0.1885
  465MOL0     C61304   2.944   9.753   5.278 -0.5992  1.1678  0.3301
  465MOL0     C61305   2.997   9.722   5.148 -0.0519 -0.3373 -0.0959
  465MOL0     O61306   2.963   9.616   5.066  0.4553  0.5008  0.7823
  465MOL0     C61307   2.888   9.505   5.125  0.1699 -0.9698  0.2890
  465MOL0     C61308   2.862   9.399   5.025 -0.0406 -0.4980 -0.0862
  465MOL0     C61309   2.986   9.346   4.947  0.1024 -1.1758 -0.6079
  465MOL0     C61310   3.085   9.262   5.026 -0.3342 -0.2749  0.7301
  465MOL0     C61311   3.173   9.180   4.931  0.3469  0.3692 -0.3799
  465MOL0     C61312   3.253   9.135   4.852 -0.1764 -0.8562 -0.1070
  465MOL0     C61313   3.100   9.807   5.095 -0.2263  0.1508  0.5019
  465MOL0     C61314   3.148   9.920   5.159 -0.4179 -0.0769  0.0653
  465MOL0     H61315   3.234  10.198   5.612 -2.6122 -4.3668 -2.6922
  465MOL0     H61316   3.261  10.453   5.670 -1.0722 -0.1140  0.7058
  465MOL0     H61317   2.917  10.686   5.655  2.8187 -3.4597  2.0003
  465MOL0     H61318   2.988  10.743   5.505 -2.1793 -0.0164  0.2240
  465MOL0     H61319   3.146  10.873   5.624 -0.5009  1.8725 -0.2637
  465MOL0     H61320   3.079  10.822   5.780  1.1631 -4.0126 -0.6712
  465MOL0     H61321   2.938  10.973   5.550  3.3195  0.8529 -0.0017
  465MOL0     H61322   3.011  11.056   5.690  0.9072 -0.1876  1.5952
  465MOL0     H61323   2.806  10.846   5.772 -3.4160  0.7052 -0.1242
  465MOL0     H61324   2.846  10.999   5.850 -1.1895  2.2179 -0.3793
  465MOL0     H61325   2.741  11.138   5.680 -0.2386 -0.4714  0.8876
  465MOL0     H61326   2.639  11.047   5.774  0.3941  1.1715 -0.1633
  465MOL0     H61327   2.669  10.855   5.583 -2.0095  0.2497 -3.6458
  465MOL0     H61328   2.701  10.999   5.487  0.8637  0.4551  1.2159
  465MOL0     H61329   2.461  10.913   5.634 -0.8143 -2.1733 -0.8238
  465MOL0     H61330   2.490  11.088   5.592  1.0517  0.2551 -0.5709
  465MOL0     H61331   2.501  10.869   5.382 -0.1756  0.1667 -1.4230
  465MOL0     H61332   2.503  11.039   5.355 -0.0072 -1.7190 -1.3696
  465MOL0     H61333   2.279  11.169   5.469  2.8471 -1.5201  0.5348
  465MOL0     H61334   1.976  11.172   5.309  0.1874 -2.1470 -0.9652
  465MOL0     H61335   1.993  11.195   5.479 -0.3981 -0.9611  1.5239
  465MOL0     H61336   1.872  10.958   5.490  0.6032  1.5302  1.0081
  465MOL0     H61337   1.847  10.957   5.320 -0.7868 -2.5811  2.2867
  465MOL0     H61338   1.649  11.053   5.470 -1.3740  0.3997 -2.0179
  465MOL0     H61339   1.744  11.206   5.435  2.8546 -0.6348  0.6349
  465MOL0     H61340   1.665  11.016   5.221  1.8409 -0.5595  2.2336
  465MOL0     H61341   1.729  11.181   5.204 -0.9520  0.5153 -1.9750
  465MOL0     H61342   1.298  11.269   5.250 -0.0286 -0.4566 -2.5429
  465MOL0     H61343   1.084  11.139   5.277  0.9085  0.0437  4.7852
  465MOL0     H61344   0.791  10.904   5.505 -1.4239  2.0417 -0.1279
  465MOL0     H61345   0.549  10.850   5.501 -0.4738  0.4608  0.3236
  465MOL0     H61346   0.303  10.966   5.305  0.4152  0.5348  2.0741
  465MOL0     H61347   0.354  10.892   5.452  1.6744  0.1778 -0.4127
  465MOL0     H61348   0.142  10.799   5.444 -0.4658 -1.1034 -0.0477
  465MOL0     H61349   0.215  10.677   5.335 -2.3826 -1.7243  4.0196
  465MOL0     H61350   0.164  10.826   5.154 -0.9605  1.0727 -0.1038
  465MOL0     H61351   0.090  10.954   5.246  4.9104  0.7553 -1.1222
  465MOL0     H61352  -0.006  10.664   5.199  0.1536 -1.2113  2.1600
  465MOL0     H61353  -0.068  10.749   5.337 -1.3734 -0.0545 -1.0218
  465MOL0     H61354  -0.070  10.867   5.050 -1.3026  2.3488 -0.6803
  465MOL0     H61355  -0.163  10.919   5.190  1.2484  0.3524 -0.7695
  465MOL0     H61356  -0.266  10.670   5.188 -2.7629  1.2641 -0.6751
  465MOL0     H61357  -0.169  10.637   5.045 -0.8813 -1.0868  0.4745
  465MOL0     H61358  -0.381  10.856   5.063  2.4378  0.0719  0.3626
  465MOL0     H61359  -0.289  10.819   4.915 -1.4574  0.0959 -1.3725
  465MOL0     H61360  -0.510  10.670   5.031 -2.4720  3.6890 -1.9349
  465MOL0     H61361  -0.395  10.573   4.935 -3.1837 -1.3071  0.8316
  465MOL0     H61362   0.576  10.796   5.073  0.4261  2.5231 -0.9010
  465MOL0     H61363   0.791  10.865   5.071 -1.5484 -3.2887  0.3177
  465MOL0     H61364   1.310  10.784   5.339  0.6876  0.0828  0.9011
  465MOL0     H61365   1.509  10.902   5.337  1.4163  0.2385 -3.3034
  465MOL0     H61366   2.903  10.530   5.468 -1.9998 -2.9003  0.7413
  465MOL0     H61367   2.874  10.312   5.406  1.1860 -2.1330  0.2500
  465MOL0     H61368   2.936   9.916   5.420  0.4888  2.3782 -0.8954
  465MOL0     H61369   2.872   9.688   5.328  0.4639  0.0696  0.4810
  465MOL0     H61370   2.792   9.536   5.169 -0.1727  0.8060 -1.5595
  465MOL0     H61371   2.951   9.465   5.205  0.4976  0.8193  0.9820
  465MOL0     H61372   2.819   9.309   5.070  2.1399 -1.7669 -0.4085
  465MOL0     H61373   2.804   9.446   4.945  4.2725  0.1323 -3.2083
  465MOL0     H61374   3.033   9.430   4.895  1.3696 -0.6811  1.2065
  465MOL0     H61375   2.968   9.280   4.862  2.0100 -3.2432  0.4807
  465MOL0     H61376   3.153   9.329   5.078  0.5573 -0.5020 -0.1033
  465MOL0     H61377   3.038   9.201   5.104 -0.7175  1.1181  1.6378
  465MOL0     H61378   3.326   9.101   4.782 -1.0870  0.0225 -1.5434
  465MOL0     H61379   3.134   9.769   4.999 -1.1715  1.9858 -0.6155
  465MOL0     H61380   3.217   9.985   5.106  1.1032 -0.9359  0.9031
  466MOL0     O61381   2.827   9.542   4.018  0.0964  0.0163  0.1897
  466MOL0     C61382   2.892   9.632   4.075 -0.1448 -0.3378  0.3280
  466MOL0     O61383   2.849   9.763   4.099 -0.5544  0.4949  0.2347
  466MOL0     C61384   2.736   9.798   4.032  0.9092  0.4705  0.6188
  466MOL0     C61385   2.618   9.798   4.105  0.5284  0.0488  0.6983
  466MOL0     C61386   2.495   9.827   4.033 -0.2093 -0.0954 -0.0728
  466MOL0     C61387   2.487   9.846   3.894  0.0386  0.0919 -0.0747
  466MOL0     O61388   2.382   9.891   3.822 -0.6168  1.5373 -0.2534
  466MOL0     C61389   2.259   9.919   3.901 -0.1870 -0.3297  0.6695
  466MOL0     C61390   2.165  10.007   3.817  0.3469 -0.4689 -0.5505
  466MOL0     C61391   2.054  10.079   3.896  0.1750 -0.5112 -0.6452
  466MOL0     C61392   1.950   9.982   3.946 -0.7444 -0.6949 -0.3725
  466MOL0     C61393   1.840  10.053   4.037  0.2032  0.5856 -0.0511
  466MOL0     C61394   1.912  10.121   4.158 -0.2491 -0.2208 -0.1161
  466MOL0     C61395   1.807  10.142   4.273  0.2859 -0.1542  0.1110
  466MOL0     C61396   1.896  10.217   4.379  0.0446  0.5190  0.0737
  466MOL0     N61397   1.830  10.242   4.508  0.7018  0.0033 -0.9157
  466MOL0     C61398   1.714  10.319   4.521  0.2537  0.7271 -0.4618
  466MOL0     C61399   1.693  10.344   4.654 -0.1962  0.4524  0.3570
  466MOL0     C61400   1.574  10.416   4.723 -0.2421 -0.3260 -0.4220
  466MOL0     C61401   1.480  10.323   4.799 -0.7015  1.0733  0.0803
  466MOL0     C61402   1.367  10.403   4.867 -0.2588 -0.4795  0.6371
  466MOL0     C61403   1.277  10.323   4.958 -0.2601 -0.5998  0.2603
  466MOL0     O61404   1.182  10.233   4.892 -0.0502 -0.8082  0.3621
  466MOL0     C61405   1.065  10.203   4.946 -0.4087 -0.4357 -0.3023
  466MOL0     C61406   1.056  10.197   5.083 -0.3077  0.2422  0.1550
  466MOL0     C61407   0.928  10.171   5.140 -0.0883 -0.4553 -1.1289
  466MOL0     C61408   0.810  10.143   5.061 -0.2070 -0.0230 -0.4655
  466MOL0     C61409   0.679  10.124   5.116  0.2833  0.1247 -0.6843
  466MOL0     O61410   0.576  10.068   5.040 -0.2369 -0.5626  0.0590
  466MOL0     C61411   0.452  10.041   5.082  0.8304 -1.2829 -0.0095
  466MOL0     C61412   0.398   9.922   5.049  0.0418  0.2384 -0.2044
  466MOL0     C61413   0.274   9.883   5.106 -0.9491 -0.2920  1.0969
  466MOL0     C61414   0.186   9.973   5.168 -0.2072  0.0801  0.9792
  466MOL0     O61415   0.069   9.928   5.217  0.2195  0.3058 -0.0902
  466MOL0     C61416  -0.044  10.021   5.224  0.1026 -0.1382 -0.0494
  466MOL0     C61417  -0.160   9.961   5.304  0.4659  0.7973 -0.2944
  466MOL0     C61418  -0.252  10.080   5.361  0.4451 -0.2930  0.4236
  466MOL0     C61419  -0.344  10.147   5.254  0.4945  0.5307  0.1684
  466MOL0     C61420  -0.447  10.053   5.180 -0.8048 -0.5426 -0.3543
  466MOL0     C61421  -0.568  10.015   5.281  0.3365  0.1491  0.5533
  466MOL0     C61422  -0.703   9.979   5.227  0.4739  0.7969  0.1999
  466MOL0     C61423  -0.696   9.853   5.151  0.7565 -0.5020  1.5332
  466MOL0    Cl61424  -0.860   9.800   5.108 -0.1298  0.2439 -0.1228
  466MOL0     C61425   0.237  10.104   5.186  0.4201  0.2647  0.6157
  466MOL0     C61426   0.374  10.131   5.153 -0.1196 -0.5505  0.1684
  466MOL0     O61427   0.662  10.154   5.235 -0.1494  0.0913  0.3973
  466MOL0     C61428   0.836  10.150   4.925  0.2047  0.4213 -0.4056
  466MOL0     C61429   0.957  10.170   4.867 -0.8049  0.5080  0.1152
  466MOL0     N61430   1.794  10.288   4.723  0.2135  0.0390  0.0837
  466MOL0     N61431   1.875  10.230   4.635 -0.1420  0.7256 -0.0306
  466MOL0     C61432   2.610   9.849   3.825 -0.1755  0.6693 -0.7725
  466MOL0     C61433   2.734   9.829   3.893 -0.3242  0.3209  0.6671
  466MOL0     C61434   3.029   9.600   4.128  0.2186  0.0751 -0.0979
  466MOL0     C61435   3.072   9.467   4.138 -0.0579 -0.2792 -0.6715
  466MOL0     C61436   3.197   9.437   4.187 -0.0387 -0.5932 -0.2056
  466MOL0     C61437   3.290   9.538   4.214 -0.0455  1.5586 -0.0752
  466MOL0     O61438   3.416   9.485   4.249 -0.3401  0.0765 -0.1281
  466MOL0     C61439   3.504   9.570   4.321 -0.7279 -1.0223 -0.5109
  466MOL0     C61440   3.618   9.495   4.377 -0.2100  0.5420  0.2218
  466MOL0     C61441   3.717   9.442   4.266  0.7163 -0.2147 -0.6891
  466MOL0     C61442   3.815   9.551   4.227  1.0840  0.0634  0.1777
  466MOL0     C61443   3.911   9.492   4.133 -0.0586 -0.0968  0.6977
  466MOL0     C61444   3.969   9.432   4.044  0.3421 -0.6099  0.0439
  466MOL0     C61445   3.247   9.673   4.221 -1.1117  0.5575 -0.5106
  466MOL0     C61446   3.118   9.703   4.182 -0.2050 -0.5339 -0.0468
  466MOL0     H61447   2.608   9.764   4.208  0.2197 -2.3856 -0.0785
  466MOL0     H61448   2.409   9.838   4.099  0.6438  3.7022  0.6427
  466MOL0     H61449   2.283   9.979   3.989  2.0348  1.3571 -0.9490
  466MOL0     H61450   2.207   9.828   3.930 -1.0126 -0.7438 -1.8259
  466MOL0     H61451   2.116   9.949   3.737  0.8044 -2.3982  0.5031
  466MOL0     H61452   2.237  10.076   3.772 -0.1787 -1.9912 -4.1207
  466MOL0     H61453   2.009  10.153   3.829  2.2347  1.5012  0.0581
  466MOL0     H61454   2.101  10.140   3.974  0.0529  0.3794 -1.2528
  466MOL0     H61455   1.914   9.921   3.863  1.1514 -1.2564 -0.8203
  466MOL0     H61456   2.015   9.916   4.004  0.1836  0.8046  0.3520
  466MOL0     H61457   1.773   9.970   4.061  0.6883  0.0575 -0.4852
  466MOL0     H61458   1.780  10.120   3.975  0.5237  0.9579  0.0381
  466MOL0     H61459   1.962  10.214   4.127  0.3432 -0.6574 -0.4922
  466MOL0     H61460   1.987  10.045   4.182 -1.0830 -1.8277 -2.3325
  466MOL0     H61461   1.716  10.197   4.248 -0.7193 -1.3285  1.0180
  466MOL0     H61462   1.763  10.048   4.307  0.8634 -1.1042 -1.6373
  466MOL0     H61463   1.943  10.304   4.333  1.1224 -1.1085 -2.0682
  466MOL0     H61464   1.975  10.144   4.395  0.3289  0.7520 -0.2671
  466MOL0     H61465   1.656  10.355   4.436  0.6251 -0.8136 -1.3918
  466MOL0     H61466   1.514  10.473   4.652 -2.4422 -0.5065  1.2150
  466MOL0     H61467   1.613  10.483   4.799 -1.9445  0.9469 -0.6189
  466MOL0     H61468   1.536  10.263   4.871 -2.7625 -0.0385  0.8400
  466MOL0     H61469   1.439  10.254   4.725 -1.6739  1.7203 -0.0153
  466MOL0     H61470   1.415  10.486   4.918 -1.0407 -0.2920  1.0880
  466MOL0     H61471   1.307  10.449   4.788  1.0025 -0.4998 -0.3700
  466MOL0     H61472   1.216  10.395   5.012 -1.0441  0.9802 -2.5148
  466MOL0     H61473   1.340  10.268   5.028  1.0252 -0.1909 -0.5331
  466MOL0     H61474   1.143  10.204   5.147 -1.1435 -1.1955  1.5366
  466MOL0     H61475   0.922  10.171   5.249  0.5375  2.8810 -0.9890
  466MOL0     H61476   0.451   9.850   4.987  0.4334 -0.4361  0.8793
  466MOL0     H61477   0.228   9.788   5.083 -0.9466 -0.3405  1.2903
  466MOL0     H61478  -0.072  10.051   5.122 -2.2795  0.6305  0.7554
  466MOL0     H61479  -0.008  10.108   5.280 -2.0436  0.7235  0.0799
  466MOL0     H61480  -0.131   9.900   5.390 -0.5222  3.5450  2.1414
  466MOL0     H61481  -0.210   9.896   5.231 -0.2405  1.6599 -0.5907
  466MOL0     H61482  -0.203  10.161   5.415 -1.2181  0.0036  1.6011
  466MOL0     H61483  -0.324  10.032   5.429  0.2704 -0.0291  0.4259
  466MOL0     H61484  -0.401  10.230   5.297 -0.6800 -0.8384  1.3466
  466MOL0     H61485  -0.263  10.180   5.188  1.6102  2.7206  2.4419
  466MOL0     H61486  -0.397   9.961   5.148  3.1566  0.4405  2.2897
  466MOL0     H61487  -0.493  10.112   5.100  2.3695 -0.9092 -2.6519
  466MOL0     H61488  -0.592  10.107   5.337  0.9681  1.4425 -1.2117
  466MOL0     H61489  -0.538   9.932   5.345  2.1453 -1.1803 -1.8721
  466MOL0     H61490  -0.776   9.972   5.309 -0.2887 -1.7644 -0.6085
  466MOL0     H61491  -0.737  10.064   5.167  3.2696  2.4944  0.8486
  466MOL0     H61492  -0.656   9.772   5.212 -0.2592 -1.3887  1.0467
  466MOL0     H61493  -0.646   9.865   5.054 -1.8253  1.3226  0.3063
  466MOL0     H61494   0.176  10.183   5.229 -0.1863  0.4294 -0.4972
  466MOL0     H61495   0.413  10.228   5.180  2.0450 -0.6377 -2.2106
  466MOL0     H61496   0.760  10.121   4.854  1.4307 -1.4840 -1.0456
  466MOL0     H61497   0.970  10.196   4.763  2.4945  1.4187  0.6533
  466MOL0     H61498   2.618   9.856   3.717  0.9732  3.9427 -0.5888
  466MOL0     H61499   2.827   9.821   3.838 -2.6802 -0.0826 -3.6792
  466MOL0     H61500   3.007   9.384   4.113 -0.4257 -0.6137  1.1808
  466MOL0     H61501   3.220   9.331   4.193  0.9364 -0.3591  0.4500
  466MOL0     H61502   3.456   9.616   4.408 -0.4366  0.8067 -1.2725
  466MOL0     H61503   3.545   9.649   4.257 -0.4154 -0.6064  0.1888
  466MOL0     H61504   3.675   9.563   4.442  1.4247  0.3782 -0.9670
  466MOL0     H61505   3.581   9.407   4.430 -1.6072  0.5669 -0.6652
  466MOL0     H61506   3.666   9.391   4.184 -0.4793 -2.6608  1.4412
  466MOL0     H61507   3.780   9.370   4.321  1.6420  1.3841  0.4333
  466MOL0     H61508   3.759   9.625   4.169  0.5220 -1.3020 -1.0652
  466MOL0     H61509   3.870   9.584   4.316 -1.1852 -1.3129  2.2384
  466MOL0     H61510   4.035   9.408   3.963  0.7348  0.2563  0.1021
  466MOL0     H61511   3.312   9.748   4.266 -2.2956  1.3634 -0.1023
  466MOL0     H61512   3.087   9.807   4.186 -1.2569 -0.5577 -3.6803
  467MOL0     O61513   9.300   2.963   3.148  0.0341 -0.2720 -0.8118
  467MOL0     C61514   9.357   2.852   3.150 -0.3177 -0.5241  0.2759
  467MOL0     O61515   9.299   2.730   3.149  0.0190  0.2098 -0.1286
  467MOL0     C61516   9.171   2.697   3.106  0.7789  0.2738  0.2348
  467MOL0     C61517   9.071   2.790   3.072  0.0186 -0.5188  0.0531
  467MOL0     C61518   8.944   2.752   3.028  0.0337 -0.1614 -0.5039
  467MOL0     C61519   8.912   2.614   3.017 -0.8881 -0.2142 -0.8464
  467MOL0     O61520   8.795   2.564   2.964 -0.5146 -0.1786 -0.5224
  467MOL0     C61521   8.684   2.647   2.985 -0.3198 -0.6933  0.3772
  467MOL0     C61522   8.564   2.560   2.956  0.2260 -0.9178 -0.4088
  467MOL0     C61523   8.432   2.638   2.976 -0.1539 -0.8083  0.1309
  467MOL0     C61524   8.314   2.544   2.921 -0.4364  0.0868 -0.7070
  467MOL0     C61525   8.183   2.604   2.963 -0.1613  0.4698 -0.5578
  467MOL0     C61526   8.058   2.539   2.915  0.1139 -0.0567  0.1505
  467MOL0     C61527   7.943   2.635   2.914  0.6744 -0.2662 -0.3622
  467MOL0     C61528   7.826   2.574   2.841 -0.1986  0.2563 -0.3557
  467MOL0     N61529   7.706   2.657   2.854 -0.0272  0.5880 -0.5816
  467MOL0     C61530   7.635   2.672   2.975 -0.5719 -0.9959  0.3860
  467MOL0     C61531   7.542   2.763   2.938 -0.2755 -0.2288 -0.2408
  467MOL0     C61532   7.435   2.805   3.033 -0.2691 -0.2008 -1.5993
  467MOL0     C61533   7.297   2.760   3.002  0.7489  0.2960  0.4776
  467MOL0     C61534   7.197   2.833   3.090  0.4236 -0.4595 -0.3404
  467MOL0     C61535   7.050   2.804   3.063 -0.6546  0.4016 -0.4764
  467MOL0     O61536   6.965   2.868   3.157 -0.2947  0.4259 -0.0416
  467MOL0     C61537   6.830   2.846   3.140 -0.4241 -0.7608  0.3839
  467MOL0     C61538   6.756   2.727   3.170 -0.3866 -0.5407  0.2391
  467MOL0     C61539   6.619   2.720   3.150 -0.4346  0.3128 -0.7598
  467MOL0     C61540   6.550   2.835   3.117  0.5396  0.2541 -0.6507
  467MOL0     C61541   6.401   2.837   3.100 -0.0845  0.8890 -0.5062
  467MOL0     O61542   6.331   2.750   3.174  0.1746  0.5901 -0.1576
  467MOL0     C61543   6.204   2.782   3.192  0.9861  0.0516  0.4122
  467MOL0     C61544   6.114   2.707   3.121 -0.1658 -0.8006  1.0416
  467MOL0     C61545   5.972   2.730   3.131  0.6894 -0.2427  0.2943
  467MOL0     C61546   5.923   2.828   3.213  0.3307  0.2928  0.3464
  467MOL0     O61547   5.783   2.842   3.224  0.5158  0.2587 -0.5231
  467MOL0     C61548   5.724   2.944   3.305  0.0522  0.4926  0.1647
  467MOL0     C61549   5.569   2.935   3.277  0.3361 -0.3567 -0.3745
  467MOL0     C61550   5.500   3.032   3.364  0.1814 -0.3106  0.7971
  467MOL0     C61551   5.350   3.039   3.347  0.5789  0.4447 -0.5207
  467MOL0     C61552   5.294   3.143   3.442 -0.4753  0.7295 -0.6543
  467MOL0     C61553   5.142   3.131   3.444  0.2175  0.1755  0.1036
  467MOL0     C61554   5.071   3.240   3.530 -0.4228 -0.8456 -0.4062
  467MOL0     C61555   5.017   3.361   3.450  0.1060  0.6182  0.6018
  467MOL0    Cl61556   4.841   3.327   3.422  0.0562 -0.1365 -0.2654
  467MOL0     C61557   6.014   2.897   3.292 -0.5887  0.0593  0.3555
  467MOL0     C61558   6.153   2.881   3.282 -0.1360  0.2133  0.3954
  467MOL0     O61559   6.355   2.926   3.031  0.5497 -1.0422  0.4246
  467MOL0     C61560   6.623   2.958   3.091  0.5033  0.8067  0.9864
  467MOL0     C61561   6.760   2.957   3.091 -0.4521 -1.5932  0.2459
  467MOL0     N61562   7.568   2.813   2.811  0.6907  0.2205 -0.1006
  467MOL0     N61563   7.668   2.753   2.765  0.6430 -0.5824  0.1310
  467MOL0     C61564   9.015   2.520   3.057  0.6422  0.3269  0.1409
  467MOL0     C61565   9.139   2.562   3.099 -0.5144 -0.7244  0.6120
  467MOL0     C61566   9.504   2.865   3.150 -0.5587  0.5058 -0.0985
  467MOL0     C61567   9.577   2.977   3.144 -0.3503 -0.1079  0.6777
  467MOL0     C61568   9.713   2.994   3.120  0.4380 -0.5965 -0.7661
  467MOL0     C61569   9.789   2.885   3.136  0.1429  0.6705  1.1684
  467MOL0     O61570   9.924   2.899   3.128 -0.4692  0.5050  0.0558
  467MOL0     C61571   9.991   2.955   3.011 -0.2892  1.0422  0.6205
  467MOL0     C61572  10.108   3.062   3.048  0.0698  0.4946  0.7016
  467MOL0     C61573  10.041   3.177   3.118 -0.1836 -0.3781 -0.4282
  467MOL0     C61574  10.158   3.279   3.155  0.0039 -0.2144  0.1308
  467MOL0     C61575  10.249   3.220   3.254 -0.0502 -0.0612 -1.1170
  467MOL0     C61576  10.324   3.166   3.338  0.1216  0.5182 -0.4511
  467MOL0     C61577   9.731   2.760   3.161 -0.4777 -0.2003  0.4199
  467MOL0     C61578   9.588   2.750   3.159  0.4192  0.0707  0.3903
  467MOL0     H61579   9.092   2.896   3.068 -3.3876  0.2535 -4.0652
  467MOL0     H61580   8.875   2.831   3.002  1.4533  1.0140 -0.8268
  467MOL0     H61581   8.678   2.736   2.921  0.9136  1.7547  3.3723
  467MOL0     H61582   8.687   2.676   3.091 -0.3125  2.2784 -0.3327
  467MOL0     H61583   8.568   2.470   3.018  1.2785  0.2038  1.2347
  467MOL0     H61584   8.586   2.527   2.854  1.3324  0.5661 -0.6953
  467MOL0     H61585   8.432   2.734   2.923  0.5123 -1.3439 -0.8560
  467MOL0     H61586   8.427   2.663   3.082 -2.1711 -1.4478  0.2205
  467MOL0     H61587   8.321   2.543   2.812  0.9911 -0.8882 -0.6341
  467MOL0     H61588   8.318   2.440   2.956 -1.1085  0.0448 -0.7485
  467MOL0     H61589   8.197   2.708   2.933  1.4232  0.6581  0.6963
  467MOL0     H61590   8.181   2.612   3.072 -0.6549  0.2381 -0.5496
  467MOL0     H61591   8.038   2.448   2.973 -0.6120  0.4730  0.7415
  467MOL0     H61592   8.082   2.511   2.812  0.3454 -0.0920  0.2133
  467MOL0     H61593   7.922   2.650   3.021  0.2372 -1.0751 -0.3327
  467MOL0     H61594   7.978   2.727   2.867  2.2949 -0.8324 -0.3365
  467MOL0     H61595   7.813   2.469   2.868  1.2006  0.1417 -0.0469
  467MOL0     H61596   7.838   2.576   2.733  0.0570  0.4510 -0.3256
  467MOL0     H61597   7.648   2.620   3.070  0.9343  1.8094  1.8596
  467MOL0     H61598   7.432   2.914   3.036 -1.4157 -0.2047 -2.1292
  467MOL0     H61599   7.450   2.772   3.136  0.0763 -2.6328 -2.3717
  467MOL0     H61600   7.293   2.651   3.014 -1.5506  0.5604  2.9443
  467MOL0     H61601   7.270   2.793   2.901 -1.1043 -0.1382  0.7981
  467MOL0     H61602   7.220   2.810   3.195 -1.7224  1.6700  0.6899
  467MOL0     H61603   7.224   2.939   3.093 -0.3738 -0.2644  2.2428
  467MOL0     H61604   7.034   2.696   3.061 -0.2584  0.3404 -1.6851
  467MOL0     H61605   7.032   2.847   2.964 -1.1015  3.0079  0.6537
  467MOL0     H61606   6.790   2.637   3.220 -0.0280 -1.3143 -1.3125
  467MOL0     H61607   6.552   2.641   3.183  0.1319 -0.3817 -1.2399
  467MOL0     H61608   6.150   2.627   3.057  1.9808  1.3423 -0.6052
  467MOL0     H61609   5.898   2.668   3.081  1.4153 -0.6753 -0.2631
  467MOL0     H61610   5.772   3.041   3.291 -0.7408  0.9486  0.4977
  467MOL0     H61611   5.729   2.917   3.411  4.6241 -1.3414 -0.3203
  467MOL0     H61612   5.545   2.834   3.312  0.0816 -0.2545 -0.2524
  467MOL0     H61613   5.539   2.954   3.174 -3.1379 -2.8956 -0.0134
  467MOL0     H61614   5.539   3.132   3.342  0.0056 -0.5095 -0.5302
  467MOL0     H61615   5.520   3.004   3.468  4.1846  0.8351  0.5023
  467MOL0     H61616   5.310   3.062   3.248 -1.8834  0.5239  0.4141
  467MOL0     H61617   5.306   2.941   3.367 -1.0481  1.6298  2.2105
  467MOL0     H61618   5.324   3.245   3.417 -2.8973  2.3646  2.3713
  467MOL0     H61619   5.335   3.116   3.540  1.8181 -0.6241 -1.8949
  467MOL0     H61620   5.116   3.030   3.475  0.0899  0.1564 -0.0598
  467MOL0     H61621   5.109   3.156   3.342  0.0320  5.3952  1.1541
  467MOL0     H61622   4.990   3.202   3.593 -1.0252  2.5102  1.0268
  467MOL0     H61623   5.155   3.267   3.594 -0.7545 -0.5305 -0.1059
  467MOL0     H61624   5.057   3.367   3.349  0.6066 -1.7009  0.5932
  467MOL0     H61625   5.030   3.458   3.499 -2.2807  0.5214  1.5448
  467MOL0     H61626   5.980   2.978   3.356  0.1054  0.3379  0.3872
  467MOL0     H61627   6.220   2.939   3.345  0.2655 -0.1987  0.3579
  467MOL0     H61628   6.570   3.048   3.061 -0.2475  0.1251  0.2040
  467MOL0     H61629   6.805   3.053   3.066  1.0839 -2.2221  0.4984
  467MOL0     H61630   8.978   2.418   3.063 -1.9802  1.0147 -2.2503
  467MOL0     H61631   9.211   2.484   3.121  1.0906  0.2344 -0.9853
  467MOL0     H61632   9.512   3.062   3.158  0.4160  0.8653 -1.2509
  467MOL0     H61633   9.774   3.084   3.119  3.4629 -2.4700  0.2178
  467MOL0     H61634   9.919   3.006   2.946 -1.4872  0.3730  1.3964
  467MOL0     H61635  10.035   2.872   2.955 -2.9154 -0.6726  0.9313
  467MOL0     H61636  10.177   3.007   3.111  1.3304 -0.1040 -1.1042
  467MOL0     H61637  10.153   3.108   2.959 -1.8440 -1.4750 -1.4374
  467MOL0     H61638   9.995   3.140   3.210 -2.2296  0.6704 -0.9598
  467MOL0     H61639   9.964   3.213   3.049 -0.0460 -0.2070 -0.4919
  467MOL0     H61640  10.234   3.301   3.080  0.1273  0.5157  0.4574
  467MOL0     H61641  10.128   3.380   3.185  2.4552  0.3983  0.7492
  467MOL0     H61642  10.373   3.112   3.417 -0.3991 -0.3623 -0.7284
  467MOL0     H61643   9.801   2.678   3.155  0.0380  0.3206 -2.1332
  467MOL0     H61644   9.539   2.654   3.151  3.5756 -1.6648  0.2947
  468MOL0     O61645   0.167   6.115   5.368 -0.3258  0.1768 -0.1668
  468MOL0     C61646   0.154   6.235   5.379 -0.0220 -0.3367  0.0358
  468MOL0     O61647   0.036   6.304   5.380  0.0701 -0.1756 -0.2212
  468MOL0     C61648  -0.074   6.227   5.361 -0.1725 -0.9185  0.5498
  468MOL0     C61649  -0.130   6.149   5.454 -0.0223  0.4485 -0.5998
  468MOL0     C61650  -0.232   6.062   5.424 -0.6034 -0.2226 -0.5365
  468MOL0     C61651  -0.289   6.062   5.299 -0.1279 -0.2367  0.9223
  468MOL0     O61652  -0.389   5.976   5.266  0.2306  0.3130  0.3330
  468MOL0     C61653  -0.353   5.841   5.245 -0.5292 -0.5219 -0.5133
  468MOL0     C61654  -0.430   5.757   5.351  0.1489  0.2175 -0.0900
  468MOL0     C61655  -0.584   5.755   5.335 -0.3345  0.0026 -0.1284
  468MOL0     C61656  -0.647   5.831   5.455 -0.9269 -0.0150 -0.6233
  468MOL0     C61657  -0.786   5.876   5.416  0.1643  0.2099 -0.1170
  468MOL0     C61658  -0.875   5.898   5.542 -1.0901  0.1690  0.4868
  468MOL0     C61659  -1.011   5.962   5.510  0.1878  0.0232  0.6634
  468MOL0     C61660  -1.076   5.998   5.650 -0.3429  0.5474  0.7560
  468MOL0     N61661  -1.135   5.880   5.722 -0.1870 -0.0652 -0.5910
  468MOL0     C61662  -1.251   5.808   5.686 -0.2427  0.3235  0.1897
  468MOL0     C61663  -1.250   5.695   5.766  0.0118  0.4551 -0.3257
  468MOL0     C61664  -1.348   5.585   5.766 -0.0189 -0.6033 -0.6994
  468MOL0     C61665  -1.383   5.523   5.903  0.8680 -0.4550  0.3836
  468MOL0     C61666  -1.508   5.428   5.879 -0.4904 -0.0998  0.4716
  468MOL0     C61667  -1.636   5.507   5.909 -0.0475 -0.4894 -0.2320
  468MOL0     O61668  -1.741   5.417   5.887  0.0002 -0.6151 -0.7665
  468MOL0     C61669  -1.865   5.432   5.947  0.3308 -0.2009 -0.4247
  468MOL0     C61670  -1.895   5.534   6.044 -0.7111  0.3663 -0.4582
  468MOL0     C61671  -2.022   5.537   6.104 -0.3462 -0.4207  0.1156
  468MOL0     C61672  -2.124   5.455   6.056 -0.8118  0.7410 -0.2481
  468MOL0     C61673  -2.257   5.453   6.126  0.1809 -0.1901 -0.4519
  468MOL0     O61674  -2.287   5.543   6.216  0.0578  0.8341  0.2469
  468MOL0     C61675  -2.411   5.547   6.273  0.4158  0.3869  0.3240
  468MOL0     C61676  -2.518   5.630   6.223 -1.2534  0.8279 -0.7325
  468MOL0     C61677  -2.644   5.622   6.283 -0.6347 -0.0276 -0.4969
  468MOL0     C61678  -2.657   5.566   6.415  0.2567  0.6252  0.2351
  468MOL0     O61679  -2.775   5.565   6.485  0.1638  0.2375 -0.1563
  468MOL0     C61680  -2.869   5.668   6.449  0.3359 -0.4207 -0.9161
  468MOL0     C61681  -2.993   5.653   6.535 -0.4973  0.3020 -0.1199
  468MOL0     C61682  -3.081   5.773   6.497  0.2484  0.4917 -0.0127
  468MOL0     C61683  -3.194   5.767   6.597  0.9813 -0.0625 -0.0636
  468MOL0     C61684  -3.287   5.875   6.554 -0.7096 -0.4485 -0.2791
  468MOL0     C61685  -3.413   5.886   6.647  0.3106  0.4230 -0.1062
  468MOL0     C61686  -3.367   5.894   6.798  0.2843  0.3025  0.0401
  468MOL0     C61687  -3.464   5.978   6.875 -0.3017  0.5469 -0.3472
  468MOL0    Cl61688  -3.498   6.144   6.802 -0.1441 -0.0452 -0.2562
  468MOL0     C61689  -2.557   5.475   6.454  0.2553 -0.1701  0.1434
  468MOL0     C61690  -2.433   5.464   6.384 -0.2113 -0.3781 -0.0976
  468MOL0     O61691  -2.333   5.366   6.080 -0.4585 -0.5468 -0.1341
  468MOL0     C61692  -2.096   5.351   5.963 -0.4817  0.1768 -0.3817
  468MOL0     C61693  -1.972   5.348   5.906 -0.2110  0.3015 -1.1854
  468MOL0     N61694  -1.140   5.705   5.850 -0.9847  0.5306  0.1115
  468MOL0     N61695  -1.077   5.810   5.822 -0.3141 -0.1419  0.0829
  468MOL0     C61696  -0.247   6.153   5.204 -0.0353 -0.2703  0.4595
  468MOL0     C61697  -0.130   6.226   5.230 -0.3274 -0.2364 -0.0727
  468MOL0     C61698   0.282   6.305   5.407  0.1413  0.0415 -0.7063
  468MOL0     C61699   0.411   6.254   5.368 -0.4646  0.0434 -0.1807
  468MOL0     C61700   0.534   6.323   5.397  0.0072  0.3367  0.4439
  468MOL0     C61701   0.529   6.446   5.459  0.0542 -0.0174  0.4001
  468MOL0     O61702   0.652   6.505   5.481  0.7295  0.5980 -0.2225
  468MOL0     C61703   0.664   6.643   5.515 -0.6838 -0.2462 -0.1886
  468MOL0     C61704   0.810   6.681   5.526  0.2372  0.5614 -0.1314
  468MOL0     C61705   0.885   6.626   5.653  0.4438  0.3406  0.1099
  468MOL0     C61706   0.836   6.682   5.793 -0.4122 -0.2769 -0.7425
  468MOL0     C61707   0.931   6.663   5.902 -0.6223  0.3125 -1.2122
  468MOL0     C61708   0.999   6.638   5.999  0.4167  1.1062  0.4741
  468MOL0     C61709   0.402   6.499   5.487  0.2726 -0.0492  0.2615
  468MOL0     C61710   0.278   6.436   5.460 -0.5523 -0.4366  0.3444
  468MOL0     H61711  -0.091   6.132   5.554 -0.1924 -0.9968 -0.7467
  468MOL0     H61712  -0.244   5.991   5.505  3.0045  0.4520  0.7866
  468MOL0     H61713  -0.245   5.827   5.255 -0.3169  1.6852  0.9849
  468MOL0     H61714  -0.385   5.806   5.147 -2.6238 -2.5242  0.7792
  468MOL0     H61715  -0.401   5.781   5.453  0.6780 -0.9715  0.0619
  468MOL0     H61716  -0.402   5.652   5.337  0.2884  0.1323  0.7710
  468MOL0     H61717  -0.626   5.654   5.336 -2.1593  0.6851 -1.7852
  468MOL0     H61718  -0.611   5.803   5.240 -0.9457  1.2997  0.6786
  468MOL0     H61719  -0.654   5.772   5.547  3.1213  1.8535  1.1215
  468MOL0     H61720  -0.582   5.914   5.484  0.0116 -0.6079 -0.9759
  468MOL0     H61721  -0.828   5.805   5.344  2.5196 -2.4151  0.9292
  468MOL0     H61722  -0.785   5.975   5.369 -1.5384  0.6541  0.6641
  468MOL0     H61723  -0.815   5.962   5.607 -1.2392  0.7651  0.0529
  468MOL0     H61724  -0.894   5.803   5.592  2.0937  0.4498  2.5251
  468MOL0     H61725  -0.985   6.053   5.456  1.7798  0.1934  1.6583
  468MOL0     H61726  -1.072   5.902   5.442  3.5543  1.2398 -3.8643
  468MOL0     H61727  -1.158   6.066   5.625 -0.2384  0.2177 -0.5639
  468MOL0     H61728  -1.000   6.054   5.705 -0.5437  1.0139  0.5691
  468MOL0     H61729  -1.328   5.830   5.613  0.3822 -0.9956 -0.9056
  468MOL0     H61730  -1.320   5.503   5.700  1.1177 -2.4594  1.8898
  468MOL0     H61731  -1.440   5.626   5.723  0.3156 -0.1377 -0.9764
  468MOL0     H61732  -1.407   5.587   5.988  0.8491 -1.8446  1.4609
  468MOL0     H61733  -1.302   5.464   5.946  1.9044  0.9124  0.3744
  468MOL0     H61734  -1.501   5.381   5.780 -0.2196 -0.7490  0.7957
  468MOL0     H61735  -1.504   5.337   5.938 -0.5485 -2.3694 -2.7472
  468MOL0     H61736  -1.660   5.588   5.840  1.0210 -0.6716 -0.8347
  468MOL0     H61737  -1.633   5.536   6.014 -1.1338 -1.6676  0.1589
  468MOL0     H61738  -1.819   5.586   6.101 -0.0673 -1.9954  1.0099
  468MOL0     H61739  -2.045   5.607   6.183  1.1884  0.3627 -0.0963
  468MOL0     H61740  -2.495   5.678   6.128  0.0915 -0.9633 -1.3798
  468MOL0     H61741  -2.727   5.684   6.250  0.1111  2.0811  1.3427
  468MOL0     H61742  -2.891   5.647   6.344  0.1681 -2.9171 -0.4356
  468MOL0     H61743  -2.821   5.766   6.455 -0.0402 -0.2014 -1.4258
  468MOL0     H61744  -2.972   5.649   6.643 -0.1402  1.0964 -0.1519
  468MOL0     H61745  -3.052   5.563   6.517  0.4440 -0.0224 -1.7762
  468MOL0     H61746  -3.107   5.768   6.391  1.3812 -0.0583 -0.2808
  468MOL0     H61747  -3.031   5.869   6.514 -0.9217  1.4851 -1.8141
  468MOL0     H61748  -3.246   5.672   6.585  0.9739  0.0183 -0.7115
  468MOL0     H61749  -3.152   5.769   6.698 -0.1838  1.6624  0.4427
  468MOL0     H61750  -3.320   5.854   6.452  0.6973 -0.8755 -0.6723
  468MOL0     H61751  -3.241   5.974   6.557 -2.2632  0.2804  1.7220
  468MOL0     H61752  -3.472   5.794   6.637  1.1046 -0.0793 -0.2333
  468MOL0     H61753  -3.488   5.961   6.619 -0.9305 -0.6143  0.3445
  468MOL0     H61754  -3.359   5.793   6.838 -0.2593 -0.5815 -1.9295
  468MOL0     H61755  -3.265   5.934   6.797  0.3901  0.1790 -2.7831
  468MOL0     H61756  -3.422   5.983   6.975  2.7357 -0.5092 -1.4585
  468MOL0     H61757  -3.561   5.926   6.872 -0.4905  0.9176 -2.5961
  468MOL0     H61758  -2.581   5.404   6.533  2.5260 -1.4770 -0.2624
  468MOL0     H61759  -2.351   5.401   6.417  0.3056 -0.1731 -0.9578
  468MOL0     H61760  -2.163   5.277   5.920  1.4766 -1.6825 -0.4059
  468MOL0     H61761  -1.936   5.275   5.834 -1.2721  1.3217 -2.8116
  468MOL0     H61762  -0.283   6.156   5.101  2.5018  2.4253 -0.5065
  468MOL0     H61763  -0.092   6.291   5.151 -1.4305  1.6353  0.8780
  468MOL0     H61764   0.409   6.160   5.314 -3.6208 -0.0056 -0.1690
  468MOL0     H61765   0.631   6.282   5.371  0.6860  3.1460 -1.9580
  468MOL0     H61766   0.612   6.659   5.609  0.2153  1.4946  0.0646
  468MOL0     H61767   0.616   6.709   5.442  0.3147  2.3329  1.3625
  468MOL0     H61768   0.845   6.644   5.430  1.1339  0.3662  0.2574
  468MOL0     H61769   0.819   6.790   5.536 -2.2335  0.7013  1.3637
  468MOL0     H61770   0.989   6.650   5.633 -0.0303  0.9248 -1.9004
  468MOL0     H61771   0.878   6.516   5.652  2.0512  0.2225 -1.3980
  468MOL0     H61772   0.834   6.788   5.766  1.1949  0.5766  2.1285
  468MOL0     H61773   0.738   6.640   5.818 -0.2472  1.2311  2.8981
  468MOL0     H61774   1.058   6.619   6.087  1.2560  1.5903  0.0314
  468MOL0     H61775   0.392   6.591   5.543  0.2270  0.7091 -0.9478
  468MOL0     H61776   0.189   6.494   5.480  0.5865  1.3034  0.5904
  469MOL0     O61777   2.794   1.262   7.674 -0.0828 -0.2849 -0.9879
  469MOL0     C61778   2.833   1.210   7.572 -0.2798 -0.1469 -0.1064
  469MOL0     O61779   2.798   1.084   7.537 -0.1012 -0.0532  0.4342
  469MOL0     C61780   2.664   1.048   7.548 -0.1021  0.3621 -0.6445
  469MOL0     C61781   2.638   0.909   7.581  0.2766 -0.7568 -0.2148
  469MOL0     C61782   2.503   0.869   7.604  0.6387  0.8024  0.1566
  469MOL0     C61783   2.397   0.960   7.587 -0.2843  0.1055 -0.6541
  469MOL0     O61784   2.267   0.938   7.610 -0.4169 -0.4432 -0.4161
  469MOL0     C61785   2.228   0.801   7.626 -0.0422 -0.1518  0.6965
  469MOL0     C61786   2.078   0.798   7.616  0.0890  0.0298  0.0098
  469MOL0     C61787   2.008   0.887   7.720  0.7840  0.6181  0.0021
  469MOL0     C61788   1.856   0.847   7.715 -0.1765 -0.1886  0.0506
  469MOL0     C61789   1.759   0.914   7.814 -0.4696  0.9994  0.7034
  469MOL0     C61790   1.615   0.892   7.763  0.7005  0.3079 -0.5261
  469MOL0     C61791   1.507   0.948   7.866  0.4815 -0.0967  0.5995
  469MOL0     C61792   1.362   0.914   7.810  0.4144 -1.0672 -0.3702
  469MOL0     N61793   1.269   0.936   7.910 -0.2170 -0.2724  0.4801
  469MOL0     C61794   1.239   1.055   7.961 -0.0063  0.1107 -0.5657
  469MOL0     C61795   1.121   1.045   8.026 -1.0208  0.0442 -0.0119
  469MOL0     C61796   1.057   1.134   8.133  0.2386  0.1761 -0.3155
  469MOL0     C61797   1.159   1.225   8.195  0.2428  0.1959 -0.3190
  469MOL0     C61798   1.109   1.339   8.287 -0.1105  0.0909 -0.4919
  469MOL0     C61799   1.045   1.270   8.403  0.0584  1.0726  0.4796
  469MOL0     O61800   0.911   1.235   8.363 -0.1860 -0.7816 -0.0979
  469MOL0     C61801   0.841   1.153   8.451  0.2594 -0.3913  0.1414
  469MOL0     C61802   0.882   1.081   8.561 -0.5486  0.2643 -0.4732
  469MOL0     C61803   0.803   1.002   8.641 -0.6994  0.4370  0.3073
  469MOL0     C61804   0.674   0.978   8.597 -0.4988  0.5201  0.3345
  469MOL0     C61805   0.588   0.885   8.663 -0.0193  0.0082  0.4571
  469MOL0     O61806   0.467   0.862   8.607  0.0542  0.0650 -0.2125
  469MOL0     C61807   0.393   0.753   8.646 -0.3234 -0.6323 -1.0186
  469MOL0     C61808   0.434   0.617   8.643 -0.4943 -0.6253 -0.4145
  469MOL0     C61809   0.361   0.516   8.708  0.1972 -0.4119  0.2108
  469MOL0     C61810   0.239   0.547   8.769 -0.6862 -0.5202 -0.0226
  469MOL0     O61811   0.156   0.462   8.834  0.5851 -0.1641 -0.2185
  469MOL0     C61812   0.156   0.326   8.787  0.4548 -0.0975  0.4609
  469MOL0     C61813   0.047   0.253   8.846 -0.1462 -1.4172  0.9847
  469MOL0     C61814   0.063   0.100   8.856 -0.4139 -0.0449  1.1179
  469MOL0     C61815  -0.052   0.033   8.788 -0.8296  1.7686  0.0319
  469MOL0     C61816  -0.044  -0.124   8.778  0.3415  0.3767 -0.2198
  469MOL0     C61817  -0.163  -0.198   8.695 -0.0334  0.3957  0.0361
  469MOL0     C61818  -0.289  -0.200   8.780 -0.1228 -0.0356  0.0881
  469MOL0     C61819  -0.381  -0.307   8.730  0.1162  0.1545 -0.3836
  469MOL0    Cl61820  -0.526  -0.309   8.832 -0.0435 -0.3168  0.3666
  469MOL0     C61821   0.192   0.678   8.756 -0.0784 -0.1795 -0.2074
  469MOL0     C61822   0.268   0.781   8.703  0.4447  0.8267 -0.6563
  469MOL0     O61823   0.626   0.812   8.758 -0.4832 -0.8218  0.0525
  469MOL0     C61824   0.629   1.048   8.486 -0.8021  0.3173  0.4486
  469MOL0     C61825   0.710   1.137   8.416 -0.5184  0.0239 -0.1105
  469MOL0     N61826   1.076   0.922   7.991 -0.4263 -1.0022 -0.5239
  469MOL0     N61827   1.168   0.852   7.941 -0.2446 -0.1149 -0.3016
  469MOL0     C61828   2.422   1.088   7.538  0.1131 -0.0367 -0.0448
  469MOL0     C61829   2.554   1.132   7.512 -0.1025 -0.5323 -0.1726
  469MOL0     C61830   2.930   1.285   7.481 -0.3085  0.3922 -0.3621
  469MOL0     C61831   2.954   1.424   7.494  1.2288  0.5976 -0.7980
  469MOL0     C61832   3.042   1.491   7.411 -0.4454 -0.3856 -0.1907
  469MOL0     C61833   3.126   1.419   7.324  0.1774  0.0726  0.4919
  469MOL0     O61834   3.208   1.474   7.232 -0.1608  0.1657 -0.0107
  469MOL0     C61835   3.243   1.614   7.240  0.3210 -0.3792 -0.1590
  469MOL0     C61836   3.351   1.631   7.342 -0.4589 -0.0777 -0.1044
  469MOL0     C61837   3.494   1.599   7.286 -0.5990  0.0966  0.1643
  469MOL0     C61838   3.543   1.695   7.177  0.2128 -0.2272  0.7175
  469MOL0     C61839   3.675   1.660   7.119 -0.7121  0.6609 -0.3918
  469MOL0     C61840   3.784   1.628   7.073  0.1291 -0.1985 -0.7114
  469MOL0     C61841   3.110   1.279   7.313 -0.2562  0.4716  0.3997
  469MOL0     C61842   3.011   1.215   7.381  0.0130 -0.0112  0.0038
  469MOL0     H61843   2.725   0.852   7.611 -0.4041 -0.8724  1.6467
  469MOL0     H61844   2.474   0.774   7.648  0.2965  1.5459  1.6171
  469MOL0     H61845   2.258   0.765   7.725  0.1527 -1.3094  0.2303
  469MOL0     H61846   2.269   0.728   7.556 -1.8928 -0.2251 -0.3648
  469MOL0     H61847   2.046   0.694   7.621  1.9029 -0.5390  0.7883
  469MOL0     H61848   2.033   0.835   7.524 -2.5847 -2.2460  0.2781
  469MOL0     H61849   2.014   0.989   7.681  2.3092 -0.5595 -3.2184
  469MOL0     H61850   2.057   0.869   7.816  0.5535 -0.7233 -0.1116
  469MOL0     H61851   1.826   0.875   7.614  2.8871  4.5606  0.1333
  469MOL0     H61852   1.849   0.743   7.747 -0.7701 -0.6934 -1.6562
  469MOL0     H61853   1.790   1.015   7.843 -0.7644  1.4684 -0.5696
  469MOL0     H61854   1.769   0.850   7.902  1.6172 -0.0044 -0.1813
  469MOL0     H61855   1.601   0.786   7.739 -0.5936  1.0060 -3.1367
  469MOL0     H61856   1.603   0.945   7.669 -1.3253  1.3009  0.2361
  469MOL0     H61857   1.523   0.904   7.964  1.3280 -2.4569 -0.5124
  469MOL0     H61858   1.506   1.056   7.880  1.1425  0.3861 -2.3938
  469MOL0     H61859   1.362   0.812   7.772  1.9101 -2.2061  2.3553
  469MOL0     H61860   1.338   0.988   7.733 -1.8126 -1.6829 -0.3358
  469MOL0     H61861   1.301   1.144   7.961  1.1475 -0.6693 -0.7681
  469MOL0     H61862   1.009   1.072   8.210  2.5265 -2.2370 -0.7073
  469MOL0     H61863   0.970   1.187   8.092 -0.6274 -2.7044 -2.5165
  469MOL0     H61864   1.218   1.275   8.119 -0.2453  0.7800 -0.3196
  469MOL0     H61865   1.233   1.164   8.247 -1.0320  0.2478  1.6788
  469MOL0     H61866   1.198   1.391   8.325 -1.1419  1.1626  0.5690
  469MOL0     H61867   1.040   1.412   8.242 -0.9124  0.0624  0.6341
  469MOL0     H61868   1.054   1.340   8.486 -0.5104 -1.4651  2.8361
  469MOL0     H61869   1.101   1.177   8.420  0.3881  1.0934 -0.4261
  469MOL0     H61870   0.987   1.086   8.589 -0.2816 -0.8350 -1.1884
  469MOL0     H61871   0.850   0.940   8.717  1.8069 -2.3407 -3.1428
  469MOL0     H61872   0.525   0.589   8.591 -1.0476 -0.7453 -1.3289
  469MOL0     H61873   0.395   0.414   8.716 -1.6619 -1.0908  0.0869
  469MOL0     H61874   0.247   0.275   8.822  1.1733  0.7586 -0.1153
  469MOL0     H61875   0.139   0.318   8.680 -2.8599  1.0906  0.7851
  469MOL0     H61876  -0.044   0.275   8.789 -0.3758  1.5311  2.2759
  469MOL0     H61877   0.033   0.293   8.947 -0.9702 -0.7510  0.6224
  469MOL0     H61878   0.068   0.079   8.963  1.1600 -2.9746  0.5781
  469MOL0     H61879   0.158   0.073   8.808 -2.0335 -2.8748 -0.7968
  469MOL0     H61880  -0.139   0.057   8.850 -1.6023  1.5106 -0.9389
  469MOL0     H61881  -0.060   0.068   8.685 -2.6053  0.4372 -0.3232
  469MOL0     H61882  -0.033  -0.173   8.875 -2.4517  1.1345  0.5504
  469MOL0     H61883   0.047  -0.146   8.719 -2.0258 -0.0625 -4.0860
  469MOL0     H61884  -0.135  -0.300   8.665 -2.2564  0.2803 -2.0279
  469MOL0     H61885  -0.187  -0.149   8.600 -0.6631  0.6540  0.3207
  469MOL0     H61886  -0.278  -0.202   8.889 -0.9253  2.8223  0.3245
  469MOL0     H61887  -0.349  -0.108   8.773 -1.0888 -0.6544 -0.0117
  469MOL0     H61888  -0.327  -0.401   8.744 -0.0657 -0.1707 -1.6779
  469MOL0     H61889  -0.401  -0.302   8.622 -0.7066  1.3094 -0.1977
  469MOL0     H61890   0.089   0.702   8.782  0.0103  0.5793 -0.5400
  469MOL0     H61891   0.220   0.879   8.706  0.4922  1.0738 -3.8543
  469MOL0     H61892   0.531   1.025   8.445 -0.0303 -2.5329 -0.0211
  469MOL0     H61893   0.676   1.172   8.319 -3.1997  0.6353  0.9625
  469MOL0     H61894   2.333   1.150   7.524 -2.4109 -3.2741  0.5305
  469MOL0     H61895   2.574   1.225   7.460 -1.1200 -0.1147  0.1681
  469MOL0     H61896   2.890   1.476   7.564 -0.8250 -0.1949 -2.0171
  469MOL0     H61897   3.054   1.599   7.408  1.2454 -0.5184 -3.8529
  469MOL0     H61898   3.161   1.681   7.265 -0.1722 -0.7589 -0.7166
  469MOL0     H61899   3.272   1.644   7.139  1.4072  0.0384  0.2562
  469MOL0     H61900   3.355   1.737   7.366 -0.8419 -0.5459  2.2855
  469MOL0     H61901   3.330   1.578   7.436 -1.3459 -0.1062 -0.3091
  469MOL0     H61902   3.486   1.502   7.235 -0.3621  1.2369 -2.1882
  469MOL0     H61903   3.571   1.604   7.364 -0.2280 -1.8704 -0.0087
  469MOL0     H61904   3.467   1.706   7.099  0.4258 -1.3093  0.3449
  469MOL0     H61905   3.552   1.798   7.214  0.8244  0.7193 -1.8632
  469MOL0     H61906   3.879   1.612   7.027  0.7078  2.4659 -0.6118
  469MOL0     H61907   3.179   1.222   7.252 -0.0087  0.7076  0.4541
  469MOL0     H61908   3.010   1.107   7.368  2.3745 -0.1423  0.4696
  470MOL0     O61909   7.942   5.428   7.365 -0.5101 -0.3461 -0.6099
  470MOL0     C61910   7.898   5.328   7.314  0.3539 -0.8166 -0.2424
  470MOL0     O61911   7.767   5.312   7.288  0.4355 -0.0981  0.0952
  470MOL0     C61912   7.665   5.401   7.317 -0.5173 -0.3197  0.2242
  470MOL0     C61913   7.537   5.369   7.266 -0.2611  0.3584  0.6562
  470MOL0     C61914   7.420   5.433   7.304  0.0115  0.0492 -0.0800
  470MOL0     C61915   7.424   5.542   7.386  0.7754 -0.5461 -0.4596
  470MOL0     O61916   7.298   5.600   7.419 -0.2358  0.6600  0.4859
  470MOL0     C61917   7.315   5.705   7.504  0.6166  0.1653  0.1662
  470MOL0     C61918   7.163   5.771   7.517 -0.4765 -1.1267 -0.0509
  470MOL0     C61919   7.154   5.890   7.616  0.2833 -0.6361  0.1136
  470MOL0     C61920   7.011   5.950   7.623 -0.6298 -0.3446 -0.0288
  470MOL0     C61921   7.010   6.069   7.721 -0.0334 -0.7021 -0.1115
  470MOL0     C61922   6.868   6.129   7.725  0.9230 -0.8266  0.2226
  470MOL0     C61923   6.843   6.222   7.841 -0.0143  0.3254  0.7439
  470MOL0     C61924   6.884   6.367   7.813  0.7876 -0.3186  0.8363
  470MOL0     N61925   6.792   6.453   7.726 -0.3198  0.0865  0.0641
  470MOL0     C61926   6.818   6.545   7.626  0.5108  0.0005 -0.6342
  470MOL0     C61927   6.699   6.586   7.579 -0.9642 -0.5360  0.0892
  470MOL0     C61928   6.676   6.698   7.473  0.4604  0.4726 -0.2096
  470MOL0     C61929   6.737   6.824   7.517 -0.6827 -0.1837 -0.2955
  470MOL0     C61930   6.651   6.889   7.625 -0.7835 -0.1822 -0.3027
  470MOL0     C61931   6.508   6.937   7.585  0.0118  0.0811  0.0986
  470MOL0     O61932   6.482   7.044   7.674 -0.3617 -0.0534 -0.1118
  470MOL0     C61933   6.352   7.070   7.705  0.6794 -0.5804  0.2629
  470MOL0     C61934   6.236   7.009   7.651  1.1275  0.2392  1.0674
  470MOL0     C61935   6.105   7.059   7.689 -0.9826 -0.0820 -0.5993
  470MOL0     C61936   6.096   7.161   7.782  0.4538 -0.9850 -0.5324
  470MOL0     C61937   5.963   7.225   7.808 -0.2725 -0.1098 -0.8831
  470MOL0     O61938   5.958   7.323   7.897 -0.6038  0.1479 -0.3265
  470MOL0     C61939   5.835   7.361   7.937  0.5846 -0.4441  0.0335
  470MOL0     C61940   5.748   7.290   8.027  0.0591 -0.5642 -0.5419
  470MOL0     C61941   5.629   7.341   8.074 -0.0854  0.0605 -0.0662
  470MOL0     C61942   5.573   7.454   8.014  0.7077  0.2712 -1.0067
  470MOL0     O61943   5.455   7.510   8.051  0.1196  0.2732 -0.6015
  470MOL0     C61944   5.403   7.482   8.186 -0.0603  0.1139  0.6269
  470MOL0     C61945   5.299   7.597   8.204  0.5895 -0.4926  0.0365
  470MOL0     C61946   5.236   7.582   8.341 -0.2398  0.1309  0.7042
  470MOL0     C61947   5.171   7.716   8.393 -0.2037 -0.2561  0.3977
  470MOL0     C61948   5.074   7.772   8.296  0.1538  0.0557 -0.4617
  470MOL0     C61949   4.949   7.685   8.255  0.2820  1.2656  0.4694
  470MOL0     C61950   4.858   7.624   8.367 -0.4832  0.0367 -0.3298
  470MOL0     C61951   4.751   7.536   8.300 -0.3279  0.0445 -0.4748
  470MOL0    Cl61952   4.641   7.477   8.424  0.1779 -0.1244 -0.1124
  470MOL0     C61953   5.639   7.519   7.916 -0.5091  0.0991 -0.9065
  470MOL0     C61954   5.770   7.470   7.877 -0.3239 -0.1760  0.4251
  470MOL0     O61955   5.867   7.170   7.751  0.1710  0.2372 -0.0869
  470MOL0     C61956   6.200   7.210   7.850 -0.4829  0.0569 -0.1831
  470MOL0     C61957   6.330   7.169   7.805  0.4095 -0.2591 -0.5271
  470MOL0     N61958   6.595   6.522   7.649  0.4478 -0.0104  0.4680
  470MOL0     N61959   6.654   6.440   7.730  0.2687  0.8160  0.6253
  470MOL0     C61960   7.552   5.572   7.439 -0.8480 -0.1097 -0.7995
  470MOL0     C61961   7.671   5.510   7.406  0.2879  0.5002  0.2192
  470MOL0     C61962   7.986   5.229   7.272 -0.5918 -0.4162 -0.2606
  470MOL0     C61963   7.933   5.103   7.255 -0.5197 -0.4186  0.1191
  470MOL0     C61964   8.017   4.995   7.215 -0.4606  0.1571  0.5595
  470MOL0     C61965   8.153   5.008   7.200  0.3467 -0.1377  0.6021
  470MOL0     O61966   8.251   4.911   7.166 -0.4054  0.2668 -0.0348
  470MOL0     C61967   8.213   4.784   7.113 -0.4722  0.7391  0.1657
  470MOL0     C61968   8.189   4.669   7.212 -0.4823  0.6232 -0.5111
  470MOL0     C61969   8.302   4.658   7.307 -0.2147  0.1745  0.0410
  470MOL0     C61970   8.423   4.577   7.262  0.2561  0.0212 -0.0548
  470MOL0     C61971   8.509   4.553   7.376 -0.2909 -0.1905 -0.5948
  470MOL0     C61972   8.590   4.552   7.466  0.7141 -0.5022  0.3685
  470MOL0     C61973   8.211   5.135   7.219  0.1942  0.3476 -0.0794
  470MOL0     C61974   8.130   5.244   7.258  0.0425  0.0023 -0.0609
  470MOL0     H61975   7.533   5.292   7.190 -2.5088  0.1155  0.9651
  470MOL0     H61976   7.331   5.399   7.253 -0.2281 -1.6304  1.3514
  470MOL0     H61977   7.374   5.784   7.455  1.8434 -0.9832 -0.2784
  470MOL0     H61978   7.365   5.676   7.597  1.0427 -2.7183 -0.8703
  470MOL0     H61979   7.090   5.695   7.546 -0.0267 -2.7393 -2.7604
  470MOL0     H61980   7.141   5.805   7.415  1.7140  0.5906 -0.0183
  470MOL0     H61981   7.227   5.962   7.578  1.6833 -3.3476 -2.9101
  470MOL0     H61982   7.189   5.855   7.713 -0.8071 -0.2088  0.6726
  470MOL0     H61983   6.983   5.970   7.519 -2.6710  0.5309  0.6409
  470MOL0     H61984   6.942   5.876   7.665 -0.2332 -1.6572 -1.5944
  470MOL0     H61985   7.078   6.142   7.677 -1.4358  0.5962 -0.1817
  470MOL0     H61986   7.037   6.040   7.823  1.4228  0.3431 -0.1626
  470MOL0     H61987   6.793   6.051   7.742 -0.7711  0.8498  0.9173
  470MOL0     H61988   6.837   6.179   7.633  1.0849 -0.7178  0.2278
  470MOL0     H61989   6.738   6.216   7.873 -0.5639 -1.3517 -1.1899
  470MOL0     H61990   6.902   6.187   7.927  1.4141 -0.4554 -0.5101
  470MOL0     H61991   6.982   6.361   7.764  0.1237 -1.5755 -0.4205
  470MOL0     H61992   6.901   6.416   7.909  0.8816 -0.6318  0.9811
  470MOL0     H61993   6.923   6.572   7.612  0.2199  2.6033  1.4332
  470MOL0     H61994   6.570   6.705   7.445  0.0463 -0.5824  0.9413
  470MOL0     H61995   6.727   6.659   7.385 -1.2507 -2.9783  0.1454
  470MOL0     H61996   6.764   6.885   7.431  1.7918  1.4620  1.5215
  470MOL0     H61997   6.830   6.792   7.564  0.6175 -0.4940 -2.8993
  470MOL0     H61998   6.648   6.836   7.721  1.8715  0.4707  0.2171
  470MOL0     H61999   6.711   6.976   7.651 -0.0248 -0.6083 -0.5921
  470MOL0     H62000   6.438   6.853   7.596  2.0524 -1.4116  2.9768
  470MOL0     H62001   6.509   6.973   7.482 -0.8353  1.8801  0.6864
  470MOL0     H62002   6.242   6.936   7.571 -2.5829  0.0055  0.8205
  470MOL0     H62003   6.025   7.012   7.631  2.0543 -0.4225 -5.0132
  470MOL0     H62004   5.781   7.193   8.062 -0.0754 -0.3229  0.2873
  470MOL0     H62005   5.574   7.285   8.149 -0.2160  0.2669 -0.0098
  470MOL0     H62006   5.483   7.489   8.260  0.2171  1.1154  0.2536
  470MOL0     H62007   5.351   7.386   8.190 -2.5832  1.3467 -0.0704
  470MOL0     H62008   5.224   7.598   8.124  1.2922  0.4079 -0.6225
  470MOL0     H62009   5.347   7.695   8.205 -3.5709  1.8041  1.2502
  470MOL0     H62010   5.306   7.542   8.415  0.9835  1.1496  0.1362
  470MOL0     H62011   5.154   7.510   8.333  0.4283 -0.4523 -1.8002
  470MOL0     H62012   5.134   7.693   8.493  4.3570 -1.5363  2.0597
  470MOL0     H62013   5.254   7.787   8.404 -0.8300  0.4058  0.9755
  470MOL0     H62014   5.130   7.797   8.205  0.6169  1.4682  0.1723
  470MOL0     H62015   5.040   7.868   8.338  0.9556 -1.1077  3.1951
  470MOL0     H62016   4.987   7.594   8.208  1.0298  2.6852 -1.8697
  470MOL0     H62017   4.876   7.727   8.184 -2.2306 -2.7851  0.3129
  470MOL0     H62018   4.922   7.567   8.435  0.5358 -0.3344 -1.5763
  470MOL0     H62019   4.806   7.699   8.428  0.6760 -0.7394  1.7170
  470MOL0     H62020   4.804   7.452   8.254  2.0475 -0.2650  2.5377
  470MOL0     H62021   4.690   7.588   8.226 -1.0405  0.8431  0.6537
  470MOL0     H62022   5.612   7.617   7.877 -0.6907  1.1771  1.6733
  470MOL0     H62023   5.827   7.530   7.806  0.3209 -1.7543 -0.4671
  470MOL0     H62024   6.199   7.285   7.928  0.6488  0.2333 -0.3228
  470MOL0     H62025   6.426   7.213   7.833  0.5554 -0.6313 -0.4389
  470MOL0     H62026   7.578   5.653   7.507  0.9915 -2.4422  1.4524
  470MOL0     H62027   7.765   5.553   7.441  1.0789 -2.0933  1.5265
  470MOL0     H62028   7.825   5.096   7.265 -0.6656  2.7708  2.3769
  470MOL0     H62029   7.977   4.896   7.201 -0.6165  0.6080 -2.9728
  470MOL0     H62030   8.301   4.755   7.053 -0.1494  1.1541  0.4347
  470MOL0     H62031   8.124   4.793   7.050 -1.0375  0.5445  0.9200
  470MOL0     H62032   8.093   4.683   7.263 -0.6192 -2.0240  0.1199
  470MOL0     H62033   8.185   4.578   7.151 -0.6799  0.0707  0.3057
  470MOL0     H62034   8.255   4.604   7.390 -1.3001  0.3193 -0.4643
  470MOL0     H62035   8.331   4.753   7.351  0.1734 -0.4417  1.1618
  470MOL0     H62036   8.393   4.483   7.214 -1.3479  0.4081  0.1109
  470MOL0     H62037   8.477   4.643   7.194 -0.6705  0.0188 -0.8087
  470MOL0     H62038   8.657   4.559   7.550 -0.7913 -0.4944  1.6286
  470MOL0     H62039   8.318   5.149   7.215  0.0109  1.7176 -0.8546
  470MOL0     H62040   8.176   5.339   7.283 -1.1936 -0.0096  2.6383
  471MOL0     O62041   6.361   3.532   6.078  0.5311 -0.3934  0.2181
  471MOL0     C62042   6.388   3.436   6.146  0.1650  0.7573 -0.1645
  471MOL0     O62043   6.303   3.348   6.197  0.3108  0.1585  0.5193
  471MOL0     C62044   6.167   3.384   6.205  0.3033  0.0150  0.2818
  471MOL0     C62045   6.080   3.280   6.174  0.3660 -0.1168  0.0465
  471MOL0     C62046   5.944   3.295   6.187  0.1629  0.5929  0.1791
  471MOL0     C62047   5.888   3.415   6.238  0.3706  0.3002 -0.1860
  471MOL0     O62048   5.750   3.425   6.270 -0.1171 -0.2252  0.0216
  471MOL0     C62049   5.669   3.306   6.239 -0.3040  1.0218 -1.0290
  471MOL0     C62050   5.703   3.186   6.330  0.2245  0.4447  0.5512
  471MOL0     C62051   5.655   3.054   6.274 -0.0418 -0.0723 -0.1202
  471MOL0     C62052   5.703   2.942   6.362 -0.6194 -0.3447 -1.0055
  471MOL0     C62053   5.620   2.819   6.343  0.3145 -0.1919  0.7454
  471MOL0     C62054   5.659   2.755   6.216  0.0670 -0.3606  0.1893
  471MOL0     C62055   5.590   2.614   6.178  0.7671  0.0781  0.6500
  471MOL0     C62056   5.434   2.634   6.148 -0.5767  0.2771 -0.5381
  471MOL0     N62057   5.407   2.727   6.038 -0.2076  0.0179  0.3972
  471MOL0     C62058   5.356   2.851   6.053 -0.6475 -0.5914 -0.1158
  471MOL0     C62059   5.385   2.906   5.936  0.4071  0.6460 -0.0625
  471MOL0     C62060   5.343   3.044   5.899  0.8217  0.7685 -0.4353
  471MOL0     C62061   5.188   3.063   5.905  0.8217 -0.6617  0.4967
  471MOL0     C62062   5.151   3.207   5.848  0.4726  0.2526  0.3347
  471MOL0     C62063   5.004   3.239   5.881  0.1084 -0.8182  0.2011
  471MOL0     O62064   4.981   3.370   5.840  0.1019 -0.3673 -0.1142
  471MOL0     C62065   4.850   3.414   5.844 -1.1312  0.9700  0.1026
  471MOL0     C62066   4.742   3.359   5.909 -1.1135 -0.2701  0.4552
  471MOL0     C62067   4.617   3.413   5.911  0.1842 -0.4341 -0.0581
  471MOL0     C62068   4.594   3.538   5.839  0.9706 -0.3546 -0.5459
  471MOL0     C62069   4.465   3.611   5.855 -0.6438 -0.4527  0.5074
  471MOL0     O62070   4.366   3.551   5.934  0.4470 -0.1434  0.2449
  471MOL0     C62071   4.240   3.617   5.936 -0.4944 -0.3377  0.3159
  471MOL0     C62072   4.148   3.608   5.832 -0.1033 -0.5043  0.3135
  471MOL0     C62073   4.020   3.663   5.843 -0.2192 -0.2145  0.5284
  471MOL0     C62074   3.974   3.721   5.959 -0.4032  0.5652 -0.4826
  471MOL0     O62075   3.839   3.769   5.959  0.8416  0.6788 -0.7211
  471MOL0     C62076   3.732   3.672   5.961 -1.1402  0.1461  0.1423
  471MOL0     C62077   3.601   3.742   5.934 -0.6293  0.5592 -0.4945
  471MOL0     C62078   3.581   3.850   6.045  0.4406  0.0036  0.2268
  471MOL0     C62079   3.447   3.923   6.016  0.6374 -0.4030  0.0766
  471MOL0     C62080   3.326   3.848   6.057 -0.2645  0.7178  0.3776
  471MOL0     C62081   3.192   3.924   6.028  0.5729  0.2909 -1.0502
  471MOL0     C62082   3.188   4.070   6.066 -0.5666 -0.1267 -0.4810
  471MOL0     C62083   3.208   4.111   6.215  0.1014  0.4405 -0.0714
  471MOL0    Cl62084   3.061   4.090   6.297  0.4611 -0.4075 -0.1682
  471MOL0     C62085   4.068   3.748   6.062  1.1109  0.4993 -0.1128
  471MOL0     C62086   4.195   3.682   6.053 -0.1129 -0.0904  0.2372
  471MOL0     O62087   4.455   3.710   5.779  0.4029  1.1553 -0.1660
  471MOL0     C62088   4.699   3.593   5.760  0.0902 -0.6639  0.0441
  471MOL0     C62089   4.826   3.531   5.765  0.0278 -0.2455  0.0521
  471MOL0     N62090   5.457   2.821   5.858  1.1810  0.1963  0.3389
  471MOL0     N62091   5.468   2.713   5.918 -0.2758 -0.2056 -0.3947
  471MOL0     C62092   5.971   3.527   6.261  1.0723 -0.7587  0.0257
  471MOL0     C62093   6.112   3.509   6.249  0.8485  0.0545 -0.4477
  471MOL0     C62094   6.529   3.417   6.174 -0.2094 -0.2024  0.3037
  471MOL0     C62095   6.571   3.287   6.218  1.3421 -0.2446  0.1583
  471MOL0     C62096   6.698   3.254   6.260  0.6199 -0.0741  0.6687
  471MOL0     C62097   6.800   3.355   6.243  0.4600 -0.5113 -0.0857
  471MOL0     O62098   6.923   3.332   6.271 -0.0104 -0.0648  0.4285
  471MOL0     C62099   6.972   3.209   6.315 -0.2847 -0.2083 -0.4526
  471MOL0     C62100   7.109   3.220   6.370 -0.1701 -0.4785 -0.0466
  471MOL0     C62101   7.101   3.324   6.481 -0.5339 -0.1878  0.1079
  471MOL0     C62102   7.242   3.342   6.540 -0.4319  0.2630  0.2978
  471MOL0     C62103   7.269   3.235   6.635 -0.3640  0.0624  0.4023
  471MOL0     C62104   7.297   3.172   6.735 -0.1526  0.7429 -0.6867
  471MOL0     C62105   6.763   3.485   6.195  0.5192 -0.8262 -0.7766
  471MOL0     C62106   6.631   3.515   6.160 -0.0180  0.3784  1.0000
  471MOL0     H62107   6.125   3.183   6.154  2.8696  0.6618  1.4089
  471MOL0     H62108   5.884   3.212   6.151  1.5234  1.2741 -4.1960
  471MOL0     H62109   5.675   3.286   6.132 -3.0085 -2.6713 -0.6791
  471MOL0     H62110   5.566   3.333   6.261 -0.1018 -0.0358  1.6260
  471MOL0     H62111   5.668   3.202   6.432 -1.0695  0.2027  0.1595
  471MOL0     H62112   5.811   3.182   6.348  0.5724  2.6639 -0.6373
  471MOL0     H62113   5.681   3.048   6.168 -2.2681 -1.0532 -0.6753
  471MOL0     H62114   5.546   3.056   6.274 -0.0390  0.1684 -0.0737
  471MOL0     H62115   5.811   2.925   6.356 -0.5286 -0.3721  0.5385
  471MOL0     H62116   5.682   2.969   6.466 -0.1319 -0.2115 -0.9365
  471MOL0     H62117   5.514   2.843   6.330  0.3712 -0.1700  0.3237
  471MOL0     H62118   5.620   2.745   6.425  2.0239 -0.3963  0.5977
  471MOL0     H62119   5.768   2.744   6.218  0.2968  0.5404 -2.7117
  471MOL0     H62120   5.636   2.819   6.130  1.6234  1.4187  1.0213
  471MOL0     H62121   5.643   2.567   6.094  1.8057  2.0276  0.1515
  471MOL0     H62122   5.587   2.544   6.262 -2.3741  0.5015  0.9876
  471MOL0     H62123   5.398   2.677   6.242  2.3039 -0.5512  1.0762
  471MOL0     H62124   5.389   2.535   6.139  3.8936 -2.1671  0.5390
  471MOL0     H62125   5.295   2.910   6.121 -1.1239  1.2184 -1.9949
  471MOL0     H62126   5.378   3.053   5.795 -3.5771 -0.7382 -2.2644
  471MOL0     H62127   5.400   3.121   5.954  2.5400  0.3545 -1.5477
  471MOL0     H62128   5.162   3.059   6.011  2.2476  1.8876  1.0279
  471MOL0     H62129   5.128   2.992   5.847 -0.2174 -0.1391  0.8910
  471MOL0     H62130   5.217   3.283   5.892  0.0873  1.7126 -1.4730
  471MOL0     H62131   5.166   3.202   5.740  0.9012 -2.3561  0.4604
  471MOL0     H62132   4.975   3.224   5.985 -2.6840  0.1823 -0.3534
  471MOL0     H62133   4.938   3.174   5.823 -0.2921  0.0172 -0.3061
  471MOL0     H62134   4.766   3.277   5.976  2.2124  2.1156  2.5081
  471MOL0     H62135   4.538   3.363   5.967 -1.4420  1.4359 -0.5718
  471MOL0     H62136   4.188   3.554   5.747  2.4960  2.2087 -0.3706
  471MOL0     H62137   3.953   3.640   5.761  2.0207  0.4572 -1.6391
  471MOL0     H62138   3.732   3.619   6.057 -1.7128 -1.6733 -0.8105
  471MOL0     H62139   3.756   3.610   5.873  1.9321  2.3003 -0.7330
  471MOL0     H62140   3.520   3.669   5.942  0.8336 -0.9852  1.7255
  471MOL0     H62141   3.602   3.788   5.835 -1.1036 -1.0153 -1.2668
  471MOL0     H62142   3.654   3.932   6.046 -0.6245  1.0187 -1.1112
  471MOL0     H62143   3.572   3.802   6.143  0.2014 -0.6414 -0.1098
  471MOL0     H62144   3.455   4.020   6.066  0.5296  0.3941 -1.3822
  471MOL0     H62145   3.443   3.951   5.910  0.0721  1.4932  0.5589
  471MOL0     H62146   3.332   3.833   6.166 -0.4654 -0.5859  0.2248
  471MOL0     H62147   3.322   3.750   6.010 -1.5209  0.4122  1.0768
  471MOL0     H62148   3.119   3.877   6.094  3.5371 -1.7199  1.0697
  471MOL0     H62149   3.165   3.907   5.923  0.0737  0.7114 -0.9893
  471MOL0     H62150   3.268   4.120   6.010  0.8985 -0.0301  1.5627
  471MOL0     H62151   3.097   4.113   6.023 -0.0153  1.9425  0.2891
  471MOL0     H62152   3.236   4.215   6.232 -2.9625  1.3841 -0.3327
  471MOL0     H62153   3.285   4.047   6.260  1.3594  0.0733 -2.5152
  471MOL0     H62154   4.035   3.803   6.150 -0.7494 -1.8564  0.7460
  471MOL0     H62155   4.240   3.697   6.150 -2.9987 -1.7036  1.9874
  471MOL0     H62156   4.692   3.688   5.707 -0.1511 -0.3482  0.6394
  471MOL0     H62157   4.907   3.570   5.705 -1.7504  2.4259 -0.8090
  471MOL0     H62158   5.938   3.627   6.289  0.6670 -0.0714 -2.5926
  471MOL0     H62159   6.186   3.581   6.282  1.6893 -1.6118  1.5110
  471MOL0     H62160   6.487   3.219   6.225  2.0129 -1.0588  0.5754
  471MOL0     H62161   6.727   3.153   6.286 -1.5633 -0.8039  0.4928
  471MOL0     H62162   6.989   3.137   6.234  2.1918 -0.3979  0.1451
  471MOL0     H62163   6.912   3.167   6.396 -0.4524  0.4994 -0.2064
  471MOL0     H62164   7.141   3.122   6.407  1.1038  0.7113  2.2119
  471MOL0     H62165   7.184   3.246   6.295  1.6251 -1.2842  1.3846
  471MOL0     H62166   7.017   3.294   6.544 -0.1145 -1.3235  0.1570
  471MOL0     H62167   7.063   3.418   6.441 -1.1230 -0.5585 -0.2196
  471MOL0     H62168   7.318   3.345   6.462  0.1736 -2.4591  0.6878
  471MOL0     H62169   7.255   3.433   6.600  2.0946  0.8449 -1.0159
  471MOL0     H62170   7.325   3.103   6.813 -3.6328 -1.8229 -1.4178
  471MOL0     H62171   6.833   3.568   6.196  1.0260 -1.1444  2.5916
  471MOL0     H62172   6.607   3.618   6.136 -1.5024  0.1752  1.4740
  472MOL0     O62173  10.756   5.674   8.882  0.7151 -0.5683  0.1579
  472MOL0     C62174  10.859   5.653   8.817 -0.4080  0.1882  0.3308
  472MOL0     O62175  10.863   5.622   8.684  0.4227  0.6787 -0.2051
  472MOL0     C62176  10.749   5.579   8.615 -0.7203 -0.6081  0.1093
  472MOL0     C62177  10.631   5.530   8.667 -1.1136 -0.5541 -0.2535
  472MOL0     C62178  10.513   5.502   8.589 -0.1910  0.1496 -0.6135
  472MOL0     C62179  10.522   5.514   8.448  0.1302  0.1189 -1.2402
  472MOL0     O62180  10.419   5.476   8.361 -1.5297 -0.4451 -0.0267
  472MOL0     C62181  10.324   5.386   8.416 -0.5116 -0.2732 -1.2877
  472MOL0     C62182  10.275   5.294   8.307 -0.2434  0.3101 -1.0286
  472MOL0     C62183  10.156   5.215   8.347 -0.2491 -0.2947 -0.0970
  472MOL0     C62184  10.031   5.299   8.307  0.2445  0.4770 -0.9488
  472MOL0     C62185   9.908   5.266   8.395  0.6988 -0.4868  0.2670
  472MOL0     C62186   9.780   5.338   8.336 -0.0025  0.5174 -0.2770
  472MOL0     C62187   9.709   5.247   8.233  0.0620 -0.1888  0.2612
  472MOL0     C62188   9.593   5.302   8.167  0.0260  0.1334 -0.7635
  472MOL0     N62189   9.486   5.336   8.270  0.0759  0.0660  0.6318
  472MOL0     C62190   9.405   5.249   8.346  0.7396 -0.7724  0.3511
  472MOL0     C62191   9.324   5.332   8.410  0.6224 -0.2255 -1.0603
  472MOL0     C62192   9.215   5.305   8.508  0.1930 -0.1047 -0.9153
  472MOL0     C62193   9.074   5.315   8.459 -0.5125 -0.4310  0.4629
  472MOL0     C62194   9.026   5.197   8.376  0.2258  0.4069  0.9992
  472MOL0     C62195   9.060   5.208   8.228 -0.4911  0.2523 -0.2759
  472MOL0     O62196   8.994   5.316   8.156  0.5140 -0.1153  0.1609
  472MOL0     C62197   8.865   5.291   8.106 -0.2857  1.1768 -0.2598
  472MOL0     C62198   8.778   5.177   8.139 -0.0222 -0.1455  0.7488
  472MOL0     C62199   8.641   5.184   8.113  0.1951  0.0132  0.2425
  472MOL0     C62200   8.589   5.294   8.057  0.6088  0.0264 -0.5934
  472MOL0     C62201   8.442   5.294   8.030 -1.1552 -0.3741 -0.1490
  472MOL0     O62202   8.387   5.414   8.044  0.3491  0.1494 -0.6700
  472MOL0     C62203   8.257   5.431   8.006  0.1444  0.0757 -0.1974
  472MOL0     C62204   8.150   5.350   8.070  0.4043 -0.1149  0.7350
  472MOL0     C62205   8.016   5.373   8.023 -0.2454  0.9273 -0.1756
  472MOL0     C62206   7.995   5.459   7.911  0.5893 -1.3523  0.0290
  472MOL0     O62207   7.866   5.494   7.866  0.9722 -0.1440  0.3114
  472MOL0     C62208   7.745   5.460   7.940 -0.6381 -0.8797  0.6446
  472MOL0     C62209   7.625   5.507   7.852 -0.3138  0.5488  0.1575
  472MOL0     C62210   7.491   5.493   7.931  0.7286 -0.3306 -0.2044
  472MOL0     C62211   7.369   5.501   7.833 -0.0031  0.4748  0.1092
  472MOL0     C62212   7.243   5.428   7.884 -0.0125  0.4463 -0.5462
  472MOL0     C62213   7.113   5.444   7.806  0.0579  0.6811  0.3989
  472MOL0     C62214   6.990   5.375   7.876  0.5127 -0.2393  0.2522
  472MOL0     C62215   7.011   5.219   7.871 -0.7028  0.4215  0.9662
  472MOL0    Cl62216   6.870   5.129   7.925  0.0289 -0.0649 -0.2151
  472MOL0     C62217   8.105   5.510   7.836  0.1088  1.0158  0.9486
  472MOL0     C62218   8.232   5.496   7.888  0.7620  0.0429  0.0911
  472MOL0     O62219   8.389   5.197   7.987 -0.1139 -0.0820 -0.1653
  472MOL0     C62220   8.670   5.396   8.015 -0.2076 -0.9171  0.0730
  472MOL0     C62221   8.808   5.396   8.037  0.5240 -0.7398 -0.5417
  472MOL0     N62222   9.360   5.467   8.377 -0.2917 -0.0095 -0.7047
  472MOL0     N62223   9.446   5.467   8.284 -1.1659 -0.3503 -0.0500
  472MOL0     C62224  10.647   5.565   8.397  0.4527 -0.1537 -0.0893
  472MOL0     C62225  10.754   5.593   8.475 -0.3203 -0.1045 -0.5469
  472MOL0     C62226  10.985   5.652   8.895  0.0806 -0.7809  0.3700
  472MOL0     C62227  10.988   5.711   9.022 -0.5260  0.2390  0.2220
  472MOL0     C62228  11.108   5.731   9.088 -0.5496 -0.0025 -0.6804
  472MOL0     C62229  11.233   5.677   9.037  0.9164 -0.6599  0.2639
  472MOL0     O62230  11.345   5.695   9.116 -0.4759  0.1900 -0.6013
  472MOL0     C62231  11.462   5.616   9.095  0.1807 -0.1311  0.3394
  472MOL0     C62232  11.561   5.683   9.180  1.0495 -1.1924 -0.3779
  472MOL0     C62233  11.677   5.589   9.178  0.4564 -1.1149 -0.0913
  472MOL0     C62234  11.764   5.634   9.294  0.0527 -0.5104 -0.4372
  472MOL0     C62235  11.893   5.558   9.290  0.3671  0.0131  0.4572
  472MOL0     C62236  12.007   5.524   9.279 -0.2358  0.4091 -0.0350
  472MOL0     C62237  11.231   5.622   8.899 -0.5867  0.1466 -0.0650
  472MOL0     C62238  11.106   5.608   8.829 -0.1765  0.1103 -0.2135
  472MOL0     H62239  10.607   5.540   8.772  0.1587 -1.1719  0.1101
  472MOL0     H62240  10.416   5.481   8.631 -0.5491  0.3812 -1.3224
  472MOL0     H62241  10.249   5.450   8.463  2.0042  3.4285 -1.7685
  472MOL0     H62242  10.359   5.325   8.499 -0.7523 -1.1936 -1.8488
  472MOL0     H62243  10.346   5.215   8.281 -1.0080  0.1207 -2.6645
  472MOL0     H62244  10.260   5.345   8.211 -0.2281  0.7702 -0.7865
  472MOL0     H62245  10.169   5.186   8.452  1.5775 -2.4355 -0.8473
  472MOL0     H62246  10.153   5.122   8.290 -0.0838 -0.9495  0.9225
  472MOL0     H62247  10.059   5.404   8.322  1.5408 -0.0677  0.9459
  472MOL0     H62248  10.004   5.279   8.203  1.0705 -1.4986 -0.8382
  472MOL0     H62249   9.918   5.300   8.498  1.1166  0.1019  0.0386
  472MOL0     H62250   9.889   5.158   8.390 -0.4953 -0.2671 -0.3748
  472MOL0     H62251   9.808   5.432   8.288 -0.5723  0.7009 -0.2614
  472MOL0     H62252   9.714   5.372   8.416  0.7965  2.5426 -0.4266
  472MOL0     H62253   9.776   5.214   8.154  0.9409 -2.7691  1.9507
  472MOL0     H62254   9.675   5.150   8.272  1.2334 -0.6022  0.2683
  472MOL0     H62255   9.551   5.236   8.090 -3.5738  0.5381  0.6237
  472MOL0     H62256   9.619   5.394   8.113 -2.5024  0.6916 -1.1849
  472MOL0     H62257   9.417   5.143   8.367 -0.5108 -0.7005  1.6030
  472MOL0     H62258   9.220   5.386   8.582  0.6540 -1.0727  0.1458
  472MOL0     H62259   9.241   5.221   8.573  0.0997 -0.9764 -1.9835
  472MOL0     H62260   9.063   5.413   8.412 -0.2454  0.3919  2.0484
  472MOL0     H62261   8.998   5.316   8.537 -1.4509  2.3405 -0.3650
  472MOL0     H62262   9.057   5.105   8.427 -0.5612  0.2243  1.1658
  472MOL0     H62263   8.916   5.198   8.375  0.1384 -0.7368 -2.0812
  472MOL0     H62264   9.050   5.112   8.177  2.5842 -0.2871 -0.0572
  472MOL0     H62265   9.169   5.217   8.221 -0.2383 -2.1575 -0.2769
  472MOL0     H62266   8.815   5.089   8.191  0.2797 -0.7356 -0.4154
  472MOL0     H62267   8.584   5.096   8.143 -1.8020  1.2281  0.1933
  472MOL0     H62268   8.167   5.289   8.158  2.8002 -1.0101 -0.2409
  472MOL0     H62269   7.931   5.332   8.076  0.2353  2.4532  1.9207
  472MOL0     H62270   7.750   5.507   8.039 -1.0985 -0.9117  0.6843
  472MOL0     H62271   7.729   5.354   7.957  0.5130 -1.2634 -0.4655
  472MOL0     H62272   7.620   5.448   7.759 -0.6057  1.1304 -0.2014
  472MOL0     H62273   7.636   5.614   7.833  1.1050  0.1306 -1.6348
  472MOL0     H62274   7.483   5.557   8.020  1.6058 -1.3146  0.6015
  472MOL0     H62275   7.488   5.391   7.969 -1.5675 -0.2127  0.1181
  472MOL0     H62276   7.342   5.604   7.810 -0.0289  0.5729  0.5593
  472MOL0     H62277   7.398   5.454   7.739 -0.9932 -0.5249  0.2803
  472MOL0     H62278   7.209   5.463   7.982 -1.4787 -0.2013 -0.7933
  472MOL0     H62279   7.262   5.322   7.901 -1.3262  0.2432 -0.1943
  472MOL0     H62280   7.123   5.402   7.705  1.9692 -2.1525  1.6146
  472MOL0     H62281   7.091   5.550   7.797  1.2881  0.8557 -0.7141
  472MOL0     H62282   6.972   5.407   7.979 -2.0066 -1.1456  0.1787
  472MOL0     H62283   6.899   5.393   7.817  0.1750  0.0812  0.8616
  472MOL0     H62284   7.096   5.180   7.927 -2.7057 -2.4456  2.2564
  472MOL0     H62285   7.035   5.202   7.765  0.0419  1.1072  1.0107
  472MOL0     H62286   8.093   5.574   7.749  0.7066 -0.1782 -0.0441
  472MOL0     H62287   8.316   5.539   7.834  0.0484  1.2490 -0.1010
  472MOL0     H62288   8.618   5.478   7.968 -2.3390 -2.1101  0.1968
  472MOL0     H62289   8.859   5.486   8.006 -0.5235 -0.2036 -0.7728
  472MOL0     H62290  10.671   5.581   8.292  3.4064 -1.3621  0.3240
  472MOL0     H62291  10.847   5.623   8.429  0.1395 -2.3830 -1.2232
  472MOL0     H62292  10.897   5.752   9.066 -0.6001 -0.7064  0.9813
  472MOL0     H62293  11.116   5.783   9.183  0.1049  0.4006 -0.9512
  472MOL0     H62294  11.496   5.609   8.992 -2.2474 -1.5687 -0.4225
  472MOL0     H62295  11.443   5.513   9.125  0.9347  0.3478  2.7469
  472MOL0     H62296  11.593   5.777   9.134  1.6798 -0.5681  1.2437
  472MOL0     H62297  11.514   5.698   9.278 -0.1452  0.4492 -1.1630
  472MOL0     H62298  11.725   5.608   9.081 -2.5419  3.6652 -0.9722
  472MOL0     H62299  11.644   5.486   9.187 -2.3602 -0.5476 -2.3237
  472MOL0     H62300  11.773   5.743   9.290 -0.0505 -0.2855  2.8585
  472MOL0     H62301  11.709   5.614   9.386  0.7005  0.2837  0.1351
  472MOL0     H62302  12.107   5.485   9.274  0.3268  1.9017 -1.3184
  472MOL0     H62303  11.320   5.601   8.841 -1.4780 -0.8936 -1.1231
  472MOL0     H62304  11.106   5.574   8.726  1.5426 -1.8996  0.3940
  473MOL0     O62305   7.623   0.736   3.791 -0.5680 -0.2797 -0.0562
  473MOL0     C62306   7.643   0.644   3.867  0.6310  0.1512  0.3791
  473MOL0     O62307   7.550   0.553   3.904  0.1417  0.7200  0.1120
  473MOL0     C62308   7.417   0.563   3.864  0.6449  0.0121 -0.7257
  473MOL0     C62309   7.379   0.604   3.732 -0.2570  0.1960  0.4303
  473MOL0     C62310   7.242   0.607   3.696 -0.0461  0.4439  0.3663
  473MOL0     C62311   7.140   0.577   3.786  0.2578 -0.6420  0.1329
  473MOL0     O62312   7.006   0.590   3.748  0.2850  0.0665  0.4354
  473MOL0     C62313   6.911   0.534   3.842  0.4646  0.4179  0.8276
  473MOL0     C62314   6.765   0.587   3.782 -0.7519  0.8835 -0.5048
  473MOL0     C62315   6.646   0.531   3.864 -0.2271 -0.6010  0.4224
  473MOL0     C62316   6.525   0.532   3.782 -1.0779  0.2213 -0.2237
  473MOL0     C62317   6.403   0.494   3.858 -1.4509 -0.2394 -0.4014
  473MOL0     C62318   6.279   0.516   3.769  0.7914  0.0966 -0.3877
  473MOL0     C62319   6.218   0.656   3.763 -0.2881  0.3668 -0.1871
  473MOL0     C62320   6.157   0.713   3.892  0.3669  0.2544 -0.2179
  473MOL0     N62321   6.032   0.645   3.920  0.6676 -0.0694  0.5283
  473MOL0     C62322   5.907   0.705   3.920  1.4385  0.6191  1.0234
  473MOL0     C62323   5.819   0.620   3.977  0.0070 -0.9184  0.5373
  473MOL0     C62324   5.674   0.638   3.988 -0.6941 -0.0256 -0.8235
  473MOL0     C62325   5.594   0.589   3.866  0.5804 -0.0604  0.0570
  473MOL0     C62326   5.441   0.604   3.893 -0.4831  0.9010 -0.4257
  473MOL0     C62327   5.392   0.748   3.869  0.1253 -0.0389  0.6192
  473MOL0     O62328   5.251   0.756   3.857  0.5008 -0.2675 -0.3671
  473MOL0     C62329   5.169   0.790   3.962 -0.2135 -0.1380  0.6462
  473MOL0     C62330   5.032   0.816   3.930  0.6834  0.0301  0.1854
  473MOL0     C62331   4.946   0.852   4.030 -0.0208 -0.9027  0.0856
  473MOL0     C62332   4.988   0.857   4.160  0.4226 -0.5055 -0.3929
  473MOL0     C62333   4.899   0.899   4.273  0.6354 -0.2959 -0.7945
  473MOL0     O62334   4.952   0.930   4.405  0.3200  0.4865  0.3090
  473MOL0     C62335   4.872   0.976   4.504  0.3568 -0.6987  0.4507
  473MOL0     C62336   4.834   0.889   4.611 -0.1296 -0.0359 -0.6244
  473MOL0     C62337   4.765   0.932   4.722  0.0597 -0.1885  0.5666
  473MOL0     C62338   4.742   1.064   4.739 -0.0017 -1.0082  1.1343
  473MOL0     O62339   4.675   1.105   4.854  0.9389  0.4618 -0.3081
  473MOL0     C62340   4.599   1.222   4.861  0.1045 -0.2313  0.5651
  473MOL0     C62341   4.505   1.206   4.977  0.5098  0.2350  0.3556
  473MOL0     C62342   4.574   1.257   5.108 -0.1348 -0.1462  0.6323
  473MOL0     C62343   4.495   1.216   5.229  0.1349 -1.1134 -0.4969
  473MOL0     C62344   4.551   1.292   5.352  0.3832 -0.1890 -0.2227
  473MOL0     C62345   4.493   1.439   5.378 -0.0710 -0.0202 -0.0347
  473MOL0     C62346   4.561   1.516   5.494  0.9727  0.2665 -0.3236
  473MOL0     C62347   4.709   1.545   5.480 -0.0164 -0.6246  0.3199
  473MOL0    Cl62348   4.774   1.687   5.574  0.2493 -0.5118 -0.0713
  473MOL0     C62349   4.778   1.156   4.635  0.1749 -1.3385  0.0450
  473MOL0     C62350   4.846   1.116   4.521 -0.6227  0.9614 -0.0732
  473MOL0     O62351   4.777   0.907   4.239 -0.2350 -0.6376 -0.0739
  473MOL0     C62352   5.118   0.835   4.191  0.4055 -0.5739  0.8250
  473MOL0     C62353   5.212   0.808   4.086  0.2688 -0.2461 -0.1166
  473MOL0     N62354   5.902   0.520   4.032 -0.1995 -0.9181  0.2733
  473MOL0     N62355   6.024   0.529   3.990  0.4684 -0.2015  0.6102
  473MOL0     C62356   7.181   0.542   3.917  1.0630  0.1132 -0.2291
  473MOL0     C62357   7.319   0.535   3.953  1.1288  1.1319  0.2629
  473MOL0     C62358   7.783   0.628   3.916  0.0939 -1.0696  0.4111
  473MOL0     C62359   7.864   0.735   3.928 -0.1297  0.0856  0.4822
  473MOL0     C62360   8.001   0.722   3.942 -0.1956 -0.0202  0.4050
  473MOL0     C62361   8.059   0.596   3.959 -0.5356  0.6632  0.2497
  473MOL0     O62362   8.196   0.594   3.983  0.4611 -0.0983 -0.1279
  473MOL0     C62363   8.264   0.472   4.030  0.4025  0.2685  0.1653
  473MOL0     C62364   8.418   0.474   4.029  0.9705  0.0172  0.2279
  473MOL0     C62365   8.468   0.600   4.100 -0.4124  0.2111 -0.0390
  473MOL0     C62366   8.601   0.588   4.168 -0.1148 -0.0956 -0.3306
  473MOL0     C62367   8.710   0.555   4.079  0.1177 -0.1366  0.7515
  473MOL0     C62368   8.798   0.512   4.007  0.8574 -0.8926 -0.5502
  473MOL0     C62369   7.976   0.485   3.943 -0.0649  0.1607 -0.3841
  473MOL0     C62370   7.834   0.499   3.925 -0.9341  0.1337  0.6812
  473MOL0     H62371   7.456   0.620   3.657  0.6009 -1.7395  0.8433
  473MOL0     H62372   7.207   0.636   3.597  1.2104 -0.7205 -0.4732
  473MOL0     H62373   6.907   0.580   3.941 -2.8095  0.6858  0.6877
  473MOL0     H62374   6.911   0.425   3.856  0.7820  0.5324  1.7985
  473MOL0     H62375   6.755   0.562   3.676 -0.9177 -0.0076 -0.2871
  473MOL0     H62376   6.765   0.696   3.776 -1.8758  0.9245 -0.0013
  473MOL0     H62377   6.641   0.587   3.957  0.7803 -1.3771  0.9617
  473MOL0     H62378   6.667   0.426   3.887 -2.1224 -0.9308  0.7980
  473MOL0     H62379   6.510   0.635   3.748 -2.5003  1.5838  3.9242
  473MOL0     H62380   6.544   0.458   3.703  2.7462 -1.0868  1.6861
  473MOL0     H62381   6.403   0.555   3.949  0.7227 -0.8092  0.0472
  473MOL0     H62382   6.413   0.389   3.888 -1.1203 -0.7812 -2.3190
  473MOL0     H62383   6.209   0.445   3.815  1.4127  0.8182  1.7904
  473MOL0     H62384   6.301   0.479   3.668  1.8112  0.6379 -0.3705
  473MOL0     H62385   6.301   0.720   3.735  0.2496 -0.6951 -1.1394
  473MOL0     H62386   6.147   0.660   3.679  1.6276 -2.8404 -2.1615
  473MOL0     H62387   6.134   0.819   3.883 -1.7865 -0.0056  1.3936
  473MOL0     H62388   6.222   0.701   3.978 -1.6451  1.1819  1.5205
  473MOL0     H62389   5.889   0.799   3.869 -0.6634 -0.8368 -1.1646
  473MOL0     H62390   5.652   0.744   3.999  0.8786  0.3992 -1.4585
  473MOL0     H62391   5.643   0.580   4.075 -1.0784  0.8519 -0.3622
  473MOL0     H62392   5.613   0.483   3.849 -1.1958 -0.3363 -0.4311
  473MOL0     H62393   5.619   0.645   3.776  1.6581 -0.5048  0.0572
  473MOL0     H62394   5.389   0.539   3.822 -0.6713  0.0072  0.5109
  473MOL0     H62395   5.412   0.570   3.993  1.7627 -0.2404 -0.0856
  473MOL0     H62396   5.434   0.784   3.775  0.0626 -1.4497  0.0228
  473MOL0     H62397   5.433   0.815   3.945  0.0478  0.5176  0.1734
  473MOL0     H62398   4.995   0.806   3.829 -0.9107  2.9697  0.3889
  473MOL0     H62399   4.842   0.881   4.014  0.0260 -0.5401  0.4260
  473MOL0     H62400   4.867   0.787   4.594 -0.6524 -0.0007 -1.9748
  473MOL0     H62401   4.728   0.866   4.800  2.3829 -0.2197  1.7170
  473MOL0     H62402   4.541   1.228   4.768  2.8022 -3.1941 -1.5357
  473MOL0     H62403   4.664   1.309   4.870 -0.5410  0.5501 -1.5922
  473MOL0     H62404   4.478   1.102   4.994  2.4102 -0.6639 -1.6160
  473MOL0     H62405   4.415   1.266   4.957  0.0547 -0.8079 -0.8494
  473MOL0     H62406   4.566   1.366   5.105 -0.5360 -0.1639 -2.2644
  473MOL0     H62407   4.677   1.231   5.130  0.8199  1.7851 -1.2339
  473MOL0     H62408   4.390   1.246   5.224  0.5936  1.0950  1.5530
  473MOL0     H62409   4.510   1.109   5.243  3.1538 -0.9884 -1.9764
  473MOL0     H62410   4.660   1.305   5.353  0.1527  2.9904 -2.0554
  473MOL0     H62411   4.524   1.232   5.440 -0.8841  3.1742  1.8980
  473MOL0     H62412   4.388   1.424   5.405  0.3825  0.7109  2.3874
  473MOL0     H62413   4.509   1.487   5.281 -2.3036 -1.2024 -1.0773
  473MOL0     H62414   4.501   1.605   5.515  0.0466 -0.6853  1.2920
  473MOL0     H62415   4.546   1.453   5.582 -0.9564  2.6181  1.1471
  473MOL0     H62416   4.726   1.578   5.377 -0.0691 -0.4578  0.3644
  473MOL0     H62417   4.770   1.455   5.490  3.5076  1.6759  1.3098
  473MOL0     H62418   4.748   1.260   4.649 -1.0197 -1.9078  2.2300
  473MOL0     H62419   4.895   1.171   4.442  1.9496  0.2814  0.9582
  473MOL0     H62420   5.160   0.848   4.290 -1.8703  3.1853  1.5058
  473MOL0     H62421   5.316   0.790   4.112  0.1055 -0.7908  0.1866
  473MOL0     H62422   7.098   0.536   3.988 -1.3651  0.5313 -2.8556
  473MOL0     H62423   7.335   0.516   4.059 -1.6682  2.1045  0.9443
  473MOL0     H62424   7.834   0.838   3.910  0.3412  0.3761  1.3086
  473MOL0     H62425   8.067   0.807   3.948  0.8226 -0.8488  1.6538
  473MOL0     H62426   8.240   0.390   3.962  1.0622  0.5168 -0.3743
  473MOL0     H62427   8.226   0.456   4.132  0.3733  4.1304  0.9209
  473MOL0     H62428   8.461   0.379   4.063  2.7966  0.3747 -0.9160
  473MOL0     H62429   8.447   0.498   3.926 -0.4196  3.6705  0.5562
  473MOL0     H62430   8.388   0.626   4.171  0.5235  2.2835  0.3257
  473MOL0     H62431   8.466   0.692   4.041 -2.4329  1.0959  1.2782
  473MOL0     H62432   8.615   0.686   4.214  0.7399 -1.3758  2.3688
  473MOL0     H62433   8.594   0.513   4.248  0.2257  0.7443  0.4994
  473MOL0     H62434   8.864   0.454   3.945  3.4593  0.7665  0.5066
  473MOL0     H62435   8.015   0.383   3.940 -2.6505 -0.9009 -0.2282
  473MOL0     H62436   7.770   0.411   3.921  1.7680 -1.9450 -1.2917
  474MOL0     O62437   8.029  10.479   1.747  0.2075  0.7514  0.1273
  474MOL0     C62438   8.026  10.566   1.839  0.0435 -0.0845  0.6452
  474MOL0     O62439   7.936  10.570   1.937  0.7596  0.1776  0.0856
  474MOL0     C62440   7.838  10.477   1.941  0.4017 -0.2619 -1.0974
  474MOL0     C62441   7.707  10.506   1.912  0.3425 -0.5193  0.7248
  474MOL0     C62442   7.606  10.407   1.922 -0.9189  0.6163 -0.1994
  474MOL0     C62443   7.645  10.273   1.955  0.3752 -0.8696  0.1570
  474MOL0     O62444   7.558  10.160   1.953 -0.4235 -0.2010 -0.0626
  474MOL0     C62445   7.417  10.185   1.977 -0.3379 -1.1425  0.0103
  474MOL0     C62446   7.357  10.062   2.038 -0.3714  0.0131  0.6329
  474MOL0     C62447   7.387  10.037   2.189  0.2256 -0.0352  0.2565
  474MOL0     C62448   7.525   9.996   2.220 -0.6549 -0.7802  0.8381
  474MOL0     C62449   7.543   9.976   2.365  0.1600  0.1411  0.2114
  474MOL0     C62450   7.674   9.903   2.400  0.2825 -0.2147 -0.2599
  474MOL0     C62451   7.790   9.984   2.351 -0.8153 -0.3906 -0.2908
  474MOL0     C62452   7.817  10.125   2.400  0.2373 -0.1683 -0.2413
  474MOL0     N62453   7.928  10.192   2.338  0.5855  0.0077 -0.5152
  474MOL0     C62454   7.944  10.328   2.354 -0.1184  0.3874 -0.1303
  474MOL0     C62455   8.055  10.359   2.275 -0.5968  0.5290 -0.0463
  474MOL0     C62456   8.113  10.504   2.268 -0.7958  0.6447  0.3662
  474MOL0     C62457   8.231  10.506   2.368  0.0076  0.6838 -0.4945
  474MOL0     C62458   8.310  10.631   2.345  0.3426  0.7176  0.4892
  474MOL0     C62459   8.438  10.621   2.429 -0.6745  0.4019 -0.7605
  474MOL0     O62460   8.525  10.736   2.406 -0.7543  0.0368  0.6114
  474MOL0     C62461   8.646  10.737   2.477  0.6435  0.3247 -0.0103
  474MOL0     C62462   8.684  10.638   2.564  0.3310 -0.2987  0.1141
  474MOL0     C62463   8.790  10.645   2.650 -0.3513  0.2781  0.0477
  474MOL0     C62464   8.874  10.759   2.645 -0.1791  0.1623  0.3190
  474MOL0     C62465   8.988  10.787   2.745 -0.2033  0.1735  0.0629
  474MOL0     O62466   9.072  10.888   2.712 -0.1083 -0.4986 -0.3190
  474MOL0     C62467   9.168  10.933   2.802  0.4752 -0.5507 -0.1608
  474MOL0     C62468   9.123  11.005   2.907 -0.4885  0.5644  0.0242
  474MOL0     C62469   9.221  11.059   2.996 -0.3510  1.0614  0.2137
  474MOL0     C62470   9.356  11.046   2.967  0.9902 -0.0956  0.2356
  474MOL0     O62471   9.461  11.102   3.046  0.5803  0.2123  0.0040
  474MOL0     C62472   9.488  11.239   3.024 -0.3046  0.5344  0.9831
  474MOL0     C62473   9.631  11.262   3.062 -0.9237 -0.6334  0.6603
  474MOL0     C62474   9.666  11.411   3.036  0.9005  0.5758 -0.5875
  474MOL0     C62475   9.823  11.433   3.047  0.4320  0.4230 -0.3261
  474MOL0     C62476   9.898  11.541   2.979  0.2075 -1.4257 -0.1062
  474MOL0     C62477   9.813  11.667   2.953  1.2174 -0.3158  0.2663
  474MOL0     C62478   9.903  11.769   2.887  0.1431 -0.0771  0.2563
  474MOL0     C62479   9.817  11.889   2.852 -0.2418 -0.3653  0.6723
  474MOL0    Cl62480   9.702  11.876   2.713 -0.0083  0.4269 -0.0594
  474MOL0     C62481   9.392  10.966   2.857  0.7920 -0.6192 -0.0730
  474MOL0     C62482   9.298  10.916   2.763 -0.5581 -1.1912 -0.4493
  474MOL0     O62483   8.997  10.711   2.846  0.2275 -0.1209  0.9208
  474MOL0     C62484   8.835  10.865   2.557 -0.3738 -0.2312  0.2630
  474MOL0     C62485   8.733  10.848   2.465 -1.1140  0.0418 -0.2368
  474MOL0     N62486   8.104  10.244   2.220 -0.1081 -0.0481  0.4083
  474MOL0     N62487   8.028  10.148   2.258 -0.7187 -0.3326  0.4375
  474MOL0     C62488   7.777  10.244   1.969 -0.2772 -0.1173  0.0504
  474MOL0     C62489   7.875  10.346   1.971 -0.6588  0.2963  0.5584
  474MOL0     C62490   8.135  10.660   1.852 -0.2623  0.0863  0.0998
  474MOL0     C62491   8.157  10.737   1.963 -0.2841  0.7386 -0.3363
  474MOL0     C62492   8.267  10.823   1.974  0.4644  0.3346 -0.5419
  474MOL0     C62493   8.354  10.843   1.870 -0.4285  0.2481  0.5076
  474MOL0     O62494   8.466  10.914   1.886 -0.3345  0.4137 -0.2996
  474MOL0     C62495   8.543  10.941   2.006 -0.4308 -0.2575  0.5549
  474MOL0     C62496   8.604  10.813   2.063 -0.3492  0.3233  0.1828
  474MOL0     C62497   8.690  10.734   1.964  0.2807  0.0257  0.7348
  474MOL0     C62498   8.718  10.588   2.011  0.0759  0.4873 -0.0383
  474MOL0     C62499   8.825  10.581   2.110 -0.1227 -0.0698  0.5683
  474MOL0     C62500   8.930  10.561   2.168  0.7374  0.2965 -0.3463
  474MOL0     C62501   8.330  10.771   1.760 -0.8554 -0.0696 -0.1931
  474MOL0     C62502   8.221  10.686   1.746  0.2132  0.5177 -0.7647
  474MOL0     H62503   7.678  10.607   1.885 -2.9465 -1.5968 -0.3156
  474MOL0     H62504   7.500  10.424   1.906 -0.8621 -0.8850 -2.8072
  474MOL0     H62505   7.373  10.208   1.880  0.1106  0.4267  0.1548
  474MOL0     H62506   7.391  10.261   2.051  0.2523 -0.0713 -0.8578
  474MOL0     H62507   7.377   9.974   1.977  0.8478  1.7397 -1.6237
  474MOL0     H62508   7.250  10.084   2.026 -0.7708 -1.3805  1.5303
  474MOL0     H62509   7.317   9.961   2.225  0.8917 -0.0041  1.6948
  474MOL0     H62510   7.363  10.127   2.247 -2.2000  0.2843 -1.1060
  474MOL0     H62511   7.558   9.904   2.171  3.5394 -1.4343  4.2209
  474MOL0     H62512   7.593  10.075   2.184 -1.5316 -0.0768  0.7026
  474MOL0     H62513   7.457   9.912   2.389 -0.5593 -0.0418 -2.4663
  474MOL0     H62514   7.547  10.069   2.422  0.3074 -0.0448  0.5059
  474MOL0     H62515   7.667   9.806   2.349 -3.6989  0.3599 -1.1602
  474MOL0     H62516   7.688   9.892   2.508 -0.0797 -0.1968 -0.2107
  474MOL0     H62517   7.873   9.918   2.378  0.9487  0.2144 -3.6789
  474MOL0     H62518   7.796   9.976   2.242  4.2368  1.9226 -0.4568
  474MOL0     H62519   7.826  10.124   2.509 -3.7694  0.6023  0.2369
  474MOL0     H62520   7.725  10.180   2.381  0.3185 -0.0785 -0.3760
  474MOL0     H62521   7.891  10.401   2.414  0.6995  0.6916  0.2372
  474MOL0     H62522   8.025  10.568   2.280 -1.5446 -0.4251  0.8296
  474MOL0     H62523   8.150  10.516   2.166 -2.4303  0.1544 -0.3217
  474MOL0     H62524   8.303  10.425   2.353 -1.9358 -1.1868 -0.0986
  474MOL0     H62525   8.196  10.514   2.471 -1.4486 -3.0709 -0.5470
  474MOL0     H62526   8.348  10.633   2.242  3.3416  0.1965  1.4643
  474MOL0     H62527   8.260  10.721   2.381 -2.0751 -0.8367  1.2516
  474MOL0     H62528   8.489  10.528   2.401  3.6968  2.5380 -0.6449
  474MOL0     H62529   8.416  10.618   2.536  1.0203  1.3077 -0.3598
  474MOL0     H62530   8.623  10.549   2.576 -0.6333  0.1967 -0.8554
  474MOL0     H62531   8.805  10.563   2.719  3.4729  0.5758 -0.2314
  474MOL0     H62532   9.016  11.017   2.925 -0.3945  0.2447  0.8468
  474MOL0     H62533   9.196  11.118   3.084  1.9869  1.2504  0.8237
  474MOL0     H62534   9.423  11.302   3.086 -1.7701  0.6663 -0.5922
  474MOL0     H62535   9.470  11.269   2.920  1.8025  3.4921  1.3613
  474MOL0     H62536   9.695  11.184   3.020  1.9975 -0.9143  4.9575
  474MOL0     H62537   9.653  11.230   3.165 -1.8022 -3.5449  0.0483
  474MOL0     H62538   9.622  11.475   3.113  0.5421 -2.5743  1.9974
  474MOL0     H62539   9.633  11.441   2.936 -1.0614  1.8527  0.3725
  474MOL0     H62540   9.843  11.421   3.154  3.0183 -3.0637 -1.0385
  474MOL0     H62541   9.863  11.342   3.003 -3.0669 -0.9990 -0.8931
  474MOL0     H62542   9.924  11.501   2.880  1.4284  2.2406 -1.4188
  474MOL0     H62543   9.990  11.564   3.034 -0.4500 -1.0044  0.8414
  474MOL0     H62544   9.766  11.712   3.041  0.3318  0.3925 -0.5505
  474MOL0     H62545   9.735  11.639   2.881  0.5262 -0.0502  0.8922
  474MOL0     H62546   9.980  11.804   2.957 -0.6724 -0.0604  1.1738
  474MOL0     H62547   9.938  11.714   2.800  2.8031 -2.2517  2.4930
  474MOL0     H62548   9.890  11.968   2.835 -0.7124  0.0290  0.4813
  474MOL0     H62549   9.757  11.913   2.940 -0.5142 -0.5313  0.5328
  474MOL0     H62550   9.499  10.955   2.843  1.2697  2.5289  0.5272
  474MOL0     H62551   9.338  10.887   2.666 -0.9339  2.1462 -1.7166
  474MOL0     H62552   8.873  10.967   2.555 -1.8400  0.3425  0.4167
  474MOL0     H62553   8.714  10.925   2.392  0.9343  3.3761  2.4462
  474MOL0     H62554   7.803  10.141   1.992  0.4744  0.2760  1.0014
  474MOL0     H62555   7.979  10.320   1.990 -0.8902 -0.7879  0.3839
  474MOL0     H62556   8.091  10.728   2.050  0.4607  1.8518  0.3736
  474MOL0     H62557   8.275  10.881   2.065  0.9940 -2.0391  0.9993
  474MOL0     H62558   8.491  10.998   2.084  0.5009  2.2434 -0.5622
  474MOL0     H62559   8.633  10.991   1.970 -0.3831  0.5888  1.7885
  474MOL0     H62560   8.670  10.852   2.141 -0.5083  1.3309 -0.1737
  474MOL0     H62561   8.512  10.761   2.092 -0.9032  0.9002 -0.5015
  474MOL0     H62562   8.784  10.783   1.938  0.1042 -0.2452 -0.4679
  474MOL0     H62563   8.625  10.731   1.876  0.0077 -0.4632  0.9471
  474MOL0     H62564   8.631  10.548   2.065  0.1260 -3.4159 -2.4882
  474MOL0     H62565   8.736  10.513   1.934 -1.3884 -0.8512  0.8584
  474MOL0     H62566   9.022  10.538   2.217  0.6752  1.4225  0.3274
  474MOL0     H62567   8.394  10.781   1.673 -0.6579  0.8973  0.0477
  474MOL0     H62568   8.198  10.634   1.654 -5.3262  0.3645  0.3603
  475MOL0     O62569   8.320   7.135   7.035 -0.3423  0.0828 -0.4489
  475MOL0     C62570   8.338   7.215   6.946 -0.8074  0.9994 -0.1112
  475MOL0     O62571   8.240   7.279   6.873  0.0672 -0.6912  0.4502
  475MOL0     C62572   8.116   7.239   6.884  0.3791 -0.5926  0.8899
  475MOL0     C62573   8.024   7.283   6.983  0.3684 -0.4815  0.4523
  475MOL0     C62574   7.890   7.247   6.975 -0.4056  0.1559  0.2750
  475MOL0     C62575   7.843   7.157   6.876 -0.2493 -0.0203  0.3723
  475MOL0     O62576   7.717   7.108   6.865  0.4330 -0.2194  0.4470
  475MOL0     C62577   7.615   7.180   6.931  0.2510 -1.0225 -0.0216
  475MOL0     C62578   7.475   7.117   6.897 -0.0434  0.5603  0.5144
  475MOL0     C62579   7.427   7.133   6.750  0.8060  0.5382  0.8406
  475MOL0     C62580   7.515   7.060   6.643 -0.1777 -0.2346 -0.1592
  475MOL0     C62581   7.436   7.022   6.515 -0.3441 -0.4798  0.6981
  475MOL0     C62582   7.335   6.909   6.527 -0.4343 -0.3777  0.5795
  475MOL0     C62583   7.311   6.859   6.378 -0.2103 -0.4599 -0.8376
  475MOL0     C62584   7.211   6.744   6.371 -0.2031  0.1921  0.9266
  475MOL0     N62585   7.077   6.772   6.415 -0.2181  0.1329  0.4931
  475MOL0     C62586   6.980   6.808   6.316 -0.6052  1.2421 -0.0393
  475MOL0     C62587   6.869   6.840   6.388 -0.0112  0.1120  0.1904
  475MOL0     C62588   6.746   6.879   6.327 -0.2163 -0.6955  0.6581
  475MOL0     C62589   6.692   7.001   6.393 -0.2122  0.3492 -0.9213
  475MOL0     C62590   6.567   7.042   6.322 -0.9837 -0.9599 -0.9904
  475MOL0     C62591   6.518   7.174   6.389  0.4636  0.2384  0.6710
  475MOL0     O62592   6.397   7.223   6.319 -1.0618 -0.3187 -0.0438
  475MOL0     C62593   6.325   7.325   6.361 -0.3198 -0.0239  0.6527
  475MOL0     C62594   6.217   7.354   6.277 -0.2880  0.1620 -0.1436
  475MOL0     C62595   6.136   7.449   6.326 -0.2552  0.5197 -0.4460
  475MOL0     C62596   6.150   7.518   6.445 -0.5852 -0.5664 -1.0088
  475MOL0     C62597   6.050   7.618   6.493  0.0571  0.0941 -1.1677
  475MOL0     O62598   6.023   7.623   6.625 -0.8032  0.2181  0.1803
  475MOL0     C62599   5.906   7.683   6.665  0.1659 -0.6142 -1.2233
  475MOL0     C62600   5.906   7.764   6.782  0.2221 -0.9039 -0.5969
  475MOL0     C62601   5.781   7.797   6.839 -1.1698  0.6909  0.0282
  475MOL0     C62602   5.661   7.754   6.786 -0.2424  0.0036 -0.4095
  475MOL0     O62603   5.547   7.791   6.848  0.2005  0.2571  0.5489
  475MOL0     C62604   5.527   7.724   6.970 -0.3843 -0.8262 -0.5288
  475MOL0     C62605   5.384   7.676   6.992 -0.0618  0.7765 -0.1051
  475MOL0     C62606   5.281   7.789   6.986  0.1684  1.0276  0.4327
  475MOL0     C62607   5.140   7.748   7.014  0.3218  1.1373 -0.1655
  475MOL0     C62608   5.089   7.650   6.910 -0.2360  0.3450 -0.4291
  475MOL0     C62609   4.933   7.649   6.883  0.0654 -0.1796  0.6494
  475MOL0     C62610   4.885   7.738   6.772  0.8178 -0.4223  0.2058
  475MOL0     C62611   4.748   7.807   6.797 -0.6613  0.0355 -0.8069
  475MOL0    Cl62612   4.737   7.932   6.675  0.5259  0.1198  0.1554
  475MOL0     C62613   5.664   7.679   6.659 -0.6653 -0.0782  0.6112
  475MOL0     C62614   5.787   7.656   6.602 -0.2347  0.6814 -0.1369
  475MOL0     O62615   6.004   7.696   6.408  0.1477  0.7539 -0.5027
  475MOL0     C62616   6.257   7.480   6.528  0.0519 -0.2069  0.3431
  475MOL0     C62617   6.351   7.386   6.482  0.4776 -0.3988  0.7750
  475MOL0     N62618   6.898   6.819   6.524  0.0726  0.1997 -0.9292
  475MOL0     N62619   7.026   6.788   6.541  0.5609  1.4526  0.5196
  475MOL0     C62620   7.941   7.091   6.796  0.9008  0.3394  0.0122
  475MOL0     C62621   8.074   7.144   6.791  0.1425  0.2935  0.3824
  475MOL0     C62622   8.472   7.266   6.943 -1.4892 -0.1167  0.5751
  475MOL0     C62623   8.585   7.207   7.017 -0.5021 -0.4203  0.5134
  475MOL0     C62624   8.716   7.262   7.013 -0.0585  0.2479 -0.2681
  475MOL0     C62625   8.737   7.377   6.935 -0.1963 -0.1665 -0.1227
  475MOL0     O62626   8.864   7.424   6.932  0.0521 -0.1495 -0.1163
  475MOL0     C62627   8.878   7.559   6.895 -0.1082 -1.2776  0.0214
  475MOL0     C62628   9.022   7.620   6.905 -0.8776  0.1315  0.6490
  475MOL0     C62629   9.121   7.531   6.989 -0.4579  0.2039 -0.3081
  475MOL0     C62630   9.264   7.574   6.988  0.9405  0.1486 -0.4267
  475MOL0     C62631   9.273   7.717   7.030 -0.5949 -0.6325 -0.0472
  475MOL0     C62632   9.283   7.835   7.059 -0.0747  0.1735  0.6792
  475MOL0     C62633   8.627   7.429   6.856 -0.7773  0.8225 -0.0545
  475MOL0     C62634   8.500   7.375   6.859  0.0120  0.5710  0.2121
  475MOL0     H62635   8.055   7.354   7.059 -2.0626 -1.3543  2.4058
  475MOL0     H62636   7.828   7.301   7.045 -1.7580  1.2043 -1.6529
  475MOL0     H62637   7.621   7.286   6.904 -2.1184  0.1113  3.2630
  475MOL0     H62638   7.623   7.175   7.040 -0.9355  0.1376  0.1336
  475MOL0     H62639   7.399   7.165   6.960 -2.5857 -0.8945 -1.2786
  475MOL0     H62640   7.481   7.010   6.921  0.5246  0.9830  2.4988
  475MOL0     H62641   7.423   7.238   6.719 -0.1355 -0.0875 -1.3540
  475MOL0     H62642   7.322   7.101   6.750  0.9305  0.1239  0.1996
  475MOL0     H62643   7.597   7.124   6.609 -2.3633  0.5581 -4.8751
  475MOL0     H62644   7.566   6.972   6.682  2.1721  1.8704  1.8845
  475MOL0     H62645   7.495   6.988   6.429 -0.1578 -3.2201  1.8056
  475MOL0     H62646   7.393   7.115   6.476 -3.4537 -2.5659 -1.3535
  475MOL0     H62647   7.249   6.947   6.584 -0.1388 -0.1268  0.8632
  475MOL0     H62648   7.377   6.832   6.592 -1.4641 -0.8170  0.7441
  475MOL0     H62649   7.283   6.944   6.315 -1.0296  1.4818  1.9900
  475MOL0     H62650   7.411   6.822   6.350  1.7665  3.1905  0.7908
  475MOL0     H62651   7.253   6.657   6.423  0.1862  0.0859  0.4396
  475MOL0     H62652   7.209   6.717   6.265  3.1648  2.7868  0.0419
  475MOL0     H62653   6.992   6.796   6.209 -0.2977 -0.5181  0.1683
  475MOL0     H62654   6.676   6.795   6.331 -1.0348 -0.2350 -1.8363
  475MOL0     H62655   6.768   6.904   6.223  2.0149 -0.9207  1.0451
  475MOL0     H62656   6.757   7.089   6.395 -2.1175  1.7913  0.7018
  475MOL0     H62657   6.674   6.981   6.499  3.0783  0.4619 -0.2171
  475MOL0     H62658   6.601   7.061   6.220  0.6277 -0.2833 -0.3669
  475MOL0     H62659   6.496   6.959   6.325 -0.0732 -1.7538  1.7592
  475MOL0     H62660   6.589   7.257   6.382 -2.4794  3.0852  2.1029
  475MOL0     H62661   6.512   7.159   6.497 -2.2321  4.1760  1.2863
  475MOL0     H62662   6.205   7.309   6.179 -0.0596  0.5688 -0.3597
  475MOL0     H62663   6.048   7.484   6.274 -1.7398  1.3791  2.4410
  475MOL0     H62664   6.003   7.790   6.822 -0.3563 -0.7554  0.7356
  475MOL0     H62665   5.788   7.862   6.926  0.9802  0.3238  0.1953
  475MOL0     H62666   5.559   7.799   7.043  0.0599 -0.4903 -1.0639
  475MOL0     H62667   5.594   7.638   6.984  2.6031  1.2173 -1.2336
  475MOL0     H62668   5.385   7.628   7.090 -0.2006 -0.4805 -0.7005
  475MOL0     H62669   5.364   7.594   6.922  1.3064  1.2819 -1.1149
  475MOL0     H62670   5.280   7.814   6.879  2.6492 -2.4804 -0.6024
  475MOL0     H62671   5.295   7.873   7.054 -0.9849  1.6845 -0.0983
  475MOL0     H62672   5.140   7.699   7.111  2.3788 -1.3378 -1.3142
  475MOL0     H62673   5.078   7.838   7.026 -0.5538  0.3966  1.0825
  475MOL0     H62674   5.119   7.548   6.936 -1.9362 -0.0483  0.1265
  475MOL0     H62675   5.138   7.674   6.816 -0.3488 -0.0216 -0.5826
  475MOL0     H62676   4.873   7.643   6.974  0.0257  0.3134  0.6542
  475MOL0     H62677   4.915   7.551   6.838  0.0653  0.6878 -1.3236
  475MOL0     H62678   4.958   7.819   6.768  2.6657 -1.9217  1.4246
  475MOL0     H62679   4.886   7.691   6.674  1.6840  0.4897 -0.2391
  475MOL0     H62680   4.752   7.850   6.897  1.7705  1.7323 -1.5285
  475MOL0     H62681   4.661   7.741   6.790 -0.6444 -0.2529  1.0784
  475MOL0     H62682   5.572   7.639   6.617 -1.7038  2.7331  0.0149
  475MOL0     H62683   5.786   7.595   6.513 -0.2273  1.2975 -0.5650
  475MOL0     H62684   6.271   7.527   6.625  0.5838 -0.8743  0.5999
  475MOL0     H62685   6.425   7.353   6.554 -0.1977  0.5873  1.9649
  475MOL0     H62686   7.923   7.008   6.729  0.0301 -0.8369  1.6203
  475MOL0     H62687   8.130   7.104   6.707  0.4072 -1.5268  1.3547
  475MOL0     H62688   8.579   7.107   7.059 -1.2627 -0.3189  0.6700
  475MOL0     H62689   8.800   7.206   7.054 -0.3834 -1.6896 -2.0824
  475MOL0     H62690   8.809   7.625   6.948  1.8583  2.2508 -1.4537
  475MOL0     H62691   8.846   7.572   6.791  2.5105 -0.3365 -0.7456
  475MOL0     H62692   9.068   7.630   6.806  0.1667  1.0256  1.1999
  475MOL0     H62693   9.010   7.719   6.947 -0.6244 -0.1018  1.2834
  475MOL0     H62694   9.112   7.426   6.958 -1.3647 -0.2558  1.4310
  475MOL0     H62695   9.084   7.533   7.092 -0.1295  1.5203 -0.2013
  475MOL0     H62696   9.308   7.509   7.064 -1.3329  0.9434  1.7308
  475MOL0     H62697   9.300   7.558   6.886  0.3295 -1.1788 -0.4514
  475MOL0     H62698   9.295   7.940   7.076 -0.2264  0.1990  0.6279
  475MOL0     H62699   8.654   7.511   6.790  2.5732  2.3575  2.8854
  475MOL0     H62700   8.428   7.433   6.803  0.3152 -0.6836 -1.5685
  476MOL0     O62701   0.892   3.649   2.697  0.3999  1.1181  0.3833
  476MOL0     C62702   0.902   3.675   2.817 -0.5208  0.3190  0.1095
  476MOL0     O62703   1.010   3.734   2.880 -0.4041 -0.3428 -0.0340
  476MOL0     C62704   1.123   3.771   2.806  0.2364 -0.6346 -0.4264
  476MOL0     C62705   1.121   3.835   2.681 -0.2882  0.7827  0.3460
  476MOL0     C62706   1.244   3.876   2.627  0.4338 -0.1166  0.0251
  476MOL0     C62707   1.360   3.853   2.682 -1.1190 -1.2238 -0.5254
  476MOL0     O62708   1.468   3.920   2.627 -0.2299  0.1285 -0.6955
  476MOL0     C62709   1.586   3.839   2.618  0.2497 -1.1034  0.6369
  476MOL0     C62710   1.685   3.932   2.544 -0.0134 -0.4587 -0.1974
  476MOL0     C62711   1.840   3.884   2.540 -0.3703  0.3148 -0.0218
  476MOL0     C62712   1.895   3.851   2.676 -0.8059  0.5337 -0.0817
  476MOL0     C62713   2.051   3.874   2.658  0.1054  0.4518 -0.3672
  476MOL0     C62714   2.115   3.771   2.565  0.2324 -0.4434  0.0125
  476MOL0     C62715   2.268   3.775   2.571 -0.3412 -0.2332  0.4964
  476MOL0     C62716   2.329   3.885   2.475 -0.3542 -0.0530 -0.8398
  476MOL0     N62717   2.470   3.885   2.514 -0.6498  0.2971  0.1815
  476MOL0     C62718   2.574   3.818   2.457 -0.3921 -0.5045 -0.4109
  476MOL0     C62719   2.679   3.831   2.540 -0.2183 -0.2549  0.8203
  476MOL0     C62720   2.819   3.782   2.527  0.7307  0.0521 -0.3121
  476MOL0     C62721   2.853   3.669   2.624  0.5036 -0.1314  0.0754
  476MOL0     C62722   2.981   3.593   2.597 -1.4370  0.8860 -0.5906
  476MOL0     C62723   3.113   3.678   2.617 -0.2175  0.5297 -1.1094
  476MOL0     O62724   3.129   3.732   2.756 -0.8366 -0.1540  0.6944
  476MOL0     C62725   3.248   3.686   2.813 -0.6032 -0.7240  0.3909
  476MOL0     C62726   3.281   3.557   2.837  0.1564  0.5316 -1.5090
  476MOL0     C62727   3.404   3.507   2.898  0.5330  0.3910  0.1648
  476MOL0     C62728   3.500   3.597   2.936 -0.1921 -0.8768 -0.3842
  476MOL0     C62729   3.620   3.542   3.014 -0.1013 -0.2444 -0.3175
  476MOL0     O62730   3.629   3.405   3.023  0.9785 -0.5772 -1.2496
  476MOL0     C62731   3.727   3.339   3.093  0.2822  0.3473  0.4888
  476MOL0     C62732   3.704   3.310   3.228  0.3748  0.0912 -0.1607
  476MOL0     C62733   3.802   3.248   3.300 -0.1450 -0.3489  0.0602
  476MOL0     C62734   3.924   3.200   3.247  1.0328 -0.4365 -0.1510
  476MOL0     O62735   4.013   3.132   3.330 -0.1688 -0.1687  0.1151
  476MOL0     C62736   4.099   3.213   3.414  0.0249  0.0942 -0.6557
  476MOL0     C62737   4.150   3.112   3.520  0.4722  0.2881  0.3467
  476MOL0     C62738   4.256   3.188   3.606 -0.3126  0.7956 -0.7671
  476MOL0     C62739   4.335   3.088   3.696 -0.5146  0.5249  0.5055
  476MOL0     C62740   4.247   3.052   3.818  0.1266  1.0375  0.5267
  476MOL0     C62741   4.318   2.993   3.937 -0.2905 -0.1749  0.5529
  476MOL0     C62742   4.230   2.972   4.051 -0.2069  0.0604  0.2273
  476MOL0     C62743   4.165   2.829   4.036  0.8053 -0.3975  0.4982
  476MOL0    Cl62744   4.284   2.694   4.053  0.2062 -0.0381  0.1160
  476MOL0     C62745   3.940   3.223   3.110  0.1465  1.1230 -0.7273
  476MOL0     C62746   3.846   3.299   3.033 -0.4495  0.0657  0.0094
  476MOL0     O62747   3.699   3.621   3.061  0.2780 -1.0246  0.0258
  476MOL0     C62748   3.470   3.731   2.907  0.5256  0.0108  0.1845
  476MOL0     C62749   3.349   3.776   2.844  0.2226 -0.0965 -0.6922
  476MOL0     N62750   2.638   3.917   2.642 -0.7712 -0.3588 -0.2504
  476MOL0     N62751   2.518   3.950   2.627  0.0061 -0.1824  0.2880
  476MOL0     C62752   1.363   3.794   2.809 -1.0371  0.0508  0.2596
  476MOL0     C62753   1.249   3.745   2.870  0.2100  0.2519 -0.3865
  476MOL0     C62754   0.781   3.643   2.902  0.0399  0.6073  0.2094
  476MOL0     C62755   0.715   3.527   2.868 -0.3939  0.2772 -0.6371
  476MOL0     C62756   0.599   3.493   2.940 -0.3074 -0.7450  1.5965
  476MOL0     C62757   0.556   3.573   3.055  0.1413 -0.0388  0.5278
  476MOL0     O62758   0.445   3.545   3.137  0.3174  0.4598  0.0179
  476MOL0     C62759   0.400   3.405   3.133 -0.5460 -0.1062 -0.1478
  476MOL0     C62760   0.300   3.374   3.253  0.1565  0.2702  0.1743
  476MOL0     C62761   0.260   3.221   3.240  0.6875 -0.1464  0.2337
  476MOL0     C62762   0.190   3.172   3.366 -1.1791  0.9144  0.6226
  476MOL0     C62763   0.132   3.037   3.358 -0.5075 -0.1158 -0.6093
  476MOL0     C62764   0.095   2.919   3.352  0.4196 -0.0516 -0.4840
  476MOL0     C62765   0.621   3.694   3.071  0.3862  0.7327 -0.0701
  476MOL0     C62766   0.737   3.724   3.003 -0.4456  0.6627 -0.0156
  476MOL0     H62767   1.022   3.852   2.642 -0.2755 -0.2681 -0.1839
  476MOL0     H62768   1.249   3.933   2.535  3.5006  2.5038  1.5981
  476MOL0     H62769   1.565   3.745   2.566  0.3163  0.5192 -2.5902
  476MOL0     H62770   1.636   3.810   2.711  1.2227  0.3585  0.6104
  476MOL0     H62771   1.681   4.034   2.582 -1.0759 -0.0577 -1.3127
  476MOL0     H62772   1.649   3.953   2.443  1.3521  0.4854 -0.5129
  476MOL0     H62773   1.899   3.971   2.509 -0.6138  1.8891  3.4065
  476MOL0     H62774   1.858   3.803   2.469 -0.6559  0.9804 -0.8777
  476MOL0     H62775   1.856   3.911   2.759 -1.6984  0.6223 -0.5506
  476MOL0     H62776   1.868   3.750   2.706  0.9861  0.1903  0.4541
  476MOL0     H62777   2.088   3.858   2.759 -0.3063  1.6286 -0.0122
  476MOL0     H62778   2.067   3.975   2.620 -0.3142  0.6094 -0.1266
  476MOL0     H62779   2.074   3.785   2.465 -0.0806  1.3330  0.3573
  476MOL0     H62780   2.087   3.674   2.609 -0.0861  0.8864  3.0243
  476MOL0     H62781   2.303   3.790   2.674 -0.5841 -2.1217  0.9041
  476MOL0     H62782   2.317   3.681   2.543  1.0414  1.2003 -2.2752
  476MOL0     H62783   2.282   3.983   2.489  0.7537  0.2749  0.9625
  476MOL0     H62784   2.324   3.855   2.370 -1.3479 -1.8327 -0.3144
  476MOL0     H62785   2.567   3.764   2.363  0.1341 -0.8926 -0.2327
  476MOL0     H62786   2.889   3.866   2.537  2.1170 -0.9166 -1.4847
  476MOL0     H62787   2.833   3.731   2.431 -0.3943  2.0210 -1.5872
  476MOL0     H62788   2.768   3.600   2.624  0.6222 -0.2795  0.2416
  476MOL0     H62789   2.853   3.718   2.722 -2.1471  0.6406 -0.2228
  476MOL0     H62790   2.980   3.515   2.673  1.0005  1.1838 -0.1939
  476MOL0     H62791   2.984   3.549   2.497 -0.2919  0.0014 -0.1907
  476MOL0     H62792   3.104   3.769   2.556 -0.9930  1.4103  0.2821
  476MOL0     H62793   3.199   3.623   2.577 -1.0061  0.3901 -2.7087
  476MOL0     H62794   3.206   3.484   2.808 -0.2870 -0.7314  2.2303
  476MOL0     H62795   3.408   3.399   2.902  0.7436  0.1339 -3.5914
  476MOL0     H62796   3.609   3.340   3.271 -0.5234 -0.4336 -1.6817
  476MOL0     H62797   3.788   3.212   3.401  0.7692 -2.4789 -0.4960
  476MOL0     H62798   4.051   3.303   3.456  0.3432 -0.1895  0.3551
  476MOL0     H62799   4.178   3.243   3.345  2.3093 -1.0744  1.3135
  476MOL0     H62800   4.193   3.023   3.473  1.5454  0.1629  1.5302
  476MOL0     H62801   4.064   3.081   3.581 -1.1755 -1.3796 -2.6158
  476MOL0     H62802   4.214   3.267   3.669  1.1469  0.9362  0.0555
  476MOL0     H62803   4.338   3.240   3.554  0.6458  1.8430  1.6483
  476MOL0     H62804   4.372   3.000   3.642  1.0523  1.0086  0.7546
  476MOL0     H62805   4.426   3.144   3.717 -0.7547  0.9382  0.4615
  476MOL0     H62806   4.162   2.990   3.790  0.0788  0.4455  1.9438
  476MOL0     H62807   4.197   3.142   3.855 -0.3570 -0.4790  3.8843
  476MOL0     H62808   4.406   3.055   3.958 -1.1223  2.2301 -2.2313
  476MOL0     H62809   4.368   2.901   3.907 -0.6563 -0.6010  1.2367
  476MOL0     H62810   4.286   2.971   4.145 -1.0390  0.0933  0.7271
  476MOL0     H62811   4.160   3.056   4.054  0.0054  0.2394  0.2192
  476MOL0     H62812   4.118   2.819   3.938 -0.8463  1.8313  1.0041
  476MOL0     H62813   4.085   2.815   4.108  0.8052 -2.5299  0.1576
  476MOL0     H62814   4.039   3.194   3.077  0.1923  0.5541 -0.1073
  476MOL0     H62815   3.867   3.311   2.927  0.5925  0.4994  0.2543
  476MOL0     H62816   3.537   3.809   2.942 -0.9157  2.4854 -2.1973
  476MOL0     H62817   3.327   3.882   2.837  0.4189 -0.0240 -0.2489
  476MOL0     H62818   1.454   3.768   2.861  0.4358  1.0957 -1.6683
  476MOL0     H62819   1.238   3.695   2.966 -0.9897 -3.0750 -2.0943
  476MOL0     H62820   0.746   3.457   2.791  0.2652 -0.2085  0.0676
  476MOL0     H62821   0.554   3.395   2.927  0.2105 -0.9958  1.6652
  476MOL0     H62822   0.489   3.344   3.148 -0.5424  0.6252  4.1452
  476MOL0     H62823   0.347   3.379   3.041  1.9180 -2.1268 -1.1148
  476MOL0     H62824   0.352   3.387   3.348 -1.4133  0.1216  1.0921
  476MOL0     H62825   0.211   3.437   3.245  0.8114  1.0445 -1.6527
  476MOL0     H62826   0.337   3.147   3.213 -0.9072 -0.8798 -2.7766
  476MOL0     H62827   0.193   3.214   3.154 -0.2454  1.6087  0.7767
  476MOL0     H62828   0.260   3.166   3.451  2.0818 -0.9010 -1.9394
  476MOL0     H62829   0.106   3.241   3.381 -1.2987  1.5901 -2.4834
  476MOL0     H62830   0.053   2.821   3.345  2.7729 -1.2490  0.8420
  476MOL0     H62831   0.586   3.760   3.150 -0.9671 -0.6093  0.4976
  476MOL0     H62832   0.798   3.810   3.024  0.0560  0.5930 -1.1605
  477MOL0     O62833   6.481   7.789   5.640 -0.4365  0.1133  0.3295
  477MOL0     C62834   6.508   7.668   5.632  0.0173 -0.6058  0.8500
  477MOL0     O62835   6.427   7.573   5.590  0.0634  0.2574  0.3726
  477MOL0     C62836   6.293   7.580   5.566  0.1857  0.7893 -0.1655
  477MOL0     C62837   6.196   7.619   5.665 -0.5536 -0.1118  0.8252
  477MOL0     C62838   6.061   7.634   5.622 -0.1252  0.2457  0.2085
  477MOL0     C62839   6.028   7.605   5.487  0.1406 -0.7632  0.2097
  477MOL0     O62840   5.902   7.599   5.449  0.7352  0.5798  0.4690
  477MOL0     C62841   5.841   7.721   5.418 -0.5052  0.0190 -1.0982
  477MOL0     C62842   5.725   7.752   5.507 -0.1233  0.0207 -0.6273
  477MOL0     C62843   5.594   7.675   5.482 -0.4934  0.4097  0.3399
  477MOL0     C62844   5.501   7.706   5.591 -0.1165 -0.4318  0.2175
  477MOL0     C62845   5.374   7.631   5.558  0.6929  0.2127  0.0856
  477MOL0     C62846   5.265   7.635   5.660 -0.0009  0.1970 -0.7832
  477MOL0     C62847   5.140   7.565   5.606 -0.4698 -0.3767 -0.4984
  477MOL0     C62848   5.025   7.583   5.707  0.5385  0.3660 -0.9951
  477MOL0     N62849   4.885   7.559   5.654  0.0969 -0.8180 -0.5851
  477MOL0     C62850   4.823   7.457   5.584  0.2233  0.0766 -0.8471
  477MOL0     C62851   4.695   7.496   5.565  0.2461  1.0744 -0.1290
  477MOL0     C62852   4.583   7.423   5.506 -0.5828 -0.2441 -0.2231
  477MOL0     C62853   4.528   7.322   5.610 -0.1084  0.6851  0.0832
  477MOL0     C62854   4.399   7.241   5.568  0.0646 -0.3315 -0.7758
  477MOL0     C62855   4.275   7.333   5.535 -0.0955  0.0080 -0.6637
  477MOL0     O62856   4.155   7.261   5.544 -0.1543 -0.5406 -0.8593
  477MOL0     C62857   4.041   7.317   5.486 -1.2730  0.2714  0.4560
  477MOL0     C62858   4.039   7.455   5.455  0.9064  0.0159 -0.0383
  477MOL0     C62859   3.926   7.523   5.401 -0.5073  0.2796  0.6715
  477MOL0     C62860   3.810   7.448   5.365 -0.3018 -0.9831  0.2042
  477MOL0     C62861   3.688   7.524   5.335 -0.3693 -0.4584  0.4315
  477MOL0     O62862   3.566   7.482   5.369  0.0975  0.6459 -0.0464
  477MOL0     C62863   3.457   7.526   5.307  0.9946 -0.9335 -0.0151
  477MOL0     C62864   3.368   7.423   5.261 -0.7250  0.1539  0.9880
  477MOL0     C62865   3.240   7.456   5.208  0.3861 -0.1212 -0.9921
  477MOL0     C62866   3.205   7.594   5.185  0.0290  0.0023  0.8598
  477MOL0     O62867   3.077   7.623   5.146  0.0702  0.3836  0.1431
  477MOL0     C62868   3.030   7.754   5.099  0.0919 -0.2142 -0.7207
  477MOL0     C62869   2.884   7.740   5.052  0.2411  1.4971  0.1208
  477MOL0     C62870   2.812   7.879   5.053  0.1265 -0.3925  0.1206
  477MOL0     C62871   2.665   7.869   5.010 -1.0627 -0.2513 -0.2735
  477MOL0     C62872   2.633   7.776   4.901 -0.8508  0.7420  0.5671
  477MOL0     C62873   2.479   7.771   4.886  0.4717  0.0612 -0.0177
  477MOL0     C62874   2.447   7.708   4.750 -1.0261 -0.8401  0.1373
  477MOL0     C62875   2.321   7.617   4.767  0.1320 -0.0102 -0.6111
  477MOL0    Cl62876   2.189   7.720   4.831  0.0708 -0.1579  0.0517
  477MOL0     C62877   3.302   7.691   5.217 -0.5503 -0.0322 -0.1126
  477MOL0     C62878   3.423   7.659   5.273 -0.5711 -0.2025  0.5753
  477MOL0     O62879   3.714   7.623   5.265 -0.0319 -0.4171 -0.2019
  477MOL0     C62880   3.815   7.314   5.389  0.2609  0.3964 -0.4143
  477MOL0     C62881   3.927   7.244   5.445  1.1500 -0.0742 -0.3362
  477MOL0     N62882   4.683   7.616   5.629 -0.0309 -0.0915 -0.3831
  477MOL0     N62883   4.793   7.661   5.684  0.5879 -0.2161  0.2429
  477MOL0     C62884   6.128   7.592   5.389  0.1362 -0.6475  0.1143
  477MOL0     C62885   6.259   7.576   5.434  0.1093  0.4855 -0.3687
  477MOL0     C62886   6.650   7.639   5.661  0.0030  0.1640  0.5331
  477MOL0     C62887   6.693   7.511   5.681  0.2185  0.3179 -0.0113
  477MOL0     C62888   6.826   7.477   5.712  0.4647 -1.2481  0.1116
  477MOL0     C62889   6.926   7.583   5.721  0.9122  1.0731 -0.5519
  477MOL0     O62890   7.057   7.574   5.746  0.2416  0.4594  0.3983
  477MOL0     C62891   7.100   7.446   5.795 -0.4783 -0.3701  0.2168
  477MOL0     C62892   7.138   7.360   5.683  0.1008  0.5264 -0.1064
  477MOL0     C62893   7.231   7.247   5.730  0.6661  0.1988 -0.4717
  477MOL0     C62894   7.246   7.134   5.632 -0.4427 -0.3757  0.3584
  477MOL0     C62895   7.296   7.183   5.499 -0.2577 -0.1938  0.4248
  477MOL0     C62896   7.332   7.239   5.397  0.7971 -0.9493 -0.4089
  477MOL0     C62897   6.877   7.708   5.708 -0.2824  0.2044 -0.5182
  477MOL0     C62898   6.754   7.738   5.668  0.5044  0.7079 -0.1409
  477MOL0     H62899   6.206   7.650   5.768  0.1765  2.3744  0.0924
  477MOL0     H62900   5.977   7.649   5.689  0.1145 -0.9277  0.7892
  477MOL0     H62901   5.806   7.725   5.315 -0.9505  1.4141 -0.9089
  477MOL0     H62902   5.913   7.803   5.420 -1.0770  0.5339  1.4132
  477MOL0     H62903   5.697   7.857   5.496 -0.7116  0.0128  0.6088
  477MOL0     H62904   5.748   7.746   5.614 -3.4073 -1.8209  0.0932
  477MOL0     H62905   5.608   7.566   5.484 -1.2839  0.2877 -0.0888
  477MOL0     H62906   5.562   7.698   5.379  1.1706  0.1028 -0.2703
  477MOL0     H62907   5.541   7.663   5.683  1.1645 -2.4445 -1.2148
  477MOL0     H62908   5.483   7.814   5.598 -1.2346 -0.6111  0.3615
  477MOL0     H62909   5.393   7.523   5.551 -2.6764 -0.7922  3.1287
  477MOL0     H62910   5.329   7.669   5.466  0.5698 -1.0629 -0.4026
  477MOL0     H62911   5.249   7.743   5.675  3.5076  1.0109 -1.8440
  477MOL0     H62912   5.278   7.597   5.761 -3.0842 -1.2844 -0.8464
  477MOL0     H62913   5.104   7.610   5.513 -2.9139 -1.3223 -0.0847
  477MOL0     H62914   5.154   7.457   5.593 -2.5821 -1.0079  1.7226
  477MOL0     H62915   5.026   7.684   5.750  0.1379  0.5440 -1.3968
  477MOL0     H62916   5.039   7.516   5.792 -1.7544  0.6110 -0.3335
  477MOL0     H62917   4.865   7.365   5.544 -1.8791 -1.4340  0.2138
  477MOL0     H62918   4.612   7.373   5.413  0.9229 -1.8081  1.0233
  477MOL0     H62919   4.511   7.501   5.479  1.0084  0.8056 -1.6076
  477MOL0     H62920   4.503   7.381   5.698  0.5292 -1.1181  1.5520
  477MOL0     H62921   4.611   7.256   5.635  0.3435  2.3472  3.5766
  477MOL0     H62922   4.426   7.169   5.490  1.8903 -0.9917  0.3976
  477MOL0     H62923   4.376   7.195   5.664  3.3470  1.9111  1.2946
  477MOL0     H62924   4.307   7.367   5.436  5.7847 -0.5151  0.6789
  477MOL0     H62925   4.275   7.412   5.611 -0.6251 -1.7415  1.2437
  477MOL0     H62926   4.120   7.523   5.482  2.3327 -0.9505 -1.6952
  477MOL0     H62927   3.927   7.631   5.395 -0.0889  0.2087 -1.5450
  477MOL0     H62928   3.398   7.320   5.281 -0.9152  0.0470  0.7364
  477MOL0     H62929   3.169   7.373   5.203  2.6500 -2.2684  0.3740
  477MOL0     H62930   3.095   7.782   5.016 -1.5482 -1.6808 -2.5937
  477MOL0     H62931   3.034   7.829   5.179  0.7091 -0.5855 -0.3960
  477MOL0     H62932   2.835   7.671   5.121  1.6236  0.4430  0.0846
  477MOL0     H62933   2.885   7.698   4.951  0.9735 -0.6458  0.9795
  477MOL0     H62934   2.865   7.948   4.987 -2.0279  0.9245 -0.3279
  477MOL0     H62935   2.811   7.919   5.155 -0.3733  0.9622 -0.3959
  477MOL0     H62936   2.616   7.823   5.097 -3.8585  2.1105 -0.4216
  477MOL0     H62937   2.617   7.967   5.002  0.5841  1.0210  3.1526
  477MOL0     H62938   2.675   7.683   4.940 -1.4928  0.6399  1.0190
  477MOL0     H62939   2.690   7.801   4.811  1.3798  1.0175  1.9596
  477MOL0     H62940   2.428   7.868   4.892 -0.7529 -0.5764  0.0722
  477MOL0     H62941   2.436   7.705   4.962  2.0947 -4.1579 -2.4445
  477MOL0     H62942   2.431   7.786   4.675  1.8061 -1.4222 -1.2043
  477MOL0     H62943   2.527   7.644   4.711  1.2618  1.1032  1.3800
  477MOL0     H62944   2.338   7.527   4.826  2.1304  0.2432 -0.7311
  477MOL0     H62945   2.302   7.578   4.666  1.2667 -1.2373 -0.3687
  477MOL0     H62946   3.286   7.796   5.196  0.6233  0.3195  0.6516
  477MOL0     H62947   3.493   7.735   5.304  0.2149  0.3240 -2.1835
  477MOL0     H62948   3.730   7.250   5.369  1.0333 -0.7059 -0.2226
  477MOL0     H62949   3.923   7.136   5.452  0.4503 -0.2254 -2.4015
  477MOL0     H62950   6.102   7.604   5.285  1.3655  2.9047  0.0754
  477MOL0     H62951   6.342   7.564   5.365 -0.8827  0.7192 -1.6298
  477MOL0     H62952   6.626   7.425   5.684  2.4858 -1.5551 -0.3847
  477MOL0     H62953   6.852   7.373   5.733 -0.8204 -1.5004  0.5958
  477MOL0     H62954   7.031   7.395   5.863 -0.8878  2.2762  1.9023
  477MOL0     H62955   7.180   7.467   5.866 -2.0902  0.5574  1.8595
  477MOL0     H62956   7.047   7.327   5.633  1.8215 -2.6760 -1.4503
  477MOL0     H62957   7.186   7.432   5.616  1.5082 -0.0553  0.2463
  477MOL0     H62958   7.201   7.210   5.828  1.0820  1.5249  0.1846
  477MOL0     H62959   7.332   7.285   5.750  0.7101 -0.4610  0.6286
  477MOL0     H62960   7.317   7.062   5.673  1.1377  2.0068  2.0893
  477MOL0     H62961   7.155   7.078   5.613  0.7497 -3.2661  2.4802
  477MOL0     H62962   7.353   7.298   5.310 -0.7638 -0.0077 -0.1930
  477MOL0     H62963   6.947   7.788   5.731  0.9279 -0.7062 -0.9300
  477MOL0     H62964   6.720   7.839   5.647 -1.7401 -0.1536 -1.0096
  478MOL0     O62965   8.771   2.935  10.384 -0.4238  0.5336 -0.8015
  478MOL0     C62966   8.823   3.042  10.386  1.6973 -0.0523 -0.2764
  478MOL0     O62967   8.751   3.161  10.378  0.1387 -0.2196 -0.3374
  478MOL0     C62968   8.614   3.157  10.360 -0.5112  0.1856 -0.8478
  478MOL0     C62969   8.528   3.185  10.474 -0.6398 -0.7158  0.5762
  478MOL0     C62970   8.390   3.182  10.457  0.5029 -0.2677  0.2505
  478MOL0     C62971   8.334   3.145  10.330 -0.7483  1.0229  0.0365
  478MOL0     O62972   8.200   3.162  10.307  0.2080  0.6010  0.3062
  478MOL0     C62973   8.101   3.137  10.407 -0.6852  0.7750  0.1750
  478MOL0     C62974   7.969   3.123  10.327 -0.2509  0.3203  0.0067
  478MOL0     C62975   7.849   3.074  10.418  0.2557 -0.2685  0.4385
  478MOL0     C62976   7.713   3.127  10.373  0.6368  0.2619 -0.2495
  478MOL0     C62977   7.602   3.058  10.460 -0.3421 -0.0619 -0.1481
  478MOL0     C62978   7.464   3.108  10.400 -0.0331  0.4293  0.3494
  478MOL0     C62979   7.349   3.041  10.479 -0.9678 -0.5125 -0.4625
  478MOL0     C62980   7.334   2.888  10.488 -0.3705  0.1429 -0.2348
  478MOL0     N62981   7.324   2.850  10.349 -0.2023  0.5362 -0.7861
  478MOL0     C62982   7.212   2.861  10.275  0.5978  0.3290 -0.5156
  478MOL0     C62983   7.250   2.847  10.147 -0.3855  0.1788  0.3635
  478MOL0     C62984   7.155   2.839  10.021  0.8261  0.2082  0.5023
  478MOL0     C62985   7.104   2.690   9.990 -0.2967  1.0262  1.2914
  478MOL0     C62986   7.055   2.596  10.106 -0.5664 -0.3076  0.3930
  478MOL0     C62987   6.906   2.622  10.110 -0.1955  0.3870  0.3246
  478MOL0     O62988   6.882   2.754  10.153  0.0267 -0.2639  0.5848
  478MOL0     C62989   6.754   2.787  10.115 -0.0872 -0.4672 -0.3721
  478MOL0     C62990   6.737   2.891  10.024  0.0365 -0.0798  0.2175
  478MOL0     C62991   6.609   2.925   9.980  0.2878  0.5792  0.1875
  478MOL0     C62992   6.495   2.845  10.016  0.4171 -0.1190 -0.2441
  478MOL0     C62993   6.372   2.887   9.958 -0.0470  0.1523  0.1537
  478MOL0     O62994   6.372   2.984   9.868 -0.0378  0.2031 -0.1927
  478MOL0     C62995   6.255   3.037   9.807  0.4268 -0.6174  0.1099
  478MOL0     C62996   6.272   3.104   9.687 -0.5480  0.7810 -0.4066
  478MOL0     C62997   6.168   3.162   9.613 -0.2107  0.6042 -0.4383
  478MOL0     C62998   6.039   3.139   9.660  0.7066  0.3405  0.3791
  478MOL0     O62999   5.927   3.193   9.591 -0.2561  0.5044 -0.3318
  478MOL0     C63000   5.938   3.302   9.498 -0.1718 -0.5500 -0.1284
  478MOL0     C63001   5.796   3.332   9.451  0.2142  0.8447 -0.1393
  478MOL0     C63002   5.710   3.373   9.570 -0.1384  0.6298  0.4210
  478MOL0     C63003   5.564   3.408   9.532 -0.2663 -0.2486  0.5569
  478MOL0     C63004   5.492   3.423   9.664  0.4499 -0.2355  0.3150
  478MOL0     C63005   5.493   3.567   9.717  0.6476  1.0052  0.8623
  478MOL0     C63006   5.387   3.614   9.816  0.5698  0.6077  0.1428
  478MOL0     C63007   5.446   3.733   9.888 -0.5478 -1.2789  0.1157
  478MOL0    Cl63008   5.345   3.784  10.022 -0.4625  0.0974 -0.0597
  478MOL0     C63009   6.012   3.066   9.779 -0.1280 -0.1316 -0.0578
  478MOL0     C63010   6.120   3.017   9.857 -0.4548  0.0807  0.1824
  478MOL0     O63011   6.277   2.816   9.988  0.2746 -0.4731 -0.8036
  478MOL0     C63012   6.516   2.737  10.104 -0.0585  0.7818 -0.4513
  478MOL0     C63013   6.640   2.712  10.161  0.6973  0.5931 -0.5460
  478MOL0     N63014   7.382   2.820  10.151  0.0345 -0.1419  0.2815
  478MOL0     N63015   7.428   2.830  10.264  0.3782 -0.9220  0.6403
  478MOL0     C63016   8.427   3.149  10.217 -0.6340  0.9820 -0.0894
  478MOL0     C63017   8.563   3.141  10.230  1.0683 -0.4068  0.0837
  478MOL0     C63018   8.970   3.051  10.422 -0.1151  0.3579  0.7877
  478MOL0     C63019   9.044   2.939  10.466 -0.1675 -0.6082 -0.7071
  478MOL0     C63020   9.178   2.961  10.478 -0.3905  0.2062 -0.5933
  478MOL0     C63021   9.242   3.084  10.461 -0.3578 -0.4698  0.2705
  478MOL0     O63022   9.372   3.108  10.475 -0.2622 -0.4943  0.3341
  478MOL0     C63023   9.451   3.030  10.571  0.2056  0.1786 -1.0242
  478MOL0     C63024   9.462   3.095  10.710  0.0555  0.1130  0.1715
  478MOL0     C63025   9.555   3.217  10.728 -0.1439 -0.2150 -0.6082
  478MOL0     C63026   9.487   3.337  10.658 -0.5720  0.1859  0.2815
  478MOL0     C63027   9.562   3.465  10.675 -0.1947 -0.0904 -0.3232
  478MOL0     C63028   9.622   3.571  10.699 -0.3079 -0.2214  0.3824
  478MOL0     C63029   9.168   3.192  10.416  0.2078 -0.3084 -0.1559
  478MOL0     C63030   9.035   3.171  10.395 -0.1523 -0.1890  0.6532
  478MOL0     H63031   8.579   3.201  10.568  0.0105  0.1843  0.0879
  478MOL0     H63032   8.334   3.203  10.548 -1.1098 -1.0435 -0.5291
  478MOL0     H63033   8.109   3.215  10.484  1.7281 -0.6159  1.4476
  478MOL0     H63034   8.119   3.043  10.459  1.4884  0.4682 -1.0390
  478MOL0     H63035   7.976   3.053  10.243 -1.2432 -0.8390  0.8616
  478MOL0     H63036   7.945   3.224  10.293  2.1858  1.1075  0.4194
  478MOL0     H63037   7.857   3.121  10.517  1.5826  1.0811 -0.2901
  478MOL0     H63038   7.840   2.966  10.437 -3.8775 -0.3055 -0.7953
  478MOL0     H63039   7.699   3.234  10.389 -0.1225  0.1782 -0.3276
  478MOL0     H63040   7.695   3.102  10.268  0.8047  1.0271 -0.4678
  478MOL0     H63041   7.606   3.088  10.566 -0.1519  1.0346 -0.4526
  478MOL0     H63042   7.618   2.950  10.462 -0.8263 -0.1295  0.3976
  478MOL0     H63043   7.457   3.095  10.292  2.1728 -1.0783  0.3392
  478MOL0     H63044   7.453   3.213  10.427 -1.2369 -0.3883  3.4901
  478MOL0     H63045   7.365   3.081  10.579  1.6903 -2.9574  0.2250
  478MOL0     H63046   7.255   3.083  10.441 -0.1572  0.8513 -1.0177
  478MOL0     H63047   7.239   2.858  10.533 -0.3156 -0.1604 -0.3252
  478MOL0     H63048   7.425   2.849  10.534  2.8626  3.7937 -2.8744
  478MOL0     H63049   7.106   2.862  10.298  1.0249  0.9268  1.7016
  478MOL0     H63050   7.202   2.873   9.928  0.2631 -2.5883 -0.9077
  478MOL0     H63051   7.068   2.901  10.045 -0.5357 -0.9376 -1.2847
  478MOL0     H63052   7.196   2.635   9.967 -0.1369  0.5343  2.9911
  478MOL0     H63053   7.044   2.696   9.899 -0.5434 -1.3079  1.2382
  478MOL0     H63054   7.061   2.489  10.081 -3.3693 -0.2188 -1.0484
  478MOL0     H63055   7.102   2.605  10.204  0.4416  0.0222 -0.0998
  478MOL0     H63056   6.851   2.547  10.168 -1.8150  1.5315  0.3617
  478MOL0     H63057   6.872   2.611  10.006 -1.6376 -0.6331  0.8731
  478MOL0     H63058   6.821   2.945   9.982 -1.3114  0.8010 -1.4619
  478MOL0     H63059   6.601   2.999   9.900 -0.1259 -1.1178 -1.4252
  478MOL0     H63060   6.374   3.131   9.660  0.1009  0.5367  1.6282
  478MOL0     H63061   6.187   3.224   9.526 -2.9286  1.3107 -0.6237
  478MOL0     H63062   5.993   3.283   9.405 -0.0381 -1.2330  0.0857
  478MOL0     H63063   5.990   3.383   9.549  0.8559 -0.9015 -0.5810
  478MOL0     H63064   5.748   3.241   9.414 -0.7245  1.2191  0.1315
  478MOL0     H63065   5.806   3.404   9.369 -3.6284  1.4146 -0.2613
  478MOL0     H63066   5.754   3.457   9.624 -1.4560 -0.4408  3.4195
  478MOL0     H63067   5.719   3.293   9.645  0.2239 -0.4788 -0.7609
  478MOL0     H63068   5.554   3.491   9.462  0.2847  0.2831  1.1008
  478MOL0     H63069   5.515   3.326   9.478  1.9160 -0.5209 -1.1559
  478MOL0     H63070   5.524   3.342   9.731  3.8961 -0.2812 -1.1674
  478MOL0     H63071   5.388   3.412   9.629  1.0193  0.8300 -1.8729
  478MOL0     H63072   5.483   3.640   9.636 -0.0436  2.3082  2.0818
  478MOL0     H63073   5.595   3.576   9.757  1.4135  1.5532 -1.0927
  478MOL0     H63074   5.299   3.655   9.764 -0.7107  1.3069  2.6845
  478MOL0     H63075   5.350   3.535   9.881 -3.8329  3.3177  1.3974
  478MOL0     H63076   5.460   3.824   9.828 -0.2744 -0.4380  1.4132
  478MOL0     H63077   5.545   3.705   9.925 -0.3778 -0.8044  0.0298
  478MOL0     H63078   5.909   3.067   9.813  0.2328 -3.8997  1.7030
  478MOL0     H63079   6.094   2.970   9.951  0.8641 -1.2625 -0.0932
  478MOL0     H63080   6.433   2.681  10.146  1.3363  0.1542  1.6080
  478MOL0     H63081   6.649   2.632  10.234 -0.8120  0.2201 -0.7455
  478MOL0     H63082   8.394   3.162  10.115  2.7227  4.5351 -0.9986
  478MOL0     H63083   8.628   3.146  10.143  2.3246  1.7684  1.0549
  478MOL0     H63084   8.987   2.847  10.468 -0.6077 -0.3482 -1.0422
  478MOL0     H63085   9.235   2.869  10.489  0.3058  0.4418 -1.9258
  478MOL0     H63086   9.548   3.024  10.521  0.0907  1.9232 -1.4932
  478MOL0     H63087   9.404   2.932  10.584 -0.9719  0.5454 -2.3436
  478MOL0     H63088   9.360   3.127  10.735  0.4413  1.7850 -0.2716
  478MOL0     H63089   9.492   3.013  10.776  1.4246 -0.2879 -0.9082
  478MOL0     H63090   9.648   3.191  10.676 -0.5426 -1.5839 -0.6552
  478MOL0     H63091   9.585   3.237  10.831 -0.1356 -0.9005 -0.4787
  478MOL0     H63092   9.463   3.315  10.554 -0.9446 -2.4003  0.8355
  478MOL0     H63093   9.386   3.353  10.698 -0.5424 -1.4925  1.1011
  478MOL0     H63094   9.651   3.673  10.711 -0.8445  0.0159 -0.2690
  478MOL0     H63095   9.210   3.292  10.409  1.7241 -0.9009 -0.1049
  478MOL0     H63096   8.974   3.257  10.370  0.3910 -0.5757 -2.3664
  479MOL0     O63097   8.525   6.783   9.981  0.6676  0.1534 -0.4558
  479MOL0     C63098   8.566   6.805   9.868  0.2788 -0.2332  0.3287
  479MOL0     O63099   8.495   6.806   9.753  0.2729 -0.2399 -0.0746
  479MOL0     C63100   8.360   6.787   9.759 -0.0391 -0.6282  0.2758
  479MOL0     C63101   8.293   6.694   9.845 -0.0739  0.5411 -0.4505
  479MOL0     C63102   8.151   6.669   9.842  0.1607 -0.8373  0.3420
  479MOL0     C63103   8.077   6.757   9.752  0.8697 -0.2434  0.0688
  479MOL0     O63104   7.942   6.781   9.757 -0.5604 -0.2857 -0.8224
  479MOL0     C63105   7.856   6.668   9.788  0.2282  0.3318  0.2344
  479MOL0     C63106   7.712   6.722   9.774 -0.3946 -0.1226 -0.3522
  479MOL0     C63107   7.612   6.616   9.729  0.1616  0.0707  0.6111
  479MOL0     C63108   7.475   6.670   9.711  0.3494 -0.0509 -1.1926
  479MOL0     C63109   7.404   6.705   9.850 -0.7896 -0.2443  0.8459
  479MOL0     C63110   7.258   6.662   9.834  0.0783 -0.6278 -0.3337
  479MOL0     C63111   7.155   6.718   9.936  0.1882  0.2962 -0.2471
  479MOL0     C63112   7.029   6.638   9.916  0.2817 -0.1510  0.1223
  479MOL0     N63113   6.936   6.675  10.018  0.3854 -1.3481  0.4903
  479MOL0     C63114   6.849   6.782  10.002 -0.0636  0.0875  0.0345
  479MOL0     C63115   6.792   6.793  10.122  0.3746  0.0884 -0.0153
  479MOL0     C63116   6.691   6.900  10.162 -0.1835 -0.3958 -0.4746
  479MOL0     C63117   6.547   6.856  10.163 -0.3673 -0.0503  0.1479
  479MOL0     C63118   6.462   6.927  10.263 -0.1500 -0.2466 -0.0305
  479MOL0     C63119   6.452   7.075  10.242 -0.2562 -0.2625 -0.0118
  479MOL0     O63120   6.352   7.111  10.144 -0.5027 -0.8029 -0.3933
  479MOL0     C63121   6.254   7.194  10.191  0.7923  1.1373 -0.0488
  479MOL0     C63122   6.128   7.136  10.217  0.5291  0.3540  0.8950
  479MOL0     C63123   6.017   7.209  10.263 -0.7577 -0.1521 -0.0547
  479MOL0     C63124   6.038   7.348  10.304 -0.6236 -0.2979 -0.2503
  479MOL0     C63125   5.934   7.432  10.360  0.2258  0.3945  0.1403
  479MOL0     O63126   5.802   7.385  10.359  0.0058 -0.1267 -0.1126
  479MOL0     C63127   5.700   7.460  10.417  0.5807 -0.3523 -0.3336
  479MOL0     C63128   5.675   7.581  10.353  0.7240 -0.8740  0.3320
  479MOL0     C63129   5.566   7.660  10.412  0.3711  0.0547 -0.2802
  479MOL0     C63130   5.506   7.619  10.533 -0.3951 -0.3555  0.3963
  479MOL0     O63131   5.422   7.706  10.610  0.8330 -0.4620 -0.3575
  479MOL0     C63132   5.385   7.837  10.555  0.0262 -0.0582  0.3699
  479MOL0     C63133   5.296   7.911  10.658 -0.4282 -0.4080  0.3548
  479MOL0     C63134   5.170   7.830  10.685 -0.5500  0.4743  0.0406
  479MOL0     C63135   5.048   7.903  10.732 -0.0921 -0.5129 -0.1641
  479MOL0     C63136   4.922   7.818  10.732  0.3965 -0.3166 -0.1962
  479MOL0     C63137   4.805   7.901  10.793 -0.1674 -0.2491 -0.7023
  479MOL0     C63138   4.816   7.926  10.944  0.0380 -0.8741 -0.0443
  479MOL0     C63139   4.714   8.038  10.983 -0.3874  0.3372  0.1811
  479MOL0    Cl63140   4.542   7.985  10.969  0.0301  0.1904  0.1752
  479MOL0     C63141   5.542   7.501  10.589  0.0372  0.6358 -0.9884
  479MOL0     C63142   5.626   7.408  10.518 -0.5096  0.2897 -0.6372
  479MOL0     O63143   5.970   7.541  10.407  0.3622 -0.4607 -0.7919
  479MOL0     C63144   6.164   7.402  10.280 -0.6254 -0.0470 -0.5930
  479MOL0     C63145   6.270   7.326  10.218 -0.4054  0.6452  0.6483
  479MOL0     N63146   6.843   6.702  10.211  0.0902  0.0508 -0.6052
  479MOL0     N63147   6.935   6.640  10.148  0.6143 -0.0904 -0.4785
  479MOL0     C63148   8.139   6.842   9.657 -0.2729 -0.3287 -0.8174
  479MOL0     C63149   8.279   6.858   9.672  0.4529  0.0745  0.7052
  479MOL0     C63150   8.703   6.858   9.845 -0.6276  0.3720 -0.2014
  479MOL0     C63151   8.782   6.886   9.959  0.7808  0.4922 -0.8021
  479MOL0     C63152   8.912   6.934   9.951  0.3717 -0.1628  0.3692
  479MOL0     C63153   8.965   6.961   9.821  0.8283 -0.1532  0.2037
  479MOL0     O63154   9.097   7.002   9.793  0.0113 -0.1501  0.3223
  479MOL0     C63155   9.183   7.025   9.907 -0.2077  0.3686 -0.3126
  479MOL0     C63156   9.308   7.092   9.867 -0.1189 -0.4067  0.1557
  479MOL0     C63157   9.403   7.013   9.782 -0.3234 -0.4730  0.2875
  479MOL0     C63158   9.488   6.919   9.870 -0.2877 -0.5416 -0.1588
  479MOL0     C63159   9.567   6.998   9.971 -1.0304  0.4437 -0.1417
  479MOL0     C63160   9.630   7.048  10.064 -0.4652 -0.3584  0.1438
  479MOL0     C63161   8.891   6.938   9.713  1.0281 -0.4112  0.8960
  479MOL0     C63162   8.759   6.891   9.723 -0.4408  0.1072  0.3035
  479MOL0     H63163   8.352   6.625   9.906  0.9894  2.4334  0.7929
  479MOL0     H63164   8.106   6.595   9.908  1.2496 -0.0943  1.9865
  479MOL0     H63165   7.873   6.615   9.882 -1.3883 -1.5706 -0.4678
  479MOL0     H63166   7.871   6.592   9.710  1.3484  1.1026 -0.3287
  479MOL0     H63167   7.712   6.816   9.718  1.2386  0.5383  0.7021
  479MOL0     H63168   7.680   6.749   9.875  0.2468  0.5892 -0.3370
  479MOL0     H63169   7.610   6.527   9.793 -0.8680  0.2158  0.7984
  479MOL0     H63170   7.648   6.576   9.634 -0.5293 -0.0022  0.3769
  479MOL0     H63171   7.477   6.762   9.651  0.4502  0.7921  0.0665
  479MOL0     H63172   7.416   6.592   9.663  0.7828 -0.3228 -1.2830
  479MOL0     H63173   7.408   6.815   9.853 -3.3490 -0.0526 -0.1463
  479MOL0     H63174   7.441   6.664   9.944  1.2727  2.8062  1.5239
  479MOL0     H63175   7.257   6.554   9.849 -1.8687 -0.7245 -0.8733
  479MOL0     H63176   7.212   6.684   9.737 -0.0497 -0.8785 -0.3297
  479MOL0     H63177   7.184   6.691  10.037 -2.1506  2.5966  1.1660
  479MOL0     H63178   7.134   6.825   9.927 -0.2223  0.4119  1.6699
  479MOL0     H63179   7.046   6.530   9.912 -0.9362 -0.3391 -0.5653
  479MOL0     H63180   6.984   6.659   9.818 -1.2792 -2.2141  0.3223
  479MOL0     H63181   6.825   6.838   9.912 -3.7492  0.7154  1.2292
  479MOL0     H63182   6.699   6.984  10.092 -2.0282 -0.4519 -0.7858
  479MOL0     H63183   6.724   6.919  10.264 -1.6827 -1.0517  0.1484
  479MOL0     H63184   6.538   6.747  10.173  2.2108 -0.6481 -2.7231
  479MOL0     H63185   6.497   6.861  10.066 -1.4025 -0.8005  0.6225
  479MOL0     H63186   6.364   6.881  10.248  1.0133 -2.8341 -0.1822
  479MOL0     H63187   6.500   6.903  10.362 -0.1615 -1.2387 -0.2543
  479MOL0     H63188   6.548   7.119  10.214  1.1845 -2.8494  0.4364
  479MOL0     H63189   6.409   7.111  10.336 -1.7166 -0.5274 -0.5549
  479MOL0     H63190   6.129   7.029  10.196  2.0412  0.3454  0.8856
  479MOL0     H63191   5.923   7.160  10.287 -0.7303  1.1591  3.2275
  479MOL0     H63192   5.733   7.610  10.266 -0.3551 -2.3382 -0.9292
  479MOL0     H63193   5.525   7.753  10.373 -0.6110  0.4364  1.5419
  479MOL0     H63194   5.324   7.814  10.468  2.0300 -1.9954 -0.6212
  479MOL0     H63195   5.479   7.890  10.533  1.1644 -0.9438  2.6862
  479MOL0     H63196   5.268   8.005  10.611  2.4832  0.2406 -0.2873
  479MOL0     H63197   5.353   7.936  10.748  0.2716  0.6531 -0.3734
  479MOL0     H63198   5.198   7.755  10.759 -0.1979 -0.2151 -0.7696
  479MOL0     H63199   5.151   7.776  10.592 -0.2970  1.3041 -0.5123
  479MOL0     H63200   5.055   7.967  10.821 -3.0095 -1.5276  0.9217
  479MOL0     H63201   5.034   7.982  10.658  0.4519 -0.6440 -0.4079
  479MOL0     H63202   4.929   7.725  10.788 -0.9373 -0.0401  0.4517
  479MOL0     H63203   4.897   7.781  10.632 -0.2229 -1.3711  0.3332
  479MOL0     H63204   4.722   7.833  10.773  0.3177 -0.2794 -2.8564
  479MOL0     H63205   4.796   7.998  10.744 -0.7788 -0.2734 -0.6512
  479MOL0     H63206   4.793   7.834  10.998  1.7937 -0.6916  1.1145
  479MOL0     H63207   4.919   7.944  10.975  0.3320  0.5744 -1.7356
  479MOL0     H63208   4.733   8.128  10.924  4.1952 -0.5316 -0.0247
  479MOL0     H63209   4.739   8.067  11.085 -1.8818  0.3043  0.5725
  479MOL0     H63210   5.493   7.459  10.676 -2.1515 -0.3536 -2.5820
  479MOL0     H63211   5.643   7.307  10.553 -0.7935  0.6776  0.6776
  479MOL0     H63212   6.175   7.507  10.307 -0.0445  0.2394 -1.8837
  479MOL0     H63213   6.372   7.361  10.201  0.3200 -1.1288  1.0852
  479MOL0     H63214   8.089   6.908   9.587 -0.4999  0.1896 -0.1701
  479MOL0     H63215   8.323   6.926   9.599 -1.7463  2.9328  1.8390
  479MOL0     H63216   8.733   6.852  10.050 -1.1725 -3.7900 -3.1620
  479MOL0     H63217   8.962   6.944  10.047  1.6132 -2.7161  0.0671
  479MOL0     H63218   9.193   6.928   9.958  0.4875  1.7568  2.3627
  479MOL0     H63219   9.124   7.089   9.973 -1.8759 -0.7971 -0.5949
  479MOL0     H63220   9.275   7.180   9.811 -1.7324 -1.6885 -1.0283
  479MOL0     H63221   9.348   7.135   9.959 -1.5737  0.2536  0.5202
  479MOL0     H63222   9.469   7.080   9.725 -0.3342 -0.2066  0.5872
  479MOL0     H63223   9.340   6.961   9.709 -0.3673 -0.7326  0.5120
  479MOL0     H63224   9.418   6.851   9.919 -1.2250 -0.4754 -1.3742
  479MOL0     H63225   9.552   6.861   9.804  2.6884  1.2512  0.9491
  479MOL0     H63226   9.691   7.083  10.145  1.1285 -1.1265 -0.6723
  479MOL0     H63227   8.926   6.955   9.611 -1.7059  1.5458  0.1746
  479MOL0     H63228   8.704   6.892   9.629  0.0550  0.0111  0.0069
  480MOL0     O63229   1.265   3.706   5.396  0.8126  0.0891 -0.3520
  480MOL0     C63230   1.300   3.593   5.376 -0.0658  0.8445 -0.2490
  480MOL0     O63231   1.245   3.474   5.428  0.3354  0.0222 -0.4100
  480MOL0     C63232   1.128   3.485   5.494  0.2819  0.0456 -0.0371
  480MOL0     C63233   1.126   3.509   5.637 -0.0630  0.9008  0.0888
  480MOL0     C63234   0.999   3.507   5.712 -0.2995 -0.3272  0.4676
  480MOL0     C63235   0.878   3.465   5.647 -0.1837 -0.2567  0.0934
  480MOL0     O63236   0.764   3.467   5.723  0.2233  0.5320 -0.2638
  480MOL0     C63237   0.650   3.401   5.672 -0.2552  0.2856  0.4933
  480MOL0     C63238   0.546   3.399   5.783 -0.2441  0.5519 -0.7865
  480MOL0     C63239   0.419   3.342   5.716  0.3195  0.2214 -0.4308
  480MOL0     C63240   0.298   3.391   5.795 -0.0465 -0.3745 -0.8886
  480MOL0     C63241   0.177   3.303   5.779  0.1730 -0.2795 -0.1791
  480MOL0     C63242   0.118   3.306   5.643  0.2406  0.3815 -0.2664
  480MOL0     C63243  -0.038   3.310   5.651 -0.0864  0.2428 -0.6099
  480MOL0     C63244  -0.098   3.448   5.701 -0.5065  0.6379 -0.7157
  480MOL0     N63245  -0.246   3.441   5.702 -0.4181  0.1715 -0.2180
  480MOL0     C63246  -0.309   3.346   5.762 -0.3677  0.4638  0.1962
  480MOL0     C63247  -0.442   3.374   5.731 -0.4319  0.4234 -0.4019
  480MOL0     C63248  -0.561   3.290   5.768 -1.0193 -0.4093 -0.0092
  480MOL0     C63249  -0.629   3.364   5.890 -0.7946  0.3318  0.6446
  480MOL0     C63250  -0.755   3.302   5.954  1.1036  0.2212  0.4415
  480MOL0     C63251  -0.847   3.235   5.859  0.2166  0.7429  0.9787
  480MOL0     O63252  -0.945   3.172   5.937  0.3954  0.0843  0.6904
  480MOL0     C63253  -1.066   3.146   5.886  0.2146 -0.4809 -0.1793
  480MOL0     C63254  -1.167   3.095   5.974 -0.5025  0.0059  0.0110
  480MOL0     C63255  -1.284   3.051   5.920  0.1922 -0.1721 -0.0938
  480MOL0     C63256  -1.323   3.070   5.780 -0.4671 -0.4080  0.4758
  480MOL0     C63257  -1.450   3.018   5.728 -0.2936  0.3610 -0.1325
  480MOL0     O63258  -1.489   3.054   5.603  0.2527  0.0778 -0.1544
  480MOL0     C63259  -1.604   3.000   5.542  0.0809  0.5542  0.3302
  480MOL0     C63260  -1.595   2.902   5.447  0.6943  0.8608 -0.1905
  480MOL0     C63261  -1.714   2.841   5.394  0.4382 -0.6810  0.2498
  480MOL0     C63262  -1.838   2.884   5.442  0.0446 -0.4614  0.8325
  480MOL0     O63263  -1.950   2.809   5.407  0.1832 -0.2193 -0.0873
  480MOL0     C63264  -2.064   2.880   5.377 -0.0615  0.6450  0.8029
  480MOL0     C63265  -2.143   2.798   5.277 -0.1979  0.9241  0.4106
  480MOL0     C63266  -2.280   2.859   5.251 -0.2009  0.2313  0.6115
  480MOL0     C63267  -2.373   2.835   5.370  0.1323 -0.1091 -0.0824
  480MOL0     C63268  -2.520   2.875   5.350  0.3068  0.1874 -0.0088
  480MOL0     C63269  -2.541   3.021   5.304  0.0981  0.0798  0.0542
  480MOL0     C63270  -2.685   3.046   5.259 -0.0527 -0.6501  0.0447
  480MOL0     C63271  -2.708   3.143   5.139  0.3895  0.9233 -0.6456
  480MOL0    Cl63272  -2.592   3.273   5.129 -0.0043 -0.6633 -0.0410
  480MOL0     C63273  -1.842   2.987   5.533  0.3097  0.3623 -0.4643
  480MOL0     C63274  -1.724   3.054   5.579  1.0578 -0.2938  0.4179
  480MOL0     O63275  -1.502   2.927   5.796 -0.2366  0.5131 -0.1851
  480MOL0     C63276  -1.228   3.128   5.692  0.4056 -0.5059  0.2645
  480MOL0     C63277  -1.106   3.168   5.750  1.0631 -0.2797 -0.5191
  480MOL0     N63278  -0.450   3.489   5.657  0.1126 -0.1240  0.1552
  480MOL0     N63279  -0.329   3.527   5.631  0.5475  0.2227 -0.2094
  480MOL0     C63280   0.882   3.456   5.500  0.2161 -0.5354 -0.2923
  480MOL0     C63281   1.002   3.460   5.430 -0.3158 -0.3125 -0.6122
  480MOL0     C63282   1.417   3.575   5.283  0.1498 -0.8916 -0.3310
  480MOL0     C63283   1.482   3.693   5.228 -0.5658  0.2622 -0.7807
  480MOL0     C63284   1.602   3.672   5.160 -0.2017  0.5443  0.7793
  480MOL0     C63285   1.659   3.544   5.143 -0.7056  0.1029  0.4387
  480MOL0     O63286   1.778   3.524   5.073 -0.0475  0.1182 -0.2715
  480MOL0     C63287   1.882   3.428   5.111  0.7228 -0.3597  0.1204
  480MOL0     C63288   2.023   3.475   5.087  0.4461  0.0836 -0.0218
  480MOL0     C63289   2.058   3.487   4.934  0.8033 -0.2984 -0.0998
  480MOL0     C63290   2.209   3.534   4.910  0.2033 -0.4083 -0.2725
  480MOL0     C63291   2.244   3.545   4.772  0.1410 -0.5159  0.2165
  480MOL0     C63292   2.270   3.553   4.658  0.0355  0.0184 -0.6223
  480MOL0     C63293   1.584   3.430   5.194 -0.6598 -0.2697 -0.2478
  480MOL0     C63294   1.468   3.447   5.269  1.0357 -0.0552  0.2629
  480MOL0     H63295   1.219   3.539   5.685  0.5454 -1.2042  0.2969
  480MOL0     H63296   0.984   3.511   5.819 -1.8463 -0.5335  0.2839
  480MOL0     H63297   0.667   3.304   5.625 -0.3093  0.6768 -0.3693
  480MOL0     H63298   0.611   3.466   5.593  0.6203 -1.4121 -1.4166
  480MOL0     H63299   0.524   3.497   5.825  1.2724 -0.1355  1.8587
  480MOL0     H63300   0.575   3.340   5.870 -0.7405  4.2868  2.1375
  480MOL0     H63301   0.424   3.236   5.743  2.1111  0.7080  1.4399
  480MOL0     H63302   0.397   3.360   5.610 -2.4607  2.0532  0.3410
  480MOL0     H63303   0.329   3.405   5.899 -4.5316 -0.2797  0.6431
  480MOL0     H63304   0.276   3.490   5.752  2.3704  0.0863 -1.1866
  480MOL0     H63305   0.104   3.330   5.855  0.3738 -1.0618  0.3070
  480MOL0     H63306   0.206   3.203   5.814  1.1744 -0.2351 -0.8298
  480MOL0     H63307   0.149   3.219   5.583 -0.2752 -1.2353  1.7021
  480MOL0     H63308   0.149   3.399   5.595  1.5679  0.3797  0.5289
  480MOL0     H63309  -0.082   3.301   5.550 -0.1484  0.9605 -0.6495
  480MOL0     H63310  -0.067   3.227   5.716 -0.8381  0.2044 -0.9735
  480MOL0     H63311  -0.067   3.526   5.631  0.2653 -0.2012 -1.3451
  480MOL0     H63312  -0.051   3.472   5.797  2.5241 -3.4314 -0.9119
  480MOL0     H63313  -0.263   3.262   5.813  2.5789  0.4615 -2.2438
  480MOL0     H63314  -0.528   3.191   5.802 -1.0469  0.3663  2.4806
  480MOL0     H63315  -0.626   3.287   5.680  1.4447  2.5582 -2.1235
  480MOL0     H63316  -0.661   3.466   5.864  1.9268  1.2587  0.6478
  480MOL0     H63317  -0.553   3.373   5.968  0.8422 -0.6989 -0.7565
  480MOL0     H63318  -0.714   3.234   6.029  1.1814 -1.6559 -1.2163
  480MOL0     H63319  -0.815   3.378   6.005  1.8335 -0.3454  2.2146
  480MOL0     H63320  -0.806   3.165   5.786  1.2978  3.1551 -0.8607
  480MOL0     H63321  -0.890   3.308   5.790 -0.9032 -1.8921 -1.2886
  480MOL0     H63322  -1.137   3.081   6.078  2.7023  3.0220 -0.2968
  480MOL0     H63323  -1.358   3.001   5.982 -2.3915  1.8670 -1.3006
  480MOL0     H63324  -1.496   2.868   5.418  0.4938  1.3950 -1.6139
  480MOL0     H63325  -1.712   2.771   5.311 -1.5414  1.4868 -1.7734
  480MOL0     H63326  -2.031   2.975   5.333  1.7681  0.2956  1.3297
  480MOL0     H63327  -2.123   2.896   5.468  1.1884 -0.3564  1.8347
  480MOL0     H63328  -2.147   2.695   5.315  0.3583 -0.3549 -2.6663
  480MOL0     H63329  -2.094   2.781   5.181 -1.7385 -4.0014  0.1999
  480MOL0     H63330  -2.321   2.823   5.156  2.7135  0.3250 -0.8205
  480MOL0     H63331  -2.269   2.965   5.227  2.4212 -0.3920 -1.5909
  480MOL0     H63332  -2.361   2.730   5.397  2.1772  0.4590  1.4751
  480MOL0     H63333  -2.349   2.905   5.451 -2.0435  3.3087 -2.1560
  480MOL0     H63334  -2.569   2.871   5.448 -1.8642 -1.2235 -1.0878
  480MOL0     H63335  -2.574   2.805   5.287 -2.4903  0.7772  1.5575
  480MOL0     H63336  -2.488   3.023   5.208 -1.9272 -1.6020 -1.1754
  480MOL0     H63337  -2.514   3.095   5.380 -1.2131 -0.0006  0.6190
  480MOL0     H63338  -2.740   2.954   5.237  2.6503 -2.7043  1.3372
  480MOL0     H63339  -2.750   3.062   5.346 -0.0110 -2.0343  0.3542
  480MOL0     H63340  -2.809   3.185   5.138 -0.4292 -0.7746  1.7987
  480MOL0     H63341  -2.710   3.081   5.049  0.6190  0.8152 -0.5757
  480MOL0     H63342  -1.938   3.015   5.577  0.1563 -0.9653  0.1016
  480MOL0     H63343  -1.724   3.129   5.657 -1.2364 -0.1620  0.3587
  480MOL0     H63344  -1.252   3.154   5.589  3.9547 -0.9128 -0.7997
  480MOL0     H63345  -1.038   3.213   5.678  1.0104  2.0794  0.7874
  480MOL0     H63346   0.792   3.430   5.445 -1.2628 -2.2371  2.6940
  480MOL0     H63347   1.000   3.463   5.321 -0.3053  3.8482 -0.6463
  480MOL0     H63348   1.439   3.792   5.239  1.1396  1.1297 -1.5349
  480MOL0     H63349   1.650   3.749   5.098 -1.1739  1.3275  0.9746
  480MOL0     H63350   1.868   3.344   5.041 -0.7145  1.7948 -2.3674
  480MOL0     H63351   1.863   3.388   5.211 -0.3241  0.0370  0.0932
  480MOL0     H63352   2.049   3.572   5.131  1.5963 -0.9392  1.6974
  480MOL0     H63353   2.086   3.403   5.140  2.2788 -0.1248 -2.3225
  480MOL0     H63354   1.996   3.566   4.891  0.4954 -1.3497 -1.6461
  480MOL0     H63355   2.035   3.400   4.872  0.6639 -2.1604  2.3694
  480MOL0     H63356   2.221   3.633   4.955  2.2964 -0.6844 -0.1339
  480MOL0     H63357   2.281   3.465   4.954 -1.9507 -1.1682  2.3460
  480MOL0     H63358   2.285   3.554   4.552 -2.3401  2.5590 -1.0744
  480MOL0     H63359   1.633   3.335   5.179 -0.7516 -0.3250 -0.2009
  480MOL0     H63360   1.417   3.354   5.293  0.2227 -0.2112 -1.8220
  481MOL0     O63361   0.647   4.621   5.695 -0.2043  0.3276  0.3797
  481MOL0     C63362   0.641   4.727   5.755  0.8808  0.0474 -0.5364
  481MOL0     O63363   0.523   4.795   5.778 -0.1270  0.4124  0.3074
  481MOL0     C63364   0.415   4.742   5.721  0.3555 -0.2537 -0.1054
  481MOL0     C63365   0.362   4.616   5.746  0.1252 -0.2536 -0.2673
  481MOL0     C63366   0.235   4.572   5.696 -0.8477  0.6519 -0.0095
  481MOL0     C63367   0.153   4.655   5.620  0.4249 -0.1045  0.7916
  481MOL0     O63368   0.036   4.612   5.556  0.0133  0.6033  0.0261
  481MOL0     C63369  -0.049   4.715   5.499 -0.1307 -0.0466  0.2395
  481MOL0     C63370  -0.143   4.646   5.406 -0.4672  1.1348 -0.5109
  481MOL0     C63371  -0.261   4.568   5.484 -0.0454  0.0873  0.2710
  481MOL0     C63372  -0.333   4.477   5.382 -0.7629 -0.4875  0.0016
  481MOL0     C63373  -0.450   4.393   5.445 -0.3383  0.2261  0.0064
  481MOL0     C63374  -0.573   4.472   5.473 -0.0261  0.1561  0.1640
  481MOL0     C63375  -0.630   4.567   5.368 -0.9682 -0.2628 -0.3478
  481MOL0     C63376  -0.685   4.495   5.242  0.0373  0.1422  0.6531
  481MOL0     N63377  -0.796   4.398   5.270  0.2216 -0.4871  0.5497
  481MOL0     C63378  -0.917   4.432   5.315  0.2848 -0.6422  0.0061
  481MOL0     C63379  -0.991   4.321   5.293 -0.3403  0.0220  0.5504
  481MOL0     C63380  -1.137   4.307   5.313 -0.1165  0.6362 -0.3957
  481MOL0     C63381  -1.187   4.358   5.447  0.2813 -0.1992 -0.3365
  481MOL0     C63382  -1.344   4.369   5.461  0.0793 -0.1281  0.2666
  481MOL0     C63383  -1.396   4.236   5.497  0.6796  0.5499  0.4914
  481MOL0     O63384  -1.520   4.262   5.554  0.0014 -0.4376  0.1739
  481MOL0     C63385  -1.630   4.269   5.473 -0.6382 -0.2086  0.6179
  481MOL0     C63386  -1.635   4.296   5.334  0.3712 -0.4442  0.0289
  481MOL0     C63387  -1.759   4.301   5.271  0.4937 -0.4453 -0.1719
  481MOL0     C63388  -1.885   4.297   5.340 -0.2257  0.1897 -1.3484
  481MOL0     C63389  -2.020   4.304   5.280 -0.1284  1.1286  0.0017
  481MOL0     O63390  -2.128   4.256   5.356  0.0301  0.0199  0.5224
  481MOL0     C63391  -2.254   4.257   5.303  0.0784 -0.3628  0.1591
  481MOL0     C63392  -2.286   4.203   5.178  0.1900 -0.3975 -0.6932
  481MOL0     C63393  -2.421   4.205   5.138  0.5660  0.4502  0.6233
  481MOL0     C63394  -2.524   4.251   5.226 -0.2241  0.3118 -0.0092
  481MOL0     O63395  -2.656   4.234   5.181 -0.1161  0.1734 -0.6449
  481MOL0     C63396  -2.717   4.319   5.080 -0.4259  0.0860 -0.6935
  481MOL0     C63397  -2.831   4.237   5.019 -0.5737 -1.4166  0.0744
  481MOL0     C63398  -2.772   4.119   4.943  0.4525  0.9915 -0.1928
  481MOL0     C63399  -2.876   4.046   4.866 -0.0176 -0.5216 -0.0273
  481MOL0     C63400  -2.906   4.105   4.730 -0.7421 -0.0948 -0.2732
  481MOL0     C63401  -3.045   4.063   4.677 -0.2698 -0.2451  0.7914
  481MOL0     C63402  -3.096   4.151   4.559  0.0309 -0.1100 -0.0434
  481MOL0     C63403  -3.106   4.300   4.576 -0.1449  0.2993 -1.2590
  481MOL0    Cl63404  -3.206   4.331   4.719  0.0643 -0.5222  0.0893
  481MOL0     C63405  -2.489   4.304   5.349 -0.0238  0.3739 -0.3035
  481MOL0     C63406  -2.356   4.301   5.393 -0.5900  0.6726  0.5947
  481MOL0     O63407  -2.029   4.349   5.163 -0.1918  0.4140 -0.6404
  481MOL0     C63408  -1.869   4.279   5.481  0.7022  0.0342  0.4786
  481MOL0     C63409  -1.747   4.263   5.540  0.4010 -0.1533  0.1085
  481MOL0     N63410  -0.922   4.224   5.225 -0.8536 -0.5498  0.4438
  481MOL0     N63411  -0.808   4.284   5.196  0.8751  0.5051 -0.0798
  481MOL0     C63412   0.203   4.790   5.603  0.1887  0.3874 -0.0042
  481MOL0     C63413   0.326   4.830   5.652 -0.6988 -0.2908  0.2007
  481MOL0     C63414   0.779   4.785   5.776 -0.1010 -0.1366  0.3436
  481MOL0     C63415   0.895   4.712   5.745 -0.1886  0.3169 -0.1040
  481MOL0     C63416   1.022   4.773   5.784 -0.4302  0.1043 -0.1581
  481MOL0     C63417   1.027   4.910   5.820  0.5048  0.5347  0.3908
  481MOL0     O63418   1.134   4.987   5.818  0.2777  0.1244 -0.4420
  481MOL0     C63419   1.258   4.947   5.761  0.0331 -0.1351  0.4705
  481MOL0     C63420   1.360   4.881   5.859  0.8709  0.2830 -0.1066
  481MOL0     C63421   1.499   4.845   5.799  0.3640 -0.8635 -0.2071
  481MOL0     C63422   1.557   4.962   5.715 -0.3468 -0.3423  0.7644
  481MOL0     C63423   1.695   4.936   5.670  0.5311 -0.2315 -0.4844
  481MOL0     C63424   1.810   4.928   5.615  0.1653 -0.6092 -0.4236
  481MOL0     C63425   0.902   4.982   5.843 -0.2010 -0.6610  0.7505
  481MOL0     C63426   0.780   4.915   5.828 -0.1322 -0.2767 -0.3416
  481MOL0     H63427   0.408   4.541   5.810 -1.3093 -2.6758 -1.8917
  481MOL0     H63428   0.203   4.469   5.712  0.8208  0.4659  2.7350
  481MOL0     H63429   0.003   4.787   5.435  1.7705 -1.1139  0.5104
  481MOL0     H63430  -0.098   4.770   5.579  0.6509  1.2955 -0.1813
  481MOL0     H63431  -0.084   4.575   5.349 -0.4365  0.0742  0.7881
  481MOL0     H63432  -0.185   4.723   5.341 -0.7116  1.3122 -0.1500
  481MOL0     H63433  -0.329   4.639   5.530 -1.7675 -0.8775 -0.6867
  481MOL0     H63434  -0.230   4.501   5.565 -0.7605 -1.5532 -0.7528
  481MOL0     H63435  -0.358   4.539   5.296  3.0500  2.1878  0.5833
  481MOL0     H63436  -0.258   4.411   5.337 -0.0865  0.8907 -0.9419
  481MOL0     H63437  -0.417   4.352   5.541 -2.2533  3.3161  2.1825
  481MOL0     H63438  -0.476   4.307   5.382  3.7224 -0.9878 -0.2953
  481MOL0     H63439  -0.537   4.545   5.546 -2.1447  0.3581  1.0863
  481MOL0     H63440  -0.646   4.408   5.524  0.8318  0.1752  1.4457
  481MOL0     H63441  -0.718   4.618   5.409 -1.1709  1.2823 -2.5133
  481MOL0     H63442  -0.557   4.641   5.333  0.3685 -1.7354 -0.7996
  481MOL0     H63443  -0.606   4.441   5.188  0.0113  2.6985 -2.2501
  481MOL0     H63444  -0.731   4.568   5.175 -3.4058 -0.1527  2.5063
  481MOL0     H63445  -0.956   4.528   5.350  3.0004  0.2784  0.7849
  481MOL0     H63446  -1.172   4.205   5.298 -0.5254  0.8392 -0.8507
  481MOL0     H63447  -1.183   4.373   5.238 -0.5247  0.1256 -0.5992
  481MOL0     H63448  -1.144   4.458   5.460  2.0367 -1.0986  1.1753
  481MOL0     H63449  -1.146   4.299   5.530  2.6354 -0.1974 -1.4061
  481MOL0     H63450  -1.370   4.443   5.537  0.3240  0.0935  0.1361
  481MOL0     H63451  -1.381   4.408   5.366 -1.1304  0.4352  0.9444
  481MOL0     H63452  -1.331   4.183   5.568  0.8216  0.8080  0.5544
  481MOL0     H63453  -1.404   4.171   5.409 -4.1052  2.3796 -0.7688
  481MOL0     H63454  -1.550   4.297   5.266 -0.8896 -2.7628 -1.7388
  481MOL0     H63455  -1.757   4.319   5.163 -0.6373 -1.4640 -0.3839
  481MOL0     H63456  -2.212   4.168   5.107  0.6443  0.6887 -0.7716
  481MOL0     H63457  -2.443   4.162   5.041 -1.4834  3.4992 -0.4004
  481MOL0     H63458  -2.639   4.326   5.004  1.8245 -1.9319  1.2683
  481MOL0     H63459  -2.753   4.413   5.123  0.7077  0.4019 -0.4079
  481MOL0     H63460  -2.890   4.308   4.960  1.4064  0.4180  0.1386
  481MOL0     H63461  -2.896   4.223   5.106  2.3102  1.5503  3.0460
  481MOL0     H63462  -2.735   4.045   5.014 -1.4472 -3.1796 -3.1085
  481MOL0     H63463  -2.699   4.158   4.871  0.2507 -0.7246 -1.3861
  481MOL0     H63464  -2.825   3.950   4.854  2.5979  0.1373  3.8841
  481MOL0     H63465  -2.963   4.043   4.934  0.6407  1.1203  0.9573
  481MOL0     H63466  -2.833   4.075   4.655 -1.4347 -3.1008  0.1507
  481MOL0     H63467  -2.914   4.213   4.746 -0.2767 -0.1981  0.7374
  481MOL0     H63468  -3.116   4.084   4.758  0.4242  0.2753  1.2686
  481MOL0     H63469  -3.048   3.957   4.648  0.0554  0.1972 -0.9685
  481MOL0     H63470  -3.026   4.126   4.478 -0.6252 -2.2935 -0.0155
  481MOL0     H63471  -3.190   4.114   4.517  0.3153  1.4068 -2.2035
  481MOL0     H63472  -3.151   4.343   4.487  0.7128  0.8598 -1.4303
  481MOL0     H63473  -3.006   4.332   4.606 -0.3307 -2.1579  2.7019
  481MOL0     H63474  -2.559   4.350   5.418  1.8582 -0.1361  2.0887
  481MOL0     H63475  -2.321   4.353   5.482 -0.2614  1.8791 -0.2113
  481MOL0     H63476  -1.962   4.292   5.535  1.0452  2.1582  0.6127
  481MOL0     H63477  -1.762   4.259   5.648 -4.3684  1.1422 -0.2676
  481MOL0     H63478   0.157   4.870   5.546 -0.1591 -0.4800 -0.9741
  481MOL0     H63479   0.356   4.934   5.638  1.1581 -0.3475  3.0130
  481MOL0     H63480   0.899   4.608   5.714  2.5862  0.2025  0.3954
  481MOL0     H63481   1.112   4.712   5.778  0.2544  1.1076 -0.4547
  481MOL0     H63482   1.297   5.037   5.712  1.9645 -0.7036  0.8794
  481MOL0     H63483   1.230   4.875   5.683 -2.9731 -1.1453  2.3256
  481MOL0     H63484   1.373   4.938   5.951 -1.8874  1.4678 -0.3610
  481MOL0     H63485   1.303   4.795   5.897 -1.3756  1.9009  0.3790
  481MOL0     H63486   1.486   4.755   5.739 -1.2382 -0.5401 -0.3849
  481MOL0     H63487   1.569   4.817   5.879  0.6112 -0.0789 -0.1329
  481MOL0     H63488   1.490   4.981   5.631  0.0393 -0.1860  0.4924
  481MOL0     H63489   1.560   5.051   5.778  1.7293  0.0191  0.2192
  481MOL0     H63490   1.908   4.927   5.571  0.5078 -1.6185  0.3165
  481MOL0     H63491   0.896   5.083   5.882  1.1544 -0.0627 -0.4617
  481MOL0     H63492   0.687   4.960   5.863  0.7162  0.8206  0.6054
  482MOL0     O63493   0.798   8.701   9.235 -1.4935 -0.0904 -0.4462
  482MOL0     C63494   0.871   8.722   9.133 -0.3625  0.0470 -0.6337
  482MOL0     O63495   0.842   8.700   8.997 -0.3222 -0.0541  0.2191
  482MOL0     C63496   0.721   8.631   8.981  0.2311 -0.0427  0.2214
  482MOL0     C63497   0.626   8.690   8.898  0.6816 -0.0985 -0.2814
  482MOL0     C63498   0.506   8.618   8.875 -0.6304 -0.6738  0.7602
  482MOL0     C63499   0.480   8.497   8.923 -0.2749  0.0629 -0.9383
  482MOL0     O63500   0.360   8.433   8.899 -0.3848 -0.1331 -0.2873
  482MOL0     C63501   0.250   8.476   8.822 -0.2832  0.2209 -0.1886
  482MOL0     C63502   0.124   8.402   8.866  1.0462 -0.0811  0.5484
  482MOL0     C63503  -0.006   8.437   8.783 -0.0276 -0.1914 -0.5498
  482MOL0     C63504  -0.080   8.568   8.804 -0.6900 -0.7429  0.8253
  482MOL0     C63505  -0.220   8.563   8.744  0.5538 -0.7361 -0.3326
  482MOL0     C63506  -0.335   8.609   8.843 -0.2544  0.1876 -0.2642
  482MOL0     C63507  -0.478   8.562   8.798  0.3649  0.2178 -0.7502
  482MOL0     C63508  -0.496   8.412   8.785  0.1940  0.1719  0.7333
  482MOL0     N63509  -0.630   8.370   8.762  0.3884 -0.1739  0.0802
  482MOL0     C63510  -0.673   8.286   8.654 -1.0882 -0.0664  0.0065
  482MOL0     C63511  -0.798   8.251   8.688 -0.1863  0.5942 -0.0237
  482MOL0     C63512  -0.894   8.156   8.615  0.1990  0.3551  0.6318
  482MOL0     C63513  -0.962   8.235   8.498  0.0739  0.0644 -0.1579
  482MOL0     C63514  -1.084   8.317   8.554 -0.3748 -0.9578 -0.2376
  482MOL0     C63515  -1.097   8.453   8.459  0.1070 -0.6056  0.4553
  482MOL0     O63516  -1.236   8.502   8.456  0.2486 -0.6955 -0.6341
  482MOL0     C63517  -1.323   8.454   8.359  0.1952 -0.4689 -0.2200
  482MOL0     C63518  -1.289   8.355   8.262  0.4145 -0.0826  0.0558
  482MOL0     C63519  -1.381   8.316   8.170  0.1912 -0.1570 -0.0498
  482MOL0     C63520  -1.514   8.362   8.169  0.1175 -0.6409 -0.4160
  482MOL0     C63521  -1.623   8.299   8.092 -0.0524  0.3691  0.1229
  482MOL0     O63522  -1.590   8.227   7.982  0.5247 -0.2482  0.3802
  482MOL0     C63523  -1.685   8.197   7.884 -0.8307 -0.3495  1.3562
  482MOL0     C63524  -1.661   8.084   7.804 -0.0532 -0.5569 -0.0584
  482MOL0     C63525  -1.742   8.054   7.700  0.5412 -0.1045  0.5967
  482MOL0     C63526  -1.861   8.122   7.670 -0.4926 -0.2273 -0.6507
  482MOL0     O63527  -1.936   8.078   7.561  0.3632  0.0272  0.2974
  482MOL0     C63528  -2.076   8.107   7.568 -0.5777  1.0520  0.9665
  482MOL0     C63529  -2.151   8.041   7.684  0.2284 -0.8585 -0.5810
  482MOL0     C63530  -2.240   7.927   7.646 -0.5688  0.2668 -0.4305
  482MOL0     C63531  -2.306   7.854   7.770 -0.1749 -0.0746  0.4324
  482MOL0     C63532  -2.390   7.736   7.720 -0.3519 -0.1124  0.6898
  482MOL0     C63533  -2.383   7.607   7.797 -0.6793  0.5329  0.6272
  482MOL0     C63534  -2.233   7.561   7.808  0.0777 -0.7506 -0.0667
  482MOL0     C63535  -2.217   7.414   7.850  0.3984  0.5521  0.7820
  482MOL0    Cl63536  -2.343   7.383   7.981  0.2268 -0.0528  0.1555
  482MOL0     C63537  -1.886   8.239   7.748  0.0533  0.0017 -0.5788
  482MOL0     C63538  -1.800   8.277   7.851  0.5452 -0.6981  0.0834
  482MOL0     O63539  -1.736   8.324   8.124 -0.1482  0.7180  0.1076
  482MOL0     C63540  -1.544   8.472   8.255 -0.3541  0.9302  0.2206
  482MOL0     C63541  -1.445   8.521   8.346 -0.7703  0.2843  0.9644
  482MOL0     N63542  -0.826   8.309   8.813  0.3243  0.1367  1.2898
  482MOL0     N63543  -0.725   8.369   8.860 -0.4622  0.0939  0.6360
  482MOL0     C63544   0.579   8.442   9.007  0.8392  0.3511  0.1645
  482MOL0     C63545   0.697   8.507   9.038  0.1859 -0.9933  0.6079
  482MOL0     C63546   0.992   8.793   9.172  0.5492  0.4667  0.2811
  482MOL0     C63547   1.090   8.820   9.073  0.1248  0.0224 -0.4406
  482MOL0     C63548   1.207   8.889   9.112  0.4025  0.1650  0.5296
  482MOL0     C63549   1.234   8.912   9.245 -1.3332 -0.4258  0.1284
  482MOL0     O63550   1.349   8.974   9.296  0.8375 -0.3495 -0.5804
  482MOL0     C63551   1.460   8.983   9.208  0.0421  0.8889  0.4479
  482MOL0     C63552   1.591   8.986   9.290 -0.4962 -0.8232 -0.0094
  482MOL0     C63553   1.707   8.988   9.196 -0.4844 -0.0305 -0.3531
  482MOL0     C63554   1.835   9.000   9.281  0.6906 -0.3860  0.1567
  482MOL0     C63555   1.951   8.996   9.201 -0.6114  0.5068 -0.1292
  482MOL0     C63556   2.050   8.991   9.134 -0.0901 -0.4244 -0.6727
  482MOL0     C63557   1.144   8.869   9.340  0.1376 -0.4763 -0.1329
  482MOL0     C63558   1.020   8.820   9.306  0.7606 -0.3778  0.3310
  482MOL0     H63559   0.637   8.788   8.852 -2.0708  0.0716 -0.7955
  482MOL0     H63560   0.439   8.649   8.796  0.7483  2.5491  0.7155
  482MOL0     H63561   0.273   8.450   8.718  2.0685 -1.4027  0.6417
  482MOL0     H63562   0.221   8.581   8.825 -0.2525  0.2039  1.1378
  482MOL0     H63563   0.108   8.439   8.968 -3.2524 -0.7983  0.3349
  482MOL0     H63564   0.125   8.294   8.855  0.6389  0.0955 -1.4946
  482MOL0     H63565  -0.079   8.363   8.816 -1.2952  1.3322  0.1940
  482MOL0     H63566   0.017   8.417   8.678 -1.4449 -0.9887 -0.7327
  482MOL0     H63567  -0.082   8.568   8.914 -3.7595 -2.0503  0.8697
  482MOL0     H63568  -0.021   8.650   8.763 -0.8299 -1.5338 -1.0319
  482MOL0     H63569  -0.236   8.469   8.690  2.1543  0.5086 -3.2043
  482MOL0     H63570  -0.210   8.636   8.663  1.9452 -0.5037  0.0314
  482MOL0     H63571  -0.341   8.717   8.829 -0.1038  0.1417 -0.6902
  482MOL0     H63572  -0.313   8.565   8.941  0.9778 -0.9919 -1.0424
  482MOL0     H63573  -0.549   8.600   8.871 -0.3151  0.9972 -1.7798
  482MOL0     H63574  -0.501   8.616   8.705  0.3373  0.5194 -0.5710
  482MOL0     H63575  -0.455   8.367   8.876  0.0326 -1.0314  0.2218
  482MOL0     H63576  -0.433   8.377   8.703 -0.1239  0.3585  0.4059
  482MOL0     H63577  -0.614   8.244   8.572 -1.1378  2.8640 -1.6610
  482MOL0     H63578  -0.966   8.108   8.681 -3.9478  3.0306 -1.4689
  482MOL0     H63579  -0.843   8.076   8.561 -1.0274 -1.4546  2.0263
  482MOL0     H63580  -0.995   8.175   8.413  0.0642  0.3361 -0.3469
  482MOL0     H63581  -0.878   8.297   8.468 -0.3184  2.0571  2.4570
  482MOL0     H63582  -1.164   8.244   8.542 -1.9503  0.6526  0.0536
  482MOL0     H63583  -1.070   8.332   8.661 -1.8831  1.7163 -0.3091
  482MOL0     H63584  -1.053   8.439   8.360 -0.2676  0.4204  0.1334
  482MOL0     H63585  -1.035   8.528   8.510 -0.3518 -0.3386  0.6292
  482MOL0     H63586  -1.191   8.311   8.247  0.5231 -0.1215  0.8362
  482MOL0     H63587  -1.361   8.235   8.100 -0.4464 -1.2393  0.9779
  482MOL0     H63588  -1.575   8.023   7.832 -0.3571 -0.2571  1.6138
  482MOL0     H63589  -1.703   7.974   7.637  0.4072  0.5228 -0.3108
  482MOL0     H63590  -2.109   8.080   7.468  0.0471 -1.0484  1.2878
  482MOL0     H63591  -2.077   8.216   7.581 -0.2264  1.3111 -0.9837
  482MOL0     H63592  -2.209   8.111   7.744  0.4984 -0.5918 -0.6297
  482MOL0     H63593  -2.080   7.995   7.753  1.1866  1.2440 -0.0964
  482MOL0     H63594  -2.175   7.853   7.599  1.4182  1.8037 -0.2587
  482MOL0     H63595  -2.317   7.972   7.582 -1.0013  2.9529  1.7752
  482MOL0     H63596  -2.229   7.824   7.842  0.9029  0.1252 -0.6087
  482MOL0     H63597  -2.377   7.914   7.828  0.5195 -0.2199  1.4658
  482MOL0     H63598  -2.357   7.722   7.617 -0.4609 -1.7685  0.8575
  482MOL0     H63599  -2.490   7.779   7.734  0.0652  0.9977  0.3825
  482MOL0     H63600  -2.447   7.529   7.753  0.6577  0.4653 -1.2622
  482MOL0     H63601  -2.425   7.623   7.897 -0.4892 -0.2664  0.8478
  482MOL0     H63602  -2.186   7.584   7.712  0.3929 -0.6194  0.1160
  482MOL0     H63603  -2.184   7.623   7.884  0.1441  1.2511 -1.6382
  482MOL0     H63604  -2.118   7.391   7.891  0.4423 -1.3269 -0.2829
  482MOL0     H63605  -2.240   7.354   7.762 -2.5596 -0.8115  2.3438
  482MOL0     H63606  -1.972   8.303   7.738 -0.5485 -0.7322 -0.2178
  482MOL0     H63607  -1.820   8.370   7.905 -0.0074  0.1690 -1.5306
  482MOL0     H63608  -1.645   8.513   8.250 -0.2066  1.3185  0.3705
  482MOL0     H63609  -1.460   8.612   8.403 -2.7364  0.3955  0.3491
  482MOL0     H63610   0.565   8.340   9.042  0.8867 -0.9115 -3.1151
  482MOL0     H63611   0.770   8.463   9.105 -0.7346 -0.4297  2.0368
  482MOL0     H63612   1.077   8.805   8.966 -1.6651 -0.0115 -0.2461
  482MOL0     H63613   1.274   8.928   9.036  1.3291 -2.5221 -0.1604
  482MOL0     H63614   1.463   9.072   9.145  1.8441 -1.4042 -2.9843
  482MOL0     H63615   1.456   8.896   9.142  1.7503  0.7507  0.4801
  482MOL0     H63616   1.588   9.069   9.361 -2.5397  0.0301 -1.0299
  482MOL0     H63617   1.593   8.895   9.351 -1.0719 -1.2655 -0.6392
  482MOL0     H63618   1.694   9.074   9.129  0.1037  0.2273 -0.1466
  482MOL0     H63619   1.730   8.901   9.134  2.5299 -2.2069  3.3529
  482MOL0     H63620   1.832   9.096   9.334  0.1008  0.5503 -1.4838
  482MOL0     H63621   1.843   8.919   9.353  0.0648  0.4886  1.2525
  482MOL0     H63622   2.142   8.980   9.081 -0.2001  1.3640 -1.3014
  482MOL0     H63623   1.175   8.882   9.443  3.0112 -0.2434 -0.9483
  482MOL0     H63624   0.947   8.803   9.385  1.7977 -0.7838  1.2304
  483MOL0     O63625   3.475   7.666   6.256  0.3272 -0.2814 -0.4310
  483MOL0     C63626   3.572   7.649   6.189 -0.1784  1.8645  0.1264
  483MOL0     O63627   3.578   7.662   6.052 -0.4440  0.6068  0.2043
  483MOL0     C63628   3.463   7.712   5.990  0.6243 -0.5867 -0.0036
  483MOL0     C63629   3.336   7.650   6.005 -1.6405  0.1923 -0.8968
  483MOL0     C63630   3.225   7.686   5.934 -0.4912 -0.6767  0.0234
  483MOL0     C63631   3.233   7.798   5.849 -0.3115  0.6167 -0.0562
  483MOL0     O63632   3.129   7.851   5.772  0.0162  0.3687 -0.3894
  483MOL0     C63633   3.027   7.754   5.746 -0.4595  0.1100  0.2216
  483MOL0     C63634   2.950   7.815   5.628  0.0386 -0.1759  0.2711
  483MOL0     C63635   2.843   7.719   5.576  0.0019  0.5414  0.4073
  483MOL0     C63636   2.792   7.747   5.431  0.0091  0.7863 -0.7698
  483MOL0     C63637   2.686   7.636   5.410 -0.1013  0.0282 -1.1124
  483MOL0     C63638   2.749   7.500   5.358 -0.2886  0.5933 -0.4581
  483MOL0     C63639   2.649   7.401   5.305  0.1781 -0.3639 -0.0401
  483MOL0     C63640   2.590   7.454   5.172 -0.2220 -0.4888  1.0274
  483MOL0     N63641   2.516   7.338   5.110 -0.2385 -0.0320 -0.4064
  483MOL0     C63642   2.380   7.330   5.131  0.1684 -0.0139 -0.3119
  483MOL0     C63643   2.335   7.270   5.016  0.0053  0.1042 -0.1735
  483MOL0     C63644   2.190   7.236   4.988  0.3409 -0.7491 -0.5710
  483MOL0     C63645   2.110   7.367   4.937 -0.5383  0.3332 -0.1024
  483MOL0     C63646   2.063   7.337   4.792 -0.4858 -0.7381  0.0476
  483MOL0     C63647   1.973   7.447   4.731 -0.0938 -0.0774  0.2862
  483MOL0     O63648   1.951   7.426   4.589  0.2852 -0.1434 -0.3417
  483MOL0     C63649   1.828   7.374   4.564 -0.7482 -0.0586 -0.6614
  483MOL0     C63650   1.825   7.240   4.544  0.1117  0.2163  0.1387
  483MOL0     C63651   1.711   7.176   4.500  0.1745  0.3609  0.6375
  483MOL0     C63652   1.589   7.245   4.487  0.3847  0.2540 -0.4565
  483MOL0     C63653   1.467   7.177   4.432 -0.0440  0.8520 -0.4248
  483MOL0     O63654   1.360   7.258   4.414 -0.8874  0.3787  0.4991
  483MOL0     C63655   1.243   7.209   4.365 -0.5072  0.0495 -0.0728
  483MOL0     C63656   1.123   7.264   4.418  0.5746 -0.2943 -0.5465
  483MOL0     C63657   0.996   7.214   4.384 -0.2727 -0.1070  0.7752
  483MOL0     C63658   0.992   7.119   4.283 -0.5214 -0.0941  0.1488
  483MOL0     O63659   0.871   7.072   4.229  0.0384  0.3377  0.2787
  483MOL0     C63660   0.777   7.178   4.202 -0.3777  0.3940 -0.7346
  483MOL0     C63661   0.671   7.126   4.097 -0.4569  0.2199 -0.2419
  483MOL0     C63662   0.538   7.196   4.104 -0.0279  0.0067  0.1978
  483MOL0     C63663   0.445   7.161   3.989  0.6888  0.2239  1.1306
  483MOL0     C63664   0.409   7.014   4.009  0.0727 -0.3419  1.0011
  483MOL0     C63665   0.288   6.975   3.924  0.8871 -0.5062  0.3642
  483MOL0     C63666   0.233   6.838   3.957 -0.1313  0.0891  0.1979
  483MOL0     C63667   0.121   6.806   3.854 -0.1213  0.6607 -0.0122
  483MOL0    Cl63668   0.191   6.807   3.686  0.2236  0.1549 -0.4733
  483MOL0     C63669   1.110   7.064   4.226  0.5451 -0.1221 -0.3128
  483MOL0     C63670   1.237   7.102   4.272  0.0321  0.9257  0.8165
  483MOL0     O63671   1.466   7.057   4.422 -0.0022  0.0494  0.3357
  483MOL0     C63672   1.596   7.389   4.516 -0.8162  0.6879 -0.3548
  483MOL0     C63673   1.715   7.449   4.563  1.0969 -0.2616  0.8481
  483MOL0     N63674   2.441   7.226   4.939 -0.2890 -0.5221  0.3457
  483MOL0     N63675   2.547   7.278   4.991  0.3585 -0.2154  0.4728
  483MOL0     C63676   3.358   7.870   5.834  0.0059  0.3253 -1.2529
  483MOL0     C63677   3.472   7.829   5.911 -0.2833  0.7407  0.1954
  483MOL0     C63678   3.692   7.611   6.272 -0.1535  1.1800  0.6807
  483MOL0     C63679   3.814   7.581   6.210  0.1169  0.6633 -0.7368
  483MOL0     C63680   3.925   7.557   6.292 -0.6615 -0.2528  1.1178
  483MOL0     C63681   3.920   7.550   6.432 -0.1253 -0.3374  0.7397
  483MOL0     O63682   4.025   7.524   6.522  0.8134 -0.2806  0.5814
  483MOL0     C63683   4.160   7.554   6.489  0.0174 -0.1022  0.2175
  483MOL0     C63684   4.179   7.704   6.461  0.1482  0.0816 -0.0834
  483MOL0     C63685   4.118   7.795   6.568  0.1768 -0.2386 -0.4949
  483MOL0     C63686   4.148   7.939   6.551  0.1631  0.8825  0.6173
  483MOL0     C63687   4.290   7.965   6.557  0.6353 -0.6625 -0.3995
  483MOL0     C63688   4.399   8.007   6.551 -1.3815  0.1762  1.3816
  483MOL0     C63689   3.795   7.573   6.486  0.2287  0.5500 -0.3829
  483MOL0     C63690   3.689   7.606   6.408  0.5692  0.0605  0.1052
  483MOL0     H63691   3.326   7.569   6.077  1.1283  1.3973  1.0460
  483MOL0     H63692   3.128   7.640   5.951 -1.9874  2.4179  0.4729
  483MOL0     H63693   2.965   7.745   5.836 -0.4955  3.9045  0.7519
  483MOL0     H63694   3.072   7.662   5.709  1.0938 -0.2656  2.8078
  483MOL0     H63695   3.027   7.811   5.550  1.0977 -2.8423  1.3529
  483MOL0     H63696   2.906   7.914   5.643 -2.9029 -1.0037 -1.8880
  483MOL0     H63697   2.760   7.723   5.647 -0.6857  1.4828 -0.4394
  483MOL0     H63698   2.872   7.614   5.588 -0.9154  0.2244 -0.0947
  483MOL0     H63699   2.748   7.845   5.416 -1.9647 -0.2121 -1.8754
  483MOL0     H63700   2.876   7.738   5.362  0.0337 -3.2564 -0.4536
  483MOL0     H63701   2.622   7.683   5.335 -2.4773 -0.9148  0.2183
  483MOL0     H63702   2.627   7.617   5.500  1.9625  1.6658  0.7157
  483MOL0     H63703   2.796   7.458   5.448 -0.1840  1.0623 -0.2915
  483MOL0     H63704   2.837   7.504   5.293  1.3783 -0.4428  1.5879
  483MOL0     H63705   2.690   7.300   5.298 -0.7766 -1.0263  2.5460
  483MOL0     H63706   2.572   7.405   5.384  0.3661  1.9177  0.1028
  483MOL0     H63707   2.667   7.488   5.102 -1.5934  0.7112  0.0253
  483MOL0     H63708   2.528   7.542   5.195  0.3769  0.3319 -0.3169
  483MOL0     H63709   2.317   7.370   5.210 -1.4035 -2.4257 -0.2239
  483MOL0     H63710   2.148   7.192   5.079  1.9054 -0.1697  0.4869
  483MOL0     H63711   2.186   7.158   4.911 -0.4030  0.2477 -1.5732
  483MOL0     H63712   2.182   7.450   4.937 -1.9497  1.6378  2.0931
  483MOL0     H63713   2.029   7.392   5.007 -0.0318 -0.7929  0.9130
  483MOL0     H63714   2.153   7.318   4.733  0.2672 -0.1566  0.9929
  483MOL0     H63715   2.016   7.239   4.804  0.9932 -1.3741  1.0044
  483MOL0     H63716   2.033   7.538   4.718  1.1774 -1.1284 -1.5854
  483MOL0     H63717   1.879   7.467   4.785 -1.1019 -3.7993  0.1380
  483MOL0     H63718   1.915   7.179   4.557 -1.9074 -3.7133 -2.2648
  483MOL0     H63719   1.712   7.070   4.477 -0.1801  0.6318 -0.6829
  483MOL0     H63720   1.139   7.336   4.498  0.3715 -0.1779 -0.6105
  483MOL0     H63721   0.910   7.247   4.442 -0.4711 -0.7340  0.8492
  483MOL0     H63722   0.831   7.263   4.159  1.2026  1.7679  3.4314
  483MOL0     H63723   0.732   7.229   4.288  0.6099  1.4742 -0.8301
  483MOL0     H63724   0.662   7.020   4.123 -1.5201  0.2031 -0.6415
  483MOL0     H63725   0.721   7.133   3.999 -0.2282 -0.9945 -0.2295
  483MOL0     H63726   0.539   7.305   4.091 -0.7609  0.0119  0.1374
  483MOL0     H63727   0.483   7.183   4.197  0.1388 -0.2364  0.2601
  483MOL0     H63728   0.356   7.224   3.988 -1.6610 -2.8291 -0.0278
  483MOL0     H63729   0.503   7.167   3.896  2.2957  1.0349  2.1361
  483MOL0     H63730   0.399   6.993   4.115  0.4060  0.8015  1.2814
  483MOL0     H63731   0.486   6.941   3.982 -0.5358 -1.3521  1.9245
  483MOL0     H63732   0.324   6.984   3.820  3.9925  1.0393  1.4325
  483MOL0     H63733   0.209   7.050   3.936 -0.1576 -1.6378  0.6835
  483MOL0     H63734   0.311   6.762   3.957 -0.4668 -0.3317  2.5314
  483MOL0     H63735   0.188   6.841   4.057 -0.3580 -0.6444  0.1263
  483MOL0     H63736   0.039   6.877   3.869  0.3401  1.2900 -0.4273
  483MOL0     H63737   0.085   6.704   3.874  2.3424 -0.3335 -0.3483
  483MOL0     H63738   1.106   6.979   4.160  0.8657  0.7402 -1.4726
  483MOL0     H63739   1.323   7.049   4.232 -0.4999 -0.7890  1.8491
  483MOL0     H63740   1.515   7.459   4.499 -0.7171  1.3790  1.7376
  483MOL0     H63741   1.736   7.554   4.581  3.5253  0.2703 -3.5749
  483MOL0     H63742   3.363   7.957   5.769 -1.9044 -0.7575 -2.9703
  483MOL0     H63743   3.562   7.881   5.882  0.4458 -1.1451 -1.2211
  483MOL0     H63744   3.822   7.593   6.103  1.0898 -1.5075 -0.9514
  483MOL0     H63745   4.028   7.545   6.258 -0.6408  0.0438  1.0755
  483MOL0     H63746   4.195   7.498   6.402  1.1079  0.3467  0.3424
  483MOL0     H63747   4.227   7.516   6.567  0.3815 -2.7878 -1.2883
  483MOL0     H63748   4.286   7.725   6.459  0.3029 -0.7552 -0.8035
  483MOL0     H63749   4.139   7.735   6.363  3.2505  3.1164 -0.5944
  483MOL0     H63750   4.152   7.757   6.665 -2.7611 -3.9123 -0.6882
  483MOL0     H63751   4.009   7.783   6.570  0.1666 -0.3062  2.1539
  483MOL0     H63752   4.126   7.981   6.452  2.9227  0.2055 -0.3743
  483MOL0     H63753   4.100   7.995   6.632 -1.8022  0.8354 -0.4392
  483MOL0     H63754   4.500   8.035   6.525 -1.8323 -0.4100 -1.3381
  483MOL0     H63755   3.781   7.553   6.592  0.3920 -0.0177 -0.4631
  483MOL0     H63756   3.599   7.637   6.460  2.6811  4.4367  1.6177
  484MOL0     O63757   7.174   5.824   1.056 -0.4774 -1.2579  0.0990
  484MOL0     C63758   7.248   5.730   1.063  0.3510 -0.0572  0.6264
  484MOL0     O63759   7.211   5.607   1.107  0.2150  0.1668  0.5946
  484MOL0     C63760   7.074   5.586   1.120  1.0019 -0.3391 -0.2452
  484MOL0     C63761   7.019   5.546   1.239  0.0642 -0.0922 -0.2155
  484MOL0     C63762   6.881   5.520   1.258  0.5249 -0.4736  0.2587
  484MOL0     C63763   6.790   5.535   1.143 -0.6277  0.0211 -0.4482
  484MOL0     O63764   6.654   5.518   1.141 -0.6716 -0.0010  0.8548
  484MOL0     C63765   6.581   5.469   1.261 -0.1759 -0.0324  0.0040
  484MOL0     C63766   6.444   5.435   1.202  0.1409 -0.8531  0.1852
  484MOL0     C63767   6.343   5.409   1.313  0.5205 -0.0772  0.4605
  484MOL0     C63768   6.211   5.359   1.261  0.1186 -0.4871 -0.0784
  484MOL0     C63769   6.105   5.335   1.360  0.3719  0.2044 -0.3481
  484MOL0     C63770   5.986   5.267   1.292 -0.2731 -0.9251 -0.1198
  484MOL0     C63771   5.859   5.254   1.382  0.9336  0.6374  0.5166
  484MOL0     C63772   5.871   5.162   1.515 -0.5433 -0.2987  0.6633
  484MOL0     N63773   5.745   5.139   1.577  0.0181  0.4835  0.6134
  484MOL0     C63774   5.689   5.223   1.671  0.3069 -0.0941  0.7015
  484MOL0     C63775   5.574   5.158   1.711  0.1603  0.0555  0.0879
  484MOL0     C63776   5.476   5.209   1.816 -1.0469  0.5942  0.1582
  484MOL0     C63777   5.349   5.232   1.749  0.4743  0.7392 -0.5667
  484MOL0     C63778   5.248   5.265   1.862 -0.3631  0.1146  0.1490
  484MOL0     C63779   5.101   5.274   1.828 -0.2020  0.0130 -0.6004
  484MOL0     O63780   5.083   5.383   1.734  0.4578 -0.2973 -1.2141
  484MOL0     C63781   4.957   5.402   1.681  0.3579  0.3624 -0.6098
  484MOL0     C63782   4.841   5.342   1.721 -0.1452  0.1509  0.0126
  484MOL0     C63783   4.711   5.372   1.652 -0.4034  0.0800 -0.0919
  484MOL0     C63784   4.711   5.453   1.540 -0.3088  0.6712  0.5722
  484MOL0     C63785   4.580   5.514   1.508  0.0470 -0.3929  0.2125
  484MOL0     O63786   4.583   5.595   1.399  0.6140 -0.4878 -0.2913
  484MOL0     C63787   4.458   5.624   1.353  0.5578  0.0538 -0.0695
  484MOL0     C63788   4.396   5.731   1.412  0.3507 -0.2136 -0.0892
  484MOL0     C63789   4.280   5.790   1.360  0.0337  0.1117  0.6389
  484MOL0     C63790   4.210   5.718   1.257 -0.5671 -0.1343  0.5332
  484MOL0     O63791   4.094   5.756   1.200  0.2882  0.0474  0.2339
  484MOL0     C63792   3.977   5.674   1.213 -0.3598  0.0515  0.1614
  484MOL0     C63793   3.848   5.756   1.194  0.7471 -0.6339  0.9055
  484MOL0     C63794   3.817   5.831   1.329 -0.1098 -0.3513  0.6277
  484MOL0     C63795   3.683   5.904   1.323 -0.4057 -0.5252 -0.4281
  484MOL0     C63796   3.549   5.825   1.334 -0.3638  0.0356 -0.3890
  484MOL0     C63797   3.559   5.705   1.440  0.2023 -1.0932  0.7531
  484MOL0     C63798   3.427   5.626   1.436  0.5021 -0.2871 -0.0858
  484MOL0     C63799   3.427   5.498   1.504  0.8353  0.2338 -0.4312
  484MOL0    Cl63800   3.574   5.406   1.463  0.0880  0.0266  0.6232
  484MOL0     C63801   4.272   5.607   1.199  0.5030  0.1554  0.2169
  484MOL0     C63802   4.393   5.554   1.246 -0.0819  1.2113 -0.7453
  484MOL0     O63803   4.481   5.491   1.576 -0.6474 -0.4248  0.0425
  484MOL0     C63804   4.832   5.491   1.490 -0.5371 -1.0822 -0.2252
  484MOL0     C63805   4.950   5.473   1.563  0.0090  0.5106  0.5947
  484MOL0     N63806   5.573   5.034   1.650  0.2476 -0.4986 -0.0439
  484MOL0     N63807   5.673   5.021   1.572 -0.4716 -0.8165 -0.3378
  484MOL0     C63808   6.842   5.582   1.023  0.2908  0.2707 -0.5627
  484MOL0     C63809   6.981   5.603   1.015 -0.2141  0.5147 -0.5222
  484MOL0     C63810   7.390   5.756   1.029 -0.3312  0.2765 -0.1156
  484MOL0     C63811   7.436   5.886   1.011 -0.5044 -0.2934 -0.5145
  484MOL0     C63812   7.577   5.908   0.995  0.9606 -0.2854  0.6141
  484MOL0     C63813   7.664   5.806   0.993  0.0157  0.5063  0.5970
  484MOL0     O63814   7.788   5.844   0.958  0.3793 -0.1278  0.5418
  484MOL0     C63815   7.879   5.754   0.893  0.5880  0.2143  0.0196
  484MOL0     C63816   8.008   5.828   0.862 -0.8228 -1.2768  0.0739
  484MOL0     C63817   8.127   5.727   0.870 -0.0709  0.3592  0.3053
  484MOL0     C63818   8.264   5.787   0.855 -0.0716  0.0870  0.0452
  484MOL0     C63819   8.353   5.677   0.876 -0.4244  0.5273 -0.1963
  484MOL0     C63820   8.426   5.583   0.894 -0.3704  0.1862  0.0577
  484MOL0     C63821   7.618   5.674   1.027  0.3369 -0.7332  0.5364
  484MOL0     C63822   7.482   5.652   1.041 -0.7393 -0.0917  0.6683
  484MOL0     H63823   7.079   5.542   1.329 -2.7036 -0.0023  1.7708
  484MOL0     H63824   6.845   5.492   1.356  0.0109  0.7839  0.4477
  484MOL0     H63825   6.566   5.549   1.334 -3.4306 -2.5368  2.3360
  484MOL0     H63826   6.637   5.393   1.315  2.3440  1.0776 -0.8486
  484MOL0     H63827   6.454   5.351   1.132 -1.5913 -0.6530 -0.3361
  484MOL0     H63828   6.414   5.519   1.140 -1.8795 -2.1761 -0.7227
  484MOL0     H63829   6.329   5.494   1.382  1.1300 -0.7854  1.4786
  484MOL0     H63830   6.373   5.326   1.377 -3.1452 -2.1591 -0.2369
  484MOL0     H63831   6.172   5.439   1.197  3.4159  1.9010  0.6522
  484MOL0     H63832   6.232   5.265   1.209 -2.0961 -1.7057  1.0772
  484MOL0     H63833   6.069   5.432   1.395  1.7559  0.3937  0.6137
  484MOL0     H63834   6.132   5.267   1.441  0.2011 -0.0167 -0.4772
  484MOL0     H63835   6.010   5.168   1.252 -0.3504 -0.4433 -1.3925
  484MOL0     H63836   5.968   5.335   1.208  3.0270  1.5422  0.9457
  484MOL0     H63837   5.818   5.354   1.401  1.2425  0.7907  0.3767
  484MOL0     H63838   5.788   5.203   1.317  0.9384  1.2135  0.0506
  484MOL0     H63839   5.945   5.209   1.580 -3.3591  1.6284  2.7487
  484MOL0     H63840   5.916   5.066   1.490  2.9904  1.1478  0.9335
  484MOL0     H63841   5.728   5.322   1.693  1.7818  0.2760 -2.9669
  484MOL0     H63842   5.510   5.302   1.863  1.7829 -1.6711  3.0145
  484MOL0     H63843   5.472   5.134   1.896  2.0439 -1.0804 -1.1155
  484MOL0     H63844   5.318   5.141   1.697  1.8190  0.4815 -0.9606
  484MOL0     H63845   5.357   5.315   1.678 -1.8036  0.7288 -0.9276
  484MOL0     H63846   5.260   5.195   1.945 -1.2850 -1.3464 -0.8859
  484MOL0     H63847   5.277   5.364   1.898  0.3267  0.2218 -0.6661
  484MOL0     H63848   5.047   5.288   1.922  2.1503 -0.5956  0.9186
  484MOL0     H63849   5.067   5.182   1.779 -0.2879  0.7309 -1.9579
  484MOL0     H63850   4.844   5.267   1.800  1.6760  1.4504  1.2694
  484MOL0     H63851   4.622   5.328   1.695  0.3007  0.2762  1.6756
  484MOL0     H63852   4.447   5.778   1.496  0.0994  1.2156 -0.7063
  484MOL0     H63853   4.245   5.886   1.394 -1.4656 -0.1254 -0.1538
  484MOL0     H63854   3.978   5.616   1.306  1.0762  1.1692  0.8778
  484MOL0     H63855   3.980   5.602   1.130  2.5601 -1.1941  1.2002
  484MOL0     H63856   3.762   5.703   1.152  0.4966  2.3659 -2.9122
  484MOL0     H63857   3.863   5.814   1.103  2.2776 -0.9310  0.9462
  484MOL0     H63858   3.892   5.905   1.358  1.3829 -1.7972  0.5659
  484MOL0     H63859   3.815   5.758   1.410 -1.3465 -0.6735  0.3241
  484MOL0     H63860   3.690   5.963   1.415 -1.6788  0.0966 -0.6906
  484MOL0     H63861   3.674   5.974   1.239 -3.7904 -0.1882  0.0452
  484MOL0     H63862   3.529   5.773   1.240  0.6341 -2.7186  0.8215
  484MOL0     H63863   3.466   5.890   1.366  1.0737  1.5942  0.3538
  484MOL0     H63864   3.575   5.737   1.543 -1.0620 -1.7651  1.1920
  484MOL0     H63865   3.643   5.642   1.409  0.5101 -0.4890  0.3369
  484MOL0     H63866   3.344   5.691   1.467 -2.0586 -0.7358 -5.0235
  484MOL0     H63867   3.397   5.605   1.333  0.0370 -0.3920  0.0666
  484MOL0     H63868   3.343   5.430   1.486  1.8170 -1.5853  1.4790
  484MOL0     H63869   3.426   5.512   1.612  1.1766 -1.6652 -0.1499
  484MOL0     H63870   4.231   5.560   1.110 -1.6081  1.4463  0.4606
  484MOL0     H63871   4.431   5.462   1.202 -0.2186  1.3410 -1.1387
  484MOL0     H63872   4.829   5.548   1.398 -0.4941  1.1861  1.0800
  484MOL0     H63873   5.047   5.506   1.527  0.2364 -1.6052 -0.9508
  484MOL0     H63874   6.783   5.581   0.932  1.4630 -1.6632 -1.3647
  484MOL0     H63875   7.018   5.655   0.927  1.4599 -0.0894 -0.2251
  484MOL0     H63876   7.379   5.978   1.019 -0.9040 -0.4372 -1.6101
  484MOL0     H63877   7.631   5.999   0.974  1.6859 -1.1579 -1.5394
  484MOL0     H63878   7.824   5.718   0.806  1.7932  0.1377 -0.7401
  484MOL0     H63879   7.901   5.670   0.961 -0.6227 -1.6106 -1.7280
  484MOL0     H63880   7.995   5.849   0.756  2.9095 -1.6172 -0.5894
  484MOL0     H63881   8.023   5.917   0.923  0.2046 -1.6357  0.3816
  484MOL0     H63882   8.112   5.656   0.788 -0.8987  0.9179 -0.0451
  484MOL0     H63883   8.126   5.675   0.966  1.6848  0.1471  0.2372
  484MOL0     H63884   8.278   5.833   0.756 -2.2048  0.2246 -0.2369
  484MOL0     H63885   8.283   5.855   0.938  0.8611  1.9664 -1.6216
  484MOL0     H63886   8.477   5.489   0.899 -1.6723 -0.6506 -1.4512
  484MOL0     H63887   7.691   5.594   1.038 -0.0944 -1.1276  0.5729
  484MOL0     H63888   7.451   5.556   1.081  0.4662 -1.4747 -1.4768
  485MOL0     O63889   3.506   3.859   2.204 -0.4416 -0.2580 -0.7794
  485MOL0     C63890   3.503   3.771   2.286  0.7395 -0.0611  0.4982
  485MOL0     O63891   3.390   3.732   2.345 -0.0489 -0.8740 -0.0380
  485MOL0     C63892   3.267   3.781   2.301  0.0716  0.3358 -0.3599
  485MOL0     C63893   3.194   3.706   2.208  0.0802  0.4889 -0.5476
  485MOL0     C63894   3.070   3.754   2.164  0.6095  0.6350  0.0095
  485MOL0     C63895   3.008   3.865   2.213  0.0782  0.1852  0.6297
  485MOL0     O63896   2.877   3.907   2.198  0.5583 -0.4453 -0.1179
  485MOL0     C63897   2.810   3.856   2.082 -0.2826  0.2780 -0.0611
  485MOL0     C63898   2.705   3.952   2.035 -1.1195  1.1318 -0.3577
  485MOL0     C63899   2.586   3.945   2.127  0.8803  0.0628  0.0227
  485MOL0     C63900   2.486   4.043   2.065  0.4123  0.6675  0.0279
  485MOL0     C63901   2.349   4.055   2.140 -0.1133  0.2720 -0.2643
  485MOL0     C63902   2.265   4.177   2.093 -0.3649 -0.8981  0.5418
  485MOL0     C63903   2.130   4.207   2.168 -0.7491  0.0591  0.3759
  485MOL0     C63904   2.035   4.088   2.199  0.4497  0.3825  0.3792
  485MOL0     N63905   1.902   4.134   2.246 -0.4030  0.1287  0.1798
  485MOL0     C63906   1.873   4.236   2.335 -0.6149  0.5675  1.5323
  485MOL0     C63907   1.743   4.236   2.350 -0.1582 -0.2455 -0.0355
  485MOL0     C63908   1.653   4.334   2.419 -0.1457  0.4984  0.3970
  485MOL0     C63909   1.556   4.258   2.515 -0.0036  0.2237  0.3790
  485MOL0     C63910   1.432   4.349   2.546  0.9060  0.2118 -0.9215
  485MOL0     C63911   1.335   4.276   2.630  0.7398  1.7441  0.2090
  485MOL0     O63912   1.220   4.356   2.660  0.1041 -0.0575  0.1386
  485MOL0     C63913   1.110   4.297   2.715 -0.4580  0.2668  1.0725
  485MOL0     C63914   1.117   4.178   2.781 -1.1599  0.0782 -1.2532
  485MOL0     C63915   1.009   4.132   2.853 -0.3319 -0.0751  1.2239
  485MOL0     C63916   0.887   4.193   2.841  0.5195 -0.1372 -0.6186
  485MOL0     C63917   0.769   4.138   2.890  0.0927 -0.0177  0.6370
  485MOL0     O63918   0.652   4.211   2.896 -0.1823  0.0106  0.4808
  485MOL0     C63919   0.528   4.146   2.935 -0.0289  0.4625 -0.4866
  485MOL0     C63920   0.484   4.012   2.902 -0.2109 -0.2430 -0.0345
  485MOL0     C63921   0.358   3.976   2.941  0.5766  0.4988 -0.4911
  485MOL0     C63922   0.270   4.062   3.018 -0.1567 -0.1091 -0.0837
  485MOL0     O63923   0.151   4.023   3.079 -0.1715 -0.5033 -0.0719
  485MOL0     C63924   0.124   3.882   3.082  0.4536 -0.3814  0.1705
  485MOL0     C63925   0.001   3.861   3.173 -0.5174 -0.0873  0.2830
  485MOL0     C63926  -0.131   3.864   3.096 -0.0693 -0.5931  0.5629
  485MOL0     C63927  -0.232   3.815   3.204  0.5283 -0.6964  0.3561
  485MOL0     C63928  -0.365   3.790   3.132 -0.4121  0.1776 -0.6785
  485MOL0     C63929  -0.448   3.699   3.225  0.7671  0.1876  0.2996
  485MOL0     C63930  -0.592   3.681   3.166 -0.0940  0.4613 -0.0171
  485MOL0     C63931  -0.691   3.658   3.286  0.1189 -0.6366 -0.0869
  485MOL0    Cl63932  -0.850   3.593   3.222  0.2055 -0.4306 -0.2286
  485MOL0     C63933   0.317   4.194   3.047 -0.6284  0.4412  0.0228
  485MOL0     C63934   0.446   4.225   3.008 -0.1021 -1.2910 -0.3730
  485MOL0     O63935   0.774   4.021   2.928 -0.1048  0.2335 -0.1619
  485MOL0     C63936   0.883   4.316   2.783  0.6681 -0.2221 -0.5507
  485MOL0     C63937   0.986   4.367   2.715  0.5780 -0.0104 -0.1383
  485MOL0     N63938   1.687   4.146   2.260 -0.9207  0.9887 -0.0830
  485MOL0     N63939   1.778   4.072   2.209 -0.1409 -0.4128  0.0308
  485MOL0     C63940   3.083   3.938   2.310 -0.0536  0.7735 -0.0199
  485MOL0     C63941   3.221   3.902   2.347 -0.0740 -0.1280  0.4509
  485MOL0     C63942   3.626   3.709   2.343  0.1367 -0.1557  1.1401
  485MOL0     C63943   3.615   3.597   2.422  0.3575  0.0985  0.3630
  485MOL0     C63944   3.731   3.526   2.466  0.4012  0.2087  0.0569
  485MOL0     C63945   3.860   3.567   2.429 -0.6484 -0.5509 -0.2219
  485MOL0     O63946   3.970   3.510   2.487 -0.5592 -0.5027 -0.0058
  485MOL0     C63947   4.098   3.583   2.474  0.4628 -0.6600  1.3597
  485MOL0     C63948   4.199   3.539   2.578  0.0131 -0.1420  0.3390
  485MOL0     C63949   4.230   3.389   2.557  0.7881 -0.1981 -1.3621
  485MOL0     C63950   4.338   3.348   2.655  0.8677  0.2846  0.3647
  485MOL0     C63951   4.468   3.404   2.627  0.8814  0.2886  0.7772
  485MOL0     C63952   4.583   3.442   2.624 -0.0375 -0.5226  0.3251
  485MOL0     C63953   3.863   3.683   2.345  0.0268  0.4047 -0.2157
  485MOL0     C63954   3.752   3.749   2.298  0.4570 -0.2367 -0.2462
  485MOL0     H63955   3.235   3.615   2.166  2.4907  0.4152  1.7670
  485MOL0     H63956   3.021   3.709   2.079  1.9858  0.3506 -0.6641
  485MOL0     H63957   2.761   3.762   2.111 -2.2761  0.8584 -1.3767
  485MOL0     H63958   2.866   3.838   1.990 -1.1182 -2.6443 -0.1013
  485MOL0     H63959   2.689   3.932   1.928 -1.6052  2.4559 -0.5491
  485MOL0     H63960   2.756   4.049   2.037  0.2166  0.4767  2.3156
  485MOL0     H63961   2.595   3.977   2.231 -0.5019  1.2074 -0.1770
  485MOL0     H63962   2.538   3.847   2.124  0.2633  0.3818 -1.3077
  485MOL0     H63963   2.526   4.144   2.071 -3.7805  2.4569  3.8517
  485MOL0     H63964   2.472   4.024   1.958  1.1545 -2.1185  0.3308
  485MOL0     H63965   2.365   4.069   2.248 -1.3766  2.5777 -0.3077
  485MOL0     H63966   2.296   3.962   2.118  1.5306 -0.8942  0.4954
  485MOL0     H63967   2.238   4.147   1.991  0.2328 -0.4017  0.2268
  485MOL0     H63968   2.321   4.271   2.103 -1.8877 -0.0773  2.0325
  485MOL0     H63969   2.153   4.260   2.260 -2.7945  1.5599  0.1040
  485MOL0     H63970   2.075   4.280   2.109  1.3193  1.8889  0.5979
  485MOL0     H63971   2.080   4.021   2.273  0.8150 -0.6149 -0.7100
  485MOL0     H63972   2.023   4.024   2.111  2.7552  1.6893 -0.9810
  485MOL0     H63973   1.944   4.303   2.381  1.3547 -0.0319 -0.4943
  485MOL0     H63974   1.593   4.380   2.340  2.1286 -1.2993 -2.5587
  485MOL0     H63975   1.717   4.412   2.461  0.8483 -0.2414  0.2899
  485MOL0     H63976   1.601   4.243   2.613  1.3569 -2.6723 -0.5748
  485MOL0     H63977   1.521   4.163   2.474  1.4563 -2.6326  4.9720
  485MOL0     H63978   1.471   4.435   2.602  0.5674  0.5460 -1.2000
  485MOL0     H63979   1.389   4.382   2.452 -0.4113  1.2898  0.0198
  485MOL0     H63980   1.385   4.245   2.722  0.9401  0.9368 -0.1657
  485MOL0     H63981   1.303   4.184   2.580  2.1202  1.9855 -1.1526
  485MOL0     H63982   1.205   4.116   2.794 -1.8271 -0.5391  0.5554
  485MOL0     H63983   1.041   4.043   2.908  1.2360 -0.5549 -0.3525
  485MOL0     H63984   0.559   3.961   2.842  1.4045  1.7387  0.1862
  485MOL0     H63985   0.329   3.873   2.919 -1.1564  0.2326  2.5075
  485MOL0     H63986   0.207   3.820   3.116  1.8016 -0.4333 -2.8614
  485MOL0     H63987   0.094   3.842   2.985 -1.0915  1.9765 -0.4108
  485MOL0     H63988  -0.017   3.937   3.250 -1.8044  2.2380 -2.1503
  485MOL0     H63989   0.014   3.764   3.223 -0.3211  0.2368  0.8781
  485MOL0     H63990  -0.125   3.790   3.016 -0.0212 -1.5080  1.3885
  485MOL0     H63991  -0.157   3.965   3.063  2.3655 -0.2977 -0.6847
  485MOL0     H63992  -0.197   3.723   3.251 -1.1008 -1.7535 -0.3977
  485MOL0     H63993  -0.246   3.886   3.286  0.0387  0.0631 -0.3579
  485MOL0     H63994  -0.350   3.736   3.038 -0.5578  1.2967 -1.3548
  485MOL0     H63995  -0.417   3.885   3.116  1.7000  1.8201  1.3959
  485MOL0     H63996  -0.444   3.741   3.326  2.0476  0.5951  0.0924
  485MOL0     H63997  -0.402   3.600   3.235 -1.2496 -0.6818  1.5681
  485MOL0     H63998  -0.629   3.770   3.115  0.4356 -0.0800 -1.3962
  485MOL0     H63999  -0.593   3.589   3.106  0.0237 -0.8656  1.9385
  485MOL0     H64000  -0.715   3.755   3.329  1.2528 -0.6085  0.5020
  485MOL0     H64001  -0.645   3.596   3.363  0.4879 -0.5394 -0.2293
  485MOL0     H64002   0.245   4.262   3.090  0.2181  1.9352 -0.8554
  485MOL0     H64003   0.473   4.330   3.020 -3.5296 -0.2503 -0.5870
  485MOL0     H64004   0.797   4.382   2.775  0.5557 -0.0736  1.2931
  485MOL0     H64005   0.982   4.466   2.671 -4.4207  0.1009  0.0236
  485MOL0     H64006   3.036   4.029   2.345  0.3332  0.8830  0.2186
  485MOL0     H64007   3.281   3.953   2.422 -0.9103  0.2041  0.9026
  485MOL0     H64008   3.522   3.549   2.453  1.0918 -4.3333 -3.0608
  485MOL0     H64009   3.702   3.458   2.546  0.5592  0.9694  0.7714
  485MOL0     H64010   4.067   3.687   2.488 -0.5856 -0.7987  0.2200
  485MOL0     H64011   4.139   3.578   2.373  0.4177  2.3417  1.1214
  485MOL0     H64012   4.292   3.597   2.570 -0.7914  1.1868  0.3731
  485MOL0     H64013   4.166   3.550   2.681  0.6911  2.1833  0.3540
  485MOL0     H64014   4.255   3.362   2.454  1.2509 -2.4045 -0.7185
  485MOL0     H64015   4.139   3.330   2.572  0.1689  1.1857  0.6919
  485MOL0     H64016   4.311   3.349   2.761 -0.4860 -0.4113  0.0584
  485MOL0     H64017   4.356   3.242   2.631 -0.5066  0.5179 -2.0151
  485MOL0     H64018   4.685   3.476   2.627 -0.6013  1.2591  2.4254
  485MOL0     H64019   3.956   3.724   2.305 -1.4511  0.4578 -3.9670
  485MOL0     H64020   3.768   3.832   2.229 -0.1123 -1.0502 -1.4003
  486MOL0     O64021   8.199   8.006   0.836 -0.0613  0.1518  0.5776
  486MOL0     C64022   8.152   8.080   0.922 -0.1679 -0.4561  0.5559
  486MOL0     O64023   8.222   8.183   0.986  0.7061  0.4316 -0.3422
  486MOL0     C64024   8.353   8.160   1.013  0.7963 -0.5700 -0.2060
  486MOL0     C64025   8.418   8.033   1.042  0.0854  0.1909  1.1938
  486MOL0     C64026   8.558   8.038   1.060  0.0853 -0.0536  0.0392
  486MOL0     C64027   8.626   8.162   1.079 -0.0839 -0.5193 -0.5295
  486MOL0     O64028   8.759   8.174   1.102  0.3597  0.0841  0.6522
  486MOL0     C64029   8.841   8.073   1.052  0.2214  0.6024 -0.3196
  486MOL0     C64030   8.983   8.118   1.084 -0.5401 -0.2351 -0.5915
  486MOL0     C64031   9.083   8.028   1.022  0.1836  0.0109  0.7761
  486MOL0     C64032   9.230   8.037   1.067  0.5970 -0.9620 -0.1248
  486MOL0     C64033   9.328   7.964   0.980 -0.4905 -0.1610 -0.3230
  486MOL0     C64034   9.465   7.975   1.050 -0.0519 -1.5251  0.2264
  486MOL0     C64035   9.580   7.905   0.971  0.5098 -0.7236  0.8042
  486MOL0     C64036   9.708   7.893   1.048 -0.4295  0.3120 -0.3551
  486MOL0     N64037   9.771   8.022   1.071 -0.0213  0.6134  0.1463
  486MOL0     C64038   9.731   8.125   1.154  0.3767  0.3202 -0.2428
  486MOL0     C64039   9.788   8.232   1.109 -0.4012 -0.3910  0.5625
  486MOL0     C64040   9.765   8.367   1.164  0.6057 -0.1978  0.0842
  486MOL0     C64041   9.634   8.411   1.094  0.7160 -0.6485  0.1695
  486MOL0     C64042   9.607   8.559   1.137  0.5949 -0.3026 -0.0762
  486MOL0     C64043   9.494   8.607   1.051 -0.2074  0.5482 -0.3686
  486MOL0     O64044   9.384   8.519   1.081 -0.1906 -0.2611  0.7798
  486MOL0     C64045   9.262   8.545   1.018 -0.3761  0.3940 -1.0962
  486MOL0     C64046   9.165   8.453   1.053 -0.4964 -0.6017 -0.2538
  486MOL0     C64047   9.037   8.473   0.999 -0.0120  0.0665 -0.5414
  486MOL0     C64048   9.007   8.572   0.904  0.4922  0.1074 -0.8107
  486MOL0     C64049   8.864   8.594   0.865 -0.5174  0.3426 -0.4986
  486MOL0     O64050   8.849   8.649   0.740  0.0027 -0.0091 -0.1009
  486MOL0     C64051   8.732   8.697   0.696 -0.2769  0.0049  1.0006
  486MOL0     C64052   8.604   8.661   0.737  0.6107 -0.7285 -0.1208
  486MOL0     C64053   8.499   8.715   0.666  0.4988 -0.7431 -0.2707
  486MOL0     C64054   8.511   8.800   0.558  0.2281 -0.3577 -0.0792
  486MOL0     O64055   8.408   8.872   0.493 -0.0753  0.8650  0.8760
  486MOL0     C64056   8.318   8.766   0.451 -0.0473 -0.2021  0.6760
  486MOL0     C64057   8.224   8.825   0.344 -0.0479  0.6717  0.9535
  486MOL0     C64058   8.181   8.708   0.251  0.5758 -0.1700 -0.0147
  486MOL0     C64059   8.100   8.597   0.317  0.1647  0.4481  0.2398
  486MOL0     C64060   8.028   8.516   0.206  0.1859  0.6197  0.1996
  486MOL0     C64061   7.944   8.400   0.260 -0.0222 -0.1846  0.4622
  486MOL0     C64062   7.854   8.329   0.142 -0.0229  0.0207 -0.3661
  486MOL0     C64063   7.899   8.185   0.129  0.3713 -0.1047 -0.5042
  486MOL0    Cl64064   7.827   8.122  -0.013 -0.3086 -0.0984 -0.0348
  486MOL0     C64065   8.641   8.842   0.526  0.0215 -0.4514  0.1411
  486MOL0     C64066   8.748   8.791   0.594 -0.2611  0.4042 -0.2164
  486MOL0     O64067   8.773   8.545   0.940 -0.4495 -0.3819  0.0639
  486MOL0     C64068   9.106   8.663   0.871 -0.0975 -0.9967 -0.5356
  486MOL0     C64069   9.230   8.649   0.931  0.7185  0.1539  0.3936
  486MOL0     N64070   9.880   8.200   1.014 -0.2749 -0.3144 -0.4150
  486MOL0     N64071   9.864   8.073   0.990  0.0428 -0.0864  0.5213
  486MOL0     C64072   8.566   8.285   1.056  0.6362  0.2170 -0.5263
  486MOL0     C64073   8.426   8.283   1.033 -0.1453 -0.4645 -0.1299
  486MOL0     C64074   8.009   8.078   0.945 -0.2788 -0.3753  0.8299
  486MOL0     C64075   7.940   7.959   0.902  0.4106  0.0064  0.5865
  486MOL0     C64076   7.806   7.943   0.935 -0.5280  1.1063  0.3193
  486MOL0     C64077   7.735   8.031   1.016  0.4404 -0.7764 -0.8791
  486MOL0     O64078   7.604   8.021   1.061 -0.8978  0.4887  0.2097
  486MOL0     C64079   7.518   7.907   1.050 -0.6560  1.1134 -0.2877
  486MOL0     C64080   7.449   7.907   0.914 -0.5174  0.4165 -0.1711
  486MOL0     C64081   7.319   7.822   0.907  0.7241  0.0459 -0.8186
  486MOL0     C64082   7.333   7.710   0.795  0.4068 -0.5888  0.5421
  486MOL0     C64083   7.447   7.622   0.811  0.5863 -0.1023  1.0066
  486MOL0     C64084   7.529   7.535   0.827  0.0446  0.4701 -0.1181
  486MOL0     C64085   7.804   8.148   1.048  0.7040  0.5026  0.0090
  486MOL0     C64086   7.937   8.177   1.010  0.0846  0.1712  0.0614
  486MOL0     H64087   8.377   7.933   1.036 -0.2609  0.3152  1.4476
  486MOL0     H64088   8.612   7.947   1.083 -4.6901 -3.0813  0.7157
  486MOL0     H64089   8.826   8.062   0.944 -1.8780  1.1680 -0.1234
  486MOL0     H64090   8.834   7.972   1.095  1.3439  1.0908  1.0804
  486MOL0     H64091   9.003   8.131   1.190 -1.6021  1.1250 -0.5184
  486MOL0     H64092   8.996   8.215   1.035  0.8141  0.9191  1.9148
  486MOL0     H64093   9.079   8.049   0.915  0.6136 -0.6147  0.6339
  486MOL0     H64094   9.049   7.926   1.037 -0.1762  0.3434  2.4984
  486MOL0     H64095   9.259   8.142   1.067 -2.3846 -0.0530 -1.2810
  486MOL0     H64096   9.236   7.999   1.170 -0.5631  0.8832  0.6699
  486MOL0     H64097   9.347   8.017   0.886  3.4437  1.0054  0.9303
  486MOL0     H64098   9.304   7.857   0.976 -1.9266  0.1150  0.4733
  486MOL0     H64099   9.463   7.923   1.146  4.3431 -0.6146  1.0264
  486MOL0     H64100   9.487   8.079   1.074  0.9602 -2.0093  1.5028
  486MOL0     H64101   9.548   7.810   0.928 -1.6465  0.3271 -0.0519
  486MOL0     H64102   9.609   7.968   0.886 -1.0416 -0.4734  0.4290
  486MOL0     H64103   9.776   7.844   0.978 -0.5348 -1.0847  0.4713
  486MOL0     H64104   9.693   7.833   1.138  0.4527 -2.1439 -1.7643
  486MOL0     H64105   9.646   8.122   1.220  1.2191 -0.0244  0.8508
  486MOL0     H64106   9.851   8.433   1.148  0.0813  0.3251 -0.6070
  486MOL0     H64107   9.747   8.355   1.271 -0.7052 -4.8562 -0.4060
  486MOL0     H64108   9.551   8.345   1.121  0.5141  0.3541  2.1915
  486MOL0     H64109   9.645   8.395   0.986  0.3532  0.0312  0.0220
  486MOL0     H64110   9.579   8.560   1.243  0.7152  0.9463 -0.0434
  486MOL0     H64111   9.691   8.626   1.119 -0.5817  0.3266 -4.0637
  486MOL0     H64112   9.521   8.605   0.945  1.8269 -2.0436  0.1045
  486MOL0     H64113   9.461   8.702   1.094  0.2232  1.9745 -2.9603
  486MOL0     H64114   9.191   8.376   1.124  0.7671  0.5399  0.5613
  486MOL0     H64115   8.955   8.405   1.021 -0.4035  1.0201  1.1480
  486MOL0     H64116   8.588   8.588   0.817 -0.5707 -1.1395 -0.7145
  486MOL0     H64117   8.404   8.696   0.714 -0.2898  1.0629 -1.0106
  486MOL0     H64118   8.266   8.714   0.531  1.3595 -1.4833  0.8025
  486MOL0     H64119   8.372   8.685   0.401 -0.5477  1.5909 -3.1513
  486MOL0     H64120   8.281   8.903   0.292  0.5385 -0.3175  0.0904
  486MOL0     H64121   8.127   8.856   0.383 -1.2971 -1.2048 -0.5076
  486MOL0     H64122   8.261   8.668   0.188  0.2320 -1.2238  0.1956
  486MOL0     H64123   8.115   8.747   0.173  2.1357 -5.8822 -5.0029
  486MOL0     H64124   8.174   8.533   0.367 -0.1779  1.0443  1.5464
  486MOL0     H64125   8.035   8.639   0.394 -0.2727  1.4694 -0.6620
  486MOL0     H64126   8.100   8.461   0.145 -2.3313 -1.2950 -1.2797
  486MOL0     H64127   7.960   8.580   0.149  2.1365  2.3915 -0.2515
  486MOL0     H64128   7.868   8.442   0.327 -1.2032 -1.6917  0.1068
  486MOL0     H64129   8.009   8.336   0.320  0.0076 -0.7979 -0.2139
  486MOL0     H64130   7.747   8.332   0.160 -0.1930  1.8712 -1.3664
  486MOL0     H64131   7.874   8.374   0.044  1.0606  2.3445  0.8181
  486MOL0     H64132   7.872   8.132   0.221  3.4724 -0.6850  0.1865
  486MOL0     H64133   8.007   8.170   0.134  0.0678 -2.5482 -0.1889
  486MOL0     H64134   8.667   8.909   0.445 -0.2625 -0.5259 -0.0127
  486MOL0     H64135   8.853   8.792   0.564  0.7016 -0.0506  2.8184
  486MOL0     H64136   9.082   8.747   0.805 -3.7440 -0.4612  1.2367
  486MOL0     H64137   9.314   8.710   0.899  1.5614  0.0113  2.2072
  486MOL0     H64138   8.616   8.381   1.053  1.6741 -0.2886 -3.5020
  486MOL0     H64139   8.366   8.373   1.027 -0.2784 -0.5656 -0.3492
  486MOL0     H64140   7.988   7.875   0.851 -2.2575 -0.8391 -0.7051
  486MOL0     H64141   7.755   7.852   0.906  1.9613 -0.2485 -0.0840
  486MOL0     H64142   7.429   7.910   1.114 -2.9955  0.9849 -3.2961
  486MOL0     H64143   7.568   7.811   1.065  1.0960  1.4802 -3.2125
  486MOL0     H64144   7.429   8.012   0.890 -1.5462  0.4207  0.6243
  486MOL0     H64145   7.528   7.873   0.846 -1.2282 -2.2628  0.2100
  486MOL0     H64146   7.236   7.884   0.870 -0.5183 -1.4709 -0.6713
  486MOL0     H64147   7.293   7.785   1.006  2.0378  1.0157 -0.0763
  486MOL0     H64148   7.235   7.661   0.789  0.1713  0.0437 -3.4100
  486MOL0     H64149   7.347   7.770   0.705  1.5099 -0.4991  0.7571
  486MOL0     H64150   7.589   7.447   0.838 -1.0600 -0.2582  0.3151
  486MOL0     H64151   7.752   8.229   1.099  2.5207  0.5208  1.9644
  486MOL0     H64152   7.983   8.267   1.050  0.8280 -0.5170  0.8126
  487MOL0     O64153   6.313   3.949   5.058 -0.0664 -0.6068  0.1223
  487MOL0     C64154   6.373   4.039   5.120 -0.3848  0.2405 -1.2389
  487MOL0     O64155   6.316   4.122   5.220  0.1580  0.2671  0.0337
  487MOL0     C64156   6.182   4.095   5.257 -0.8166  0.2268 -1.0116
  487MOL0     C64157   6.079   4.101   5.167 -0.3196  0.6709  0.3445
  487MOL0     C64158   5.948   4.058   5.200  0.1269  0.3999 -0.2275
  487MOL0     C64159   5.924   4.018   5.333  0.5631 -0.0370  0.4019
  487MOL0     O64160   5.792   3.989   5.363  0.6772  0.2146 -0.7631
  487MOL0     C64161   5.756   3.984   5.502 -0.1614 -0.3040 -1.1245
  487MOL0     C64162   5.611   3.937   5.507  0.2419  0.5491  0.8412
  487MOL0     C64163   5.514   4.027   5.434  1.0113 -0.4020  0.0626
  487MOL0     C64164   5.369   3.986   5.443 -0.6522  0.0140  0.0953
  487MOL0     C64165   5.274   4.028   5.568 -0.1185  0.4234  0.8632
  487MOL0     C64166   5.146   3.950   5.558 -0.5508 -0.4605  0.3708
  487MOL0     C64167   5.053   4.000   5.671  0.1238 -0.3047  0.3255
  487MOL0     C64168   4.908   3.930   5.669 -0.0143  0.6785  0.4577
  487MOL0     N64169   4.821   3.988   5.766  0.2241  0.3997 -0.2257
  487MOL0     C64170   4.795   3.917   5.884  0.0817 -0.1259  0.1676
  487MOL0     C64171   4.725   4.003   5.958 -0.5132  0.3283  0.2940
  487MOL0     C64172   4.670   3.987   6.090 -0.3976  0.1889 -1.0412
  487MOL0     C64173   4.762   3.912   6.190  0.1372  0.3953 -0.6210
  487MOL0     C64174   4.724   3.941   6.338 -0.1344 -0.0365 -0.0434
  487MOL0     C64175   4.578   3.913   6.364 -0.4684  0.0964  0.1415
  487MOL0     O64176   4.543   3.778   6.331 -0.1558 -0.0690  0.1135
  487MOL0     C64177   4.603   3.671   6.381 -0.0053 -0.1364  0.5264
  487MOL0     C64178   4.580   3.553   6.304 -0.2814 -0.6411  0.4976
  487MOL0     C64179   4.639   3.427   6.332 -0.6994  0.6571 -0.5019
  487MOL0     C64180   4.726   3.422   6.438 -0.3564  0.0058  0.1961
  487MOL0     C64181   4.803   3.306   6.463  0.0574  0.5249 -0.7036
  487MOL0     O64182   4.760   3.192   6.394 -0.6633  0.1145  0.0863
  487MOL0     C64183   4.811   3.064   6.420  0.0314  1.5122  0.0108
  487MOL0     C64184   4.745   2.952   6.362  0.5935 -0.2718 -0.6273
  487MOL0     C64185   4.783   2.815   6.380  0.4986 -0.3385  0.3215
  487MOL0     C64186   4.898   2.784   6.447 -0.1557 -0.2504  0.0383
  487MOL0     O64187   4.945   2.657   6.462  0.2915 -0.0546 -0.0652
  487MOL0     C64188   4.935   2.564   6.357  0.0960 -0.1194 -0.1482
  487MOL0     C64189   5.012   2.447   6.410  0.6088 -0.1473 -0.1916
  487MOL0     C64190   5.017   2.331   6.308  0.4564  0.2827  0.2018
  487MOL0     C64191   5.100   2.364   6.177  0.0346 -0.0587 -0.2093
  487MOL0     C64192   5.147   2.247   6.089 -0.1134  0.6337  0.3990
  487MOL0     C64193   5.037   2.154   6.017  0.0531 -1.2408 -0.2281
  487MOL0     C64194   5.105   2.023   5.964 -0.2907 -0.7910  0.6174
  487MOL0     C64195   5.048   1.974   5.836 -0.4535  0.0404  0.8456
  487MOL0    Cl64196   4.889   1.924   5.869  0.0580  0.3290  0.3331
  487MOL0     C64197   4.966   2.888   6.513 -0.6919 -1.1370 -0.5721
  487MOL0     C64198   4.930   3.022   6.493 -0.3666  0.1736  0.4052
  487MOL0     O64199   4.891   3.312   6.551  0.5049  0.1235  0.2748
  487MOL0     C64200   4.744   3.536   6.522 -0.7002 -0.5001  0.2649
  487MOL0     C64201   4.687   3.663   6.491  0.0805  0.7341  0.0682
  487MOL0     N64202   4.690   4.111   5.876  0.2402  0.9047  0.1156
  487MOL0     N64203   4.752   4.102   5.762 -1.2528 -1.8333  0.2949
  487MOL0     C64204   6.026   4.003   5.423  0.0377  0.5773 -0.2425
  487MOL0     C64205   6.156   4.033   5.381 -1.0609  0.0205  0.0754
  487MOL0     C64206   6.515   4.066   5.082 -0.9478 -0.1826  0.1930
  487MOL0     C64207   6.556   4.013   4.954  0.4190 -0.1319 -0.6465
  487MOL0     C64208   6.673   4.051   4.899  0.6771  1.3060 -0.5605
  487MOL0     C64209   6.752   4.152   4.955 -0.6204 -0.0961 -0.2988
  487MOL0     O64210   6.869   4.200   4.901  0.1133  0.6254 -0.1271
  487MOL0     C64211   6.932   4.110   4.812 -0.1337  0.8366 -0.1500
  487MOL0     C64212   7.089   4.120   4.826 -0.7241 -0.0762 -0.7550
  487MOL0     C64213   7.142   4.107   4.975  0.0499  0.2933 -0.1157
  487MOL0     C64214   7.294   4.118   4.987  0.3518 -0.5420 -0.2723
  487MOL0     C64215   7.354   4.239   4.933  0.0756  0.6930 -0.0540
  487MOL0     C64216   7.393   4.338   4.883 -0.2212 -0.3286 -0.5519
  487MOL0     C64217   6.716   4.201   5.080 -0.0396  0.8150  0.5073
  487MOL0     C64218   6.596   4.160   5.142  0.7486 -0.2616  0.2604
  487MOL0     H64219   6.102   4.134   5.066  0.3430  4.0265  1.4622
  487MOL0     H64220   5.859   4.060   5.137 -0.9211 -1.5361  1.1059
  487MOL0     H64221   5.758   4.083   5.547 -2.5340 -1.1128  1.0116
  487MOL0     H64222   5.810   3.905   5.556 -2.1077 -2.0023 -1.5141
  487MOL0     H64223   5.582   3.928   5.612  1.1038  0.8920  1.1236
  487MOL0     H64224   5.622   3.842   5.455  2.3354  1.1476  0.0641
  487MOL0     H64225   5.536   4.030   5.327  1.7743 -2.5923  0.1089
  487MOL0     H64226   5.518   4.128   5.477 -1.9824  0.2336 -0.9079
  487MOL0     H64227   5.312   4.032   5.361 -2.0276 -0.2473  0.8715
  487MOL0     H64228   5.355   3.879   5.424  1.5596 -0.2418 -0.3768
  487MOL0     H64229   5.259   4.136   5.561 -0.0791  0.3905  0.2830
  487MOL0     H64230   5.320   4.009   5.665  0.1334  2.1984  1.1371
  487MOL0     H64231   5.159   3.842   5.565  1.7767 -0.1741  1.5406
  487MOL0     H64232   5.107   3.983   5.462  0.8449 -0.8777 -0.3751
  487MOL0     H64233   5.090   3.988   5.773  0.1650  0.3123  0.3858
  487MOL0     H64234   5.027   4.102   5.641  0.0787 -0.6752 -0.9627
  487MOL0     H64235   4.910   3.822   5.685  1.3901  0.1715 -2.4427
  487MOL0     H64236   4.863   3.951   5.571 -0.9715 -0.0414  0.7322
  487MOL0     H64237   4.823   3.816   5.913 -1.5255 -0.2788  1.3546
  487MOL0     H64238   4.578   3.929   6.080  0.5695 -1.0409 -3.5568
  487MOL0     H64239   4.657   4.087   6.133 -0.2983 -1.2514  2.7047
  487MOL0     H64240   4.862   3.942   6.158  0.7295  1.7172  2.0929
  487MOL0     H64241   4.754   3.806   6.163 -0.0158  0.9613 -3.0188
  487MOL0     H64242   4.786   3.884   6.409  0.0490  0.6633  0.3680
  487MOL0     H64243   4.735   4.047   6.359 -2.1729  0.1221  0.3451
  487MOL0     H64244   4.522   3.985   6.303 -1.4727  0.0672  1.0016
  487MOL0     H64245   4.548   3.933   6.467 -1.0305 -0.0520  0.0135
  487MOL0     H64246   4.518   3.569   6.216  1.1750  2.5584 -0.1094
  487MOL0     H64247   4.620   3.337   6.273  0.9282 -0.7489  1.0101
  487MOL0     H64248   4.653   2.987   6.315 -0.6138  0.3573  1.9837
  487MOL0     H64249   4.737   2.736   6.320 -1.6475  1.2226 -0.2023
  487MOL0     H64250   4.986   2.606   6.270 -0.1401  0.4948  0.0088
  487MOL0     H64251   4.832   2.542   6.325  0.4366  0.4618 -1.7383
  487MOL0     H64252   4.959   2.410   6.498 -2.0419  1.1957 -1.1256
  487MOL0     H64253   5.113   2.479   6.438 -0.1696  1.0988  1.3757
  487MOL0     H64254   4.916   2.301   6.278  0.4870 -0.0971  0.4817
  487MOL0     H64255   5.060   2.239   6.348 -2.3798 -1.6224 -0.8312
  487MOL0     H64256   5.047   2.438   6.117 -1.0767  0.3212  1.2117
  487MOL0     H64257   5.184   2.423   6.214 -1.1989  1.9405 -0.4282
  487MOL0     H64258   5.219   2.193   6.151  2.2383 -0.6635 -3.1156
  487MOL0     H64259   5.209   2.286   6.007  2.4992 -0.2659  1.8138
  487MOL0     H64260   4.986   2.212   5.939 -3.0747 -3.9650 -0.4445
  487MOL0     H64261   4.959   2.118   6.085  1.3277 -4.8705 -0.5194
  487MOL0     H64262   5.205   2.056   5.934 -1.2439 -0.1309 -2.2114
  487MOL0     H64263   5.116   1.943   6.038 -0.1186 -1.8544 -0.5127
  487MOL0     H64264   5.110   1.892   5.798 -0.2796  2.0613 -3.8273
  487MOL0     H64265   5.045   2.057   5.766 -0.8834 -0.3974  0.3343
  487MOL0     H64266   5.047   2.860   6.581  0.4893  1.5756 -0.7438
  487MOL0     H64267   4.988   3.094   6.549 -0.7700  0.5737  0.3161
  487MOL0     H64268   4.813   3.546   6.606 -0.7439  0.2356  0.2140
  487MOL0     H64269   4.713   3.753   6.545 -2.1726  1.9811 -0.8006
  487MOL0     H64270   6.011   3.978   5.527  2.3855  0.1565  0.0433
  487MOL0     H64271   6.238   4.029   5.451 -1.1978  0.7673  0.2841
  487MOL0     H64272   6.501   3.939   4.896  3.0115 -0.9194 -2.2661
  487MOL0     H64273   6.689   4.003   4.803 -2.3636 -2.7651  0.6704
  487MOL0     H64274   6.902   4.145   4.713 -2.7616  1.5826  0.8230
  487MOL0     H64275   6.914   4.004   4.827 -1.0581  0.6022 -2.4762
  487MOL0     H64276   7.135   4.040   4.768  1.0396  2.5909 -3.3165
  487MOL0     H64277   7.116   4.216   4.780  0.0703 -0.0825 -0.3215
  487MOL0     H64278   7.109   4.009   5.010 -0.1599 -0.7325 -2.9566
  487MOL0     H64279   7.090   4.190   5.024  0.2541  1.4486 -1.7752
  487MOL0     H64280   7.314   4.116   5.094 -0.4781 -2.3349 -0.1105
  487MOL0     H64281   7.343   4.033   4.938  1.7555 -0.3994  0.8355
  487MOL0     H64282   7.422   4.430   4.837  1.1227  0.5159  1.8014
  487MOL0     H64283   6.776   4.280   5.125  1.1233 -0.6056  1.5114
  487MOL0     H64284   6.556   4.200   5.235  1.1706 -2.4352  1.4521
  488MOL0     O64285   6.103   5.361   5.777 -0.3370 -0.2649  0.4377
  488MOL0     C64286   6.120   5.452   5.692  0.2635 -0.3076  0.1827
  488MOL0     O64287   6.061   5.570   5.695 -0.5210 -0.7269  0.0574
  488MOL0     C64288   5.963   5.589   5.783  0.1764  0.1671  0.4113
  488MOL0     C64289   5.833   5.620   5.746  0.1706 -0.8027  0.0647
  488MOL0     C64290   5.725   5.633   5.835  0.0861  0.2785 -0.2636
  488MOL0     C64291   5.744   5.620   5.978 -0.4909 -0.4374 -0.0129
  488MOL0     O64292   5.627   5.628   6.053 -0.2174  0.0200 -0.1348
  488MOL0     C64293   5.648   5.689   6.184 -0.5384  0.6956 -0.1567
  488MOL0     C64294   5.525   5.741   6.243  0.1437  0.0308  0.6056
  488MOL0     C64295   5.438   5.817   6.142  0.1970  0.1830 -0.4417
  488MOL0     C64296   5.325   5.886   6.222 -0.3730  0.1822  0.7656
  488MOL0     C64297   5.207   5.941   6.136 -0.1784 -0.0874 -0.0345
  488MOL0     C64298   5.106   6.001   6.248  0.0965 -0.1117  0.5829
  488MOL0     C64299   5.010   6.099   6.169  0.3865  0.9002 -0.4119
  488MOL0     C64300   4.907   6.018   6.088  0.5408 -0.1785  0.7343
  488MOL0     N64301   4.805   6.101   6.021  0.0149  0.1934 -0.2316
  488MOL0     C64302   4.688   6.133   6.088 -0.6403  0.1419 -0.6840
  488MOL0     C64303   4.602   6.164   5.989  0.3845  0.5763  0.0444
  488MOL0     C64304   4.459   6.175   6.024  0.4665 -0.0767 -0.1588
  488MOL0     C64305   4.384   6.266   5.925 -0.2584  1.0384 -0.1105
  488MOL0     C64306   4.241   6.297   5.963 -0.0554  1.1755 -0.8282
  488MOL0     C64307   4.189   6.394   5.861 -0.1699  0.4213  0.0260
  488MOL0     O64308   4.063   6.445   5.897  0.0667 -0.5182  0.4723
  488MOL0     C64309   3.947   6.399   5.848  0.6293 -0.2030  0.1485
  488MOL0     C64310   3.850   6.495   5.837  0.7856 -0.2447 -0.3678
  488MOL0     C64311   3.719   6.465   5.783 -0.1362 -0.1862 -0.8027
  488MOL0     C64312   3.678   6.334   5.750 -0.2040  0.3274 -0.3628
  488MOL0     C64313   3.546   6.301   5.703 -0.5514  0.2732 -0.0425
  488MOL0     O64314   3.523   6.172   5.674  0.2764  0.3733 -0.2297
  488MOL0     C64315   3.410   6.143   5.603 -0.3267  0.8054  0.1567
  488MOL0     C64316   3.282   6.156   5.664 -0.4890  0.3713  0.4116
  488MOL0     C64317   3.177   6.101   5.595  0.9828 -0.6638 -0.0547
  488MOL0     C64318   3.183   6.054   5.461  0.0619  0.1388 -0.3097
  488MOL0     O64319   3.066   6.035   5.397  0.3138  0.2575  0.7367
  488MOL0     C64320   3.074   6.023   5.256  0.1023  0.6524 -0.1593
  488MOL0     C64321   2.931   6.010   5.198  0.5088 -0.5850 -0.0485
  488MOL0     C64322   2.871   6.152   5.159 -0.0145 -0.5022 -0.1444
  488MOL0     C64323   2.727   6.138   5.140  1.1064  0.2853 -0.2742
  488MOL0     C64324   2.653   6.276   5.158 -1.0004  0.4354  0.6868
  488MOL0     C64325   2.507   6.280   5.112  0.8595  0.3452  0.0865
  488MOL0     C64326   2.433   6.420   5.129 -0.0405 -0.4211  0.4494
  488MOL0     C64327   2.315   6.414   5.029 -0.6076  0.4869 -0.1928
  488MOL0    Cl64328   2.199   6.301   5.101 -0.2688  0.1029 -0.4660
  488MOL0     C64329   3.310   6.047   5.404 -0.2995 -0.1411  0.2117
  488MOL0     C64330   3.424   6.088   5.473 -0.0185  0.0810 -0.4504
  488MOL0     O64331   3.468   6.397   5.677 -0.3884 -0.0366  0.4917
  488MOL0     C64332   3.783   6.241   5.760  0.0077  0.4573 -0.7606
  488MOL0     C64333   3.913   6.269   5.808 -0.4954  0.1924  0.9248
  488MOL0     N64334   4.662   6.171   5.869  0.0405 -0.1885 -0.3268
  488MOL0     N64335   4.779   6.123   5.889  0.4354 -0.6314  0.2509
  488MOL0     C64336   5.882   5.613   6.017 -0.0423  0.7504 -0.5863
  488MOL0     C64337   5.990   5.585   5.927 -0.5176  0.6721 -0.3803
  488MOL0     C64338   6.195   5.407   5.575  1.0750  0.1489 -0.0873
  488MOL0     C64339   6.233   5.280   5.565 -0.6385  0.9633 -0.6109
  488MOL0     C64340   6.323   5.240   5.468 -0.2633 -0.1975  0.8422
  488MOL0     C64341   6.375   5.336   5.374  0.5142 -1.0829  0.1624
  488MOL0     O64342   6.451   5.284   5.275  0.4057 -1.1452 -0.1250
  488MOL0     C64343   6.528   5.377   5.195 -0.3226 -0.0715 -0.1439
  488MOL0     C64344   6.658   5.303   5.157  0.0076 -0.2286 -0.1285
  488MOL0     C64345   6.762   5.316   5.266 -0.4932  0.0616  0.3081
  488MOL0     C64346   6.902   5.274   5.226 -0.3507 -0.2692  1.0540
  488MOL0     C64347   6.946   5.365   5.117  0.2890 -0.2652 -0.9344
  488MOL0     C64348   6.991   5.443   5.033  0.3782  1.2654  0.0410
  488MOL0     C64349   6.326   5.471   5.380  0.6561  0.3911  0.3878
  488MOL0     C64350   6.234   5.503   5.481  0.1970 -0.6088  0.6659
  488MOL0     H64351   5.817   5.627   5.638 -1.1797 -0.5968  0.2620
  488MOL0     H64352   5.629   5.651   5.787  0.2336  2.5120  0.1899
  488MOL0     H64353   5.717   5.770   6.157 -2.4085  2.0413 -1.1213
  488MOL0     H64354   5.701   5.622   6.253 -3.0202 -0.5528  0.6461
  488MOL0     H64355   5.550   5.808   6.326  0.5948 -0.1282  0.5985
  488MOL0     H64356   5.475   5.651   6.282 -3.0556  1.6030  0.4405
  488MOL0     H64357   5.390   5.755   6.065 -1.8787  0.2030  0.7633
  488MOL0     H64358   5.489   5.899   6.091  0.6819  1.8899  2.5893
  488MOL0     H64359   5.277   5.813   6.287  0.4568 -0.7432  0.3647
  488MOL0     H64360   5.364   5.974   6.274  2.2264  1.3424 -2.7303
  488MOL0     H64361   5.178   5.856   6.072  2.5375  0.1097 -1.6825
  488MOL0     H64362   5.246   6.020   6.071 -0.0525 -0.3257 -0.2513
  488MOL0     H64363   5.159   6.055   6.327  1.2349  0.3265 -0.4427
  488MOL0     H64364   5.052   5.916   6.292 -1.5745  1.1833  1.1199
  488MOL0     H64365   4.953   6.155   6.243  0.2619 -1.2371  1.2354
  488MOL0     H64366   5.069   6.175   6.118  3.8058 -1.2010  0.0752
  488MOL0     H64367   4.853   5.949   6.154 -0.5507  0.1012  0.1677
  488MOL0     H64368   4.952   5.961   6.006 -1.5320 -1.9004  0.6945
  488MOL0     H64369   4.669   6.115   6.194  1.9559  0.9438  0.0104
  488MOL0     H64370   4.451   6.215   6.126 -1.0335 -1.8225  0.4827
  488MOL0     H64371   4.420   6.073   6.028  0.7138 -0.1494  0.5019
  488MOL0     H64372   4.377   6.221   5.825 -2.2153 -0.9241  0.8187
  488MOL0     H64373   4.437   6.362   5.922  1.4376  0.3650  3.7050
  488MOL0     H64374   4.177   6.209   5.954  0.9118  0.6427 -3.1278
  488MOL0     H64375   4.245   6.331   6.067  3.4379 -1.0900 -0.0492
  488MOL0     H64376   4.190   6.341   5.765  1.1628 -1.7561  1.1622
  488MOL0     H64377   4.261   6.477   5.865 -1.2224  1.3121  2.0575
  488MOL0     H64378   3.871   6.594   5.875  2.1283 -0.5813 -0.1719
  488MOL0     H64379   3.660   6.553   5.759 -2.1905 -0.8765  1.3775
  488MOL0     H64380   3.286   6.213   5.756  0.3878  0.0418  0.5850
  488MOL0     H64381   3.076   6.109   5.633  1.4912 -0.0383  1.2274
  488MOL0     H64382   3.123   5.927   5.236  1.3663  1.3698 -0.5880
  488MOL0     H64383   3.127   6.111   5.219 -0.3620  1.0678  0.1427
  488MOL0     H64384   2.870   5.959   5.274  1.0173  0.6107  1.1904
  488MOL0     H64385   2.919   5.950   5.107 -4.3593  2.0627 -1.5261
  488MOL0     H64386   2.912   6.199   5.069 -0.8258 -0.3938 -0.4727
  488MOL0     H64387   2.892   6.219   5.242 -0.2782  3.0829 -2.7381
  488MOL0     H64388   2.708   6.113   5.036  0.2220  0.6655 -0.2112
  488MOL0     H64389   2.676   6.064   5.203 -0.2723  0.9381 -0.5874
  488MOL0     H64390   2.702   6.360   5.108  0.2517  0.1733  1.4424
  488MOL0     H64391   2.657   6.313   5.261 -1.9944  0.5855  0.6813
  488MOL0     H64392   2.445   6.211   5.171  2.6861 -1.4732 -0.0304
  488MOL0     H64393   2.510   6.249   5.007 -0.7861 -1.4142  0.4936
  488MOL0     H64394   2.396   6.441   5.230 -0.0768 -1.3735  0.6511
  488MOL0     H64395   2.494   6.506   5.101 -0.5145  0.4206  1.8993
  488MOL0     H64396   2.327   6.385   4.924  0.2750 -0.5163  0.1652
  488MOL0     H64397   2.274   6.515   5.040 -2.6245 -0.2438 -0.7355
  488MOL0     H64398   3.321   6.003   5.305  0.1048  1.5746 -0.5382
  488MOL0     H64399   3.517   6.079   5.418  0.1398  3.5876 -0.9411
  488MOL0     H64400   3.765   6.138   5.732 -0.1269 -0.3252  1.9682
  488MOL0     H64401   3.976   6.181   5.810 -1.1639 -0.3183  0.0598
  488MOL0     H64402   5.893   5.609   6.125 -4.4310 -2.3620  0.0090
  488MOL0     H64403   6.088   5.568   5.971 -0.4324  3.7263  0.7900
  488MOL0     H64404   6.197   5.195   5.623  0.9053 -0.3879 -1.5457
  488MOL0     H64405   6.355   5.137   5.455 -1.1284 -0.2532 -1.1597
  488MOL0     H64406   6.558   5.468   5.247  1.7356  0.2324 -1.7201
  488MOL0     H64407   6.469   5.400   5.105 -0.6284  0.4047  0.1766
  488MOL0     H64408   6.630   5.198   5.153 -1.9864  0.1418  1.9937
  488MOL0     H64409   6.694   5.339   5.060 -1.9060 -0.7344 -1.0727
  488MOL0     H64410   6.738   5.255   5.354 -1.5870  0.8641  0.5898
  488MOL0     H64411   6.765   5.419   5.302  1.1940  0.2685 -0.3362
  488MOL0     H64412   6.975   5.282   5.308 -1.8523  2.5957  2.2623
  488MOL0     H64413   6.909   5.172   5.189  0.0516  0.1587 -0.0895
  488MOL0     H64414   7.045   5.506   4.965 -0.4321  2.3948  0.4147
  488MOL0     H64415   6.366   5.542   5.308  0.3695 -0.5355 -0.7347
  488MOL0     H64416   6.213   5.610   5.482 -1.1488 -0.7295 -2.8265
  489MOL0     O64417   4.249   0.580   9.616  0.0205 -0.2199  1.0871
  489MOL0     C64418   4.283   0.530   9.723 -0.4279 -0.5001  0.9829
  489MOL0     O64419   4.211   0.443   9.800 -0.0166 -0.1507  0.1038
  489MOL0     C64420   4.080   0.420   9.758 -0.6693  0.0542 -0.0234
  489MOL0     C64421   4.057   0.370   9.631 -0.2791 -0.3827  0.6132
  489MOL0     C64422   3.924   0.339   9.592 -0.2061 -0.6622 -0.0999
  489MOL0     C64423   3.814   0.357   9.688 -1.1376  1.0036  0.1013
  489MOL0     O64424   3.687   0.306   9.655  0.2069 -0.6063  1.0146
  489MOL0     C64425   3.624   0.410   9.570  0.9520  0.8202 -0.0417
  489MOL0     C64426   3.494   0.348   9.503 -1.6639  0.5532 -0.1791
  489MOL0     C64427   3.383   0.312   9.609 -0.7158  0.3715  0.0210
  489MOL0     C64428   3.253   0.247   9.555 -0.4286 -0.3140  0.5195
  489MOL0     C64429   3.160   0.201   9.671 -0.1480 -0.0886 -0.7643
  489MOL0     C64430   3.031   0.150   9.625 -0.2091 -0.1624 -0.4944
  489MOL0     C64431   2.931   0.130   9.742 -0.5145 -0.1051  0.3852
  489MOL0     C64432   2.887   0.267   9.799 -0.4599  0.1425 -0.3793
  489MOL0     N64433   2.812   0.344   9.710  0.4597 -0.5085  0.8812
  489MOL0     C64434   2.682   0.340   9.660 -0.3730 -0.2942  0.8441
  489MOL0     C64435   2.669   0.457   9.582 -0.2136 -0.6558 -0.8592
  489MOL0     C64436   2.552   0.507   9.518 -0.2640 -0.9594 -0.2733
  489MOL0     C64437   2.465   0.602   9.609 -0.5199 -0.1469 -0.3339
  489MOL0     C64438   2.347   0.644   9.521  0.4206 -0.4410  0.8513
  489MOL0     C64439   2.230   0.682   9.606  0.5629  0.2412  0.1454
  489MOL0     O64440   2.126   0.734   9.516 -0.2968 -0.2489 -0.1322
  489MOL0     C64441   2.012   0.781   9.578 -0.8870 -0.2688  0.6102
  489MOL0     C64442   1.994   0.804   9.713 -0.4603 -0.0384 -0.4584
  489MOL0     C64443   1.874   0.844   9.769  0.2343  0.3855 -0.6857
  489MOL0     C64444   1.761   0.875   9.692 -0.4987 -0.5076  0.1764
  489MOL0     C64445   1.635   0.916   9.747  0.2422  0.1158 -0.2978
  489MOL0     O64446   1.550   0.992   9.657  0.2640  0.2264  0.4338
  489MOL0     C64447   1.433   1.029   9.714 -0.2988 -0.4382  0.8315
  489MOL0     C64448   1.432   1.126   9.819  0.3934 -0.2336 -0.1038
  489MOL0     C64449   1.313   1.186   9.864  0.1126 -0.0304 -0.3182
  489MOL0     C64450   1.191   1.149   9.815  0.1806  0.1738 -0.1086
  489MOL0     O64451   1.080   1.201   9.873 -0.5036  0.0938  0.3614
  489MOL0     C64452   0.951   1.166   9.814 -0.3234 -0.7631  0.6195
  489MOL0     C64453   0.840   1.232   9.881  0.2100 -0.0327 -0.1859
  489MOL0     C64454   0.809   1.161  10.009 -0.0527  0.2941 -0.5352
  489MOL0     C64455   0.700   1.237  10.092  0.4049  0.1521  0.4335
  489MOL0     C64456   0.699   1.196  10.238  0.8141  0.1488  0.1863
  489MOL0     C64457   0.603   1.292  10.314 -0.4802 -0.9954  0.5927
  489MOL0     C64458   0.556   1.212  10.449 -0.4873 -0.5155  0.1524
  489MOL0     C64459   0.410   1.245  10.484 -0.5529 -0.0133  0.3909
  489MOL0    Cl64460   0.401   1.417  10.504 -0.2823 -0.4120  0.2561
  489MOL0     C64461   1.194   1.066   9.704  0.3645  0.2993  0.3196
  489MOL0     C64462   1.309   1.004   9.645  0.2493 -0.5761  0.6350
  489MOL0     O64463   1.606   0.877   9.860  0.0967 -0.1772 -0.3326
  489MOL0     C64464   1.780   0.860   9.552 -0.0289 -0.0593  0.4731
  489MOL0     C64465   1.900   0.823   9.496  0.0148 -0.6924 -1.0367
  489MOL0     N64466   2.798   0.514   9.567  0.0244  0.9058 -0.1651
  489MOL0     N64467   2.873   0.452   9.656  0.1795  0.1083 -0.1619
  489MOL0     C64468   3.834   0.409   9.817 -0.3752  0.5990 -0.6507
  489MOL0     C64469   3.967   0.432   9.858 -0.9720 -1.0088  1.3045
  489MOL0     C64470   4.425   0.550   9.762 -0.8585 -0.3930  0.1914
  489MOL0     C64471   4.492   0.473   9.861 -0.5329  0.2738  0.3526
  489MOL0     C64472   4.631   0.481   9.888 -0.3759 -0.2078  0.3013
  489MOL0     C64473   4.709   0.566   9.809 -0.3131 -0.8331 -0.7353
  489MOL0     O64474   4.841   0.573   9.844  0.0515 -0.0185 -0.3295
  489MOL0     C64475   4.930   0.667   9.787 -0.0086  0.0533  0.2926
  489MOL0     C64476   5.059   0.647   9.856  1.0116  0.2014  0.8580
  489MOL0     C64477   5.159   0.757   9.829 -0.1191 -1.0996  0.5785
  489MOL0     C64478   5.303   0.717   9.869 -0.2909 -0.9280 -0.9318
  489MOL0     C64479   5.305   0.693  10.017  0.0736  0.0844  0.2045
  489MOL0     C64480   5.295   0.676  10.136 -0.0868  0.0652  0.4989
  489MOL0     C64481   4.646   0.649   9.712 -0.6136 -0.1801 -0.2910
  489MOL0     C64482   4.509   0.636   9.685  0.8329  0.1603  0.5495
  489MOL0     H64483   4.142   0.343   9.569 -0.2601  1.0758 -0.0484
  489MOL0     H64484   3.916   0.297   9.492  1.2419 -0.1967 -0.4257
  489MOL0     H64485   3.687   0.447   9.489 -0.9345 -0.7715 -2.3572
  489MOL0     H64486   3.596   0.499   9.627 -2.7102 -0.9792  1.3064
  489MOL0     H64487   3.531   0.256   9.457  0.6570  0.8805  0.8501
  489MOL0     H64488   3.465   0.425   9.431  1.1115  2.2834  0.3627
  489MOL0     H64489   3.371   0.398   9.676 -1.0824  0.0017  0.4409
  489MOL0     H64490   3.427   0.245   9.683  0.5885 -0.2972 -1.3091
  489MOL0     H64491   3.208   0.320   9.486  1.8981  0.6569 -0.0614
  489MOL0     H64492   3.276   0.162   9.490 -0.5975 -0.3662  0.5264
  489MOL0     H64493   3.142   0.296   9.723 -0.8228 -0.0065 -1.1286
  489MOL0     H64494   3.199   0.123   9.736 -0.0192 -1.2817 -2.2227
  489MOL0     H64495   3.036   0.052   9.575 -3.0311  0.4753 -2.2747
  489MOL0     H64496   2.982   0.221   9.557 -3.3499  0.2186  1.9595
  489MOL0     H64497   2.851   0.066   9.704  0.9555 -1.7052 -0.1326
  489MOL0     H64498   2.985   0.093   9.829 -0.5216 -0.7866  0.1034
  489MOL0     H64499   2.972   0.323   9.838  1.6064 -0.4134 -3.7066
  489MOL0     H64500   2.837   0.251   9.895  0.5754  1.9418  0.5162
  489MOL0     H64501   2.594   0.280   9.679 -3.3150  2.8708 -1.4656
  489MOL0     H64502   2.492   0.425   9.477 -0.2361 -0.5407 -1.1715
  489MOL0     H64503   2.584   0.561   9.429 -0.1905 -0.8136 -0.1585
  489MOL0     H64504   2.522   0.692   9.632  0.0910 -0.4001 -0.8338
  489MOL0     H64505   2.442   0.543   9.699  1.4761 -1.2706 -0.5070
  489MOL0     H64506   2.374   0.733   9.463  1.5073 -2.2379 -1.5699
  489MOL0     H64507   2.309   0.564   9.456  2.0765  0.7445 -1.7215
  489MOL0     H64508   2.274   0.762   9.666  1.1313  0.6014 -0.7397
  489MOL0     H64509   2.189   0.596   9.659 -1.9412  0.1191 -1.7596
  489MOL0     H64510   2.071   0.799   9.789  0.6662  1.5361 -1.4154
  489MOL0     H64511   1.869   0.850   9.877  1.1444 -0.5219 -0.5757
  489MOL0     H64512   1.519   1.160   9.874 -0.0382 -1.1175  1.1568
  489MOL0     H64513   1.313   1.262   9.942 -0.3287 -0.3997  0.0430
  489MOL0     H64514   0.937   1.058   9.812 -3.1887 -0.4733  0.3978
  489MOL0     H64515   0.945   1.203   9.711  1.7130 -1.0606  0.3520
  489MOL0     H64516   0.750   1.227   9.819  0.7162  1.5008 -1.1056
  489MOL0     H64517   0.873   1.336   9.893 -0.8822  0.4321 -1.0468
  489MOL0     H64518   0.899   1.138  10.067  0.0036  0.3879 -0.5857
  489MOL0     H64519   0.773   1.061   9.984  0.8014 -0.3324  0.6495
  489MOL0     H64520   0.721   1.345  10.087  0.2961  0.2201  1.3288
  489MOL0     H64521   0.601   1.225  10.048  0.4096  0.6836  0.2701
  489MOL0     H64522   0.803   1.202  10.272  0.8439  1.1679 -0.0460
  489MOL0     H64523   0.665   1.092  10.237 -1.0488  0.7288 -0.5730
  489MOL0     H64524   0.513   1.330  10.264 -1.9298 -1.6704  2.5608
  489MOL0     H64525   0.663   1.382  10.328 -0.6664 -1.2138  3.3406
  489MOL0     H64526   0.568   1.104  10.436  0.3897 -1.0854  4.3613
  489MOL0     H64527   0.615   1.235  10.539 -1.8995 -1.4668  1.3616
  489MOL0     H64528   0.383   1.189  10.574 -2.1795 -0.4152 -0.2893
  489MOL0     H64529   0.346   1.215  10.400 -0.6134  1.0059  0.0635
  489MOL0     H64530   1.101   1.046   9.652  0.7242  0.8125 -0.5429
  489MOL0     H64531   1.319   0.955   9.548  2.7423  2.6895 -0.9386
  489MOL0     H64532   1.693   0.895   9.497 -0.3950 -0.4413  0.8028
  489MOL0     H64533   1.919   0.837   9.390  0.2703  2.9232 -0.6309
  489MOL0     H64534   3.752   0.418   9.888  1.1262  1.4538  1.0386
  489MOL0     H64535   3.983   0.459   9.961 -0.5230 -1.3327  1.3223
  489MOL0     H64536   4.443   0.393   9.915  0.4141 -1.4902 -1.2883
  489MOL0     H64537   4.681   0.432   9.972  4.0436  1.3119 -1.1426
  489MOL0     H64538   4.903   0.772   9.798  2.1110  0.7361 -0.5773
  489MOL0     H64539   4.941   0.655   9.679 -1.2137  1.9835 -0.0977
  489MOL0     H64540   5.041   0.649   9.963  1.2075 -2.3386  0.9893
  489MOL0     H64541   5.108   0.554   9.826 -1.0374 -0.2860 -1.2553
  489MOL0     H64542   5.131   0.842   9.892  3.3701 -0.1933  1.1495
  489MOL0     H64543   5.152   0.792   9.725  0.2229  0.3871  1.0239
  489MOL0     H64544   5.334   0.628   9.813  6.9393 -0.5911  1.4427
  489MOL0     H64545   5.365   0.801   9.840 -1.2233 -0.5917 -2.0097
  489MOL0     H64546   5.269   0.670  10.240 -0.7962  0.2418  0.3347
  489MOL0     H64547   4.704   0.714   9.648  0.4191 -1.2354 -0.4766
  489MOL0     H64548   4.474   0.699   9.604 -0.0211  1.2637  1.7361
  490MOL0     O64549   7.744   4.674   7.613  0.1377 -0.3967 -0.5666
  490MOL0     C64550   7.835   4.726   7.550 -0.4910 -0.3119 -0.5562
  490MOL0     O64551   7.826   4.792   7.433  0.3017  0.4875  0.7845
  490MOL0     C64552   7.700   4.791   7.376 -1.1364 -0.2851 -0.8638
  490MOL0     C64553   7.627   4.911   7.357  0.1875 -0.0024  0.4885
  490MOL0     C64554   7.501   4.919   7.295  0.9654  0.5198  0.1057
  490MOL0     C64555   7.435   4.803   7.259 -0.6764 -0.3115  0.6486
  490MOL0     O64556   7.303   4.818   7.213 -0.8002 -0.1584  0.4118
  490MOL0     C64557   7.215   4.710   7.243 -0.0777 -0.1377  0.1692
  490MOL0     C64558   7.084   4.720   7.156  0.1760  0.1213 -0.3338
  490MOL0     C64559   6.985   4.622   7.228 -0.2384 -0.1084  0.8281
  490MOL0     C64560   6.841   4.655   7.196 -0.5757 -0.9230 -0.3600
  490MOL0     C64561   6.794   4.789   7.249 -0.0868  0.2881  0.3685
  490MOL0     C64562   6.649   4.795   7.223 -0.1740 -0.4286 -0.5948
  490MOL0     C64563   6.591   4.909   7.307 -0.0732  0.4198 -0.0486
  490MOL0     C64564   6.437   4.904   7.296  0.3470 -0.6055  0.2897
  490MOL0     N64565   6.375   5.030   7.344  0.2553 -0.8551 -0.0762
  490MOL0     C64566   6.280   5.104   7.272  0.1655 -0.8299  0.1457
  490MOL0     C64567   6.236   5.197   7.358 -0.1832 -0.0952  0.1326
  490MOL0     C64568   6.141   5.302   7.321  0.0229 -0.3768 -0.3270
  490MOL0     C64569   6.155   5.434   7.403 -0.0260 -0.7405  1.0460
  490MOL0     C64570   6.048   5.456   7.508 -0.0088 -0.5286  0.0253
  490MOL0     C64571   6.086   5.555   7.623 -0.1278  0.2308 -0.6400
  490MOL0     O64572   5.978   5.561   7.720 -0.2644  0.4376 -0.7473
  490MOL0     C64573   5.969   5.668   7.803  0.6870  0.0525 -1.1304
  490MOL0     C64574   5.851   5.657   7.885 -0.3609 -0.5912 -0.3102
  490MOL0     C64575   5.824   5.749   7.984  0.4303  0.6868  1.1117
  490MOL0     C64576   5.915   5.851   8.006  0.3655  0.1880  0.6856
  490MOL0     C64577   5.908   5.929   8.127 -0.4229  0.4798 -0.4173
  490MOL0     O64578   5.783   5.968   8.152 -0.4298  0.1476  0.0293
  490MOL0     C64579   5.751   6.008   8.279 -0.3789 -0.8933 -0.5824
  490MOL0     C64580   5.823   5.998   8.407  0.0391  0.7788  1.0830
  490MOL0     C64581   5.767   6.037   8.525  0.2938 -0.2081 -0.5955
  490MOL0     C64582   5.644   6.092   8.534 -0.1103 -0.9309 -0.6929
  490MOL0     O64583   5.611   6.126   8.660  0.3236  1.1201 -0.6644
  490MOL0     C64584   5.475   6.172   8.692 -0.4447 -0.0812 -0.9501
  490MOL0     C64585   5.479   6.224   8.837  0.2769 -0.2277 -0.3653
  490MOL0     C64586   5.367   6.324   8.875  0.0846 -0.9574  0.1102
  490MOL0     C64587   5.226   6.272   8.836 -0.9524 -0.7693  0.3385
  490MOL0     C64588   5.132   6.378   8.889 -0.1351 -0.4140 -0.2669
  490MOL0     C64589   4.997   6.367   8.827  0.1956  0.6263 -0.3349
  490MOL0     C64590   4.896   6.453   8.916  0.2737  1.0578 -0.5091
  490MOL0     C64591   4.757   6.445   8.865  0.8581  0.9378  0.5385
  490MOL0    Cl64592   4.649   6.513   8.984  0.6358 -0.0058  0.2374
  490MOL0     C64593   5.570   6.097   8.420  0.3077 -0.7866 -0.4058
  490MOL0     C64594   5.620   6.059   8.293 -0.2726 -0.1770  0.2290
  490MOL0     O64595   6.015   5.944   8.187 -0.3966  0.2262 -0.0193
  490MOL0     C64596   6.026   5.864   7.925 -0.4340  0.2581 -1.2164
  490MOL0     C64597   6.059   5.767   7.825  0.3751  0.0515  1.0220
  490MOL0     N64598   6.286   5.164   7.488 -0.0611  0.4849  0.1658
  490MOL0     N64599   6.372   5.060   7.479  0.5962  0.2118  0.2145
  490MOL0     C64600   7.504   4.680   7.261 -0.2862 -1.0197 -0.6329
  490MOL0     C64601   7.633   4.676   7.321  1.0238 -0.4989 -0.0755
  490MOL0     C64602   7.971   4.712   7.613 -0.6785  0.3409  0.0609
  490MOL0     C64603   8.072   4.803   7.573  0.5970  0.6564  0.0072
  490MOL0     C64604   8.201   4.796   7.619 -0.8250 -0.0613 -0.0738
  490MOL0     C64605   8.243   4.694   7.712 -0.6016  0.3881  0.5144
  490MOL0     O64606   8.373   4.681   7.753 -0.1851 -0.4553  0.1489
  490MOL0     C64607   8.461   4.800   7.752  0.3580  1.0694 -0.4761
  490MOL0     C64608   8.584   4.758   7.824 -0.0295  0.8764  0.3050
  490MOL0     C64609   8.696   4.865   7.797  0.5951  0.7643  1.1119
  490MOL0     C64610   8.783   4.863   7.922  0.0083 -1.0948  0.0812
  490MOL0     C64611   8.891   4.964   7.904 -0.7224 -0.1310  0.0750
  490MOL0     C64612   8.973   5.043   7.861 -0.3120  0.0044  0.0338
  490MOL0     C64613   8.143   4.605   7.753 -0.0481 -0.0314  0.7256
  490MOL0     C64614   8.003   4.610   7.708 -0.4633 -0.3563 -0.0389
  490MOL0     H64615   7.656   5.010   7.392 -1.3068  0.7959 -0.4324
  490MOL0     H64616   7.458   5.018   7.283  0.0488  0.0530 -0.4991
  490MOL0     H64617   7.196   4.718   7.350  0.1937 -0.6755  0.2616
  490MOL0     H64618   7.251   4.608   7.227 -1.2570 -0.1089 -4.0172
  490MOL0     H64619   7.099   4.695   7.050  1.3196  0.1452 -0.1865
  490MOL0     H64620   7.053   4.824   7.173 -0.0812 -0.0915  0.4991
  490MOL0     H64621   6.999   4.631   7.336  0.3837 -2.7073  1.0369
  490MOL0     H64622   7.003   4.517   7.202  0.4137  0.1444  0.2319
  490MOL0     H64623   6.828   4.656   7.088 -2.1690 -2.6879 -0.2395
  490MOL0     H64624   6.775   4.574   7.230 -1.6126  0.0980  0.1269
  490MOL0     H64625   6.850   4.861   7.189 -2.4615  0.7403 -1.4310
  490MOL0     H64626   6.818   4.797   7.356  2.0149  0.8254 -0.1027
  490MOL0     H64627   6.597   4.702   7.248 -0.3387 -0.8522 -2.3776
  490MOL0     H64628   6.633   4.822   7.119  0.7049  0.8424 -0.4240
  490MOL0     H64629   6.615   4.903   7.413 -1.0183  2.4346  0.3262
  490MOL0     H64630   6.632   5.005   7.274  4.9268 -2.1757 -2.4818
  490MOL0     H64631   6.412   4.813   7.350  1.4556 -1.3175 -0.3598
  490MOL0     H64632   6.406   4.887   7.192  0.9359 -4.7827  0.6378
  490MOL0     H64633   6.257   5.093   7.167  3.6130 -1.4361 -0.6708
  490MOL0     H64634   6.043   5.261   7.347 -0.1037  0.0362 -0.1288
  490MOL0     H64635   6.148   5.324   7.214  1.1668 -1.1475 -0.4244
  490MOL0     H64636   6.167   5.524   7.342  1.2996 -1.3940  0.3006
  490MOL0     H64637   6.257   5.427   7.445  1.2861 -0.9703 -1.9523
  490MOL0     H64638   5.966   5.511   7.460  1.4413  3.2060  1.3944
  490MOL0     H64639   6.010   5.366   7.557 -2.6080  2.3956  3.9972
  490MOL0     H64640   6.109   5.651   7.576  0.3139  0.3478 -0.1963
  490MOL0     H64641   6.181   5.535   7.673 -0.1408  0.2444 -0.6096
  490MOL0     H64642   5.785   5.572   7.871  1.4812 -2.0622 -0.5040
  490MOL0     H64643   5.734   5.730   8.040  1.0371 -0.4107  1.7505
  490MOL0     H64644   5.918   5.946   8.416  0.7272  1.5948 -0.8876
  490MOL0     H64645   5.832   6.025   8.611 -0.3581 -5.0773 -0.5195
  490MOL0     H64646   5.401   6.092   8.685 -1.4598  0.9207 -2.5643
  490MOL0     H64647   5.446   6.244   8.614  0.2325  0.1850 -0.9623
  490MOL0     H64648   5.569   6.286   8.845  0.8176 -1.1991  1.6876
  490MOL0     H64649   5.486   6.145   8.912 -0.3798  1.4260  1.5114
  490MOL0     H64650   5.384   6.420   8.824 -2.8500  0.2756  1.2256
  490MOL0     H64651   5.379   6.345   8.981  1.2424 -0.9745  0.0004
  490MOL0     H64652   5.207   6.243   8.732 -0.6625  1.7058 -0.4724
  490MOL0     H64653   5.206   6.180   8.892 -1.4946 -1.4959 -0.9943
  490MOL0     H64654   5.171   6.480   8.876  0.0948 -0.4179  0.3736
  490MOL0     H64655   5.128   6.368   8.997 -0.4993 -0.5780 -0.2966
  490MOL0     H64656   4.976   6.262   8.807 -0.3871  1.0461 -2.1615
  490MOL0     H64657   5.007   6.411   8.727 -3.4570 -1.0432 -1.5986
  490MOL0     H64658   4.903   6.413   9.017  2.9814 -0.4387 -1.1960
  490MOL0     H64659   4.935   6.555   8.920  0.7589  0.9182 -1.3940
  490MOL0     H64660   4.725   6.343   8.844 -1.4923  1.2023  2.3882
  490MOL0     H64661   4.752   6.506   8.774 -1.0560  0.1281  0.0525
  490MOL0     H64662   5.474   6.147   8.417 -0.0653 -1.3266  1.4421
  490MOL0     H64663   5.554   6.060   8.207 -1.1513 -0.2732  0.8885
  490MOL0     H64664   6.105   5.935   7.943  0.7024 -1.6122  2.0929
  490MOL0     H64665   6.158   5.774   7.781 -0.3162  1.5137 -0.4242
  490MOL0     H64666   7.451   4.596   7.218 -3.9526  0.7649  0.0124
  490MOL0     H64667   7.688   4.586   7.344  3.0246  1.1538  2.1508
  490MOL0     H64668   8.041   4.887   7.511 -1.0623 -0.2490 -0.4497
  490MOL0     H64669   8.267   4.858   7.560  0.8722 -2.2252 -0.5799
  490MOL0     H64670   8.422   4.885   7.808  1.3501  1.7710 -0.8183
  490MOL0     H64671   8.490   4.821   7.649  1.9701  1.8395  0.1025
  490MOL0     H64672   8.555   4.750   7.929 -3.4856  2.2293 -0.3997
  490MOL0     H64673   8.615   4.656   7.799  1.9104  1.2103  1.1025
  490MOL0     H64674   8.650   4.964   7.795 -0.7530  0.1484  0.6939
  490MOL0     H64675   8.756   4.842   7.708  1.4711  0.1797  1.8311
  490MOL0     H64676   8.733   4.885   8.017 -0.5283  2.3719 -0.8439
  490MOL0     H64677   8.823   4.761   7.924 -0.0704 -1.1191  0.5460
  490MOL0     H64678   9.031   5.131   7.845 -1.6810  1.0120  0.4268
  490MOL0     H64679   8.179   4.523   7.815 -2.1847 -0.7222  1.1517
  490MOL0     H64680   7.929   4.537   7.738 -0.0587 -0.9660 -0.4957
  491MOL0     O64681   1.935   3.687   0.097  0.5710 -0.3219 -0.7657
  491MOL0     C64682   2.003   3.671   0.199  0.1644  0.2085  0.6742
  491MOL0     O64683   1.958   3.618   0.314  0.4167 -0.0842 -0.5985
  491MOL0     C64684   1.832   3.556   0.332  0.4686  0.3004  0.1043
  491MOL0     C64685   1.707   3.617   0.307  0.2493  0.4367  0.1951
  491MOL0     C64686   1.586   3.543   0.314  0.6478 -0.0648  0.3304
  491MOL0     C64687   1.588   3.413   0.358  0.9497  0.0561 -0.5380
  491MOL0     O64688   1.459   3.360   0.379  0.6787 -0.1303 -0.7085
  491MOL0     C64689   1.432   3.220   0.366  0.7550 -0.1756 -0.1048
  491MOL0     C64690   1.421   3.147   0.502  0.8583  0.1771 -0.1611
  491MOL0     C64691   1.441   2.987   0.487  0.1754 -0.1876 -0.4014
  491MOL0     C64692   1.365   2.917   0.368 -0.0513 -0.7404  0.0382
  491MOL0     C64693   1.285   2.801   0.408 -0.3066  0.7807 -1.0914
  491MOL0     C64694   1.364   2.684   0.466  0.3126  0.7946  0.5420
  491MOL0     C64695   1.260   2.563   0.469  0.2401 -0.1114 -0.2177
  491MOL0     C64696   1.331   2.431   0.505  0.0590 -0.2138 -0.1180
  491MOL0     N64697   1.361   2.412   0.647  0.1821 -0.1917  0.5679
  491MOL0     C64698   1.262   2.376   0.741  0.6574 -0.5001  0.2558
  491MOL0     C64699   1.324   2.384   0.854  0.2908  0.4004 -0.3026
  491MOL0     C64700   1.250   2.355   0.987  0.0714  0.0550 -0.5188
  491MOL0     C64701   1.286   2.215   1.040 -0.2561  0.3404 -0.9328
  491MOL0     C64702   1.239   2.108   0.936 -0.1983  0.1345  0.1998
  491MOL0     C64703   1.261   1.966   0.989  0.8395 -0.5558 -0.6307
  491MOL0     O64704   1.180   1.931   1.109 -1.2296  0.3799 -0.2435
  491MOL0     C64705   1.045   1.906   1.088 -0.4397  0.0845  0.1717
  491MOL0     C64706   0.968   1.921   0.980 -0.2922  0.7017 -0.6649
  491MOL0     C64707   0.833   1.904   0.978  0.3961 -0.3936 -0.3743
  491MOL0     C64708   0.768   1.873   1.098  0.6311  0.4916  0.2894
  491MOL0     C64709   0.620   1.851   1.102 -0.7391 -0.0468  0.0533
  491MOL0     O64710   0.546   1.880   0.997  0.4369 -0.5042 -0.2384
  491MOL0     C64711   0.420   1.838   0.996  0.2469 -0.8844 -0.4245
  491MOL0     C64712   0.376   1.735   0.909  0.1167 -0.2040  0.2160
  491MOL0     C64713   0.246   1.687   0.908  0.3670  0.1239 -0.4595
  491MOL0     C64714   0.155   1.745   0.995 -0.6842  0.8528 -0.1732
  491MOL0     O64715   0.027   1.700   0.987  0.5825  0.6563  0.9406
  491MOL0     C64716  -0.050   1.705   1.106 -0.4929  0.0971 -0.0985
  491MOL0     C64717  -0.186   1.654   1.061  0.4648  0.1593  0.0033
  491MOL0     C64718  -0.267   1.754   0.970 -0.4964 -0.5357  0.3846
  491MOL0     C64719  -0.402   1.696   0.935  0.2514  0.5061  0.3757
  491MOL0     C64720  -0.471   1.771   0.822 -0.9166  0.1571 -0.7250
  491MOL0     C64721  -0.613   1.721   0.819  0.3398  0.3908  0.2197
  491MOL0     C64722  -0.698   1.775   0.705 -0.0573 -0.1590  0.3792
  491MOL0     C64723  -0.684   1.919   0.684 -1.0505 -1.5340 -0.9644
  491MOL0    Cl64724  -0.797   1.960   0.542 -0.3863 -0.2662  0.0364
  491MOL0     C64725   0.193   1.842   1.087  0.5771 -0.3454  0.2084
  491MOL0     C64726   0.326   1.884   1.090  0.5137  0.4046 -0.1396
  491MOL0     O64727   0.578   1.798   1.207  0.1585  0.2069  0.0295
  491MOL0     C64728   0.851   1.833   1.207  0.1741 -0.2839 -0.7755
  491MOL0     C64729   0.988   1.858   1.209  0.3555  0.1662 -0.0998
  491MOL0     N64730   1.464   2.411   0.833  0.1936 -0.5488 -0.1849
  491MOL0     N64731   1.473   2.453   0.714 -0.4456  0.1924  0.3556
  491MOL0     C64732   1.707   3.351   0.393  0.3355  0.1074  0.4992
  491MOL0     C64733   1.827   3.421   0.375 -0.4701  0.5400  0.0541
  491MOL0     C64734   2.144   3.720   0.188  0.3587  0.1231 -0.0203
  491MOL0     C64735   2.211   3.734   0.062  0.3192 -0.2921  0.0815
  491MOL0     C64736   2.343   3.772   0.063 -0.1289  0.0410 -0.3571
  491MOL0     C64737   2.410   3.797   0.183 -0.0995  0.7095  1.0518
  491MOL0     O64738   2.543   3.842   0.162  0.0892  0.8971  0.0571
  491MOL0     C64739   2.559   3.975   0.121  0.1016 -0.0282  0.3389
  491MOL0     C64740   2.543   4.068   0.234  0.6669 -0.3654 -0.2970
  491MOL0     C64741   2.552   4.219   0.180 -0.2406 -0.4392 -0.3726
  491MOL0     C64742   2.705   4.270   0.167 -0.5144 -1.2142  0.3680
  491MOL0     C64743   2.703   4.414   0.123  0.2164 -0.2289 -0.0187
  491MOL0     C64744   2.671   4.524   0.083  0.2977  0.5127 -0.0489
  491MOL0     C64745   2.351   3.764   0.303  0.1806  0.2986  0.1919
  491MOL0     C64746   2.213   3.728   0.312 -0.4587 -0.0425 -0.0950
  491MOL0     H64747   1.692   3.720   0.277 -1.9100  0.0910 -0.0343
  491MOL0     H64748   1.501   3.606   0.292 -0.1132 -1.4188 -0.7691
  491MOL0     H64749   1.512   3.168   0.311  2.2423  0.5062  1.3302
  491MOL0     H64750   1.342   3.217   0.305  0.9279  2.7523 -0.6339
  491MOL0     H64751   1.325   3.166   0.552 -0.0836 -0.8735 -1.5149
  491MOL0     H64752   1.499   3.188   0.568  0.4151  0.8137 -0.0215
  491MOL0     H64753   1.410   2.934   0.578 -0.7335 -2.2492 -1.8423
  491MOL0     H64754   1.548   2.972   0.478  0.4170  1.7912 -1.5520
  491MOL0     H64755   1.292   2.996   0.344 -0.8752 -0.9249  1.7455
  491MOL0     H64756   1.434   2.876   0.294  0.1565 -1.1635  0.4580
  491MOL0     H64757   1.222   2.769   0.325 -1.4750 -1.8880  0.6877
  491MOL0     H64758   1.216   2.827   0.488 -0.9302 -1.1535 -0.9554
  491MOL0     H64759   1.403   2.707   0.566  1.7088  0.1198  0.1747
  491MOL0     H64760   1.452   2.657   0.406 -0.3308  0.0562 -0.1018
  491MOL0     H64761   1.184   2.585   0.544 -0.8232 -1.2766 -0.9047
  491MOL0     H64762   1.221   2.544   0.368  1.2859 -3.7448 -0.1109
  491MOL0     H64763   1.429   2.436   0.458 -0.0486  1.2429 -0.2384
  491MOL0     H64764   1.274   2.346   0.468 -1.0091  0.1251  0.6736
  491MOL0     H64765   1.156   2.360   0.728  0.5485  0.9308 -0.9064
  491MOL0     H64766   1.141   2.364   0.983  0.0382 -0.4301 -0.7230
  491MOL0     H64767   1.283   2.430   1.060  0.4494 -0.1886 -0.4366
  491MOL0     H64768   1.248   2.190   1.139  1.4294 -2.2394 -0.8373
  491MOL0     H64769   1.395   2.217   1.056 -0.7771  0.0688  4.3712
  491MOL0     H64770   1.135   2.133   0.910  1.0170  2.6990 -2.9248
  491MOL0     H64771   1.299   2.118   0.845 -0.2599  0.6175  0.2062
  491MOL0     H64772   1.368   1.956   1.011  0.5410 -2.6469  0.1183
  491MOL0     H64773   1.250   1.892   0.909 -0.5250  1.0996 -2.0302
  491MOL0     H64774   1.017   1.935   0.884  1.6974  0.8954  0.3407
  491MOL0     H64775   0.772   1.921   0.890  0.7744 -0.6518 -0.6879
  491MOL0     H64776   0.444   1.695   0.834  0.8677  0.8782  0.2983
  491MOL0     H64777   0.212   1.604   0.848 -1.5454 -1.0842  2.0897
  491MOL0     H64778  -0.070   1.807   1.141  2.1424  1.3704 -1.9490
  491MOL0     H64779  -0.002   1.648   1.186  0.7228 -0.0262 -0.8893
  491MOL0     H64780  -0.249   1.631   1.148  0.4754  0.8877  0.2064
  491MOL0     H64781  -0.177   1.557   1.012  1.0901  1.0736 -1.7685
  491MOL0     H64782  -0.214   1.765   0.874 -2.6165 -3.1002 -1.2190
  491MOL0     H64783  -0.277   1.851   1.018 -0.1682 -0.2900 -0.0272
  491MOL0     H64784  -0.388   1.590   0.910  1.4456  0.8907 -0.7027
  491MOL0     H64785  -0.447   1.699   1.034 -1.0277 -0.4494 -0.1447
  491MOL0     H64786  -0.423   1.738   0.730 -0.1610  0.9356 -0.6182
  491MOL0     H64787  -0.453   1.878   0.831 -3.0469  0.5237 -0.3389
  491MOL0     H64788  -0.646   1.749   0.919  2.6297 -1.0250  1.4709
  491MOL0     H64789  -0.606   1.612   0.815 -0.5676  0.3471 -3.2141
  491MOL0     H64790  -0.654   1.731   0.615 -1.4938  0.4783 -0.6613
  491MOL0     H64791  -0.800   1.744   0.726  0.8317 -3.7859  0.0060
  491MOL0     H64792  -0.577   1.934   0.667 -0.9837 -1.0174 -0.1897
  491MOL0     H64793  -0.702   1.981   0.773  4.1638  1.2682 -1.4464
  491MOL0     H64794   0.118   1.884   1.153  1.5367  0.4290  0.8311
  491MOL0     H64795   0.356   1.962   1.160 -1.8985  1.2674  0.0426
  491MOL0     H64796   0.816   1.779   1.294 -0.0009  1.7855  0.4825
  491MOL0     H64797   1.039   1.816   1.296 -0.1663 -0.7842 -0.2409
  491MOL0     H64798   1.701   3.254   0.443 -0.1990 -0.1275 -0.0090
  491MOL0     H64799   1.922   3.372   0.398  0.4967  2.5670  0.6108
  491MOL0     H64800   2.154   3.709  -0.027  1.3849 -1.0439 -0.4094
  491MOL0     H64801   2.388   3.797  -0.032 -0.7376  1.4522 -0.3052
  491MOL0     H64802   2.484   3.991   0.043 -0.1743  0.5001  0.7094
  491MOL0     H64803   2.660   3.981   0.079  0.7706  1.4912  2.0266
  491MOL0     H64804   2.440   4.055   0.266  1.8954 -0.1864  4.4652
  491MOL0     H64805   2.611   4.050   0.317  0.1902  1.0314  0.4406
  491MOL0     H64806   2.489   4.290   0.235 -0.2033  3.8135 -5.1168
  491MOL0     H64807   2.498   4.210   0.085  1.8474 -1.1174 -1.5407
  491MOL0     H64808   2.758   4.286   0.262 -0.7402 -0.9042  0.4433
  491MOL0     H64809   2.756   4.208   0.093 -1.0395 -0.3219 -0.7614
  491MOL0     H64810   2.639   4.619   0.044 -1.5711  0.9481  2.2946
  491MOL0     H64811   2.421   3.766   0.386  2.2764 -2.5195 -1.3329
  491MOL0     H64812   2.169   3.717   0.411  0.3790 -0.0806  0.2864
  492MOL0     O64813  10.085   3.969   2.693  0.3719 -0.5657 -0.5332
  492MOL0     C64814  10.128   3.909   2.593  0.6906  0.1526 -0.6400
  492MOL0     O64815  10.049   3.816   2.531 -0.3701  0.1357 -1.1295
  492MOL0     C64816   9.923   3.799   2.578  0.1737  0.1421 -0.0503
  492MOL0     C64817   9.890   3.669   2.622  0.6623 -0.1744  0.0982
  492MOL0     C64818   9.767   3.653   2.688 -0.3783 -0.4540  1.0526
  492MOL0     C64819   9.675   3.758   2.692 -0.3173 -0.5259 -0.3685
  492MOL0     O64820   9.563   3.723   2.753 -0.6822  0.1152  0.1910
  492MOL0     C64821   9.443   3.775   2.693  0.4263 -0.1266 -0.1347
  492MOL0     C64822   9.330   3.689   2.758  1.2147 -0.8896  0.5487
  492MOL0     C64823   9.190   3.739   2.707 -0.5596  0.7788 -0.5499
  492MOL0     C64824   9.078   3.641   2.752  0.2673  0.1428 -0.7066
  492MOL0     C64825   8.939   3.676   2.688  0.0741  0.4151 -0.0178
  492MOL0     C64826   8.842   3.558   2.684 -0.2004 -0.3502  0.4774
  492MOL0     C64827   8.709   3.609   2.635 -0.4993 -0.0411  0.4843
  492MOL0     C64828   8.629   3.495   2.565 -0.5952 -0.4130 -0.2182
  492MOL0     N64829   8.487   3.524   2.594 -0.4649  0.4453  0.0936
  492MOL0     C64830   8.388   3.428   2.572 -0.4954 -0.7737 -0.2435
  492MOL0     C64831   8.271   3.494   2.595  0.1139 -0.7115  0.1170
  492MOL0     C64832   8.123   3.450   2.596 -0.4049 -0.1355 -0.3061
  492MOL0     C64833   8.032   3.486   2.484  0.1111  0.2731  0.6073
  492MOL0     C64834   7.975   3.623   2.508  0.0776  0.1644 -0.8982
  492MOL0     C64835   7.875   3.650   2.398 -0.0496 -0.0170  0.6821
  492MOL0     O64836   7.748   3.589   2.418 -0.4280 -0.7452  0.0180
  492MOL0     C64837   7.642   3.653   2.478 -2.0973 -0.1689 -0.0221
  492MOL0     C64838   7.645   3.800   2.498 -0.5505  0.5698  0.0869
  492MOL0     C64839   7.529   3.861   2.549 -0.1212 -0.0857 -0.2581
  492MOL0     C64840   7.414   3.784   2.570 -0.0107  1.2158 -0.2168
  492MOL0     C64841   7.286   3.851   2.598 -0.5405 -0.4802 -0.1846
  492MOL0     O64842   7.292   3.990   2.615 -0.9376 -0.5817 -0.6247
  492MOL0     C64843   7.171   4.047   2.644 -0.3077 -0.4709  0.0145
  492MOL0     C64844   7.153   4.178   2.589  0.2178  0.0991  0.8779
  492MOL0     C64845   7.046   4.256   2.631 -0.2984  0.8814 -0.5405
  492MOL0     C64846   6.954   4.215   2.735 -0.2122 -0.7305 -0.1081
  492MOL0     O64847   6.865   4.308   2.788  0.4622 -0.1857 -0.0576
  492MOL0     C64848   6.746   4.325   2.705  0.2474 -0.0155 -0.1600
  492MOL0     C64849   6.655   4.430   2.778 -0.1906 -0.1219 -0.4562
  492MOL0     C64850   6.510   4.415   2.736  0.1827 -0.0260  0.1645
  492MOL0     C64851   6.417   4.478   2.835 -0.1997 -0.4263 -0.2987
  492MOL0     C64852   6.280   4.471   2.776 -0.3826  1.2755  0.1804
  492MOL0     C64853   6.217   4.321   2.762  0.0127 -0.7468  0.2782
  492MOL0     C64854   6.160   4.250   2.887  0.1509 -0.3318 -0.0335
  492MOL0     C64855   6.012   4.283   2.922 -0.1419  0.9475  0.3890
  492MOL0    Cl64856   5.894   4.195   2.814  0.0477  0.4674 -0.0441
  492MOL0     C64857   6.974   4.089   2.784  0.2487 -0.9525 -0.0005
  492MOL0     C64858   7.085   4.011   2.748  0.2655 -0.3598  0.3761
  492MOL0     O64859   7.185   3.787   2.595  0.1440 -0.0058 -0.5872
  492MOL0     C64860   7.420   3.643   2.544  0.2377 -0.5886 -0.3135
  492MOL0     C64861   7.532   3.576   2.510  0.4744  0.2492  0.1821
  492MOL0     N64862   8.300   3.629   2.622 -0.5569 -0.0659 -0.1482
  492MOL0     N64863   8.433   3.647   2.619  0.5123  0.1420 -0.5637
  492MOL0     C64864   9.709   3.884   2.636 -0.2811 -0.4920 -0.3527
  492MOL0     C64865   9.837   3.907   2.586  0.0269 -1.4171  0.0917
  492MOL0     C64866  10.263   3.943   2.543  0.2433 -0.5456  0.1442
  492MOL0     C64867  10.293   3.933   2.411 -0.4143 -0.3763 -0.2235
  492MOL0     C64868  10.423   3.961   2.371 -0.5015 -0.6044  0.0829
  492MOL0     C64869  10.521   4.015   2.461 -0.6511 -0.1346  0.6968
  492MOL0     O64870  10.633   4.048   2.390  0.1139 -0.7133 -0.6246
  492MOL0     C64871  10.750   4.021   2.464  0.0306  0.2846 -1.3630
  492MOL0     C64872  10.864   4.012   2.362 -0.4957 -0.1911 -0.1923
  492MOL0     C64873  10.844   3.912   2.241 -0.1608 -0.0037 -1.0496
  492MOL0     C64874  10.837   3.762   2.288  0.0345 -0.2737  0.7419
  492MOL0     C64875  10.701   3.722   2.323  0.0707  0.7565  0.1823
  492MOL0     C64876  10.588   3.692   2.348  0.6829  0.2685 -1.2702
  492MOL0     C64877  10.482   4.036   2.589 -0.2778 -0.1288  0.5496
  492MOL0     C64878  10.359   3.997   2.636  0.8655  0.0800  0.6483
  492MOL0     H64879   9.954   3.582   2.608 -0.2549 -0.6008 -1.7971
  492MOL0     H64880   9.732   3.554   2.717  1.5653 -0.8956  2.0725
  492MOL0     H64881   9.439   3.762   2.585  0.0209 -1.0562 -0.0230
  492MOL0     H64882   9.431   3.882   2.710 -1.0801 -0.0543 -1.4461
  492MOL0     H64883   9.334   3.697   2.867  1.3888 -0.0101  0.4868
  492MOL0     H64884   9.345   3.585   2.727 -1.1225 -0.2354 -3.5003
  492MOL0     H64885   9.204   3.735   2.598  0.5332 -0.7406 -0.3891
  492MOL0     H64886   9.168   3.840   2.742 -4.3633  0.6094 -1.9836
  492MOL0     H64887   9.097   3.536   2.730 -0.9601 -0.3323  0.3910
  492MOL0     H64888   9.066   3.656   2.860 -0.8130 -0.6428 -0.6989
  492MOL0     H64889   8.947   3.731   2.593 -0.8100  2.0014  0.7825
  492MOL0     H64890   8.888   3.740   2.760 -1.7536 -2.2506  1.1706
  492MOL0     H64891   8.840   3.511   2.782  3.5147  1.5276  1.6348
  492MOL0     H64892   8.880   3.482   2.615 -1.6701 -0.4459 -0.2654
  492MOL0     H64893   8.653   3.637   2.724 -0.2294 -0.8057  0.9042
  492MOL0     H64894   8.721   3.686   2.558  0.1532  1.2388  1.8195
  492MOL0     H64895   8.651   3.403   2.619 -3.4386 -0.6764  0.7038
  492MOL0     H64896   8.648   3.485   2.458  0.0800 -0.1167 -0.1330
  492MOL0     H64897   8.408   3.322   2.572 -0.3786 -0.7715  0.9615
  492MOL0     H64898   8.091   3.491   2.692 -0.1821  2.8935 -1.4182
  492MOL0     H64899   8.112   3.341   2.606 -1.6685  0.1752  3.5553
  492MOL0     H64900   7.958   3.406   2.474  0.1156 -0.6349  5.4657
  492MOL0     H64901   8.092   3.482   2.393  0.0795 -0.9808  0.6275
  492MOL0     H64902   7.930   3.634   2.607 -1.4310  0.3934 -1.5735
  492MOL0     H64903   8.060   3.690   2.494  0.2945 -0.1185 -0.9396
  492MOL0     H64904   7.914   3.612   2.303 -0.8312 -1.5331  0.9452
  492MOL0     H64905   7.860   3.758   2.384 -1.0460 -0.3130 -0.7844
  492MOL0     H64906   7.729   3.866   2.478  0.4553 -0.3681  1.0518
  492MOL0     H64907   7.532   3.968   2.561 -1.5058 -0.0317 -0.2211
  492MOL0     H64908   7.220   4.208   2.510  0.7173  1.0185  1.6253
  492MOL0     H64909   7.021   4.350   2.582 -0.9521  1.9034  1.5958
  492MOL0     H64910   6.696   4.229   2.698  0.1734  0.0635 -0.7797
  492MOL0     H64911   6.776   4.354   2.604  5.0567 -1.3399  0.6343
  492MOL0     H64912   6.693   4.531   2.763  2.8633 -1.1704 -0.6436
  492MOL0     H64913   6.661   4.397   2.882 -2.1456  0.7632 -0.0176
  492MOL0     H64914   6.480   4.311   2.723 -1.8483  0.5230  0.0197
  492MOL0     H64915   6.505   4.467   2.640  2.6868 -0.8861 -0.5146
  492MOL0     H64916   6.423   4.452   2.941 -0.9914 -0.5178 -0.2723
  492MOL0     H64917   6.430   4.587   2.832 -2.0331 -0.1855 -1.6827
  492MOL0     H64918   6.286   4.512   2.675  0.5573 -2.1972 -1.2830
  492MOL0     H64919   6.212   4.531   2.838 -0.0658  1.4435  0.3665
  492MOL0     H64920   6.285   4.245   2.721  0.0323 -1.4477  1.5566
  492MOL0     H64921   6.139   4.324   2.685  0.5975 -0.2624 -0.3114
  492MOL0     H64922   6.177   4.142   2.892 -1.7161 -0.6470  0.1653
  492MOL0     H64923   6.212   4.290   2.975  1.8927  2.8447 -2.2881
  492MOL0     H64924   5.990   4.389   2.931 -2.3340  0.4798  1.0982
  492MOL0     H64925   5.992   4.240   3.021  0.8893  2.5530  1.3454
  492MOL0     H64926   6.907   4.048   2.860 -1.3633 -3.2994 -2.5083
  492MOL0     H64927   7.091   3.922   2.809  0.5256  0.3927  1.4778
  492MOL0     H64928   7.333   3.579   2.545  1.4151 -2.2467 -0.4870
  492MOL0     H64929   7.536   3.468   2.502  1.9774  0.1225  1.9392
  492MOL0     H64930   9.653   3.977   2.630  0.4100 -0.0532 -0.1813
  492MOL0     H64931   9.866   4.001   2.540 -2.3526 -0.3391  0.6415
  492MOL0     H64932  10.219   3.897   2.341 -1.6264 -1.0717  1.3495
  492MOL0     H64933  10.455   3.972   2.268 -1.3561  0.1571 -0.1159
  492MOL0     H64934  10.751   3.935   2.532  0.3328  2.1141  1.0754
  492MOL0     H64935  10.773   4.100   2.536 -1.8819  2.0755 -2.6159
  492MOL0     H64936  10.882   4.111   2.319 -0.1260 -0.8072 -1.4923
  492MOL0     H64937  10.954   3.976   2.412  0.3935 -0.4456 -1.9214
  492MOL0     H64938  10.940   3.913   2.189  0.2003 -1.5806 -0.4816
  492MOL0     H64939  10.761   3.953   2.183 -1.3080  0.4248  0.8113
  492MOL0     H64940  10.864   3.697   2.204  0.8167 -1.1254  1.6294
  492MOL0     H64941  10.903   3.736   2.371 -0.0077  1.5499  1.3973
  492MOL0     H64942  10.494   3.661   2.389  1.9490 -1.3642  0.6101
  492MOL0     H64943  10.552   4.099   2.642 -0.6150  1.1238 -0.4614
  492MOL0     H64944  10.330   4.029   2.736  0.2464  0.6675  0.2896
  493MOL0     O64945   5.091   3.201   7.744 -0.1475  0.2173 -0.6221
  493MOL0     C64946   5.068   3.151   7.858 -1.0750  0.1282  0.4038
  493MOL0     O64947   4.946   3.101   7.897  0.1799 -0.2497 -0.0998
  493MOL0     C64948   4.854   3.087   7.802  0.0377  0.7691  0.2377
  493MOL0     C64949   4.864   2.990   7.705  0.2145  0.3666 -0.0680
  493MOL0     C64950   4.765   2.970   7.611 -0.3985 -0.8481 -0.5480
  493MOL0     C64951   4.646   3.040   7.626  0.5405  0.0330  0.1257
  493MOL0     O64952   4.539   2.998   7.548  0.9274 -0.4456  0.9140
  493MOL0     C64953   4.409   3.016   7.595  0.5448 -0.2372 -0.3441
  493MOL0     C64954   4.304   2.959   7.510 -0.3597  0.0568  0.5609
  493MOL0     C64955   4.177   2.941   7.583  0.8594  0.4803  0.2934
  493MOL0     C64956   4.069   2.881   7.488  0.1761  0.2993 -1.1552
  493MOL0     C64957   3.947   2.844   7.571  0.1396 -0.2664 -0.0228
  493MOL0     C64958   3.836   2.806   7.476  0.7513  0.5291  0.8583
  493MOL0     C64959   3.729   2.712   7.541  0.7565  0.3632  0.5766
  493MOL0     C64960   3.625   2.653   7.437 -0.6855 -0.2936  0.1390
  493MOL0     N64961   3.571   2.754   7.346  0.0609  0.1986 -0.4891
  493MOL0     C64962   3.618   2.789   7.218  0.8029  0.1469  0.0056
  493MOL0     C64963   3.535   2.889   7.173  0.6402 -0.0174  0.3968
  493MOL0     C64964   3.552   2.957   7.045  0.7172  0.3029 -0.3084
  493MOL0     C64965   3.417   2.995   6.987  0.7176 -0.6451  0.5850
  493MOL0     C64966   3.463   3.072   6.860  1.1340  0.6444 -0.4026
  493MOL0     C64967   3.332   3.128   6.783 -0.0666 -0.0019  0.5418
  493MOL0     O64968   3.244   3.022   6.733  0.1428  0.0037  0.0604
  493MOL0     C64969   3.139   3.057   6.652  0.0545 -0.3079 -0.8275
  493MOL0     C64970   3.104   3.186   6.605 -0.8762 -0.2836 -0.8844
  493MOL0     C64971   2.992   3.209   6.516 -0.8143 -0.6790  0.1253
  493MOL0     C64972   2.913   3.094   6.476  0.3735 -0.6226 -0.7117
  493MOL0     C64973   2.802   3.117   6.389  0.2341  0.3692  1.2171
  493MOL0     O64974   2.751   3.237   6.356  0.1802 -0.3472  0.3178
  493MOL0     C64975   2.646   3.243   6.273 -0.1152 -0.0042  0.3867
  493MOL0     C64976   2.527   3.301   6.319  0.1171  0.6004 -0.0252
  493MOL0     C64977   2.419   3.311   6.225 -0.6771  0.1723 -0.1724
  493MOL0     C64978   2.423   3.258   6.093  0.3122 -0.2971 -0.4754
  493MOL0     O64979   2.318   3.258   6.009  0.4773  0.4839  0.0937
  493MOL0     C64980   2.217   3.161   6.036  0.1887 -0.0882  0.4304
  493MOL0     C64981   2.113   3.203   6.150  0.4780 -0.7962  0.6669
  493MOL0     C64982   2.065   3.350   6.120  0.2350  0.5954 -0.0754
  493MOL0     C64983   1.987   3.369   5.992 -1.2508 -0.4432 -0.6662
  493MOL0     C64984   1.936   3.509   6.001  0.1468 -0.7188  0.3247
  493MOL0     C64985   1.806   3.517   6.086  0.3097 -0.2418 -0.0361
  493MOL0     C64986   1.713   3.639   6.039  0.9382  0.6107 -1.1909
  493MOL0     C64987   1.772   3.776   6.067 -0.6032  0.4124  0.6355
  493MOL0    Cl64988   1.774   3.785   6.249  0.1353  0.1972 -0.2445
  493MOL0     C64989   2.540   3.199   6.053  0.1356  0.4185 -0.0999
  493MOL0     C64990   2.652   3.194   6.141 -0.5865 -0.5013 -0.2015
  493MOL0     O64991   2.776   3.011   6.332  0.9948 -0.0250  0.4652
  493MOL0     C64992   2.937   2.968   6.544  0.3698  0.0377  0.2519
  493MOL0     C64993   3.045   2.952   6.626 -0.1507  0.2348 -0.4510
  493MOL0     N64994   3.441   2.907   7.279 -0.8164  0.0411  0.2596
  493MOL0     N64995   3.461   2.825   7.371 -0.5217 -0.1521  0.1954
  493MOL0     C64996   4.637   3.140   7.720  0.7925 -0.9709 -0.0661
  493MOL0     C64997   4.742   3.167   7.801 -0.2316  1.0318 -0.4056
  493MOL0     C64998   5.177   3.156   7.959  0.6408  0.4600 -0.5087
  493MOL0     C64999   5.158   3.131   8.089  0.2673  0.3012 -0.2826
  493MOL0     C65000   5.260   3.133   8.188 -0.5063 -1.2700  0.0677
  493MOL0     C65001   5.394   3.148   8.143  0.0916 -0.9894 -0.2666
  493MOL0     O65002   5.509   3.142   8.215 -0.3085  0.1387  0.3369
  493MOL0     C65003   5.502   3.135   8.358  0.5776  0.6063 -0.1371
  493MOL0     C65004   5.636   3.140   8.409  1.1384  0.6415  0.4305
  493MOL0     C65005   5.674   3.115   8.553 -0.9329  0.5160 -0.4378
  493MOL0     C65006   5.822   3.143   8.602 -1.2533  0.2510 -0.5298
  493MOL0     C65007   5.929   3.069   8.531  0.6417  0.8783  0.6338
  493MOL0     C65008   6.000   3.002   8.462 -0.5404  0.9845 -1.1223
  493MOL0     C65009   5.417   3.167   8.005  0.1557 -1.5048 -0.3163
  493MOL0     C65010   5.315   3.161   7.912  0.5287 -0.2292  0.1429
  493MOL0     H65011   4.946   2.919   7.697  0.9586  1.2045 -0.0069
  493MOL0     H65012   4.778   2.888   7.541  1.1096  0.1814 -1.5391
  493MOL0     H65013   4.382   3.119   7.620  1.0636 -0.1895  0.0532
  493MOL0     H65014   4.416   2.958   7.688  2.6584  2.1597  1.1159
  493MOL0     H65015   4.346   2.863   7.481  2.0683  0.7678  1.4932
  493MOL0     H65016   4.275   3.025   7.428 -3.7581 -0.5744  1.0722
  493MOL0     H65017   4.141   3.029   7.638 -1.1395  0.3566 -0.7266
  493MOL0     H65018   4.181   2.859   7.656 -1.8029 -1.4495 -1.5506
  493MOL0     H65019   4.065   2.950   7.403 -0.7982 -0.4621 -1.7440
  493MOL0     H65020   4.111   2.789   7.448 -0.0776 -0.1684 -0.3713
  493MOL0     H65021   3.920   2.928   7.636 -1.1896  0.2246 -1.1602
  493MOL0     H65022   3.983   2.765   7.637 -1.6490 -0.5027  0.7287
  493MOL0     H65023   3.880   2.748   7.394  1.9921 -0.2915  2.0616
  493MOL0     H65024   3.793   2.898   7.434 -1.4572 -0.7856  0.0879
  493MOL0     H65025   3.775   2.620   7.578 -0.6955 -1.1161 -1.1085
  493MOL0     H65026   3.679   2.770   7.619  1.0493 -0.4305  1.3686
  493MOL0     H65027   3.542   2.621   7.501 -2.0463  1.4389 -0.6638
  493MOL0     H65028   3.676   2.576   7.379  1.1636  2.3351 -1.9787
  493MOL0     H65029   3.704   2.755   7.162  2.6674  2.4986  1.2472
  493MOL0     H65030   3.614   2.902   6.973  0.3443 -0.5796  0.0342
  493MOL0     H65031   3.611   3.045   7.074 -2.3097  2.4408 -0.1089
  493MOL0     H65032   3.365   3.065   7.053  2.1349  0.9218  0.0899
  493MOL0     H65033   3.361   2.904   6.960  2.4158 -2.2544  2.2085
  493MOL0     H65034   3.515   3.160   6.899  0.3630 -0.7639  4.6212
  493MOL0     H65035   3.519   3.004   6.796  1.5068 -0.7021  1.2847
  493MOL0     H65036   3.370   3.183   6.697 -0.6990 -1.3794 -0.6706
  493MOL0     H65037   3.279   3.204   6.841  1.5041 -0.0279  2.1302
  493MOL0     H65038   3.173   3.269   6.617 -2.0626  0.5275  0.6689
  493MOL0     H65039   2.966   3.306   6.476  0.6711 -0.8080 -1.2556
  493MOL0     H65040   2.523   3.339   6.421  1.5148  2.9797 -0.7858
  493MOL0     H65041   2.325   3.360   6.249 -2.6685 -2.3055 -2.3619
  493MOL0     H65042   2.272   3.070   6.062 -1.8527 -1.7325 -0.6819
  493MOL0     H65043   2.160   3.141   5.945 -1.1279  0.1697  1.1696
  493MOL0     H65044   2.157   3.196   6.250 -0.0585  0.3873  0.9976
  493MOL0     H65045   2.032   3.130   6.148  0.5250 -0.8354 -0.3068
  493MOL0     H65046   2.151   3.417   6.113  0.3134  0.3711 -1.4132
  493MOL0     H65047   2.005   3.373   6.209 -1.2028  0.4228 -0.9802
  493MOL0     H65048   2.063   3.371   5.913  1.2345 -1.2831  1.5487
  493MOL0     H65049   1.911   3.295   5.964 -0.2392 -2.5145  1.6666
  493MOL0     H65050   1.912   3.541   5.899 -0.0219 -0.7172  0.3653
  493MOL0     H65051   2.014   3.578   6.036 -1.6449  2.0583 -0.8785
  493MOL0     H65052   1.827   3.535   6.192 -0.0156  0.7473 -0.1296
  493MOL0     H65053   1.745   3.427   6.082  0.1527 -0.1977  1.0318
  493MOL0     H65054   1.701   3.623   5.931 -0.8867 -0.7575 -0.8372
  493MOL0     H65055   1.615   3.623   6.085  0.9851  1.4829 -0.7668
  493MOL0     H65056   1.714   3.862   6.032  0.1145  0.8583  0.5265
  493MOL0     H65057   1.871   3.776   6.021 -1.3493 -1.7217 -1.1235
  493MOL0     H65058   2.546   3.141   5.961 -0.7862  1.6756 -0.9714
  493MOL0     H65059   2.749   3.154   6.112  0.4275  0.2324  1.9884
  493MOL0     H65060   2.890   2.876   6.513  1.0735 -0.4804  0.6858
  493MOL0     H65061   3.067   2.858   6.676 -0.6809 -0.0896 -0.8184
  493MOL0     H65062   4.549   3.203   7.728  0.6939 -1.0398 -0.5519
  493MOL0     H65063   4.739   3.248   7.873  1.4883  1.8179 -1.1656
  493MOL0     H65064   5.057   3.114   8.123 -0.0021  2.4256  0.1475
  493MOL0     H65065   5.234   3.114   8.292 -0.7012  0.3968  0.3513
  493MOL0     H65066   5.461   3.036   8.377 -2.0086  2.0728  2.7165
  493MOL0     H65067   5.445   3.220   8.397  1.2659  1.7480 -1.5155
  493MOL0     H65068   5.700   3.073   8.351  1.0353  0.0449  0.9886
  493MOL0     H65069   5.665   3.244   8.389 -1.0784  1.3097  0.5092
  493MOL0     H65070   5.650   3.013   8.581  0.9890  0.3885  0.9140
  493MOL0     H65071   5.616   3.178   8.622  0.9553  0.2130  1.5214
  493MOL0     H65072   5.835   3.251   8.597 -3.3586  0.5540 -0.3898
  493MOL0     H65073   5.821   3.117   8.708 -0.0448  0.8277 -0.3595
  493MOL0     H65074   6.064   2.943   8.399 -0.6378 -2.1688  1.4299
  493MOL0     H65075   5.520   3.185   7.978 -0.2303  0.4412 -0.6574
  493MOL0     H65076   5.347   3.176   7.810  0.1534  1.5278  0.2524
  494MOL0     O65077   4.200  11.024   2.689 -0.2260  0.3214 -0.1251
  494MOL0     C65078   4.264  10.988   2.789 -0.7744  0.0310  1.2795
  494MOL0     O65079   4.212  10.961   2.909 -0.7017 -0.3280  0.2191
  494MOL0     C65080   4.079  10.968   2.942 -0.2588  0.1517 -0.3743
  494MOL0     C65081   4.038  11.038   3.055 -0.1675  0.4810 -0.1721
  494MOL0     C65082   3.904  11.037   3.084 -0.1317 -0.3080 -0.0369
  494MOL0     C65083   3.809  10.960   3.019  0.8261  0.2801 -0.7392
  494MOL0     O65084   3.679  10.986   3.053 -0.3131  0.4191  0.2881
  494MOL0     C65085   3.579  10.897   2.995  0.5297 -0.7900 -0.6068
  494MOL0     C65086   3.438  10.944   3.035 -0.0113  0.2801  0.2373
  494MOL0     C65087   3.417  11.097   3.052  0.2317  0.5276  0.3422
  494MOL0     C65088   3.266  11.146   3.071  0.0594  0.5638  0.0425
  494MOL0     C65089   3.266  11.277   3.132 -0.1596 -0.2528  0.3568
  494MOL0     C65090   3.147  11.364   3.100  0.1181 -0.5950 -0.9353
  494MOL0     C65091   3.178  11.512   3.130  0.1927  0.7564  0.6899
  494MOL0     C65092   3.224  11.543   3.265  0.2536  0.7728  0.3621
  494MOL0     N65093   3.145  11.512   3.386  0.0203  0.0567  0.5850
  494MOL0     C65094   3.028  11.576   3.422  0.0275 -0.0847  0.5178
  494MOL0     C65095   2.983  11.509   3.534  0.1755 -0.2265  0.4119
  494MOL0     C65096   2.878  11.564   3.618 -0.2834 -0.4380 -0.3210
  494MOL0     C65097   2.744  11.498   3.580 -0.0288 -0.3266 -0.3452
  494MOL0     C65098   2.627  11.539   3.659  0.1572 -0.1372 -0.4332
  494MOL0     C65099   2.502  11.489   3.589  0.6802 -0.0603 -0.3017
  494MOL0     O65100   2.496  11.518   3.453  0.0138 -0.0622 -0.4748
  494MOL0     C65101   2.381  11.475   3.380  0.9813 -0.0787 -0.3327
  494MOL0     C65102   2.275  11.405   3.447 -0.6415  0.1121  0.0884
  494MOL0     C65103   2.155  11.380   3.385  0.7556 -0.4431  0.8015
  494MOL0     C65104   2.140  11.402   3.243  0.2724  0.3570  0.3496
  494MOL0     C65105   2.011  11.366   3.178 -0.1884  0.5990 -0.7663
  494MOL0     O65106   1.963  11.453   3.083  0.9385 -0.0786 -0.7552
  494MOL0     C65107   1.851  11.428   3.017  0.5190  1.1759  0.5906
  494MOL0     C65108   1.771  11.529   2.997  0.6423 -0.2795  0.8582
  494MOL0     C65109   1.648  11.506   2.935 -0.3682 -0.3094  0.6140
  494MOL0     C65110   1.608  11.378   2.906  0.0095 -0.2770 -1.0971
  494MOL0     O65111   1.478  11.372   2.862 -0.5163  0.4255  0.6315
  494MOL0     C65112   1.430  11.247   2.813  0.4112  0.1937  0.3231
  494MOL0     C65113   1.288  11.273   2.780  0.2486  0.1394 -0.9548
  494MOL0     C65114   1.237  11.148   2.706 -0.0194 -0.1977  0.6040
  494MOL0     C65115   1.112  11.173   2.623 -0.3428 -0.1921 -0.0118
  494MOL0     C65116   1.053  11.048   2.540  0.6412  0.4255 -0.3845
  494MOL0     C65117   1.039  10.911   2.624  0.1917  0.0419 -0.4296
  494MOL0     C65118   0.952  10.929   2.750  0.4292 -0.4059  0.4696
  494MOL0     C65119   0.851  10.812   2.770  0.3961  0.8291 -0.1791
  494MOL0    Cl65120   0.723  10.789   2.649 -0.1647 -0.2966  0.0739
  494MOL0     C65121   1.696  11.267   2.926  0.1540  0.2421 -0.3212
  494MOL0     C65122   1.817  11.300   2.972  0.3045 -1.2593 -0.6088
  494MOL0     O65123   1.957  11.267   3.221 -0.4118  0.1300  0.0765
  494MOL0     C65124   2.251  11.456   3.178  1.1952 -0.1221  0.9785
  494MOL0     C65125   2.362  11.499   3.247 -0.3578  0.5790 -0.7111
  494MOL0     N65126   3.069  11.403   3.562 -0.2178 -0.0885 -0.1623
  494MOL0     N65127   3.162  11.404   3.469  0.2814 -0.2028 -0.8692
  494MOL0     C65128   3.855  10.881   2.913  0.5921 -0.1135 -0.0960
  494MOL0     C65129   3.989  10.875   2.881  0.8799 -0.4721 -0.1045
  494MOL0     C65130   4.411  10.957   2.773  0.1459  0.6572  0.4537
  494MOL0     C65131   4.461  10.939   2.644 -0.7801  0.6180 -0.1772
  494MOL0     C65132   4.601  10.936   2.624 -0.2321 -0.2669 -0.4753
  494MOL0     C65133   4.687  10.932   2.732 -0.5991 -1.2218 -0.0003
  494MOL0     O65134   4.816  10.915   2.716  0.0907  0.1313  0.3600
  494MOL0     C65135   4.864  10.790   2.667 -0.3163 -0.5582 -0.6040
  494MOL0     C65136   5.011  10.769   2.696 -0.1800 -0.1664 -0.1397
  494MOL0     C65137   5.117  10.840   2.609 -0.2416 -0.3383 -0.9244
  494MOL0     C65138   5.260  10.831   2.675  0.8600 -1.0682  0.8679
  494MOL0     C65139   5.352  10.920   2.605 -0.2034  0.2771 -0.9280
  494MOL0     C65140   5.426  10.986   2.541  0.4935 -0.6060  0.2141
  494MOL0     C65141   4.637  10.935   2.859 -0.2835 -0.4152  0.3441
  494MOL0     C65142   4.501  10.948   2.880  0.2761 -0.7507 -0.3089
  494MOL0     H65143   4.114  11.106   3.091 -0.6529  2.2060 -2.2204
  494MOL0     H65144   3.866  11.106   3.158  1.5819 -2.0479  2.6665
  494MOL0     H65145   3.580  10.794   3.032 -1.1780 -0.4674  0.4692
  494MOL0     H65146   3.577  10.896   2.886  0.3124 -1.8401 -0.6028
  494MOL0     H65147   3.402  10.908   3.132 -1.2062  0.1323 -0.2418
  494MOL0     H65148   3.361  10.906   2.967 -1.0313 -1.4097  2.2125
  494MOL0     H65149   3.464  11.148   2.968 -2.2780 -0.4399 -1.7606
  494MOL0     H65150   3.473  11.120   3.144  1.5215 -3.1384  0.6530
  494MOL0     H65151   3.226  11.142   2.970 -0.4887  0.0005  0.2760
  494MOL0     H65152   3.206  11.083   3.138 -0.7586  3.5727  2.3992
  494MOL0     H65153   3.355  11.326   3.091 -1.2436 -0.0773 -1.9774
  494MOL0     H65154   3.281  11.253   3.237  1.9588 -0.3451  0.0855
  494MOL0     H65155   3.063  11.320   3.155  0.8051  0.9766  1.5721
  494MOL0     H65156   3.123  11.357   2.994 -1.7975  0.5028 -0.6271
  494MOL0     H65157   3.252  11.544   3.057 -1.7246 -1.1896 -2.3304
  494MOL0     H65158   3.086  11.561   3.098 -1.3986 -2.0936  0.5366
  494MOL0     H65159   3.245  11.650   3.271 -0.2385  0.9179 -0.4168
  494MOL0     H65160   3.319  11.493   3.287  0.7435  2.5099  2.6456
  494MOL0     H65161   2.981  11.668   3.391 -0.0167 -1.1764 -3.1474
  494MOL0     H65162   2.872  11.671   3.597 -0.2638 -1.0897 -4.4564
  494MOL0     H65163   2.907  11.546   3.722  0.7141 -0.8921 -0.6666
  494MOL0     H65164   2.760  11.390   3.591 -0.0161 -0.4500 -1.4146
  494MOL0     H65165   2.745  11.508   3.471  3.6683 -3.4231 -0.8309
  494MOL0     H65166   2.635  11.495   3.759  1.2340  0.8827 -0.0516
  494MOL0     H65167   2.614  11.646   3.676  0.3810  0.2448 -2.3978
  494MOL0     H65168   2.417  11.527   3.646  2.2006  1.2632  1.1879
  494MOL0     H65169   2.503  11.381   3.603  2.1213  0.1801  2.0541
  494MOL0     H65170   2.282  11.378   3.552  0.9729  1.1326  0.2754
  494MOL0     H65171   2.072  11.346   3.446  0.1521  1.7889  1.3181
  494MOL0     H65172   1.801  11.632   3.017 -0.4722  0.2001  0.1579
  494MOL0     H65173   1.574  11.579   2.904 -0.5033 -0.9043 -0.5147
  494MOL0     H65174   1.432  11.162   2.882 -1.3380 -0.1170  0.0294
  494MOL0     H65175   1.480  11.224   2.718 -2.0891 -0.1964 -0.9700
  494MOL0     H65176   1.273  11.368   2.728 -1.7694  0.3516 -0.0807
  494MOL0     H65177   1.226  11.292   2.868  0.7994  0.1232 -0.5544
  494MOL0     H65178   1.240  11.057   2.767  2.3269 -0.3806  0.3221
  494MOL0     H65179   1.312  11.105   2.638  0.4013 -0.9428  1.5235
  494MOL0     H65180   1.037  11.213   2.691  0.5175 -1.1487  1.5719
  494MOL0     H65181   1.133  11.257   2.556  3.4410 -2.5026 -2.0761
  494MOL0     H65182   1.118  11.017   2.458  0.8555  0.3108 -0.1730
  494MOL0     H65183   0.964  11.080   2.486  0.8160 -0.3700 -1.1603
  494MOL0     H65184   1.138  10.872   2.652  0.5818  0.3999 -1.2789
  494MOL0     H65185   0.999  10.832   2.562  1.1878 -0.7258 -0.1241
  494MOL0     H65186   1.021  10.945   2.833 -0.1425  2.9438  0.4548
  494MOL0     H65187   0.904  11.028   2.746 -0.1422 -0.6699  0.6288
  494MOL0     H65188   0.802  10.822   2.868 -0.3119  1.3425 -0.5824
  494MOL0     H65189   0.916  10.725   2.781  1.4238  1.6533  0.4706
  494MOL0     H65190   1.681  11.172   2.877  0.4467  0.9646 -1.8880
  494MOL0     H65191   1.899  11.229   2.975  2.1051  0.6862 -0.9985
  494MOL0     H65192   2.249  11.473   3.071  3.5761  0.0773  0.9235
  494MOL0     H65193   2.434  11.555   3.188  2.3524 -3.6415 -1.8369
  494MOL0     H65194   3.782  10.814   2.869 -0.8793 -2.8889  5.5395
  494MOL0     H65195   4.027  10.815   2.799  1.1935  0.4118 -0.6267
  494MOL0     H65196   4.405  10.940   2.552  0.5254 -1.1273 -1.0534
  494MOL0     H65197   4.630  10.937   2.519  0.2900  0.9843 -0.3397
  494MOL0     H65198   4.849  10.781   2.559 -1.5938 -0.6092 -0.4413
  494MOL0     H65199   4.808  10.704   2.705 -2.3933  1.2084  0.5545
  494MOL0     H65200   5.029  10.798   2.799 -0.3745 -3.4765  0.9532
  494MOL0     H65201   5.023  10.660   2.689  0.7815 -0.0628 -0.2215
  494MOL0     H65202   5.098  10.948   2.601  1.2915  0.0857  0.5538
  494MOL0     H65203   5.116  10.799   2.507  0.2597 -1.3033 -0.5503
  494MOL0     H65204   5.253  10.876   2.775 -0.1600  0.8105 -0.0068
  494MOL0     H65205   5.290  10.727   2.691  1.6965 -1.0163 -0.2994
  494MOL0     H65206   5.492  11.052   2.489  1.3154 -1.0791  0.6419
  494MOL0     H65207   4.700  10.936   2.947  1.5455  1.2981 -0.8973
  494MOL0     H65208   4.466  10.947   2.983 -2.4413  1.3668 -1.1190
  495MOL0     O65209   1.930   0.738   6.373  0.3708  0.2552 -0.5737
  495MOL0     C65210   1.984   0.846   6.342 -0.5553  0.1401  0.4908
  495MOL0     O65211   1.929   0.962   6.306  0.4955  0.0711  0.2656
  495MOL0     C65212   1.797   0.975   6.304  0.3851 -0.0939 -0.9022
  495MOL0     C65213   1.758   1.106   6.327 -0.4089  1.2238 -0.1431
  495MOL0     C65214   1.624   1.140   6.341 -0.8688 -0.6350  0.3360
  495MOL0     C65215   1.522   1.040   6.328 -0.3066  0.3554 -0.6271
  495MOL0     O65216   1.394   1.086   6.346  0.1625  0.1321  0.3736
  495MOL0     C65217   1.312   1.013   6.443  0.3099  0.2583 -0.6520
  495MOL0     C65218   1.192   1.101   6.473 -0.4087 -0.2861  0.8756
  495MOL0     C65219   1.099   1.026   6.560 -0.6772  0.6967 -0.6122
  495MOL0     C65220   0.984   1.114   6.623  0.5281 -0.2277  0.6090
  495MOL0     C65221   0.906   1.023   6.719  0.7774  0.0752  0.8759
  495MOL0     C65222   0.826   0.898   6.649  0.8366  0.2305 -0.6857
  495MOL0     C65223   0.748   0.814   6.742 -0.2949  0.5943  0.3556
  495MOL0     C65224   0.680   0.701   6.652  0.1314  0.0687 -0.4178
  495MOL0     N65225   0.591   0.619   6.733  0.2717 -0.2375  0.2528
  495MOL0     C65226   0.604   0.486   6.747 -0.5166  0.0977  0.4434
  495MOL0     C65227   0.493   0.435   6.794  0.4517 -1.1144 -0.6151
  495MOL0     C65228   0.455   0.286   6.823 -0.9152  0.5631 -0.7552
  495MOL0     C65229   0.404   0.236   6.688  0.6116  0.0674  0.7177
  495MOL0     C65230   0.336   0.099   6.700 -0.4444  0.0327 -0.3120
  495MOL0     C65231   0.299   0.047   6.562 -0.3660  0.8469  0.6718
  495MOL0     O65232   0.247  -0.088   6.562 -0.2718  0.0574 -0.2212
  495MOL0     C65233   0.114  -0.123   6.576 -0.5255 -0.3000 -0.9896
  495MOL0     C65234   0.104  -0.255   6.607  0.1340  0.4947 -0.1613
  495MOL0     C65235  -0.022  -0.310   6.636  0.5945  0.4816  0.7678
  495MOL0     C65236  -0.138  -0.229   6.612 -0.8386 -0.8832  0.1210
  495MOL0     C65237  -0.276  -0.285   6.618 -0.3725  0.2759 -0.2572
  495MOL0     O65238  -0.383  -0.203   6.601 -0.0428 -0.6458 -0.4441
  495MOL0     C65239  -0.494  -0.263   6.568  0.3120 -0.2031 -0.6061
  495MOL0     C65240  -0.584  -0.295   6.670  0.6601 -0.5022 -0.2622
  495MOL0     C65241  -0.696  -0.377   6.644  0.0278  0.1882  0.4017
  495MOL0     C65242  -0.730  -0.409   6.512 -0.9186  0.0180 -0.3308
  495MOL0     O65243  -0.842  -0.477   6.479 -0.0575 -0.3297 -0.5702
  495MOL0     C65244  -0.953  -0.477   6.561 -0.1419  0.2640  0.3675
  495MOL0     C65245  -1.076  -0.535   6.479 -0.2567 -1.2190 -0.5341
  495MOL0     C65246  -1.115  -0.453   6.356 -0.0795  0.3412 -0.1564
  495MOL0     C65247  -1.247  -0.510   6.290  0.3079 -0.3781 -0.5301
  495MOL0     C65248  -1.301  -0.396   6.194  0.1817  1.5781  0.5725
  495MOL0     C65249  -1.351  -0.275   6.273 -0.7461 -0.3889  0.1509
  495MOL0     C65250  -1.497  -0.279   6.312  0.1681  0.2211  0.2772
  495MOL0     C65251  -1.541  -0.164   6.402  0.0220 -0.0393  0.2592
  495MOL0    Cl65252  -1.483  -0.192   6.567  0.1006 -0.0828  0.1805
  495MOL0     C65253  -0.639  -0.367   6.402 -0.3508  0.4681 -0.3717
  495MOL0     C65254  -0.529  -0.294   6.436  0.5048  0.1558  0.4151
  495MOL0     O65255  -0.289  -0.405   6.642 -0.7654  1.0309 -0.4366
  495MOL0     C65256  -0.120  -0.090   6.568  0.4439  0.4433  0.1861
  495MOL0     C65257   0.012  -0.041   6.570  1.2124  0.2543  0.0424
  495MOL0     N65258   0.404   0.548   6.810 -0.2435  0.8122 -0.6002
  495MOL0     N65259   0.462   0.655   6.769  0.4242 -1.2145 -0.3732
  495MOL0     C65260   1.553   0.907   6.299  0.1327  0.5619 -0.8824
  495MOL0     C65261   1.694   0.877   6.289  0.2164 -0.4953  0.1758
  495MOL0     C65262   2.130   0.839   6.329 -0.1647  0.0591 -0.1882
  495MOL0     C65263   2.206   0.941   6.273  0.0419 -0.4059 -0.3634
  495MOL0     C65264   2.348   0.931   6.262  0.0158 -0.4791 -0.2960
  495MOL0     C65265   2.412   0.812   6.285 -0.0872  0.7596 -0.5716
  495MOL0     O65266   2.544   0.785   6.272  0.1330 -0.7494 -0.6733
  495MOL0     C65267   2.642   0.886   6.248  0.0909  0.4035  0.2057
  495MOL0     C65268   2.782   0.825   6.272 -0.9035 -0.1626  0.6689
  495MOL0     C65269   2.895   0.923   6.240 -0.0492 -0.0057  0.4540
  495MOL0     C65270   3.026   0.886   6.304  0.8616 -0.5111 -0.0979
  495MOL0     C65271   3.132   0.980   6.267  0.9169 -1.3359 -0.3179
  495MOL0     C65272   3.222   1.058   6.252 -0.1516 -0.6583 -0.5786
  495MOL0     C65273   2.332   0.711   6.344  0.6533  0.9881 -1.3105
  495MOL0     C65274   2.199   0.725   6.366 -0.4655  0.2498 -0.0415
  495MOL0     H65275   1.841   1.173   6.346 -0.1763  0.6877  0.7954
  495MOL0     H65276   1.599   1.238   6.381  0.9714 -0.8067  2.0543
  495MOL0     H65277   1.364   0.983   6.535 -0.6653  0.2121 -0.1110
  495MOL0     H65278   1.274   0.920   6.399  0.1288 -0.9290  1.8641
  495MOL0     H65279   1.150   1.133   6.378 -0.7149  0.2775  1.1917
  495MOL0     H65280   1.219   1.188   6.535  1.8884  0.0530 -0.5180
  495MOL0     H65281   1.153   0.980   6.643 -2.7975  0.6228  0.8061
  495MOL0     H65282   1.055   0.945   6.501  2.0154 -4.0709  3.2766
  495MOL0     H65283   1.032   1.196   6.677  1.0424  0.7165 -1.1834
  495MOL0     H65284   0.928   1.156   6.538  3.3992  1.8243 -0.4200
  495MOL0     H65285   0.829   1.089   6.759  3.3123  3.3201  0.7642
  495MOL0     H65286   0.970   0.984   6.799  0.3998 -3.1481 -0.2437
  495MOL0     H65287   0.899   0.835   6.599  1.3526  0.0154  0.3152
  495MOL0     H65288   0.762   0.935   6.568 -0.2007 -3.8700 -1.9422
  495MOL0     H65289   0.815   0.772   6.817  0.7583 -0.7236 -1.2389
  495MOL0     H65290   0.671   0.874   6.791 -0.5837  1.3846 -0.9971
  495MOL0     H65291   0.756   0.637   6.605  0.3486 -0.0789  0.1334
  495MOL0     H65292   0.622   0.739   6.568  0.4791 -1.0741 -1.2059
  495MOL0     H65293   0.685   0.424   6.712 -0.8645  0.8770 -1.9404
  495MOL0     H65294   0.379   0.275   6.901  0.4556  1.7829  0.8304
  495MOL0     H65295   0.549   0.239   6.855 -1.3456  0.2914  0.1227
  495MOL0     H65296   0.487   0.231   6.617 -1.4402  0.5731 -1.8939
  495MOL0     H65297   0.340   0.318   6.652  1.4981  1.2349  1.7396
  495MOL0     H65298   0.399   0.025   6.750  1.4305  1.7371 -0.0521
  495MOL0     H65299   0.246   0.113   6.761  1.1280  0.5219  2.0285
  495MOL0     H65300   0.391   0.042   6.504  1.3029 -0.1267  3.2139
  495MOL0     H65301   0.239   0.116   6.501 -0.1901  0.4930  0.0986
  495MOL0     H65302   0.189  -0.321   6.622 -0.9042 -0.7442  0.4354
  495MOL0     H65303  -0.040  -0.411   6.671  0.5013  0.6314  1.1611
  495MOL0     H65304  -0.555  -0.264   6.770 -0.5937 -2.3408  0.7227
  495MOL0     H65305  -0.755  -0.394   6.733  1.8334 -0.3023  1.5626
  495MOL0     H65306  -0.988  -0.377   6.589  0.0649  0.4271  0.0424
  495MOL0     H65307  -0.941  -0.539   6.650 -1.3729 -1.4438 -0.5997
  495MOL0     H65308  -1.164  -0.536   6.545 -1.2947  1.1005 -1.7525
  495MOL0     H65309  -1.055  -0.635   6.439 -0.9222 -1.5156 -0.1568
  495MOL0     H65310  -1.033  -0.458   6.282 -0.5805 -1.2699 -0.6346
  495MOL0     H65311  -1.133  -0.354   6.400  1.8353  0.7889 -0.2733
  495MOL0     H65312  -1.227  -0.599   6.230  0.4492 -0.3127 -0.5801
  495MOL0     H65313  -1.323  -0.530   6.366 -1.7512  0.2528 -2.3145
  495MOL0     H65314  -1.382  -0.450   6.144  1.5585 -1.2491  1.1777
  495MOL0     H65315  -1.229  -0.356   6.123  0.6191  1.3275  0.8702
  495MOL0     H65316  -1.338  -0.186   6.212  0.5201  0.4691  1.5935
  495MOL0     H65317  -1.290  -0.239   6.357  0.7438  1.4882 -1.6147
  495MOL0     H65318  -1.556  -0.278   6.220  1.4567  0.3707 -0.5814
  495MOL0     H65319  -1.520  -0.377   6.354 -0.7220  0.0809 -0.5164
  495MOL0     H65320  -1.649  -0.147   6.405  0.1657  1.7345 -2.2379
  495MOL0     H65321  -1.501  -0.071   6.362 -2.3492  2.6343  3.5689
  495MOL0     H65322  -0.665  -0.397   6.301  0.3416 -0.5918 -0.2543
  495MOL0     H65323  -0.473  -0.258   6.351 -0.9023 -1.2981 -1.1858
  495MOL0     H65324  -0.194  -0.012   6.551  1.1930  0.9351 -0.9362
  495MOL0     H65325   0.015   0.061   6.534  1.6966  0.0526 -0.5115
  495MOL0     H65326   1.474   0.833   6.288 -2.0096  2.3492  1.4231
  495MOL0     H65327   1.720   0.774   6.267 -0.0213 -0.0665 -2.3299
  495MOL0     H65328   2.155   1.035   6.259  1.5241  0.6826  1.2053
  495MOL0     H65329   2.407   1.013   6.224  1.6918 -1.2866  0.4854
  495MOL0     H65330   2.627   0.966   6.320  1.0517 -1.4283  2.5531
  495MOL0     H65331   2.621   0.928   6.149 -5.2500 -0.1805  0.7978
  495MOL0     H65332   2.793   0.785   6.373 -3.0065 -2.3680  0.1169
  495MOL0     H65333   2.798   0.745   6.200  0.1252  1.1683 -0.6346
  495MOL0     H65334   2.857   1.022   6.265 -4.4960 -1.3761 -0.0477
  495MOL0     H65335   2.908   0.932   6.132  0.0360 -1.9179  0.2652
  495MOL0     H65336   3.011   0.897   6.412 -2.1278 -3.1444 -0.1132
  495MOL0     H65337   3.052   0.783   6.280 -0.6094 -0.5071 -1.9014
  495MOL0     H65338   3.311   1.113   6.233 -2.0523  2.8000 -0.3263
  495MOL0     H65339   2.384   0.621   6.376  0.6318  1.0226 -1.1763
  495MOL0     H65340   2.139   0.640   6.397  0.4937 -0.1592  0.7067
  496MOL0     O65341   3.156   8.678   6.562  0.6410  0.0371 -0.1318
  496MOL0     C65342   3.279   8.692   6.584 -0.0569 -1.2748 -0.8059
  496MOL0     O65343   3.382   8.638   6.512 -1.1094  0.4075 -0.4824
  496MOL0     C65344   3.344   8.539   6.432 -0.1760 -0.0074  0.4775
  496MOL0     C65345   3.376   8.409   6.465 -1.2341 -0.4646 -0.6739
  496MOL0     C65346   3.345   8.300   6.385  0.0047  0.3805 -0.9033
  496MOL0     C65347   3.272   8.323   6.272 -0.0196  0.4200 -0.3198
  496MOL0     O65348   3.241   8.204   6.202 -0.1161 -0.1770  0.5428
  496MOL0     C65349   3.279   8.075   6.247 -0.3677 -0.5279 -0.1103
  496MOL0     C65350   3.219   7.972   6.153  0.3010  0.0906  0.2063
  496MOL0     C65351   3.077   7.938   6.207  0.0758  0.0354  0.6976
  496MOL0     C65352   2.983   7.876   6.096  0.3891 -0.1948 -0.1571
  496MOL0     C65353   2.837   7.857   6.142 -0.7816  0.2014  0.1803
  496MOL0     C65354   2.772   7.753   6.051 -0.9418  0.3089 -0.1052
  496MOL0     C65355   2.622   7.763   6.069 -0.3473 -0.7935 -0.1998
  496MOL0     C65356   2.565   7.670   5.954 -0.8674  0.1313  0.1709
  496MOL0     N65357   2.424   7.644   5.970  0.4919  0.3678  1.0159
  496MOL0     C65358   2.368   7.614   6.098  0.0067  0.0120  0.3361
  496MOL0     C65359   2.234   7.630   6.077 -0.3040 -0.6827 -0.5091
  496MOL0     C65360   2.129   7.605   6.185 -0.2445  0.3792  0.2755
  496MOL0     C65361   2.053   7.483   6.139  0.6167  0.0668 -0.3365
  496MOL0     C65362   1.926   7.442   6.207  0.6993 -0.4866 -0.2679
  496MOL0     C65363   1.803   7.530   6.182  0.4670 -0.5412  0.3292
  496MOL0     O65364   1.753   7.512   6.053  0.3783  0.2757  0.4704
  496MOL0     C65365   1.651   7.597   6.003 -0.0888 -0.3223  0.1655
  496MOL0     C65366   1.629   7.600   5.861  0.0703 -0.4657 -0.7794
  496MOL0     C65367   1.526   7.681   5.810 -0.8594 -0.0076 -0.1552
  496MOL0     C65368   1.437   7.756   5.889  0.4919 -1.3195  0.6596
  496MOL0     C65369   1.328   7.841   5.829 -0.0560  0.3618  0.7737
  496MOL0     O65370   1.332   7.853   5.694 -0.2941  0.9153 -0.1037
  496MOL0     C65371   1.258   7.940   5.619 -0.3759 -0.0937 -1.2747
  496MOL0     C65372   1.217   8.072   5.649 -0.7936 -0.8692 -0.4827
  496MOL0     C65373   1.130   8.149   5.559 -0.0358  0.0492  0.1445
  496MOL0     C65374   1.081   8.092   5.443 -0.0265 -0.7537 -0.8800
  496MOL0     O65375   0.985   8.164   5.374  0.2364  0.1650  0.4672
  496MOL0     C65376   0.973   8.124   5.232 -0.7650 -0.5850 -0.0953
  496MOL0     C65377   0.974   8.255   5.151 -0.4328  0.5254 -0.5236
  496MOL0     C65378   0.953   8.250   5.002 -0.1222 -0.5431 -0.2871
  496MOL0     C65379   0.805   8.231   4.968 -0.0109  0.3030 -0.6419
  496MOL0     C65380   0.772   8.231   4.821 -0.0028 -0.0976  0.1627
  496MOL0     C65381   0.823   8.108   4.750 -0.2874  0.6657  0.1720
  496MOL0     C65382   0.765   8.101   4.612 -0.5710 -0.1655 -0.0625
  496MOL0     C65383   0.792   7.969   4.547  0.7509  0.1038  0.3996
  496MOL0    Cl65384   0.965   7.941   4.544 -0.0360  0.1500 -0.0019
  496MOL0     C65385   1.127   7.959   5.416  0.0496  0.1856  0.0365
  496MOL0     C65386   1.222   7.891   5.495  0.4649  0.1532 -0.7342
  496MOL0     O65387   1.250   7.902   5.903 -0.0798  0.1762  0.4639
  496MOL0     C65388   1.464   7.752   6.032  0.0689 -0.1106 -0.1246
  496MOL0     C65389   1.571   7.678   6.081 -0.6811 -0.5733  0.2246
  496MOL0     N65390   2.212   7.661   5.944  0.1743 -0.0100  0.2617
  496MOL0     N65391   2.322   7.670   5.878  0.1951  0.1129  0.2053
  496MOL0     C65392   3.245   8.448   6.224  0.7561 -0.2563 -0.5376
  496MOL0     C65393   3.276   8.561   6.310  0.2645 -0.1321 -0.1736
  496MOL0     C65394   3.323   8.776   6.698 -0.3169 -0.0818 -0.6706
  496MOL0     C65395   3.450   8.834   6.700 -0.4965 -0.0815 -0.1505
  496MOL0     C65396   3.500   8.911   6.806 -0.3611  0.0075 -0.7365
  496MOL0     C65397   3.419   8.927   6.914  0.5408  0.3678 -0.0705
  496MOL0     O65398   3.455   9.010   7.020  0.2121 -0.1123 -0.1703
  496MOL0     C65399   3.588   9.072   7.029  0.0772  0.5779 -0.3989
  496MOL0     C65400   3.597   9.143   7.158 -0.1291 -0.3815  0.1208
  496MOL0     C65401   3.742   9.155   7.198  0.3849  0.0406  0.1051
  496MOL0     C65402   3.769   9.189   7.343 -0.5522 -0.2389  0.9052
  496MOL0     C65403   3.666   9.280   7.393  0.2846 -0.0961  0.4674
  496MOL0     C65404   3.571   9.353   7.422 -0.6086  0.5726 -0.3018
  496MOL0     C65405   3.296   8.864   6.921 -0.2591  0.1686 -0.1869
  496MOL0     C65406   3.249   8.788   6.815  0.0260 -0.8321 -0.4852
  496MOL0     H65407   3.417   8.395   6.564  1.0511  2.7559 -0.9811
  496MOL0     H65408   3.392   8.208   6.419  4.2450  3.6237  3.4361
  496MOL0     H65409   3.246   8.053   6.349  1.4108 -1.3241  0.3339
  496MOL0     H65410   3.388   8.062   6.245 -0.3223 -0.1968 -1.8962
  496MOL0     H65411   3.288   7.887   6.158  1.3649  1.0053  1.9626
  496MOL0     H65412   3.216   8.008   6.049 -1.3914  1.4148  0.6779
  496MOL0     H65413   3.028   8.027   6.248  2.4667  2.7329 -1.8624
  496MOL0     H65414   3.077   7.861   6.284 -1.2284 -0.4599  0.2358
  496MOL0     H65415   2.993   7.932   6.002  2.1624  1.7607  1.0930
  496MOL0     H65416   3.022   7.775   6.083  0.7940  0.0149 -0.6342
  496MOL0     H65417   2.782   7.951   6.138 -0.2042  0.5267 -0.1927
  496MOL0     H65418   2.838   7.828   6.248 -1.1452  0.7058  0.3265
  496MOL0     H65419   2.808   7.654   6.078  1.6605  0.5783 -2.2038
  496MOL0     H65420   2.795   7.766   5.945  0.7354 -1.8035 -0.0505
  496MOL0     H65421   2.590   7.724   6.166 -0.7287  1.0106  0.4432
  496MOL0     H65422   2.584   7.863   6.049 -1.6060 -0.7940  1.8596
  496MOL0     H65423   2.614   7.573   5.953  0.7595  0.9310 -0.2845
  496MOL0     H65424   2.568   7.715   5.855 -1.2338 -1.5914 -0.6589
  496MOL0     H65425   2.401   7.583   6.197 -1.2931  0.3532  0.9068
  496MOL0     H65426   2.063   7.691   6.202 -0.6493  0.4401 -1.3981
  496MOL0     H65427   2.177   7.596   6.283  2.5562 -0.0523 -1.0506
  496MOL0     H65428   2.117   7.394   6.141  1.5032  0.7092  0.5531
  496MOL0     H65429   2.039   7.498   6.031  2.7956 -0.6241 -0.7615
  496MOL0     H65430   1.903   7.337   6.185 -3.0342  0.1143 -0.0261
  496MOL0     H65431   1.950   7.435   6.314  1.9694  0.0340 -0.5063
  496MOL0     H65432   1.834   7.634   6.194  1.5560 -0.5693 -1.7729
  496MOL0     H65433   1.721   7.503   6.249 -1.4291  0.5557 -1.4419
  496MOL0     H65434   1.679   7.534   5.791 -1.0105 -1.7586 -0.3648
  496MOL0     H65435   1.511   7.696   5.704 -0.4076  0.2569 -0.1867
  496MOL0     H65436   1.246   8.124   5.739 -1.8202  0.6427 -0.9881
  496MOL0     H65437   1.110   8.252   5.588 -2.4244  0.4663 -2.5117
  496MOL0     H65438   0.881   8.066   5.220 -1.7820  0.8623  0.4496
  496MOL0     H65439   1.051   8.058   5.193  2.0831  1.5599  1.5254
  496MOL0     H65440   1.073   8.300   5.153  0.7846 -1.9440 -0.4779
  496MOL0     H65441   0.908   8.334   5.187 -0.3433  0.2389  0.2848
  496MOL0     H65442   1.016   8.171   4.961  1.9305  0.9356 -0.1274
  496MOL0     H65443   0.981   8.344   4.952 -1.7082  0.5295  0.7352
  496MOL0     H65444   0.762   8.137   5.004  1.3862  0.2108  0.9680
  496MOL0     H65445   0.748   8.307   5.022  0.1252  1.8469 -2.5926
  496MOL0     H65446   0.813   8.323   4.778  1.0805  0.4534  2.2447
  496MOL0     H65447   0.663   8.234   4.812 -0.1619 -4.0873 -1.3279
  496MOL0     H65448   0.812   8.013   4.802  2.3834  1.1864  1.8894
  496MOL0     H65449   0.932   8.106   4.744 -0.2886  1.9708 -0.7816
  496MOL0     H65450   0.657   8.121   4.609 -0.5904  0.0362 -4.5223
  496MOL0     H65451   0.824   8.176   4.559 -0.1175  1.0870  2.0805
  496MOL0     H65452   0.748   7.949   4.449 -0.5030  0.3714  0.8901
  496MOL0     H65453   0.751   7.885   4.604 -0.0057 -1.4875 -2.3087
  496MOL0     H65454   1.100   7.910   5.324 -0.7105  3.7953 -1.8572
  496MOL0     H65455   1.235   7.787   5.467 -1.7465 -0.5162  0.4947
  496MOL0     H65456   1.411   7.802   6.113  0.5147 -0.1081  0.1662
  496MOL0     H65457   1.579   7.664   6.188  0.8594  0.5237  0.2796
  496MOL0     H65458   3.199   8.454   6.126  0.4427 -0.8846 -0.4312
  496MOL0     H65459   3.258   8.667   6.298  1.6146  0.3767  1.8390
  496MOL0     H65460   3.507   8.828   6.608  0.1586  0.3306  0.2174
  496MOL0     H65461   3.597   8.960   6.803  0.2706 -0.6748  3.1155
  496MOL0     H65462   3.610   9.142   6.948  1.6922  2.1986  1.3478
  496MOL0     H65463   3.664   8.994   7.016  1.7275  2.3596 -2.2597
  496MOL0     H65464   3.546   9.239   7.142  1.0474 -0.2911 -4.5189
  496MOL0     H65465   3.545   9.083   7.233  0.6811 -1.4715 -0.1702
  496MOL0     H65466   3.777   9.234   7.131  1.2815  0.4958  1.0764
  496MOL0     H65467   3.789   9.061   7.169 -0.9675 -0.7253  0.3105
  496MOL0     H65468   3.774   9.095   7.399 -1.0211 -1.6321 -1.2406
  496MOL0     H65469   3.871   9.229   7.340 -0.5759 -0.0721  2.1341
  496MOL0     H65470   3.486   9.416   7.439 -1.1002 -0.0185 -0.5290
  496MOL0     H65471   3.231   8.883   7.006 -0.5894 -1.7360  0.0239
  496MOL0     H65472   3.159   8.733   6.842  1.3449 -1.5096  3.1748
  497MOL0     O65473   6.477   4.162   6.631 -0.6797 -0.2882  0.1711
  497MOL0     C65474   6.517   4.259   6.584 -0.3000  0.5551 -0.3052
  497MOL0     O65475   6.454   4.372   6.563 -1.0806  0.6131  0.3155
  497MOL0     C65476   6.329   4.387   6.608  0.6900  0.5075 -0.8219
  497MOL0     C65477   6.291   4.489   6.690 -0.5990 -0.0425 -0.3401
  497MOL0     C65478   6.165   4.504   6.735  0.0357 -0.6572 -0.2163
  497MOL0     C65479   6.066   4.413   6.704 -0.1476  0.0006 -0.6712
  497MOL0     O65480   5.937   4.448   6.759 -0.2675  0.1814 -0.0768
  497MOL0     C65481   5.828   4.361   6.735 -0.7381 -1.2553 -0.4468
  497MOL0     C65482   5.697   4.439   6.765  0.4277 -0.4454  0.7012
  497MOL0     C65483   5.672   4.562   6.675 -0.4773 -0.2399  0.3047
  497MOL0     C65484   5.526   4.602   6.689  0.5824  0.0274 -0.1163
  497MOL0     C65485   5.482   4.656   6.829  0.7767  0.1060  0.2551
  497MOL0     C65486   5.340   4.714   6.837 -0.2461  0.5501  0.6258
  497MOL0     C65487   5.311   4.762   6.981  0.2814 -0.1592 -0.2066
  497MOL0     C65488   5.160   4.803   7.002  0.0143 -0.0526  0.7719
  497MOL0     N65489   5.128   4.940   6.960 -0.1540  0.1330 -0.2180
  497MOL0     C65490   5.017   5.002   7.020  0.1530  0.5140 -0.4866
  497MOL0     C65491   4.989   5.103   6.935  0.1312  0.8703  0.4544
  497MOL0     C65492   4.872   5.196   6.966 -0.0422  0.9867 -0.0821
  497MOL0     C65493   4.733   5.133   6.942 -0.2605 -0.3346 -1.3929
  497MOL0     C65494   4.708   5.129   6.796  0.6570  1.0163 -0.0232
  497MOL0     C65495   4.569   5.080   6.767 -0.6658 -0.0363 -0.7771
  497MOL0     O65496   4.485   5.198   6.797  0.9046 -0.5382 -0.5163
  497MOL0     C65497   4.347   5.179   6.785  1.3676  0.1391  1.0313
  497MOL0     C65498   4.261   5.288   6.828 -0.1375 -0.1616 -0.0168
  497MOL0     C65499   4.126   5.284   6.818  0.9293  0.9496  0.5415
  497MOL0     C65500   4.061   5.162   6.786 -0.8486  0.5282 -0.2142
  497MOL0     C65501   3.918   5.144   6.809  0.5019 -0.0718 -0.2726
  497MOL0     O65502   3.870   5.022   6.789  0.1829 -0.1547 -0.2601
  497MOL0     C65503   3.752   4.992   6.863  0.4523  0.4948 -0.0641
  497MOL0     C65504   3.625   5.048   6.843  0.0933 -0.0981  0.7410
  497MOL0     C65505   3.523   5.002   6.920  0.0957 -0.0215  0.7476
  497MOL0     C65506   3.530   4.901   7.014  0.9977  0.0178  0.3761
  497MOL0     O65507   3.435   4.858   7.102 -0.2404  0.1809 -0.3949
  497MOL0     C65508   3.342   4.964   7.125  0.1989 -0.2724  0.3088
  497MOL0     C65509   3.284   4.936   7.261 -0.6410 -0.8715 -0.0127
  497MOL0     C65510   3.390   4.947   7.372  0.3334  0.0003 -0.9425
  497MOL0     C65511   3.319   4.924   7.508 -1.0045 -0.5662  0.4200
  497MOL0     C65512   3.428   4.946   7.614 -0.1892 -0.3024  0.4529
  497MOL0     C65513   3.377   4.892   7.744 -0.0793  0.4950  0.5888
  497MOL0     C65514   3.499   4.897   7.843  0.2124  0.1843 -0.2038
  497MOL0     C65515   3.461   4.920   7.985 -0.6359  0.4090  0.4309
  497MOL0    Cl65516   3.341   5.059   7.999  0.2715 -0.0885  0.3549
  497MOL0     C65517   3.652   4.847   7.027 -0.3870  0.0064 -0.6449
  497MOL0     C65518   3.762   4.890   6.959 -0.7952 -0.4755 -0.1297
  497MOL0     O65519   3.855   5.243   6.835 -0.0673  0.1381 -0.4380
  497MOL0     C65520   4.142   5.056   6.737 -0.0171  0.0583  0.4678
  497MOL0     C65521   4.279   5.064   6.742 -0.2335 -0.1167  0.1232
  497MOL0     N65522   5.081   5.104   6.826  0.8635 -0.1263  0.9335
  497MOL0     N65523   5.155   4.999   6.839  0.2538 -0.4958 -0.5864
  497MOL0     C65524   6.100   4.296   6.627  0.8133 -0.4965  0.4549
  497MOL0     C65525   6.227   4.290   6.574  0.1941 -0.0152  0.4304
  497MOL0     C65526   6.660   4.258   6.539  0.7204  0.0925 -1.2581
  497MOL0     C65527   6.743   4.144   6.563  0.4093 -0.1687  0.2254
  497MOL0     C65528   6.878   4.162   6.536  0.2939  0.0669 -0.1035
  497MOL0     C65529   6.943   4.269   6.479 -0.7346  0.2045 -0.5711
  497MOL0     O65530   7.074   4.274   6.443  0.2202  0.3976  0.5430
  497MOL0     C65531   7.161   4.168   6.474  0.2610 -0.9643 -0.0436
  497MOL0     C65532   7.299   4.203   6.453 -0.2040 -0.7848 -0.2147
  497MOL0     C65533   7.375   4.086   6.401 -0.0651 -0.6881 -0.0054
  497MOL0     C65534   7.515   4.138   6.363 -0.0710 -0.3326 -0.0994
  497MOL0     C65535   7.573   4.042   6.276 -0.7242  0.0984 -0.0214
  497MOL0     C65536   7.619   3.957   6.199  0.3194  0.9339  0.0143
  497MOL0     C65537   6.864   4.383   6.452  0.0731  0.0857  0.2486
  497MOL0     C65538   6.726   4.376   6.478  0.2959  0.2000  0.5000
  497MOL0     H65539   6.363   4.561   6.729  1.5811 -1.3359 -1.8319
  497MOL0     H65540   6.154   4.600   6.785  2.2001  1.3467 -3.2678
  497MOL0     H65541   5.834   4.271   6.797 -0.4210 -0.9461 -0.0275
  497MOL0     H65542   5.824   4.329   6.630 -3.5995  0.2497 -0.9160
  497MOL0     H65543   5.690   4.468   6.870  0.0345 -2.7515  1.3666
  497MOL0     H65544   5.615   4.370   6.743  2.6774 -2.3513 -2.4971
  497MOL0     H65545   5.703   4.540   6.573 -0.9023  0.9624 -0.0849
  497MOL0     H65546   5.730   4.641   6.723  1.0928 -0.7373 -0.7107
  497MOL0     H65547   5.505   4.676   6.611 -0.5124 -0.7631 -0.6061
  497MOL0     H65548   5.462   4.523   6.649  0.6137 -0.0102 -0.0921
  497MOL0     H65549   5.545   4.744   6.850  3.3855 -1.9911  1.8498
  497MOL0     H65550   5.484   4.577   6.905  0.0533  1.0822  1.3267
  497MOL0     H65551   5.269   4.631   6.831  0.7538 -0.4989  2.4145
  497MOL0     H65552   5.323   4.788   6.759  2.3350  0.2398 -0.3236
  497MOL0     H65553   5.335   4.680   7.050  4.9694 -0.5323 -1.9046
  497MOL0     H65554   5.379   4.846   6.995  0.7405 -0.4844 -0.4469
  497MOL0     H65555   5.126   4.788   7.105  1.4863  0.2208  1.3247
  497MOL0     H65556   5.098   4.731   6.949  0.2420  1.2509 -1.3666
  497MOL0     H65557   4.960   4.983   7.110 -0.0652  3.1964  0.0255
  497MOL0     H65558   4.890   5.293   6.920 -1.4886  1.3438  0.0576
  497MOL0     H65559   4.879   5.208   7.075 -0.8591 -0.2385  0.1207
  497MOL0     H65560   4.662   5.197   6.996 -1.2311 -2.8509  0.5060
  497MOL0     H65561   4.734   5.037   6.994 -3.6966  0.3388  0.2573
  497MOL0     H65562   4.727   5.227   6.752 -2.5412  1.7084 -0.0595
  497MOL0     H65563   4.770   5.056   6.743 -0.7574  1.4721 -2.4380
  497MOL0     H65564   4.541   4.993   6.826  0.2962  0.4637  0.4609
  497MOL0     H65565   4.552   5.049   6.664  0.5960 -0.5002 -0.8578
  497MOL0     H65566   4.309   5.380   6.860  0.9100 -0.8134  0.3195
  497MOL0     H65567   4.064   5.365   6.857  0.0603 -0.1990  1.6087
  497MOL0     H65568   3.604   5.125   6.769  0.9169  0.0840  0.6886
  497MOL0     H65569   3.434   5.062   6.905  0.9897  0.5046 -3.9435
  497MOL0     H65570   3.246   4.972   7.073 -0.6430  2.1004  2.0432
  497MOL0     H65571   3.390   5.062   7.122  2.0621 -1.1565 -0.0808
  497MOL0     H65572   3.237   4.838   7.252  2.3586 -2.3389 -0.8663
  497MOL0     H65573   3.208   5.012   7.281 -1.4895 -0.7751 -3.1479
  497MOL0     H65574   3.426   5.051   7.376 -2.4883  1.0203  0.8645
  497MOL0     H65575   3.469   4.873   7.355 -0.2898 -0.5960 -1.2877
  497MOL0     H65576   3.232   4.988   7.529  1.3579  2.1056  2.8349
  497MOL0     H65577   3.283   4.820   7.510  1.1882 -1.3787 -0.0421
  497MOL0     H65578   3.456   5.051   7.629 -0.3478  0.2884 -2.6749
  497MOL0     H65579   3.517   4.893   7.576 -0.8195 -0.4198 -0.9311
  497MOL0     H65580   3.347   4.787   7.735 -0.1108  0.5826 -0.4342
  497MOL0     H65581   3.288   4.950   7.773 -1.9291 -2.0876  0.4241
  497MOL0     H65582   3.551   4.801   7.830 -0.3671 -0.0341 -1.0297
  497MOL0     H65583   3.578   4.966   7.811 -0.4538  2.2250  2.2491
  497MOL0     H65584   3.548   4.941   8.049 -0.6537  0.7741  0.3360
  497MOL0     H65585   3.420   4.830   8.032 -0.2370  0.6602  1.2766
  497MOL0     H65586   3.676   4.775   7.105  1.6223 -2.2618 -3.1627
  497MOL0     H65587   3.861   4.845   6.964 -1.9002 -3.0229  0.6532
  497MOL0     H65588   4.093   4.968   6.698  0.0967 -0.4050  1.3447
  497MOL0     H65589   4.338   4.976   6.715  0.3625  0.6191 -1.0268
  497MOL0     H65590   6.023   4.223   6.606  0.3565  0.1449 -0.1450
  497MOL0     H65591   6.262   4.208   6.511 -0.9754  0.4818 -0.9229
  497MOL0     H65592   6.702   4.052   6.602  1.0936 -0.2095  0.8629
  497MOL0     H65593   6.940   4.078   6.565  0.9797  1.3057  2.3155
  497MOL0     H65594   7.133   4.082   6.413 -2.5809  0.6006 -1.1002
  497MOL0     H65595   7.145   4.135   6.577  0.7397  0.2356  0.4344
  497MOL0     H65596   7.299   4.288   6.383 -2.8007  0.5721  1.2832
  497MOL0     H65597   7.346   4.251   6.540  1.6108  2.4274 -2.7192
  497MOL0     H65598   7.323   4.067   6.306 -0.4825  1.4947 -0.2750
  497MOL0     H65599   7.372   4.003   6.472  0.5416  0.3258  1.2430
  497MOL0     H65600   7.517   4.240   6.324  1.0463 -0.1930  0.3060
  497MOL0     H65601   7.565   4.151   6.460 -0.0347 -0.2297 -0.1318
  497MOL0     H65602   7.653   3.895   6.119  1.2366  2.5011 -0.8718
  497MOL0     H65603   6.900   4.471   6.400  0.9573 -0.0878  0.5500
  497MOL0     H65604   6.661   4.461   6.458 -1.1227 -0.7424  0.9211
  498MOL0     O65605   7.791   3.339   0.617 -0.2140 -0.4924 -0.5066
  498MOL0     C65606   7.805   3.235   0.553 -0.5956  0.1727 -0.6434
  498MOL0     O65607   7.704   3.171   0.491 -0.4407 -0.2999  0.2148
  498MOL0     C65608   7.582   3.238   0.486  0.3717 -1.2676  0.0029
  498MOL0     C65609   7.474   3.199   0.563  0.1187  0.4044  0.1459
  498MOL0     C65610   7.354   3.266   0.558  0.3542 -0.2836  1.1803
  498MOL0     C65611   7.340   3.369   0.466  0.9137 -0.3333  0.3733
  498MOL0     O65612   7.226   3.443   0.454 -0.2666 -0.0065  0.6873
  498MOL0     C65613   7.152   3.481   0.571 -0.1912 -0.8672 -0.2788
  498MOL0     C65614   7.008   3.534   0.534 -0.2641 -0.4881 -0.7276
  498MOL0     C65615   6.943   3.590   0.660 -0.7573 -0.6859 -0.3540
  498MOL0     C65616   6.815   3.661   0.625 -0.6001 -0.1517 -0.1519
  498MOL0     C65617   6.754   3.703   0.754  0.3995 -0.6329  0.0536
  498MOL0     C65618   6.626   3.778   0.745  0.0388 -0.2755  0.1612
  498MOL0     C65619   6.542   3.752   0.872 -0.5624 -0.6531  0.5634
  498MOL0     C65620   6.412   3.828   0.861 -0.0756 -0.3827  0.1041
  498MOL0     N65621   6.333   3.818   0.982  0.2040  0.1285 -0.9129
  498MOL0     C65622   6.201   3.791   0.995  0.4064  0.0659 -0.4452
  498MOL0     C65623   6.181   3.794   1.125  0.3266  0.7989  0.1766
  498MOL0     C65624   6.051   3.775   1.190 -0.5487 -0.2711 -0.2035
  498MOL0     C65625   6.004   3.910   1.247 -0.1076  0.8663  0.3514
  498MOL0     C65626   5.936   3.997   1.144 -0.2200  0.2148  0.1521
  498MOL0     C65627   5.890   4.129   1.195 -0.0799 -0.6971 -0.2381
  498MOL0     O65628   5.795   4.106   1.302  0.7554 -0.8209  0.1401
  498MOL0     C65629   5.666   4.092   1.271  0.5447  0.5768 -0.7737
  498MOL0     C65630   5.576   4.101   1.387 -0.2527 -0.3255  0.6062
  498MOL0     C65631   5.437   4.094   1.359 -0.2757  0.4449  0.2167
  498MOL0     C65632   5.388   4.069   1.237  0.8663  0.0078  0.1738
  498MOL0     C65633   5.243   4.046   1.208 -0.6774 -0.2061 -0.1347
  498MOL0     O65634   5.213   3.991   1.091 -0.0700  0.6684 -0.2310
  498MOL0     C65635   5.083   3.995   1.047 -1.1135  0.8234 -0.0691
  498MOL0     C65636   5.002   3.883   1.065  0.5276  0.2387  0.1176
  498MOL0     C65637   4.872   3.880   1.011  0.2044 -0.4359 -0.2311
  498MOL0     C65638   4.815   3.995   0.939 -0.2777  0.3940 -0.0239
  498MOL0     O65639   4.696   4.012   0.888 -1.1185 -0.5580  0.1321
  498MOL0     C65640   4.592   3.927   0.936 -0.9581 -0.4011 -0.2953
  498MOL0     C65641   4.446   3.973   0.922 -0.6655  0.1971 -0.1306
  498MOL0     C65642   4.414   3.999   0.775  0.5431 -0.1015  1.1389
  498MOL0     C65643   4.262   4.026   0.770  0.0333  0.3073  0.1991
  498MOL0     C65644   4.205   4.062   0.632 -0.2633  0.0899 -0.3722
  498MOL0     C65645   4.088   4.154   0.645 -0.0708  0.3219  0.0780
  498MOL0     C65646   4.126   4.303   0.642  0.8880  0.0253  0.0604
  498MOL0     C65647   4.000   4.378   0.684  0.7712 -0.9469 -0.1665
  498MOL0    Cl65648   4.028   4.549   0.698 -0.0327  0.1015 -0.3657
  498MOL0     C65649   4.910   4.101   0.926 -0.2469 -0.1816 -0.1908
  498MOL0     C65650   5.033   4.102   0.981  0.1660 -0.4132 -0.3945
  498MOL0     O65651   5.160   4.069   1.298  0.2883  0.0210 -0.3216
  498MOL0     C65652   5.476   4.060   1.132  0.0835  0.2901  0.2704
  498MOL0     C65653   5.615   4.067   1.146 -0.0213  0.3172  0.0678
  498MOL0     N65654   6.297   3.797   1.191  0.8157  0.3515 -0.6878
  498MOL0     N65655   6.392   3.817   1.105  0.1376 -0.5145  0.4377
  498MOL0     C65656   7.447   3.408   0.388 -0.3185 -0.1015  0.8961
  498MOL0     C65657   7.569   3.343   0.391 -0.1776  1.0410 -0.4528
  498MOL0     C65658   7.943   3.183   0.553  0.4952 -0.5748 -0.0191
  498MOL0     C65659   8.058   3.250   0.603 -0.8593 -0.5044  0.5227
  498MOL0     C65660   8.185   3.194   0.592 -1.0509 -0.5004 -0.6737
  498MOL0     C65661   8.199   3.066   0.531 -0.0759 -1.6171  0.0010
  498MOL0     O65662   8.310   2.993   0.491 -0.1627  0.9443  0.2996
  498MOL0     C65663   8.432   3.038   0.548  0.0683  0.3513 -0.2844
  498MOL0     C65664   8.539   3.016   0.432 -0.4661  0.2329 -0.3899
  498MOL0     C65665   8.614   2.880   0.431 -0.7790 -0.3781 -0.1893
  498MOL0     C65666   8.511   2.759   0.435 -1.4094  0.1347 -0.2183
  498MOL0     C65667   8.594   2.640   0.435  0.2946 -0.2677  0.3958
  498MOL0     C65668   8.683   2.561   0.437 -0.4298 -0.2515  0.4485
  498MOL0     C65669   8.082   2.995   0.486 -0.1062 -0.9426 -0.4504
  498MOL0     C65670   7.956   3.060   0.492 -0.3628 -0.2185 -0.2439
  498MOL0     H65671   7.480   3.116   0.633 -3.1598  0.9111  1.2135
  498MOL0     H65672   7.277   3.238   0.630 -1.3903  0.1912 -0.4174
  498MOL0     H65673   7.198   3.562   0.628 -3.5019 -1.4577  3.7038
  498MOL0     H65674   7.130   3.397   0.637  0.9164  0.8465  2.4437
  498MOL0     H65675   6.945   3.460   0.484 -1.1082  0.4107 -1.0265
  498MOL0     H65676   7.004   3.613   0.458 -0.9685 -0.9617 -1.1958
  498MOL0     H65677   6.997   3.667   0.715 -2.2016 -0.7247  1.2019
  498MOL0     H65678   6.925   3.514   0.737  2.1634 -1.6600 -0.4927
  498MOL0     H65679   6.835   3.752   0.567  1.0425 -1.6499 -2.1095
  498MOL0     H65680   6.750   3.592   0.572 -0.3427  2.3382 -4.0700
  498MOL0     H65681   6.822   3.772   0.805  0.5607 -0.5220 -0.3064
  498MOL0     H65682   6.729   3.620   0.820 -2.3250  0.0332 -0.0040
  498MOL0     H65683   6.569   3.728   0.666 -3.1777  2.2519  0.6942
  498MOL0     H65684   6.641   3.885   0.734  1.2191 -0.2476  1.6946
  498MOL0     H65685   6.525   3.649   0.904  3.4115 -2.4923 -2.4336
  498MOL0     H65686   6.603   3.794   0.953 -0.1809 -0.2576  0.0753
  498MOL0     H65687   6.352   3.800   0.775  0.4246 -2.4709  0.3873
  498MOL0     H65688   6.439   3.934   0.853 -2.1261 -0.0066 -3.8413
  498MOL0     H65689   6.117   3.786   0.927  1.0559  3.7506 -1.7811
  498MOL0     H65690   6.073   3.700   1.267 -2.7221 -0.6357  0.1098
  498MOL0     H65691   5.981   3.736   1.115 -0.0867  1.6774 -1.7444
  498MOL0     H65692   6.089   3.967   1.285 -0.5984  3.8797 -2.5512
  498MOL0     H65693   5.939   3.878   1.329  2.5948 -0.3073  2.1675
  498MOL0     H65694   6.006   4.014   1.061  0.1590 -3.0515 -0.3338
  498MOL0     H65695   5.853   3.936   1.109  1.2866 -0.6830 -2.1059
  498MOL0     H65696   5.850   4.189   1.112 -0.5667  0.6918  0.9676
  498MOL0     H65697   5.969   4.190   1.240 -0.7859  0.2794 -0.2785
  498MOL0     H65698   5.621   4.114   1.485 -0.9466  1.5964  0.7101
  498MOL0     H65699   5.362   4.096   1.439  0.1695 -1.8206  0.7596
  498MOL0     H65700   5.044   3.795   1.112 -0.7500 -0.3954  0.1122
  498MOL0     H65701   4.815   3.790   1.033  1.7751 -0.6414  3.7940
  498MOL0     H65702   4.605   3.916   1.044  0.7139  1.5709 -0.2385
  498MOL0     H65703   4.606   3.829   0.888 -0.3256  0.1334 -1.2277
  498MOL0     H65704   4.437   4.072   0.967  0.9518  1.1575 -1.7719
  498MOL0     H65705   4.370   3.907   0.964  0.9184 -0.9420  1.0788
  498MOL0     H65706   4.449   3.917   0.710  0.4406  0.8578 -0.1612
  498MOL0     H65707   4.463   4.093   0.750 -0.6947 -0.0990 -1.7020
  498MOL0     H65708   4.198   3.944   0.804 -1.5538  1.0264 -0.9445
  498MOL0     H65709   4.262   4.104   0.847 -0.4077 -0.7883  1.3443
  498MOL0     H65710   4.168   3.974   0.578 -2.1620  0.7434 -0.2202
  498MOL0     H65711   4.282   4.119   0.579  0.4652 -0.5473 -0.0098
  498MOL0     H65712   4.021   4.130   0.728  1.4353 -0.5659  1.0786
  498MOL0     H65713   4.023   4.146   0.557  2.4514  0.5104 -1.9117
  498MOL0     H65714   4.205   4.321   0.715  1.8169 -1.0928 -0.6369
  498MOL0     H65715   4.159   4.330   0.540 -0.6151 -2.8746 -1.2980
  498MOL0     H65716   3.954   4.334   0.772 -2.0481  1.3958 -0.3208
  498MOL0     H65717   3.928   4.368   0.601  0.8387  0.9340 -0.4814
  498MOL0     H65718   4.885   4.195   0.878  0.7458  0.6382  0.8412
  498MOL0     H65719   5.089   4.195   0.971  0.3437 -0.6450 -1.6511
  498MOL0     H65720   5.434   4.045   1.033  4.6413 -4.6358 -1.4327
  498MOL0     H65721   5.669   4.056   1.053 -1.3521 -0.5076 -0.6256
  498MOL0     H65722   7.434   3.489   0.317  1.2175 -0.2450  0.4130
  498MOL0     H65723   7.650   3.368   0.323  0.4478 -0.8421 -0.4541
  498MOL0     H65724   8.043   3.345   0.654 -4.3549 -1.2906  1.2057
  498MOL0     H65725   8.267   3.251   0.634 -2.6846  2.3262 -1.0582
  498MOL0     H65726   8.459   2.992   0.643  1.9088 -0.6270 -1.2325
  498MOL0     H65727   8.430   3.146   0.566 -1.2496 -0.0013  2.2485
  498MOL0     H65728   8.494   3.044   0.337 -2.4611  1.1188  0.7405
  498MOL0     H65729   8.618   3.085   0.461 -0.9127 -0.2343  2.2343
  498MOL0     H65730   8.679   2.871   0.518 -1.7787 -1.6201  0.4548
  498MOL0     H65731   8.677   2.869   0.342 -2.0429 -4.0678 -0.8225
  498MOL0     H65732   8.449   2.762   0.525 -0.6452 -0.2900  0.3317
  498MOL0     H65733   8.449   2.760   0.345 -1.1563 -0.0019 -0.3943
  498MOL0     H65734   8.763   2.489   0.434 -1.2296 -1.2173  1.6424
  498MOL0     H65735   8.098   2.898   0.442  1.8628 -1.8286  2.0043
  498MOL0     H65736   7.871   3.002   0.456 -1.4920 -0.1159  2.1060
  499MOL0     O65737   9.187   9.781   8.213 -0.3579  0.1957 -0.3140
  499MOL0     C65738   9.204   9.677   8.148  0.7776  0.8659 -0.1030
  499MOL0     O65739   9.107   9.574   8.119 -0.1437 -0.0640  0.0521
  499MOL0     C65740   8.994   9.582   8.196  0.5929 -0.1484 -0.0602
  499MOL0     C65741   8.906   9.692   8.187 -0.7077 -0.5908 -0.1497
  499MOL0     C65742   8.801   9.706   8.275  0.6919  0.8151 -0.4354
  499MOL0     C65743   8.775   9.609   8.374  0.7953 -0.1724  0.6176
  499MOL0     O65744   8.659   9.628   8.448 -0.3976 -0.2162 -0.9664
  499MOL0     C65745   8.628   9.536   8.550  0.4465 -0.0259 -0.6041
  499MOL0     C65746   8.514   9.588   8.643 -0.4562 -1.0112 -0.3419
  499MOL0     C65747   8.373   9.614   8.600  0.0773 -0.0846 -0.8061
  499MOL0     C65748   8.357   9.699   8.471 -0.1894  0.2881 -1.0116
  499MOL0     C65749   8.213   9.708   8.424  1.3916  1.0873  0.1948
  499MOL0     C65750   8.189   9.715   8.274  0.1284  0.5868 -0.3263
  499MOL0     C65751   8.048   9.735   8.228 -0.8026 -0.1037  0.1216
  499MOL0     C65752   7.959   9.608   8.238  0.5108 -0.0260  0.1646
  499MOL0     N65753   7.831   9.640   8.159 -1.1950  0.2930  0.1908
  499MOL0     C65754   7.712   9.696   8.203 -0.4087 -0.4335  0.4422
  499MOL0     C65755   7.628   9.688   8.099 -0.3296 -0.4087  0.4263
  499MOL0     C65756   7.480   9.702   8.099 -0.0989  0.3359  0.7974
  499MOL0     C65757   7.426   9.833   8.156 -0.6410  0.3165 -1.2941
  499MOL0     C65758   7.502   9.947   8.097  0.5179  0.0144  0.0886
  499MOL0     C65759   7.397  10.067   8.101  0.1541  0.3273  0.3631
  499MOL0     O65760   7.323  10.066   8.219  0.3590 -0.3431 -0.1204
  499MOL0     C65761   7.212  10.147   8.213 -0.0002 -0.7056  0.9884
  499MOL0     C65762   7.197  10.244   8.112  0.5951  0.2143 -0.2635
  499MOL0     C65763   7.068  10.311   8.109 -1.2069  0.9501  0.8829
  499MOL0     C65764   6.973  10.305   8.217 -0.1999 -0.5973  0.3560
  499MOL0     C65765   6.847  10.393   8.209 -0.7510 -0.0508 -0.6981
  499MOL0     O65766   6.786  10.428   8.323  0.3925  0.4471 -0.4431
  499MOL0     C65767   6.665  10.490   8.310 -0.4589 -0.1194 -1.1165
  499MOL0     C65768   6.559  10.436   8.382  0.2245  0.0574  0.0416
  499MOL0     C65769   6.440  10.497   8.371  0.9653 -0.5405 -0.0905
  499MOL0     C65770   6.419  10.615   8.296 -0.9378 -1.0042 -0.5045
  499MOL0     O65771   6.307  10.688   8.286 -0.6341  0.5513  0.0494
  499MOL0     C65772   6.184  10.620   8.311 -0.9485 -0.4096  0.1702
  499MOL0     C65773   6.152  10.650   8.460 -0.1913  0.8870 -0.1556
  499MOL0     C65774   6.001  10.682   8.480  0.3523  0.8820  0.8571
  499MOL0     C65775   5.965  10.673   8.629  0.2183  0.8839  0.0920
  499MOL0     C65776   5.811  10.690   8.650 -0.3521  0.0070  0.0917
  499MOL0     C65777   5.741  10.564   8.605 -0.0234 -0.5410 -0.2354
  499MOL0     C65778   5.595  10.566   8.666  0.4111 -0.3389 -0.4513
  499MOL0     C65779   5.513  10.443   8.617 -0.1093  0.1076  0.1044
  499MOL0    Cl65780   5.609  10.282   8.635  0.3429  0.4642  0.5407
  499MOL0     C65781   6.530  10.671   8.228  0.0193  0.5741  0.4934
  499MOL0     C65782   6.652  10.610   8.235  0.1731  0.8411 -0.0998
  499MOL0     O65783   6.822  10.431   8.097  0.0821 -0.3814 -0.4122
  499MOL0     C65784   6.995  10.205   8.317  0.5594  0.0575 -0.3095
  499MOL0     C65785   7.116  10.129   8.310 -0.5207  0.2668  0.1717
  499MOL0     N65786   7.692   9.641   7.982 -0.4633 -0.3661 -0.4188
  499MOL0     N65787   7.809   9.603   8.028 -0.2229  0.7385  0.0750
  499MOL0     C65788   8.870   9.510   8.388 -0.8355  0.6096  0.3471
  499MOL0     C65789   8.979   9.492   8.300  0.5806 -0.8572 -1.4507
  499MOL0     C65790   9.344   9.656   8.101 -1.0041 -0.0813 -0.3322
  499MOL0     C65791   9.455   9.706   8.176  0.1498 -0.4398 -0.2346
  499MOL0     C65792   9.578   9.680   8.124  0.0051  0.0085 -0.6718
  499MOL0     C65793   9.606   9.608   8.008 -1.0029 -0.2682  0.6078
  499MOL0     O65794   9.743   9.597   7.971 -0.6404  0.2132  0.3880
  499MOL0     C65795   9.775   9.487   7.882 -0.6311  0.2360 -0.1360
  499MOL0     C65796   9.910   9.481   7.819 -0.6282 -0.5500 -0.7253
  499MOL0     C65797  10.025   9.448   7.919  0.1339  0.0899  0.1849
  499MOL0     C65798  10.154   9.415   7.851 -0.0335  0.0467 -0.2653
  499MOL0     C65799  10.269   9.455   7.926  0.5784 -0.3829  0.9786
  499MOL0     C65800  10.369   9.469   7.995  0.8710 -0.1694  0.0122
  499MOL0     C65801   9.499   9.553   7.940 -0.1885 -0.0099 -0.7368
  499MOL0     C65802   9.370   9.570   7.995  0.7094 -0.8004  0.8449
  499MOL0     H65803   8.916   9.757   8.100 -1.5124  0.2647  0.3697
  499MOL0     H65804   8.728   9.787   8.276 -0.2301  0.0201 -1.5605
  499MOL0     H65805   8.716   9.506   8.607 -0.7789  1.1623  2.0839
  499MOL0     H65806   8.584   9.444   8.510  2.0272 -1.2821  0.4483
  499MOL0     H65807   8.550   9.673   8.702 -1.6279 -2.0990  2.0679
  499MOL0     H65808   8.502   9.513   8.721 -0.9088 -0.6923 -0.1068
  499MOL0     H65809   8.332   9.665   8.688 -0.0639  1.0070 -1.4727
  499MOL0     H65810   8.311   9.525   8.589 -2.6019  1.2496  1.9016
  499MOL0     H65811   8.401   9.796   8.495  1.1932 -0.7750  1.1735
  499MOL0     H65812   8.415   9.649   8.394  0.4741 -2.1317  0.9017
  499MOL0     H65813   8.163   9.792   8.473  0.0874 -1.1991  3.1228
  499MOL0     H65814   8.157   9.621   8.458 -0.1824  2.0855  0.2717
  499MOL0     H65815   8.225   9.624   8.225 -0.0966  0.8971 -1.0841
  499MOL0     H65816   8.245   9.801   8.235 -0.0777  1.3717  1.0657
  499MOL0     H65817   8.009   9.822   8.282 -1.2635  1.0554 -1.9801
  499MOL0     H65818   8.057   9.753   8.120  1.4474 -3.2581 -0.3532
  499MOL0     H65819   7.927   9.596   8.341  0.2887 -3.8412 -0.1964
  499MOL0     H65820   8.007   9.513   8.214  1.7359  1.2321 -2.9011
  499MOL0     H65821   7.685   9.713   8.307 -0.1047  1.3371  0.2542
  499MOL0     H65822   7.430   9.615   8.143 -0.8343  0.2923 -0.0830
  499MOL0     H65823   7.453   9.701   7.993 -1.8036 -1.5764  1.1805
  499MOL0     H65824   7.450   9.831   8.263  0.6756  0.2165 -1.5659
  499MOL0     H65825   7.318   9.832   8.141 -1.0052  1.3577  0.9041
  499MOL0     H65826   7.592   9.969   8.154  0.3992  4.1140 -1.0283
  499MOL0     H65827   7.523   9.918   7.993  1.9781 -0.2575  0.4432
  499MOL0     H65828   7.332  10.054   8.014 -0.4608  1.8969  0.5424
  499MOL0     H65829   7.456  10.157   8.084  1.3950 -0.2293  1.5197
  499MOL0     H65830   7.260  10.262   8.025  0.5812  0.4978 -0.2153
  499MOL0     H65831   7.038  10.365   8.020  3.0224  4.0261  0.9998
  499MOL0     H65832   6.566  10.342   8.436 -0.2567  0.7525  1.3617
  499MOL0     H65833   6.357  10.454   8.425  1.0778  0.9356  1.3403
  499MOL0     H65834   6.189  10.513   8.290  0.3767 -0.4423  0.6229
  499MOL0     H65835   6.108  10.667   8.247 -1.4013 -0.0060  0.9879
  499MOL0     H65836   6.206  10.741   8.488 -0.6157  2.4218 -3.7888
  499MOL0     H65837   6.179  10.566   8.524  0.1302  1.9390  1.1291
  499MOL0     H65838   5.954  10.597   8.429  1.3329 -0.6360  2.3629
  499MOL0     H65839   5.972  10.778   8.436 -0.6135 -0.3305 -1.3144
  499MOL0     H65840   5.994  10.575   8.667 -0.7629 -0.9269 -3.3828
  499MOL0     H65841   6.006  10.755   8.689 -1.7848  1.1995  1.1111
  499MOL0     H65842   5.777  10.766   8.579 -0.6403  0.0365  0.2590
  499MOL0     H65843   5.792  10.711   8.756 -1.9319  0.6861 -0.3006
  499MOL0     H65844   5.805  10.482   8.640  3.4419  2.4833  1.1598
  499MOL0     H65845   5.735  10.553   8.497 -0.9866 -1.2718 -0.1250
  499MOL0     H65846   5.596  10.570   8.775 -2.0018 -0.4101 -0.3822
  499MOL0     H65847   5.541  10.658   8.640  1.6742  1.0735  1.6176
  499MOL0     H65848   5.488  10.455   8.512  0.8765 -2.5785 -0.5085
  499MOL0     H65849   5.419  10.433   8.671 -1.1117 -4.2904 -2.0087
  499MOL0     H65850   6.531  10.757   8.163  5.9820 -0.9253 -2.0790
  499MOL0     H65851   6.740  10.650   8.185  0.0956 -0.0395 -0.9807
  499MOL0     H65852   6.930  10.177   8.399  0.5419 -1.0039 -0.6613
  499MOL0     H65853   7.134  10.058   8.390 -0.0454  1.3309  1.0336
  499MOL0     H65854   8.876   9.439   8.470  1.8848  2.2344  1.7400
  499MOL0     H65855   9.048   9.412   8.322 -1.2207 -1.7007  1.7932
  499MOL0     H65856   9.463   9.771   8.262  0.5246  2.3160 -2.2033
  499MOL0     H65857   9.660   9.717   8.184 -1.6775 -1.0346  2.4978
  499MOL0     H65858   9.715   9.500   7.791  0.5943  0.0443 -0.9927
  499MOL0     H65859   9.745   9.398   7.938 -0.2232  1.4707  2.1736
  499MOL0     H65860   9.899   9.401   7.746 -2.5841 -2.4157  1.4312
  499MOL0     H65861   9.935   9.567   7.757  0.5810 -1.5270 -1.6312
  499MOL0     H65862  10.004   9.365   7.988 -0.3827  0.6263  0.6808
  499MOL0     H65863  10.040   9.540   7.976 -2.2318  1.0898 -0.6925
  499MOL0     H65864  10.158   9.307   7.831  0.2146 -0.3081  1.5556
  499MOL0     H65865  10.159   9.480   7.763 -0.8456  0.3485 -0.0951
  499MOL0     H65866  10.455   9.500   8.050  2.6252 -0.6372 -2.3121
  499MOL0     H65867   9.508   9.498   7.846 -2.4395  0.2315 -1.1471
  499MOL0     H65868   9.288   9.532   7.935  0.8213 -0.5840  0.5510
  500MOL0     O65869  10.200   7.627   8.084  0.3826  0.2401 -0.3814
  500MOL0     C65870  10.291   7.575   8.030 -0.7746  0.1962  0.1757
  500MOL0     O65871  10.292   7.437   8.004 -0.3299  0.4093 -0.2765
  500MOL0     C65872  10.178   7.361   8.025 -0.0814 -0.2492 -0.4130
  500MOL0     C65873  10.176   7.264   8.128  0.0721 -0.1267 -0.3788
  500MOL0     C65874  10.054   7.189   8.152 -0.3160 -0.1926  0.5291
  500MOL0     C65875   9.941   7.209   8.075  0.7405  0.1721 -0.1813
  500MOL0     O65876   9.812   7.153   8.095 -0.1385  0.0336 -0.1992
  500MOL0     C65877   9.795   7.054   8.203 -0.8850 -0.4374  0.8980
  500MOL0     C65878   9.652   7.010   8.253 -0.9377  0.1469  0.1878
  500MOL0     C65879   9.587   6.898   8.167  0.3451 -1.0056 -0.1265
  500MOL0     C65880   9.573   6.945   8.027 -0.2719 -0.1378 -0.1876
  500MOL0     C65881   9.473   7.062   7.982 -0.6580 -0.3068 -0.4152
  500MOL0     C65882   9.330   7.033   8.007 -0.0005 -0.2448 -0.2820
  500MOL0     C65883   9.248   7.158   8.001 -0.4249 -0.1313 -0.1836
  500MOL0     C65884   9.106   7.143   8.042 -0.2048 -0.3224  0.0079
  500MOL0     N65885   9.035   7.070   7.940  0.1716  0.8512  0.5485
  500MOL0     C65886   8.913   7.006   7.953 -0.1971 -0.6715 -1.1031
  500MOL0     C65887   8.853   7.016   7.832  0.0023 -0.2243  0.5279
  500MOL0     C65888   8.721   6.945   7.804 -0.2613  0.0342 -0.6020
  500MOL0     C65889   8.595   7.015   7.856  0.5693  0.3224  0.0826
  500MOL0     C65890   8.569   7.153   7.796  0.1923 -0.0712  0.9000
  500MOL0     C65891   8.433   7.211   7.837  0.1046  0.1589  0.6269
  500MOL0     O65892   8.419   7.228   7.981 -0.1719  0.5985  0.4488
  500MOL0     C65893   8.302   7.273   8.028  0.0275 -0.0553 -0.0864
  500MOL0     C65894   8.303   7.370   8.132  0.3224  0.7710  0.0065
  500MOL0     C65895   8.192   7.420   8.185  0.1987  0.2492  0.0694
  500MOL0     C65896   8.062   7.387   8.142  0.2647  0.3986  0.7485
  500MOL0     C65897   7.941   7.443   8.211  0.6024  1.1353  0.2555
  500MOL0     O65898   7.820   7.418   8.148  0.5200  0.2026  0.0760
  500MOL0     C65899   7.698   7.447   8.211  0.9981  0.4284  0.3377
  500MOL0     C65900   7.678   7.462   8.358 -0.5960 -0.3129 -0.5624
  500MOL0     C65901   7.551   7.491   8.406  0.6698  0.4615  0.2172
  500MOL0     C65902   7.440   7.502   8.318 -0.2113 -0.7703 -0.5074
  500MOL0     O65903   7.323   7.529   8.382 -0.4995 -0.5281  0.0020
  500MOL0     C65904   7.205   7.533   8.307 -0.0682  0.0690 -0.1099
  500MOL0     C65905   7.087   7.574   8.398 -0.5010  0.1111 -0.0431
  500MOL0     C65906   6.956   7.567   8.319 -0.2022 -0.1917 -0.2237
  500MOL0     C65907   6.835   7.611   8.394 -0.1021  0.2628 -0.2199
  500MOL0     C65908   6.704   7.615   8.308  0.8631 -0.4281 -0.1548
  500MOL0     C65909   6.576   7.614   8.395 -0.4128 -0.5888 -0.1673
  500MOL0     C65910   6.569   7.731   8.492 -0.1931 -0.0915  0.0739
  500MOL0     C65911   6.435   7.729   8.572 -0.5582 -0.2272  0.0872
  500MOL0    Cl65912   6.303   7.779   8.465 -0.0018 -0.2528 -0.2934
  500MOL0     C65913   7.453   7.470   8.184  0.5312  0.7828 -0.1310
  500MOL0     C65914   7.581   7.440   8.138  0.3534  0.1585  0.5047
  500MOL0     O65915   7.957   7.500   8.318  0.0646 -0.1035  0.1010
  500MOL0     C65916   8.057   7.301   8.031 -1.4209  1.1647  0.4956
  500MOL0     C65917   8.176   7.246   7.972 -0.5874  0.6007  0.0069
  500MOL0     N65918   8.946   7.064   7.746  0.0737  0.3179  0.2952
  500MOL0     N65919   9.056   7.096   7.805 -1.2834  0.2853 -0.3803
  500MOL0     C65920   9.951   7.299   7.974 -0.7984  0.2148  0.2827
  500MOL0     C65921  10.066   7.382   7.941  0.5599  0.3924  0.3892
  500MOL0     C65922  10.404   7.650   7.980 -0.6180  0.6520 -0.1648
  500MOL0     C65923  10.466   7.598   7.869 -0.1500  0.5785 -0.2534
  500MOL0     C65924  10.589   7.656   7.831 -0.6443  0.8673 -0.0075
  500MOL0     C65925  10.646   7.764   7.899  0.4828 -0.3274 -0.0075
  500MOL0     O65926  10.775   7.802   7.865  0.5728  0.3885 -0.5043
  500MOL0     C65927  10.830   7.933   7.890  0.9027  0.7904 -0.1320
  500MOL0     C65928  10.927   7.924   8.009  0.2998 -0.3140 -0.8727
  500MOL0     C65929  11.056   7.832   7.982 -0.1300 -0.0107 -0.4442
  500MOL0     C65930  11.167   7.876   7.892 -0.6183 -0.2083  0.1771
  500MOL0     C65931  11.229   8.004   7.925 -0.2935 -0.8968  0.1379
  500MOL0     C65932  11.289   8.115   7.941  0.1267 -0.4621  0.2434
  500MOL0     C65933  10.575   7.820   8.005 -0.3396  0.5029  0.3373
  500MOL0     C65934  10.454   7.765   8.043 -0.0086 -0.3190  0.1306
  500MOL0     H65935  10.265   7.269   8.190 -0.3420 -0.3714  0.2393
  500MOL0     H65936  10.044   7.121   8.236 -0.0087  2.4388  2.8421
  500MOL0     H65937   9.846   7.080   8.296 -1.9466 -1.3162  1.7593
  500MOL0     H65938   9.846   6.964   8.168 -0.0364  0.5104 -0.4000
  500MOL0     H65939   9.588   7.099   8.260 -0.9653  0.0380  1.8847
  500MOL0     H65940   9.671   6.957   8.347  1.4358 -1.5223 -1.1493
  500MOL0     H65941   9.489   6.858   8.196  0.5214 -1.2380  0.1592
  500MOL0     H65942   9.662   6.820   8.183 -0.2251 -1.3444  1.0108
  500MOL0     H65943   9.677   6.969   8.000 -0.4116 -1.1893 -1.7762
  500MOL0     H65944   9.540   6.864   7.962 -1.7637  0.8475 -0.7072
  500MOL0     H65945   9.490   7.100   7.881  0.5813  2.2336  0.6573
  500MOL0     H65946   9.502   7.145   8.046 -0.2312  0.1430 -1.1734
  500MOL0     H65947   9.323   6.990   8.107  4.4239 -0.8447 -0.0112
  500MOL0     H65948   9.291   6.964   7.932 -1.2418 -2.4222  2.1982
  500MOL0     H65949   9.283   7.231   8.075 -0.1411 -1.3942  0.9833
  500MOL0     H65950   9.262   7.210   7.906  3.9011 -0.0437  0.2769
  500MOL0     H65951   9.053   7.237   8.058  0.4336 -0.3216  2.6313
  500MOL0     H65952   9.103   7.088   8.137 -3.4727  2.6954  1.8966
  500MOL0     H65953   8.869   6.965   8.044  3.2647 -0.9054  0.6383
  500MOL0     H65954   8.731   6.847   7.850 -3.3993 -1.0243 -1.9298
  500MOL0     H65955   8.713   6.928   7.696  0.0262 -2.2528 -0.2997
  500MOL0     H65956   8.598   7.010   7.965 -0.0408  0.2426  0.0970
  500MOL0     H65957   8.514   6.952   7.820  1.0782 -0.0297 -0.4826
  500MOL0     H65958   8.639   7.231   7.827  0.7921  0.6475 -1.9153
  500MOL0     H65959   8.572   7.153   7.686 -0.8378 -1.3607  0.8445
  500MOL0     H65960   8.363   7.146   7.784  0.2899 -1.5907  2.4482
  500MOL0     H65961   8.417   7.312   7.797  1.0129 -0.4924 -1.5796
  500MOL0     H65962   8.405   7.392   8.159  0.6015  1.7119 -1.6691
  500MOL0     H65963   8.198   7.483   8.274 -0.9886 -1.9577  1.8261
  500MOL0     H65964   7.755   7.441   8.431  0.6130  2.1142 -1.0458
  500MOL0     H65965   7.544   7.512   8.513  0.8628  0.8051  0.1638
  500MOL0     H65966   7.190   7.431   8.270 -2.2148  0.0247  0.7137
  500MOL0     H65967   7.216   7.598   8.219  1.5912 -2.0694 -1.5810
  500MOL0     H65968   7.110   7.674   8.436  0.0990 -1.0581  2.9900
  500MOL0     H65969   7.085   7.518   8.493  1.7995  1.1543  0.7041
  500MOL0     H65970   6.942   7.461   8.295 -3.8532  0.0931  0.2201
  500MOL0     H65971   6.971   7.635   8.234 -0.4228  1.9056  1.3623
  500MOL0     H65972   6.809   7.549   8.481 -1.2688  2.6557  1.2476
  500MOL0     H65973   6.847   7.712   8.434 -0.8075  0.6581 -0.9856
  500MOL0     H65974   6.693   7.528   8.242 -2.8344  0.2637 -0.6331
  500MOL0     H65975   6.711   7.698   8.238 -0.6866  0.6330  0.8825
  500MOL0     H65976   6.580   7.517   8.446  3.1637 -1.1216 -1.1470
  500MOL0     H65977   6.490   7.610   8.328  0.4525 -0.6027 -1.3244
  500MOL0     H65978   6.660   7.732   8.553  0.0043  1.2694 -0.1993
  500MOL0     H65979   6.570   7.825   8.436 -0.7625 -0.3212 -0.3290
  500MOL0     H65980   6.440   7.812   8.644 -2.4579  1.4882 -1.6054
  500MOL0     H65981   6.422   7.632   8.621  1.5259 -1.6243 -1.9522
  500MOL0     H65982   7.379   7.475   8.104  2.4790  0.4590 -2.0540
  500MOL0     H65983   7.594   7.410   8.035 -0.1960 -1.5766  0.9080
  500MOL0     H65984   7.964   7.260   7.993 -1.7357  3.1554 -1.0512
  500MOL0     H65985   8.172   7.189   7.880  3.3127  1.1011 -0.6470
  500MOL0     H65986   9.857   7.315   7.922 -1.6378  1.8073  2.2096
  500MOL0     H65987  10.063   7.444   7.852  0.5907 -1.1828 -0.7628
  500MOL0     H65988  10.436   7.516   7.805  0.4587  0.5283 -0.4830
  500MOL0     H65989  10.640   7.608   7.749 -1.1102 -1.2216  0.8758
  500MOL0     H65990  10.749   7.999   7.921  0.8850  0.4097  0.6501
  500MOL0     H65991  10.893   7.962   7.804  2.0477 -1.9487 -0.3197
  500MOL0     H65992  10.972   8.024   8.016  0.0923 -0.1991 -1.1936
  500MOL0     H65993  10.866   7.897   8.096  0.0181 -0.1752 -1.0256
  500MOL0     H65994  11.022   7.744   7.927 -2.3425 -0.1570  1.0599
  500MOL0     H65995  11.094   7.802   8.081 -3.3243 -2.6181  0.1751
  500MOL0     H65996  11.241   7.795   7.889 -1.1182 -0.6500 -2.6498
  500MOL0     H65997  11.124   7.881   7.792 -0.9511  4.3408  0.3702
  500MOL0     H65998  11.334   8.210   7.967 -0.3519 -0.4591  1.1124
  500MOL0     H65999  10.618   7.906   8.056  1.6345  0.2402 -0.7730
  500MOL0     H66000  10.414   7.798   8.139  0.9983 -2.1412  1.2082
  501MOL0     O66001   1.986   1.584   5.115  0.0022 -0.2524  0.4685
  501MOL0     C66002   2.019   1.596   4.996 -0.9362  0.4176 -0.2811
  501MOL0     O66003   1.940   1.598   4.883  0.2250  0.7757 -0.2030
  501MOL0     C66004   1.802   1.593   4.899 -0.6278  0.2388 -0.2883
  501MOL0     C66005   1.731   1.701   4.961  0.7267  0.3561 -0.2652
  501MOL0     C66006   1.593   1.688   4.983 -0.8648 -1.1112 -0.2930
  501MOL0     C66007   1.523   1.572   4.936  0.3274 -0.2361 -0.3122
  501MOL0     O66008   1.389   1.568   4.925 -0.7717 -0.1812  0.4016
  501MOL0     C66009   1.321   1.594   5.048  0.7121 -0.4278  0.2969
  501MOL0     C66010   1.319   1.474   5.147  0.1466 -0.1123 -0.0957
  501MOL0     C66011   1.249   1.495   5.279 -0.0406 -0.3863 -0.1821
  501MOL0     C66012   1.093   1.507   5.257  0.1011 -0.1330 -0.1034
  501MOL0     C66013   1.041   1.523   5.397 -0.2370 -0.0180 -1.0157
  501MOL0     C66014   0.892   1.491   5.408  0.3722 -0.7292  0.4980
  501MOL0     C66015   0.806   1.605   5.354  0.4749 -0.3076 -0.0292
  501MOL0     C66016   0.653   1.570   5.354 -0.2845 -0.3369  0.6160
  501MOL0     N66017   0.611   1.537   5.490  0.8275  0.4643  0.0279
  501MOL0     C66018   0.487   1.466   5.494  0.2842 -0.0089 -0.8407
  501MOL0     C66019   0.459   1.446   5.621  0.3358 -0.2789 -0.2448
  501MOL0     C66020   0.338   1.382   5.672  0.1347  0.2868 -0.1298
  501MOL0     C66021   0.315   1.405   5.824 -0.4771  0.6971 -0.4223
  501MOL0     C66022   0.177   1.383   5.869  0.0601  0.2119 -0.4588
  501MOL0     C66023   0.134   1.235   5.866  0.7366 -0.2188 -0.3970
  501MOL0     O66024  -0.009   1.221   5.862 -0.3787 -0.8906  0.0224
  501MOL0     C66025  -0.083   1.200   5.980  0.0575 -0.4414  0.5517
  501MOL0     C66026  -0.221   1.173   5.966  0.4473 -1.1105  1.0485
  501MOL0     C66027  -0.310   1.151   6.078  0.0778 -0.4283  0.2247
  501MOL0     C66028  -0.257   1.166   6.207  0.3002  0.5661  0.1070
  501MOL0     C66029  -0.355   1.147   6.308  0.4058 -0.1756  0.4527
  501MOL0     O66030  -0.487   1.183   6.282  0.7505  0.3718  0.5495
  501MOL0     C66031  -0.579   1.160   6.385 -1.2703  0.3389 -0.2851
  501MOL0     C66032  -0.577   1.228   6.503 -0.9704 -0.5147 -0.3531
  501MOL0     C66033  -0.667   1.198   6.604 -0.3372  0.9503 -0.2379
  501MOL0     C66034  -0.760   1.094   6.585 -0.0881  0.4826 -0.1213
  501MOL0     O66035  -0.862   1.057   6.674 -0.7748  0.5487 -0.3375
  501MOL0     C66036  -0.886   1.146   6.784 -0.3529 -0.1063  0.1035
  501MOL0     C66037  -0.994   1.105   6.886 -1.1892  0.0771 -0.0294
  501MOL0     C66038  -0.945   0.974   6.962 -0.7704  0.2966 -0.0292
  501MOL0     C66039  -1.061   0.910   7.043  0.8588  0.5970  0.5592
  501MOL0     C66040  -1.162   0.830   6.951 -0.3056  0.0361 -0.2264
  501MOL0     C66041  -1.231   0.714   7.027  0.2473 -0.1591  0.8616
  501MOL0     C66042  -1.293   0.753   7.165 -0.3328 -0.1421 -0.1672
  501MOL0     C66043  -1.385   0.635   7.199  0.1621 -0.5180 -0.1806
  501MOL0    Cl66044  -1.417   0.644   7.375 -0.1312  0.1811  0.4898
  501MOL0     C66045  -0.752   1.014   6.465  0.9342  0.8940  0.9588
  501MOL0     C66046  -0.666   1.048   6.367 -1.1859  0.4643 -0.4540
  501MOL0     O66047  -0.323   1.107   6.426  0.5434 -0.1412  0.3200
  501MOL0     C66048  -0.120   1.192   6.227  0.3060 -0.9437  0.2418
  501MOL0     C66049  -0.039   1.215   6.110 -0.6036 -0.3769 -0.1854
  501MOL0     N66050   0.559   1.498   5.704  0.7507 -0.8696  0.9197
  501MOL0     N66051   0.652   1.552   5.625  0.0015 -0.3321  0.1486
  501MOL0     C66052   1.592   1.470   4.872  0.0239 -0.9450 -0.1255
  501MOL0     C66053   1.727   1.482   4.857 -0.9971  0.0134 -0.3761
  501MOL0     C66054   2.159   1.619   4.977 -0.1801 -0.0455 -0.5143
  501MOL0     C66055   2.247   1.601   5.081  0.5288  0.5916 -0.0054
  501MOL0     C66056   2.378   1.642   5.067  0.0308  1.1255  0.2352
  501MOL0     C66057   2.433   1.680   4.954 -0.0021 -0.8108 -0.4984
  501MOL0     O66058   2.568   1.707   4.966 -0.0564 -0.0267  0.2635
  501MOL0     C66059   2.643   1.763   4.865  0.0855 -0.1641 -0.5662
  501MOL0     C66060   2.792   1.730   4.898  0.5109 -0.1445  0.1088
  501MOL0     C66061   2.882   1.721   4.781 -0.1669 -0.6030  0.3136
  501MOL0     C66062   3.025   1.690   4.826  0.6153 -0.3051 -0.7652
  501MOL0     C66063   3.112   1.636   4.718  0.0742  0.0440 -0.1103
  501MOL0     C66064   3.198   1.587   4.647 -0.4061  0.6864 -0.2806
  501MOL0     C66065   2.354   1.696   4.844 -0.4169  0.8801  0.1290
  501MOL0     C66066   2.219   1.672   4.859  0.4123 -0.0557  0.7211
  501MOL0     H66067   1.786   1.789   4.994 -0.2379  1.3269 -1.1566
  501MOL0     H66068   1.538   1.767   5.035  2.5445  1.0233  0.3971
  501MOL0     H66069   1.215   1.610   5.029  0.5570 -1.5327  0.1436
  501MOL0     H66070   1.356   1.689   5.089 -0.2834  0.5568 -1.0686
  501MOL0     H66071   1.419   1.435   5.166  0.3984  1.3515  1.9622
  501MOL0     H66072   1.265   1.392   5.099 -0.4053  0.3625 -0.2983
  501MOL0     H66073   1.278   1.583   5.338 -0.2231 -0.0859 -0.5306
  501MOL0     H66074   1.271   1.405   5.337 -0.6537 -0.3963  0.0394
  501MOL0     H66075   1.066   1.595   5.197  2.1073  1.2736  0.9455
  501MOL0     H66076   1.048   1.413   5.222  1.3715 -0.0933 -2.0245
  501MOL0     H66077   1.060   1.623   5.437 -2.1180 -0.5967  1.5768
  501MOL0     H66078   1.097   1.452   5.458 -0.8418 -0.5687 -1.0861
  501MOL0     H66079   0.869   1.475   5.514 -0.4574 -0.1768  0.4165
  501MOL0     H66080   0.871   1.398   5.355  1.3649 -1.6105  1.5947
  501MOL0     H66081   0.824   1.693   5.417  0.8935 -0.0045 -0.5610
  501MOL0     H66082   0.846   1.647   5.261  3.1238  0.2552  1.2629
  501MOL0     H66083   0.638   1.487   5.283  0.7932  2.8607 -3.8165
  501MOL0     H66084   0.590   1.650   5.313 -0.7408 -0.1053  1.7456
  501MOL0     H66085   0.438   1.420   5.409 -1.4454  1.0414 -0.4818
  501MOL0     H66086   0.341   1.278   5.639 -0.3275  0.3258 -0.2948
  501MOL0     H66087   0.252   1.414   5.614 -0.3499 -1.0066 -0.1582
  501MOL0     H66088   0.340   1.511   5.834  0.9798  0.3496 -0.2308
  501MOL0     H66089   0.380   1.340   5.882 -0.7086 -0.1203 -1.0589
  501MOL0     H66090   0.164   1.418   5.972 -1.2510  0.1757 -0.5970
  501MOL0     H66091   0.103   1.436   5.808  1.3649  0.9474 -1.4436
  501MOL0     H66092   0.170   1.181   5.954 -2.7278 -1.1226  0.6302
  501MOL0     H66093   0.166   1.181   5.777 -0.8539 -2.4453  0.3112
  501MOL0     H66094  -0.250   1.160   5.863 -1.1685 -0.5362  1.3941
  501MOL0     H66095  -0.412   1.124   6.051 -0.1975  2.4145 -1.9978
  501MOL0     H66096  -0.494   1.294   6.527 -2.1535  0.5458  0.9704
  501MOL0     H66097  -0.648   1.241   6.702  1.9332 -0.7330  0.1321
  501MOL0     H66098  -0.911   1.246   6.747  1.2534  0.2333 -0.1133
  501MOL0     H66099  -0.790   1.161   6.833  0.6935  1.6793 -2.3327
  501MOL0     H66100  -1.092   1.091   6.842 -0.1581 -2.2679 -1.8113
  501MOL0     H66101  -0.994   1.182   6.963  0.9415  0.0671  0.0525
  501MOL0     H66102  -0.865   0.999   7.032 -1.0324  3.3777 -0.6411
  501MOL0     H66103  -0.895   0.902   6.896 -3.3237 -1.4482 -0.2082
  501MOL0     H66104  -1.015   0.833   7.106 -0.6956  0.3309  1.4117
  501MOL0     H66105  -1.115   0.986   7.099 -1.4477 -1.8037  1.8483
  501MOL0     H66106  -1.121   0.787   6.859 -0.4139  0.9229 -0.6996
  501MOL0     H66107  -1.225   0.906   6.903 -0.6592 -0.9246 -1.3294
  501MOL0     H66108  -1.158   0.634   7.045  1.0894  0.9129  2.5073
  501MOL0     H66109  -1.319   0.684   6.970 -0.1996  4.0184 -1.0319
  501MOL0     H66110  -1.210   0.764   7.236  0.6807 -0.0904 -1.3302
  501MOL0     H66111  -1.331   0.855   7.167 -1.0363 -0.3912  1.8346
  501MOL0     H66112  -1.339   0.537   7.183 -0.4047 -1.1378  1.6999
  501MOL0     H66113  -1.480   0.644   7.145  0.2256  0.8155 -0.1139
  501MOL0     H66114  -0.824   0.934   6.451  0.4469  1.3700  0.7117
  501MOL0     H66115  -0.664   0.997   6.271 -1.4240 -0.5659  0.0791
  501MOL0     H66116  -0.076   1.202   6.326 -1.4768  0.9929  0.9116
  501MOL0     H66117   0.069   1.222   6.122 -0.7340  0.4078  0.6168
  501MOL0     H66118   1.536   1.390   4.825 -1.2837 -0.3654  0.4018
  501MOL0     H66119   1.779   1.404   4.801 -1.6205 -0.9210  0.3159
  501MOL0     H66120   2.218   1.558   5.176  1.4987 -0.0619  0.0086
  501MOL0     H66121   2.443   1.638   5.154 -1.7970  2.4039  1.7682
  501MOL0     H66122   2.635   1.871   4.878 -2.9048 -0.1501 -1.8318
  501MOL0     H66123   2.618   1.732   4.763  0.7133 -1.2517 -0.4079
  501MOL0     H66124   2.826   1.803   4.972  2.5112  1.1316 -1.9527
  501MOL0     H66125   2.801   1.628   4.938  4.1785  0.2397  0.6303
  501MOL0     H66126   2.894   1.817   4.729  1.8383 -1.4738 -0.9429
  501MOL0     H66127   2.837   1.651   4.710 -1.2385  0.9968 -0.6736
  501MOL0     H66128   3.065   1.783   4.866 -2.1715  0.7676 -0.2790
  501MOL0     H66129   3.029   1.627   4.915  0.3492  1.4138  0.5004
  501MOL0     H66130   3.259   1.537   4.575  0.2572 -0.9844  1.3573
  501MOL0     H66131   2.386   1.716   4.742 -1.6774  1.5116 -0.1722
  501MOL0     H66132   2.148   1.688   4.778  0.6267  0.2129  0.5875
  502MOL0     O66133   6.591   5.344   2.431 -0.1297  0.1373 -1.2832
  502MOL0     C66134   6.641   5.359   2.544  0.0650  0.0694  0.1406
  502MOL0     O66135   6.601   5.442   2.646 -0.0007  0.1302 -0.0891
  502MOL0     C66136   6.477   5.496   2.644 -0.3899  0.5080  0.9906
  502MOL0     C66137   6.361   5.433   2.703  0.2796 -0.6581  0.7759
  502MOL0     C66138   6.235   5.495   2.707 -0.9847  0.0945 -0.6060
  502MOL0     C66139   6.219   5.622   2.657 -0.4703 -1.7592  0.4190
  502MOL0     O66140   6.099   5.681   2.645  0.7735  0.4838  0.1124
  502MOL0     C66141   6.004   5.669   2.755 -0.4103  0.1319 -0.4293
  502MOL0     C66142   5.868   5.711   2.702 -0.6826  0.6286  0.6237
  502MOL0     C66143   5.748   5.678   2.804  0.0701 -0.4954  0.7048
  502MOL0     C66144   5.613   5.701   2.745  0.4862 -0.1694 -0.4799
  502MOL0     C66145   5.568   5.842   2.721  1.0740 -0.5105  0.0360
  502MOL0     C66146   5.419   5.866   2.777  0.7712  0.7535 -0.5516
  502MOL0     C66147   5.398   6.014   2.762  0.2106 -0.5488  0.3457
  502MOL0     C66148   5.386   6.061   2.617 -0.5519 -0.1428 -0.1238
  502MOL0     N66149   5.276   6.158   2.598 -0.0963 -0.0495 -0.0261
  502MOL0     C66150   5.152   6.119   2.572  0.0305 -0.0822  0.7017
  502MOL0     C66151   5.082   6.233   2.574 -0.2173  0.6707 -0.4898
  502MOL0     C66152   4.932   6.240   2.576 -0.5548  0.1858 -0.6423
  502MOL0     C66153   4.883   6.193   2.446  0.7933 -0.0885 -0.2765
  502MOL0     C66154   4.768   6.267   2.391  0.0020 -0.2164 -0.6168
  502MOL0     C66155   4.649   6.278   2.487  0.3187  0.1180  1.0264
  502MOL0     O66156   4.595   6.153   2.517 -1.0348  0.7618 -0.4702
  502MOL0     C66157   4.475   6.116   2.462  0.3337 -0.0253 -0.1322
  502MOL0     C66158   4.382   6.048   2.543 -0.9433  0.3383  0.5526
  502MOL0     C66159   4.264   5.998   2.488  0.3390 -0.5622  0.0941
  502MOL0     C66160   4.236   6.006   2.351 -0.5350 -0.9417  0.4316
  502MOL0     C66161   4.111   5.950   2.295 -0.0442  0.9986 -0.0564
  502MOL0     O66162   4.006   5.941   2.375  0.2448 -0.1299 -0.1716
  502MOL0     C66163   3.875   5.907   2.343  0.3494  0.7273  0.2659
  502MOL0     C66164   3.822   5.868   2.220  0.2127 -0.8942 -0.1780
  502MOL0     C66165   3.690   5.846   2.207  0.5645 -0.1607 -0.5953
  502MOL0     C66166   3.600   5.873   2.312  0.2578 -0.7998  0.2951
  502MOL0     O66167   3.465   5.858   2.305 -0.4702  1.2067  0.4329
  502MOL0     C66168   3.406   5.823   2.180 -0.1154  0.4327 -0.5248
  502MOL0     C66169   3.251   5.813   2.201 -0.3682  0.2507  0.1834
  502MOL0     C66170   3.166   5.770   2.086  0.1112  0.3059  0.2419
  502MOL0     C66171   3.195   5.624   2.052 -0.2020  0.5326 -0.1601
  502MOL0     C66172   3.165   5.575   1.913  0.0101 -0.5406 -0.2755
  502MOL0     C66173   3.172   5.427   1.903  0.2854 -0.2326 -0.8625
  502MOL0     C66174   3.144   5.371   1.770 -0.6045  0.8187 -0.0152
  502MOL0     C66175   3.066   5.237   1.779 -0.5620 -0.0711 -0.2737
  502MOL0    Cl66176   3.016   5.205   1.615  0.0927  0.2449 -0.1712
  502MOL0     C66177   3.651   5.922   2.431 -0.4270 -0.6353  0.2583
  502MOL0     C66178   3.789   5.935   2.447  0.2573 -0.5522 -0.5224
  502MOL0     O66179   4.108   5.929   2.175 -0.5220 -0.8099  0.1480
  502MOL0     C66180   4.329   6.076   2.271 -0.8611 -0.1551  0.2256
  502MOL0     C66181   4.445   6.136   2.331 -0.2305 -0.2062 -0.2988
  502MOL0     N66182   5.159   6.344   2.595  0.4426  0.5249  0.0515
  502MOL0     N66183   5.278   6.299   2.611 -0.0309  0.5980  0.2860
  502MOL0     C66184   6.330   5.681   2.586  0.3189 -0.1917  0.3161
  502MOL0     C66185   6.458   5.621   2.577 -0.1687 -0.7880  0.9543
  502MOL0     C66186   6.760   5.271   2.563  0.6055  0.2873  0.1119
  502MOL0     C66187   6.794   5.163   2.474  0.3137 -0.6523 -0.3023
  502MOL0     C66188   6.910   5.091   2.512  0.4952  0.4724  0.2635
  502MOL0     C66189   6.995   5.125   2.611 -0.2538  0.0142 -0.4347
  502MOL0     O66190   7.102   5.047   2.630 -0.0829  0.0759 -0.1206
  502MOL0     C66191   7.225   5.119   2.645 -1.4531  0.0131  0.1215
  502MOL0     C66192   7.342   5.024   2.615  0.4275  0.7627 -0.3372
  502MOL0     C66193   7.334   4.979   2.469 -0.6187  0.4514 -0.0315
  502MOL0     C66194   7.470   4.952   2.417  0.2423 -0.0103  0.3676
  502MOL0     C66195   7.556   4.860   2.502  0.6871 -0.3966 -0.4057
  502MOL0     C66196   7.613   4.788   2.574 -0.3790  0.0264 -1.4077
  502MOL0     C66197   6.966   5.232   2.696 -0.0709  0.1298  0.1471
  502MOL0     C66198   6.844   5.301   2.673  0.1953  0.2398 -0.3825
  502MOL0     H66199   6.382   5.330   2.732  2.2273 -0.4115  0.3712
  502MOL0     H66200   6.154   5.440   2.753  0.6352 -0.9425  1.1734
  502MOL0     H66201   6.025   5.732   2.842  0.0368  0.3910 -0.7228
  502MOL0     H66202   5.990   5.569   2.797  1.2882  0.0801  0.0506
  502MOL0     H66203   5.847   5.675   2.601 -0.8047  1.3405  0.3930
  502MOL0     H66204   5.883   5.819   2.694  2.6606  0.3293  1.1641
  502MOL0     H66205   5.763   5.745   2.889 -1.7684 -0.4095  0.9877
  502MOL0     H66206   5.757   5.579   2.849  0.7626 -0.8769 -0.2259
  502MOL0     H66207   5.604   5.639   2.655 -1.2888  0.4001 -0.7434
  502MOL0     H66208   5.545   5.660   2.821  0.3373  0.1640 -0.4329
  502MOL0     H66209   5.571   5.861   2.613  2.4666  0.3529  0.2048
  502MOL0     H66210   5.636   5.914   2.767  0.2340  0.4573 -0.2049
  502MOL0     H66211   5.417   5.828   2.879  1.4895 -0.4783 -0.9681
  502MOL0     H66212   5.347   5.820   2.708  0.0204  2.3502 -0.8934
  502MOL0     H66213   5.305   6.033   2.817  1.3349  1.2893  1.7635
  502MOL0     H66214   5.467   6.074   2.823  0.1584  0.6209 -0.7173
  502MOL0     H66215   5.364   5.982   2.545  0.3421  0.5991 -1.2457
  502MOL0     H66216   5.482   6.105   2.589 -0.6621 -0.6755 -1.4326
  502MOL0     H66217   5.108   6.021   2.557  0.2110  0.2981 -3.9026
  502MOL0     H66218   4.911   6.346   2.594 -0.7128  0.8485 -4.0191
  502MOL0     H66219   4.891   6.185   2.660  1.0172  2.1722  1.5547
  502MOL0     H66220   4.852   6.089   2.448 -1.1797  0.4541 -0.8088
  502MOL0     H66221   4.964   6.210   2.375 -1.1143 -0.2807 -2.6056
  502MOL0     H66222   4.809   6.363   2.358 -3.8559  1.6572 -0.5026
  502MOL0     H66223   4.723   6.225   2.301 -0.3845  1.9134 -1.4617
  502MOL0     H66224   4.576   6.346   2.441  0.6121  1.2392  2.1618
  502MOL0     H66225   4.681   6.339   2.572 -1.9450  2.8691  0.0568
  502MOL0     H66226   4.407   6.037   2.648 -1.6973 -1.5489  0.5749
  502MOL0     H66227   4.184   5.946   2.540  0.2346 -2.2182 -1.6193
  502MOL0     H66228   3.879   5.856   2.129 -2.9357 -0.8723 -2.3394
  502MOL0     H66229   3.642   5.803   2.120 -0.1313  0.2265 -0.4155
  502MOL0     H66230   3.449   5.730   2.143 -2.6529 -0.4241 -1.5430
  502MOL0     H66231   3.418   5.900   2.103 -1.4383 -0.7799 -2.0200
  502MOL0     H66232   3.222   5.915   2.227  1.4725  1.0528 -0.7163
  502MOL0     H66233   3.230   5.752   2.289 -1.4791 -1.3683 -1.1426
  502MOL0     H66234   3.175   5.840   2.002  0.1818  0.3075  0.2504
  502MOL0     H66235   3.059   5.776   2.107 -0.4132 -1.3587 -1.6702
  502MOL0     H66236   3.296   5.593   2.080 -0.9985  0.3415  2.8508
  502MOL0     H66237   3.130   5.576   2.126  0.3945  1.0317  0.7027
  502MOL0     H66238   3.219   5.615   1.828 -0.5931 -1.3654 -1.0653
  502MOL0     H66239   3.062   5.606   1.890  0.8025  1.6989 -1.0676
  502MOL0     H66240   3.096   5.393   1.974 -0.7241  1.3022 -1.1541
  502MOL0     H66241   3.275   5.400   1.929 -0.4616 -1.9749  0.5099
  502MOL0     H66242   3.076   5.442   1.722  0.3010  2.0028  0.4017
  502MOL0     H66243   3.242   5.365   1.723  0.1678  0.2687  1.5831
  502MOL0     H66244   2.972   5.235   1.835  0.1141 -0.0843  0.8989
  502MOL0     H66245   3.135   5.163   1.821  1.4277  2.4610  1.2621
  502MOL0     H66246   3.581   5.953   2.509 -1.1832  1.6638 -1.2284
  502MOL0     H66247   3.823   5.966   2.545  2.6383 -0.3127 -1.3561
  502MOL0     H66248   4.311   6.080   2.164  1.2617 -1.5569 -0.2511
  502MOL0     H66249   4.509   6.202   2.273  0.4636 -1.0229 -0.4898
  502MOL0     H66250   6.309   5.776   2.538 -0.9195 -0.7189 -0.2311
  502MOL0     H66251   6.537   5.669   2.520 -0.7779  0.8217  1.3895
  502MOL0     H66252   6.733   5.133   2.390 -0.0678  0.5409 -0.4739
  502MOL0     H66253   6.935   5.003   2.453  2.9622  1.0119  0.4099
  502MOL0     H66254   7.250   5.164   2.741  1.4075  0.2337 -0.6450
  502MOL0     H66255   7.221   5.194   2.565 -2.3007  0.7740  0.8601
  502MOL0     H66256   7.435   5.079   2.634  1.1467 -1.0772  2.0301
  502MOL0     H66257   7.326   4.939   2.683  0.0779  1.4575  0.4574
  502MOL0     H66258   7.291   5.061   2.410 -0.5115  1.7667  1.6365
  502MOL0     H66259   7.270   4.890   2.462 -1.6012  1.2089 -1.2076
  502MOL0     H66260   7.453   4.912   2.316 -3.1876 -0.0657  0.8583
  502MOL0     H66261   7.527   5.045   2.414 -1.3610  1.0514  1.3050
  502MOL0     H66262   7.671   4.713   2.624 -1.0422  1.5147  1.8527
  502MOL0     H66263   7.033   5.280   2.767  0.2143 -0.0029 -0.0309
  502MOL0     H66264   6.816   5.376   2.746  2.3206  2.4885 -1.7321
  503MOL0     O66265   3.828   7.097   0.817 -0.0652  0.2523  0.1762
  503MOL0     C66266   3.862   7.121   0.933  0.0547  0.0256  0.9664
  503MOL0     O66267   3.782   7.124   1.048  0.7937 -0.7232  0.1055
  503MOL0     C66268   3.644   7.133   1.053 -0.1868 -0.0390 -0.2130
  503MOL0     C66269   3.597   7.129   1.179  0.6607  0.1159 -1.0301
  503MOL0     C66270   3.459   7.129   1.202  0.4997  0.4833  1.2213
  503MOL0     C66271   3.373   7.136   1.091  0.1400  0.6082 -0.2862
  503MOL0     O66272   3.237   7.123   1.106 -0.1412  0.8245 -0.1740
  503MOL0     C66273   3.190   7.123   1.240  0.0497 -0.5139  0.0367
  503MOL0     C66274   3.037   7.103   1.244  0.4204  0.1294  0.1231
  503MOL0     C66275   2.993   6.959   1.214  0.5159 -0.4416  0.2448
  503MOL0     C66276   2.841   6.939   1.201 -0.1909 -0.3328  0.1797
  503MOL0     C66277   2.814   6.787   1.153 -0.1578 -0.4594 -0.0407
  503MOL0     C66278   2.667   6.750   1.180 -0.2481 -0.0152  0.2252
  503MOL0     C66279   2.616   6.633   1.095 -0.5371  0.2238  0.5240
  503MOL0     C66280   2.514   6.552   1.159 -0.3596  0.7951 -1.1167
  503MOL0     N66281   2.490   6.426   1.099  0.0332  0.7294 -0.2939
  503MOL0     C66282   2.432   6.401   0.978  0.0539  0.3382 -0.8438
  503MOL0     C66283   2.440   6.266   0.962  0.5312  0.3783  0.0119
  503MOL0     C66284   2.362   6.195   0.854 -0.4734 -0.1140  0.0946
  503MOL0     C66285   2.208   6.210   0.879 -0.0667 -0.3522  1.1120
  503MOL0     C66286   2.125   6.164   0.757  0.0082  0.0529 -0.0899
  503MOL0     C66287   1.975   6.199   0.756  0.7850  0.3591  0.5203
  503MOL0     O66288   1.909   6.183   0.879 -0.3015 -0.5765  0.5635
  503MOL0     C66289   1.763   6.164   0.856  0.2637 -0.4425  0.3121
  503MOL0     C66290   1.684   6.231   0.752 -0.7049  0.0795  0.2872
  503MOL0     C66291   1.543   6.232   0.759  0.5668  0.0146 -0.1452
  503MOL0     C66292   1.483   6.142   0.852  0.1590 -0.6314  0.1875
  503MOL0     C66293   1.338   6.127   0.858 -0.1619 -0.4083  0.0291
  503MOL0     O66294   1.263   6.235   0.809  0.3623  0.2952  0.4495
  503MOL0     C66295   1.127   6.228   0.808 -1.2568 -0.1123 -0.0526
  503MOL0     C66296   1.052   6.166   0.713  0.3014  0.2529  0.5798
  503MOL0     C66297   0.913   6.162   0.723 -0.0206 -0.8257  0.3043
  503MOL0     C66298   0.842   6.254   0.809  0.0356  0.3877 -0.6845
  503MOL0     O66299   0.710   6.262   0.824 -0.4160 -0.5703  0.1616
  503MOL0     C66300   0.637   6.247   0.702 -0.4953 -1.5484  0.2615
  503MOL0     C66301   0.493   6.289   0.718  0.5844  0.7112 -0.8221
  503MOL0     C66302   0.414   6.269   0.591 -0.1380  0.2219  0.3654
  503MOL0     C66303   0.274   6.224   0.637 -0.1661  0.2223 -0.7380
  503MOL0     C66304   0.191   6.200   0.508  0.2916 -0.0389 -0.1639
  503MOL0     C66305   0.057   6.145   0.550  0.3718  0.0272  0.4072
  503MOL0     C66306  -0.042   6.101   0.432 -0.4462 -0.2383 -0.3860
  503MOL0     C66307  -0.165   6.045   0.492  1.3006  0.0777  0.0651
  503MOL0    Cl66308  -0.164   5.899   0.593 -0.4214 -0.0076  0.0032
  503MOL0     C66309   0.925   6.321   0.906  0.6459  0.2736  0.8844
  503MOL0     C66310   1.067   6.302   0.904 -0.1408 -0.0434 -0.6291
  503MOL0     O66311   1.291   6.023   0.893 -0.0085 -0.5048  0.1558
  503MOL0     C66312   1.560   6.068   0.938 -0.0263 -0.0623 -0.1179
  503MOL0     C66313   1.698   6.075   0.944 -0.2422 -0.2028  0.2855
  503MOL0     N66314   2.510   6.219   1.073 -0.1943 -0.4893  0.2992
  503MOL0     N66315   2.542   6.310   1.158  0.5362 -0.3551  0.0727
  503MOL0     C66316   3.423   7.152   0.964  0.3871 -0.4558  0.1700
  503MOL0     C66317   3.556   7.166   0.942  0.6354  0.2113 -0.2582
  503MOL0     C66318   4.010   7.157   0.967  0.5274  0.1578 -1.2101
  503MOL0     C66319   4.103   7.185   0.866  0.4183  0.7150 -0.6238
  503MOL0     C66320   4.234   7.219   0.901 -0.7609 -1.5027  0.3544
  503MOL0     C66321   4.279   7.231   1.028 -0.8139 -0.2433 -0.0048
  503MOL0     O66322   4.412   7.264   1.052  0.6527  0.3376  0.1351
  503MOL0     C66323   4.426   7.368   1.143 -0.4499  0.1824 -0.0283
  503MOL0     C66324   4.544   7.448   1.089  0.4585 -0.8507  0.2611
  503MOL0     C66325   4.561   7.590   1.151  2.1501 -0.2054  0.3474
  503MOL0     C66326   4.656   7.661   1.064 -0.2278 -0.1683  0.1025
  503MOL0     C66327   4.591   7.707   0.943 -0.6344 -0.8327 -0.1559
  503MOL0     C66328   4.541   7.747   0.842 -0.0560  0.6158  0.6048
  503MOL0     C66329   4.190   7.195   1.127  0.5579  0.1920 -0.9608
  503MOL0     C66330   4.054   7.167   1.102  0.5793 -0.5067 -0.5579
  503MOL0     H66331   3.664   7.115   1.264 -0.7875 -1.6913 -0.1164
  503MOL0     H66332   3.426   7.117   1.304 -1.6024 -0.8102  0.4604
  503MOL0     H66333   3.223   7.212   1.295  0.5400 -2.2251  2.6730
  503MOL0     H66334   3.233   7.037   1.291  4.1777  1.7321  0.8170
  503MOL0     H66335   2.987   7.165   1.169  3.3316 -1.1631 -3.1493
  503MOL0     H66336   3.000   7.134   1.342  2.4242  0.5289  0.7969
  503MOL0     H66337   3.032   6.891   1.291 -1.9234 -1.3639  0.7413
  503MOL0     H66338   3.028   6.931   1.114 -1.4067  1.9930 -1.2162
  503MOL0     H66339   2.789   6.938   1.297 -2.2705 -4.0234 -0.7712
  503MOL0     H66340   2.806   7.012   1.127  0.7238  1.0487  1.0613
  503MOL0     H66341   2.876   6.717   1.210 -0.5582  1.1635  2.5361
  503MOL0     H66342   2.835   6.778   1.046 -1.6896 -1.0178 -0.3270
  503MOL0     H66343   2.601   6.835   1.163  0.3955  0.7031  1.1367
  503MOL0     H66344   2.658   6.729   1.287 -2.4923  1.2790  0.3475
  503MOL0     H66345   2.581   6.674   1.000  2.2100  2.6151  0.4010
  503MOL0     H66346   2.702   6.566   1.085  0.0598  1.0918 -0.3042
  503MOL0     H66347   2.420   6.607   1.146  0.3631  2.2054 -0.5754
  503MOL0     H66348   2.531   6.536   1.266 -0.6777  0.6740 -1.0837
  503MOL0     H66349   2.380   6.478   0.922  2.2288  2.1915 -0.4505
  503MOL0     H66350   2.388   6.089   0.848 -0.0346 -0.0106  0.1691
  503MOL0     H66351   2.398   6.235   0.759  1.4928 -1.6209  0.1562
  503MOL0     H66352   2.190   6.315   0.904  1.7431  0.6209 -1.2781
  503MOL0     H66353   2.178   6.151   0.966 -0.2810 -0.4123  0.9967
  503MOL0     H66354   2.184   6.195   0.671  3.6537 -3.7072  0.7155
  503MOL0     H66355   2.119   6.055   0.761 -0.2349  0.0489 -0.5031
  503MOL0     H66356   1.925   6.141   0.677 -0.1846  1.8472 -0.0127
  503MOL0     H66357   1.974   6.306   0.731 -3.1958  0.0291 -1.6011
  503MOL0     H66358   1.731   6.304   0.688  1.7461 -2.3228 -0.8175
  503MOL0     H66359   1.477   6.297   0.702 -0.6447 -1.0733 -0.0288
  503MOL0     H66360   1.099   6.128   0.623 -0.5700  1.1226 -0.2690
  503MOL0     H66361   0.860   6.107   0.646  2.3726 -1.7673 -0.7772
  503MOL0     H66362   0.650   6.145   0.665 -2.1747 -1.2799 -1.2286
  503MOL0     H66363   0.674   6.318   0.627 -1.1898 -1.5230 -0.0678
  503MOL0     H66364   0.505   6.395   0.744  2.3781  0.5608 -0.9018
  503MOL0     H66365   0.452   6.229   0.800  1.4624 -1.4123 -1.8545
  503MOL0     H66366   0.454   6.191   0.524  2.2774  1.2515  0.5316
  503MOL0     H66367   0.406   6.362   0.534 -0.3563 -0.7246 -1.2390
  503MOL0     H66368   0.282   6.140   0.706  1.8852 -0.0407 -1.2335
  503MOL0     H66369   0.235   6.307   0.696  1.3448  1.2704 -1.1530
  503MOL0     H66370   0.234   6.132   0.435 -1.3393 -2.8122  1.2650
  503MOL0     H66371   0.177   6.301   0.470 -1.0516 -0.6643 -1.4334
  503MOL0     H66372   0.002   6.222   0.605 -1.6750 -0.9166 -0.2423
  503MOL0     H66373   0.069   6.059   0.618 -0.4871 -1.6093 -1.4052
  503MOL0     H66374  -0.067   6.188   0.369  0.4804  0.6639  0.4643
  503MOL0     H66375   0.007   6.026   0.369 -0.2270 -1.0888  0.7797
  503MOL0     H66376  -0.228   6.011   0.410  0.5156 -2.9154  1.7710
  503MOL0     H66377  -0.223   6.127   0.536  1.5021  0.0009  0.4778
  503MOL0     H66378   0.881   6.367   0.994  4.3599  3.0427  1.5208
  503MOL0     H66379   1.124   6.341   0.988  0.3774 -1.5162 -0.2725
  503MOL0     H66380   1.526   5.985   0.999  0.7270  0.7807  1.5155
  503MOL0     H66381   1.748   6.017   1.021  0.3532 -0.3707 -0.2269
  503MOL0     H66382   3.355   7.143   0.880  1.6980 -2.4780 -0.7400
  503MOL0     H66383   3.589   7.174   0.839  1.0617 -1.1225 -0.2476
  503MOL0     H66384   4.069   7.163   0.765 -1.4808  1.9674 -0.3014
  503MOL0     H66385   4.308   7.232   0.823  1.8954 -1.5039  2.7067
  503MOL0     H66386   4.458   7.332   1.241 -0.1070  0.9526  0.1477
  503MOL0     H66387   4.338   7.431   1.155 -1.2934 -1.0239  0.2839
  503MOL0     H66388   4.631   7.388   1.118  2.3465 -0.0170 -3.0719
  503MOL0     H66389   4.539   7.458   0.980  0.8337  1.2241  0.3920
  503MOL0     H66390   4.591   7.574   1.255  0.3734  2.3666  1.3630
  503MOL0     H66391   4.466   7.643   1.160  2.1277  0.2192 -1.9780
  503MOL0     H66392   4.680   7.748   1.126 -0.7259 -0.7201  1.1094
  503MOL0     H66393   4.745   7.601   1.045  0.8011  1.7277 -1.4458
  503MOL0     H66394   4.484   7.772   0.755  0.0847  1.7462  0.8336
  503MOL0     H66395   4.236   7.188   1.225 -0.2798 -0.0828 -0.5772
  503MOL0     H66396   3.977   7.138   1.173  1.2965  0.4730  0.6466
  504MOL0     O66397   4.967   5.082   2.006 -0.4727  0.3441  0.0326
  504MOL0     C66398   4.955   5.051   2.125  0.1239 -0.6866  0.5694
  504MOL0     O66399   4.844   5.047   2.193  0.1584  0.0799 -0.5174
  504MOL0     C66400   4.732   5.104   2.149  0.0724  0.5493 -0.6803
  504MOL0     C66401   4.715   5.235   2.118 -0.3732  0.2677  0.4239
  504MOL0     C66402   4.598   5.297   2.074 -0.2359 -0.7119  0.3063
  504MOL0     C66403   4.483   5.212   2.058  0.1612  0.5381 -0.7254
  504MOL0     O66404   4.372   5.242   1.996  0.2554  0.0874 -0.1781
  504MOL0     C66405   4.368   5.370   1.921 -0.0353 -0.0445 -0.4277
  504MOL0     C66406   4.344   5.501   2.008  0.5867 -0.4891 -0.4068
  504MOL0     C66407   4.271   5.477   2.140 -0.2806 -0.6963 -0.4819
  504MOL0     C66408   4.254   5.612   2.211 -0.0097  0.5064 -0.7073
  504MOL0     C66409   4.384   5.677   2.268 -1.2220 -0.3581  0.1268
  504MOL0     C66410   4.444   5.604   2.396 -0.5679  0.4344  0.3771
  504MOL0     C66411   4.582   5.637   2.429  0.6015 -0.1319  0.8446
  504MOL0     C66412   4.584   5.764   2.505  0.4479  0.3979 -0.1471
  504MOL0     N66413   4.721   5.755   2.557  0.0246 -0.4261 -0.2680
  504MOL0     C66414   4.760   5.749   2.686  0.2907 -0.6891  0.5300
  504MOL0     C66415   4.898   5.750   2.683 -0.3398 -0.8722  0.5207
  504MOL0     C66416   5.001   5.732   2.793 -0.3684 -0.1286 -0.4565
  504MOL0     C66417   4.987   5.828   2.913 -0.0549  0.2055 -0.1768
  504MOL0     C66418   4.974   5.979   2.862 -1.2988  0.2085 -0.1389
  504MOL0     C66419   4.975   6.079   2.984 -0.7709  0.3929 -0.2980
  504MOL0     O66420   4.861   6.073   3.074 -0.5100 -0.1756 -0.2623
  504MOL0     C66421   4.734   6.094   3.031  0.3162  0.5030  0.4311
  504MOL0     C66422   4.628   6.065   3.109  0.5278 -0.2330  0.4752
  504MOL0     C66423   4.499   6.091   3.080  0.3616  0.1772 -0.2596
  504MOL0     C66424   4.460   6.150   2.956 -0.5746  0.2051  0.7078
  504MOL0     C66425   4.321   6.186   2.927  0.7617  0.4341 -0.2674
  504MOL0     O66426   4.295   6.211   2.787 -0.4177 -0.0091 -0.9201
  504MOL0     C66427   4.163   6.231   2.754 -0.0959 -0.0944  0.1517
  504MOL0     C66428   4.142   6.358   2.691 -0.0712  0.4898 -0.0524
  504MOL0     C66429   4.014   6.391   2.654 -0.0634 -0.2208 -0.0072
  504MOL0     C66430   3.906   6.304   2.674 -0.1304 -0.1398  0.6137
  504MOL0     O66431   3.786   6.346   2.620 -0.3586  0.8676  0.3436
  504MOL0     C66432   3.668   6.283   2.666  0.7453  1.0890  0.2559
  504MOL0     C66433   3.547   6.322   2.582  0.8481  0.1995  0.0950
  504MOL0     C66434   3.430   6.225   2.592  0.8944  0.8522 -0.2502
  504MOL0     C66435   3.316   6.271   2.504 -0.4091  0.3466 -0.2917
  504MOL0     C66436   3.194   6.185   2.542  0.5067 -0.3308  0.6232
  504MOL0     C66437   3.093   6.188   2.425 -0.3779 -0.4177 -0.2360
  504MOL0     C66438   2.955   6.131   2.472  0.3657 -0.2341  0.1392
  504MOL0     C66439   2.861   6.131   2.354  0.0753 -0.4195 -0.1469
  504MOL0    Cl66440   2.896   5.995   2.246 -0.3109  0.0404  0.0571
  504MOL0     C66441   3.933   6.175   2.730 -0.3619  0.6450  0.5475
  504MOL0     C66442   4.065   6.136   2.763  0.7627  0.7127 -0.0930
  504MOL0     O66443   4.236   6.208   3.016  0.3902  0.7491 -0.5347
  504MOL0     C66444   4.569   6.189   2.873  0.4630  0.6522 -0.1018
  504MOL0     C66445   4.698   6.168   2.917 -0.6293 -0.2077 -0.9093
  504MOL0     N66446   4.936   5.750   2.553  0.0209 -0.4035  0.7407
  504MOL0     N66447   4.833   5.763   2.477  0.4086  0.0582 -0.0315
  504MOL0     C66448   4.495   5.078   2.092 -0.4499  0.4650  0.5269
  504MOL0     C66449   4.619   5.027   2.142  0.9353  0.8207 -0.5451
  504MOL0     C66450   5.079   5.013   2.206  0.0958  0.7817  0.5464
  504MOL0     C66451   5.070   4.994   2.353  0.6131  0.1984 -0.0726
  504MOL0     C66452   5.187   4.991   2.427  0.5947  0.5582  0.2233
  504MOL0     C66453   5.315   5.003   2.368  0.6220  0.8141 -0.4229
  504MOL0     O66454   5.418   4.991   2.457 -0.3812  0.2984 -0.3934
  504MOL0     C66455   5.558   4.996   2.425 -0.5475  0.0858 -0.1168
  504MOL0     C66456   5.601   4.846   2.417 -0.2540  0.1874 -0.4277
  504MOL0     C66457   5.757   4.835   2.446  0.5429  0.1725  0.1792
  504MOL0     C66458   5.804   4.821   2.594 -0.0382  0.0393 -0.0426
  504MOL0     C66459   5.947   4.790   2.607 -0.6644 -0.6059 -0.3828
  504MOL0     C66460   6.067   4.758   2.628  0.0649  0.1546 -0.4836
  504MOL0     C66461   5.323   5.009   2.225  0.5550  0.0844  0.8450
  504MOL0     C66462   5.202   5.010   2.155  0.2409 -0.8623 -0.2491
  504MOL0     H66463   4.799   5.304   2.124 -0.3742  0.4076 -0.8025
  504MOL0     H66464   4.599   5.403   2.052  0.2246 -0.2679  2.2572
  504MOL0     H66465   4.276   5.359   1.863 -0.4225 -1.9344  0.4699
  504MOL0     H66466   4.449   5.391   1.851 -0.4051 -0.6733 -1.0536
  504MOL0     H66467   4.285   5.569   1.946  2.3853  0.6586 -0.9266
  504MOL0     H66468   4.441   5.548   2.025 -0.3787  1.4493 -0.0121
  504MOL0     H66469   4.328   5.403   2.196  1.8777 -1.9026 -3.9091
  504MOL0     H66470   4.171   5.443   2.113 -1.1625  1.5635 -0.2689
  504MOL0     H66471   4.204   5.680   2.142 -0.1831 -0.3136 -1.4051
  504MOL0     H66472   4.181   5.606   2.292  0.8779  1.2369  0.1815
  504MOL0     H66473   4.357   5.779   2.298  1.1636  0.0925  0.9685
  504MOL0     H66474   4.457   5.687   2.187 -0.5863 -2.6715  0.3409
  504MOL0     H66475   4.438   5.496   2.380 -0.7762  0.2455  1.6414
  504MOL0     H66476   4.378   5.635   2.478 -1.6930 -0.5563 -0.1200
  504MOL0     H66477   4.621   5.550   2.481 -1.5940 -1.9564 -0.3969
  504MOL0     H66478   4.644   5.649   2.339  1.4011  0.3524  1.4510
  504MOL0     H66479   4.508   5.771   2.583  1.8284 -2.7285  1.6412
  504MOL0     H66480   4.562   5.850   2.441 -0.8355  0.7539  0.7257
  504MOL0     H66481   4.699   5.721   2.772  0.8782 -1.8928  0.5703
  504MOL0     H66482   5.093   5.764   2.742  1.2122 -1.9686  1.0665
  504MOL0     H66483   5.010   5.627   2.822 -0.3915 -0.0504 -0.1635
  504MOL0     H66484   5.079   5.824   2.973  1.0970 -1.9340 -1.9491
  504MOL0     H66485   4.900   5.801   2.974 -0.4954  0.6563 -0.5944
  504MOL0     H66486   5.064   5.998   2.803 -0.5283 -2.4876  0.0256
  504MOL0     H66487   4.886   5.991   2.797 -0.2496  2.2964 -1.2548
  504MOL0     H66488   4.986   6.178   2.938  1.7452 -0.5820 -2.0241
  504MOL0     H66489   5.063   6.047   3.042 -1.7122 -0.2697  0.8101
  504MOL0     H66490   4.655   6.015   3.202  4.8998  2.5758  0.9789
  504MOL0     H66491   4.426   6.062   3.156  1.4290  0.9890  1.1360
  504MOL0     H66492   4.225   6.429   2.691 -0.7071  1.3195 -2.1176
  504MOL0     H66493   3.994   6.493   2.626 -0.8245  0.5197  2.8849
  504MOL0     H66494   3.645   6.324   2.764  1.9387 -0.8601  1.4021
  504MOL0     H66495   3.691   6.176   2.661 -0.2494  0.8845 -0.4833
  504MOL0     H66496   3.587   6.323   2.480  2.3141 -3.4082  0.4896
  504MOL0     H66497   3.520   6.421   2.619  2.4370  0.4601  0.6277
  504MOL0     H66498   3.389   6.229   2.694  1.6906  0.6172  0.0845
  504MOL0     H66499   3.465   6.126   2.564 -3.1272 -0.4343 -1.4038
  504MOL0     H66500   3.296   6.378   2.506  2.1581  1.0040 -2.6991
  504MOL0     H66501   3.340   6.250   2.399 -0.8698 -1.5487 -0.0482
  504MOL0     H66502   3.150   6.205   2.640 -0.3757  1.9188 -0.1554
  504MOL0     H66503   3.236   6.084   2.543  1.9535  0.1646 -1.4825
  504MOL0     H66504   3.142   6.121   2.354  1.2068 -0.3499  0.7365
  504MOL0     H66505   3.096   6.289   2.384 -0.0403  0.4659  1.8314
  504MOL0     H66506   2.968   6.025   2.495 -0.4877 -0.4130 -0.1682
  504MOL0     H66507   2.897   6.184   2.548 -1.9361 -1.2758 -0.8228
  504MOL0     H66508   2.862   6.229   2.305 -1.0516  0.9819  2.4537
  504MOL0     H66509   2.759   6.122   2.390  0.6515 -1.7137  1.2731
  504MOL0     H66510   3.857   6.105   2.763 -0.6234  0.4451 -0.4577
  504MOL0     H66511   4.091   6.037   2.798  0.4111  0.6452 -0.0280
  504MOL0     H66512   4.546   6.245   2.783 -1.7136 -2.1227 -1.3928
  504MOL0     H66513   4.788   6.199   2.865  0.4710 -0.7878  0.5508
  504MOL0     H66514   4.418   5.003   2.074 -0.7782  0.5028  1.7166
  504MOL0     H66515   4.632   4.922   2.164 -0.7714  1.0099  1.7725
  504MOL0     H66516   4.976   4.997   2.407 -0.4558  2.6272 -1.8928
  504MOL0     H66517   5.193   4.966   2.532 -0.7203 -2.1667 -0.2610
  504MOL0     H66518   5.608   5.047   2.508 -0.5848 -0.2871  0.1389
  504MOL0     H66519   5.588   5.053   2.337  0.4067  2.6317  1.7499
  504MOL0     H66520   5.537   4.794   2.489 -0.2835 -0.2639 -0.7711
  504MOL0     H66521   5.562   4.817   2.318 -3.1281  0.3644  0.5582
  504MOL0     H66522   5.810   4.917   2.398 -2.3858  1.2875 -1.4185
  504MOL0     H66523   5.808   4.754   2.393  0.0036  0.0773 -0.2073
  504MOL0     H66524   5.781   4.911   2.652 -2.6376 -0.7724  0.3010
  504MOL0     H66525   5.759   4.732   2.638  1.8969 -1.4680 -0.9560
  504MOL0     H66526   6.169   4.732   2.642 -0.2073 -0.6436  0.0514
  504MOL0     H66527   5.419   5.031   2.180  0.1186  0.8287  0.2515
  504MOL0     H66528   5.215   5.016   2.047  2.4187  4.7720 -0.0344
  505MOL0     O66529   2.935   6.892   6.582 -0.3820 -0.0191 -0.0069
  505MOL0     C66530   2.999   6.890   6.473  0.9984  0.1988  0.9627
  505MOL0     O66531   2.946   6.831   6.361  0.4883  0.1471  0.2846
  505MOL0     C66532   2.817   6.797   6.352  0.2989 -0.3090 -0.6916
  505MOL0     C66533   2.781   6.681   6.289  0.5101  0.5626  0.0201
  505MOL0     C66534   2.642   6.646   6.284 -0.2725  0.2726  0.1068
  505MOL0     C66535   2.537   6.729   6.332 -0.8368 -0.4352  0.4699
  505MOL0     O66536   2.408   6.682   6.331 -0.5613 -0.3900 -0.4145
  505MOL0     C66537   2.303   6.765   6.365  0.1480 -0.3477 -0.3037
  505MOL0     C66538   2.179   6.699   6.322 -0.1718  0.0275  0.5379
  505MOL0     C66539   2.069   6.761   6.410 -0.2018  0.2114  0.5879
  505MOL0     C66540   1.924   6.737   6.353  0.0147 -0.4135 -0.2955
  505MOL0     C66541   1.826   6.819   6.428  0.5499  0.1014  0.3871
  505MOL0     C66542   1.815   6.959   6.393 -0.0743 -0.6386  0.7771
  505MOL0     C66543   1.706   7.036   6.469  0.8110  0.0944 -0.0626
  505MOL0     C66544   1.759   7.099   6.592  0.1549 -0.3595 -0.7639
  505MOL0     N66545   1.843   7.013   6.682 -0.4943  0.1353  0.0940
  505MOL0     C66546   1.983   6.998   6.677  0.6441  0.7988  0.9368
  505MOL0     C66547   2.017   6.921   6.781 -0.2576 -0.4893 -0.3342
  505MOL0     C66548   2.155   6.913   6.835  0.6075 -0.2798 -0.0125
  505MOL0     C66549   2.162   6.986   6.974  0.4502 -0.1661  0.2923
  505MOL0     C66550   2.307   6.954   7.019  0.0123 -0.2355  0.9692
  505MOL0     C66551   2.323   7.018   7.153  0.0149  0.3223 -0.6542
  505MOL0     O66552   2.467   7.024   7.181  0.7729  0.2441  0.8146
  505MOL0     C66553   2.543   7.134   7.146  0.3262 -0.3540 -0.4334
  505MOL0     C66554   2.497   7.231   7.058 -0.5256 -0.2884  0.4646
  505MOL0     C66555   2.570   7.352   7.030  0.1965 -0.1168 -0.5310
  505MOL0     C66556   2.695   7.374   7.088  1.1291 -0.0054  0.0863
  505MOL0     C66557   2.766   7.496   7.058  0.0099 -0.0232  0.7164
  505MOL0     O66558   2.895   7.492   7.118  0.2877  0.1662  0.3504
  505MOL0     C66559   2.993   7.588   7.095  0.6001 -0.2831 -0.3033
  505MOL0     C66560   3.128   7.539   7.091 -0.0330  0.8108 -0.5817
  505MOL0     C66561   3.234   7.626   7.068 -0.3037  0.6791 -0.7035
  505MOL0     C66562   3.209   7.761   7.064  0.2300  0.5536  0.2228
  505MOL0     O66563   3.325   7.833   7.071 -0.3702  0.0993 -0.4701
  505MOL0     C66564   3.307   7.978   7.065 -0.6637 -0.1448 -0.3208
  505MOL0     C66565   3.437   8.039   7.036 -0.2940 -0.1402 -0.5985
  505MOL0     C66566   3.531   8.050   7.157 -0.1411  0.4458  0.0344
  505MOL0     C66567   3.634   7.943   7.183  0.1167  0.1437 -0.1708
  505MOL0     C66568   3.725   7.982   7.307  0.2681 -0.5770 -0.0464
  505MOL0     C66569   3.787   8.126   7.301  0.4366 -0.5600  0.2575
  505MOL0     C66570   3.876   8.136   7.426 -0.2849 -0.3133  0.0969
  505MOL0     C66571   3.919   8.279   7.461  0.6021 -0.0428  0.0131
  505MOL0    Cl66572   4.026   8.349   7.332  0.2911  0.0614 -0.2230
  505MOL0     C66573   3.076   7.812   7.061 -0.2511  0.1808  0.8571
  505MOL0     C66574   2.968   7.723   7.076  0.0605  1.1584  0.2205
  505MOL0     O66575   2.718   7.581   6.988 -0.2303 -0.0748 -0.6133
  505MOL0     C66576   2.741   7.266   7.168 -0.5714  0.1314  0.0110
  505MOL0     C66577   2.665   7.152   7.203  0.3591  0.4556 -0.0351
  505MOL0     N66578   1.898   6.882   6.834  0.4768 -0.6220 -0.8188
  505MOL0     N66579   1.797   6.940   6.789  0.8297 -0.6392 -0.3816
  505MOL0     C66580   2.577   6.854   6.392 -0.5662 -1.1979  0.0572
  505MOL0     C66581   2.714   6.888   6.394  0.1280  0.9862  0.7786
  505MOL0     C66582   3.140   6.931   6.469  1.0255 -0.0769 -0.0349
  505MOL0     C66583   3.227   6.901   6.358  0.2153  0.5599  0.1779
  505MOL0     C66584   3.362   6.941   6.368  0.3699 -0.2350  0.2318
  505MOL0     C66585   3.409   7.018   6.479  0.3855  0.2144 -0.4135
  505MOL0     O66586   3.537   7.056   6.479  1.2127 -0.0834  0.4165
  505MOL0     C66587   3.601   7.122   6.586  0.7200  0.0024  0.3578
  505MOL0     C66588   3.748   7.145   6.537 -0.0801  0.3819 -0.2855
  505MOL0     C66589   3.834   7.202   6.645 -0.5732 -0.4062  0.0943
  505MOL0     C66590   3.983   7.212   6.602  1.2264 -0.5838  1.0085
  505MOL0     C66591   4.031   7.075   6.567  0.1481  0.3654 -0.8933
  505MOL0     C66592   4.073   6.969   6.542  0.4563  0.3380 -0.2288
  505MOL0     C66593   3.310   7.047   6.575  0.1757  0.2428 -0.9493
  505MOL0     C66594   3.177   7.014   6.572 -0.1217 -0.4115 -0.3308
  505MOL0     H66595   2.854   6.609   6.254 -0.6664  0.3790 -2.2785
  505MOL0     H66596   2.623   6.543   6.255  1.7644  0.0944 -0.7750
  505MOL0     H66597   2.315   6.858   6.307  2.9391 -0.6749 -0.3924
  505MOL0     H66598   2.300   6.790   6.471 -0.4158 -1.6533  0.0094
  505MOL0     H66599   2.184   6.591   6.340  1.0506  0.0654  0.4930
  505MOL0     H66600   2.167   6.718   6.215  2.1502 -1.4661 -0.0694
  505MOL0     H66601   2.079   6.869   6.420  3.2064 -0.1212  2.1196
  505MOL0     H66602   2.077   6.709   6.506  0.2527  2.3599  1.7743
  505MOL0     H66603   1.913   6.760   6.246 -0.5616  0.1002 -0.1299
  505MOL0     H66604   1.884   6.636   6.362  0.6381 -0.4769  3.1361
  505MOL0     H66605   1.846   6.801   6.533  2.2312  0.7004  0.1939
  505MOL0     H66606   1.726   6.778   6.411  0.6348 -0.0834  0.3291
  505MOL0     H66607   1.805   6.971   6.284 -0.3761  0.6427  0.9307
  505MOL0     H66608   1.908   7.014   6.411 -0.2834 -0.5940  1.7343
  505MOL0     H66609   1.671   7.116   6.403 -2.3198 -0.4637  0.7419
  505MOL0     H66610   1.627   6.968   6.500  1.3084 -0.6182 -0.3488
  505MOL0     H66611   1.674   7.133   6.651  0.9141 -0.6993  0.5577
  505MOL0     H66612   1.804   7.195   6.566 -0.9131 -0.3424 -2.8185
  505MOL0     H66613   2.050   7.064   6.623  0.3077  2.0122  1.9676
  505MOL0     H66614   2.219   6.966   6.764  2.3720  3.3135  3.8613
  505MOL0     H66615   2.186   6.810   6.849  2.1605  0.3648  1.5342
  505MOL0     H66616   2.087   6.939   7.038 -2.3905  1.5676 -1.5785
  505MOL0     H66617   2.154   7.095   6.975 -0.9679 -0.2380 -0.6712
  505MOL0     H66618   2.308   6.845   7.021  0.4690 -0.3554 -1.9668
  505MOL0     H66619   2.375   6.992   6.942 -2.0061 -0.0991 -0.8409
  505MOL0     H66620   2.273   6.955   7.227  0.8039 -1.0232 -1.2207
  505MOL0     H66621   2.276   7.117   7.155 -1.5762 -0.3828 -1.1597
  505MOL0     H66622   2.403   7.223   7.004 -1.7767  2.2388  2.0680
  505MOL0     H66623   2.536   7.419   6.952 -1.0368  0.0054  0.0964
  505MOL0     H66624   3.148   7.434   7.106  0.2045  1.0908  1.2760
  505MOL0     H66625   3.337   7.591   7.075 -1.0973 -1.7688  0.0842
  505MOL0     H66626   3.274   8.020   7.160  2.3801 -0.8296  1.1687
  505MOL0     H66627   3.237   8.016   6.990 -0.4879 -0.4157 -0.6222
  505MOL0     H66628   3.419   8.143   7.007  1.1720  0.4542  0.5466
  505MOL0     H66629   3.487   7.994   6.950 -0.7970  1.8682 -2.0267
  505MOL0     H66630   3.473   8.072   7.247  1.5884  3.1156  0.6184
  505MOL0     H66631   3.581   8.145   7.132 -1.9848  0.8072 -2.7406
  505MOL0     H66632   3.592   7.843   7.198  2.9010 -1.4169 -1.8735
  505MOL0     H66633   3.704   7.935   7.099 -1.7797 -0.0803 -1.8205
  505MOL0     H66634   3.802   7.907   7.326 -0.1580 -0.5591  1.9715
  505MOL0     H66635   3.654   7.977   7.390 -0.6521 -3.5027 -0.8940
  505MOL0     H66636   3.709   8.202   7.303  0.5172 -0.4955  0.9028
  505MOL0     H66637   3.849   8.131   7.210 -1.0277  2.2059 -0.7003
  505MOL0     H66638   3.827   8.090   7.512 -0.8652 -1.5045 -0.8528
  505MOL0     H66639   3.969   8.082   7.410  0.0400 -0.0734  1.1059
  505MOL0     H66640   3.993   8.276   7.541  2.1210 -2.5501 -1.3517
  505MOL0     H66641   3.848   8.352   7.501  0.8543  0.1938  0.0278
  505MOL0     H66642   3.057   7.919   7.059 -0.7992  0.0857 -1.4988
  505MOL0     H66643   2.868   7.763   7.091 -0.3955 -0.5844  2.6568
  505MOL0     H66644   2.833   7.291   7.220 -1.6349  1.1708  1.4759
  505MOL0     H66645   2.706   7.082   7.275 -1.1927 -0.4077  0.0554
  505MOL0     H66646   2.507   6.931   6.421 -0.1300 -0.5850 -0.4825
  505MOL0     H66647   2.738   6.975   6.454  0.0320  1.1482  0.5803
  505MOL0     H66648   3.195   6.854   6.266 -0.7290  0.5194  0.5101
  505MOL0     H66649   3.423   6.916   6.282 -2.0092 -1.5434 -1.1831
  505MOL0     H66650   3.606   7.051   6.670  1.8149 -1.3952 -0.8264
  505MOL0     H66651   3.543   7.212   6.609  1.3525  1.0823 -1.9751
  505MOL0     H66652   3.783   7.047   6.505 -2.1205 -1.2322  2.0390
  505MOL0     H66653   3.746   7.199   6.442 -2.7503 -1.2147 -1.2620
  505MOL0     H66654   3.834   7.132   6.729 -1.0157 -1.0208 -0.4144
  505MOL0     H66655   3.803   7.302   6.679  1.3859  0.3561 -0.2412
  505MOL0     H66656   3.984   7.274   6.512 -0.0238 -1.2865  0.4825
  505MOL0     H66657   4.038   7.259   6.684  2.5050 -2.0420  1.0435
  505MOL0     H66658   4.113   6.872   6.521 -1.7182 -0.6873  0.0600
  505MOL0     H66659   3.346   7.100   6.663  0.0101 -2.0253  0.5665
  505MOL0     H66660   3.108   7.044   6.650  2.3738  1.9434  1.1704
  506MOL0     O66661   1.840   3.096   0.535  0.0376  0.0770 -0.7151
  506MOL0     C66662   1.881   2.985   0.566 -0.1397 -0.5416 -0.0442
  506MOL0     O66663   1.806   2.883   0.623  0.4109 -0.7631  0.6265
  506MOL0     C66664   1.697   2.904   0.710 -0.4584 -0.4872 -0.3946
  506MOL0     C66665   1.664   3.032   0.756  0.0350  0.2087 -0.2365
  506MOL0     C66666   1.571   3.043   0.857 -0.0902 -0.1551 -0.7014
  506MOL0     C66667   1.504   2.928   0.910  0.1575 -0.4567 -0.4196
  506MOL0     O66668   1.421   2.938   1.013  0.3036 -0.0956  0.6152
  506MOL0     C66669   1.485   2.982   1.133  0.2425  0.2824  0.0837
  506MOL0     C66670   1.406   2.948   1.262 -0.4054 -0.1901  0.2085
  506MOL0     C66671   1.398   2.793   1.297 -0.0683 -0.2802  0.5591
  506MOL0     C66672   1.325   2.699   1.204  1.0588  0.2443  0.2576
  506MOL0     C66673   1.177   2.736   1.191 -0.0548 -0.5477  0.7743
  506MOL0     C66674   1.107   2.651   1.081 -0.4266 -0.0108  0.0075
  506MOL0     C66675   0.981   2.729   1.017  0.1148 -0.7225  0.8204
  506MOL0     C66676   0.917   2.647   0.900 -0.1651 -0.9016  1.0054
  506MOL0     N66677   0.883   2.508   0.940 -0.0262 -0.0361 -0.6586
  506MOL0     C66678   0.806   2.482   1.043  0.3121  0.0380 -0.1778
  506MOL0     C66679   0.804   2.344   1.046 -0.1083 -0.0193  0.2198
  506MOL0     C66680   0.746   2.276   1.163  0.7703 -0.4714  0.3506
  506MOL0     C66681   0.602   2.330   1.199  0.8237 -0.1515 -0.0961
  506MOL0     C66682   0.500   2.293   1.087  0.3365  0.1229  0.6096
  506MOL0     C66683   0.355   2.295   1.130  0.0751  0.0419  0.6648
  506MOL0     O66684   0.312   2.437   1.134 -0.4374  0.2400  0.7881
  506MOL0     C66685   0.180   2.464   1.162  0.2088  0.8474 -0.1274
  506MOL0     C66686   0.080   2.369   1.171 -0.3305 -0.7051  0.2013
  506MOL0     C66687  -0.052   2.416   1.174  0.2905 -0.3914  0.5634
  506MOL0     C66688  -0.084   2.556   1.193  0.1944 -0.0569 -0.5208
  506MOL0     C66689  -0.226   2.601   1.219 -0.2153  1.6962 -0.3922
  506MOL0     O66690  -0.312   2.497   1.247 -0.2423  0.1550 -0.5736
  506MOL0     C66691  -0.439   2.523   1.281  0.4909 -0.2144  0.6990
  506MOL0     C66692  -0.493   2.568   1.407 -1.3620 -0.2080  0.4212
  506MOL0     C66693  -0.628   2.548   1.440 -0.8353  0.5673 -0.5901
  506MOL0     C66694  -0.721   2.498   1.354  0.4307  0.0388 -0.0971
  506MOL0     O66695  -0.850   2.463   1.387 -0.8475 -0.0974 -0.0357
  506MOL0     C66696  -0.893   2.469   1.521 -0.5362 -0.1884  0.7598
  506MOL0     C66697  -1.047   2.462   1.504 -0.4254  0.3479 -0.6999
  506MOL0     C66698  -1.083   2.329   1.443 -0.0230  0.4614  0.6180
  506MOL0     C66699  -1.232   2.296   1.470  0.0460  0.6310 -0.6109
  506MOL0     C66700  -1.281   2.167   1.401  0.1016  0.2092 -0.2850
  506MOL0     C66701  -1.433   2.160   1.366 -0.7166 -0.4447  0.4077
  506MOL0     C66702  -1.519   2.172   1.496 -0.0199  0.0558  0.5970
  506MOL0     C66703  -1.663   2.180   1.453 -0.2951 -0.0767 -0.4706
  506MOL0    Cl66704  -1.745   2.039   1.511  0.1805 -0.0368 -0.4362
  506MOL0     C66705  -0.671   2.465   1.225 -0.0490 -0.2695  0.5513
  506MOL0     C66706  -0.533   2.470   1.196 -0.1910 -0.1788  0.1249
  506MOL0     O66707  -0.254   2.724   1.223  0.7684 -0.4743 -0.1204
  506MOL0     C66708   0.022   2.647   1.176 -0.0631  0.7293 -0.5403
  506MOL0     C66709   0.151   2.603   1.160 -0.7047  0.2702 -0.0184
  506MOL0     N66710   0.871   2.298   0.941 -0.1071  0.2167  0.0178
  506MOL0     N66711   0.920   2.393   0.878 -0.4362 -0.9723  0.1718
  506MOL0     C66712   1.525   2.804   0.846 -0.3250 -0.2915 -0.5852
  506MOL0     C66713   1.624   2.793   0.752  0.0716 -0.3746 -0.4728
  506MOL0     C66714   2.018   2.958   0.527  0.8940 -0.4110  0.9512
  506MOL0     C66715   2.098   3.049   0.462  0.0722  0.1119  0.9989
  506MOL0     C66716   2.233   3.019   0.444 -0.5028  0.4350 -0.1741
  506MOL0     C66717   2.296   2.898   0.494  0.4253 -0.5055  0.2088
  506MOL0     O66718   2.420   2.855   0.470  0.0522  0.0019  0.0001
  506MOL0     C66719   2.501   2.938   0.388  0.1274  0.3963 -0.3063
  506MOL0     C66720   2.626   2.857   0.349 -0.4570  0.0985 -0.4928
  506MOL0     C66721   2.722   2.848   0.462 -0.0975 -0.0671  0.2400
  506MOL0     C66722   2.805   2.979   0.496 -0.0014  0.4423  0.0034
  506MOL0     C66723   2.924   3.014   0.409  0.2086 -0.1750 -0.9366
  506MOL0     C66724   3.023   3.031   0.351 -0.7041 -0.6996  0.7820
  506MOL0     C66725   2.207   2.812   0.557  0.6480  0.2846  0.2640
  506MOL0     C66726   2.071   2.836   0.571  0.2438 -0.2105  0.1007
  506MOL0     H66727   1.729   3.117   0.738 -0.5800  0.5119 -1.0690
  506MOL0     H66728   1.551   3.145   0.886 -1.4682 -0.1451 -1.6008
  506MOL0     H66729   1.498   3.090   1.118 -1.1208  0.4796  0.1141
  506MOL0     H66730   1.580   2.930   1.144  0.4416  0.1947 -1.7901
  506MOL0     H66731   1.305   2.990   1.258 -0.4790 -0.2951  0.8470
  506MOL0     H66732   1.451   2.991   1.352 -2.5820  0.6774  0.9621
  506MOL0     H66733   1.354   2.789   1.397  0.8559  0.1678  1.0014
  506MOL0     H66734   1.497   2.745   1.304 -1.0169 -2.5721 -0.7174
  506MOL0     H66735   1.379   2.699   1.109  2.2154  1.3018  0.8885
  506MOL0     H66736   1.318   2.597   1.243 -2.3811 -0.2231 -1.2124
  506MOL0     H66737   1.159   2.839   1.159 -2.2124 -1.4791 -1.3483
  506MOL0     H66738   1.125   2.723   1.286 -2.7675 -1.0529 -0.6996
  506MOL0     H66739   1.077   2.555   1.126  0.1943 -0.3529 -0.3026
  506MOL0     H66740   1.181   2.624   1.006  2.2602  3.6431  1.0787
  506MOL0     H66741   0.893   2.746   1.079 -2.7005  1.6267 -3.3778
  506MOL0     H66742   1.013   2.828   0.984  0.2958 -0.8137  0.7152
  506MOL0     H66743   0.979   2.641   0.810 -0.6236  0.1087  0.6105
  506MOL0     H66744   0.824   2.701   0.880  2.6734  3.1372 -3.2466
  506MOL0     H66745   0.764   2.549   1.117 -2.1140 -0.3832 -1.0655
  506MOL0     H66746   0.815   2.297   1.245  1.9851 -2.8784  0.0294
  506MOL0     H66747   0.738   2.168   1.147 -0.1615 -0.6463  1.7801
  506MOL0     H66748   0.606   2.438   1.213 -3.9458  0.3133 -0.6683
  506MOL0     H66749   0.557   2.286   1.288 -0.3514  0.3906 -0.3899
  506MOL0     H66750   0.518   2.348   0.994  1.1184 -1.8406 -0.4556
  506MOL0     H66751   0.514   2.188   1.059 -1.2700  0.3459 -1.2582
  506MOL0     H66752   0.345   2.252   1.230 -1.9822  3.0317  1.8537
  506MOL0     H66753   0.294   2.253   1.049  1.0189  1.0666 -0.6156
  506MOL0     H66754   0.089   2.262   1.181 -2.4092 -0.8763  0.7596
  506MOL0     H66755  -0.131   2.342   1.175  0.7378 -0.9480  3.1216
  506MOL0     H66756  -0.428   2.599   1.488  0.4153 -0.2611 -0.9147
  506MOL0     H66757  -0.652   2.592   1.537  2.4245  3.6901 -1.0019
  506MOL0     H66758  -0.865   2.569   1.555  4.1860 -0.6008 -1.1988
  506MOL0     H66759  -0.842   2.396   1.585  0.9517  2.4069  2.6919
  506MOL0     H66760  -1.081   2.538   1.434 -1.0179 -0.4117 -1.2593
  506MOL0     H66761  -1.101   2.472   1.599  1.3669  1.5442  0.2448
  506MOL0     H66762  -1.029   2.244   1.487 -1.4591 -1.2296 -0.7223
  506MOL0     H66763  -1.073   2.330   1.334  0.9487 -1.4594  0.6368
  506MOL0     H66764  -1.248   2.298   1.578  2.8617 -0.9097 -0.0684
  506MOL0     H66765  -1.295   2.377   1.433 -2.1250 -0.3840  0.6736
  506MOL0     H66766  -1.252   2.086   1.469 -0.9763  0.6799  0.7781
  506MOL0     H66767  -1.229   2.158   1.305  0.1517  0.3960 -0.2759
  506MOL0     H66768  -1.446   2.071   1.304 -0.7914 -1.6255  2.0733
  506MOL0     H66769  -1.455   2.249   1.306  0.9518  0.4857  1.1084
  506MOL0     H66770  -1.503   2.078   1.549  1.7301 -0.3068 -0.4902
  506MOL0     H66771  -1.486   2.248   1.567  2.0348 -1.8794  1.8020
  506MOL0     H66772  -1.680   2.183   1.345 -2.7227  0.9532 -0.1199
  506MOL0     H66773  -1.711   2.269   1.495 -0.5781 -0.3004 -0.3197
  506MOL0     H66774  -0.743   2.411   1.165  0.1666 -1.3801  1.2597
  506MOL0     H66775  -0.500   2.447   1.095  0.1920 -1.7106  0.5768
  506MOL0     H66776   0.003   2.753   1.162  0.4219  0.9654  0.4854
  506MOL0     H66777   0.227   2.676   1.135 -0.9090 -0.2965 -2.5853
  506MOL0     H66778   1.473   2.715   0.880 -0.4232  1.0077  3.1115
  506MOL0     H66779   1.638   2.692   0.715 -0.4289  0.1051 -2.0789
  506MOL0     H66780   2.045   3.139   0.433 -1.3286 -0.2669  2.2472
  506MOL0     H66781   2.284   3.095   0.386  0.1363  1.7959  2.0410
  506MOL0     H66782   2.525   3.021   0.455  1.0341  0.1266 -0.2812
  506MOL0     H66783   2.451   2.976   0.298  0.4360  0.0471 -0.6279
  506MOL0     H66784   2.584   2.758   0.331 -0.2477 -0.2348  0.7589
  506MOL0     H66785   2.672   2.889   0.255  0.9651 -2.6402 -0.8110
  506MOL0     H66786   2.788   2.765   0.435 -2.0128 -1.0230 -1.8685
  506MOL0     H66787   2.669   2.823   0.554  0.9402  1.2140  1.2279
  506MOL0     H66788   2.738   3.064   0.512 -2.9605 -1.1406 -2.7736
  506MOL0     H66789   2.842   2.962   0.598 -2.8056  0.7282  1.1598
  506MOL0     H66790   3.103   3.064   0.288 -1.2072  1.9886  1.4185
  506MOL0     H66791   2.251   2.717   0.587 -0.3945 -1.1221 -2.3462
  506MOL0     H66792   2.000   2.766   0.614 -0.1347  0.3785  0.4491
  507MOL0     O66793   2.704  10.277  11.028  0.4509 -0.3315 -0.2510
  507MOL0     C66794   2.731  10.230  10.923  0.1740 -0.2088  0.2520
  507MOL0     O66795   2.644  10.179  10.832 -1.2548 -0.7459 -0.4019
  507MOL0     C66796   2.503  10.162  10.854  0.0194 -0.7819 -0.3141
  507MOL0     C66797   2.432  10.234  10.953 -0.7527 -0.1575 -0.5019
  507MOL0     C66798   2.294  10.210  10.975 -0.5438  0.8412 -0.2551
  507MOL0     C66799   2.237  10.096  10.916 -0.4209 -0.2983  0.0656
  507MOL0     O66800   2.105  10.073  10.944  0.4543  0.4903 -0.4881
  507MOL0     C66801   2.041   9.945  10.924  0.0324  0.0521 -0.0816
  507MOL0     C66802   1.965   9.958  10.786  0.0588  0.0032 -0.1923
  507MOL0     C66803   1.932   9.823  10.706  0.4746  0.0426 -0.4686
  507MOL0     C66804   1.815   9.853  10.607 -0.6087  0.5949  0.1192
  507MOL0     C66805   1.755   9.717  10.553  0.0208  1.2391  0.6026
  507MOL0     C66806   1.672   9.749  10.420 -0.0604 -1.8069  0.5281
  507MOL0     C66807   1.560   9.652  10.386 -0.1838 -0.6369  0.2623
  507MOL0     C66808   1.494   9.694  10.251 -0.2149  0.5171  0.9055
  507MOL0     N66809   1.382   9.598  10.224  0.1095 -0.9048  0.5846
  507MOL0     C66810   1.245   9.627  10.249 -0.8599  0.0209 -0.3416
  507MOL0     C66811   1.185   9.526  10.193 -0.0676 -0.3021 -1.3886
  507MOL0     C66812   1.040   9.508  10.193 -0.4102 -0.1410  0.1915
  507MOL0     C66813   0.981   9.576  10.068 -0.1557  0.1112 -0.3151
  507MOL0     C66814   0.839   9.524  10.053  0.8069  0.8347  0.7317
  507MOL0     C66815   0.763   9.591   9.944  0.2592 -0.5949  0.1217
  507MOL0     O66816   0.633   9.647   9.978 -0.8443  0.4531  0.7554
  507MOL0     C66817   0.547   9.557  10.036 -0.5673 -0.4855 -0.3209
  507MOL0     C66818   0.547   9.414  10.042  0.9361 -0.0041  0.1199
  507MOL0     C66819   0.432   9.346  10.093  0.0673  0.5866 -0.5175
  507MOL0     C66820   0.324   9.413  10.147 -0.4522 -0.2770  0.1561
  507MOL0     C66821   0.210   9.346  10.207 -0.9737  0.1849 -0.0930
  507MOL0     O66822   0.225   9.213  10.217 -0.0865 -0.8226 -0.2613
  507MOL0     C66823   0.119   9.140  10.273 -0.3832 -0.9261 -0.2516
  507MOL0     C66824   0.051   9.046  10.192  0.2090  0.5564  0.1915
  507MOL0     C66825  -0.051   8.963  10.247  0.6475  0.1841  1.4772
  507MOL0     C66826  -0.105   8.987  10.368 -0.2759 -0.2138  0.7665
  507MOL0     O66827  -0.204   8.913  10.431  0.3312 -0.2750 -0.1918
  507MOL0     C66828  -0.220   8.777  10.377 -0.0027 -0.3761 -0.5294
  507MOL0     C66829  -0.325   8.773  10.270 -0.3674 -0.1077  0.1889
  507MOL0     C66830  -0.352   8.635  10.223 -0.4062 -0.7636 -0.5544
  507MOL0     C66831  -0.451   8.635  10.098  0.3595  0.4282  0.1813
  507MOL0     C66832  -0.492   8.491  10.068 -0.9246 -0.4020 -0.1426
  507MOL0     C66833  -0.594   8.441  10.171 -0.1546  0.2717 -0.8550
  507MOL0     C66834  -0.612   8.283  10.159  0.0616 -0.1694 -0.6756
  507MOL0     C66835  -0.716   8.228  10.252  0.2412 -0.9179 -0.3286
  507MOL0    Cl66836  -0.889   8.242  10.211 -0.5529  0.1868  0.0964
  507MOL0     C66837  -0.048   9.085  10.441  0.1052 -0.2398 -1.1439
  507MOL0     C66838   0.061   9.161  10.398  0.7623 -0.3134 -0.8000
  507MOL0     O66839   0.113   9.408  10.243  0.8785 -0.1258 -0.0868
  507MOL0     C66840   0.330   9.553  10.145 -0.4205 -0.0783  1.1959
  507MOL0     C66841   0.435   9.628  10.095  0.8033 -0.6250  0.7337
  507MOL0     N66842   1.274   9.435  10.143 -0.3380  0.6707  0.2128
  507MOL0     N66843   1.399   9.489  10.152 -0.0439  0.2597  0.4654
  507MOL0     C66844   2.307  10.019  10.821 -0.2836 -0.2693  0.2093
  507MOL0     C66845   2.442  10.059  10.792  0.6133  0.1286  0.2320
  507MOL0     C66846   2.870  10.236  10.882 -0.2739  0.3799  0.4667
  507MOL0     C66847   2.966  10.305  10.949 -0.0701 -0.2909 -0.0800
  507MOL0     C66848   3.097  10.319  10.895  0.7353 -0.4541 -0.4495
  507MOL0     C66849   3.131  10.265  10.778 -0.7590  0.1002 -0.4595
  507MOL0     O66850   3.262  10.289  10.741 -0.1419 -0.2558  0.2191
  507MOL0     C66851   3.324  10.235  10.622  0.2366  0.3884  0.5237
  507MOL0     C66852   3.472  10.260  10.622  0.0177 -0.6189  0.9648
  507MOL0     C66853   3.515  10.397  10.682 -1.1268 -0.0175  0.5164
  507MOL0     C66854   3.660  10.430  10.661  0.8410 -0.1673  0.0233
  507MOL0     C66855   3.692  10.571  10.629 -1.0449 -0.3697 -0.1326
  507MOL0     C66856   3.718  10.686  10.608  0.5078 -0.5679  0.5976
  507MOL0     C66857   3.037  10.181  10.712  0.3234  0.2920  0.1008
  507MOL0     C66858   2.910  10.167  10.763 -0.4236 -0.9305 -0.2133
  507MOL0     H66859   2.470  10.317  11.011 -1.5747  0.5065 -0.8971
  507MOL0     H66860   2.248  10.280  11.044 -1.0055  0.1997  0.1097
  507MOL0     H66861   1.977   9.925  11.010  2.0658  1.3063  1.8331
  507MOL0     H66862   2.109   9.859  10.930  0.7731  0.7152  2.0423
  507MOL0     H66863   2.029  10.017  10.719 -0.1731  2.7751  1.8482
  507MOL0     H66864   1.877  10.021  10.799  0.2104 -0.4094  4.6987
  507MOL0     H66865   1.923   9.747  10.785  0.2751  0.9054  0.3636
  507MOL0     H66866   2.023   9.799  10.651 -0.4583  0.3196 -2.2138
  507MOL0     H66867   1.739   9.914  10.657 -2.4071 -0.5531 -1.0701
  507MOL0     H66868   1.844   9.903  10.514 -0.8796 -0.2753 -0.4562
  507MOL0     H66869   1.691   9.681  10.635 -0.1790 -1.1009 -0.5087
  507MOL0     H66870   1.825   9.634  10.543 -1.4710  0.2596 -4.8241
  507MOL0     H66871   1.748   9.748  10.341  0.8710 -2.8532  1.3923
  507MOL0     H66872   1.629   9.849  10.421  0.9474 -1.3479  1.7880
  507MOL0     H66873   1.604   9.553  10.369 -1.2546 -0.8750 -1.3146
  507MOL0     H66874   1.496   9.651  10.475  0.8188  0.2668  1.0127
  507MOL0     H66875   1.574   9.691  10.175  0.7134  0.2510  1.8651
  507MOL0     H66876   1.456   9.796  10.253 -1.1007  0.6174 -4.5915
  507MOL0     H66877   1.200   9.706  10.308  2.1451  0.3461  1.7514
  507MOL0     H66878   1.008   9.537  10.293  1.0082 -0.0956  0.6564
  507MOL0     H66879   1.021   9.400  10.182 -0.0935 -0.6306  3.4674
  507MOL0     H66880   1.040   9.557   9.977  0.2256  2.0664 -0.5145
  507MOL0     H66881   0.990   9.685  10.074  3.5980 -0.1638  3.9835
  507MOL0     H66882   0.848   9.417  10.032  1.9678  1.0193  0.1812
  507MOL0     H66883   0.778   9.549  10.140 -0.3161  3.4867 -0.7155
  507MOL0     H66884   0.757   9.519   9.862  0.2757 -0.1067 -0.3164
  507MOL0     H66885   0.829   9.670   9.906 -1.4912 -0.1896 -2.2699
  507MOL0     H66886   0.628   9.366   9.988  0.3861  1.0721 -1.7722
  507MOL0     H66887   0.429   9.237  10.094  2.4611  0.4306 -2.6394
  507MOL0     H66888   0.071   9.044  10.085 -0.6360  2.7125 -0.0581
  507MOL0     H66889  -0.093   8.887  10.181  0.6998  0.9737  0.5000
  507MOL0     H66890  -0.262   8.722  10.462  1.3007  0.9569  1.0359
  507MOL0     H66891  -0.133   8.722  10.341  1.3260 -1.2632  3.4941
  507MOL0     H66892  -0.287   8.835  10.188 -2.1034 -0.0431 -0.6086
  507MOL0     H66893  -0.416   8.827  10.297 -0.4307 -0.2136  0.1908
  507MOL0     H66894  -0.396   8.586  10.310 -2.3838  2.3202  0.3532
  507MOL0     H66895  -0.264   8.580  10.189 -0.1469  0.2975 -1.7098
  507MOL0     H66896  -0.535   8.704  10.111  2.7092  3.2625  1.3880
  507MOL0     H66897  -0.397   8.676  10.012  1.4741 -0.4323  0.4509
  507MOL0     H66898  -0.401   8.431  10.074  0.4736  0.8037 -5.0818
  507MOL0     H66899  -0.531   8.473   9.968 -0.6651  0.8050 -0.4725
  507MOL0     H66900  -0.684   8.503  10.171  1.6444  3.1610  0.9063
  507MOL0     H66901  -0.560   8.454  10.275 -1.6461  4.3095 -0.6706
  507MOL0     H66902  -0.638   8.265  10.054  0.0787  0.3131 -0.7647
  507MOL0     H66903  -0.513   8.243  10.184  0.0950  0.0733 -0.4224
  507MOL0     H66904  -0.704   8.275  10.350  2.8728 -2.6350  0.2700
  507MOL0     H66905  -0.696   8.121  10.265  1.6028 -0.8470 -1.6406
  507MOL0     H66906  -0.077   9.100  10.544 -0.8369 -2.9613 -0.9353
  507MOL0     H66907   0.115   9.228  10.464  1.3642  0.4229 -1.9931
  507MOL0     H66908   0.250   9.619  10.178  0.3299  1.4387  0.1212
  507MOL0     H66909   0.429   9.736  10.089 -0.6780 -0.7588 -0.7379
  507MOL0     H66910   2.259   9.938  10.767 -1.1085  0.9266 -0.9176
  507MOL0     H66911   2.500  10.003  10.719 -1.7442 -3.4555  0.8297
  507MOL0     H66912   2.937  10.343  11.047  0.7910  1.8959 -0.6037
  507MOL0     H66913   3.161  10.370  10.966 -0.5441 -1.4442  1.5288
  507MOL0     H66914   3.273  10.272  10.532  1.6224 -0.1980 -0.5379
  507MOL0     H66915   3.313  10.127  10.619  0.1558  0.4173 -1.4874
  507MOL0     H66916   3.520  10.194  10.695  0.2478 -0.5266  0.8965
  507MOL0     H66917   3.521  10.247  10.525 -1.8511 -0.0852 -0.0953
  507MOL0     H66918   3.490  10.388  10.788  2.4007 -2.2796  1.3139
  507MOL0     H66919   3.451  10.468  10.628 -0.4772  1.8703  2.1217
  507MOL0     H66920   3.723  10.403  10.746 -1.0150  1.6444  2.1034
  507MOL0     H66921   3.695  10.376  10.573 -0.7516  0.3667 -0.9692
  507MOL0     H66922   3.727  10.790  10.586  0.1120 -0.6154  0.1827
  507MOL0     H66923   3.063  10.139  10.616 -3.1024 -0.9482 -0.4297
  507MOL0     H66924   2.848  10.105  10.699 -0.3108 -0.7606 -0.4869
  508MOL0     O66925   4.250  10.430   4.273 -0.0499 -0.8150  0.3332
  508MOL0     C66926   4.300  10.432   4.159  0.3899 -0.1828  0.9474
  508MOL0     O66927   4.230  10.428   4.042 -0.0291  0.1364  0.0684
  508MOL0     C66928   4.097  10.406   4.036  0.1440  0.0488 -0.1431
  508MOL0     C66929   4.041  10.288   4.090  0.1625 -0.3902  0.2171
  508MOL0     C66930   3.905  10.276   4.102 -0.5312 -0.1796  0.1651
  508MOL0     C66931   3.815  10.377   4.066  0.2488  0.0079  0.2751
  508MOL0     O66932   3.678  10.378   4.070 -0.0857  0.3249 -0.1359
  508MOL0     C66933   3.621  10.276   4.151  0.2488  0.1131 -0.6420
  508MOL0     C66934   3.475  10.288   4.164 -0.4853  0.0186 -0.0484
  508MOL0     C66935   3.423  10.423   4.211 -0.7481 -0.4854  0.2198
  508MOL0     C66936   3.269  10.421   4.258 -0.9746 -0.1153  0.7375
  508MOL0     C66937   3.232  10.562   4.305  0.5484 -0.4608 -0.9599
  508MOL0     C66938   3.083  10.554   4.359 -0.0156  0.7237 -0.9710
  508MOL0     C66939   3.022  10.695   4.369  0.5199  0.3032  0.2019
  508MOL0     C66940   2.958  10.733   4.243  0.0735 -0.1305  0.1805
  508MOL0     N66941   2.812  10.723   4.239 -0.6572 -0.1765  0.3435
  508MOL0     C66942   2.756  10.610   4.192 -0.1103  0.0892 -0.1864
  508MOL0     C66943   2.630  10.618   4.238 -0.6162  0.0759  0.2210
  508MOL0     C66944   2.532  10.513   4.198  0.1702 -0.9168  0.6060
  508MOL0     C66945   2.490  10.530   4.048  0.0725 -0.1040 -0.4848
  508MOL0     C66946   2.395  10.648   4.024 -0.2805  0.9265  0.3529
  508MOL0     C66947   2.258  10.633   4.087  0.3826  0.1957 -0.6819
  508MOL0     O66948   2.187  10.536   4.017 -0.0093 -0.7068 -0.3403
  508MOL0     C66949   2.053  10.540   4.039  0.7312  0.7715  1.0625
  508MOL0     C66950   1.991  10.455   3.939  0.3774  0.4110 -0.0003
  508MOL0     C66951   1.852  10.423   3.958 -0.7881 -0.0527 -0.0283
  508MOL0     C66952   1.783  10.471   4.072  1.1193  0.5520 -0.0157
  508MOL0     C66953   1.636  10.441   4.108  0.0828  0.5893 -0.0249
  508MOL0     O66954   1.550  10.420   4.012 -0.3050 -0.1986 -0.2372
  508MOL0     C66955   1.417  10.400   4.030  0.4168  0.9097  0.5667
  508MOL0     C66956   1.357  10.359   3.910  0.0633  0.5176  0.0049
  508MOL0     C66957   1.217  10.337   3.904  0.3948 -0.2323 -0.7637
  508MOL0     C66958   1.137  10.357   4.012  0.3673 -0.4666 -0.8086
  508MOL0     O66959   1.008  10.315   4.003 -0.4444  0.3354 -0.3760
  508MOL0     C66960   0.904  10.409   4.040 -0.1469  0.2421 -0.1201
  508MOL0     C66961   0.777  10.329   4.090 -0.1528 -0.3163 -0.2159
  508MOL0     C66962   0.692  10.263   3.978 -1.1677 -0.3556 -0.1091
  508MOL0     C66963   0.553  10.229   4.027 -0.1965  0.4971  0.1946
  508MOL0     C66964   0.461  10.220   3.902 -1.0274 -0.2566 -0.3561
  508MOL0     C66965   0.311  10.212   3.955  0.3006 -0.3092  0.0082
  508MOL0     C66966   0.274  10.338   4.036  0.2760 -0.2407  0.5804
  508MOL0     C66967   0.213  10.301   4.177 -0.3865 -0.5593  0.9725
  508MOL0    Cl66968   0.119  10.434   4.251 -0.2419  0.0785 -0.5331
  508MOL0     C66969   1.196  10.392   4.132  0.0185  0.1215  0.3262
  508MOL0     C66970   1.334  10.412   4.144  0.1850  0.4873  0.1353
  508MOL0     O66971   1.611  10.446   4.232 -0.1586  0.4841  0.6346
  508MOL0     C66972   1.850  10.551   4.159  0.1837  0.1782  0.1954
  508MOL0     C66973   1.982  10.590   4.149  0.1076  0.3177 -0.1073
  508MOL0     N66974   2.622  10.729   4.318 -0.4169  0.7647  0.0410
  508MOL0     N66975   2.729  10.795   4.317 -0.6569 -0.3311 -0.0748
  508MOL0     C66976   3.867  10.493   4.016 -0.6490 -0.6137 -0.0411
  508MOL0     C66977   4.007  10.507   3.995  0.7393  0.6309  0.2262
  508MOL0     C66978   4.447  10.442   4.147 -0.5608  0.1593  0.0167
  508MOL0     C66979   4.516  10.435   4.021 -0.7816  0.4266  0.2894
  508MOL0     C66980   4.659  10.442   4.024 -0.0023 -0.0207 -0.1309
  508MOL0     C66981   4.732  10.456   4.147 -0.0642 -0.2341 -0.5120
  508MOL0     O66982   4.865  10.446   4.169  0.2633 -0.5926  0.6157
  508MOL0     C66983   4.953  10.444   4.054  0.1356  0.0081 -0.6011
  508MOL0     C66984   5.091  10.445   4.108  0.3953 -0.3012  0.1604
  508MOL0     C66985   5.196  10.372   4.023  0.6446 -0.1168  0.6170
  508MOL0     C66986   5.331  10.411   4.091 -0.5534  0.3078  0.5610
  508MOL0     C66987   5.451  10.333   4.046  0.2483 -0.0025  0.4024
  508MOL0     C66988   5.544  10.265   4.020 -0.6214  0.8891  0.3539
  508MOL0     C66989   4.658  10.470   4.262 -1.2028 -0.3095 -0.3763
  508MOL0     C66990   4.523  10.473   4.262  0.5993 -0.3626 -0.4192
  508MOL0     H66991   4.110  10.210   4.121 -2.7151 -3.0366  0.4520
  508MOL0     H66992   3.859  10.183   4.135 -1.6550  0.2739 -0.0801
  508MOL0     H66993   3.675  10.283   4.246  1.6176 -2.6163 -1.1148
  508MOL0     H66994   3.645  10.175   4.117  2.2722 -0.9231  3.3418
  508MOL0     H66995   3.451  10.212   4.239 -0.9540  1.0621  0.9075
  508MOL0     H66996   3.430  10.264   4.067 -1.0725 -0.6307  0.3739
  508MOL0     H66997   3.451  10.497   4.135  2.9416 -0.6675  1.1999
  508MOL0     H66998   3.472  10.452   4.304 -1.5374  1.9453 -0.0564
  508MOL0     H66999   3.211  10.396   4.168  0.2001 -0.1889 -0.0149
  508MOL0     H67000   3.243  10.354   4.340 -0.6075  2.6682  3.2676
  508MOL0     H67001   3.252  10.622   4.215  1.4639  0.7577  0.0262
  508MOL0     H67002   3.303  10.602   4.378  0.1918  2.3484 -2.0033
  508MOL0     H67003   3.089  10.501   4.454  0.7743 -2.4776 -2.6725
  508MOL0     H67004   3.021  10.497   4.289 -1.9842 -0.8382  1.8001
  508MOL0     H67005   2.946  10.693   4.447  2.0323 -0.4623  1.7082
  508MOL0     H67006   3.097  10.769   4.402 -0.0300  1.7097 -1.5526
  508MOL0     H67007   2.997  10.684   4.153 -2.8839 -1.4638 -0.4823
  508MOL0     H67008   2.982  10.839   4.227 -0.3543  0.4428  2.8886
  508MOL0     H67009   2.807  10.536   4.131  1.1541 -0.4119  1.4146
  508MOL0     H67010   2.447  10.508   4.266 -1.6038 -1.9822 -1.5754
  508MOL0     H67011   2.578  10.414   4.212  2.4394  0.2541  2.2079
  508MOL0     H67012   2.443  10.433   4.028  0.1589 -0.0256 -1.0795
  508MOL0     H67013   2.581  10.529   3.989  1.0055 -0.6767  0.9108
  508MOL0     H67014   2.442  10.741   4.058  0.5784  0.7264 -0.2446
  508MOL0     H67015   2.395  10.671   3.917  0.7171  3.8798  0.9019
  508MOL0     H67016   2.208  10.729   4.100 -0.6388 -0.5170  1.0452
  508MOL0     H67017   2.278  10.589   4.185 -0.5122 -0.3690 -0.7388
  508MOL0     H67018   2.047  10.418   3.854 -0.0898 -0.4979  0.0700
  508MOL0     H67019   1.802  10.351   3.894 -0.3723 -2.3364  2.0779
  508MOL0     H67020   1.412  10.350   3.816  1.5654 -1.0633  0.9769
  508MOL0     H67021   1.180  10.304   3.807  3.2143  0.7651 -2.2861
  508MOL0     H67022   0.873  10.471   3.956 -1.6071  0.2566  0.3902
  508MOL0     H67023   0.939  10.473   4.122 -0.0346 -0.5194  0.4416
  508MOL0     H67024   0.710  10.394   4.146 -1.3315  0.3742 -2.2969
  508MOL0     H67025   0.807  10.244   4.152  0.0962 -1.0346 -1.2842
  508MOL0     H67026   0.747  10.179   3.936  0.4683  0.7430 -0.2398
  508MOL0     H67027   0.691  10.330   3.892  1.7049 -2.4096 -1.9178
  508MOL0     H67028   0.558  10.137   4.087 -2.5350 -0.3600 -0.7848
  508MOL0     H67029   0.517  10.305   4.096 -1.6387  0.0116  0.0231
  508MOL0     H67030   0.488  10.139   3.834 -0.8086 -0.1463 -0.4056
  508MOL0     H67031   0.467  10.318   3.853 -1.1844  1.1356  2.2679
  508MOL0     H67032   0.296  10.125   4.019 -3.3991 -0.6907 -1.1754
  508MOL0     H67033   0.239  10.197   3.874  0.0591 -1.0888  0.3669
  508MOL0     H67034   0.357  10.409   4.050 -1.4449  1.5182  2.6270
  508MOL0     H67035   0.203  10.393   3.973  3.4676  2.8472 -0.7005
  508MOL0     H67036   0.300  10.275   4.238  0.1017  1.7336  1.3742
  508MOL0     H67037   0.146  10.217   4.159  1.2058 -1.8117  0.6110
  508MOL0     H67038   1.132  10.415   4.216 -0.4943  0.1644 -0.0695
  508MOL0     H67039   1.377  10.456   4.233  1.6793  1.7230 -1.1439
  508MOL0     H67040   1.806  10.587   4.251 -0.8243  2.3668 -1.0406
  508MOL0     H67041   2.033  10.632   4.234  1.8127  2.5346 -2.0837
  508MOL0     H67042   3.786  10.562   3.995  0.6041  0.7551 -0.5412
  508MOL0     H67043   4.047  10.602   3.960  1.1139  0.0392 -1.0178
  508MOL0     H67044   4.460  10.404   3.934 -1.4634 -4.4279  2.1428
  508MOL0     H67045   4.721  10.428   3.936  1.7817 -0.1742  1.1079
  508MOL0     H67046   4.928  10.521   3.980 -0.1991  1.6071  1.0989
  508MOL0     H67047   4.939  10.353   3.995  0.2129  0.6017 -1.5651
  508MOL0     H67048   5.118  10.551   4.113  0.8242 -0.4603  1.5316
  508MOL0     H67049   5.087  10.389   4.202 -2.5367 -4.5803 -2.1310
  508MOL0     H67050   5.192  10.413   3.921 -3.5398 -2.3661 -0.3437
  508MOL0     H67051   5.188  10.263   4.029 -1.0894 -0.0541  0.0473
  508MOL0     H67052   5.356  10.517   4.103  2.7368 -0.2212 -0.6833
  508MOL0     H67053   5.313  10.374   4.192 -2.7448 -1.3872 -0.3750
  508MOL0     H67054   5.635  10.210   4.006 -2.3793 -1.9698 -0.5168
  508MOL0     H67055   4.706  10.470   4.359  0.1769  0.2360 -1.0249
  508MOL0     H67056   4.484  10.479   4.363 -2.0929  0.7753 -1.4443
  509MOL0     O67057   3.728   1.798   6.250  0.7497 -0.0975  0.0656
  509MOL0     C67058   3.702   1.680   6.272 -0.1829 -0.2456 -0.3260
  509MOL0     O67059   3.800   1.584   6.292  0.0324  0.0455 -1.4110
  509MOL0     C67060   3.930   1.611   6.317 -0.3456 -0.2301  0.1970
  509MOL0     C67061   4.023   1.522   6.278 -0.8845 -0.0516 -0.0750
  509MOL0     C67062   4.151   1.520   6.327 -0.4935  0.0510 -0.0829
  509MOL0     C67063   4.201   1.625   6.398  0.1289 -0.7741 -0.5534
  509MOL0     O67064   4.341   1.625   6.432  0.1610 -0.2560  0.3598
  509MOL0     C67065   4.383   1.719   6.538  0.0325  0.8062  0.1478
  509MOL0     C67066   4.526   1.685   6.557  1.3809  0.2442 -0.3584
  509MOL0     C67067   4.586   1.780   6.663 -0.9911  0.5013 -0.4727
  509MOL0     C67068   4.727   1.742   6.703  0.2470  0.9548  0.0810
  509MOL0     C67069   4.789   1.852   6.794 -0.5007  0.9810  0.0882
  509MOL0     C67070   4.928   1.798   6.837 -0.2879  0.2159  0.7738
  509MOL0     C67071   4.986   1.880   6.944  0.6342 -0.0065  0.7556
  509MOL0     C67072   5.136   1.866   6.966 -0.2679  0.5223 -0.7945
  509MOL0     N67073   5.183   1.739   7.009 -0.0758  0.5296  0.0608
  509MOL0     C67074   5.123   1.657   7.102 -0.3051 -0.0115  0.5180
  509MOL0     C67075   5.195   1.546   7.102  0.0758  0.5532  0.0114
  509MOL0     C67076   5.157   1.422   7.190 -0.0329 -0.3356  1.0313
  509MOL0     C67077   5.084   1.324   7.104 -0.3475 -0.3812  0.5777
  509MOL0     C67078   5.051   1.198   7.177  0.3260  0.4910  0.4027
  509MOL0     C67079   4.951   1.207   7.289 -0.9799 -0.5653 -0.1736
  509MOL0     O67080   4.904   1.076   7.301 -0.0197 -0.6499  0.2552
  509MOL0     C67081   4.768   1.070   7.339  0.4274  0.4959  0.3768
  509MOL0     C67082   4.697   0.960   7.300 -0.1891 -0.8361 -0.6355
  509MOL0     C67083   4.562   0.940   7.331  0.6095  0.9495 -0.3781
  509MOL0     C67084   4.501   1.033   7.418  0.3956  0.5316 -0.5016
  509MOL0     C67085   4.358   1.014   7.463 -0.2257 -0.1859  0.0978
  509MOL0     O67086   4.296   0.904   7.402  0.6258 -0.1620 -0.1815
  509MOL0     C67087   4.163   0.882   7.434 -0.5988  0.2250 -0.3596
  509MOL0     C67088   4.059   0.983   7.426 -0.3011  0.2174 -0.3462
  509MOL0     C67089   3.935   0.958   7.482  0.1353 -0.7731 -0.5993
  509MOL0     C67090   3.901   0.834   7.519  0.7550 -0.1008  0.2756
  509MOL0     O67091   3.772   0.812   7.567 -0.2716  0.0705  0.3121
  509MOL0     C67092   3.775   0.752   7.698 -0.0706 -0.0691  0.0054
  509MOL0     C67093   3.639   0.722   7.752  1.0141 -0.2666  0.2546
  509MOL0     C67094   3.655   0.623   7.867 -0.1442  0.0290  0.4444
  509MOL0     C67095   3.521   0.574   7.922 -0.3572 -0.2576  0.6217
  509MOL0     C67096   3.499   0.592   8.077  0.7173  0.1200 -0.2305
  509MOL0     C67097   3.377   0.510   8.125  0.2142  0.6221  0.4188
  509MOL0     C67098   3.327   0.566   8.265  0.0448  0.1022 -0.2597
  509MOL0     C67099   3.288   0.449   8.353 -0.1989 -0.2121  0.3638
  509MOL0    Cl67100   3.184   0.344   8.250  0.1420 -0.0283  0.2500
  509MOL0     C67101   4.001   0.734   7.522 -0.6411  0.3580  0.1104
  509MOL0     C67102   4.132   0.756   7.483  0.5275 -0.4197 -0.3466
  509MOL0     O67103   4.302   1.082   7.556  0.3443  0.5456 -0.4981
  509MOL0     C67104   4.578   1.139   7.472  1.2095  0.2072  0.4262
  509MOL0     C67105   4.706   1.156   7.426 -0.2647 -0.3018  0.1366
  509MOL0     N67106   5.295   1.547   6.997  0.4154  0.1641  0.1905
  509MOL0     N67107   5.288   1.665   6.953 -0.4943 -0.3516  0.3322
  509MOL0     C67108   4.113   1.727   6.442 -0.3761  0.3787  0.1608
  509MOL0     C67109   3.978   1.725   6.396  0.4140  0.0830 -1.4445
  509MOL0     C67110   3.567   1.629   6.237  0.4224  0.3539  0.6462
  509MOL0     C67111   3.453   1.712   6.219  0.1091 -0.1621  0.2808
  509MOL0     C67112   3.329   1.653   6.205 -0.7394 -0.7379  0.6852
  509MOL0     C67113   3.300   1.518   6.181  0.4349 -0.4576  0.6190
  509MOL0     O67114   3.181   1.460   6.153 -0.1941 -0.1315  0.3657
  509MOL0     C67115   3.068   1.542   6.135  0.0592 -0.5171  0.2601
  509MOL0     C67116   2.952   1.479   6.078 -0.0323  0.5411 -0.1358
  509MOL0     C67117   2.879   1.377   6.174 -0.5912 -0.5049  0.8447
  509MOL0     C67118   2.725   1.367   6.133 -0.2378 -0.1820 -0.1413
  509MOL0     C67119   2.656   1.294   6.238  0.3610 -0.0432  0.5346
  509MOL0     C67120   2.584   1.238   6.321 -1.2439  0.1621 -0.2631
  509MOL0     C67121   3.408   1.442   6.196  0.5208  0.6274 -0.6738
  509MOL0     C67122   3.537   1.491   6.235  0.0765  0.4926 -1.0449
  509MOL0     H67123   3.996   1.444   6.207 -0.5497 -0.1265 -0.1229
  509MOL0     H67124   4.199   1.426   6.301 -0.2139  0.2981 -0.4675
  509MOL0     H67125   4.339   1.695   6.635  2.4953 -0.3361  1.0584
  509MOL0     H67126   4.368   1.825   6.515  2.6938  1.1469 -0.3608
  509MOL0     H67127   4.581   1.697   6.463 -1.0688 -0.9290 -2.0741
  509MOL0     H67128   4.540   1.585   6.598 -0.0326  0.2471  0.2036
  509MOL0     H67129   4.532   1.771   6.758  0.6277  2.5044  0.7218
  509MOL0     H67130   4.583   1.887   6.639 -2.4797  0.3206 -1.2179
  509MOL0     H67131   4.717   1.642   6.746 -3.2615 -0.6358 -3.7811
  509MOL0     H67132   4.796   1.732   6.619 -0.0252  0.1841 -0.0616
  509MOL0     H67133   4.737   1.875   6.887 -0.1118 -0.7468  0.7822
  509MOL0     H67134   4.808   1.944   6.739 -0.1502  0.9979  0.2317
  509MOL0     H67135   4.991   1.791   6.748 -1.7735  2.5004 -0.5410
  509MOL0     H67136   4.919   1.701   6.886 -1.8137  0.8745  1.8732
  509MOL0     H67137   4.972   1.987   6.926 -1.4783 -0.3988 -0.2900
  509MOL0     H67138   4.931   1.853   7.035 -0.8688  0.9676  0.1821
  509MOL0     H67139   5.167   1.937   7.044 -0.1407  1.3234 -1.5610
  509MOL0     H67140   5.197   1.892   6.880 -1.1147  2.9180 -0.7501
  509MOL0     H67141   5.042   1.676   7.172 -1.6947 -1.5437 -0.6166
  509MOL0     H67142   5.082   1.452   7.264  0.9928  2.1323  1.1662
  509MOL0     H67143   5.253   1.381   7.224  1.3898 -0.7161 -2.8874
  509MOL0     H67144   5.140   1.295   7.015 -1.2938  2.4507 -1.0754
  509MOL0     H67145   4.988   1.370   7.078  0.6726  2.3589  1.3207
  509MOL0     H67146   5.018   1.134   7.095  0.0221 -0.3328  1.1436
  509MOL0     H67147   5.135   1.145   7.222 -0.9304 -1.1328  0.9238
  509MOL0     H67148   4.870   1.275   7.260  2.6262  3.1499 -2.6307
  509MOL0     H67149   5.006   1.244   7.376  0.0816 -0.0516 -1.0362
  509MOL0     H67150   4.758   0.901   7.232 -0.8513  0.8586 -2.8179
  509MOL0     H67151   4.505   0.853   7.300  3.8958 -0.8467 -1.8247
  509MOL0     H67152   4.089   1.083   7.397 -0.0802  1.0726  2.4489
  509MOL0     H67153   3.856   1.033   7.483 -1.0212 -1.9524  0.7933
  509MOL0     H67154   3.826   0.807   7.777 -1.2883 -0.9486  1.4640
  509MOL0     H67155   3.816   0.651   7.694 -1.8129 -0.8776  1.2776
  509MOL0     H67156   3.580   0.679   7.670  1.5984 -2.9191  1.1044
  509MOL0     H67157   3.596   0.816   7.787 -2.6673 -1.3880 -0.8192
  509MOL0     H67158   3.716   0.670   7.944  0.8930 -0.4092 -0.0824
  509MOL0     H67159   3.714   0.539   7.829  0.7273  1.1892 -0.8594
  509MOL0     H67160   3.446   0.622   7.859  0.1812 -2.2333 -1.6355
  509MOL0     H67161   3.505   0.469   7.896 -1.7054  0.1240 -0.1831
  509MOL0     H67162   3.485   0.699   8.095  0.2155 -0.0450  0.3947
  509MOL0     H67163   3.587   0.551   8.128 -0.7460 -2.8919  0.0620
  509MOL0     H67164   3.408   0.406   8.121  0.2418  0.6411  0.0211
  509MOL0     H67165   3.296   0.516   8.052 -0.7835  1.2711  1.5425
  509MOL0     H67166   3.398   0.638   8.307  3.0979 -3.0316  0.4533
  509MOL0     H67167   3.236   0.624   8.244  0.3006  0.6136  0.0205
  509MOL0     H67168   3.238   0.486   8.443 -1.3987  1.0488 -0.7810
  509MOL0     H67169   3.377   0.395   8.388 -1.5864 -2.0068  1.3279
  509MOL0     H67170   3.973   0.639   7.568  0.1444  0.0060 -0.1257
  509MOL0     H67171   4.212   0.682   7.487 -0.9044 -2.1067 -1.4659
  509MOL0     H67172   4.532   1.216   7.533  2.3310  2.4544 -1.3636
  509MOL0     H67173   4.759   1.244   7.463 -0.6965  1.0870 -2.3604
  509MOL0     H67174   4.151   1.812   6.498  1.6115  0.8120 -1.7096
  509MOL0     H67175   3.904   1.797   6.431 -0.4591  0.1275 -3.2696
  509MOL0     H67176   3.473   1.817   6.202  2.3905 -0.7970 -1.5058
  509MOL0     H67177   3.256   1.728   6.177 -1.7030 -1.1570  1.9390
  509MOL0     H67178   3.092   1.620   6.063  0.6432 -0.7344  0.2180
  509MOL0     H67179   3.040   1.590   6.229  1.0817  1.0692 -0.2240
  509MOL0     H67180   2.883   1.554   6.038 -0.5522 -0.4781 -1.2414
  509MOL0     H67181   2.991   1.423   5.993 -1.3375 -1.3553  0.4372
  509MOL0     H67182   2.894   1.404   6.279  0.4597 -1.0962  0.8661
  509MOL0     H67183   2.917   1.275   6.168 -0.6474 -0.5058  0.4638
  509MOL0     H67184   2.678   1.465   6.123 -0.7359 -0.4430 -0.4006
  509MOL0     H67185   2.725   1.323   6.033  1.5099 -1.8545  0.5264
  509MOL0     H67186   2.526   1.204   6.404 -0.8222  2.2767  0.9541
  509MOL0     H67187   3.386   1.335   6.196 -2.4797  1.1489 -1.4139
  509MOL0     H67188   3.598   1.412   6.278 -2.1402 -1.9466 -2.0930
  510MOL0     O67189   7.061   2.537   7.282 -0.0810  0.6995 -0.0024
  510MOL0     C67190   7.110   2.650   7.299 -0.0567 -0.8278 -0.0461
  510MOL0     O67191   7.044   2.760   7.323  0.2953 -0.6374 -0.6377
  510MOL0     C67192   6.907   2.771   7.304  0.0238  0.2493 -0.8556
  510MOL0     C67193   6.819   2.698   7.223  0.5526 -0.9049  0.2151
  510MOL0     C67194   6.679   2.733   7.215  0.6536  0.1341 -0.1378
  510MOL0     C67195   6.628   2.843   7.283 -0.3762 -0.3534  0.0778
  510MOL0     O67196   6.491   2.859   7.265 -0.6905 -0.3089  0.1088
  510MOL0     C67197   6.424   2.980   7.308 -0.0484  0.8961  0.6585
  510MOL0     C67198   6.283   3.000   7.257  0.5300  0.0772  0.0543
  510MOL0     C67199   6.222   3.137   7.289 -0.6789  0.4519  0.2097
  510MOL0     C67200   6.095   3.153   7.210  0.1950 -1.2194 -1.6373
  510MOL0     C67201   6.035   3.294   7.251 -0.0540  0.6252 -0.6832
  510MOL0     C67202   5.898   3.307   7.176  0.3295  0.0797  0.8322
  510MOL0     C67203   5.819   3.406   7.247  1.2061 -1.4341  0.3383
  510MOL0     C67204   5.689   3.434   7.174 -0.4388  0.6863 -0.8714
  510MOL0     N67205   5.615   3.538   7.254 -0.1409 -0.9166 -0.3744
  510MOL0     C67206   5.644   3.660   7.298 -1.1991 -0.4687  0.1706
  510MOL0     C67207   5.562   3.675   7.405  0.0318 -0.0511  0.2101
  510MOL0     C67208   5.582   3.789   7.508  0.8692 -0.6732 -0.3005
  510MOL0     C67209   5.462   3.881   7.507 -0.9887  0.2109  0.5121
  510MOL0     C67210   5.494   4.007   7.584 -0.0806 -0.9544  0.3741
  510MOL0     C67211   5.378   4.102   7.584 -0.0494 -0.6973 -0.3140
  510MOL0     O67212   5.333   4.123   7.448 -0.8528 -0.1340 -0.2894
  510MOL0     C67213   5.202   4.165   7.440  0.4629 -0.5199 -1.1003
  510MOL0     C67214   5.124   4.230   7.541 -0.4973  0.4966 -0.2524
  510MOL0     C67215   4.993   4.264   7.510 -0.0819 -0.4151 -0.3625
  510MOL0     C67216   4.933   4.247   7.383 -0.0330 -0.6682 -0.3378
  510MOL0     C67217   4.796   4.287   7.353  1.2563  0.3721  0.2899
  510MOL0     O67218   4.739   4.375   7.439  0.0703  0.0450 -0.4833
  510MOL0     C67219   4.609   4.410   7.416 -0.1316 -0.2473  1.1713
  510MOL0     C67220   4.573   4.493   7.313  0.3758 -1.1178  0.3980
  510MOL0     C67221   4.446   4.549   7.317 -0.2009 -0.0990 -0.1791
  510MOL0     C67222   4.351   4.502   7.410  0.2562  0.2854  0.3985
  510MOL0     O67223   4.230   4.557   7.407 -0.3711  0.2524  0.6205
  510MOL0     C67224   4.209   4.637   7.517 -0.3328  0.0116 -0.8586
  510MOL0     C67225   4.055   4.669   7.537  0.7989  0.1095 -0.4877
  510MOL0     C67226   4.002   4.777   7.448 -0.6448 -0.1270 -0.3250
  510MOL0     C67227   3.853   4.826   7.476 -0.0205  0.0785 -0.7179
  510MOL0     C67228   3.803   4.917   7.370  0.1440 -0.0934 -0.3389
  510MOL0     C67229   3.887   5.044   7.365  0.3658  0.0685 -0.0315
  510MOL0     C67230   3.845   5.126   7.253  0.8545 -0.1368  0.4563
  510MOL0     C67231   3.693   5.167   7.247 -0.3141 -0.5985 -0.5791
  510MOL0    Cl67232   3.646   5.242   7.406  0.0346  0.0493 -0.1586
  510MOL0     C67233   4.384   4.401   7.491 -0.0991  0.6655 -0.0212
  510MOL0     C67234   4.514   4.360   7.505 -0.1663 -0.5515 -0.1703
  510MOL0     O67235   4.736   4.232   7.258 -0.3608 -0.2938  0.0850
  510MOL0     C67236   5.018   4.195   7.279 -0.4050 -0.3277  0.6490
  510MOL0     C67237   5.149   4.158   7.310 -0.1466 -0.5362 -0.6843
  510MOL0     N67238   5.458   3.590   7.402 -0.3455 -0.1765  0.1636
  510MOL0     N67239   5.492   3.508   7.309  0.0457  0.2472  0.7836
  510MOL0     C67240   6.711   2.912   7.372 -0.1820  0.2497  0.0125
  510MOL0     C67241   6.850   2.878   7.374  0.4738  0.5645 -0.5160
  510MOL0     C67242   7.262   2.668   7.313 -0.0456  0.6679 -0.4531
  510MOL0     C67243   7.309   2.750   7.415  0.1764  0.1953 -0.0467
  510MOL0     C67244   7.453   2.752   7.430  0.1117  0.4605 -0.1679
  510MOL0     C67245   7.545   2.695   7.342 -1.0714 -0.0968  0.6050
  510MOL0     O67246   7.684   2.699   7.353 -0.7069 -0.2074  0.1044
  510MOL0     C67247   7.751   2.771   7.466  0.4257  1.0131  0.0850
  510MOL0     C67248   7.906   2.777   7.450 -0.0982  0.4726 -0.3406
  510MOL0     C67249   7.963   2.866   7.331 -0.7278 -0.3789  0.3146
  510MOL0     C67250   7.993   3.010   7.375 -0.0674  0.0292 -0.1821
  510MOL0     C67251   8.140   3.034   7.385 -0.9033  0.4093 -0.9692
  510MOL0     C67252   8.263   3.062   7.373  0.7591  0.0285  0.6104
  510MOL0     C67253   7.490   2.629   7.231 -0.3064 -0.1580  0.0839
  510MOL0     C67254   7.344   2.619   7.220 -0.2969  0.1971  0.1289
  510MOL0     H67255   6.854   2.614   7.164 -2.5623 -1.0207 -1.7325
  510MOL0     H67256   6.617   2.670   7.152  2.0624 -0.2557 -1.1888
  510MOL0     H67257   6.478   3.069   7.273 -0.1444  1.0163  0.8091
  510MOL0     H67258   6.420   2.978   7.417  1.9165  0.5645  0.7557
  510MOL0     H67259   6.214   2.925   7.296 -2.1002  0.5401 -3.2210
  510MOL0     H67260   6.290   2.984   7.149 -0.6077  1.7526 -0.3023
  510MOL0     H67261   6.293   3.216   7.267 -1.7128  0.8839 -1.8842
  510MOL0     H67262   6.197   3.130   7.395 -1.7939  2.0540  0.0794
  510MOL0     H67263   6.119   3.165   7.104  3.6640 -2.2094 -1.1164
  510MOL0     H67264   6.024   3.074   7.238 -0.3424  0.4248  2.1576
  510MOL0     H67265   6.111   3.370   7.233  0.0288  1.2539  1.9827
  510MOL0     H67266   6.014   3.298   7.358  0.5757  3.1661 -0.6062
  510MOL0     H67267   5.848   3.210   7.184 -0.9935  0.3788 -2.3300
  510MOL0     H67268   5.918   3.330   7.071  2.0840 -1.5060  0.7654
  510MOL0     H67269   5.807   3.365   7.348  0.0988  0.6352  1.1198
  510MOL0     H67270   5.864   3.506   7.256  0.3973 -0.9723 -0.5503
  510MOL0     H67271   5.633   3.341   7.175 -0.8062  0.8985 -1.4006
  510MOL0     H67272   5.703   3.464   7.069  0.4819 -2.7644 -1.8472
  510MOL0     H67273   5.732   3.717   7.271  0.0071 -1.8384  1.0489
  510MOL0     H67274   5.673   3.846   7.488  0.0134  0.9089  0.1876
  510MOL0     H67275   5.579   3.750   7.610 -2.3849  0.7098  0.2516
  510MOL0     H67276   5.375   3.838   7.558 -0.4026  1.0084  2.2806
  510MOL0     H67277   5.443   3.903   7.401 -2.6422 -1.1183  0.4913
  510MOL0     H67278   5.526   3.970   7.682 -3.6789 -0.0710  2.0530
  510MOL0     H67279   5.577   4.059   7.536 -0.5801 -1.7026 -1.4124
  510MOL0     H67280   5.412   4.202   7.611  0.2693 -1.0041  0.4367
  510MOL0     H67281   5.304   4.064   7.655 -2.2508  3.8554  0.2057
  510MOL0     H67282   5.172   4.235   7.638  1.3581 -0.6170 -1.0710
  510MOL0     H67283   4.936   4.308   7.591  0.3311 -1.2910  0.4274
  510MOL0     H67284   4.649   4.527   7.243  2.6400 -2.0384  2.2598
  510MOL0     H67285   4.426   4.625   7.241  0.4602 -0.1114 -0.3729
  510MOL0     H67286   4.276   4.723   7.506  1.2475 -1.3245 -2.4470
  510MOL0     H67287   4.235   4.591   7.613 -0.0814  2.1827  0.1708
  510MOL0     H67288   4.037   4.703   7.639  0.5608 -3.5598  0.8367
  510MOL0     H67289   4.012   4.569   7.532  0.3997 -0.0061  3.0242
  510MOL0     H67290   4.012   4.744   7.344 -0.2869 -0.5623 -0.1537
  510MOL0     H67291   4.071   4.862   7.452  0.9405 -1.3082 -1.4084
  510MOL0     H67292   3.781   4.744   7.480  0.1817 -0.0495  1.1401
  510MOL0     H67293   3.854   4.876   7.573  1.9337 -1.5657  0.1737
  510MOL0     H67294   3.700   4.938   7.400  0.0264  0.4161 -1.0777
  510MOL0     H67295   3.800   4.867   7.272 -2.2085  0.5714 -0.6770
  510MOL0     H67296   3.996   5.030   7.357  0.1828 -3.1741  1.3682
  510MOL0     H67297   3.861   5.098   7.456  0.2394 -0.5359  0.2985
  510MOL0     H67298   3.905   5.218   7.262  0.4366  0.0832  1.0638
  510MOL0     H67299   3.874   5.081   7.158  0.0910  2.4970 -1.1452
  510MOL0     H67300   3.636   5.076   7.227  1.2618 -2.1472  1.5015
  510MOL0     H67301   3.665   5.230   7.162  4.5040  0.1186 -1.9872
  510MOL0     H67302   4.314   4.360   7.563  1.0063  0.3008  0.8912
  510MOL0     H67303   4.532   4.299   7.593  0.6412  1.4519  1.1205
  510MOL0     H67304   4.980   4.185   7.178  0.0603  0.3613  0.4035
  510MOL0     H67305   5.201   4.125   7.221  0.4450  2.0083 -1.3682
  510MOL0     H67306   6.676   2.997   7.430  2.4023  0.0839  2.0300
  510MOL0     H67307   6.921   2.930   7.438 -1.0162 -1.5727  3.1952
  510MOL0     H67308   7.240   2.795   7.485  0.7538 -0.7426  1.1660
  510MOL0     H67309   7.497   2.816   7.506 -1.3217 -1.0335  2.0569
  510MOL0     H67310   7.722   2.727   7.562 -1.1088  1.1712 -0.2767
  510MOL0     H67311   7.717   2.874   7.475 -1.8794  0.2533  0.7430
  510MOL0     H67312   7.958   2.811   7.540 -1.8983  0.6191  0.7035
  510MOL0     H67313   7.937   2.674   7.432 -0.4772  0.0414  1.3520
  510MOL0     H67314   7.906   2.873   7.238  0.5763  1.4942 -0.4130
  510MOL0     H67315   8.060   2.821   7.306 -2.5705 -3.5154 -1.7626
  510MOL0     H67316   7.960   3.075   7.292  1.1194 -1.3736 -1.8249
  510MOL0     H67317   7.935   3.037   7.464  0.8299  0.2813  0.3332
  510MOL0     H67318   8.362   3.102   7.361  0.9027 -0.9027 -2.0651
  510MOL0     H67319   7.547   2.571   7.159  2.0890  1.1915  0.8048
  510MOL0     H67320   7.309   2.559   7.136 -1.2432  0.0576  0.6149
  511MOL0     O67321   0.952   7.499   5.163  0.6006 -0.5645 -0.0488
  511MOL0     C67322   0.996   7.610   5.155  0.3063 -0.1065 -0.6976
  511MOL0     O67323   0.929   7.724   5.121  0.0308  0.1318  0.5419
  511MOL0     C67324   0.797   7.703   5.069  0.8049  0.3169 -0.1157
  511MOL0     C67325   0.679   7.702   5.145 -0.8914 -0.5434  0.0056
  511MOL0     C67326   0.550   7.683   5.083 -0.0219 -0.0610  0.2400
  511MOL0     C67327   0.543   7.648   4.951  0.5112  1.3772 -0.0461
  511MOL0     O67328   0.431   7.604   4.882  0.3140 -0.3725 -0.3766
  511MOL0     C67329   0.302   7.614   4.942 -0.6975 -0.1530 -0.0934
  511MOL0     C67330   0.190   7.588   4.846  0.3402 -0.9304 -0.2089
  511MOL0     C67331   0.049   7.596   4.916  0.0730  0.1893  0.3679
  511MOL0     C67332  -0.051   7.542   4.811 -0.2013 -0.0962  0.6928
  511MOL0     C67333  -0.200   7.532   4.850 -0.5766 -0.0422  0.3959
  511MOL0     C67334  -0.292   7.489   4.740 -0.3495 -0.6504  0.2324
  511MOL0     C67335  -0.410   7.401   4.777  0.0805 -0.3719 -0.4200
  511MOL0     C67336  -0.510   7.447   4.898  0.1841 -0.2047  0.3899
  511MOL0     N67337  -0.568   7.574   4.865 -0.2617 -0.3320 -0.0643
  511MOL0     C67338  -0.654   7.599   4.760 -0.2588 -0.0473  0.7225
  511MOL0     C67339  -0.704   7.723   4.779 -0.0051 -0.0034  1.0838
  511MOL0     C67340  -0.816   7.794   4.714  0.4251  0.0080  0.6224
  511MOL0     C67341  -0.957   7.765   4.771  0.1765  0.4424  0.0120
  511MOL0     C67342  -0.963   7.755   4.921  0.4342 -0.2039  0.7960
  511MOL0     C67343  -1.105   7.731   4.971 -0.3619 -0.6288  0.4041
  511MOL0     O67344  -1.176   7.859   4.978  0.5122  0.0133 -0.1180
  511MOL0     C67345  -1.313   7.846   4.998 -0.5040  0.1611 -0.2645
  511MOL0     C67346  -1.379   7.718   5.000  0.5293  0.0424  0.0460
  511MOL0     C67347  -1.520   7.703   5.018  0.0311  0.2529  1.3627
  511MOL0     C67348  -1.589   7.827   5.026  0.3623 -0.4478 -0.4203
  511MOL0     C67349  -1.743   7.821   5.031  0.7754  0.2051  0.0716
  511MOL0     O67350  -1.803   7.697   5.023 -0.1447  0.1726  0.2269
  511MOL0     C67351  -1.939   7.677   5.018 -0.7013 -0.1158  0.0002
  511MOL0     C67352  -1.981   7.549   5.071 -0.2631  0.0635  0.6677
  511MOL0     C67353  -2.106   7.502   5.072 -0.0969 -0.1450 -0.1895
  511MOL0     C67354  -2.209   7.580   5.006 -0.1044 -0.2279 -0.3491
  511MOL0     O67355  -2.335   7.528   5.018 -0.1792 -0.5409 -0.2948
  511MOL0     C67356  -2.461   7.607   5.011  0.4354  0.1413  1.4567
  511MOL0     C67357  -2.513   7.623   4.868  0.3202  0.5358 -0.3045
  511MOL0     C67358  -2.648   7.681   4.845 -0.0011  0.5591  0.0333
  511MOL0     C67359  -2.650   7.823   4.886  0.7318 -0.9200  0.0907
  511MOL0     C67360  -2.773   7.918   4.868  0.4006 -1.0424 -0.0460
  511MOL0     C67361  -2.899   7.865   4.933  0.1439  0.3973  0.1048
  511MOL0     C67362  -2.986   7.788   4.829 -0.0268  0.0810  1.3311
  511MOL0     C67363  -3.071   7.688   4.911  0.1732 -0.8989  0.6345
  511MOL0    Cl67364  -3.182   7.783   5.014 -0.3229 -0.1678  0.2819
  511MOL0     C67365  -2.170   7.711   4.970  0.3599 -0.1163  0.4853
  511MOL0     C67366  -2.040   7.759   4.968  0.2875 -0.2553 -0.4174
  511MOL0     O67367  -1.804   7.932   5.035 -0.2512  0.6893 -0.1837
  511MOL0     C67368  -1.525   7.947   5.028 -0.3301  0.1832 -0.4163
  511MOL0     C67369  -1.386   7.960   5.029 -0.1290 -0.0001  0.0222
  511MOL0     N67370  -0.648   7.773   4.901  0.1763 -0.1940 -0.1224
  511MOL0     N67371  -0.560   7.687   4.941  0.0463  0.4528  0.3593
  511MOL0     C67372   0.655   7.661   4.873  0.7987 -0.4032  0.2372
  511MOL0     C67373   0.781   7.688   4.927  0.4631  0.4779  0.1196
  511MOL0     C67374   1.129   7.621   5.202 -0.4390 -0.3433 -0.3834
  511MOL0     C67375   1.178   7.552   5.309 -0.1497  0.1240 -0.8941
  511MOL0     C67376   1.313   7.569   5.350  0.3136 -0.9471 -0.7172
  511MOL0     C67377   1.405   7.652   5.285  0.0809  0.0730 -0.5869
  511MOL0     O67378   1.536   7.672   5.324  0.3178 -0.9048 -0.3468
  511MOL0     C67379   1.590   7.596   5.426  0.2986 -0.8731 -0.6542
  511MOL0     C67380   1.736   7.651   5.430 -0.0921 -0.3356  0.2479
  511MOL0     C67381   1.730   7.784   5.500  0.0289 -0.3066  0.7379
  511MOL0     C67382   1.870   7.836   5.552  0.4187 -0.3037  0.1421
  511MOL0     C67383   1.904   7.758   5.671  0.6534 -0.1944 -0.0318
  511MOL0     C67384   1.937   7.694   5.767  1.1699  0.5237 -0.4123
  511MOL0     C67385   1.351   7.727   5.182 -0.4070 -0.3212 -0.0676
  511MOL0     C67386   1.220   7.711   5.146 -0.2220 -0.4187  0.0003
  511MOL0     H67387   0.687   7.736   5.248  1.3624  5.6738 -1.7693
  511MOL0     H67388   0.457   7.680   5.139  1.1147  1.0821  2.3138
  511MOL0     H67389   0.289   7.721   4.965 -2.9881 -0.1058 -1.2576
  511MOL0     H67390   0.284   7.562   5.036  0.5493 -3.7816 -1.6863
  511MOL0     H67391   0.206   7.490   4.800 -2.0426 -0.5289 -2.1073
  511MOL0     H67392   0.189   7.661   4.764  1.5511  0.2019  0.7416
  511MOL0     H67393   0.020   7.697   4.944 -0.2276 -0.3583  2.1334
  511MOL0     H67394   0.045   7.532   5.005  1.9016  0.1591  0.4830
  511MOL0     H67395  -0.037   7.607   4.724  3.1695 -2.1099 -0.4715
  511MOL0     H67396  -0.014   7.445   4.777  1.5392  0.6222  0.4231
  511MOL0     H67397  -0.246   7.620   4.896 -1.2918 -0.7765  1.1252
  511MOL0     H67398  -0.197   7.464   4.936  2.1871  0.6038  0.9107
  511MOL0     H67399  -0.233   7.431   4.668  3.6540 -1.1577  3.5459
  511MOL0     H67400  -0.331   7.582   4.696  0.8398  0.4749  1.4537
  511MOL0     H67401  -0.475   7.405   4.689 -0.9943  2.3373  0.3885
  511MOL0     H67402  -0.379   7.299   4.798  2.1383  0.9702  4.2272
  511MOL0     H67403  -0.444   7.463   4.984  0.6147  1.4723 -0.2122
  511MOL0     H67404  -0.588   7.371   4.906 -2.3717  1.3483 -4.9329
  511MOL0     H67405  -0.686   7.533   4.680 -0.5784  0.0103  0.8022
  511MOL0     H67406  -0.805   7.767   4.609 -0.2919 -0.1308  0.5762
  511MOL0     H67407  -0.795   7.900   4.727  1.7774 -0.5212  3.3335
  511MOL0     H67408  -0.999   7.672   4.730 -2.0987 -0.6701  4.3230
  511MOL0     H67409  -1.024   7.847   4.742 -0.4561  0.1674  0.6629
  511MOL0     H67410  -0.906   7.665   4.945 -0.2898 -0.8435  0.1619
  511MOL0     H67411  -0.911   7.842   4.963  0.6080 -1.1181  2.5809
  511MOL0     H67412  -1.109   7.668   5.060 -0.1061 -0.5353  0.4808
  511MOL0     H67413  -1.153   7.673   4.892  0.3114  1.3166 -1.5290
  511MOL0     H67414  -1.327   7.623   4.986 -2.6295 -1.9671  0.7763
  511MOL0     H67415  -1.568   7.606   5.021  3.1098 -1.4020  1.2934
  511MOL0     H67416  -1.898   7.482   5.089 -1.6243 -1.5405  1.2372
  511MOL0     H67417  -2.117   7.405   5.120  0.9907  1.1502  2.8878
  511MOL0     H67418  -2.451   7.694   5.077  3.4219  0.7163  0.3977
  511MOL0     H67419  -2.540   7.560   5.071  0.1510 -0.6723  0.4650
  511MOL0     H67420  -2.524   7.518   4.838 -1.2670  0.1463  1.4599
  511MOL0     H67421  -2.445   7.675   4.799 -0.3179  2.6333  0.5735
  511MOL0     H67422  -2.729   7.629   4.897 -2.4101  2.7704 -1.2733
  511MOL0     H67423  -2.671   7.679   4.738  1.2095  5.4432 -0.5687
  511MOL0     H67424  -2.633   7.825   4.994 -0.1070 -0.3871  0.2234
  511MOL0     H67425  -2.567   7.867   4.832 -0.4011  1.1578 -0.0514
  511MOL0     H67426  -2.798   7.925   4.762  0.8081 -0.7504 -0.1252
  511MOL0     H67427  -2.750   8.021   4.896 -0.1152 -0.3157 -2.1602
  511MOL0     H67428  -2.958   7.950   4.967  1.7048  1.2825  0.7090
  511MOL0     H67429  -2.867   7.815   5.025  1.6780 -1.6954 -1.4592
  511MOL0     H67430  -3.050   7.856   4.773  0.6222 -0.9629 -0.7822
  511MOL0     H67431  -2.929   7.737   4.751 -2.2213  2.1779 -1.8915
  511MOL0     H67432  -3.012   7.616   4.970  2.8008  0.8541  0.3084
  511MOL0     H67433  -3.136   7.633   4.843 -0.1234  1.0987 -0.7777
  511MOL0     H67434  -2.237   7.795   4.953  2.6081  1.3414 -1.9048
  511MOL0     H67435  -2.013   7.853   4.920  2.2770 -1.4327 -1.7292
  511MOL0     H67436  -1.582   8.038   5.044  0.5478  0.8924 -1.1841
  511MOL0     H67437  -1.345   8.060   5.039  0.2769 -0.1814  0.1963
  511MOL0     H67438   0.650   7.650   4.765 -1.8506  2.2102 -0.0332
  511MOL0     H67439   0.862   7.698   4.856  1.0436  4.1466  1.1224
  511MOL0     H67440   1.108   7.494   5.368  1.1326  0.6134  1.2232
  511MOL0     H67441   1.332   7.515   5.442  3.0814  2.2106  0.7834
  511MOL0     H67442   1.585   7.492   5.393  2.3022 -0.7491 -1.5072
  511MOL0     H67443   1.531   7.602   5.518 -0.9593  0.2367 -1.5105
  511MOL0     H67444   1.803   7.583   5.484 -0.6660 -2.5122 -1.6247
  511MOL0     H67445   1.772   7.646   5.327 -1.6194  0.3728 -0.3548
  511MOL0     H67446   1.658   7.793   5.582  1.7106  0.0322  2.2391
  511MOL0     H67447   1.688   7.848   5.422  1.8898 -0.8531 -0.7934
  511MOL0     H67448   1.946   7.838   5.473  0.2241  2.7802 -0.1014
  511MOL0     H67449   1.852   7.938   5.589 -0.2207 -0.0225 -0.9140
  511MOL0     H67450   1.951   7.625   5.847 -0.7515 -0.8476 -1.1922
  511MOL0     H67451   1.416   7.797   5.131 -0.5534  1.1035  1.6094
  511MOL0     H67452   1.170   7.760   5.063 -1.0608  0.9537  1.2619
  512MOL0     O67453  10.727   1.184   6.873 -0.2784 -0.6175 -0.7231
  512MOL0     C67454  10.779   1.293   6.906  0.5588  0.4089  0.4325
  512MOL0     O67455  10.734   1.370   7.002  0.7596  0.7478 -1.0259
  512MOL0     C67456  10.621   1.355   7.071  0.2319  0.3296  0.1232
  512MOL0     C67457  10.564   1.236   7.116 -1.5851  0.4154 -0.2498
  512MOL0     C67458  10.446   1.231   7.189 -0.0287  1.1753 -0.2511
  512MOL0     C67459  10.365   1.343   7.206 -0.4468  0.3009 -0.0438
  512MOL0     O67460  10.242   1.352   7.264  0.3215 -0.3731 -0.0609
  512MOL0     C67461  10.184   1.230   7.312 -0.1268 -0.7929 -0.5611
  512MOL0     C67462  10.043   1.264   7.362  0.4826 -1.3951  0.1552
  512MOL0     C67463   9.941   1.281   7.251 -0.7636  0.0897  0.1107
  512MOL0     C67464   9.860   1.156   7.235 -0.3579  0.9279 -0.3908
  512MOL0     C67465   9.781   1.142   7.109 -0.7471 -0.1415  0.3221
  512MOL0     C67466   9.666   1.232   7.098  0.0460 -0.6565  0.4215
  512MOL0     C67467   9.570   1.221   6.976  0.0374  0.5583  0.5690
  512MOL0     C67468   9.447   1.314   6.980 -0.4160  0.3119 -0.2210
  512MOL0     N67469   9.347   1.285   7.076  0.3187  1.0239 -0.0782
  512MOL0     C67470   9.303   1.165   7.111 -0.0001  0.4893  0.1552
  512MOL0     C67471   9.198   1.193   7.192  0.4166 -0.7724  0.0421
  512MOL0     C67472   9.105   1.097   7.262 -0.4030 -0.2096 -0.4076
  512MOL0     C67473   9.031   1.010   7.163 -0.6155  0.3043  0.1013
  512MOL0     C67474   8.923   1.082   7.083 -0.3101 -0.1293  0.6365
  512MOL0     C67475   8.801   1.127   7.164  0.0501  0.5514 -0.0334
  512MOL0     O67476   8.705   1.192   7.081  0.6819 -0.2318  0.9933
  512MOL0     C67477   8.631   1.112   6.997  0.1425  0.5036 -0.1533
  512MOL0     C67478   8.536   1.021   7.039  0.5965 -0.2075  0.1403
  512MOL0     C67479   8.478   0.931   6.945  0.8753 -0.0355 -0.2936
  512MOL0     C67480   8.524   0.928   6.814  0.1386  0.1133 -0.6003
  512MOL0     C67481   8.464   0.838   6.719  0.4504  0.0663  0.9586
  512MOL0     O67482   8.357   0.766   6.757 -0.4728 -0.4982  0.0677
  512MOL0     C67483   8.333   0.652   6.680 -0.4042 -0.0645 -0.6674
  512MOL0     C67484   8.242   0.655   6.585 -0.5262  0.2685 -0.4329
  512MOL0     C67485   8.208   0.539   6.505 -0.0389  0.1193 -0.6289
  512MOL0     C67486   8.277   0.423   6.532 -0.2436  0.3705 -0.8224
  512MOL0     O67487   8.255   0.307   6.459 -0.8600 -0.6399  0.0041
  512MOL0     C67488   8.117   0.286   6.415 -1.1590 -0.0114 -0.9800
  512MOL0     C67489   8.116   0.150   6.348  0.3809  0.1465  0.4126
  512MOL0     C67490   7.988   0.126   6.283 -0.3038  0.1065 -0.3299
  512MOL0     C67491   7.991   0.026   6.168 -0.6206  0.0574  0.3961
  512MOL0     C67492   7.864   0.025   6.077 -0.2770  0.0999  0.6057
  512MOL0     C67493   7.751  -0.052   6.143 -0.7250 -0.2782  0.7709
  512MOL0     C67494   7.629  -0.050   6.045 -0.1329 -0.0323  0.6008
  512MOL0     C67495   7.521  -0.138   6.105  0.4048 -0.8515  0.2233
  512MOL0    Cl67496   7.460  -0.063   6.253  0.0927  0.1036  0.0484
  512MOL0     C67497   8.381   0.426   6.630 -0.4368  0.3684  0.6395
  512MOL0     C67498   8.408   0.537   6.696 -0.2637 -0.4003  0.4243
  512MOL0     O67499   8.500   0.845   6.604  0.2493  0.3195  0.5448
  512MOL0     C67500   8.613   1.035   6.774  0.0592  0.3316 -0.7288
  512MOL0     C67501   8.669   1.122   6.862  0.6813 -0.3918 -1.0163
  512MOL0     N67502   9.188   1.331   7.210 -0.4763 -0.0737 -0.2703
  512MOL0     N67503   9.282   1.385   7.137  0.3874  0.5550  0.4475
  512MOL0     C67504  10.416   1.464   7.157  0.1143  0.2802  0.0687
  512MOL0     C67505  10.543   1.466   7.084 -0.4606  0.1386 -0.7157
  512MOL0     C67506  10.906   1.326   6.841 -0.2207  0.8350  0.6315
  512MOL0     C67507  10.962   1.252   6.732  0.1197  0.2471 -0.5965
  512MOL0     C67508  11.091   1.289   6.685  0.2779  0.6955 -0.5090
  512MOL0     C67509  11.167   1.389   6.749 -1.0103  0.0447  0.2747
  512MOL0     O67510  11.292   1.400   6.696  0.1052 -0.6079  0.3207
  512MOL0     C67511  11.369   1.513   6.730 -0.9229 -1.5017 -0.5756
  512MOL0     C67512  11.505   1.502   6.656 -0.1130 -0.2584  0.2709
  512MOL0     C67513  11.483   1.529   6.507  0.0904 -0.2327  0.1577
  512MOL0     C67514  11.602   1.495   6.419  0.2306  0.2499  0.4624
  512MOL0     C67515  11.573   1.541   6.285  0.0530  0.4258 -0.0057
  512MOL0     C67516  11.545   1.584   6.174 -0.2105  0.6404  0.8262
  512MOL0     C67517  11.109   1.464   6.850  0.1890 -0.0554 -0.1392
  512MOL0     C67518  10.983   1.430   6.896  0.1012 -0.3158  0.3409
  512MOL0     H67519  10.626   1.146   7.115  0.2612  1.6404 -0.1251
  512MOL0     H67520  10.415   1.140   7.239 -1.2494  1.1032 -1.0928
  512MOL0     H67521  10.251   1.193   7.390 -0.5552 -0.3390  0.0331
  512MOL0     H67522  10.176   1.152   7.235  1.0894 -1.7390  0.2313
  512MOL0     H67523  10.050   1.360   7.413 -0.8516 -0.6329 -1.0322
  512MOL0     H67524  10.004   1.188   7.431  0.0731 -0.2941  1.1710
  512MOL0     H67525   9.990   1.313   7.158 -2.6683  0.3410 -0.8406
  512MOL0     H67526   9.871   1.360   7.281 -1.7200 -1.4503  2.2076
  512MOL0     H67527   9.932   1.074   7.235  1.2679  2.2885  0.5392
  512MOL0     H67528   9.789   1.131   7.315 -0.5084 -3.1301 -1.5858
  512MOL0     H67529   9.739   1.041   7.103 -0.6678 -0.3681  2.8168
  512MOL0     H67530   9.859   1.169   7.037 -1.0636 -1.8358 -0.7270
  512MOL0     H67531   9.706   1.333   7.085 -2.4080  0.6387  2.2699
  512MOL0     H67532   9.600   1.218   7.183 -0.1236 -0.0166  0.3992
  512MOL0     H67533   9.630   1.251   6.890  0.7629 -1.1306  0.4388
  512MOL0     H67534   9.530   1.120   6.961 -1.6632  1.0117  1.7832
  512MOL0     H67535   9.395   1.319   6.883  0.5503  0.9457 -0.7259
  512MOL0     H67536   9.484   1.415   6.999 -0.7289  0.2948  0.4956
  512MOL0     H67537   9.333   1.069   7.068  0.9130  0.6430  0.4269
  512MOL0     H67538   9.030   1.146   7.326 -0.7149 -1.7216  0.4463
  512MOL0     H67539   9.165   1.035   7.330 -1.3456 -0.2215  0.4519
  512MOL0     H67540   8.983   0.924   7.211 -0.8150  1.1890  1.5648
  512MOL0     H67541   9.100   0.966   7.090 -2.3140  2.2491 -2.9267
  512MOL0     H67542   8.952   1.173   7.028 -3.6896  1.8704  1.8233
  512MOL0     H67543   8.897   1.021   6.996  4.0881  1.2319 -1.9516
  512MOL0     H67544   8.824   1.201   7.241  1.2204 -2.3142  2.6076
  512MOL0     H67545   8.757   1.041   7.215 -0.8193  1.9006  1.5858
  512MOL0     H67546   8.497   1.030   7.140 -3.1563  1.0028 -1.2218
  512MOL0     H67547   8.406   0.862   6.987  0.3058  0.5698 -0.2556
  512MOL0     H67548   8.199   0.748   6.550 -0.4364 -0.0215 -1.3214
  512MOL0     H67549   8.146   0.545   6.416  0.7201 -0.2387 -1.1905
  512MOL0     H67550   8.085   0.350   6.332 -0.8392 -0.3340 -1.3549
  512MOL0     H67551   8.053   0.279   6.503 -0.2195 -0.7778 -0.3520
  512MOL0     H67552   8.143   0.065   6.412 -0.7276 -1.1425 -0.7642
  512MOL0     H67553   8.199   0.147   6.277 -1.4918 -1.9166 -1.8971
  512MOL0     H67554   7.953   0.223   6.246 -4.8834 -0.7428  1.0932
  512MOL0     H67555   7.915   0.102   6.362 -1.9472  0.6067 -1.6413
  512MOL0     H67556   8.078   0.055   6.109 -1.3861 -0.0848 -0.8503
  512MOL0     H67557   8.003  -0.073   6.214 -1.5729 -0.4678 -0.4368
  512MOL0     H67558   7.886  -0.036   5.990 -4.4624 -1.0341  0.1017
  512MOL0     H67559   7.841   0.123   6.035 -0.6618 -0.7075 -1.1240
  512MOL0     H67560   7.723  -0.013   6.241 -0.1841 -0.4928  1.0135
  512MOL0     H67561   7.777  -0.157   6.155 -2.7781 -0.6546  2.5536
  512MOL0     H67562   7.592   0.053   6.039  0.7610  0.3575  1.5860
  512MOL0     H67563   7.652  -0.086   5.944  0.7758  0.1160  0.7478
  512MOL0     H67564   7.564  -0.237   6.120 -1.7658 -1.9368 -0.2452
  512MOL0     H67565   7.442  -0.151   6.031 -0.2786 -3.8699  1.2998
  512MOL0     H67566   8.428   0.330   6.649 -2.3233 -0.6558  0.4474
  512MOL0     H67567   8.484   0.528   6.772 -0.6956 -1.9339  0.7009
  512MOL0     H67568   8.648   1.033   6.671  3.5629  1.3327  0.3160
  512MOL0     H67569   8.731   1.206   6.835 -1.5939  2.1864  1.1991
  512MOL0     H67570  10.360   1.556   7.173 -0.2922  0.2018 -0.8693
  512MOL0     H67571  10.579   1.556   7.035 -0.7428 -0.5450 -2.2511
  512MOL0     H67572  10.912   1.166   6.688 -1.6095 -0.8471  3.1217
  512MOL0     H67573  11.136   1.233   6.603  0.8287 -1.0613  0.9412
  512MOL0     H67574  11.395   1.509   6.836 -0.7610  1.6281 -0.4111
  512MOL0     H67575  11.329   1.614   6.728 -2.0848 -1.9199  0.2535
  512MOL0     H67576  11.577   1.575   6.694 -0.4210 -0.0239  0.4083
  512MOL0     H67577  11.551   1.403   6.668  0.3326 -0.3920 -2.1304
  512MOL0     H67578  11.473   1.637   6.492 -1.0602 -0.2419  0.7637
  512MOL0     H67579  11.387   1.489   6.475  0.7631 -1.1998 -0.7045
  512MOL0     H67580  11.695   1.537   6.459  0.6086  0.6216 -0.7312
  512MOL0     H67581  11.609   1.386   6.422  0.6019  0.2946  1.4480
  512MOL0     H67582  11.530   1.610   6.071  0.5280 -3.3923 -0.4589
  512MOL0     H67583  11.159   1.543   6.905 -0.2189 -0.8961  1.5277
  512MOL0     H67584  10.949   1.480   6.987  0.3474  0.5214 -0.0116
  513MOL0     O67585   6.151   5.604   9.067 -0.4829 -0.4110 -0.2663
  513MOL0     C67586   6.211   5.699   9.121 -0.2701 -0.9197 -0.1015
  513MOL0     O67587   6.170   5.782   9.226  0.2442 -0.5659  0.0145
  513MOL0     C67588   6.039   5.778   9.265  0.8215  0.6938  0.2215
  513MOL0     C67589   6.000   5.726   9.387  0.6847  0.0858 -0.2354
  513MOL0     C67590   5.869   5.713   9.420 -0.6155 -0.3585  0.5424
  513MOL0     C67591   5.774   5.759   9.340  0.2130  0.7088  0.3189
  513MOL0     O67592   5.647   5.758   9.382 -0.6405  0.2409  0.4316
  513MOL0     C67593   5.531   5.744   9.298 -0.6910 -0.0843  0.6833
  513MOL0     C67594   5.417   5.709   9.382  0.4916 -0.4906  0.1739
  513MOL0     C67595   5.305   5.649   9.294  0.7217 -0.2880  0.3476
  513MOL0     C67596   5.173   5.630   9.389 -0.1812  0.2396 -0.0673
  513MOL0     C67597   5.035   5.648   9.318  0.5747  0.4826 -0.2016
  513MOL0     C67598   4.917   5.617   9.414  0.7787  0.2936  1.0904
  513MOL0     C67599   4.790   5.617   9.344  0.4439 -0.4596 -0.2130
  513MOL0     C67600   4.683   5.597   9.459  1.2118  0.3482 -0.5691
  513MOL0     N67601   4.548   5.568   9.409  0.0225  0.6863 -0.1462
  513MOL0     C67602   4.492   5.620   9.296 -0.2604  0.5501  0.6138
  513MOL0     C67603   4.385   5.544   9.274 -0.4401  0.6574 -0.4694
  513MOL0     C67604   4.271   5.545   9.169 -0.5192 -0.8305  0.5099
  513MOL0     C67605   4.301   5.630   9.045  0.3784  0.6119  0.6513
  513MOL0     C67606   4.375   5.560   8.931 -1.1740  0.5535  0.2724
  513MOL0     C67607   4.523   5.549   8.962 -0.2999 -1.0665 -0.1424
  513MOL0     O67608   4.578   5.685   8.950  0.6526  0.3697  0.2041
  513MOL0     C67609   4.715   5.704   8.952  1.0539 -0.4215 -0.4952
  513MOL0     C67610   4.770   5.831   8.968 -0.0752  0.2332  0.0196
  513MOL0     C67611   4.903   5.862   8.962 -0.4166 -0.3606  0.0900
  513MOL0     C67612   4.992   5.751   8.972  0.4107 -1.1620 -0.4013
  513MOL0     C67613   5.137   5.782   8.975 -0.3564 -0.1477 -0.2119
  513MOL0     O67614   5.213   5.678   8.921 -0.8062 -0.3453 -0.1763
  513MOL0     C67615   5.352   5.689   8.921 -0.0848  0.0208 -0.0746
  513MOL0     C67616   5.423   5.797   8.870 -0.1148  0.8950 -0.0432
  513MOL0     C67617   5.566   5.795   8.859  0.0647 -0.0617  1.1152
  513MOL0     C67618   5.635   5.676   8.893  1.1929 -0.4282 -0.3978
  513MOL0     O67619   5.767   5.688   8.853  0.2667  1.3334  0.2752
  513MOL0     C67620   5.854   5.573   8.852 -0.0202 -0.2370  0.1413
  513MOL0     C67621   5.972   5.583   8.748  0.1258  0.1884  0.1975
  513MOL0     C67622   6.033   5.717   8.740  0.3461 -0.7785  0.9684
  513MOL0     C67623   6.167   5.718   8.670  0.1313  0.1668 -0.1760
  513MOL0     C67624   6.214   5.856   8.612  0.5357 -0.1722 -0.1487
  513MOL0     C67625   6.291   5.854   8.481  0.1229 -0.1481  0.0358
  513MOL0     C67626   6.392   5.749   8.464  0.4394 -0.1213 -0.0797
  513MOL0     C67627   6.536   5.771   8.505 -0.1469 -0.5304  0.1643
  513MOL0    Cl67628   6.625   5.617   8.483  0.5685  0.1342 -0.0780
  513MOL0     C67629   5.568   5.571   8.960 -0.2258 -0.1130 -0.1026
  513MOL0     C67630   5.428   5.576   8.964 -0.0322  0.6932 -0.6623
  513MOL0     O67631   5.186   5.885   9.024 -0.4289 -0.3025  0.0553
  513MOL0     C67632   4.942   5.625   8.966  0.9708  0.5285  0.1011
  513MOL0     C67633   4.808   5.599   8.940  0.9166 -0.3251 -0.8831
  513MOL0     N67634   4.367   5.473   9.384 -0.2838  0.4389 -0.3101
  513MOL0     N67635   4.467   5.475   9.469  0.9214  0.2275 -1.0282
  513MOL0     C67636   5.807   5.829   9.222  1.4782 -0.0519 -0.2962
  513MOL0     C67637   5.942   5.823   9.180  0.3585  0.4888 -0.3128
  513MOL0     C67638   6.335   5.746   9.061 -0.4735  0.1114 -0.0089
  513MOL0     C67639   6.399   5.663   8.961  0.0601  0.1659 -0.0665
  513MOL0     C67640   6.523   5.710   8.912 -0.1514  0.0113  0.9759
  513MOL0     C67641   6.581   5.834   8.951 -0.2024  0.6356  0.5710
  513MOL0     O67642   6.700   5.854   8.894  0.3690 -0.7307 -0.2836
  513MOL0     C67643   6.782   5.956   8.943 -0.0955  0.3379  0.5198
  513MOL0     C67644   6.932   5.933   8.894  0.6673  0.3390  0.4952
  513MOL0     C67645   6.957   5.954   8.745 -0.2820 -0.3956  0.8783
  513MOL0     C67646   7.107   5.963   8.715 -0.0804  0.7708 -0.4332
  513MOL0     C67647   7.159   5.826   8.719  0.7676  0.0155 -0.2253
  513MOL0     C67648   7.200   5.707   8.723 -0.5085  0.3181 -1.0660
  513MOL0     C67649   6.502   5.916   9.039  0.0663  0.3111  0.4324
  513MOL0     C67650   6.383   5.872   9.088  1.2226 -0.3342 -0.1061
  513MOL0     H67651   6.078   5.678   9.446 -1.0082 -0.1477  1.9514
  513MOL0     H67652   5.844   5.670   9.516  0.3961  0.5543  1.2285
  513MOL0     H67653   5.570   5.680   9.218  3.4401  5.0949 -2.1548
  513MOL0     H67654   5.508   5.844   9.259 -1.1305  0.3821  2.1092
  513MOL0     H67655   5.376   5.803   9.419 -2.2573 -0.5175 -2.4604
  513MOL0     H67656   5.442   5.647   9.469 -1.7567 -0.5754  0.8195
  513MOL0     H67657   5.341   5.552   9.259  1.1688  0.0795 -0.2217
  513MOL0     H67658   5.268   5.709   9.211 -1.5832  0.8757  2.0863
  513MOL0     H67659   5.188   5.527   9.422  0.5319 -0.0438 -1.2014
  513MOL0     H67660   5.182   5.690   9.479 -1.8087  0.2623  0.1148
  513MOL0     H67661   5.035   5.588   9.227 -1.7818  5.1972 -3.7610
  513MOL0     H67662   5.032   5.753   9.287 -4.6452  0.5137 -0.4855
  513MOL0     H67663   4.909   5.704   9.479 -0.6830 -0.7381  2.3667
  513MOL0     H67664   4.924   5.521   9.467 -1.2623 -0.5370 -0.0249
  513MOL0     H67665   4.772   5.717   9.302 -0.2906 -0.8460 -0.8559
  513MOL0     H67666   4.782   5.547   9.260  1.5997  0.0410 -0.7702
  513MOL0     H67667   4.675   5.681   9.528  0.0984 -0.7946  0.7440
  513MOL0     H67668   4.721   5.520   9.525  0.9530  3.2996  3.3814
  513MOL0     H67669   4.542   5.694   9.233  0.0858 -2.5480 -3.1105
  513MOL0     H67670   4.179   5.577   9.219  0.0299 -0.1264  1.0799
  513MOL0     H67671   4.268   5.438   9.146  0.7604 -0.5149 -1.3702
  513MOL0     H67672   4.357   5.720   9.074  2.3829 -0.5674  0.6157
  513MOL0     H67673   4.202   5.653   9.005  1.3981 -0.6964 -3.0034
  513MOL0     H67674   4.335   5.459   8.913 -0.1043  0.4465 -1.8951
  513MOL0     H67675   4.368   5.615   8.837  0.0500 -0.5959 -0.5367
  513MOL0     H67676   4.574   5.479   8.895  2.7844  1.9355 -1.2255
  513MOL0     H67677   4.541   5.511   9.063 -2.5555 -1.2650  0.2411
  513MOL0     H67678   4.700   5.911   8.990  0.4973  0.2560  2.0732
  513MOL0     H67679   4.942   5.963   8.970 -1.1326  0.2154 -2.6070
  513MOL0     H67680   5.363   5.885   8.847 -1.5548 -0.3126 -1.1638
  513MOL0     H67681   5.618   5.880   8.816 -1.5846 -0.6117 -2.2901
  513MOL0     H67682   5.802   5.478   8.837 -1.3616 -0.3059  4.0969
  513MOL0     H67683   5.893   5.571   8.954 -1.4230  0.2029  0.6967
  513MOL0     H67684   5.942   5.564   8.645 -1.9863 -1.8796  1.1123
  513MOL0     H67685   6.052   5.512   8.775  0.8468  1.3252  1.1781
  513MOL0     H67686   6.056   5.762   8.837 -2.2713  4.2528 -0.3756
  513MOL0     H67687   5.969   5.793   8.693  2.7009  0.8069  0.1401
  513MOL0     H67688   6.245   5.667   8.728  0.1359 -1.0541 -1.2084
  513MOL0     H67689   6.155   5.648   8.587 -1.1535 -1.7465  1.5295
  513MOL0     H67690   6.273   5.910   8.687  0.2130 -1.4752  1.0684
  513MOL0     H67691   6.126   5.917   8.590  0.4086 -0.9839 -2.1062
  513MOL0     H67692   6.332   5.955   8.473  0.2179  0.0826  2.4988
  513MOL0     H67693   6.219   5.841   8.400  0.7312  0.0629 -0.5525
  513MOL0     H67694   6.364   5.653   8.509 -1.0031 -0.3127 -1.3153
  513MOL0     H67695   6.390   5.703   8.365  2.7930 -0.5298  0.0003
  513MOL0     H67696   6.530   5.791   8.613 -0.0470  0.3908  0.0040
  513MOL0     H67697   6.596   5.843   8.449  2.2405 -0.9676  2.0074
  513MOL0     H67698   5.631   5.495   9.005 -0.7221  0.1691  1.0781
  513MOL0     H67699   5.383   5.485   9.001  2.8185 -0.4290  0.2763
  513MOL0     H67700   5.021   5.551   8.971  0.8246  0.3256 -0.5329
  513MOL0     H67701   4.769   5.498   8.938  0.0220 -0.0672  0.8231
  513MOL0     H67702   5.728   5.862   9.155  1.5381 -0.2019 -0.4415
  513MOL0     H67703   5.962   5.863   9.081 -2.3424  2.0636 -0.2999
  513MOL0     H67704   6.349   5.573   8.926 -2.2770  1.7179 -0.9962
  513MOL0     H67705   6.567   5.646   8.837  0.7247 -1.3640  2.6139
  513MOL0     H67706   6.787   5.956   9.052  1.7155  1.3577  0.4738
  513MOL0     H67707   6.751   6.054   8.903  1.6256  0.7117  0.0204
  513MOL0     H67708   6.992   6.006   8.949  1.9123  0.7576 -1.3231
  513MOL0     H67709   6.957   5.835   8.934  0.5068  0.6013  1.2577
  513MOL0     H67710   6.902   6.046   8.722 -0.7714 -1.0175 -0.5178
  513MOL0     H67711   6.910   5.882   8.678 -1.2031  0.7447  0.2576
  513MOL0     H67712   7.122   6.002   8.614  0.1701  1.6485 -0.0638
  513MOL0     H67713   7.161   6.027   8.786 -2.6554  0.2221  2.2220
  513MOL0     H67714   7.211   5.601   8.733  1.3143  0.2846 -2.7689
  513MOL0     H67715   6.539   6.013   9.070  0.2961  0.1978  0.5173
  513MOL0     H67716   6.323   5.936   9.151  0.8038 -2.5450  1.9165
  514MOL0     O67717  10.261   0.906   8.041 -0.0380 -0.2097 -0.5532
  514MOL0     C67718  10.271   1.020   8.090 -0.6740 -0.3118  0.3775
  514MOL0     O67719  10.216   1.062   8.210 -0.2483  0.5800  0.1853
  514MOL0     C67720  10.137   0.975   8.289 -0.4570 -0.1309  0.1381
  514MOL0     C67721  10.094   0.844   8.262  0.0116  0.1548 -0.3450
  514MOL0     C67722  10.015   0.787   8.360  0.5036  0.0996 -0.2227
  514MOL0     C67723   9.973   0.849   8.480 -0.3053  0.2884  0.3784
  514MOL0     O67724   9.902   0.787   8.574 -0.2066  0.5560  0.6556
  514MOL0     C67725   9.867   0.644   8.570  0.2268 -0.2689  0.2458
  514MOL0     C67726   9.739   0.610   8.498  0.5828  0.4450 -0.1393
  514MOL0     C67727   9.731   0.455   8.475 -0.8461  0.4181  0.7775
  514MOL0     C67728   9.602   0.409   8.401 -0.6641  0.2225  0.5326
  514MOL0     C67729   9.478   0.440   8.491  0.3969 -0.3309  0.0378
  514MOL0     C67730   9.350   0.381   8.417  0.9304  0.4600  0.5491
  514MOL0     C67731   9.233   0.438   8.495  0.4263 -0.4257 -0.0728
  514MOL0     C67732   9.093   0.376   8.446  0.0196  0.1627  0.1904
  514MOL0     N67733   8.980   0.459   8.490  0.1375 -0.2436  0.2692
  514MOL0     C67734   8.927   0.565   8.422  0.4724 -0.2339 -0.5168
  514MOL0     C67735   8.828   0.604   8.507  0.4396 -0.2090  0.7258
  514MOL0     C67736   8.733   0.706   8.460  0.4747 -0.2715  0.0433
  514MOL0     C67737   8.768   0.837   8.520 -0.3171 -0.5256  0.7479
  514MOL0     C67738   8.882   0.910   8.440  0.3770 -0.8358 -0.5170
  514MOL0     C67739   8.914   1.047   8.504 -0.5045 -0.0493  0.3018
  514MOL0     O67740   8.800   1.134   8.507  0.4326  0.0670  1.0195
  514MOL0     C67741   8.785   1.231   8.603  0.3117  0.1031 -0.3053
  514MOL0     C67742   8.888   1.269   8.684  0.1602  0.0265 -0.0452
  514MOL0     C67743   8.875   1.377   8.765  0.3155 -0.3704 -0.1660
  514MOL0     C67744   8.752   1.444   8.772  0.4138  0.0812  0.9068
  514MOL0     C67745   8.746   1.565   8.861  0.0065  0.0981  0.4603
  514MOL0     O67746   8.640   1.648   8.844  0.4045 -0.2626  0.0995
  514MOL0     C67747   8.618   1.758   8.923 -0.7017 -0.1812 -0.9603
  514MOL0     C67748   8.560   1.873   8.874 -0.2127  0.1782  0.8817
  514MOL0     C67749   8.528   1.984   8.954 -0.3089 -0.1610  0.6910
  514MOL0     C67750   8.552   1.971   9.091 -0.9650  0.8806 -0.9236
  514MOL0     O67751   8.533   2.080   9.176  0.0853  0.2018  0.3408
  514MOL0     C67752   8.594   2.198   9.126  0.3733  0.6029 -0.4068
  514MOL0     C67753   8.612   2.298   9.246  0.1398 -0.5917  0.0572
  514MOL0     C67754   8.481   2.369   9.281  0.2106 -0.0860  0.5023
  514MOL0     C67755   8.398   2.296   9.378 -0.1042  0.4580  0.4189
  514MOL0     C67756   8.277   2.374   9.442 -0.3174  0.2251  0.4821
  514MOL0     C67757   8.215   2.310   9.563  0.5538  0.1845 -0.1848
  514MOL0     C67758   8.116   2.413   9.628 -0.4232 -0.3757 -0.3652
  514MOL0     C67759   8.035   2.344   9.732 -0.6985  0.3062 -0.5787
  514MOL0    Cl67760   7.910   2.452   9.814 -0.3378  0.2928 -0.3301
  514MOL0     C67761   8.609   1.850   9.145 -0.4240 -0.1819  0.3003
  514MOL0     C67762   8.637   1.746   9.065 -0.1225 -0.2082  0.2208
  514MOL0     O67763   8.832   1.572   8.947  0.8377 -0.4095 -0.3601
  514MOL0     C67764   8.645   1.401   8.695  0.4041  0.3442 -0.3151
  514MOL0     C67765   8.664   1.296   8.607  0.3921  0.2346  0.2388
  514MOL0     N67766   8.820   0.530   8.619  0.3314  0.4386  0.4096
  514MOL0     N67767   8.924   0.449   8.610 -1.0077  1.2597 -0.7876
  514MOL0     C67768  10.009   0.985   8.498  0.0664  0.3638 -0.7146
  514MOL0     C67769  10.089   1.041   8.395 -1.0769  0.2531  0.4927
  514MOL0     C67770  10.369   1.111   8.024 -0.5492  0.1663  0.0018
  514MOL0     C67771  10.474   1.059   7.944 -0.0002  0.5713 -1.1239
  514MOL0     C67772  10.566   1.143   7.888 -0.7330 -0.9732  0.2494
  514MOL0     C67773  10.564   1.277   7.925  0.9554 -0.0322  0.0673
  514MOL0     O67774  10.661   1.364   7.895 -0.1488 -0.0596  0.4131
  514MOL0     C67775  10.768   1.319   7.807 -0.0824 -0.0001 -0.1701
  514MOL0     C67776  10.875   1.435   7.808 -0.0354  0.3551 -0.9502
  514MOL0     C67777  11.007   1.400   7.726  0.1737 -0.4256  0.7802
  514MOL0     C67778  11.091   1.526   7.714  0.5026  0.3043  0.4275
  514MOL0     C67779  11.163   1.544   7.835 -0.5903  0.3926 -0.1957
  514MOL0     C67780  11.251   1.539   7.919 -0.1338  0.5924 -0.0881
  514MOL0     C67781  10.466   1.330   8.019 -0.4805 -0.9252  0.1350
  514MOL0     C67782  10.373   1.246   8.067 -0.2805  0.8311 -0.2917
  514MOL0     H67783  10.121   0.798   8.168 -0.2795  0.8813 -0.7964
  514MOL0     H67784   9.986   0.685   8.339  1.0677  0.0958 -0.9860
  514MOL0     H67785   9.849   0.603   8.670  0.3315  0.6755  0.6622
  514MOL0     H67786   9.953   0.587   8.534  0.2923 -0.1561  0.2227
  514MOL0     H67787   9.728   0.668   8.406  1.1784  1.4751  0.4161
  514MOL0     H67788   9.650   0.645   8.551 -1.1419 -0.1654 -2.4338
  514MOL0     H67789   9.749   0.397   8.566  0.3431 -0.2119  0.1609
  514MOL0     H67790   9.808   0.425   8.404  0.1890 -3.4429  3.2104
  514MOL0     H67791   9.596   0.462   8.305 -0.9969 -2.1589 -0.8476
  514MOL0     H67792   9.603   0.300   8.394 -1.8130  0.2344 -0.1055
  514MOL0     H67793   9.475   0.549   8.489  0.9556 -0.2916 -2.4080
  514MOL0     H67794   9.498   0.414   8.595  1.1480  2.3288  0.6151
  514MOL0     H67795   9.349   0.272   8.415  0.1916  0.4774 -1.1507
  514MOL0     H67796   9.338   0.421   8.316 -1.2854 -1.4472 -0.0230
  514MOL0     H67797   9.238   0.402   8.599 -1.4376  3.7497  1.6614
  514MOL0     H67798   9.244   0.546   8.486  2.0630 -0.5193  0.3552
  514MOL0     H67799   9.091   0.273   8.483 -0.4605 -0.2050 -0.8312
  514MOL0     H67800   9.092   0.373   8.337 -2.0350 -3.2609  0.1479
  514MOL0     H67801   8.944   0.597   8.319 -1.3800 -0.2464 -0.8513
  514MOL0     H67802   8.630   0.679   8.487  0.4509 -2.0908 -1.6664
  514MOL0     H67803   8.740   0.712   8.351  1.8096 -2.2686 -0.0319
  514MOL0     H67804   8.793   0.822   8.626  0.7411 -0.3365  0.5263
  514MOL0     H67805   8.673   0.893   8.520 -0.4941 -0.8134 -0.1293
  514MOL0     H67806   8.977   0.856   8.433  1.3007  0.8011 -1.0690
  514MOL0     H67807   8.838   0.921   8.340  0.8932 -2.0415 -0.8927
  514MOL0     H67808   8.987   1.090   8.435 -0.9766 -1.9617 -1.5165
  514MOL0     H67809   8.954   1.034   8.605  0.0400 -0.0521  0.0868
  514MOL0     H67810   8.988   1.227   8.677 -0.3968 -1.1728 -1.0920
  514MOL0     H67811   8.954   1.404   8.834  0.5902 -0.5067 -0.4270
  514MOL0     H67812   8.558   1.881   8.766  0.1209 -1.6949  0.6978
  514MOL0     H67813   8.485   2.074   8.912  0.4640  1.0442  2.3785
  514MOL0     H67814   8.531   2.236   9.045 -0.7561  0.8798  0.5716
  514MOL0     H67815   8.693   2.171   9.088 -0.4768 -1.6642 -1.1711
  514MOL0     H67816   8.670   2.380   9.203 -3.3305  2.1813  0.2537
  514MOL0     H67817   8.663   2.252   9.331  1.6591 -2.2571 -1.6323
  514MOL0     H67818   8.425   2.409   9.196 -3.4200 -0.5286  2.4543
  514MOL0     H67819   8.500   2.459   9.342 -0.9377 -1.2300  2.6776
  514MOL0     H67820   8.351   2.212   9.325  2.5494 -0.8424 -0.0123
  514MOL0     H67821   8.459   2.267   9.464  0.3241  1.3516  0.4184
  514MOL0     H67822   8.200   2.385   9.365  0.1103  2.1868  0.2819
  514MOL0     H67823   8.312   2.474   9.470 -1.6732  0.7310  0.4762
  514MOL0     H67824   8.288   2.283   9.640 -2.9682 -1.7972  2.7827
  514MOL0     H67825   8.157   2.222   9.533  0.8750 -0.3586  0.7516
  514MOL0     H67826   8.175   2.491   9.676 -0.9919 -0.8271  1.1009
  514MOL0     H67827   8.058   2.466   9.551 -1.3592 -1.6219 -0.5537
  514MOL0     H67828   8.094   2.293   9.809 -0.9100 -0.2129 -0.7567
  514MOL0     H67829   7.980   2.264   9.682  1.5651 -1.7269 -0.0085
  514MOL0     H67830   8.633   1.836   9.250  1.0856  0.0244  0.0125
  514MOL0     H67831   8.673   1.654   9.111  0.1900  0.1826  0.7687
  514MOL0     H67832   8.552   1.456   8.694 -0.5053 -1.1229 -1.8761
  514MOL0     H67833   8.585   1.260   8.541  1.3868 -1.8518  0.1039
  514MOL0     H67834   9.972   1.043   8.581 -1.3361 -0.6580 -0.6031
  514MOL0     H67835  10.124   1.144   8.398  0.7606 -0.3099 -0.0979
  514MOL0     H67836  10.456   0.956   7.917 -2.8913 -0.4381  3.5382
  514MOL0     H67837  10.643   1.107   7.821 -1.2660 -2.2846  0.3314
  514MOL0     H67838  10.727   1.297   7.708  0.2236  0.4583 -0.4023
  514MOL0     H67839  10.827   1.240   7.854  0.5769  0.5284 -0.0866
  514MOL0     H67840  10.831   1.528   7.771 -0.9066  1.2947  2.1674
  514MOL0     H67841  10.913   1.464   7.906 -2.0362  2.8196 -0.8245
  514MOL0     H67842  10.982   1.360   7.627 -2.2942  0.2937  1.0444
  514MOL0     H67843  11.054   1.317   7.781 -0.5029 -1.7209 -0.5187
  514MOL0     H67844  11.157   1.510   7.628 -1.4245 -1.4415 -0.8064
  514MOL0     H67845  11.031   1.611   7.681  1.1760  0.1415 -1.3119
  514MOL0     H67846  11.315   1.525   8.004 -0.4250 -1.7922 -0.1812
  514MOL0     H67847  10.483   1.435   8.039  1.9684 -0.2655 -4.0740
  514MOL0     H67848  10.301   1.289   8.136 -3.0329  1.6005 -3.4138
  515MOL0     O67849   9.321   2.385  10.514 -0.2574  0.0437  0.3031
  515MOL0     C67850   9.339   2.495  10.463 -0.1479 -0.0422  0.4726
  515MOL0     O67851   9.238   2.584  10.435 -0.0050 -0.0321  0.2711
  515MOL0     C67852   9.113   2.551  10.483 -0.0781  0.7078 -0.8146
  515MOL0     C67853   9.011   2.557  10.390  0.4077 -0.8702  0.5193
  515MOL0     C67854   8.876   2.542  10.435 -0.1809  0.2496  0.6773
  515MOL0     C67855   8.850   2.523  10.569  0.3024  0.5611 -0.2628
  515MOL0     O67856   8.729   2.499  10.630 -0.4289 -0.1212  0.1099
  515MOL0     C67857   8.611   2.533  10.562  0.0440 -0.3830 -0.3562
  515MOL0     C67858   8.485   2.546  10.651 -0.2987 -0.3132 -0.0518
  515MOL0     C67859   8.353   2.557  10.565 -0.5371 -0.7359 -0.0597
  515MOL0     C67860   8.231   2.557  10.659  0.2598  0.1352 -0.0297
  515MOL0     C67861   8.108   2.593  10.582 -0.7110  0.3252  0.2619
  515MOL0     C67862   7.983   2.603  10.662  0.3863  0.3298 -0.0645
  515MOL0     C67863   7.887   2.698  10.593 -1.0795 -0.1485  0.1052
  515MOL0     C67864   7.764   2.738  10.677 -0.0446  0.4442 -0.4963
  515MOL0     N67865   7.665   2.629  10.649  0.0491 -0.8958  1.1564
  515MOL0     C67866   7.608   2.592  10.528 -0.0976  0.3330  0.2360
  515MOL0     C67867   7.533   2.485  10.551 -0.1356 -0.1701 -0.1397
  515MOL0     C67868   7.426   2.416  10.467  0.4063 -0.3353 -0.7296
  515MOL0     C67869   7.300   2.508  10.462 -0.6755  0.3553  0.2069
  515MOL0     C67870   7.185   2.458  10.546 -0.2158 -0.1073  1.1844
  515MOL0     C67871   7.055   2.535  10.511  0.0298 -0.3301  0.5001
  515MOL0     O67872   7.063   2.670  10.553 -0.3305 -0.2309  0.1180
  515MOL0     C67873   6.947   2.751  10.547 -0.2327 -0.0645  0.6824
  515MOL0     C67874   6.825   2.712  10.490 -0.5542  0.2719  0.0195
  515MOL0     C67875   6.727   2.812  10.494  0.5297 -0.1575 -0.0415
  515MOL0     C67876   6.738   2.940  10.545  0.0200  0.2020  0.0728
  515MOL0     C67877   6.625   3.038  10.535  0.7575 -0.2076 -0.2033
  515MOL0     O67878   6.508   2.999  10.471 -0.6677  0.5286 -0.3081
  515MOL0     C67879   6.419   3.094  10.429  0.6889  0.1702 -0.3210
  515MOL0     C67880   6.334   3.159  10.517 -0.3976 -0.0817  0.1209
  515MOL0     C67881   6.242   3.255  10.480 -1.1051  0.0454 -0.2656
  515MOL0     C67882   6.218   3.271  10.342  0.4693 -0.2012  0.8376
  515MOL0     O67883   6.108   3.342  10.298 -0.1621 -0.4567  0.2004
  515MOL0     C67884   6.038   3.308  10.178 -0.1445 -0.3028  0.1130
  515MOL0     C67885   5.902   3.386  10.161 -0.1040 -0.0438 -0.4248
  515MOL0     C67886   5.858   3.354  10.021  0.5968 -0.0190 -0.8545
  515MOL0     C67887   5.719   3.412   9.991 -0.3050  0.1159  0.1801
  515MOL0     C67888   5.590   3.357  10.056 -0.2621 -0.2138  0.1804
  515MOL0     C67889   5.564   3.203  10.042  0.6978  0.6024  0.3342
  515MOL0     C67890   5.555   3.146   9.895  0.0846  0.0914  0.5761
  515MOL0     C67891   5.556   2.990   9.889 -0.2091 -0.3603  0.7946
  515MOL0    Cl67892   5.718   2.924   9.928  0.3242 -0.1805  0.0757
  515MOL0     C67893   6.294   3.195  10.250 -0.6091 -0.1163 -0.0715
  515MOL0     C67894   6.392   3.109  10.292 -0.3466  0.7172  1.3766
  515MOL0     O67895   6.653   3.146  10.577  0.8048  0.1097  0.2087
  515MOL0     C67896   6.857   2.975  10.607 -0.2131 -0.2248 -0.1373
  515MOL0     C67897   6.961   2.877  10.603  0.1900  0.1522  0.6460
  515MOL0     N67898   7.552   2.459  10.682  0.3448 -0.0011 -0.6970
  515MOL0     N67899   7.626   2.544  10.744  0.0202  0.1966  0.9074
  515MOL0     C67900   8.958   2.506  10.659 -0.3021  0.1878 -0.6863
  515MOL0     C67901   9.088   2.517  10.616 -0.1188  0.3366  0.1618
  515MOL0     C67902   9.474   2.532  10.418  0.3281  0.0011 -0.5818
  515MOL0     C67903   9.505   2.662  10.378  0.1214  0.4525 -0.1901
  515MOL0     C67904   9.637   2.692  10.325  0.3445 -0.1524 -0.5797
  515MOL0     C67905   9.737   2.592  10.321  0.6937  0.0871  0.0473
  515MOL0     O67906   9.861   2.635  10.284  0.1022 -0.1878  0.0689
  515MOL0     C67907   9.950   2.541  10.227  0.0463  0.1954  0.4094
  515MOL0     C67908  10.050   2.615  10.143 -0.4047 -0.0056 -0.7795
  515MOL0     C67909  10.169   2.678  10.228 -0.1988  0.3515  0.1401
  515MOL0     C67910  10.297   2.708  10.148  0.6158  0.1444 -0.0725
  515MOL0     C67911  10.387   2.810  10.192 -0.9688  0.0002  0.1281
  515MOL0     C67912  10.474   2.893  10.233  0.0875  0.4496 -0.0817
  515MOL0     C67913   9.704   2.462  10.362  0.0877 -0.3112 -0.1260
  515MOL0     C67914   9.576   2.431  10.411 -0.4450  0.1129 -0.0681
  515MOL0     H67915   9.039   2.586  10.290 -2.0892  0.8936  0.2628
  515MOL0     H67916   8.790   2.561  10.371 -0.7429  2.5392  2.0125
  515MOL0     H67917   8.576   2.465  10.483 -2.0912 -0.8648  0.9380
  515MOL0     H67918   8.630   2.628  10.511  2.2059 -0.9233 -0.6485
  515MOL0     H67919   8.506   2.630  10.717  1.4064 -0.5342 -0.2745
  515MOL0     H67920   8.468   2.450  10.701 -0.0052  0.3416  1.3518
  515MOL0     H67921   8.340   2.465  10.507 -0.7379 -1.4393  1.0757
  515MOL0     H67922   8.359   2.649  10.506  0.4745 -1.6735 -1.4812
  515MOL0     H67923   8.224   2.455  10.698 -0.3732 -0.6730 -2.0854
  515MOL0     H67924   8.239   2.622  10.747 -2.4095  0.2898  0.2069
  515MOL0     H67925   8.099   2.519  10.502  0.0903  1.0367 -0.5112
  515MOL0     H67926   8.133   2.691  10.540 -1.4241  0.9086  1.1478
  515MOL0     H67927   8.014   2.650  10.756 -1.7072  0.3281  0.6624
  515MOL0     H67928   7.950   2.502  10.690  2.3154 -0.7475 -1.4107
  515MOL0     H67929   7.935   2.793  10.569  0.1324 -0.7291  0.1366
  515MOL0     H67930   7.860   2.655  10.496 -1.1957 -1.0641  0.5267
  515MOL0     H67931   7.726   2.840  10.675  0.1258  0.6033  1.6693
  515MOL0     H67932   7.785   2.732  10.784  2.3425  1.5729 -0.8396
  515MOL0     H67933   7.615   2.642  10.432  0.5304 -2.1778 -1.0989
  515MOL0     H67934   7.394   2.316  10.495 -1.2479 -0.3219 -2.3548
  515MOL0     H67935   7.470   2.413  10.367 -0.7941 -0.0573 -1.2921
  515MOL0     H67936   7.260   2.512  10.360 -2.9444 -3.6607  0.7573
  515MOL0     H67937   7.325   2.611  10.490  0.4917  0.7690 -2.0304
  515MOL0     H67938   7.183   2.353  10.517  3.2709  0.2976 -1.1695
  515MOL0     H67939   7.202   2.466  10.654  2.0576  0.9245  0.8053
  515MOL0     H67940   6.968   2.486  10.556 -2.8733  2.8893 -1.1302
  515MOL0     H67941   7.043   2.537  10.402 -0.6410  2.1196  0.5765
  515MOL0     H67942   6.800   2.621  10.436  1.7244 -0.1853 -0.3835
  515MOL0     H67943   6.638   2.785  10.439  0.2530  1.9328 -0.7063
  515MOL0     H67944   6.357   3.156  10.623  0.4870  1.8613  0.0321
  515MOL0     H67945   6.174   3.303  10.549 -0.6007 -0.8251  0.8651
  515MOL0     H67946   6.014   3.201  10.186 -2.7157  0.2879  1.4978
  515MOL0     H67947   6.098   3.326  10.089 -1.4393  0.3648 -0.6538
  515MOL0     H67948   5.922   3.493  10.175 -1.4815  0.0375  1.1930
  515MOL0     H67949   5.825   3.350  10.229 -1.0574 -0.6220 -1.7753
  515MOL0     H67950   5.856   3.245  10.008 -0.0667 -0.2345  0.7524
  515MOL0     H67951   5.924   3.410   9.955 -0.9713  1.7756 -0.9923
  515MOL0     H67952   5.713   3.517  10.021 -0.1936 -0.2642  1.6196
  515MOL0     H67953   5.701   3.388   9.886  1.5782 -1.4167  0.1467
  515MOL0     H67954   5.506   3.406  10.006 -0.0555 -0.7490 -0.7246
  515MOL0     H67955   5.586   3.392  10.159  1.0102 -2.1085  0.9344
  515MOL0     H67956   5.467   3.189  10.091 -1.1285  1.2865 -2.8513
  515MOL0     H67957   5.642   3.146  10.094 -0.1133 -0.0431  0.8683
  515MOL0     H67958   5.465   3.190   9.852 -1.9077 -4.5834 -0.5873
  515MOL0     H67959   5.649   3.180   9.851  0.7006  2.0382  3.1460
  515MOL0     H67960   5.524   2.965   9.788 -0.6156 -0.8847  1.0503
  515MOL0     H67961   5.479   2.952   9.956 -1.1606 -2.2813 -1.2745
  515MOL0     H67962   6.285   3.213  10.143  0.2244  0.3987 -0.0617
  515MOL0     H67963   6.438   3.053  10.211 -2.4733 -0.9907  1.2627
  515MOL0     H67964   6.883   3.065  10.661  0.9673 -1.0048  0.6487
  515MOL0     H67965   7.056   2.909  10.644 -0.1183  1.1840  0.5793
  515MOL0     H67966   8.941   2.477  10.762 -1.2121 -1.4636 -1.2674
  515MOL0     H67967   9.163   2.528  10.694 -0.2576  0.9926  0.2063
  515MOL0     H67968   9.442   2.750  10.389  0.3219  0.5064  0.5690
  515MOL0     H67969   9.659   2.793  10.292 -0.3219 -0.8965 -3.5768
  515MOL0     H67970   9.893   2.468  10.170  0.0956  0.9615 -0.6473
  515MOL0     H67971  10.003   2.483  10.303  1.1299 -0.0647 -0.5244
  515MOL0     H67972  10.089   2.546  10.068  0.7229 -0.8364  0.5256
  515MOL0     H67973  10.001   2.701  10.097 -0.0323  0.1200 -0.9454
  515MOL0     H67974  10.195   2.607  10.307 -0.0678 -0.9266 -1.0182
  515MOL0     H67975  10.138   2.770  10.279 -2.2581  0.9752 -2.0866
  515MOL0     H67976  10.349   2.612  10.145 -0.8808 -0.6642 -1.6280
  515MOL0     H67977  10.282   2.725  10.041 -0.1694  1.5131  0.2240
  515MOL0     H67978  10.546   2.958  10.278  1.0466 -1.1226  0.7788
  515MOL0     H67979   9.778   2.383  10.357 -1.6508 -1.9604 -3.3367
  515MOL0     H67980   9.556   2.328  10.439  3.2771 -1.0744 -1.2447
  516MOL0     O67981   5.936   7.116   0.640  0.0613 -0.4687 -0.6624
  516MOL0     C67982   5.993   7.068   0.734  0.0067  1.3464 -0.2881
  516MOL0     O67983   5.934   7.015   0.842  0.7041 -0.4139 -0.6726
  516MOL0     C67984   5.795   7.007   0.861  0.7294  1.2390  0.6419
  516MOL0     C67985   5.704   7.117   0.872  0.7658 -0.5649  0.0419
  516MOL0     C67986   5.563   7.098   0.888  0.2544  0.1080  0.3511
  516MOL0     C67987   5.515   6.968   0.907  0.7859  0.1675 -0.2662
  516MOL0     O67988   5.377   6.946   0.924 -0.2355  0.0979  0.1011
  516MOL0     C67989   5.281   7.025   0.859 -0.6467 -0.0728  0.5224
  516MOL0     C67990   5.146   6.999   0.921 -0.1681  0.3799 -0.8954
  516MOL0     C67991   5.031   7.062   0.848 -0.5119  0.1475 -0.5822
  516MOL0     C67992   4.906   7.035   0.934 -0.1855 -0.4991  0.4862
  516MOL0     C67993   4.776   7.074   0.865  0.2883 -0.1653  0.1837
  516MOL0     C67994   4.775   7.225   0.818  0.5929  0.6042 -0.9849
  516MOL0     C67995   4.639   7.259   0.765  0.9802  0.4820 -0.0013
  516MOL0     C67996   4.625   7.394   0.686  0.3364  0.2119  0.1809
  516MOL0     N67997   4.489   7.413   0.623 -0.1592 -0.5532  0.0694
  516MOL0     C67998   4.378   7.478   0.675 -0.8363 -0.8325 -0.1979
  516MOL0     C67999   4.306   7.524   0.577  0.6086 -0.0458 -0.5108
  516MOL0     C68000   4.188   7.614   0.589 -0.4894 -0.2802 -0.5640
  516MOL0     C68001   4.060   7.534   0.621  0.8763 -0.2466  0.6633
  516MOL0     C68002   4.018   7.460   0.490  0.0809 -0.5282 -0.0880
  516MOL0     C68003   3.892   7.379   0.510  0.8316 -0.8767 -0.4187
  516MOL0     O68004   3.780   7.458   0.559  0.3588 -0.6349  0.8200
  516MOL0     C68005   3.660   7.394   0.584  0.0025 -0.8617  0.9564
  516MOL0     C68006   3.627   7.262   0.552  0.3911  0.5855 -0.0998
  516MOL0     C68007   3.497   7.211   0.573  0.2833  0.0144 -0.2101
  516MOL0     C68008   3.401   7.292   0.645 -0.3415 -1.0171 -0.4727
  516MOL0     C68009   3.261   7.247   0.657  0.0558 -0.1336 -0.3132
  516MOL0     O68010   3.238   7.117   0.612  0.3922  0.7282 -0.0428
  516MOL0     C68011   3.110   7.066   0.653 -0.9137  0.8379  1.2329
  516MOL0     C68012   3.004   7.076   0.565  1.5877  0.2092 -0.0572
  516MOL0     C68013   2.871   7.038   0.603 -0.2253  0.0579  0.9208
  516MOL0     C68014   2.847   6.997   0.732 -0.2862  0.4269  0.7474
  516MOL0     O68015   2.722   6.978   0.799 -0.3904 -0.2754  0.9975
  516MOL0     C68016   2.600   7.002   0.719 -0.1167  0.1279 -0.0930
  516MOL0     C68017   2.463   6.988   0.792 -0.1692 -0.1899  0.0703
  516MOL0     C68018   2.349   6.999   0.690  0.9762  0.1283  0.2830
  516MOL0     C68019   2.211   6.993   0.762 -0.7829  0.1392 -0.7867
  516MOL0     C68020   2.094   7.008   0.672  0.1197  0.3346 -0.3034
  516MOL0     C68021   1.967   7.065   0.746  0.6628  0.1053 -0.5141
  516MOL0     C68022   1.871   7.128   0.646 -0.0687 -0.5619 -0.5380
  516MOL0     C68023   1.751   7.205   0.708  1.1490  0.2725 -0.4088
  516MOL0    Cl68024   1.627   7.073   0.759  0.5387  0.5345  0.0804
  516MOL0     C68025   2.953   6.971   0.810  0.2375 -0.7068 -0.1302
  516MOL0     C68026   3.088   7.008   0.774 -0.9054  0.3349  0.2865
  516MOL0     O68027   3.171   7.317   0.705 -0.2878  0.8930  0.0467
  516MOL0     C68028   3.438   7.419   0.678  0.3592 -0.8575  0.5035
  516MOL0     C68029   3.560   7.472   0.648 -0.1999  0.7718 -0.6462
  516MOL0     N68030   4.384   7.490   0.464  0.1319 -0.9216 -0.6270
  516MOL0     N68031   4.490   7.420   0.487 -0.2177  0.2414  0.1882
  516MOL0     C68032   5.605   6.859   0.911 -0.0716  0.6316  0.0336
  516MOL0     C68033   5.739   6.878   0.885 -0.8643 -0.2811 -1.0356
  516MOL0     C68034   6.137   7.077   0.717  0.8653  0.2889 -0.0548
  516MOL0     C68035   6.198   7.126   0.599  0.8275  0.1982 -0.7860
  516MOL0     C68036   6.336   7.140   0.598  0.5221 -0.2132 -0.0797
  516MOL0     C68037   6.420   7.107   0.701  0.0476 -0.6558 -0.4520
  516MOL0     O68038   6.557   7.128   0.692  0.7178 -0.0203 -0.4165
  516MOL0     C68039   6.635   7.034   0.768 -0.1470 -0.0995  0.4128
  516MOL0     C68040   6.790   7.038   0.752 -0.4942  0.3374 -1.1639
  516MOL0     C68041   6.852   7.156   0.826  0.6266 -0.4253 -0.3444
  516MOL0     C68042   6.815   7.290   0.768  0.9464  0.5296  0.1556
  516MOL0     C68043   6.894   7.399   0.820 -0.7462 -0.0416 -0.0419
  516MOL0     C68044   6.954   7.497   0.869  0.5756  0.2441 -0.4194
  516MOL0     C68045   6.363   7.049   0.812  0.0103 -0.2613 -0.0445
  516MOL0     C68046   6.218   7.031   0.820 -0.0429  0.0532  0.0520
  516MOL0     H68047   5.744   7.217   0.858  1.5281 -0.5163  2.0943
  516MOL0     H68048   5.491   7.179   0.882 -0.2496 -0.3374 -5.0797
  516MOL0     H68049   5.283   6.998   0.752 -1.0287 -0.1764  0.5388
  516MOL0     H68050   5.302   7.131   0.873  2.3143 -0.1991 -1.7892
  516MOL0     H68051   5.157   7.039   1.022  0.0084 -0.3969 -0.5980
  516MOL0     H68052   5.139   6.889   0.918  1.6612  0.2501 -3.1012
  516MOL0     H68053   5.013   7.024   0.747 -1.7172  1.4938 -0.9158
  516MOL0     H68054   5.048   7.170   0.841 -1.0072  0.1779 -1.4785
  516MOL0     H68055   4.901   6.929   0.959 -1.3323 -0.1502  1.9209
  516MOL0     H68056   4.918   7.090   1.028  2.6953  1.6437 -0.9925
  516MOL0     H68057   4.697   7.068   0.940  2.0141 -0.9390  2.0492
  516MOL0     H68058   4.758   6.999   0.787 -1.6347 -0.2153  0.6352
  516MOL0     H68059   4.854   7.241   0.743  1.8734  3.6566  0.8300
  516MOL0     H68060   4.809   7.286   0.902  1.0016  0.1673 -0.8274
  516MOL0     H68061   4.619   7.183   0.688  0.0058  3.0830 -2.5183
  516MOL0     H68062   4.560   7.244   0.839  1.1263 -2.6402 -0.3346
  516MOL0     H68063   4.689   7.393   0.598  1.1890  0.1394  0.7953
  516MOL0     H68064   4.649   7.482   0.746  0.2732 -0.9339  1.9540
  516MOL0     H68065   4.355   7.510   0.776  0.3091  0.6931 -0.3879
  516MOL0     H68066   4.172   7.658   0.490 -1.1109 -1.1754 -0.8736
  516MOL0     H68067   4.207   7.693   0.662  3.3850 -1.3924 -0.1705
  516MOL0     H68068   3.981   7.607   0.636 -1.2730 -1.2287 -3.9175
  516MOL0     H68069   4.080   7.474   0.710  3.3009 -2.4689 -1.2188
  516MOL0     H68070   4.015   7.532   0.408 -4.1032  0.2137  0.4806
  516MOL0     H68071   4.093   7.387   0.458 -2.1674 -4.2628  2.3227
  516MOL0     H68072   3.909   7.295   0.578  0.6765 -1.7713 -1.4506
  516MOL0     H68073   3.869   7.339   0.410  4.9294 -2.5117 -0.9277
  516MOL0     H68074   3.692   7.198   0.493  0.1577  1.6513 -1.5748
  516MOL0     H68075   3.475   7.113   0.532 -1.2987  0.5201 -0.6598
  516MOL0     H68076   3.023   7.130   0.473  0.1917 -0.0266 -0.5183
  516MOL0     H68077   2.781   7.040   0.543  0.2856  0.4156  0.1568
  516MOL0     H68078   2.606   6.922   0.645 -2.1324 -0.1004 -0.0815
  516MOL0     H68079   2.619   7.098   0.672 -1.1748  1.2583  1.6638
  516MOL0     H68080   2.446   7.064   0.869 -3.9597 -0.7778  0.0271
  516MOL0     H68081   2.474   6.891   0.842  0.1463  0.7829  1.9726
  516MOL0     H68082   2.358   6.925   0.610  1.6915  1.4439 -0.9009
  516MOL0     H68083   2.366   7.098   0.646  1.0362 -0.0646 -0.1318
  516MOL0     H68084   2.203   6.901   0.821 -1.3946  1.6770  1.6952
  516MOL0     H68085   2.213   7.074   0.836  0.8390  1.7673 -2.5227
  516MOL0     H68086   2.075   6.913   0.622 -0.0529 -0.0540  0.4832
  516MOL0     H68087   2.125   7.079   0.595 -0.6012  1.9274  0.8233
  516MOL0     H68088   2.010   7.150   0.800  0.3718 -1.0507  1.6537
  516MOL0     H68089   1.920   6.991   0.811  2.3003  1.4518  2.3930
  516MOL0     H68090   1.926   7.204   0.588  0.7424 -0.0873  0.8220
  516MOL0     H68091   1.837   7.054   0.573  1.5112 -1.0719 -0.7853
  516MOL0     H68092   1.714   7.271   0.629  0.8498  0.7902  0.1597
  516MOL0     H68093   1.781   7.263   0.796 -2.4605  1.6802  0.0668
  516MOL0     H68094   2.935   6.933   0.910 -0.7333  0.3571  0.1190
  516MOL0     H68095   3.164   6.999   0.850  0.2756  1.0839 -0.7547
  516MOL0     H68096   3.370   7.490   0.725  1.6840  1.3860 -0.7389
  516MOL0     H68097   3.576   7.579   0.657  0.2398  0.7157 -0.7743
  516MOL0     H68098   5.577   6.754   0.916  2.4178 -0.0778  0.5597
  516MOL0     H68099   5.804   6.792   0.876  0.2720  0.3524  0.6881
  516MOL0     H68100   6.128   7.152   0.520 -0.1669  1.5311  0.4615
  516MOL0     H68101   6.384   7.174   0.507 -1.5689 -1.2150 -1.6413
  516MOL0     H68102   6.597   6.936   0.737 -2.3153  0.1407  2.1050
  516MOL0     H68103   6.611   7.046   0.874 -3.6188  3.0151 -0.5191
  516MOL0     H68104   6.829   6.947   0.800  0.4069  1.5282  0.4528
  516MOL0     H68105   6.828   7.020   0.651  1.1365  1.4765 -0.7878
  516MOL0     H68106   6.959   7.137   0.816  0.7992  0.5705 -0.4782
  516MOL0     H68107   6.829   7.160   0.933 -0.1622  0.7140 -0.5336
  516MOL0     H68108   6.822   7.291   0.659 -1.7103  1.0957 -0.0873
  516MOL0     H68109   6.712   7.314   0.795  0.4046  1.5873 -2.5579
  516MOL0     H68110   6.995   7.579   0.923 -0.9738  1.4210 -0.9616
  516MOL0     H68111   6.420   7.021   0.900  0.6847  0.8592 -0.1156
  516MOL0     H68112   6.182   6.985   0.911  4.0541 -2.5729  0.6146
  517MOL0     O68113   2.839   4.828   3.290 -0.3051  0.5857 -0.1749
  517MOL0     C68114   2.828   4.818   3.171 -0.8438 -0.1061  0.5398
  517MOL0     O68115   2.715   4.851   3.103  0.1350  0.5479 -0.6707
  517MOL0     C68116   2.607   4.905   3.172  0.2205 -0.3546  0.7002
  517MOL0     C68117   2.615   5.041   3.213 -0.2612  0.3104  0.0780
  517MOL0     C68118   2.507   5.096   3.274 -0.1899 -0.2465 -0.0751
  517MOL0     C68119   2.397   5.019   3.303 -0.4620 -0.7566  0.2829
  517MOL0     O68120   2.294   5.091   3.367 -0.6812  0.3549 -0.3393
  517MOL0     C68121   2.190   5.006   3.433  0.0933  1.0060 -0.4710
  517MOL0     C68122   2.077   5.104   3.503 -0.3197 -0.0725  0.1159
  517MOL0     C68123   2.016   5.202   3.406 -0.1389 -0.9125  0.2790
  517MOL0     C68124   1.934   5.307   3.484 -0.3348 -0.3764 -1.5054
  517MOL0     C68125   1.838   5.390   3.397 -0.4250 -1.0087  0.3680
  517MOL0     C68126   1.754   5.475   3.493 -0.3254 -0.8296  0.0070
  517MOL0     C68127   1.600   5.495   3.452  0.1143  0.2438  0.5185
  517MOL0     C68128   1.505   5.377   3.459 -0.1793 -0.2600 -0.0057
  517MOL0     N68129   1.362   5.409   3.431 -0.1713  0.2376  0.0187
  517MOL0     C68130   1.289   5.522   3.461 -0.2137 -0.1079 -0.8436
  517MOL0     C68131   1.164   5.491   3.423 -0.2978 -0.4775  0.5375
  517MOL0     C68132   1.048   5.582   3.421  0.3799 -0.7864  0.5582
  517MOL0     C68133   1.009   5.644   3.553  0.2405 -0.4517 -0.1247
  517MOL0     C68134   0.881   5.727   3.543 -0.6237  0.6517 -0.1934
  517MOL0     C68135   0.751   5.639   3.541 -0.1805 -0.1211  0.5157
  517MOL0     O68136   0.625   5.722   3.535 -0.1705  0.3055 -0.0038
  517MOL0     C68137   0.507   5.651   3.546  0.8118 -0.1521 -0.7201
  517MOL0     C68138   0.390   5.738   3.550 -0.7480  0.1292  0.2843
  517MOL0     C68139   0.268   5.683   3.562  1.0264  0.1274 -0.0610
  517MOL0     C68140   0.243   5.543   3.573  0.1239 -0.1828 -1.0320
  517MOL0     C68141   0.105   5.501   3.592  0.0995  1.2656 -0.4658
  517MOL0     O68142   0.008   5.565   3.666  0.5433  0.1433 -0.1825
  517MOL0     C68143  -0.123   5.520   3.654 -0.1895  0.8366  0.4472
  517MOL0     C68144  -0.201   5.620   3.595  0.6512 -0.5213  0.3012
  517MOL0     C68145  -0.337   5.598   3.565 -0.1545 -0.6601 -0.0433
  517MOL0     C68146  -0.389   5.469   3.593 -0.1093 -0.2798  0.3891
  517MOL0     O68147  -0.523   5.447   3.567  0.2649 -0.5267  0.2600
  517MOL0     C68148  -0.581   5.324   3.619  0.1087  0.6586 -0.2837
  517MOL0     C68149  -0.735   5.332   3.603  0.2941  0.4273  0.1376
  517MOL0     C68150  -0.778   5.362   3.463 -0.2318 -0.3498  1.1142
  517MOL0     C68151  -0.927   5.328   3.443  0.6413 -0.5873  0.4749
  517MOL0     C68152  -0.960   5.360   3.298 -0.2695 -0.8001 -0.6377
  517MOL0     C68153  -0.975   5.505   3.284  0.3121 -1.4219 -0.4358
  517MOL0     C68154  -0.986   5.558   3.141  0.4740  0.6645 -0.2636
  517MOL0     C68155  -1.050   5.693   3.125 -0.7359 -0.0265  1.0002
  517MOL0    Cl68156  -1.226   5.650   3.083  0.4280 -0.3126 -0.0207
  517MOL0     C68157  -0.301   5.370   3.650  0.5234  0.5522 -0.0409
  517MOL0     C68158  -0.170   5.398   3.683 -0.0626  0.3467 -0.4358
  517MOL0     O68159   0.074   5.399   3.521 -0.8408 -0.5930 -0.2444
  517MOL0     C68160   0.349   5.459   3.569  0.4555  0.2679  0.1506
  517MOL0     C68161   0.476   5.511   3.561 -1.0273 -0.4866  0.1973
  517MOL0     N68162   1.161   5.363   3.371 -0.1384 -0.9152 -0.1297
  517MOL0     N68163   1.283   5.315   3.369 -0.6422 -0.6073  0.0269
  517MOL0     C68164   2.391   4.883   3.274  0.4830 -0.0227 -0.2219
  517MOL0     C68165   2.496   4.826   3.205  0.4390 -0.8673 -0.2177
  517MOL0     C68166   2.942   4.755   3.095  0.7488 -0.1536 -0.0152
  517MOL0     C68167   3.056   4.703   3.158 -0.3574  0.2953 -0.0773
  517MOL0     C68168   3.148   4.624   3.089  0.0912  0.4439  0.4109
  517MOL0     C68169   3.131   4.598   2.949  0.4239 -0.1172 -0.3016
  517MOL0     O68170   3.234   4.530   2.899  0.0726 -0.2607 -0.1139
  517MOL0     C68171   3.236   4.519   2.758  0.6956 -1.1680 -0.2456
  517MOL0     C68172   3.368   4.469   2.702 -0.0092  0.0415  0.9022
  517MOL0     C68173   3.469   4.582   2.675  0.2355 -0.2978 -0.4822
  517MOL0     C68174   3.609   4.529   2.630  0.1093  0.4540 -0.0047
  517MOL0     C68175   3.714   4.620   2.662 -0.1854 -0.2266 -0.5901
  517MOL0     C68176   3.796   4.700   2.699  0.4157  0.1245 -0.4494
  517MOL0     C68177   3.013   4.647   2.884 -0.2455 -0.6214  0.4774
  517MOL0     C68178   2.921   4.727   2.959 -0.1200  0.4452 -0.0564
  517MOL0     H68179   2.702   5.102   3.190 -0.7271  0.9263 -0.0876
  517MOL0     H68180   2.511   5.205   3.276  0.1749 -0.1841 -1.8178
  517MOL0     H68181   2.230   4.936   3.507 -1.0442  0.2763 -0.5295
  517MOL0     H68182   2.130   4.947   3.364  0.8808  0.4211 -0.6715
  517MOL0     H68183   2.131   5.151   3.585 -1.8850  1.1256  0.4979
  517MOL0     H68184   1.993   5.041   3.536 -1.3335 -1.1963 -3.9804
  517MOL0     H68185   1.954   5.152   3.331  0.5168 -0.8022 -0.3543
  517MOL0     H68186   2.105   5.236   3.351  1.6047 -5.5806 -0.2652
  517MOL0     H68187   1.874   5.250   3.555 -1.9342 -0.8755 -3.1853
  517MOL0     H68188   1.992   5.375   3.547 -0.0625  0.7079 -2.8852
  517MOL0     H68189   1.782   5.320   3.334  0.6868 -0.3533 -1.4481
  517MOL0     H68190   1.895   5.452   3.327 -1.3521 -0.5400  0.0032
  517MOL0     H68191   1.805   5.571   3.500  0.6135 -1.3057 -0.2066
  517MOL0     H68192   1.755   5.443   3.598  1.6475  1.9404  0.9372
  517MOL0     H68193   1.559   5.577   3.512  0.4019 -0.9274  2.4216
  517MOL0     H68194   1.598   5.534   3.350  1.3728 -1.6171 -0.2654
  517MOL0     H68195   1.520   5.333   3.559  0.5180  2.6255  1.2571
  517MOL0     H68196   1.541   5.303   3.387 -0.7261 -0.6639  0.1316
  517MOL0     H68197   1.333   5.614   3.498  1.3486 -0.0848 -2.5759
  517MOL0     H68198   0.962   5.521   3.393 -2.3223  1.9778  2.1592
  517MOL0     H68199   1.063   5.655   3.340  0.4247 -2.5429 -1.1027
  517MOL0     H68200   1.093   5.710   3.576 -1.0552  1.3209 -0.2911
  517MOL0     H68201   1.001   5.570   3.633  0.8067  0.3712  0.7170
  517MOL0     H68202   0.865   5.789   3.632  0.6499  2.7973 -1.3726
  517MOL0     H68203   0.880   5.792   3.455 -1.4452  0.0120 -0.6726
  517MOL0     H68204   0.741   5.580   3.633  3.1570 -1.7651 -0.0390
  517MOL0     H68205   0.752   5.564   3.462  0.2633  0.8943 -0.4607
  517MOL0     H68206   0.403   5.846   3.543 -2.4007  0.2372 -1.9166
  517MOL0     H68207   0.186   5.754   3.568  3.3204  2.9663 -0.0117
  517MOL0     H68208  -0.168   5.723   3.592 -1.9080  0.3760 -0.0124
  517MOL0     H68209  -0.394   5.681   3.522  0.9240 -0.0534 -0.3412
  517MOL0     H68210  -0.551   5.308   3.722  0.5953 -0.4614 -0.5829
  517MOL0     H68211  -0.558   5.236   3.558 -4.8322 -0.7600 -0.5007
  517MOL0     H68212  -0.784   5.388   3.683  4.2802 -1.3759  4.3442
  517MOL0     H68213  -0.775   5.232   3.624 -1.4087  1.1568  0.5445
  517MOL0     H68214  -0.717   5.302   3.396 -0.2927  0.2125  0.5415
  517MOL0     H68215  -0.744   5.463   3.439 -1.7015 -0.3853 -1.4034
  517MOL0     H68216  -0.948   5.221   3.451 -1.8292 -0.1887  0.2353
  517MOL0     H68217  -0.988   5.378   3.519 -1.5805  1.2145 -2.3048
  517MOL0     H68218  -1.059   5.315   3.282  1.0203 -4.0819  0.0538
  517MOL0     H68219  -0.885   5.324   3.228  0.8226  2.4084 -1.2785
  517MOL0     H68220  -0.891   5.549   3.338 -0.8351 -2.3698  2.2694
  517MOL0     H68221  -1.047   5.550   3.353  1.7333 -0.3780  0.4201
  517MOL0     H68222  -0.880   5.568   3.114  0.1827  1.0808 -1.3073
  517MOL0     H68223  -1.034   5.490   3.070 -0.8868  1.2410  0.0715
  517MOL0     H68224  -1.005   5.746   3.041  2.3907 -1.5125  1.5844
  517MOL0     H68225  -1.047   5.760   3.210 -3.9554  0.3337  0.9394
  517MOL0     H68226  -0.340   5.274   3.682  0.7924  0.1042 -0.9871
  517MOL0     H68227  -0.109   5.317   3.722 -1.2542  0.9605  3.0409
  517MOL0     H68228   0.346   5.351   3.566  0.1476  0.2521  0.7883
  517MOL0     H68229   0.560   5.442   3.553  0.8681  1.8166 -1.1581
  517MOL0     H68230   2.314   4.818   3.313 -0.2953 -1.2713 -3.4647
  517MOL0     H68231   2.495   4.722   3.174  0.1622 -1.1719  0.7799
  517MOL0     H68232   3.065   4.721   3.264 -2.5748 -1.9942  0.6105
  517MOL0     H68233   3.240   4.588   3.136 -1.3112 -3.2102  0.7166
  517MOL0     H68234   3.215   4.617   2.715 -0.4504 -1.9779 -1.6126
  517MOL0     H68235   3.155   4.450   2.735 -1.7163  1.8526 -1.4034
  517MOL0     H68236   3.408   4.382   2.756  2.0446 -0.9687 -1.9601
  517MOL0     H68237   3.338   4.426   2.606 -0.4697 -1.7203  1.7759
  517MOL0     H68238   3.486   4.642   2.764  3.2767 -0.7049 -0.7015
  517MOL0     H68239   3.422   4.651   2.604 -1.9083 -0.1143  1.0079
  517MOL0     H68240   3.627   4.427   2.666  1.7989  0.2747 -1.2098
  517MOL0     H68241   3.605   4.526   2.521  2.9469  0.7012 -0.2000
  517MOL0     H68242   3.876   4.767   2.725 -0.0337  0.3280  0.4468
  517MOL0     H68243   2.987   4.613   2.784  0.9853 -1.0861  0.2876
  517MOL0     H68244   2.833   4.766   2.909 -1.7379 -0.4955  1.9492
  518MOL0     O68245   8.149   5.229   1.608  0.0729  0.1405 -0.0717
  518MOL0     C68246   8.190   5.322   1.675 -0.0682  0.1528 -1.0463
  518MOL0     O68247   8.112   5.427   1.714 -0.1133 -1.0410 -0.4641
  518MOL0     C68248   7.981   5.404   1.747 -1.3439  0.4111  0.6553
  518MOL0     C68249   7.885   5.384   1.648 -0.1654 -0.5506 -0.0841
  518MOL0     C68250   7.747   5.367   1.688  0.4594 -0.5771 -0.2098
  518MOL0     C68251   7.706   5.360   1.826  0.2387 -0.6119  0.0177
  518MOL0     O68252   7.573   5.348   1.857  0.3257  0.0677 -0.4848
  518MOL0     C68253   7.535   5.306   1.990 -0.4655  0.4090 -0.2126
  518MOL0     C68254   7.395   5.236   1.988  0.0156  0.5471  0.1519
  518MOL0     C68255   7.337   5.228   2.128 -0.2364  0.0518 -0.0050
  518MOL0     C68256   7.183   5.198   2.124  0.0768 -0.0325 -0.6018
  518MOL0     C68257   7.154   5.050   2.086  0.7556 -0.1742 -0.4093
  518MOL0     C68258   7.004   5.039   2.079 -0.1195  0.3674  0.7247
  518MOL0     C68259   6.948   4.914   2.010  0.1440 -0.1093 -0.7020
  518MOL0     C68260   6.919   4.795   2.105 -0.5538  0.2462  0.5051
  518MOL0     N68261   7.040   4.711   2.128  0.1955 -0.4606  0.3003
  518MOL0     C68262   7.112   4.638   2.041 -0.9696  0.0535  0.9771
  518MOL0     C68263   7.222   4.593   2.107  0.7645 -0.0753  0.5201
  518MOL0     C68264   7.333   4.532   2.040 -1.0574  0.5138 -0.5815
  518MOL0     C68265   7.447   4.624   2.015 -0.1080  0.3528 -0.7408
  518MOL0     C68266   7.423   4.766   1.946 -0.5232  0.4726 -0.1138
  518MOL0     C68267   7.548   4.848   1.936 -0.1551 -0.3670 -0.3857
  518MOL0     O68268   7.605   4.893   2.062 -0.1057  0.3211  0.3649
  518MOL0     C68269   7.737   4.920   2.065  0.6235 -0.8557  0.5498
  518MOL0     C68270   7.806   4.888   2.178  0.4233 -0.1868 -0.6200
  518MOL0     C68271   7.942   4.914   2.188  0.2079  0.5410  0.7882
  518MOL0     C68272   8.011   4.973   2.074  0.7688  0.3535  0.0633
  518MOL0     C68273   8.161   5.008   2.083  0.1141  0.5239 -0.0787
  518MOL0     O68274   8.219   5.037   1.965  1.0407 -0.4390  0.4019
  518MOL0     C68275   8.352   5.056   1.962 -0.1430  1.2645  0.8119
  518MOL0     C68276   8.420   5.171   2.006 -0.0068  0.5753 -0.2455
  518MOL0     C68277   8.565   5.191   1.987  0.4101 -0.1593  0.0757
  518MOL0     C68278   8.636   5.087   1.920 -0.0984 -0.2892 -0.1987
  518MOL0     O68279   8.770   5.109   1.912 -0.7034  0.3537  0.1031
  518MOL0     C68280   8.860   5.011   1.862  0.8374 -0.3131  0.7717
  518MOL0     C68281   9.003   5.053   1.894 -0.0179 -0.1503  0.4564
  518MOL0     C68282   9.113   4.973   1.826 -0.2286  0.1858  0.5976
  518MOL0     C68283   9.252   5.002   1.882 -0.1347  1.3148 -0.1703
  518MOL0     C68284   9.351   4.909   1.815 -0.4640  0.2046 -0.7934
  518MOL0     C68285   9.489   4.910   1.879  0.9360 -0.2146 -0.5746
  518MOL0     C68286   9.577   4.820   1.794  0.0473  0.1567 -0.2427
  518MOL0     C68287   9.718   4.844   1.832 -0.9368  0.2718  0.0435
  518MOL0    Cl68288   9.836   4.742   1.741 -0.2068 -0.0236 -0.5780
  518MOL0     C68289   8.566   4.983   1.867  0.0238 -0.4035 -1.2659
  518MOL0     C68290   8.427   4.967   1.889  0.6629  0.1690  0.3767
  518MOL0     O68291   8.220   4.998   2.193  0.2752 -0.8895 -0.1978
  518MOL0     C68292   7.937   5.025   1.961  0.3906 -0.4443 -0.2125
  518MOL0     C68293   7.800   4.999   1.961  0.3675  1.0047  0.2867
  518MOL0     N68294   7.201   4.617   2.238  0.8443  0.2061 -0.1568
  518MOL0     N68295   7.093   4.682   2.249  0.3327 -1.1052 -0.1105
  518MOL0     C68296   7.808   5.388   1.920 -0.3780 -0.2161 -0.2897
  518MOL0     C68297   7.941   5.407   1.884  0.0664  0.3490 -0.4034
  518MOL0     C68298   8.336   5.325   1.701 -0.2394 -1.4270 -0.3212
  518MOL0     C68299   8.383   5.435   1.772  1.0249 -0.9486  0.1867
  518MOL0     C68300   8.520   5.447   1.770 -0.4643 -0.2620 -0.3413
  518MOL0     C68301   8.612   5.364   1.703  0.7231  0.2830 -0.5680
  518MOL0     O68302   8.749   5.372   1.683 -0.2537  0.4085  0.2995
  518MOL0     C68303   8.818   5.481   1.743  0.8562 -0.5777  0.0591
  518MOL0     C68304   8.963   5.429   1.734 -0.6228 -0.4817 -0.4471
  518MOL0     C68305   9.063   5.543   1.762  0.0692  0.2690 -0.2235
  518MOL0     C68306   9.207   5.518   1.726 -0.4214  0.6352 -0.1846
  518MOL0     C68307   9.224   5.479   1.588  0.6633 -0.1323 -0.2586
  518MOL0     C68308   9.232   5.437   1.469 -0.4416 -0.4819 -0.1656
  518MOL0     C68309   8.559   5.253   1.637  0.1500 -0.4903  0.1312
  518MOL0     C68310   8.424   5.241   1.628  0.4697 -0.2399 -0.4708
  518MOL0     H68311   7.921   5.386   1.545  2.9127  3.0208  0.8355
  518MOL0     H68312   7.670   5.379   1.612 -1.1201  1.8071  1.6366
  518MOL0     H68313   7.524   5.394   2.054 -0.3000 -1.3585  2.3883
  518MOL0     H68314   7.587   5.221   2.034 -3.4105 -0.2258  2.4001
  518MOL0     H68315   7.404   5.143   1.932 -0.0586  1.1382 -0.8758
  518MOL0     H68316   7.331   5.292   1.919 -1.4759 -2.0037 -0.6602
  518MOL0     H68317   7.348   5.323   2.181  1.5631  1.2560 -2.3654
  518MOL0     H68318   7.389   5.148   2.181  0.8200  1.0935  0.5870
  518MOL0     H68319   7.143   5.219   2.223 -2.3246 -0.4280 -1.4359
  518MOL0     H68320   7.140   5.254   2.040  0.1039  0.8302 -0.0519
  518MOL0     H68321   7.178   4.982   2.168  0.4339  2.5643  2.1093
  518MOL0     H68322   7.209   5.040   1.992  1.6602  0.6815  0.0091
  518MOL0     H68323   6.968   5.127   2.025  3.1674  2.2855  1.3765
  518MOL0     H68324   6.968   5.036   2.182 -1.1702 -0.5108  0.3490
  518MOL0     H68325   6.852   4.940   1.964 -0.0328  1.1357  0.3228
  518MOL0     H68326   7.022   4.886   1.933  0.5808  2.5576 -1.3484
  518MOL0     H68327   6.838   4.737   2.061 -0.5860  0.8675 -0.2740
  518MOL0     H68328   6.888   4.834   2.203 -0.9390  0.1708  0.4134
  518MOL0     H68329   7.091   4.609   1.939  0.8419 -1.7118  1.0366
  518MOL0     H68330   7.306   4.483   1.945  4.2925 -1.8695 -1.2723
  518MOL0     H68331   7.362   4.440   2.092 -3.6278 -0.8353 -1.3512
  518MOL0     H68332   7.513   4.561   1.954 -1.6121 -2.1121  0.0466
  518MOL0     H68333   7.503   4.646   2.107  0.1366  1.8612 -1.2117
  518MOL0     H68334   7.382   4.756   1.845 -0.3898 -0.7769 -0.0613
  518MOL0     H68335   7.361   4.827   2.012  0.4334  0.1387  1.1170
  518MOL0     H68336   7.528   4.925   1.861 -3.1145  0.5836  1.2165
  518MOL0     H68337   7.627   4.787   1.892  4.4088  2.1502  3.4564
  518MOL0     H68338   7.757   4.845   2.265  2.7466 -0.4399  0.6523
  518MOL0     H68339   8.005   4.881   2.271  2.2054 -0.6729 -1.1095
  518MOL0     H68340   8.354   5.249   2.044  1.5291  2.6486 -1.6013
  518MOL0     H68341   8.626   5.274   2.022  0.0022  0.8821 -1.5415
  518MOL0     H68342   8.854   5.009   1.753 -0.1807 -3.2913  0.7914
  518MOL0     H68343   8.840   4.909   1.898  0.5984 -1.0553 -1.3496
  518MOL0     H68344   9.018   5.039   2.001  3.3452 -1.7947 -0.1140
  518MOL0     H68345   9.013   5.159   1.869 -2.0854  0.2198  0.9748
  518MOL0     H68346   9.106   5.011   1.724  2.8544  0.6199  0.4581
  518MOL0     H68347   9.093   4.866   1.830  3.3355 -0.7956 -2.3347
  518MOL0     H68348   9.280   5.104   1.858  0.2037  1.6444  1.4531
  518MOL0     H68349   9.258   4.983   1.990  0.8357 -1.9437 -0.6799
  518MOL0     H68350   9.363   4.937   1.710  1.1267  4.0204  0.2612
  518MOL0     H68351   9.292   4.817   1.820 -1.9557  1.0692 -1.7222
  518MOL0     H68352   9.480   4.864   1.978 -0.7174  0.4609 -0.3895
  518MOL0     H68353   9.526   5.011   1.897 -1.7725  0.8125 -0.3416
  518MOL0     H68354   9.553   4.714   1.806  0.3083 -0.0781 -1.6499
  518MOL0     H68355   9.560   4.846   1.689  0.1707  0.3603 -0.2129
  518MOL0     H68356   9.726   4.816   1.937  2.1035 -3.1959 -0.9333
  518MOL0     H68357   9.741   4.948   1.806  0.4831  0.1605  0.7889
  518MOL0     H68358   8.628   4.911   1.813  1.6007 -0.4454  0.4896
  518MOL0     H68359   8.386   4.879   1.842  6.4927 -3.3014  0.8415
  518MOL0     H68360   7.988   5.090   1.891 -0.1497  0.8528  0.5677
  518MOL0     H68361   7.745   5.040   1.876  0.6879  0.7337 -0.0549
  518MOL0     H68362   7.788   5.398   2.026  0.2697  0.0225 -0.1879
  518MOL0     H68363   8.015   5.432   1.960  1.1207  0.8672 -1.5570
  518MOL0     H68364   8.322   5.510   1.821  0.8596  1.2598 -3.1325
  518MOL0     H68365   8.558   5.527   1.832 -1.3363 -0.5655  0.6044
  518MOL0     H68366   8.785   5.499   1.846 -0.3086 -3.8701  0.3898
  518MOL0     H68367   8.805   5.566   1.676  2.0149 -0.3027  0.1625
  518MOL0     H68368   8.974   5.355   1.813 -3.1144 -0.8144 -0.3147
  518MOL0     H68369   8.977   5.387   1.635 -0.0504 -2.1680  0.3152
  518MOL0     H68370   9.063   5.551   1.871 -0.8703 -2.8572  0.0958
  518MOL0     H68371   9.022   5.639   1.729  0.7037  0.2919 -0.9629
  518MOL0     H68372   9.267   5.609   1.735 -1.0173  0.9490  0.6955
  518MOL0     H68373   9.249   5.437   1.787 -3.0155 -0.3436  0.4067
  518MOL0     H68374   9.243   5.400   1.369 -0.1467  0.4074 -0.4687
  518MOL0     H68375   8.633   5.193   1.586  2.0138  1.8996 -0.1520
  518MOL0     H68376   8.382   5.165   1.563 -1.8393  0.9442 -0.4758
  519MOL0     O68377   6.160   8.054   2.716  0.1014 -0.4816  0.3544
  519MOL0     C68378   6.244   8.067   2.797  0.0421 -0.4447 -0.2467
  519MOL0     O68379   6.223   8.076   2.928  0.3563 -0.3470 -1.3271
  519MOL0     C68380   6.098   8.090   2.971 -0.0019 -0.3584  0.1566
  519MOL0     C68381   6.047   8.221   2.980  0.6072  0.0671  0.0871
  519MOL0     C68382   5.919   8.251   3.031 -0.2514 -0.0728 -1.1349
  519MOL0     C68383   5.841   8.142   3.070 -0.1472  1.3748  0.7162
  519MOL0     O68384   5.715   8.150   3.128 -1.2009  0.1676 -0.3259
  519MOL0     C68385   5.656   8.283   3.136 -0.5499  0.4674  0.0928
  519MOL0     C68386   5.522   8.269   3.208 -0.0180 -0.5759 -0.6305
  519MOL0     C68387   5.456   8.413   3.227 -0.0443  0.8488  0.0848
  519MOL0     C68388   5.324   8.397   3.287 -0.2374 -0.1094  0.4659
  519MOL0     C68389   5.222   8.320   3.207 -0.4298  0.8045  1.0327
  519MOL0     C68390   5.188   8.417   3.089 -0.0589  0.4523 -0.3518
  519MOL0     C68391   5.079   8.361   3.007 -0.0438  0.6725  0.0664
  519MOL0     C68392   5.017   8.474   2.925 -0.1535 -0.2888  0.4231
  519MOL0     N68393   4.887   8.433   2.859 -0.7870 -0.2112 -0.2955
  519MOL0     C68394   4.778   8.392   2.924 -0.6797 -0.5637  0.8871
  519MOL0     C68395   4.689   8.353   2.831 -0.2433 -0.9782 -0.6418
  519MOL0     C68396   4.557   8.292   2.860  0.9179 -0.6363  0.4747
  519MOL0     C68397   4.442   8.390   2.901 -0.6770 -0.7667  0.2009
  519MOL0     C68398   4.394   8.471   2.778  0.2271 -0.4532 -0.4883
  519MOL0     C68399   4.274   8.563   2.807  0.2911 -0.1705 -0.1368
  519MOL0     O68400   4.161   8.478   2.838 -0.1356 -0.2523 -0.2905
  519MOL0     C68401   4.039   8.543   2.851  0.6780  0.9387 -0.3938
  519MOL0     C68402   3.920   8.465   2.835 -0.3062  0.4948  0.3046
  519MOL0     C68403   3.794   8.528   2.846  0.6185 -0.5127  0.2677
  519MOL0     C68404   3.779   8.661   2.877 -0.1183 -0.1082  0.2412
  519MOL0     C68405   3.649   8.721   2.899  0.3500  0.1357 -0.4202
  519MOL0     O68406   3.642   8.850   2.948  0.0088 -0.4272  0.2033
  519MOL0     C68407   3.521   8.907   2.954  1.0259 -0.8950  0.0580
  519MOL0     C68408   3.488   9.014   2.867 -0.6489  0.2079 -0.5886
  519MOL0     C68409   3.360   9.066   2.881  0.2281 -1.0148 -0.6393
  519MOL0     C68410   3.265   9.025   2.980 -0.0725  0.1487  0.0609
  519MOL0     O68411   3.144   9.092   2.995 -0.7207  0.1650 -0.8202
  519MOL0     C68412   3.034   9.028   3.065 -0.0244 -0.2241  0.6144
  519MOL0     C68413   2.922   9.133   3.040 -0.3893  0.7428 -0.2173
  519MOL0     C68414   2.807   9.121   3.142 -0.1157  0.3857 -0.3768
  519MOL0     C68415   2.702   9.219   3.097 -0.9220  0.5478 -0.0913
  519MOL0     C68416   2.581   9.207   3.181  0.3158 -0.4129  0.6129
  519MOL0     C68417   2.479   9.317   3.167 -0.5867 -0.2750 -0.2547
  519MOL0     C68418   2.364   9.289   3.269  0.1057  0.1581 -0.1899
  519MOL0     C68419   2.278   9.410   3.304  0.1360 -0.1351  0.0848
  519MOL0    Cl68420   2.125   9.353   3.352  0.1005  0.1007 -0.0751
  519MOL0     C68421   3.303   8.923   3.066  0.1456  0.2910 -0.0620
  519MOL0     C68422   3.428   8.857   3.052 -0.2291  0.0755 -0.3241
  519MOL0     O68423   3.544   8.654   2.875 -0.0754 -0.2096 -0.5463
  519MOL0     C68424   3.898   8.739   2.891  0.8010 -0.1637  0.2931
  519MOL0     C68425   4.022   8.672   2.897  0.0121 -0.4407  0.3140
  519MOL0     N68426   4.749   8.376   2.710 -0.8836  0.7199 -0.1358
  519MOL0     N68427   4.873   8.421   2.729  0.4765  0.2412  0.2508
  519MOL0     C68428   5.894   8.010   3.057  0.5200 -0.3992 -0.4764
  519MOL0     C68429   6.021   7.987   3.018  0.3031  0.9146 -0.8167
  519MOL0     C68430   6.389   8.082   2.748  0.0866 -0.7536 -0.3916
  519MOL0     C68431   6.489   8.100   2.842 -0.8385 -0.8236 -0.5188
  519MOL0     C68432   6.616   8.149   2.803  0.1487 -0.2788 -0.0351
  519MOL0     C68433   6.650   8.153   2.664  0.3250  0.5860  0.3193
  519MOL0     O68434   6.769   8.194   2.613  0.7050  0.1294  0.2166
  519MOL0     C68435   6.892   8.136   2.669 -0.1070 -0.0629  0.0974
  519MOL0     C68436   7.006   8.212   2.607  0.1222  0.3434  0.3489
  519MOL0     C68437   7.004   8.200   2.451  1.0783 -0.2220 -0.8083
  519MOL0     C68438   6.990   8.063   2.390  0.0693 -0.1008  0.4519
  519MOL0     C68439   7.084   8.052   2.272 -0.4014  0.3008  0.6170
  519MOL0     C68440   7.149   8.050   2.166  0.1252  0.8577  0.0337
  519MOL0     C68441   6.558   8.125   2.566  0.1714 -0.4501  0.5625
  519MOL0     C68442   6.427   8.094   2.611 -0.3987  0.2263 -0.7462
  519MOL0     H68443   6.099   8.299   2.925  1.8229 -0.5755  0.2953
  519MOL0     H68444   5.887   8.353   3.052 -3.6172 -1.2052 -0.1629
  519MOL0     H68445   5.640   8.337   3.043 -2.4721 -0.7512 -0.3423
  519MOL0     H68446   5.713   8.348   3.203  0.9122 -0.1062 -0.5634
  519MOL0     H68447   5.527   8.214   3.302  0.2178 -1.8285 -1.3539
  519MOL0     H68448   5.465   8.204   3.141  1.0340  0.6657 -2.8655
  519MOL0     H68449   5.467   8.474   3.137 -1.3930  0.2630 -0.4984
  519MOL0     H68450   5.513   8.471   3.301  2.0411 -2.4157  1.2625
  519MOL0     H68451   5.326   8.332   3.374 -2.5384  0.0114  0.6651
  519MOL0     H68452   5.292   8.498   3.316  2.9100  1.4421 -0.9972
  519MOL0     H68453   5.137   8.315   3.275 -0.9546  1.9934  0.4874
  519MOL0     H68454   5.261   8.229   3.160  0.7262  2.0738 -0.5894
  519MOL0     H68455   5.273   8.435   3.023 -0.1112  0.2808 -0.4669
  519MOL0     H68456   5.156   8.512   3.132 -0.0811  0.4969 -0.4681
  519MOL0     H68457   5.111   8.274   2.949 -1.8186  0.3152 -0.4503
  519MOL0     H68458   5.000   8.322   3.073 -0.8964 -0.0619 -1.3516
  519MOL0     H68459   5.089   8.500   2.847 -1.3222  1.2610 -0.2126
  519MOL0     H68460   5.000   8.563   2.987 -0.6090  0.6583 -0.9982
  519MOL0     H68461   4.771   8.380   3.032  1.5869  0.1304  1.1508
  519MOL0     H68462   4.566   8.228   2.948  1.6142 -1.5859 -0.2646
  519MOL0     H68463   4.536   8.238   2.767 -0.6055  0.2738  0.2646
  519MOL0     H68464   4.472   8.446   2.990 -0.5824  1.2724 -1.0504
  519MOL0     H68465   4.351   8.338   2.930 -0.6371 -1.4029 -0.7578
  519MOL0     H68466   4.475   8.540   2.752  1.7368 -1.6765  0.8063
  519MOL0     H68467   4.368   8.400   2.699  0.2581 -2.0609  0.9062
  519MOL0     H68468   4.258   8.616   2.713  0.2816 -1.0667 -0.6533
  519MOL0     H68469   4.299   8.637   2.884 -0.4579  0.6552 -0.6688
  519MOL0     H68470   3.938   8.364   2.800  0.3111  0.2833  1.1951
  519MOL0     H68471   3.701   8.473   2.851 -0.6001  1.5162  1.6784
  519MOL0     H68472   3.564   9.064   2.808  0.6436  1.7582  2.1919
  519MOL0     H68473   3.336   9.149   2.814  2.5206  1.0029  0.8707
  519MOL0     H68474   3.064   9.028   3.170 -2.8124  2.2476  1.5537
  519MOL0     H68475   3.026   8.924   3.030  1.5383  0.5879 -2.5339
  519MOL0     H68476   2.895   9.122   2.935  1.1739 -0.0453 -0.5671
  519MOL0     H68477   2.962   9.235   3.053  0.5360  0.4756 -0.9135
  519MOL0     H68478   2.838   9.139   3.245  1.0547  0.5849 -0.7476
  519MOL0     H68479   2.767   9.020   3.132 -0.9000  0.4789  1.4469
  519MOL0     H68480   2.740   9.321   3.110 -1.3908  0.7077  0.0344
  519MOL0     H68481   2.673   9.200   2.994  0.6754  0.8739 -0.6310
  519MOL0     H68482   2.602   9.192   3.287 -1.0407 -2.4870  0.6647
  519MOL0     H68483   2.534   9.113   3.148  0.4663  0.3166 -1.9167
  519MOL0     H68484   2.451   9.324   3.062  4.3462 -4.1054 -2.2364
  519MOL0     H68485   2.532   9.412   3.181 -0.2716 -0.1517 -2.1019
  519MOL0     H68486   2.310   9.202   3.231  0.8720 -0.0478 -0.8377
  519MOL0     H68487   2.409   9.251   3.361  3.1013  2.0352 -0.7534
  519MOL0     H68488   2.265   9.465   3.210 -1.3378  0.9453  0.8701
  519MOL0     H68489   2.320   9.481   3.375 -2.7932  2.2964 -0.4028
  519MOL0     H68490   3.242   8.899   3.153  1.7707 -0.9466  0.7832
  519MOL0     H68491   3.460   8.775   3.115  2.4533  0.1669 -1.4224
  519MOL0     H68492   3.895   8.848   2.901  0.8593 -0.1549  0.2157
  519MOL0     H68493   4.101   8.745   2.918 -1.4696  0.3087  4.0437
  519MOL0     H68494   5.837   7.928   3.099  1.5667 -0.0680  1.7523
  519MOL0     H68495   6.072   7.891   3.010  0.1612  0.8383 -0.8022
  519MOL0     H68496   6.460   8.092   2.946 -0.3561 -0.0111 -0.3099
  519MOL0     H68497   6.689   8.180   2.877  1.0346  1.9716 -1.7551
  519MOL0     H68498   6.888   8.028   2.653 -2.0455 -0.3193  1.8695
  519MOL0     H68499   6.896   8.160   2.775  1.2471 -0.1986  0.0867
  519MOL0     H68500   7.004   8.317   2.636 -0.2395  0.5322 -0.3418
  519MOL0     H68501   7.101   8.171   2.642  0.7321  0.5179 -1.0449
  519MOL0     H68502   7.105   8.228   2.418  1.1725 -1.1094 -1.3224
  519MOL0     H68503   6.929   8.267   2.409 -0.2760 -0.4441  1.1610
  519MOL0     H68504   7.020   7.981   2.456  1.8166  1.5672  1.8650
  519MOL0     H68505   6.885   8.043   2.367  0.8852 -1.0540 -2.9392
  519MOL0     H68506   7.202   8.069   2.075  1.0339  3.0286  0.9374
  519MOL0     H68507   6.585   8.140   2.461 -2.6830 -1.0217 -0.3320
  519MOL0     H68508   6.342   8.075   2.547 -0.2374 -2.0067 -0.3839
  520MOL0     O68509   1.684   4.191   4.983  0.3795  0.2629 -0.1962
  520MOL0     C68510   1.734   4.088   5.032 -0.8632  0.4129 -0.2854
  520MOL0     O68511   1.667   4.009   5.125 -0.9740  0.3007 -0.5155
  520MOL0     C68512   1.532   4.023   5.117  0.0853 -0.4658 -0.4133
  520MOL0     C68513   1.461   4.093   5.215 -0.1903  0.0269  0.3018
  520MOL0     C68514   1.320   4.078   5.229  0.0860  0.7821  0.0599
  520MOL0     C68515   1.243   4.003   5.135 -0.4140  0.4749  0.0835
  520MOL0     O68516   1.108   4.010   5.148 -0.2249 -0.2838 -0.2498
  520MOL0     C68517   1.042   3.896   5.100 -0.9293  0.2614  0.0558
  520MOL0     C68518   0.916   3.889   5.175 -0.6390 -0.2605  1.1087
  520MOL0     C68519   0.931   3.822   5.314  0.6103  0.1264 -0.4677
  520MOL0     C68520   0.809   3.831   5.409  1.5424  0.1358  0.5404
  520MOL0     C68521   0.680   3.774   5.345 -0.9185  0.7156 -0.2056
  520MOL0     C68522   0.563   3.808   5.442 -0.2524 -0.0066  0.6377
  520MOL0     C68523   0.436   3.751   5.378  1.1570  0.3629 -0.5758
  520MOL0     C68524   0.310   3.795   5.462 -0.2659  0.7060  0.2396
  520MOL0     N68525   0.185   3.739   5.407  0.3690 -0.4500 -0.9153
  520MOL0     C68526   0.120   3.779   5.290  0.4725 -0.2313 -0.1387
  520MOL0     C68527   0.012   3.696   5.287  0.1078 -0.0419 -0.0050
  520MOL0     C68528  -0.087   3.690   5.174 -0.1660  0.2816  0.7359
  520MOL0     C68529  -0.032   3.610   5.050  0.5828 -0.6014  0.4135
  520MOL0     C68530  -0.128   3.616   4.932  0.4125  0.1528  0.1264
  520MOL0     C68531  -0.088   3.513   4.826  0.4719 -0.3477 -0.3922
  520MOL0     O68532  -0.166   3.529   4.712 -0.5354  0.1666 -0.6703
  520MOL0     C68533  -0.288   3.460   4.720  0.6779  0.4775 -0.6315
  520MOL0     C68534  -0.372   3.466   4.612  0.2391 -0.0425 -0.3224
  520MOL0     C68535  -0.495   3.401   4.599  0.1499 -0.4164 -0.3925
  520MOL0     C68536  -0.532   3.317   4.700  0.8396  0.1198  0.3367
  520MOL0     C68537  -0.668   3.235   4.691 -1.3396 -0.6272  0.6815
  520MOL0     O68538  -0.741   3.249   4.581  0.2115  0.0194 -0.1864
  520MOL0     C68539  -0.850   3.169   4.577  0.1161 -0.5679  0.0541
  520MOL0     C68540  -0.860   3.030   4.581 -0.2131  0.4726 -0.8615
  520MOL0     C68541  -0.978   2.964   4.548  0.1610  0.9435 -0.2339
  520MOL0     C68542  -1.094   3.034   4.508  0.5780 -0.9612 -0.3661
  520MOL0     O68543  -1.207   2.961   4.474  0.6049 -0.1949  0.4532
  520MOL0     C68544  -1.337   3.014   4.518 -0.7660 -0.9663 -0.3540
  520MOL0     C68545  -1.442   2.910   4.509 -0.2363 -0.2578  0.5020
  520MOL0     C68546  -1.400   2.786   4.586  0.1028 -0.5781 -0.4855
  520MOL0     C68547  -1.515   2.680   4.592 -0.0656  0.7833  0.2651
  520MOL0     C68548  -1.502   2.580   4.694 -0.0414  0.0086 -0.2008
  520MOL0     C68549  -1.356   2.533   4.703  0.9294  0.6871  0.1870
  520MOL0     C68550  -1.353   2.420   4.807 -0.8506 -0.6648  0.5055
  520MOL0     C68551  -1.211   2.365   4.841 -0.0600 -0.8659 -0.7226
  520MOL0    Cl68552  -1.138   2.306   4.694  0.2234 -0.0661 -0.2392
  520MOL0     C68553  -1.090   3.173   4.495 -1.1284  0.4450  0.1351
  520MOL0     C68554  -0.964   3.238   4.529  0.3372 -0.2282  0.5788
  520MOL0     O68555  -0.685   3.157   4.785  0.5628  0.9839  0.2902
  520MOL0     C68556  -0.448   3.301   4.818  0.1288 -0.3115  0.5385
  520MOL0     C68557  -0.332   3.379   4.828 -0.3119 -0.1080  0.6849
  520MOL0     N68558   0.016   3.616   5.396  0.3660 -0.0274 -0.0574
  520MOL0     N68559   0.116   3.643   5.469 -0.3087 -0.4084  0.5489
  520MOL0     C68560   1.318   3.938   5.029  0.0853 -0.0726  0.2192
  520MOL0     C68561   1.460   3.950   5.024  0.0777  0.5959 -0.3557
  520MOL0     C68562   1.869   4.049   4.991 -0.6898  0.4411  0.1346
  520MOL0     C68563   1.956   4.134   4.926 -0.2013 -1.1697  0.1792
  520MOL0     C68564   2.081   4.102   4.882 -0.3725  0.3952  0.5550
  520MOL0     C68565   2.136   3.974   4.929 -0.6127  0.2592 -1.1555
  520MOL0     O68566   2.263   3.928   4.901 -0.2199 -0.1131  0.4498
  520MOL0     C68567   2.355   4.012   4.832  1.0413 -0.4485  0.2178
  520MOL0     C68568   2.479   3.932   4.802  0.1324 -0.3631  0.2501
  520MOL0     C68569   2.592   4.014   4.725  0.2955 -0.2721 -0.0628
  520MOL0     C68570   2.655   4.126   4.796 -0.3704 -0.2764 -0.3140
  520MOL0     C68571   2.718   4.090   4.918 -1.0986  0.0777 -0.5714
  520MOL0     C68572   2.762   4.061   5.028  0.4630 -0.1222  0.4655
  520MOL0     C68573   2.058   3.883   5.004  0.0733 -0.5031 -0.2499
  520MOL0     C68574   1.922   3.920   5.031  0.2597  0.5109  0.5593
  520MOL0     H68575   1.515   4.156   5.285  2.1141 -2.9560  1.4590
  520MOL0     H68576   1.270   4.123   5.315 -4.7111 -2.8964 -0.3723
  520MOL0     H68577   1.101   3.811   5.135 -0.7508 -0.4389 -1.7928
  520MOL0     H68578   1.037   3.891   4.990  2.0221  1.0328 -0.2230
  520MOL0     H68579   0.846   3.824   5.122  0.2486  0.1807 -0.6803
  520MOL0     H68580   0.870   3.988   5.176  1.7876  0.9400  2.5414
  520MOL0     H68581   1.010   3.866   5.375 -0.0375 -0.9455  1.2354
  520MOL0     H68582   0.959   3.717   5.298  1.3348  0.3925 -0.9881
  520MOL0     H68583   0.820   3.766   5.496  1.2882 -1.0789 -0.3152
  520MOL0     H68584   0.799   3.933   5.447  0.3499 -0.6170  2.3812
  520MOL0     H68585   0.699   3.668   5.327  0.9715  1.1862 -1.1968
  520MOL0     H68586   0.668   3.811   5.243  1.4122  1.3624 -0.3125
  520MOL0     H68587   0.555   3.917   5.449  1.1570  0.1224  0.5472
  520MOL0     H68588   0.574   3.772   5.545  0.4697 -0.6651  0.3415
  520MOL0     H68589   0.416   3.792   5.279 -0.4873 -1.3550 -1.0204
  520MOL0     H68590   0.444   3.642   5.372  2.6459  0.3595  0.6697
  520MOL0     H68591   0.311   3.904   5.454  0.4716  0.6062 -1.4227
  520MOL0     H68592   0.322   3.779   5.570  0.6790  2.4218  0.4201
  520MOL0     H68593   0.144   3.863   5.226  1.9893  1.2458  2.2168
  520MOL0     H68594  -0.122   3.792   5.156 -1.0743  0.3334  2.5716
  520MOL0     H68595  -0.173   3.634   5.212  0.1345 -0.1395  0.8121
  520MOL0     H68596  -0.038   3.504   5.076 -1.4829 -0.8781 -0.9558
  520MOL0     H68597   0.071   3.640   5.027 -0.3928  1.6965 -1.4137
  520MOL0     H68598  -0.229   3.584   4.962  0.2483 -0.4933 -1.0320
  520MOL0     H68599  -0.133   3.716   4.889  0.9784 -0.5878 -1.7265
  520MOL0     H68600  -0.088   3.412   4.869 -2.0657  0.6227  2.1443
  520MOL0     H68601   0.018   3.535   4.810  0.6210 -0.8995 -0.2023
  520MOL0     H68602  -0.346   3.525   4.524  0.4816 -2.7629 -2.2133
  520MOL0     H68603  -0.565   3.437   4.524  1.0934  1.2063 -0.5355
  520MOL0     H68604  -0.773   2.974   4.614  0.3076  1.3909 -0.6593
  520MOL0     H68605  -0.969   2.856   4.557  2.5519  0.9423 -1.6108
  520MOL0     H68606  -1.358   3.105   4.461  1.2159  0.4545  0.9859
  520MOL0     H68607  -1.319   3.047   4.621 -0.7667  0.8885 -0.9104
  520MOL0     H68608  -1.447   2.882   4.404  0.6261 -0.2099  0.4454
  520MOL0     H68609  -1.543   2.939   4.540 -0.1484 -0.7223  1.2500
  520MOL0     H68610  -1.381   2.829   4.685  1.1412  2.7572 -1.9838
  520MOL0     H68611  -1.302   2.759   4.545  0.9319  2.3569 -0.6746
  520MOL0     H68612  -1.616   2.722   4.603  0.6434  2.4719  0.6562
  520MOL0     H68613  -1.495   2.627   4.499  3.5944 -0.0056  1.3296
  520MOL0     H68614  -1.571   2.496   4.683 -3.5209  2.7113 -0.8826
  520MOL0     H68615  -1.538   2.631   4.783 -2.4437 -1.6138 -0.1583
  520MOL0     H68616  -1.292   2.619   4.726  1.5063  0.4252 -0.3931
  520MOL0     H68617  -1.320   2.489   4.610  0.6025 -0.2403  0.4884
  520MOL0     H68618  -1.391   2.469   4.898 -1.8672  0.1417 -0.3238
  520MOL0     H68619  -1.417   2.335   4.781 -0.4965 -0.2565 -1.9511
  520MOL0     H68620  -1.227   2.275   4.902 -0.2798 -1.4958 -1.6929
  520MOL0     H68621  -1.146   2.433   4.897  2.2368 -2.5396 -1.2133
  520MOL0     H68622  -1.179   3.211   4.444 -0.6843 -0.2144 -1.1723
  520MOL0     H68623  -0.964   3.347   4.528 -2.7116 -0.1058  1.9097
  520MOL0     H68624  -0.481   3.234   4.897 -1.5701 -0.1614 -0.0131
  520MOL0     H68625  -0.272   3.376   4.919  0.2464 -0.6790  0.3081
  520MOL0     H68626   1.273   3.874   4.954 -1.2981  0.8353  0.2458
  520MOL0     H68627   1.517   3.910   4.940 -0.0494  0.2022 -0.2531
  520MOL0     H68628   1.931   4.232   4.888  1.0667 -1.3408 -1.2273
  520MOL0     H68629   2.128   4.172   4.813 -2.8863  1.3226 -0.3355
  520MOL0     H68630   2.382   4.096   4.896  0.0684  1.9845 -2.3402
  520MOL0     H68631   2.312   4.051   4.739  1.3688 -0.4360  0.0672
  520MOL0     H68632   2.525   3.903   4.897 -2.7920  0.5175  2.0423
  520MOL0     H68633   2.457   3.842   4.743 -0.6344 -0.5443  0.7996
  520MOL0     H68634   2.562   4.043   4.624  0.2094 -0.7804 -0.1868
  520MOL0     H68635   2.667   3.938   4.698 -1.2634 -0.6909 -3.7914
  520MOL0     H68636   2.727   4.163   4.722  0.5184 -1.3592 -0.0168
  520MOL0     H68637   2.579   4.203   4.808 -0.1736 -0.1182 -0.0802
  520MOL0     H68638   2.790   4.028   5.126 -0.6477  0.6632  1.0720
  520MOL0     H68639   2.098   3.786   5.030 -0.6320 -1.0653 -1.2182
  520MOL0     H68640   1.865   3.841   5.080 -0.1323  1.9410  2.4778
  521MOL0     O68641   4.840   2.057   3.418  0.0406 -0.3297 -0.3075
  521MOL0     C68642   4.927   2.131   3.376 -0.2276 -0.4680 -0.2859
  521MOL0     O68643   4.912   2.265   3.326  0.3905  0.4321 -0.1064
  521MOL0     C68644   4.798   2.330   3.327  0.0592  0.1458  0.3228
  521MOL0     C68645   4.767   2.419   3.231  0.1103  0.3331  0.4988
  521MOL0     C68646   4.658   2.509   3.239  0.4204  0.0783  0.0943
  521MOL0     C68647   4.562   2.494   3.333  1.0205  0.2027 -0.3637
  521MOL0     O68648   4.462   2.589   3.343 -0.0226  0.0648  0.5866
  521MOL0     C68649   4.385   2.610   3.460 -0.5460  0.1860  0.0157
  521MOL0     C68650   4.275   2.714   3.457  0.1302  0.7248 -0.5423
  521MOL0     C68651   4.194   2.741   3.587  0.1673 -0.0909 -0.7290
  521MOL0     C68652   4.140   2.609   3.646 -0.6395 -0.2158  0.2923
  521MOL0     C68653   4.005   2.609   3.707  0.6505  0.9580 -0.4963
  521MOL0     C68654   3.892   2.617   3.612  0.3329 -0.6525  0.5874
  521MOL0     C68655   3.744   2.597   3.671 -0.7354 -0.3088 -0.6763
  521MOL0     C68656   3.718   2.705   3.777  0.3141 -0.4229 -0.4054
  521MOL0     N68657   3.584   2.693   3.833 -0.2586  0.1871 -0.8224
  521MOL0     C68658   3.458   2.727   3.782  0.0028  1.5950 -0.7376
  521MOL0     C68659   3.367   2.658   3.865  0.1445 -0.3017 -0.2354
  521MOL0     C68660   3.218   2.651   3.847  0.2026  0.3929  0.4101
  521MOL0     C68661   3.141   2.781   3.891 -0.0692  0.6750  0.3516
  521MOL0     C68662   2.993   2.778   3.858 -0.0894 -0.2932  0.2033
  521MOL0     C68663   2.934   2.911   3.896 -0.1244  0.0689 -1.0965
  521MOL0     O68664   2.807   2.899   3.844  1.1011 -0.6146  0.0211
  521MOL0     C68665   2.713   2.886   3.943 -0.1781 -0.5806 -0.1193
  521MOL0     C68666   2.629   2.999   3.949  0.0567 -0.0435  0.0550
  521MOL0     C68667   2.530   3.007   4.042  0.2973  0.2663 -0.4246
  521MOL0     C68668   2.499   2.888   4.119  0.7294 -1.0974  0.6730
  521MOL0     C68669   2.375   2.884   4.196 -0.2430 -0.5261 -0.5888
  521MOL0     O68670   2.275   2.970   4.157  0.8081 -0.1969 -0.1336
  521MOL0     C68671   2.150   2.948   4.207 -0.3084  0.1537 -0.3063
  521MOL0     C68672   2.072   2.845   4.153  0.4321  0.3150 -0.1993
  521MOL0     C68673   1.941   2.826   4.183  0.2344 -0.0457 -1.1818
  521MOL0     C68674   1.884   2.910   4.280  0.6149  0.8054 -0.7788
  521MOL0     O68675   1.761   2.886   4.321 -0.1251  0.0523 -0.0048
  521MOL0     C68676   1.661   2.878   4.217 -0.6281  0.3602  0.1826
  521MOL0     C68677   1.520   2.894   4.269 -0.4226  0.6265  0.3902
  521MOL0     C68678   1.494   3.041   4.312  0.4491 -0.4092  0.8825
  521MOL0     C68679   1.376   3.042   4.414  0.1638 -0.0216  0.3329
  521MOL0     C68680   1.299   3.173   4.421  0.1605 -0.5676  0.0013
  521MOL0     C68681   1.221   3.180   4.561  0.3597  0.3485 -0.1768
  521MOL0     C68682   1.178   3.323   4.591  0.1787 -0.5775 -0.6592
  521MOL0     C68683   1.078   3.371   4.486  0.1326  0.0803  0.5907
  521MOL0    Cl68684   1.009   3.531   4.520 -0.0142  0.4494  0.0703
  521MOL0     C68685   1.964   3.008   4.347 -0.3121  0.0912  0.2053
  521MOL0     C68686   2.097   3.028   4.304 -0.3671 -0.1653 -0.6844
  521MOL0     O68687   2.367   2.797   4.285  0.4572  0.0218  0.2928
  521MOL0     C68688   2.585   2.775   4.107  0.8367 -1.3509 -0.6508
  521MOL0     C68689   2.686   2.772   4.011  0.2696  0.5288  0.0564
  521MOL0     N68690   3.437   2.594   3.966  0.0338  0.7060 -0.1548
  521MOL0     N68691   3.561   2.606   3.940 -0.6582  0.9382 -0.1528
  521MOL0     C68692   4.578   2.389   3.422 -0.0179  0.1791 -0.3690
  521MOL0     C68693   4.699   2.310   3.422  0.2765  0.1217 -0.1193
  521MOL0     C68694   5.061   2.066   3.374  0.0506 -0.1443 -0.5295
  521MOL0     C68695   5.165   2.137   3.317  0.6905 -1.0277 -0.6062
  521MOL0     C68696   5.290   2.077   3.278  0.2425  0.1081  0.1186
  521MOL0     C68697   5.304   1.939   3.296 -0.5936  0.4650 -0.0244
  521MOL0     O68698   5.422   1.887   3.250 -0.0624  0.7995  0.9873
  521MOL0     C68699   5.457   1.752   3.288 -0.8312 -0.1328 -0.5367
  521MOL0     C68700   5.600   1.702   3.255  0.2453  0.3450  0.3176
  521MOL0     C68701   5.711   1.782   3.330 -0.2924 -0.3739  0.3591
  521MOL0     C68702   5.844   1.720   3.286 -0.2982  0.2820 -0.1142
  521MOL0     C68703   5.882   1.761   3.144 -0.3044 -0.3859  0.4745
  521MOL0     C68704   5.893   1.807   3.028 -0.3693  0.7084  0.7033
  521MOL0     C68705   5.202   1.866   3.362 -0.2748 -0.4556  0.6378
  521MOL0     C68706   5.081   1.933   3.398 -1.0440 -0.3162 -0.4106
  521MOL0     H68707   4.843   2.442   3.156 -1.0821  3.2690  0.0595
  521MOL0     H68708   4.637   2.588   3.166  2.8774  0.9235  0.2265
  521MOL0     H68709   4.457   2.637   3.538 -1.3906  1.3766  0.3980
  521MOL0     H68710   4.338   2.514   3.486 -0.9455  0.1641 -0.7636
  521MOL0     H68711   4.208   2.677   3.378  1.2115  2.8687 -2.5775
  521MOL0     H68712   4.316   2.810   3.425  2.3610  0.8822  2.3312
  521MOL0     H68713   4.113   2.810   3.563  0.6499  0.9834  0.5392
  521MOL0     H68714   4.251   2.791   3.667 -2.6706  0.0919  1.3151
  521MOL0     H68715   4.140   2.529   3.571 -0.4033 -1.0590  1.1726
  521MOL0     H68716   4.212   2.584   3.724 -0.2682 -1.5324 -0.4558
  521MOL0     H68717   3.998   2.690   3.780 -1.3573 -0.8387  1.4809
  521MOL0     H68718   3.991   2.515   3.761 -4.8665  2.6291  1.6553
  521MOL0     H68719   3.888   2.542   3.533 -3.3830  1.2386 -1.2825
  521MOL0     H68720   3.903   2.710   3.555  3.5290  0.1960  2.3336
  521MOL0     H68721   3.665   2.602   3.596 -2.9213 -1.7374  1.3913
  521MOL0     H68722   3.742   2.501   3.724  0.5337 -0.0200 -0.0729
  521MOL0     H68723   3.712   2.802   3.727 -5.0742 -0.2138  0.0661
  521MOL0     H68724   3.787   2.697   3.862 -0.5342 -2.5066  0.1479
  521MOL0     H68725   3.426   2.791   3.701 -0.2606  0.4809 -1.5301
  521MOL0     H68726   3.181   2.564   3.903 -1.0095  0.5367 -0.1318
  521MOL0     H68727   3.199   2.632   3.741 -1.0060  3.2650  0.0183
  521MOL0     H68728   3.196   2.869   3.855 -1.0883  1.4206  0.5815
  521MOL0     H68729   3.158   2.799   3.998  1.9792  0.3665  0.1186
  521MOL0     H68730   2.976   2.750   3.753  0.1142  0.1863  0.0404
  521MOL0     H68731   2.942   2.704   3.921 -0.8871 -0.1071 -0.2081
  521MOL0     H68732   2.983   2.993   3.843 -0.5800  1.4557  0.5153
  521MOL0     H68733   2.940   2.928   4.004 -1.1131  1.3055 -1.2031
  521MOL0     H68734   2.653   3.083   3.885 -0.6277  0.6876  0.7403
  521MOL0     H68735   2.467   3.095   4.051  0.4276  0.2251  1.3082
  521MOL0     H68736   2.108   2.775   4.078 -0.4225 -0.8752  0.4733
  521MOL0     H68737   1.884   2.745   4.140 -1.6997 -0.6446  2.1467
  521MOL0     H68738   1.679   2.782   4.169  0.0450  0.5235  0.0990
  521MOL0     H68739   1.693   2.945   4.137 -0.5968  1.3915  1.0253
  521MOL0     H68740   1.506   2.818   4.346 -2.8305  0.4513 -0.1226
  521MOL0     H68741   1.454   2.862   4.187  1.5921 -0.7873 -0.7592
  521MOL0     H68742   1.464   3.105   4.228 -1.2534  0.8718  2.3869
  521MOL0     H68743   1.586   3.080   4.356  0.7949  0.4882 -0.5535
  521MOL0     H68744   1.303   2.963   4.394  2.7437 -2.6187  0.4928
  521MOL0     H68745   1.426   3.026   4.510  1.4863  0.5098 -0.2415
  521MOL0     H68746   1.220   3.178   4.345 -2.2911  0.0537  2.4033
  521MOL0     H68747   1.367   3.256   4.401 -1.3771  1.0532  1.1971
  521MOL0     H68748   1.290   3.147   4.639 -0.1781  0.1662  0.2234
  521MOL0     H68749   1.142   3.106   4.555  0.7186  0.0474 -3.9557
  521MOL0     H68750   1.133   3.328   4.691 -1.4995 -2.0398 -1.2904
  521MOL0     H68751   1.263   3.392   4.584 -0.7859  0.5514 -1.8562
  521MOL0     H68752   0.985   3.316   4.472 -0.3998  0.6279  1.8923
  521MOL0     H68753   1.125   3.371   4.387  0.0394 -1.1844  0.5313
  521MOL0     H68754   1.921   3.074   4.422 -1.1141  3.2483 -2.7906
  521MOL0     H68755   2.157   3.089   4.370  2.4069 -0.0430 -3.1520
  521MOL0     H68756   2.570   2.693   4.177 -0.8498  1.3149  2.4248
  521MOL0     H68757   2.751   2.685   4.002  1.2058  1.3697 -1.5944
  521MOL0     H68758   4.510   2.374   3.505  2.6333 -0.7592  1.7845
  521MOL0     H68759   4.706   2.250   3.512 -2.2102  1.7916  1.3385
  521MOL0     H68760   5.154   2.241   3.288  1.1985 -1.0523 -0.8948
  521MOL0     H68761   5.369   2.135   3.232  1.1585  0.2820  1.8370
  521MOL0     H68762   5.386   1.676   3.253 -1.2617 -0.4238  0.8750
  521MOL0     H68763   5.465   1.750   3.397 -0.2389  3.1419 -0.4139
  521MOL0     H68764   5.603   1.595   3.278 -2.2423  0.7742  3.4795
  521MOL0     H68765   5.610   1.720   3.148 -3.1703  0.8989 -0.0464
  521MOL0     H68766   5.698   1.772   3.438 -3.7142  1.4255  0.2794
  521MOL0     H68767   5.708   1.888   3.302 -0.3797 -0.3990  0.2687
  521MOL0     H68768   5.924   1.759   3.350 -0.8712  1.6546 -0.2006
  521MOL0     H68769   5.833   1.611   3.287 -0.0688  0.2588 -0.1346
  521MOL0     H68770   5.902   1.849   2.930  3.4423 -3.2749 -0.9983
  521MOL0     H68771   5.224   1.761   3.381  4.2580  0.3709  1.1021
  521MOL0     H68772   5.005   1.868   3.441  0.6751 -1.5627  0.8959
  522MOL0     O68773   5.824  10.144   0.487  0.7346 -0.3773 -0.5004
  522MOL0     C68774   5.802  10.176   0.376 -0.4242  0.0717  1.0211
  522MOL0     O68775   5.679  10.178   0.313 -0.2589 -0.1886 -0.1254
  522MOL0     C68776   5.571  10.150   0.393  0.6817 -0.0215 -0.1888
  522MOL0     C68777   5.473  10.254   0.400 -0.3478  0.2275 -0.4417
  522MOL0     C68778   5.348  10.244   0.469  0.1079 -0.9389 -0.3689
  522MOL0     C68779   5.318  10.122   0.528  0.6851 -0.6534 -0.0847
  522MOL0     O68780   5.187  10.123   0.577  0.2102 -0.2725  0.1758
  522MOL0     C68781   5.129  10.000   0.632 -1.0599 -0.8269  0.2005
  522MOL0     C68782   5.000  10.038   0.705  0.3689  0.0873  0.1070
  522MOL0     C68783   4.897  10.109   0.618 -0.0385  0.1457  0.5673
  522MOL0     C68784   4.768  10.134   0.679 -0.5788 -0.0176  0.4811
  522MOL0     C68785   4.678  10.223   0.585 -0.3428  0.5205 -0.3675
  522MOL0     C68786   4.540  10.242   0.656  0.2675  0.7441 -0.2103
  522MOL0     C68787   4.550  10.304   0.792  0.5830 -0.3966 -0.4316
  522MOL0     C68788   4.408  10.340   0.838  0.4607 -0.2673 -1.2669
  522MOL0     N68789   4.394  10.387   0.977 -0.1983  0.6356  0.6262
  522MOL0     C68790   4.375  10.299   1.082  0.2648 -0.0031 -0.7685
  522MOL0     C68791   4.400  10.365   1.197 -0.3763  0.0691 -0.4790
  522MOL0     C68792   4.408  10.321   1.333 -0.2568  0.3176  0.3062
  522MOL0     C68793   4.274  10.356   1.403  0.6892  0.8159 -0.1927
  522MOL0     C68794   4.143  10.289   1.352  0.7443  0.2317  0.6819
  522MOL0     C68795   4.018  10.364   1.382  0.7313 -0.6497 -1.5367
  522MOL0     O68796   3.918  10.324   1.293 -0.0724  0.2201  0.8459
  522MOL0     C68797   3.789  10.348   1.332 -0.4023  0.7035 -0.4643
  522MOL0     C68798   3.747  10.424   1.440  0.8128 -0.4257 -0.1152
  522MOL0     C68799   3.610  10.439   1.468  0.2396  0.1358 -0.2524
  522MOL0     C68800   3.514  10.382   1.385  0.1876 -0.0948 -0.5174
  522MOL0     C68801   3.373  10.404   1.411  0.4513  0.8534  0.0028
  522MOL0     O68802   3.337  10.425   1.542  0.6946  0.8443 -0.4668
  522MOL0     C68803   3.203  10.408   1.571  0.5755  0.8501  1.1071
  522MOL0     C68804   3.151  10.471   1.681 -0.3668 -0.8024  0.3585
  522MOL0     C68805   3.021  10.454   1.725  0.5768  0.2210 -0.1932
  522MOL0     C68806   2.939  10.361   1.663  1.4073 -0.3949  0.6102
  522MOL0     O68807   2.816  10.357   1.717  0.4350 -0.8708  0.2203
  522MOL0     C68808   2.724  10.256   1.670 -0.2330  0.1803  0.8573
  522MOL0     C68809   2.607  10.235   1.773 -0.0240  0.0245  0.2795
  522MOL0     C68810   2.631  10.121   1.879  0.3756 -0.1140 -0.2565
  522MOL0     C68811   2.512  10.128   1.977 -0.3151  0.4024 -0.5045
  522MOL0     C68812   2.551  10.043   2.108 -0.2798 -0.5508  0.0484
  522MOL0     C68813   2.446  10.099   2.213 -0.4291  0.6320  0.3474
  522MOL0     C68814   2.487  10.047   2.350  1.0376 -0.2387 -0.5586
  522MOL0     C68815   2.397  10.103   2.455  0.4708  0.4513 -0.0617
  522MOL0    Cl68816   2.241  10.006   2.468  0.7703  0.2968 -0.2579
  522MOL0     C68817   2.986  10.298   1.545 -0.7666 -0.4423 -0.0479
  522MOL0     C68818   3.120  10.316   1.507  0.1338 -0.7908  0.0943
  522MOL0     O68819   3.298  10.406   1.316  0.9323  0.0917 -0.0360
  522MOL0     C68820   3.560  10.313   1.274 -0.4541 -0.8904 -0.0619
  522MOL0     C68821   3.693  10.296   1.244 -0.0453 -0.0284 -0.4345
  522MOL0     N68822   4.416  10.495   1.166 -0.2585  1.0736  0.2088
  522MOL0     N68823   4.427  10.503   1.034  0.6356 -0.4405 -0.0305
  522MOL0     C68824   5.411  10.017   0.526 -0.0469  0.0841 -1.0430
  522MOL0     C68825   5.532  10.029   0.453  0.6719  0.4534  0.2025
  522MOL0     C68826   5.924  10.203   0.286  0.4856 -0.1148 -0.1860
  522MOL0     C68827   6.056  10.185   0.333  0.1008 -0.2470  0.2549
  522MOL0     C68828   6.167  10.221   0.264  0.1156  0.3007  0.2642
  522MOL0     C68829   6.159  10.282   0.137  0.1689  0.9075  0.2585
  522MOL0     O68830   6.270  10.322   0.076 -0.1376  0.0097 -0.3270
  522MOL0     C68831   6.268  10.378  -0.057 -0.3991 -0.1202 -1.5878
  522MOL0     C68832   6.409  10.437  -0.068 -0.1360 -0.9257 -0.0417
  522MOL0     C68833   6.433  10.484  -0.214  0.1202  0.3005 -0.0179
  522MOL0     C68834   6.582  10.534  -0.227 -0.0801  0.9077 -0.1388
  522MOL0     C68835   6.607  10.570  -0.364  0.1313  0.0438  0.6441
  522MOL0     C68836   6.643  10.596  -0.478  0.1212 -0.0347  0.5060
  522MOL0     C68837   6.030  10.297   0.086  0.1188  0.8316 -0.6810
  522MOL0     C68838   5.912  10.257   0.159 -0.6850 -0.0830 -0.6524
  522MOL0     H68839   5.507  10.351   0.365 -2.4779  0.8872 -0.8462
  522MOL0     H68840   5.282  10.330   0.467  0.5384 -0.6046 -2.5767
  522MOL0     H68841   5.199   9.945   0.695  1.9925 -3.4386 -4.7782
  522MOL0     H68842   5.110   9.938   0.544 -0.2092 -1.1648  0.2437
  522MOL0     H68843   5.023  10.103   0.791 -0.0980  0.2285  0.1296
  522MOL0     H68844   4.963   9.942   0.741  2.5800 -1.0748 -0.6081
  522MOL0     H68845   4.894  10.043   0.531  3.0474 -1.1219  1.2853
  522MOL0     H68846   4.927  10.204   0.574  2.4006  0.3704  2.4657
  522MOL0     H68847   4.722  10.038   0.703  0.9645 -0.4421  1.9483
  522MOL0     H68848   4.785  10.192   0.771 -0.7605  0.8136  0.0026
  522MOL0     H68849   4.657  10.169   0.493 -0.3371  1.3311 -0.8499
  522MOL0     H68850   4.729  10.318   0.569 -1.4967  1.1368 -0.4721
  522MOL0     H68851   4.482  10.152   0.676 -0.2190  1.4958  2.0657
  522MOL0     H68852   4.480  10.306   0.590 -1.9936 -1.5919 -0.5823
  522MOL0     H68853   4.594  10.231   0.861 -3.0436  0.2943  3.0243
  522MOL0     H68854   4.609  10.396   0.802 -0.3198  0.1032  0.5244
  522MOL0     H68855   4.340  10.257   0.817 -1.3963  0.7704  0.2861
  522MOL0     H68856   4.375  10.414   0.765  1.9462  0.4152 -1.2702
  522MOL0     H68857   4.368  10.191   1.074 -1.8204 -0.2469  2.4780
  522MOL0     H68858   4.483  10.392   1.371 -1.2024  1.7119 -0.3689
  522MOL0     H68859   4.433  10.217   1.356 -1.6334  0.5284  3.3215
  522MOL0     H68860   4.272  10.466   1.399  3.4070  1.0244  1.8169
  522MOL0     H68861   4.270  10.334   1.510  1.7948 -0.0749 -0.3200
  522MOL0     H68862   4.152  10.273   1.244 -1.3986 -3.9321  0.9279
  522MOL0     H68863   4.135  10.189   1.395  2.4703 -0.1227  0.2688
  522MOL0     H68864   4.031  10.471   1.364 -0.2970 -0.5843 -1.9129
  522MOL0     H68865   3.992  10.341   1.486  1.0049 -1.7172 -1.6918
  522MOL0     H68866   3.810  10.475   1.512  1.3988 -1.6061  0.2337
  522MOL0     H68867   3.573  10.488   1.557 -2.0457 -3.0893  0.7536
  522MOL0     H68868   3.223  10.540   1.725 -2.1414  1.6448 -0.3392
  522MOL0     H68869   2.993  10.517   1.809 -3.1599  3.1093 -3.1954
  522MOL0     H68870   2.774  10.161   1.651  0.6259  1.1384 -2.3601
  522MOL0     H68871   2.682  10.304   1.581 -0.9254 -0.8251  0.6275
  522MOL0     H68872   2.511  10.206   1.730 -1.2310  1.4829  1.8705
  522MOL0     H68873   2.585  10.323   1.834  3.1808 -0.6888  2.7880
  522MOL0     H68874   2.722  10.146   1.934 -0.5222 -0.4682  1.4663
  522MOL0     H68875   2.637  10.026   1.826  0.5935  0.6680 -1.7125
  522MOL0     H68876   2.514  10.234   2.007  0.9794 -0.5785  3.4573
  522MOL0     H68877   2.417  10.099   1.932 -2.2247  0.5663  3.0463
  522MOL0     H68878   2.654  10.059   2.140  0.1463  1.0055 -1.8568
  522MOL0     H68879   2.550   9.937   2.084  0.0156 -0.9626  1.7895
  522MOL0     H68880   2.342  10.071   2.191 -0.1801  1.1768 -1.8069
  522MOL0     H68881   2.462  10.207   2.226  1.3924  0.0868  3.5420
  522MOL0     H68882   2.479   9.938   2.349 -3.8081 -0.1562  1.4165
  522MOL0     H68883   2.589  10.072   2.379  0.9836 -0.8031  0.1521
  522MOL0     H68884   2.365  10.204   2.430  0.8898  0.2975 -1.2715
  522MOL0     H68885   2.448  10.101   2.552  0.7934 -3.4218 -0.1331
  522MOL0     H68886   2.925  10.227   1.491 -0.7968  0.1499 -0.8078
  522MOL0     H68887   3.139  10.253   1.420  0.0077 -0.4942 -0.1496
  522MOL0     H68888   3.492  10.283   1.195 -1.6752 -0.3621  0.7616
  522MOL0     H68889   3.721  10.258   1.146  2.8972 -3.1089  1.3964
  522MOL0     H68890   5.385   9.916   0.556  0.4719 -0.4784 -2.3918
  522MOL0     H68891   5.596   9.943   0.441 -0.1071 -0.5945  2.8764
  522MOL0     H68892   6.063  10.145   0.433  0.0700 -1.9124 -0.3726
  522MOL0     H68893   6.265  10.215   0.312 -0.7754 -0.4612  2.0913
  522MOL0     H68894   6.196  10.458  -0.074 -0.5692  0.3954  1.0070
  522MOL0     H68895   6.258  10.301  -0.133  2.0682 -3.4973  1.1748
  522MOL0     H68896   6.426  10.529  -0.011  4.0617  0.0470 -2.4099
  522MOL0     H68897   6.493  10.374  -0.039 -0.2878 -0.1549  2.2540
  522MOL0     H68898   6.364  10.563  -0.246 -0.6538  0.2158  1.3786
  522MOL0     H68899   6.417  10.403  -0.286 -0.3265  1.1570 -0.9181
  522MOL0     H68900   6.601  10.615  -0.156 -0.0355  1.2668 -0.5573
  522MOL0     H68901   6.631  10.440  -0.202 -0.3429  0.9727  0.6703
  522MOL0     H68902   6.660  10.614  -0.582 -1.3463  3.2009  0.7251
  522MOL0     H68903   6.019  10.324  -0.018  1.5005 -0.9169 -1.3244
  522MOL0     H68904   5.820  10.287   0.110  0.4505  5.0559 -0.1930
  523MOL0     O68905   1.293  10.838   8.007  0.3559 -0.8273 -0.3238
  523MOL0     C68906   1.311  10.804   7.892  0.1565 -0.4057 -0.4752
  523MOL0     O68907   1.217  10.751   7.805  0.9269  0.5952 -0.0245
  523MOL0     C68908   1.090  10.707   7.842  1.1044 -0.6936  0.5745
  523MOL0     C68909   1.023  10.731   7.963  0.2270 -0.4292  0.7118
  523MOL0     C68910   0.895  10.685   7.985  0.1178 -0.1439 -0.2521
  523MOL0     C68911   0.821  10.611   7.883  0.1602 -0.1012  0.1325
  523MOL0     O68912   0.686  10.563   7.882 -0.1576 -0.2415 -0.4417
  523MOL0     C68913   0.616  10.564   8.008  0.3189  0.3898  0.4120
  523MOL0     C68914   0.465  10.537   7.999 -0.5152 -0.0408  0.2119
  523MOL0     C68915   0.424  10.390   7.969 -0.9879 -0.0190  0.2580
  523MOL0     C68916   0.269  10.376   7.964 -0.3651  0.0298 -0.4456
  523MOL0     C68917   0.245  10.234   7.942  0.6576 -0.2042 -0.1077
  523MOL0     C68918   0.093  10.216   7.958 -0.1624  0.3214 -0.3922
  523MOL0     C68919   0.035  10.068   7.939  0.7043  0.1748  0.1232
  523MOL0     C68920   0.062  10.023   7.798  0.0476  0.2460 -0.5092
  523MOL0     N68921  -0.014  10.102   7.692 -0.1252  0.0446 -0.4792
  523MOL0     C68922  -0.137  10.079   7.645 -0.1024 -0.0486 -0.4259
  523MOL0     C68923  -0.165  10.183   7.561 -0.3700 -0.0613  0.4367
  523MOL0     C68924  -0.296  10.201   7.479  0.8681 -0.0195  0.1136
  523MOL0     C68925  -0.425  10.143   7.538 -0.2546  0.2088  0.4670
  523MOL0     C68926  -0.546  10.203   7.463 -0.2324 -0.0624  0.6819
  523MOL0     C68927  -0.683  10.148   7.493 -0.0345  0.3798 -0.1853
  523MOL0     O68928  -0.687  10.005   7.457 -0.2894 -0.3823 -0.6609
  523MOL0     C68929  -0.806   9.941   7.459 -0.6075  1.2303  0.4623
  523MOL0     C68930  -0.920   9.997   7.513 -0.1237 -0.3516 -0.1474
  523MOL0     C68931  -1.041   9.932   7.520 -0.5419  1.1977 -0.5522
  523MOL0     C68932  -1.050   9.791   7.487 -0.4187  0.3574  0.1729
  523MOL0     C68933  -1.174   9.720   7.503  0.0830 -0.6714 -0.3614
  523MOL0     O68934  -1.292   9.796   7.512  0.8066 -0.6709  0.3728
  523MOL0     C68935  -1.411   9.733   7.533  0.3288  0.8438 -0.1638
  523MOL0     C68936  -1.452   9.638   7.444  0.1201 -0.4779  0.3083
  523MOL0     C68937  -1.576   9.579   7.458  0.5168 -0.1732  0.4469
  523MOL0     C68938  -1.660   9.614   7.565 -0.3333 -0.5158 -0.2217
  523MOL0     O68939  -1.789   9.592   7.580  0.1740  0.2933 -0.1033
  523MOL0     C68940  -1.858   9.532   7.472  0.2037 -0.0129  0.0045
  523MOL0     C68941  -2.001   9.501   7.512 -0.3445 -0.6483 -0.2871
  523MOL0     C68942  -2.092   9.472   7.384  0.3652  0.0345  0.0110
  523MOL0     C68943  -2.230   9.465   7.435  0.1281  0.1512 -0.0320
  523MOL0     C68944  -2.334   9.458   7.322 -0.3266 -0.5653  0.7161
  523MOL0     C68945  -2.479   9.433   7.367  0.2223 -0.7935  0.4607
  523MOL0     C68946  -2.585   9.440   7.247  0.1235 -0.7969 -0.9010
  523MOL0     C68947  -2.725   9.375   7.286  0.0118  0.0531 -0.5607
  523MOL0    Cl68948  -2.844   9.357   7.155 -0.0432 -0.1302 -0.2611
  523MOL0     C68949  -1.609   9.700   7.657  0.4844 -0.8673 -0.0265
  523MOL0     C68950  -1.482   9.754   7.654  0.3922  0.2207 -0.5425
  523MOL0     O68951  -1.165   9.602   7.500 -0.6591  0.3396 -0.2442
  523MOL0     C68952  -0.934   9.725   7.438  0.0929  0.2517 -1.1532
  523MOL0     C68953  -0.810   9.798   7.425  0.5524 -0.1371 -0.4674
  523MOL0     N68954  -0.058  10.262   7.560  0.4470 -0.2936 -0.1186
  523MOL0     N68955   0.037  10.221   7.649 -0.0497 -0.3291  0.1083
  523MOL0     C68956   0.884  10.592   7.757 -0.1549  0.9159 -0.6617
  523MOL0     C68957   1.016  10.642   7.740 -0.3927  0.3490  0.2115
  523MOL0     C68958   1.439  10.846   7.830  0.3137 -0.7710  0.3075
  523MOL0     C68959   1.537  10.915   7.904  0.0675 -0.5878 -0.4472
  523MOL0     C68960   1.657  10.952   7.845  0.0896  0.5593  0.1715
  523MOL0     C68961   1.679  10.945   7.702 -0.0108 -1.3115 -0.3085
  523MOL0     O68962   1.795  10.983   7.641 -0.2692 -0.1170  0.0794
  523MOL0     C68963   1.912  11.022   7.717 -0.7175  0.0185  1.1317
  523MOL0     C68964   2.029  11.056   7.623 -0.4256  0.3354 -0.3301
  523MOL0     C68965   2.050  10.955   7.510  0.1952 -0.2722  0.6776
  523MOL0     C68966   2.186  10.984   7.435  0.7069 -0.0558  0.2151
  523MOL0     C68967   2.187  11.106   7.355  0.0263 -0.5278  0.0468
  523MOL0     C68968   2.191  11.207   7.284 -0.6028 -0.3731 -0.6366
  523MOL0     C68969   1.575  10.886   7.627  0.4380 -0.9013  0.1912
  523MOL0     C68970   1.462  10.842   7.693  0.1454  0.1680 -0.8012
  523MOL0     H68971   1.068  10.781   8.048 -1.8527  0.2586  1.4816
  523MOL0     H68972   0.861  10.706   8.086  0.6875 -1.1395  0.1595
  523MOL0     H68973   0.627  10.662   8.055  2.2934  0.2531  0.3051
  523MOL0     H68974   0.659  10.505   8.089  0.4829  1.3284  1.0185
  523MOL0     H68975   0.435  10.590   7.908  1.6156  1.0765  0.1090
  523MOL0     H68976   0.408  10.576   8.085 -2.3908  1.6551 -1.6779
  523MOL0     H68977   0.463  10.322   8.045  1.8497  0.2136 -0.8425
  523MOL0     H68978   0.473  10.350   7.880  0.3081 -3.5655  2.3399
  523MOL0     H68979   0.226  10.423   8.053 -0.7726  1.8106 -1.5317
  523MOL0     H68980   0.230  10.440   7.884 -1.4817  0.6850  0.5826
  523MOL0     H68981   0.288  10.168   8.018  0.3299 -3.1392 -2.3038
  523MOL0     H68982   0.285  10.198   7.847  0.2137 -2.4331  0.4936
  523MOL0     H68983   0.029  10.274   7.891 -0.7081 -1.5632 -1.5710
  523MOL0     H68984   0.075  10.247   8.061  1.5039  0.2598 -0.0509
  523MOL0     H68985   0.082  10.002   8.013 -1.5789 -3.0793 -1.1426
  523MOL0     H68986  -0.072  10.060   7.961  0.7609 -0.3155  0.2360
  523MOL0     H68987   0.035   9.918   7.782  0.2671  0.4569 -2.5739
  523MOL0     H68988   0.169  10.038   7.782  0.2778  1.4199  1.7246
  523MOL0     H68989  -0.195   9.988   7.658  0.6960 -0.7254 -1.4418
  523MOL0     H68990  -0.278  10.135   7.393  0.4913 -2.2126  1.6171
  523MOL0     H68991  -0.302  10.305   7.447  0.0200  0.0438  0.4652
  523MOL0     H68992  -0.433  10.170   7.643  0.7344 -1.1864  0.9337
  523MOL0     H68993  -0.420  10.034   7.525 -1.9153  0.3033 -1.4172
  523MOL0     H68994  -0.542  10.312   7.468 -0.7633  0.1026 -1.4932
  523MOL0     H68995  -0.526  10.187   7.357  0.0522  0.3405  0.6736
  523MOL0     H68996  -0.763  10.207   7.448  0.9651  2.5527  0.7320
  523MOL0     H68997  -0.693  10.157   7.602  3.9474  0.5162  0.3297
  523MOL0     H68998  -0.924  10.100   7.547 -1.2021 -0.8845  1.4538
  523MOL0     H68999  -1.121   9.989   7.567 -0.1506  2.5363 -1.4355
  523MOL0     H69000  -1.388   9.607   7.362  0.6205 -2.1048  1.2725
  523MOL0     H69001  -1.619   9.507   7.390 -0.8747  0.2694  0.8067
  523MOL0     H69002  -1.807   9.444   7.432 -0.8823  0.3137 -2.3003
  523MOL0     H69003  -1.863   9.601   7.387  0.5566 -0.4108 -0.3479
  523MOL0     H69004  -2.034   9.582   7.577  1.8658  0.7036 -0.7431
  523MOL0     H69005  -2.012   9.419   7.584 -1.8176  0.8926  1.3599
  523MOL0     H69006  -2.057   9.374   7.349  0.6329 -0.2923  1.1338
  523MOL0     H69007  -2.068   9.548   7.310  5.2500 -1.4992 -0.3634
  523MOL0     H69008  -2.237   9.380   7.503 -1.8086  0.2930 -0.0073
  523MOL0     H69009  -2.254   9.554   7.495  1.6633 -0.2953  1.3209
  523MOL0     H69010  -2.295   9.377   7.259 -0.1142  0.5081 -0.5746
  523MOL0     H69011  -2.330   9.553   7.269 -2.8516 -1.2333 -0.8177
  523MOL0     H69012  -2.507   9.506   7.443 -2.8763 -0.2541 -1.0485
  523MOL0     H69013  -2.486   9.332   7.409  1.5386 -0.4793  1.4986
  523MOL0     H69014  -2.593   9.547   7.227 -2.1640 -1.4028 -3.8940
  523MOL0     H69015  -2.544   9.383   7.163  1.8444  0.0642 -0.6711
  523MOL0     H69016  -2.770   9.438   7.362 -0.8085 -1.8391  0.5979
  523MOL0     H69017  -2.696   9.278   7.328  3.2383  1.0819 -0.1270
  523MOL0     H69018  -1.665   9.737   7.742  0.5797  3.1012 -1.4913
  523MOL0     H69019  -1.434   9.812   7.733  1.0902 -0.6422 -0.3114
  523MOL0     H69020  -0.931   9.618   7.419 -1.8250  0.3506 -2.2225
  523MOL0     H69021  -0.714   9.754   7.400  0.0906 -2.2391  1.1785
  523MOL0     H69022   0.837  10.535   7.678  0.3405  1.0521 -1.0620
  523MOL0     H69023   1.052  10.632   7.638  0.6702 -0.8822  0.6764
  523MOL0     H69024   1.531  10.928   8.012 -1.8337 -0.8335 -0.4833
  523MOL0     H69025   1.725  10.996   7.917  0.7836 -2.0134  1.1939
  523MOL0     H69026   1.940  10.939   7.783 -0.6560 -1.3124 -0.4943
  523MOL0     H69027   1.893  11.111   7.778  1.6224 -0.5204  2.7971
  523MOL0     H69028   1.993  11.149   7.579 -1.6848 -0.5338 -1.2181
  523MOL0     H69029   2.119  11.070   7.685 -1.3600 -2.1571  1.7944
  523MOL0     H69030   1.967  10.964   7.441  0.7653  0.9063  0.1210
  523MOL0     H69031   2.050  10.854   7.553 -0.2626 -0.8457 -0.6401
  523MOL0     H69032   2.259  10.981   7.517 -0.9048  0.6291  1.7504
  523MOL0     H69033   2.214  10.901   7.370  0.5413  0.3582 -0.3858
  523MOL0     H69034   2.211  11.290   7.220 -1.5771 -0.4040 -1.0003
  523MOL0     H69035   1.588  10.871   7.520  2.9234  0.3483  0.2474
  523MOL0     H69036   1.382  10.788   7.644 -1.6169  1.4523  0.5373
  524MOL0     O69037   4.906   8.141   3.925  0.4283  0.1754 -0.1291
  524MOL0     C69038   4.992   8.182   4.004  0.0971 -0.0422  0.6200
  524MOL0     O69039   4.966   8.281   4.088  0.4005  0.1377 -0.0465
  524MOL0     C69040   4.839   8.326   4.100 -0.0909 -0.4028  0.7655
  524MOL0     C69041   4.775   8.295   4.214 -0.6035 -0.1089  0.4625
  524MOL0     C69042   4.638   8.329   4.243 -0.3587 -0.6890  0.3150
  524MOL0     C69043   4.570   8.402   4.139  0.2694  0.4111 -0.3258
  524MOL0     O69044   4.448   8.461   4.169 -0.5222 -0.0001 -0.0814
  524MOL0     C69045   4.366   8.383   4.260  0.3698 -0.4513 -0.4449
  524MOL0     C69046   4.232   8.446   4.237  1.1116 -0.5627 -0.0325
  524MOL0     C69047   4.117   8.370   4.304  0.1657 -0.4681  0.2535
  524MOL0     C69048   3.975   8.418   4.272  0.3870 -0.4330  0.0671
  524MOL0     C69049   3.942   8.547   4.350  0.7567  0.1189 -0.0605
  524MOL0     C69050   3.813   8.610   4.328  0.0353 -0.5382  1.6705
  524MOL0     C69051   3.696   8.521   4.382 -0.0370  0.2694  0.0356
  524MOL0     C69052   3.561   8.601   4.392  0.5767  0.0047 -0.0771
  524MOL0     N69053   3.452   8.502   4.404  0.1135  0.8287 -0.5537
  524MOL0     C69054   3.387   8.431   4.306  0.4912  0.4454  0.4036
  524MOL0     C69055   3.266   8.404   4.357  0.8421 -0.7932 -0.6352
  524MOL0     C69056   3.154   8.336   4.279 -0.1579 -0.5695 -0.2994
  524MOL0     C69057   3.032   8.425   4.242  0.0910 -1.1927  0.0618
  524MOL0     C69058   2.933   8.437   4.371 -0.0913  0.0898  0.3961
  524MOL0     C69059   2.798   8.491   4.330 -0.2984 -1.3083  0.0410
  524MOL0     O69060   2.740   8.404   4.231 -0.7111 -0.1351  0.2092
  524MOL0     C69061   2.615   8.426   4.175 -0.3419 -1.1168  0.0439
  524MOL0     C69062   2.586   8.366   4.052  1.2761  0.6667 -0.5771
  524MOL0     C69063   2.459   8.387   3.988  0.0108 -0.1411  1.0743
  524MOL0     C69064   2.366   8.469   4.048 -0.6755 -0.3704 -0.1042
  524MOL0     C69065   2.232   8.494   3.988  0.4038  0.2892  0.1309
  524MOL0     O69066   2.177   8.612   4.025 -0.0068 -0.1158  0.4088
  524MOL0     C69067   2.045   8.635   4.001  0.2102  0.1078  0.3975
  524MOL0     C69068   1.958   8.642   4.114 -0.0639  0.7765 -0.2243
  524MOL0     C69069   1.828   8.677   4.089  0.1035  0.3570  0.5757
  524MOL0     C69070   1.772   8.714   3.967 -0.2582 -0.0791  0.0996
  524MOL0     O69071   1.635   8.730   3.947 -0.2767 -0.2559 -0.4882
  524MOL0     C69072   1.529   8.702   4.037  0.0154  0.2149  0.1362
  524MOL0     C69073   1.466   8.567   4.004  0.1604  0.1490  0.8627
  524MOL0     C69074   1.360   8.530   4.099  0.6604  0.5046 -0.4099
  524MOL0     C69075   1.303   8.392   4.078 -1.1546  0.0760  0.1187
  524MOL0     C69076   1.197   8.349   4.183  0.3658  0.0600  0.5508
  524MOL0     C69077   1.071   8.297   4.118  0.3250 -0.4056 -0.6337
  524MOL0     C69078   0.962   8.250   4.219 -0.3843 -0.5496 -0.0673
  524MOL0     C69079   0.832   8.248   4.149 -0.7787  0.0215  0.4116
  524MOL0    Cl69080   0.712   8.187   4.263  0.1591 -0.1669  0.4830
  524MOL0     C69081   1.857   8.704   3.860  0.3369 -0.0815 -1.1259
  524MOL0     C69082   1.996   8.675   3.879  0.8774 -0.4516 -0.7308
  524MOL0     O69083   2.178   8.412   3.909  0.3024 -0.1122  0.1192
  524MOL0     C69084   2.408   8.540   4.161 -0.0062  0.1655  0.0136
  524MOL0     C69085   2.529   8.522   4.227 -0.7620  0.7425 -0.6472
  524MOL0     N69086   3.258   8.455   4.487  0.1128  0.7636 -0.1867
  524MOL0     N69087   3.370   8.521   4.511  0.1987  0.1422  0.0911
  524MOL0     C69088   4.635   8.421   4.025  0.4710 -0.3911  0.3780
  524MOL0     C69089   4.766   8.390   4.002  0.7299 -0.2881  0.5632
  524MOL0     C69090   5.129   8.129   3.996  0.6917 -0.3510 -0.0181
  524MOL0     C69091   5.165   8.012   3.923 -0.5328  0.2383 -0.1006
  524MOL0     C69092   5.295   7.964   3.937 -0.2709 -0.1659  1.0505
  524MOL0     C69093   5.382   8.017   4.031  1.0502  0.1277 -0.9475
  524MOL0     O69094   5.505   7.972   4.059  0.1521 -0.5362  0.1912
  524MOL0     C69095   5.563   7.886   3.954 -0.4789  0.6155 -0.0818
  524MOL0     C69096   5.579   7.960   3.821  0.2559 -0.4340  1.0655
  524MOL0     C69097   5.673   8.083   3.824  0.2916 -0.0021 -0.4275
  524MOL0     C69098   5.824   8.050   3.804 -0.1327  0.2478  0.0164
  524MOL0     C69099   5.910   8.157   3.862  0.4164  0.5441  1.1715
  524MOL0     C69100   5.975   8.247   3.915  0.5028  0.2701 -0.0021
  524MOL0     C69101   5.345   8.125   4.111 -0.3538  0.9262  0.2910
  524MOL0     C69102   5.221   8.187   4.086 -0.0158  0.0711 -0.0867
  524MOL0     H69103   4.835   8.244   4.288  0.8950 -1.1468 -1.4041
  524MOL0     H69104   4.591   8.286   4.331 -4.2901  0.8537 -0.8372
  524MOL0     H69105   4.371   8.389   4.369 -4.1033 -0.4032 -0.0240
  524MOL0     H69106   4.348   8.279   4.231 -2.2774  0.3992 -2.2058
  524MOL0     H69107   4.207   8.437   4.131 -0.2058 -0.8907  0.2895
  524MOL0     H69108   4.231   8.552   4.265  0.6794 -0.4100 -0.5879
  524MOL0     H69109   4.127   8.397   4.410  0.1338  1.5731 -0.2168
  524MOL0     H69110   4.134   8.264   4.283  0.0004  0.2160 -4.3233
  524MOL0     H69111   3.974   8.440   4.164  0.9228 -0.7346 -0.0024
  524MOL0     H69112   3.898   8.342   4.288 -0.6994  0.9809  2.0123
  524MOL0     H69113   4.020   8.614   4.313  1.1437 -1.2831 -1.9032
  524MOL0     H69114   3.963   8.536   4.457  0.1796  3.1361  0.4560
  524MOL0     H69115   3.795   8.627   4.221  0.8113 -2.1131  1.2541
  524MOL0     H69116   3.808   8.706   4.380  0.0692  0.9847 -0.9595
  524MOL0     H69117   3.676   8.434   4.318 -0.2481 -1.3581  2.1978
  524MOL0     H69118   3.720   8.476   4.479  1.2660 -0.0273 -0.4025
  524MOL0     H69119   3.560   8.661   4.301 -1.4597 -0.8910 -0.7020
  524MOL0     H69120   3.565   8.660   4.484 -2.5444 -1.1834  0.9470
  524MOL0     H69121   3.414   8.402   4.205 -1.2606 -1.0490  0.3071
  524MOL0     H69122   3.132   8.240   4.328 -0.4794 -0.6538 -0.6083
  524MOL0     H69123   3.196   8.295   4.187 -1.8974 -0.0517 -1.3675
  524MOL0     H69124   2.986   8.374   4.157 -1.8480  1.7485 -0.7719
  524MOL0     H69125   3.059   8.523   4.203 -3.3055 -0.6747 -1.3100
  524MOL0     H69126   2.906   8.338   4.407  0.9085 -0.8983 -1.4505
  524MOL0     H69127   2.970   8.498   4.454  0.2499  0.3604  0.0455
  524MOL0     H69128   2.819   8.589   4.285  0.8706 -0.8029  1.6134
  524MOL0     H69129   2.737   8.504   4.420 -1.5943 -2.4895 -0.6316
  524MOL0     H69130   2.655   8.285   4.028  1.4292  0.9348 -1.0488
  524MOL0     H69131   2.444   8.353   3.885  4.3029  1.6120 -0.3590
  524MOL0     H69132   1.989   8.608   4.212  0.1658 -2.7297 -1.3695
  524MOL0     H69133   1.767   8.668   4.179  0.2219 -2.3066  0.4681
  524MOL0     H69134   1.454   8.780   4.019 -0.2351 -0.2831 -1.0644
  524MOL0     H69135   1.565   8.719   4.139  2.7712  0.5294 -0.7966
  524MOL0     H69136   1.547   8.494   4.005 -0.3407 -0.4110  1.5555
  524MOL0     H69137   1.429   8.578   3.901  1.6914 -0.2941  0.2276
  524MOL0     H69138   1.283   8.607   4.098 -0.9165 -0.9615  1.1725
  524MOL0     H69139   1.396   8.537   4.202  0.7450  0.8454 -0.4632
  524MOL0     H69140   1.255   8.391   3.979 -0.8282 -4.0470 -0.1684
  524MOL0     H69141   1.392   8.328   4.077 -0.6796  0.7276 -0.6578
  524MOL0     H69142   1.166   8.423   4.258 -1.3314  0.2496 -0.2998
  524MOL0     H69143   1.247   8.270   4.240 -0.8848  1.3267  3.6127
  524MOL0     H69144   1.080   8.222   4.039  0.4407 -0.3323 -0.6913
  524MOL0     H69145   1.028   8.381   4.064 -1.1662  0.5751  1.8854
  524MOL0     H69146   0.998   8.150   4.244  3.5213  0.5368 -0.5140
  524MOL0     H69147   0.955   8.314   4.308  0.8389 -0.8187  0.2486
  524MOL0     H69148   0.843   8.179   4.065  0.5245 -1.7315  1.9521
  524MOL0     H69149   0.794   8.346   4.117 -1.4932 -0.5263 -0.4525
  524MOL0     H69150   1.827   8.721   3.757 -0.8343 -0.2857 -0.8290
  524MOL0     H69151   2.063   8.677   3.794  2.1727  0.3738  0.2529
  524MOL0     H69152   2.340   8.609   4.210  1.0285  0.5824  0.8891
  524MOL0     H69153   2.554   8.567   4.322 -0.5838 -1.0292  0.1841
  524MOL0     H69154   4.558   8.461   3.959  0.5745 -0.2670  0.3317
  524MOL0     H69155   4.792   8.413   3.899  0.5831  2.0091  0.9809
  524MOL0     H69156   5.097   7.960   3.856  2.1508 -0.5914 -2.3287
  524MOL0     H69157   5.332   7.883   3.875 -0.6829 -2.1104  3.2037
  524MOL0     H69158   5.506   7.793   3.943  2.0271 -0.9844 -0.2961
  524MOL0     H69159   5.661   7.852   3.990  0.3549  2.1761 -0.8017
  524MOL0     H69160   5.634   7.886   3.762  1.8036  0.9272  0.7280
  524MOL0     H69161   5.488   7.986   3.766  2.2986  2.2789 -1.3306
  524MOL0     H69162   5.660   8.134   3.920 -0.0523 -1.1727  0.1617
  524MOL0     H69163   5.641   8.156   3.749  2.1482  0.2227 -1.0482
  524MOL0     H69164   5.848   7.957   3.856  2.2819  0.0987 -1.1711
  524MOL0     H69165   5.844   8.042   3.696 -2.2357  1.2231 -0.4792
  524MOL0     H69166   6.022   8.332   3.958  0.7231 -0.3416  1.0161
  524MOL0     H69167   5.410   8.166   4.187 -1.9167  0.8476  1.7463
  524MOL0     H69168   5.195   8.270   4.150  0.6823  0.2204  0.0148
  525MOL0     O69169   4.266   3.611   8.368  0.3872 -0.1156  0.9641
  525MOL0     C69170   4.270   3.576   8.487 -0.0758 -0.4120  0.3046
  525MOL0     O69171   4.165   3.585   8.572  0.4321 -0.1093  0.6984
  525MOL0     C69172   4.037   3.619   8.534 -0.0762  0.2627  0.9924
  525MOL0     C69173   3.957   3.693   8.627 -1.0638  0.0061  0.5248
  525MOL0     C69174   3.831   3.735   8.585  0.0452 -0.1401  0.6694
  525MOL0     C69175   3.785   3.696   8.461  0.3586 -0.3746  0.6082
  525MOL0     O69176   3.664   3.735   8.404  1.0097 -0.3477  0.6042
  525MOL0     C69177   3.560   3.765   8.501 -0.6230  0.5070 -0.2538
  525MOL0     C69178   3.424   3.780   8.425  0.5076 -0.2383  0.0705
  525MOL0     C69179   3.429   3.915   8.353 -0.1437  0.0452  0.1446
  525MOL0     C69180   3.286   3.972   8.338 -0.4400  0.0054  0.6190
  525MOL0     C69181   3.309   4.096   8.245 -0.8780  0.4305 -0.1621
  525MOL0     C69182   3.188   4.179   8.233  0.2844  0.3977 -0.1966
  525MOL0     C69183   3.223   4.290   8.122  0.1261 -0.3344 -0.1314
  525MOL0     C69184   3.143   4.412   8.141  0.6449  0.4956  1.1009
  525MOL0     N69185   3.008   4.386   8.080 -0.3781 -0.4448  0.3154
  525MOL0     C69186   2.968   4.375   7.945 -0.0362 -0.2598  0.5548
  525MOL0     C69187   2.833   4.397   7.945  0.2656  0.1088 -1.0554
  525MOL0     C69188   2.740   4.397   7.827  0.2032 -0.4589  0.0165
  525MOL0     C69189   2.744   4.532   7.750  0.4269  0.3644  1.2326
  525MOL0     C69190   2.664   4.522   7.619 -0.0088 -0.3785 -0.3849
  525MOL0     C69191   2.724   4.412   7.523  0.3474 -0.0374 -0.2341
  525MOL0     O69192   2.680   4.426   7.383  0.5182  0.1533  0.3321
  525MOL0     C69193   2.541   4.390   7.361 -1.0118 -0.7156 -0.3812
  525MOL0     C69194   2.495   4.404   7.233  0.1174  0.3781  0.4572
  525MOL0     C69195   2.359   4.377   7.202 -0.4937 -0.4464  0.8609
  525MOL0     C69196   2.271   4.328   7.306  0.4807 -0.2008 -0.3138
  525MOL0     C69197   2.134   4.281   7.278 -0.3332 -0.1871  0.7889
  525MOL0     O69198   2.048   4.288   7.381 -0.0664 -0.2608  0.5446
  525MOL0     C69199   1.912   4.284   7.359  0.1475  0.3481  0.1307
  525MOL0     C69200   1.851   4.364   7.272 -0.5529 -0.6552 -0.1227
  525MOL0     C69201   1.711   4.359   7.259 -0.8298  1.3360  0.1174
  525MOL0     C69202   1.634   4.273   7.340  0.1906  0.0220  1.2308
  525MOL0     O69203   1.497   4.278   7.303  0.6015 -0.0428  0.8694
  525MOL0     C69204   1.414   4.173   7.362  0.3392 -0.5646  0.4928
  525MOL0     C69205   1.283   4.177   7.277 -0.4431 -0.6624  0.4256
  525MOL0     C69206   1.168   4.105   7.350  0.4321 -0.6427 -0.0822
  525MOL0     C69207   1.055   4.080   7.253  0.6051 -0.1321 -0.1081
  525MOL0     C69208   0.953   3.983   7.304 -0.1253 -0.4481 -1.1501
  525MOL0     C69209   0.820   4.000   7.225  0.5041 -1.0954 -0.1410
  525MOL0     C69210   0.717   3.891   7.265 -0.3461 -0.8216 -1.0456
  525MOL0     C69211   0.596   3.970   7.330 -0.6283  0.4569  0.5789
  525MOL0    Cl69212   0.478   3.863   7.383  0.0849  0.1038  0.1945
  525MOL0     C69213   1.702   4.203   7.441  0.2953 -0.1011  0.7261
  525MOL0     C69214   1.845   4.208   7.449  0.1313  0.3528  0.4057
  525MOL0     O69215   2.110   4.255   7.161 -0.1330 -0.6632  0.3876
  525MOL0     C69216   2.326   4.307   7.434 -0.0755 -0.2100  0.3506
  525MOL0     C69217   2.454   4.350   7.463  0.2276 -0.1071  0.6483
  525MOL0     N69218   2.791   4.410   8.082  0.3878 -0.1493 -0.3512
  525MOL0     N69219   2.893   4.407   8.157  0.1561  0.1979  0.1562
  525MOL0     C69220   3.863   3.619   8.373  0.7189 -0.2871 -1.0628
  525MOL0     C69221   3.987   3.579   8.416  1.0939  0.4337 -0.3049
  525MOL0     C69222   4.402   3.520   8.526  0.2941  0.2036 -0.6903
  525MOL0     C69223   4.519   3.533   8.460 -0.5595 -0.0156 -0.5623
  525MOL0     C69224   4.639   3.462   8.493  0.0221 -0.0743 -0.0326
  525MOL0     C69225   4.649   3.397   8.616  1.0419  0.0682 -0.3162
  525MOL0     O69226   4.754   3.316   8.656 -0.6301 -0.8923 -0.0293
  525MOL0     C69227   4.874   3.298   8.574  0.0805 -0.5385 -0.2994
  525MOL0     C69228   4.965   3.184   8.631  0.4366 -0.3170 -0.1112
  525MOL0     C69229   5.083   3.140   8.537  1.4367 -0.0474 -0.5494
  525MOL0     C69230   5.222   3.116   8.590  0.4707  0.6380  0.7062
  525MOL0     C69231   5.269   3.233   8.666  0.1347 -0.4351 -0.1329
  525MOL0     C69232   5.301   3.327   8.733  0.5743 -0.5334  0.1301
  525MOL0     C69233   4.534   3.397   8.696 -1.0403  0.4806 -0.3585
  525MOL0     C69234   4.414   3.459   8.652 -0.3215  0.0591  0.0909
  525MOL0     H69235   3.989   3.708   8.729  2.9271 -1.0830 -0.3966
  525MOL0     H69236   3.765   3.796   8.646 -0.3841 -0.6799  0.7500
  525MOL0     H69237   3.580   3.852   8.565 -2.3531 -0.4551  1.6968
  525MOL0     H69238   3.549   3.682   8.572  3.3333  1.8295  2.2571
  525MOL0     H69239   3.349   3.780   8.504  0.6961 -0.4865  0.2519
  525MOL0     H69240   3.412   3.695   8.357  0.2418 -1.0178  1.0656
  525MOL0     H69241   3.483   3.915   8.258  0.6018 -0.5003  0.5606
  525MOL0     H69242   3.482   3.992   8.410 -1.7779  1.9866 -0.8057
  525MOL0     H69243   3.224   3.899   8.287 -1.0000 -0.2386  1.6182
  525MOL0     H69244   3.238   4.008   8.430 -0.9679  2.5037 -0.5476
  525MOL0     H69245   3.339   4.059   8.147  1.4766  0.6505  0.4228
  525MOL0     H69246   3.393   4.154   8.284 -0.1324  0.3945 -1.6546
  525MOL0     H69247   3.166   4.215   8.334 -0.9382 -0.6287 -0.0651
  525MOL0     H69248   3.099   4.124   8.199  1.2317 -0.5445 -1.2404
  525MOL0     H69249   3.324   4.330   8.130 -0.1945  0.3193  0.8384
  525MOL0     H69250   3.197   4.248   8.024  0.3828  0.5799 -0.6038
  525MOL0     H69251   3.184   4.499   8.088 -2.7178  1.7223  0.2961
  525MOL0     H69252   3.130   4.434   8.247  0.5133  1.6482  0.8566
  525MOL0     H69253   3.022   4.366   7.851 -2.7089  1.9608 -1.3343
  525MOL0     H69254   2.647   4.393   7.883  2.4957 -0.3683  4.2264
  525MOL0     H69255   2.760   4.313   7.759  0.2056  0.0912 -0.6793
  525MOL0     H69256   2.850   4.553   7.735  0.3816  0.5382  1.1586
  525MOL0     H69257   2.690   4.601   7.815 -0.9175 -0.1563  0.7109
  525MOL0     H69258   2.556   4.512   7.634  0.2304 -1.4965  0.8633
  525MOL0     H69259   2.675   4.619   7.570  0.2902 -0.5323 -0.6253
  525MOL0     H69260   2.708   4.307   7.548 -0.1199  0.1781  0.4137
  525MOL0     H69261   2.833   4.424   7.530  0.2955  1.6659 -1.6127
  525MOL0     H69262   2.563   4.452   7.163  0.5368  0.5391  0.9679
  525MOL0     H69263   2.323   4.394   7.101 -3.0172 -1.7640  1.4762
  525MOL0     H69264   1.917   4.428   7.215  2.3955  0.8304  4.4164
  525MOL0     H69265   1.661   4.413   7.180 -1.3182  0.0465 -0.4832
  525MOL0     H69266   1.389   4.210   7.461 -2.0685 -2.1907  0.5568
  525MOL0     H69267   1.456   4.072   7.369  1.3136 -0.2214 -0.1417
  525MOL0     H69268   1.312   4.131   7.182  0.0732  0.2918  0.1044
  525MOL0     H69269   1.244   4.274   7.245 -2.3144 -2.2183 -2.4354
  525MOL0     H69270   1.134   4.167   7.434 -1.7982  2.3189 -2.8761
  525MOL0     H69271   1.207   4.011   7.388  3.3404  0.6997  0.5193
  525MOL0     H69272   1.010   4.177   7.227 -1.9682 -1.1777  0.1299
  525MOL0     H69273   1.089   4.042   7.156 -1.8113 -2.1322 -0.2486
  525MOL0     H69274   0.932   4.007   7.409 -0.6268 -0.9373 -1.1347
  525MOL0     H69275   0.982   3.878   7.295 -0.7284 -0.7610  0.1771
  525MOL0     H69276   0.853   3.988   7.122 -1.6555  4.0035 -1.7194
  525MOL0     H69277   0.770   4.097   7.218 -0.3148 -1.5258 -0.3639
  525MOL0     H69278   0.690   3.835   7.176  0.4554 -1.2708 -1.0188
  525MOL0     H69279   0.752   3.815   7.336 -1.7880 -0.6607 -0.1229
  525MOL0     H69280   0.553   4.049   7.268  2.1012  1.0751 -0.6613
  525MOL0     H69281   0.640   4.019   7.418 -0.4331 -2.0351  1.9735
  525MOL0     H69282   1.648   4.143   7.513 -1.2660  0.1175 -0.2191
  525MOL0     H69283   1.884   4.152   7.533 -1.8865  0.0887  1.2219
  525MOL0     H69284   2.279   4.263   7.521  0.0137 -0.1768  0.4152
  525MOL0     H69285   2.489   4.327   7.563  1.3097 -2.9904 -0.3065
  525MOL0     H69286   3.820   3.598   8.275  2.7324 -1.3486 -1.7653
  525MOL0     H69287   4.036   3.509   8.349  2.5051  0.4760  0.6414
  525MOL0     H69288   4.529   3.590   8.369 -0.7467 -2.3343 -2.1293
  525MOL0     H69289   4.735   3.461   8.443  0.9198  0.5289  1.5939
  525MOL0     H69290   4.929   3.392   8.562 -0.1834  0.0203  2.2163
  525MOL0     H69291   4.841   3.269   8.474  0.7163 -2.0311 -0.1031
  525MOL0     H69292   5.003   3.210   8.730 -1.8278 -0.9631  1.0123
  525MOL0     H69293   4.910   3.090   8.645  1.9090 -0.9049  2.3751
  525MOL0     H69294   5.088   3.218   8.461  1.2518  0.5034 -0.0018
  525MOL0     H69295   5.051   3.045   8.493  0.4380 -0.4151  0.8745
  525MOL0     H69296   5.215   3.037   8.666 -0.1494 -0.4169 -0.3970
  525MOL0     H69297   5.288   3.085   8.509  1.6724  2.4450  0.9650
  525MOL0     H69298   5.336   3.412   8.788  1.1675  0.0646 -1.1299
  525MOL0     H69299   4.552   3.346   8.790  1.2310 -1.8833 -1.9597
  525MOL0     H69300   4.325   3.450   8.713 -1.1573 -1.7618 -1.2918
  526MOL0     O69301   2.988   3.452   1.969  0.5152 -0.5417 -0.3510
  526MOL0     C69302   3.016   3.409   2.079 -0.3223 -1.5978  0.3194
  526MOL0     O69303   2.924   3.403   2.184 -0.5532  0.6156  0.5051
  526MOL0     C69304   2.796   3.458   2.188 -0.5724 -0.2177  0.2060
  526MOL0     C69305   2.703   3.482   2.074  0.2644 -0.3284 -0.3002
  526MOL0     C69306   2.572   3.510   2.093  0.4543  0.1018  0.2194
  526MOL0     C69307   2.515   3.510   2.220  0.3114  0.4581 -0.3220
  526MOL0     O69308   2.380   3.538   2.242 -0.4667  0.2279 -0.4554
  526MOL0     C69309   2.288   3.569   2.134 -0.0045  1.3725 -0.4231
  526MOL0     C69310   2.158   3.577   2.198  0.0451 -0.3890 -1.2470
  526MOL0     C69311   2.054   3.640   2.100 -0.1445  0.3672 -0.5966
  526MOL0     C69312   1.933   3.680   2.187 -0.5376 -0.3658  0.3110
  526MOL0     C69313   1.810   3.720   2.100 -0.0016 -0.0523 -0.3417
  526MOL0     C69314   1.690   3.741   2.189  0.4615 -1.2261  0.1846
  526MOL0     C69315   1.564   3.766   2.095 -0.6905 -0.7819 -0.4491
  526MOL0     C69316   1.436   3.800   2.176 -0.0204  0.3769  0.6929
  526MOL0     N69317   1.405   3.685   2.269  0.2676 -0.6999 -0.3587
  526MOL0     C69318   1.292   3.683   2.348 -0.0105 -0.2551  0.1408
  526MOL0     C69319   1.288   3.560   2.398 -0.7348  0.5917 -0.4566
  526MOL0     C69320   1.186   3.525   2.506 -0.1454 -0.0719  1.1642
  526MOL0     C69321   1.045   3.488   2.458 -0.3455  0.2988  0.4996
  526MOL0     C69322   0.978   3.601   2.380  1.5740  0.2469  0.0495
  526MOL0     C69323   0.828   3.587   2.371  0.7308  0.0764 -0.1642
  526MOL0     O69324   0.775   3.455   2.315 -0.0337  0.3436 -0.4749
  526MOL0     C69325   0.652   3.436   2.354  0.9878 -0.1875  0.5848
  526MOL0     C69326   0.542   3.496   2.292  0.0531 -0.3147 -0.2310
  526MOL0     C69327   0.414   3.450   2.315 -0.0863  0.1140 -0.4783
  526MOL0     C69328   0.384   3.351   2.408  0.7399 -0.6683 -0.3115
  526MOL0     C69329   0.244   3.297   2.436 -0.5430 -0.4729  0.0187
  526MOL0     O69330   0.142   3.358   2.373 -0.8090  0.4572 -0.5144
  526MOL0     C69331   0.014   3.325   2.407  0.8238  0.1564 -0.5067
  526MOL0     C69332  -0.060   3.427   2.468 -0.0463 -0.4101  0.9775
  526MOL0     C69333  -0.194   3.416   2.498  0.0959  0.2563  0.3524
  526MOL0     C69334  -0.254   3.291   2.486 -0.4150 -0.8384  0.2854
  526MOL0     O69335  -0.392   3.281   2.520 -0.2196 -0.1895 -0.2353
  526MOL0     C69336  -0.438   3.156   2.570  0.0212  0.0531  0.0712
  526MOL0     C69337  -0.561   3.177   2.641 -0.4598  0.5108  0.5578
  526MOL0     C69338  -0.547   3.259   2.772 -0.1755  0.7798  0.3359
  526MOL0     C69339  -0.495   3.171   2.889  0.0725  0.3397  0.9416
  526MOL0     C69340  -0.538   3.227   3.027  0.3286  0.2562  0.7342
  526MOL0     C69341  -0.455   3.171   3.142 -0.5487 -0.3494  0.9212
  526MOL0     C69342  -0.489   3.255   3.263 -0.0712 -0.5909  0.1582
  526MOL0     C69343  -0.429   3.202   3.390  1.4783  0.7403 -0.1110
  526MOL0    Cl69344  -0.250   3.201   3.381 -0.0879  0.2193  0.5912
  526MOL0     C69345  -0.180   3.179   2.436  0.1906 -0.7968  0.0723
  526MOL0     C69346  -0.049   3.195   2.392 -0.2238  0.3861 -0.5553
  526MOL0     O69347   0.239   3.216   2.526 -0.1795 -0.5507  0.2104
  526MOL0     C69348   0.499   3.307   2.479  0.4096 -0.0407  0.1501
  526MOL0     C69349   0.629   3.353   2.461 -0.1562  0.6494  0.0104
  526MOL0     N69350   1.378   3.479   2.338  0.6325 -0.4911 -0.5545
  526MOL0     N69351   1.449   3.555   2.262 -0.5748 -0.1397 -0.8776
  526MOL0     C69352   2.598   3.487   2.331 -0.6588 -0.9427 -0.3193
  526MOL0     C69353   2.733   3.456   2.316  0.0454 -1.0589 -0.2806
  526MOL0     C69354   3.153   3.361   2.096 -0.3512  0.7305  0.6835
  526MOL0     C69355   3.211   3.336   2.223 -0.2064  0.3787 -0.2242
  526MOL0     C69356   3.339   3.291   2.241 -0.1379  0.3657  0.7150
  526MOL0     C69357   3.422   3.274   2.132  0.7861 -0.0807 -0.1450
  526MOL0     O69358   3.552   3.260   2.165  0.1078  0.4274  0.5027
  526MOL0     C69359   3.655   3.291   2.069 -0.5202  0.7067 -0.1266
  526MOL0     C69360   3.703   3.427   2.119 -1.0273 -0.1402  0.7507
  526MOL0     C69361   3.758   3.522   2.009  0.3313  0.1673  0.3877
  526MOL0     C69362   3.711   3.519   1.859  0.1458 -0.4663  0.2758
  526MOL0     C69363   3.570   3.565   1.868 -0.3407  0.2316 -0.2239
  526MOL0     C69364   3.452   3.602   1.847 -0.3927  0.4106 -0.0247
  526MOL0     C69365   3.369   3.312   2.007 -0.1105 -0.6049  0.0905
  526MOL0     C69366   3.239   3.358   1.985  0.0140  0.4420  0.1192
  526MOL0     H69367   2.734   3.482   1.970  2.1539  0.4530  0.2265
  526MOL0     H69368   2.510   3.513   2.004 -0.2260 -3.1682  0.4478
  526MOL0     H69369   2.280   3.491   2.058 -2.4196 -0.5877  1.6761
  526MOL0     H69370   2.309   3.668   2.093  1.3130  2.3122  2.3020
  526MOL0     H69371   2.161   3.630   2.293  1.6163 -2.7925  0.1515
  526MOL0     H69372   2.114   3.479   2.219 -0.5968  0.6109  3.1279
  526MOL0     H69373   2.029   3.571   2.019  3.5422  0.5825 -2.1061
  526MOL0     H69374   2.099   3.726   2.050 -0.4085  0.2922 -0.9658
  526MOL0     H69375   1.900   3.593   2.245 -1.6451  0.6046  1.1884
  526MOL0     H69376   1.965   3.760   2.255 -0.2610 -1.6788  1.7854
  526MOL0     H69377   1.795   3.633   2.035  1.3417 -1.3684  1.0418
  526MOL0     H69378   1.827   3.802   2.030 -2.9866 -1.3017 -2.7824
  526MOL0     H69379   1.706   3.830   2.250  0.6674  0.3940 -2.0857
  526MOL0     H69380   1.668   3.657   2.256  2.8058 -1.8622  0.2363
  526MOL0     H69381   1.592   3.846   2.026  1.6323 -2.5188 -1.6646
  526MOL0     H69382   1.545   3.679   2.031 -1.1241 -1.1267  0.1388
  526MOL0     H69383   1.357   3.820   2.104  1.7590  0.8317 -1.2222
  526MOL0     H69384   1.456   3.888   2.239 -0.6441  0.3974  0.8641
  526MOL0     H69385   1.223   3.766   2.365 -1.4967 -1.4327  0.0589
  526MOL0     H69386   1.190   3.611   2.574  0.3967  0.2647  0.7175
  526MOL0     H69387   1.234   3.444   2.563  0.7455 -0.2415  0.2111
  526MOL0     H69388   0.982   3.464   2.544 -1.0464 -1.3041 -0.4181
  526MOL0     H69389   1.057   3.400   2.393  1.7852  0.6627  0.2991
  526MOL0     H69390   1.008   3.693   2.432  2.9175  1.7872 -3.1813
  526MOL0     H69391   1.015   3.622   2.279 -1.7054  0.1091 -1.3027
  526MOL0     H69392   0.802   3.671   2.305 -0.2170 -0.3262 -0.3136
  526MOL0     H69393   0.776   3.605   2.465 -2.1517 -0.6009 -1.5399
  526MOL0     H69394   0.561   3.561   2.207  1.9497 -0.4294  0.0757
  526MOL0     H69395   0.338   3.488   2.247  1.7144 -0.3692 -2.8581
  526MOL0     H69396  -0.016   3.523   2.495  0.0933 -0.5754  1.3466
  526MOL0     H69397  -0.259   3.492   2.538 -2.4067 -1.5320 -0.0663
  526MOL0     H69398  -0.373   3.098   2.637 -0.9099 -0.1287  0.8581
  526MOL0     H69399  -0.449   3.093   2.481  0.9689  0.7305 -0.5449
  526MOL0     H69400  -0.611   3.080   2.653 -2.9718  1.6858  0.2698
  526MOL0     H69401  -0.629   3.236   2.579 -1.7994 -0.8761  0.6453
  526MOL0     H69402  -0.647   3.295   2.797 -0.2565 -0.9113  2.7624
  526MOL0     H69403  -0.480   3.345   2.764  1.2581 -0.0626  2.3640
  526MOL0     H69404  -0.546   3.074   2.887 -0.0404  0.3993  0.9139
  526MOL0     H69405  -0.388   3.157   2.874  0.1582  2.7327 -1.4945
  526MOL0     H69406  -0.641   3.193   3.032  0.5943 -0.5643  0.7707
  526MOL0     H69407  -0.533   3.336   3.035  0.3892  0.1242  3.0884
  526MOL0     H69408  -0.350   3.152   3.120 -0.8134 -0.2796 -0.4624
  526MOL0     H69409  -0.497   3.071   3.158  0.2152 -0.5312  1.9115
  526MOL0     H69410  -0.442   3.353   3.253  2.4746 -1.6241  1.3417
  526MOL0     H69411  -0.598   3.259   3.274 -0.2203 -2.4782 -0.2557
  526MOL0     H69412  -0.460   3.098   3.400  1.5955  0.3531 -2.8024
  526MOL0     H69413  -0.464   3.276   3.462  2.0276  0.6262  0.2849
  526MOL0     H69414  -0.226   3.082   2.425  1.6932 -1.6335  0.8127
  526MOL0     H69415   0.011   3.118   2.345  1.6982  0.2954  1.8641
  526MOL0     H69416   0.488   3.235   2.559  1.3921  2.4920  2.7584
  526MOL0     H69417   0.713   3.313   2.516  0.7625 -0.0526 -1.7927
  526MOL0     H69418   2.548   3.477   2.426 -1.6390  0.3021 -0.6709
  526MOL0     H69419   2.790   3.430   2.405 -1.4179  0.7770  1.2787
  526MOL0     H69420   3.144   3.359   2.306  0.7527  1.8300  0.1841
  526MOL0     H69421   3.376   3.269   2.341  1.1260 -0.6624  0.0467
  526MOL0     H69422   3.611   3.288   1.969 -1.1318  0.0181  0.1545
  526MOL0     H69423   3.736   3.218   2.080 -2.8886 -1.9051  1.2339
  526MOL0     H69424   3.609   3.477   2.144 -2.0004 -2.4482  2.0603
  526MOL0     H69425   3.773   3.427   2.203 -0.1766  0.8075  0.0603
  526MOL0     H69426   3.864   3.496   2.002  0.1648 -1.3793  2.6022
  526MOL0     H69427   3.762   3.626   2.045  0.6667  0.7126 -1.1412
  526MOL0     H69428   3.771   3.590   1.802  0.8324 -0.7756  0.6110
  526MOL0     H69429   3.724   3.420   1.817  1.3824 -0.3147  0.2797
  526MOL0     H69430   3.349   3.627   1.832 -0.2581  0.6500 -0.5696
  526MOL0     H69431   3.427   3.307   1.915 -0.1623 -0.1703  0.0280
  526MOL0     H69432   3.214   3.382   1.882 -1.1523 -0.4986  0.1581
  527MOL0     O69433   9.159   1.769  10.395  0.4885 -0.4762  0.7120
  527MOL0     C69434   9.239   1.862  10.393  0.1136 -0.5514  0.1589
  527MOL0     O69435   9.212   1.993  10.429  0.8669 -0.0612 -0.1674
  527MOL0     C69436   9.080   2.030  10.455 -0.1855  0.4362  0.2720
  527MOL0     C69437   8.995   1.960  10.542 -0.2819 -0.6448 -0.4999
  527MOL0     C69438   8.869   2.002  10.559 -0.3226  0.5992  0.3523
  527MOL0     C69439   8.823   2.119  10.489  0.1647 -0.0286 -0.0343
  527MOL0     O69440   8.702   2.176  10.520  0.2692 -0.3724  0.4564
  527MOL0     C69441   8.589   2.097  10.544 -0.0859 -0.6800  0.2388
  527MOL0     C69442   8.456   2.154  10.502 -0.0496 -0.0181  0.3571
  527MOL0     C69443   8.329   2.076  10.528  0.1487  0.0559 -0.1617
  527MOL0     C69444   8.202   2.140  10.462 -0.0880 -0.3320  0.0038
  527MOL0     C69445   8.074   2.112  10.540 -0.4628 -0.8773 -0.2127
  527MOL0     C69446   7.958   2.201  10.503 -0.3687  0.6694  1.3503
  527MOL0     C69447   7.836   2.155  10.589 -0.5490  0.2072 -0.3979
  527MOL0     C69448   7.795   2.007  10.572 -0.8641 -0.0165  0.5515
  527MOL0     N69449   7.658   1.986  10.627 -1.0409  0.3313  0.9636
  527MOL0     C69450   7.576   2.081  10.689 -0.4934  1.0036 -0.1718
  527MOL0     C69451   7.477   2.008  10.754  0.7070 -0.3740  0.7338
  527MOL0     C69452   7.369   2.057  10.838  0.2120  1.0507 -0.6062
  527MOL0     C69453   7.315   2.197  10.803 -0.2505 -0.3281 -0.0054
  527MOL0     C69454   7.203   2.236  10.900  0.2439  0.1032  0.5150
  527MOL0     C69455   7.088   2.127  10.898  0.1047 -0.3631 -0.6572
  527MOL0     O69456   6.963   2.171  10.959  0.0835  0.1620 -0.1371
  527MOL0     C69457   6.876   2.237  10.878  0.4966  0.9625 -0.2581
  527MOL0     C69458   6.762   2.296  10.928  0.3696 -0.1897 -0.9959
  527MOL0     C69459   6.660   2.357  10.846  0.1097 -0.2247 -0.9080
  527MOL0     C69460   6.681   2.381  10.712 -0.2780  1.1877  0.1692
  527MOL0     C69461   6.578   2.450  10.634 -0.8429 -0.7268 -0.3323
  527MOL0     O69462   6.493   2.527  10.704  0.8229 -0.3066  0.2507
  527MOL0     C69463   6.380   2.576  10.645  0.1752  0.0446 -0.0035
  527MOL0     C69464   6.297   2.508  10.558 -0.7058  0.6663  0.5795
  527MOL0     C69465   6.175   2.558  10.502 -0.6489  0.8580  0.4100
  527MOL0     C69466   6.141   2.685  10.529 -0.1866 -0.8620 -0.2321
  527MOL0     O69467   6.029   2.738  10.480 -0.6910 -0.2235  0.0580
  527MOL0     C69468   6.062   2.844  10.382 -0.7611 -0.5528  0.4348
  527MOL0     C69469   6.077   2.785  10.237  0.4238 -0.8094 -0.4314
  527MOL0     C69470   5.970   2.679  10.205 -0.0733 -0.3655  0.3282
  527MOL0     C69471   5.967   2.643  10.052  0.5517  0.6527  0.1599
  527MOL0     C69472   5.828   2.590   9.993 -0.0954  0.6754 -0.2323
  527MOL0     C69473   5.797   2.451  10.046 -1.3656  0.0728  0.2804
  527MOL0     C69474   5.671   2.397   9.976  0.7179 -0.6707 -0.0560
  527MOL0     C69475   5.620   2.260  10.017 -0.6523 -0.5179  0.2465
  527MOL0    Cl69476   5.729   2.133   9.978  0.0273  0.0084 -0.1268
  527MOL0     C69477   6.210   2.756  10.633 -0.3465 -0.0121  0.5958
  527MOL0     C69478   6.332   2.706  10.685 -0.4187 -0.5596  0.6791
  527MOL0     O69479   6.591   2.448  10.512 -0.1358  0.9341  0.4582
  527MOL0     C69480   6.796   2.320  10.655 -0.4327  0.3132  0.2412
  527MOL0     C69481   6.890   2.254  10.743 -0.4142  0.0866 -0.5654
  527MOL0     N69482   7.498   1.878  10.714 -1.2052  0.8623  1.3852
  527MOL0     N69483   7.598   1.863  10.637  0.1530 -0.5225  0.1474
  527MOL0     C69484   8.909   2.193  10.405  0.2223 -0.9032 -0.3539
  527MOL0     C69485   9.035   2.144  10.382  0.2973  0.0815 -0.4734
  527MOL0     C69486   9.376   1.838  10.339  0.1196  0.1517  0.4150
  527MOL0     C69487   9.475   1.935  10.361  1.4739 -0.0764 -0.5627
  527MOL0     C69488   9.611   1.917  10.340 -0.8489 -0.9632  0.1724
  527MOL0     C69489   9.650   1.798  10.282  0.8655 -0.3044  0.2892
  527MOL0     O69490   9.781   1.771  10.275 -0.3684 -0.2474  0.5117
  527MOL0     C69491   9.838   1.690  10.169 -0.3878  0.5891 -0.3441
  527MOL0     C69492   9.886   1.553  10.242  0.9557 -0.1027 -0.7170
  527MOL0     C69493   9.970   1.456  10.164 -0.3229 -0.2994  0.0581
  527MOL0     C69494  10.066   1.382  10.266  0.4511 -0.9248 -0.0400
  527MOL0     C69495  10.144   1.264  10.216 -0.7531  0.2842 -0.0861
  527MOL0     C69496  10.191   1.163  10.180  0.3014 -0.0060 -0.7805
  527MOL0     C69497   9.550   1.703  10.249  0.6664  0.7462  0.1695
  527MOL0     C69498   9.414   1.721  10.280  0.7566  0.0277 -0.3736
  527MOL0     H69499   9.037   1.881  10.603 -2.3672 -3.0269 -1.9320
  527MOL0     H69500   8.798   1.950  10.621 -0.3250  2.5110  2.0837
  527MOL0     H69501   8.589   2.082  10.652  4.7644 -0.2113  0.5106
  527MOL0     H69502   8.595   1.999  10.495 -0.8767 -0.2369 -0.7918
  527MOL0     H69503   8.472   2.180  10.397  0.1811  1.5817  0.7498
  527MOL0     H69504   8.442   2.245  10.562  1.5553  0.5703 -0.0930
  527MOL0     H69505   8.312   2.062  10.636 -2.1089  1.5373 -0.2626
  527MOL0     H69506   8.326   1.974  10.488 -0.9458  0.1267 -0.3080
  527MOL0     H69507   8.213   2.248  10.446 -0.9317 -0.4376 -1.4585
  527MOL0     H69508   8.180   2.116  10.358 -2.0150 -0.5170  0.4193
  527MOL0     H69509   8.092   2.128  10.647  1.0373  1.8178 -0.7801
  527MOL0     H69510   8.049   2.008  10.515  0.1176 -0.7200 -1.5520
  527MOL0     H69511   7.942   2.180  10.397  0.1200  0.5068  1.3070
  527MOL0     H69512   7.972   2.310  10.509 -0.7033  0.7347  0.9602
  527MOL0     H69513   7.856   2.182  10.693  0.0672 -0.2313 -0.3981
  527MOL0     H69514   7.747   2.207  10.551 -1.0350 -1.5217 -1.7751
  527MOL0     H69515   7.875   1.946  10.616  0.3655  0.6047 -0.7489
  527MOL0     H69516   7.801   1.979  10.467  3.5068 -2.8611  1.3111
  527MOL0     H69517   7.598   2.187  10.697  0.8235  0.6712  0.9781
  527MOL0     H69518   7.401   2.046  10.942  2.5823  2.4717 -1.1152
  527MOL0     H69519   7.291   1.981  10.828 -0.1921  1.0885  1.5843
  527MOL0     H69520   7.289   2.204  10.697  1.6400  1.2258 -0.4362
  527MOL0     H69521   7.390   2.277  10.801  0.4932 -1.0087 -1.9837
  527MOL0     H69522   7.247   2.237  11.000 -1.1596  0.3180  1.1607
  527MOL0     H69523   7.159   2.331  10.868 -4.0625 -1.0510  2.2889
  527MOL0     H69524   7.123   2.042  10.957 -0.0416 -0.6206 -0.9395
  527MOL0     H69525   7.073   2.091  10.796  1.5797 -0.0045 -1.0265
  527MOL0     H69526   6.738   2.283  11.033 -0.9297 -1.9032 -1.4559
  527MOL0     H69527   6.577   2.400  10.902  0.8095  3.5095 -2.4221
  527MOL0     H69528   6.332   2.412  10.522 -1.6333  0.1249  1.0842
  527MOL0     H69529   6.118   2.499  10.431  1.6355 -1.1588  0.1443
  527MOL0     H69530   6.150   2.897  10.420 -0.7135 -1.0166  0.9980
  527MOL0     H69531   5.982   2.918  10.377  0.4616  0.7931 -0.1868
  527MOL0     H69532   6.175   2.737  10.223  1.2452  0.9826 -1.1079
  527MOL0     H69533   6.079   2.868  10.165  0.7023 -0.0102  0.4840
  527MOL0     H69534   5.871   2.709  10.238 -0.1957  0.1171 -0.4701
  527MOL0     H69535   5.989   2.590  10.266  0.8739  0.7876  1.7941
  527MOL0     H69536   5.977   2.742  10.005  1.3114  0.4692 -0.0750
  527MOL0     H69537   6.049   2.576  10.026  0.4019  0.6588 -0.3590
  527MOL0     H69538   5.821   2.596   9.884 -0.5101  0.9627 -0.1964
  527MOL0     H69539   5.748   2.658  10.026 -0.2185  0.2885  0.2679
  527MOL0     H69540   5.794   2.454  10.155  0.1606 -2.5272  0.4487
  527MOL0     H69541   5.886   2.398  10.013 -0.4605 -0.0129  2.6837
  527MOL0     H69542   5.583   2.460   9.993 -1.5161 -3.1232 -1.6385
  527MOL0     H69543   5.680   2.398   9.867 -1.1495 -0.9322 -0.2442
  527MOL0     H69544   5.524   2.249   9.965 -0.7419  1.0169  0.0409
  527MOL0     H69545   5.595   2.251  10.123  0.3385  0.9148  0.6405
  527MOL0     H69546   6.182   2.857  10.662  0.4926 -0.0663  1.6982
  527MOL0     H69547   6.392   2.767  10.752  2.0327 -3.1090  0.9678
  527MOL0     H69548   6.807   2.329  10.547  0.5073 -0.4885  0.2614
  527MOL0     H69549   6.983   2.219  10.698 -0.2596 -2.8585  1.7525
  527MOL0     H69550   8.867   2.283  10.363 -0.8720 -0.3618  1.7643
  527MOL0     H69551   9.100   2.199  10.315  0.1470 -0.0057 -0.6905
  527MOL0     H69552   9.431   2.029  10.392  0.1283 -0.2460 -1.8243
  527MOL0     H69553   9.682   1.997  10.355 -0.5316 -1.5268  1.8628
  527MOL0     H69554   9.920   1.752  10.132 -0.2424  0.7206  0.1930
  527MOL0     H69555   9.771   1.673  10.085 -0.5329  3.0390 -0.8139
  527MOL0     H69556   9.946   1.581  10.329 -1.3572 -3.2315  2.1869
  527MOL0     H69557   9.804   1.494  10.284  0.0253  2.1582  0.7655
  527MOL0     H69558  10.035   1.512  10.096  1.7333 -0.8411  1.4973
  527MOL0     H69559   9.901   1.398  10.102  0.7853  1.1986 -2.7467
  527MOL0     H69560  10.131   1.453  10.317 -2.6837  2.5161 -0.4261
  527MOL0     H69561  10.018   1.347  10.358 -2.7146 -0.0354 -1.2402
  527MOL0     H69562  10.229   1.066  10.156 -0.0993 -0.8920  1.8573
  527MOL0     H69563   9.578   1.605  10.209 -1.5466  0.2983 -0.4297
  527MOL0     H69564   9.351   1.637  10.255  0.3215  0.0391  0.6173
  528MOL0     O69565   7.727   6.144   1.171  0.0014  0.3026  0.3030
  528MOL0     C69566   7.777   6.122   1.285 -0.5618 -0.8789 -0.0125
  528MOL0     O69567   7.712   6.127   1.409 -0.2595 -0.6848 -0.1222
  528MOL0     C69568   7.593   6.193   1.424  0.8583  0.3103  0.5509
  528MOL0     C69569   7.567   6.326   1.381 -0.0587 -0.0834  0.7246
  528MOL0     C69570   7.439   6.384   1.392 -0.6690 -0.2669 -0.3862
  528MOL0     C69571   7.334   6.315   1.440  0.4913 -0.2974 -0.4179
  528MOL0     O69572   7.211   6.388   1.434  0.3618  0.1454 -0.0918
  528MOL0     C69573   7.101   6.327   1.507  1.1079 -0.0790  0.6294
  528MOL0     C69574   6.993   6.437   1.495 -0.3336  0.0650  0.2032
  528MOL0     C69575   6.851   6.408   1.547 -0.1157  0.7571  0.1263
  528MOL0     C69576   6.853   6.416   1.699  0.6422 -0.0905 -0.0040
  528MOL0     C69577   6.746   6.325   1.767  0.7420 -0.3584 -0.4585
  528MOL0     C69578   6.607   6.365   1.718 -0.2486  0.0025 -0.3842
  528MOL0     C69579   6.512   6.304   1.813 -0.7442 -0.2612  0.3321
  528MOL0     C69580   6.364   6.354   1.784 -0.7668 -0.4430  0.3807
  528MOL0     N69581   6.260   6.291   1.866 -0.1345  0.0556 -0.1759
  528MOL0     C69582   6.214   6.327   1.991  1.1921  0.0026 -0.2183
  528MOL0     C69583   6.111   6.241   2.023 -0.5759  1.3055 -0.4914
  528MOL0     C69584   6.013   6.236   2.135  0.4042 -0.5635 -0.3888
  528MOL0     C69585   5.929   6.362   2.134  1.1948 -1.6599 -0.3457
  528MOL0     C69586   5.839   6.401   2.017 -0.3015 -0.6752 -0.1360
  528MOL0     C69587   5.765   6.535   2.018 -0.4525 -0.1003  0.0502
  528MOL0     O69588   5.790   6.622   1.898 -0.4265 -0.3465 -0.2088
  528MOL0     C69589   5.916   6.676   1.868 -1.0915 -0.2930 -0.4102
  528MOL0     C69590   6.035   6.653   1.942 -0.4468  0.4116  0.4932
  528MOL0     C69591   6.153   6.697   1.898  0.0353  0.0159  0.4867
  528MOL0     C69592   6.168   6.760   1.773 -0.1888  0.3014 -0.3580
  528MOL0     C69593   6.295   6.807   1.722 -0.2355  0.0903  0.4878
  528MOL0     O69594   6.399   6.727   1.771  0.1381 -0.7862  0.0030
  528MOL0     C69595   6.530   6.749   1.731  0.2411  0.0463  0.0465
  528MOL0     C69596   6.563   6.707   1.610  0.1021 -0.2137 -0.8953
  528MOL0     C69597   6.692   6.727   1.558 -0.2235 -0.6821  0.8256
  528MOL0     C69598   6.797   6.782   1.633  0.2996 -1.0823  0.7741
  528MOL0     O69599   6.926   6.778   1.591  0.1623 -0.2630 -1.0645
  528MOL0     C69600   7.003   6.894   1.626 -0.2990  0.3380  0.0617
  528MOL0     C69601   7.126   6.906   1.530 -0.2723  0.0875 -0.1633
  528MOL0     C69602   7.226   7.004   1.578 -0.3929  0.1381 -0.2131
  528MOL0     C69603   7.308   7.038   1.448 -0.4707  0.7476 -0.0896
  528MOL0     C69604   7.454   7.075   1.478  0.4970 -0.1573 -0.8052
  528MOL0     C69605   7.472   7.201   1.565 -0.9189  0.1904 -0.2244
  528MOL0     C69606   7.627   7.235   1.581  0.5267  0.2795 -0.0668
  528MOL0     C69607   7.636   7.363   1.666  0.3211  0.2908 -0.2204
  528MOL0    Cl69608   7.807   7.407   1.658  0.0408  0.0852 -0.4070
  528MOL0     C69609   6.767   6.824   1.761  0.5843 -0.5792  0.5600
  528MOL0     C69610   6.634   6.807   1.808 -0.1787  0.2021  0.3579
  528MOL0     O69611   6.303   6.887   1.629 -0.4036 -0.0848 -0.4060
  528MOL0     C69612   6.049   6.787   1.703 -0.5128  0.2391  0.8673
  528MOL0     C69613   5.926   6.743   1.747 -0.0966  0.9316  0.0754
  528MOL0     N69614   6.121   6.142   1.929 -0.3516 -0.1595 -0.2129
  528MOL0     N69615   6.207   6.171   1.841 -1.3697  0.0110  0.0578
  528MOL0     C69616   7.358   6.184   1.486 -0.7460  0.0947 -0.3105
  528MOL0     C69617   7.484   6.127   1.481  0.8567  0.7062 -0.6890
  528MOL0     C69618   7.921   6.089   1.295  0.9543  0.1283  0.1802
  528MOL0     C69619   7.989   6.105   1.416 -0.1856 -0.2230  0.5145
  528MOL0     C69620   8.120   6.055   1.423  0.1158 -0.4116  0.0487
  528MOL0     C69621   8.192   6.006   1.312 -0.8285 -0.7727 -0.5113
  528MOL0     O69622   8.320   5.966   1.325 -0.0001 -0.0166  0.0007
  528MOL0     C69623   8.402   5.974   1.213 -1.0280 -0.4554  0.4217
  528MOL0     C69624   8.550   5.993   1.235 -1.0062 -0.7832 -0.4616
  528MOL0     C69625   8.570   6.142   1.262 -0.3928  0.1781  0.1257
  528MOL0     C69626   8.692   6.165   1.347 -0.7314  0.3566  0.6621
  528MOL0     C69627   8.813   6.132   1.269  1.0127 -1.1114 -0.6147
  528MOL0     C69628   8.908   6.108   1.210 -0.2523 -0.1050  0.2289
  528MOL0     C69629   8.132   6.016   1.189 -0.0829  0.4849 -0.9488
  528MOL0     C69630   8.001   6.060   1.179 -0.7613  0.6078 -0.4301
  528MOL0     H69631   7.637   6.388   1.327  1.2233 -3.2230 -1.5291
  528MOL0     H69632   7.429   6.485   1.355 -1.1788 -1.0016 -2.3788
  528MOL0     H69633   7.130   6.306   1.611 -0.1005  1.1018  1.2446
  528MOL0     H69634   7.068   6.232   1.465  0.3967 -0.8729  2.8048
  528MOL0     H69635   6.987   6.465   1.389 -0.5398  1.7171  0.6203
  528MOL0     H69636   7.026   6.515   1.564 -0.8963 -2.0299  2.9843
  528MOL0     H69637   6.824   6.310   1.508  2.6509 -0.0383  0.0115
  528MOL0     H69638   6.784   6.481   1.500 -1.5370  0.8679  2.1824
  528MOL0     H69639   6.953   6.386   1.733  1.1765  0.1866 -1.2912
  528MOL0     H69640   6.833   6.521   1.725  0.7750 -0.0352 -0.1218
  528MOL0     H69641   6.759   6.327   1.875 -0.8522 -1.3570 -0.2120
  528MOL0     H69642   6.757   6.220   1.739  0.8021 -1.0923  2.0879
  528MOL0     H69643   6.586   6.339   1.614 -0.7933  3.0072 -1.1333
  528MOL0     H69644   6.584   6.472   1.720 -1.2237 -0.0717 -3.0949
  528MOL0     H69645   6.509   6.195   1.800  1.5835 -0.1820 -1.4031
  528MOL0     H69646   6.538   6.328   1.916  0.0562  2.1585 -0.3856
  528MOL0     H69647   6.344   6.325   1.680  3.4901  0.6585 -0.9691
  528MOL0     H69648   6.361   6.463   1.790 -3.2535 -0.2740 -2.1430
  528MOL0     H69649   6.254   6.409   2.049  1.4922 -1.2290  1.4074
  528MOL0     H69650   6.063   6.231   2.232  1.9603  2.2470 -0.9308
  528MOL0     H69651   5.961   6.140   2.135  1.2543 -1.0405  0.2209
  528MOL0     H69652   6.000   6.442   2.156 -0.1476 -0.6302  0.3658
  528MOL0     H69653   5.865   6.371   2.222  2.9683 -0.0517  0.8642
  528MOL0     H69654   5.908   6.401   1.932 -0.7688 -2.0650 -0.5382
  528MOL0     H69655   5.756   6.331   2.005  0.3866 -1.4683 -0.2747
  528MOL0     H69656   5.798   6.595   2.104 -1.8057  2.9036 -1.3561
  528MOL0     H69657   5.658   6.517   2.029 -0.6280  0.9882  0.2310
  528MOL0     H69658   6.039   6.597   2.035  0.6832  0.3913  0.4378
  528MOL0     H69659   6.245   6.676   1.952  0.3049 -0.3637 -0.1054
  528MOL0     H69660   6.495   6.647   1.550 -1.7096 -1.5460  2.2369
  528MOL0     H69661   6.709   6.690   1.458 -2.2311 -0.1934  0.2676
  528MOL0     H69662   7.040   6.897   1.729  0.9649 -0.6743 -0.3325
  528MOL0     H69663   6.947   6.988   1.620  0.5217  0.7536 -2.2066
  528MOL0     H69664   7.078   6.943   1.439  0.4272  2.1321  0.2567
  528MOL0     H69665   7.163   6.805   1.508 -0.9513 -0.3936  0.7922
  528MOL0     H69666   7.295   6.970   1.656 -1.6968 -0.1046  0.8795
  528MOL0     H69667   7.181   7.097   1.614  0.3722 -0.3471  2.1944
  528MOL0     H69668   7.304   6.957   1.375 -0.0910  0.5298  0.1254
  528MOL0     H69669   7.274   7.132   1.403  1.2251  1.7523  0.6169
  528MOL0     H69670   7.507   7.097   1.386  1.0482  3.2500  0.2186
  528MOL0     H69671   7.507   6.995   1.531 -1.3818  0.8756  3.0385
  528MOL0     H69672   7.427   7.186   1.663 -1.6488 -0.1117 -0.6007
  528MOL0     H69673   7.420   7.286   1.519 -1.0511 -0.4897 -1.3786
  528MOL0     H69674   7.677   7.162   1.644  0.4084  1.6270  1.6481
  528MOL0     H69675   7.676   7.236   1.483  2.1346 -3.4193  0.5492
  528MOL0     H69676   7.606   7.357   1.771  0.4518  1.5655 -0.0860
  528MOL0     H69677   7.580   7.439   1.610  1.9137  1.0864 -0.7812
  528MOL0     H69678   6.842   6.856   1.833  2.2437 -0.4979 -1.1510
  528MOL0     H69679   6.604   6.825   1.911 -1.9709 -1.3330  0.1713
  528MOL0     H69680   6.066   6.842   1.611 -2.4404 -0.9735 -0.2737
  528MOL0     H69681   5.835   6.757   1.689 -1.2011 -0.3978  1.4084
  528MOL0     H69682   7.284   6.133   1.547 -0.9457  0.0644 -0.5751
  528MOL0     H69683   7.515   6.040   1.539 -0.2197  1.4599  1.1178
  528MOL0     H69684   7.939   6.138   1.506 -1.2509  1.1879 -0.5298
  528MOL0     H69685   8.175   6.065   1.516  1.4528  1.1677 -0.8539
  528MOL0     H69686   8.375   6.058   1.148 -0.1762  1.6605  2.6384
  528MOL0     H69687   8.386   5.874   1.170 -0.9337 -0.4601  0.3985
  528MOL0     H69688   8.591   5.940   1.321  0.7286  0.1848 -0.6403
  528MOL0     H69689   8.604   5.953   1.150 -1.4316  1.5346 -1.9176
  528MOL0     H69690   8.486   6.182   1.319  0.2951  1.3090  0.3723
  528MOL0     H69691   8.576   6.202   1.171  2.4104 -1.2205 -0.7296
  528MOL0     H69692   8.691   6.272   1.369 -1.0640  0.0849  2.1111
  528MOL0     H69693   8.689   6.102   1.437  1.2244 -1.5223 -0.4885
  528MOL0     H69694   9.005   6.096   1.166 -0.1135 -1.4654  0.8655
  528MOL0     H69695   8.181   5.996   1.094 -1.8003  0.7368 -1.9206
  528MOL0     H69696   7.958   6.076   1.081  0.7333  1.4234 -0.9895
  529MOL0     O69697   5.068   7.936   4.895 -0.0267 -0.2777  0.3365
  529MOL0     C69698   5.091   7.831   4.838 -0.1085  0.2733  0.8335
  529MOL0     O69699   5.006   7.739   4.791  0.1408  0.1006  0.2133
  529MOL0     C69700   4.871   7.756   4.789  0.5276  0.0845 -0.0550
  529MOL0     C69701   4.803   7.677   4.694 -0.7191 -0.2907 -0.4057
  529MOL0     C69702   4.666   7.659   4.690 -0.0861 -0.5957 -0.0511
  529MOL0     C69703   4.589   7.739   4.776  0.1476  0.1667 -0.1325
  529MOL0     O69704   4.452   7.719   4.777  0.2581 -0.0833  0.1858
  529MOL0     C69705   4.399   7.785   4.654 -0.4881  0.0514 -0.7847
  529MOL0     C69706   4.244   7.807   4.658 -0.6620  0.3301 -0.1558
  529MOL0     C69707   4.168   7.841   4.527 -0.3796 -0.1912 -0.2497
  529MOL0     C69708   4.018   7.848   4.549 -0.4243 -0.0275  0.2129
  529MOL0     C69709   3.953   7.952   4.459 -0.5561 -0.5240  0.4784
  529MOL0     C69710   3.800   7.946   4.474  0.0931 -0.2424  0.4223
  529MOL0     C69711   3.734   8.019   4.355  0.4713  0.2901 -0.8544
  529MOL0     C69712   3.585   7.991   4.371  0.7824  0.4817  0.1296
  529MOL0     N69713   3.512   8.050   4.251  0.0537 -0.1195 -0.2621
  529MOL0     C69714   3.419   7.978   4.186  0.1475  0.1037 -1.1163
  529MOL0     C69715   3.376   8.059   4.082 -0.3290 -0.0189  0.2532
  529MOL0     C69716   3.261   8.038   3.979 -0.3098  0.7360  0.3989
  529MOL0     C69717   3.307   7.962   3.852  0.0812 -0.8422  0.1816
  529MOL0     C69718   3.178   7.917   3.767 -1.1647  0.4150 -0.0997
  529MOL0     C69719   3.211   7.788   3.682 -0.2967  0.0588 -0.0733
  529MOL0     O69720   3.166   7.661   3.740  0.0524 -0.0877 -0.1305
  529MOL0     C69721   3.037   7.626   3.743  0.9074  0.3404 -0.1083
  529MOL0     C69722   2.923   7.711   3.705 -0.4234  0.5230 -0.5324
  529MOL0     C69723   2.790   7.665   3.710  0.5743  0.9448 -1.0778
  529MOL0     C69724   2.761   7.528   3.741  0.5506  0.4147 -0.2785
  529MOL0     C69725   2.627   7.477   3.757 -0.4720  0.5023 -0.7326
  529MOL0     O69726   2.522   7.562   3.792 -0.3467 -0.1122 -0.8154
  529MOL0     C69727   2.396   7.498   3.782 -1.0574 -0.0764 -0.1494
  529MOL0     C69728   2.322   7.474   3.896 -0.5133 -0.3963  0.5550
  529MOL0     C69729   2.193   7.415   3.894  0.3695 -0.5772  0.1304
  529MOL0     C69730   2.143   7.369   3.776 -0.1271 -1.0259 -0.3458
  529MOL0     O69731   2.016   7.311   3.777  0.3307 -0.7341 -0.2725
  529MOL0     C69732   1.963   7.252   3.655 -0.3164  0.6949 -0.4333
  529MOL0     C69733   1.816   7.206   3.667  0.0431  0.3862  0.3458
  529MOL0     C69734   1.779   7.149   3.532 -0.5561  0.0200 -0.5433
  529MOL0     C69735   1.630   7.121   3.534 -0.3739  0.4716 -0.3324
  529MOL0     C69736   1.597   7.034   3.422 -0.4297  0.1046  0.7146
  529MOL0     C69737   1.441   7.005   3.436  0.2215  0.0304 -0.4594
  529MOL0     C69738   1.378   6.967   3.302 -0.3618  0.0934 -0.4218
  529MOL0     C69739   1.242   6.911   3.310  0.0456 -0.1391 -0.1340
  529MOL0    Cl69740   1.131   7.030   3.392  0.4498  0.3077 -0.0520
  529MOL0     C69741   2.220   7.389   3.657  0.3803  0.3166  0.1820
  529MOL0     C69742   2.345   7.448   3.660 -0.2567 -0.8100  1.0820
  529MOL0     O69743   2.622   7.353   3.731  0.1974  0.1246 -0.0053
  529MOL0     C69744   2.876   7.448   3.776 -0.4372  0.2159  0.7769
  529MOL0     C69745   3.008   7.496   3.779  0.0123  0.8854  0.4003
  529MOL0     N69746   3.458   8.166   4.086 -0.3056 -0.1452 -0.5480
  529MOL0     N69747   3.530   8.167   4.186 -0.0968  0.0961 -0.5354
  529MOL0     C69748   4.656   7.812   4.879 -0.5072 -0.0780  0.5659
  529MOL0     C69749   4.794   7.822   4.883  0.1437  0.3917  0.1993
  529MOL0     C69750   5.235   7.811   4.813 -0.4166  1.2069 -0.8598
  529MOL0     C69751   5.295   7.680   4.804 -0.1658 -0.6411 -0.2387
  529MOL0     C69752   5.428   7.661   4.771 -0.4688  0.0171 -0.5432
  529MOL0     C69753   5.511   7.775   4.758 -0.5851 -0.6827 -0.0334
  529MOL0     O69754   5.644   7.760   4.729  0.8054  0.3895 -0.1042
  529MOL0     C69755   5.743   7.864   4.725 -0.1048 -0.2441  0.0067
  529MOL0     C69756   5.888   7.804   4.732 -0.3709 -0.4223  0.4109
  529MOL0     C69757   5.938   7.734   4.602 -0.2703  0.1674 -0.0364
  529MOL0     C69758   6.090   7.701   4.601  0.3743 -0.3637 -0.1298
  529MOL0     C69759   6.181   7.821   4.600  0.0213 -0.0155 -0.0835
  529MOL0     C69760   6.228   7.933   4.598  0.2119  0.0812  0.3082
  529MOL0     C69761   5.466   7.902   4.775  0.5270  0.2295  1.0881
  529MOL0     C69762   5.330   7.919   4.818 -0.5107  0.2513 -0.2616
  529MOL0     H69763   4.870   7.629   4.624  1.9462  0.2255  1.6192
  529MOL0     H69764   4.628   7.613   4.600  1.1860 -0.2475 -0.7852
  529MOL0     H69765   4.427   7.731   4.563  0.0177  0.1914 -0.7197
  529MOL0     H69766   4.447   7.883   4.646  1.9373 -0.9029  0.7806
  529MOL0     H69767   4.218   7.887   4.728 -0.0622  0.4793 -0.0965
  529MOL0     H69768   4.199   7.715   4.697 -2.9821  0.9767 -1.1518
  529MOL0     H69769   4.195   7.776   4.443 -2.9459 -0.7467 -0.7535
  529MOL0     H69770   4.207   7.938   4.495  2.1893 -0.5070  1.6564
  529MOL0     H69771   3.986   7.745   4.527 -0.7383 -0.1190  1.0689
  529MOL0     H69772   3.988   7.887   4.646  0.5314 -0.7151  0.8007
  529MOL0     H69773   3.991   7.945   4.357  0.2062  2.9931  0.3922
  529MOL0     H69774   3.990   8.051   4.487  1.3736 -1.3272  0.9604
  529MOL0     H69775   3.771   7.976   4.575 -0.8661 -1.5261  0.5502
  529MOL0     H69776   3.762   7.844   4.467  0.0257 -0.2674  1.0886
  529MOL0     H69777   3.761   8.125   4.343  1.3211  0.2134  0.2101
  529MOL0     H69778   3.762   7.969   4.262  0.5086 -0.1276 -0.6225
  529MOL0     H69779   3.558   8.031   4.470  3.0872 -0.1532  1.0857
  529MOL0     H69780   3.563   7.885   4.361 -1.6134  0.9785 -0.6937
  529MOL0     H69781   3.381   7.880   4.212  0.0025  0.8860  2.0109
  529MOL0     H69782   3.214   8.134   3.954 -0.2342  0.7787  0.4167
  529MOL0     H69783   3.185   7.980   4.030  0.6840 -0.4957  0.5237
  529MOL0     H69784   3.350   7.870   3.893 -0.6699 -0.7204  1.2949
  529MOL0     H69785   3.377   8.009   3.783  1.3290 -0.1389  1.8621
  529MOL0     H69786   3.096   7.894   3.835 -0.3262 -0.2419  0.7019
  529MOL0     H69787   3.135   7.993   3.701 -1.5623  1.0044  0.8181
  529MOL0     H69788   3.319   7.775   3.671  0.0027  1.9437  0.3282
  529MOL0     H69789   3.177   7.794   3.578  1.5940 -0.4765 -0.7685
  529MOL0     H69790   2.944   7.812   3.670  0.9560  0.3394 -0.2934
  529MOL0     H69791   2.702   7.725   3.687 -0.7944 -0.9529 -1.0509
  529MOL0     H69792   2.357   7.518   3.989  0.9053 -0.8886  0.2779
  529MOL0     H69793   2.126   7.417   3.979 -0.1523 -0.8392 -0.2656
  529MOL0     H69794   2.021   7.164   3.625  1.5488  1.9274 -0.6244
  529MOL0     H69795   1.968   7.318   3.569  0.0819 -0.2747 -1.1758
  529MOL0     H69796   1.755   7.294   3.690 -1.6811  0.4016 -3.4913
  529MOL0     H69797   1.796   7.134   3.747 -1.2775 -1.1423 -1.2687
  529MOL0     H69798   1.852   7.068   3.517 -2.0973 -1.1774 -2.0067
  529MOL0     H69799   1.784   7.220   3.449 -2.0568  0.0975 -0.5838
  529MOL0     H69800   1.596   7.068   3.623  1.1738  0.6996  0.4299
  529MOL0     H69801   1.576   7.216   3.535  0.9001  1.4664  4.8312
  529MOL0     H69802   1.641   6.935   3.438 -1.1130  0.1102  3.0168
  529MOL0     H69803   1.621   7.093   3.333 -2.6671 -0.2502 -0.1994
  529MOL0     H69804   1.387   7.094   3.470 -0.0723 -0.4583  0.3616
  529MOL0     H69805   1.426   6.932   3.516 -1.6532  2.1147  1.2224
  529MOL0     H69806   1.374   7.059   3.243 -0.9165  0.7531  0.6222
  529MOL0     H69807   1.452   6.899   3.258  2.7756  1.8866  1.6592
  529MOL0     H69808   1.229   6.817   3.365 -1.2307  0.2982  0.3528
  529MOL0     H69809   1.209   6.892   3.208  1.7811 -0.9087 -0.5930
  529MOL0     H69810   2.182   7.352   3.562  1.7375 -0.8164  0.0579
  529MOL0     H69811   2.399   7.449   3.565 -1.0999 -1.9092  0.5625
  529MOL0     H69812   2.864   7.342   3.798  1.9759 -0.2568  0.0940
  529MOL0     H69813   3.090   7.427   3.796 -1.3654 -1.0253 -0.4751
  529MOL0     H69814   4.595   7.874   4.945 -1.7697 -0.3712 -0.2822
  529MOL0     H69815   4.841   7.876   4.965  0.0886 -0.1183  0.5708
  529MOL0     H69816   5.224   7.599   4.823  1.1049 -1.6836  0.2469
  529MOL0     H69817   5.469   7.561   4.760  0.1898  0.0415  1.4143
  529MOL0     H69818   5.729   7.937   4.805  1.5353  0.1643 -0.0376
  529MOL0     H69819   5.720   7.913   4.630 -1.5467 -0.3678  0.2749
  529MOL0     H69820   5.954   7.888   4.755 -0.1984 -1.2448  3.3129
  529MOL0     H69821   5.897   7.730   4.812  1.2734 -1.9854 -1.1197
  529MOL0     H69822   5.915   7.795   4.514 -0.8925 -1.6365 -1.1970
  529MOL0     H69823   5.888   7.637   4.597 -3.4920  1.4822  2.7275
  529MOL0     H69824   6.116   7.660   4.699  1.8507 -0.2532 -0.4612
  529MOL0     H69825   6.112   7.629   4.522 -0.0839 -0.5835 -0.0595
  529MOL0     H69826   6.264   8.034   4.604 -0.8837  0.4061  4.5868
  529MOL0     H69827   5.522   7.993   4.756  2.7726 -1.6406 -2.3651
  529MOL0     H69828   5.293   8.011   4.861  0.2698  0.5568 -0.2271
  530MOL0     O69829   6.657   7.878   3.365 -0.5788 -0.4760 -0.0098
  530MOL0     C69830   6.716   7.894   3.258 -0.9949  0.4128 -0.4972
  530MOL0     O69831   6.659   7.888   3.136 -0.4413 -0.3159  0.2542
  530MOL0     C69832   6.533   7.831   3.107  0.3442  0.2744  0.2072
  530MOL0     C69833   6.440   7.787   3.195  1.3057  0.1259 -0.6806
  530MOL0     C69834   6.325   7.718   3.152  0.4939  0.8845 -0.0250
  530MOL0     C69835   6.299   7.709   3.017 -0.4301  1.0492  0.4862
  530MOL0     O69836   6.181   7.652   2.984  0.3549 -0.3719  0.2654
  530MOL0     C69837   6.135   7.655   2.844  0.1164 -0.4188 -1.1979
  530MOL0     C69838   5.989   7.589   2.839  0.3458  0.5072 -0.2330
  530MOL0     C69839   5.889   7.635   2.941  0.1478 -0.3082 -0.3856
  530MOL0     C69840   5.769   7.540   2.913 -0.0094  0.0214 -0.0067
  530MOL0     C69841   5.671   7.544   3.023  0.0395 -0.0753  0.1421
  530MOL0     C69842   5.536   7.486   2.995  0.2025  0.5605  0.1615
  530MOL0     C69843   5.433   7.507   3.102 -0.7825  0.2967 -0.9748
  530MOL0     C69844   5.460   7.431   3.230  0.0972  0.1971 -0.8165
  530MOL0     N69845   5.341   7.432   3.305  0.8273 -0.1513 -0.5709
  530MOL0     C69846   5.232   7.341   3.297 -0.3545 -0.6643 -0.0132
  530MOL0     C69847   5.133   7.403   3.362 -0.1312 -0.2319 -0.5471
  530MOL0     C69848   4.998   7.341   3.411 -0.0538  0.2597  0.7737
  530MOL0     C69849   5.020   7.220   3.503  0.1603 -0.5532  0.8647
  530MOL0     C69850   5.121   7.240   3.615  0.7887  0.1397  0.0120
  530MOL0     C69851   5.161   7.102   3.671 -0.2503 -0.6876 -0.1297
  530MOL0     O69852   5.234   7.029   3.574  0.3815 -0.0462 -0.1809
  530MOL0     C69853   5.350   7.078   3.527  0.2232  0.1993  0.4316
  530MOL0     C69854   5.398   7.035   3.402  0.0289  0.0136  0.2617
  530MOL0     C69855   5.526   7.064   3.355  0.0698  1.3843 -0.3527
  530MOL0     C69856   5.618   7.127   3.437 -0.2011  0.9901  0.3186
  530MOL0     C69857   5.753   7.155   3.399  0.1552  1.1705 -0.6717
  530MOL0     O69858   5.780   7.165   3.274 -0.2354 -0.2068 -0.2540
  530MOL0     C69859   5.905   7.182   3.228  0.1364  0.8682 -0.1658
  530MOL0     C69860   5.943   7.296   3.166 -0.5193 -0.8541 -0.4177
  530MOL0     C69861   6.071   7.303   3.107  0.4009 -0.9994 -0.9101
  530MOL0     C69862   6.159   7.200   3.111 -0.0487 -0.4347 -0.3698
  530MOL0     O69863   6.288   7.202   3.058  0.0168  0.4654  0.1996
  530MOL0     C69864   6.341   7.339   3.024 -0.3081 -0.5664  0.9029
  530MOL0     C69865   6.483   7.326   2.976  0.4442  0.3817  0.3955
  530MOL0     C69866   6.543   7.458   2.944 -0.5065  0.4628 -0.2947
  530MOL0     C69867   6.685   7.440   2.902 -0.0576 -0.0099  0.1092
  530MOL0     C69868   6.743   7.574   2.848  0.0065 -0.1507  0.3912
  530MOL0     C69869   6.841   7.580   2.730 -0.2459 -0.4676 -0.4430
  530MOL0     C69870   6.901   7.718   2.704  0.4486 -0.2778 -0.6705
  530MOL0     C69871   7.016   7.695   2.600  0.8048 -0.7468  0.2754
  530MOL0    Cl69872   7.163   7.706   2.684 -0.2543 -0.1645  0.3931
  530MOL0     C69873   6.110   7.084   3.165 -1.2047 -0.3538 -0.4252
  530MOL0     C69874   5.984   7.071   3.232 -0.4419 -0.5431 -0.0598
  530MOL0     O69875   5.842   7.159   3.483 -0.8723  0.2910 -0.1221
  530MOL0     C69876   5.571   7.175   3.561 -0.6823 -0.3874  0.1901
  530MOL0     C69877   5.443   7.152   3.600  1.3027  0.3667  0.2544
  530MOL0     N69878   5.168   7.534   3.394 -0.2738 -0.4278 -0.4986
  530MOL0     N69879   5.291   7.545   3.363 -0.8549  1.0880  0.7084
  530MOL0     C69880   6.393   7.753   2.923 -0.5779 -0.3929 -0.9771
  530MOL0     C69881   6.515   7.799   2.979  0.0729  0.4123  0.0604
  530MOL0     C69882   6.862   7.902   3.276 -0.2385 -0.1255 -0.4386
  530MOL0     C69883   6.927   7.908   3.397 -0.3349 -0.2782  0.1444
  530MOL0     C69884   7.065   7.907   3.409 -0.3192  0.8854  0.0473
  530MOL0     C69885   7.142   7.916   3.291  0.0351 -0.9047  0.0979
  530MOL0     O69886   7.276   7.907   3.283  0.6735  0.1533  0.4251
  530MOL0     C69887   7.355   7.876   3.404  0.3675  0.1076 -0.6792
  530MOL0     C69888   7.503   7.870   3.384 -0.2966 -0.8371  0.6078
  530MOL0     C69889   7.572   7.815   3.515  0.4114  0.3225 -1.0099
  530MOL0     C69890   7.724   7.799   3.503  0.1456  0.1783  0.0347
  530MOL0     C69891   7.783   7.924   3.488 -0.2785  0.0885 -0.7262
  530MOL0     C69892   7.828   8.038   3.480 -0.5756  0.3751 -0.8592
  530MOL0     C69893   7.079   7.909   3.170 -0.0550 -0.0883 -0.3505
  530MOL0     C69894   6.942   7.908   3.161  0.3792 -0.0435  0.3919
  530MOL0     H69895   6.450   7.802   3.302 -1.0552  0.0366 -0.3962
  530MOL0     H69896   6.258   7.674   3.226  0.6245 -1.7222 -1.3330
  530MOL0     H69897   6.198   7.591   2.781  0.5735 -2.2566  1.0044
  530MOL0     H69898   6.139   7.759   2.812 -0.3910 -1.0140 -3.3410
  530MOL0     H69899   6.006   7.482   2.856  1.0254  0.5538 -0.5854
  530MOL0     H69900   5.946   7.609   2.741  1.1519  0.6158 -0.5697
  530MOL0     H69901   5.862   7.737   2.914  1.5185  0.0110 -0.6285
  530MOL0     H69902   5.931   7.625   3.042  0.9178  0.0697 -0.6604
  530MOL0     H69903   5.719   7.579   2.824 -0.4493  0.2936  0.3563
  530MOL0     H69904   5.795   7.437   2.884  1.5439  1.0542 -2.6693
  530MOL0     H69905   5.650   7.649   3.047  1.4554  0.3882 -0.5776
  530MOL0     H69906   5.712   7.493   3.111  1.0148 -1.1775 -0.9186
  530MOL0     H69907   5.548   7.378   2.978 -1.5251  0.3075  0.3650
  530MOL0     H69908   5.510   7.525   2.896 -0.0061  1.3819  0.5320
  530MOL0     H69909   5.430   7.613   3.128 -0.6714 -0.1668  1.1390
  530MOL0     H69910   5.330   7.486   3.070 -0.8326 -0.5058 -0.3379
  530MOL0     H69911   5.537   7.493   3.278 -0.3605 -0.7235  1.2035
  530MOL0     H69912   5.497   7.328   3.229 -0.7668 -0.1994  1.4643
  530MOL0     H69913   5.238   7.237   3.266 -3.7781 -0.6235 -1.2346
  530MOL0     H69914   4.953   7.310   3.316 -1.8433  2.6635  0.7438
  530MOL0     H69915   4.934   7.414   3.461 -0.1897  0.9038 -0.3095
  530MOL0     H69916   5.055   7.144   3.433  0.7077  0.3589  0.1311
  530MOL0     H69917   4.926   7.198   3.554 -0.6511  1.7656  0.4942
  530MOL0     H69918   5.214   7.295   3.595 -0.1432  2.5771  1.8163
  530MOL0     H69919   5.074   7.304   3.690  1.1752  1.5543 -0.9181
  530MOL0     H69920   5.072   7.040   3.683 -0.3034 -1.1947 -2.5049
  530MOL0     H69921   5.237   7.114   3.749  1.6112 -1.2919 -1.7515
  530MOL0     H69922   5.336   6.973   3.339  1.4545  1.1906 -2.4578
  530MOL0     H69923   5.561   7.036   3.256  2.3501  2.8139 -0.0198
  530MOL0     H69924   5.879   7.381   3.185 -0.4744 -0.6643 -1.1209
  530MOL0     H69925   6.091   7.399   3.059  0.5009 -0.3053  0.4754
  530MOL0     H69926   6.339   7.414   3.104  0.5478  0.0289  0.3787
  530MOL0     H69927   6.294   7.379   2.934  1.0793  0.3902  0.5729
  530MOL0     H69928   6.481   7.265   2.885 -2.6248 -1.0225  1.2666
  530MOL0     H69929   6.543   7.276   3.053  0.1827  1.2418  1.1777
  530MOL0     H69930   6.531   7.531   3.025  0.0226 -1.3751  1.5160
  530MOL0     H69931   6.487   7.503   2.861  1.3200  2.2850 -0.6147
  530MOL0     H69932   6.754   7.409   2.981  1.1507  0.0184 -0.8966
  530MOL0     H69933   6.707   7.369   2.821  2.2115  1.7443 -0.9370
  530MOL0     H69934   6.790   7.625   2.932 -1.1276  2.2567 -0.3333
  530MOL0     H69935   6.655   7.635   2.822 -1.6882 -2.0576  1.3766
  530MOL0     H69936   6.784   7.554   2.640 -3.1447 -2.1225  1.6761
  530MOL0     H69937   6.916   7.502   2.749 -3.1150 -3.0543  1.3061
  530MOL0     H69938   6.826   7.785   2.662 -0.5304 -1.0948 -0.2661
  530MOL0     H69939   6.937   7.772   2.792 -1.1103  0.2738 -0.3445
  530MOL0     H69940   7.011   7.768   2.519  0.4114  0.5114  1.3959
  530MOL0     H69941   6.995   7.598   2.555  0.1143 -0.3155 -0.3534
  530MOL0     H69942   6.175   6.997   3.173  0.9718  1.3382  1.9095
  530MOL0     H69943   5.945   6.975   3.266 -2.2493  0.0357 -0.3575
  530MOL0     H69944   5.640   7.229   3.625 -0.9439  0.3803 -0.1677
  530MOL0     H69945   5.420   7.192   3.699 -2.8989 -1.6028  0.2797
  530MOL0     H69946   6.372   7.744   2.817  1.6074 -3.2304 -1.2824
  530MOL0     H69947   6.594   7.816   2.907  3.4702 -3.0907  2.5534
  530MOL0     H69948   6.881   7.894   3.495  1.5195 -2.7631  0.7870
  530MOL0     H69949   7.108   7.908   3.508 -0.5629  1.4120  0.1508
  530MOL0     H69950   7.316   7.788   3.457  2.1188 -0.0120  0.4991
  530MOL0     H69951   7.333   7.964   3.465  0.9329 -0.4912  0.4185
  530MOL0     H69952   7.526   7.802   3.302  1.0090 -1.8635  1.7718
  530MOL0     H69953   7.531   7.974   3.362  0.5933 -1.1208  0.3388
  530MOL0     H69954   7.533   7.714   3.533  1.8531 -0.3824 -1.6527
  530MOL0     H69955   7.561   7.884   3.599  2.4204 -2.3729  1.7031
  530MOL0     H69956   7.763   7.742   3.588  1.1177  0.0459 -0.4912
  530MOL0     H69957   7.745   7.745   3.410 -1.3576  0.5806 -0.5707
  530MOL0     H69958   7.887   8.124   3.459  0.7549 -0.3015 -0.0322
  530MOL0     H69959   7.147   7.909   3.085  2.9618 -1.6353  1.9228
  530MOL0     H69960   6.894   7.913   3.063 -0.8816  0.7600  1.0165
  531MOL0     O69961   7.867   5.631   6.253  0.1649  0.1431  0.7519
  531MOL0     C69962   7.849   5.508   6.284 -0.0534  0.6153 -0.6655
  531MOL0     O69963   7.736   5.452   6.327  1.0173  0.1079 -0.5972
  531MOL0     C69964   7.614   5.519   6.319  0.6830  0.6017  0.8083
  531MOL0     C69965   7.557   5.612   6.220  0.1373 -0.2483 -0.2157
  531MOL0     C69966   7.421   5.660   6.241 -0.9364 -1.1153 -0.4854
  531MOL0     C69967   7.348   5.622   6.355  0.5308  0.6885  1.2260
  531MOL0     O69968   7.227   5.687   6.371 -1.0338 -0.4766 -0.2024
  531MOL0     C69969   7.150   5.647   6.490  0.7534  0.0658 -0.6034
  531MOL0     C69970   6.997   5.681   6.475  0.4816  0.2661 -0.1422
  531MOL0     C69971   6.930   5.701   6.615 -0.1850 -0.2497  0.4271
  531MOL0     C69972   6.775   5.697   6.621  0.2010 -0.4741 -0.5726
  531MOL0     C69973   6.731   5.726   6.766 -0.1153 -0.2825  0.9679
  531MOL0     C69974   6.577   5.747   6.746  0.3485  0.2464 -0.0364
  531MOL0     C69975   6.498   5.758   6.883 -0.7041 -0.9487  0.2994
  531MOL0     C69976   6.351   5.792   6.853 -0.1468 -0.2570 -0.2014
  531MOL0     N69977   6.270   5.769   6.974 -0.5633  0.0264  0.3199
  531MOL0     C69978   6.269   5.854   7.083 -0.4972  0.6485 -0.4203
  531MOL0     C69979   6.197   5.791   7.171 -0.1553  0.2208  0.6988
  531MOL0     C69980   6.180   5.838   7.318  0.2634  0.3298  0.1895
  531MOL0     C69981   6.044   5.822   7.380  0.4544  0.3879 -1.0459
  531MOL0     C69982   6.022   5.913   7.501 -0.1968  0.7018  0.0559
  531MOL0     C69983   5.866   5.914   7.531  0.2697 -0.6936 -0.1466
  531MOL0     O69984   5.798   5.978   7.420  0.0453 -0.1413  0.4041
  531MOL0     C69985   5.678   6.042   7.436 -0.3587 -0.6910 -0.1993
  531MOL0     C69986   5.569   5.997   7.514 -0.0616  1.4048  0.0692
  531MOL0     C69987   5.442   6.060   7.505  0.0441 -0.3946 -0.9776
  531MOL0     C69988   5.427   6.181   7.440 -0.7353  0.0538  0.3294
  531MOL0     C69989   5.293   6.248   7.438 -0.1625  1.0442  0.2144
  531MOL0     O69990   5.186   6.202   7.513  0.7592 -0.3493 -0.1171
  531MOL0     C69991   5.076   6.279   7.531  0.5348 -0.7599  0.1199
  531MOL0     C69992   5.028   6.314   7.663  0.0536 -0.1138 -0.3815
  531MOL0     C69993   4.912   6.387   7.669 -0.3959  0.0289  0.2142
  531MOL0     C69994   4.838   6.422   7.554 -0.8323 -0.2984  0.6082
  531MOL0     O69995   4.716   6.478   7.566  0.3688  0.2715 -0.3968
  531MOL0     C69996   4.647   6.507   7.687  0.3289  0.0713 -0.5445
  531MOL0     C69997   4.509   6.569   7.665  0.2955  0.6339  0.1035
  531MOL0     C69998   4.400   6.471   7.608 -0.3767  0.3652 -0.1870
  531MOL0     C69999   4.264   6.539   7.603  0.0863 -0.8228 -0.3710
  531MOL0     C70000   4.171   6.469   7.507  0.2744 -1.0852 -0.2875
  531MOL0     C70001   4.038   6.537   7.487  0.6719  0.2477  0.0719
  531MOL0     C70002   3.949   6.495   7.377  1.1446 -1.0684 -0.1637
  531MOL0     C70003   3.930   6.337   7.377  0.6933 -0.4150  0.4949
  531MOL0    Cl70004   3.805   6.295   7.242 -0.0044 -0.4747  0.2152
  531MOL0     C70005   4.900   6.392   7.425  0.3263  0.1016 -0.0409
  531MOL0     C70006   5.011   6.322   7.418  0.7434  0.1234  0.4523
  531MOL0     O70007   5.301   6.362   7.389  0.0879  0.1673 -0.4978
  531MOL0     C70008   5.544   6.245   7.391 -0.1355  0.3750 -0.3605
  531MOL0     C70009   5.666   6.171   7.383 -0.0638 -0.0631 -0.2904
  531MOL0     N70010   6.141   5.678   7.110  0.3761 -0.3074  0.1390
  531MOL0     N70011   6.179   5.666   6.986 -1.1805 -0.3399 -0.7225
  531MOL0     C70012   7.409   5.532   6.449  0.2042 -0.5375  0.4987
  531MOL0     C70013   7.542   5.493   6.433  0.5792 -0.1082  0.2748
  531MOL0     C70014   7.968   5.423   6.285  0.1151 -0.1946  0.3569
  531MOL0     C70015   7.963   5.288   6.323  0.5025 -0.2209 -0.4232
  531MOL0     C70016   8.079   5.211   6.312  0.4815 -0.9032  0.1261
  531MOL0     C70017   8.205   5.265   6.278  0.9506  0.4293 -0.3928
  531MOL0     O70018   8.304   5.168   6.268  0.6386  0.0964 -0.2438
  531MOL0     C70019   8.431   5.229   6.233 -1.3150  0.5998 -0.1339
  531MOL0     C70020   8.539   5.117   6.249 -0.3674  0.3593 -0.4459
  531MOL0     C70021   8.671   5.184   6.201 -1.0473  0.3667  1.2946
  531MOL0     C70022   8.780   5.090   6.242 -0.2572  0.4201  0.2368
  531MOL0     C70023   8.776   4.962   6.161 -0.7376  0.1954  0.2222
  531MOL0     C70024   8.755   4.851   6.113 -0.4220  0.1816  0.1536
  531MOL0     C70025   8.208   5.403   6.231  0.4036 -0.0426  0.4180
  531MOL0     C70026   8.087   5.481   6.237  0.8167  0.5083  0.7542
  531MOL0     H70027   7.616   5.643   6.134  0.3633 -1.3408 -0.4666
  531MOL0     H70028   7.379   5.737   6.177  0.2602 -0.7967 -0.9090
  531MOL0     H70029   7.177   5.701   6.581 -3.2772  2.3303 -0.5144
  531MOL0     H70030   7.161   5.539   6.502  2.2147 -0.2776 -3.9025
  531MOL0     H70031   6.960   5.592   6.424 -0.3281 -0.7846  2.1678
  531MOL0     H70032   6.964   5.764   6.410 -2.5490 -0.7612 -0.0718
  531MOL0     H70033   6.968   5.788   6.669 -0.1827 -1.0092  1.6895
  531MOL0     H70034   6.974   5.614   6.665 -1.3370  0.5421  2.9551
  531MOL0     H70035   6.739   5.782   6.563 -1.9040 -0.5537  0.5273
  531MOL0     H70036   6.736   5.599   6.590  0.6006 -1.3761  1.6199
  531MOL0     H70037   6.786   5.814   6.800  2.8014 -1.2675 -0.8850
  531MOL0     H70038   6.748   5.642   6.834  0.8015 -1.4018 -0.6009
  531MOL0     H70039   6.534   5.658   6.700 -0.6468 -1.2389  3.4765
  531MOL0     H70040   6.561   5.836   6.685  2.8409  1.0242  0.3317
  531MOL0     H70041   6.501   5.672   6.951 -0.0080 -1.2488 -0.1033
  531MOL0     H70042   6.540   5.842   6.938 -0.9045  1.4334 -2.9224
  531MOL0     H70043   6.319   5.723   6.773 -1.9061 -3.0917  2.7112
  531MOL0     H70044   6.330   5.891   6.811  2.4331 -0.8096 -3.1486
  531MOL0     H70045   6.318   5.947   7.109  0.8232 -0.0726 -0.2705
  531MOL0     H70046   6.202   5.945   7.329 -0.0191  0.3603  0.4650
  531MOL0     H70047   6.256   5.774   7.364  0.4550  0.9587  0.7626
  531MOL0     H70048   6.021   5.718   7.408 -0.7932  0.4605 -1.7333
  531MOL0     H70049   5.964   5.852   7.312 -3.4695 -0.3259  2.8190
  531MOL0     H70050   6.080   5.882   7.589  1.6371 -0.4177 -1.4725
  531MOL0     H70051   6.045   6.019   7.490 -2.1411  1.2780  1.0044
  531MOL0     H70052   5.859   5.964   7.628 -0.1757 -1.4805  0.2381
  531MOL0     H70053   5.828   5.813   7.552  0.6110 -0.7927  0.0038
  531MOL0     H70054   5.571   5.895   7.552 -0.2561  1.7128  0.9159
  531MOL0     H70055   5.362   6.015   7.562  1.7928 -1.4530  0.7905
  531MOL0     H70056   5.084   6.291   7.753  0.7491  2.0633 -0.2118
  531MOL0     H70057   4.872   6.409   7.767 -0.5480 -1.0714  0.4098
  531MOL0     H70058   4.710   6.577   7.743  0.6681 -3.1686  3.5825
  531MOL0     H70059   4.627   6.417   7.746 -1.0849  0.8082  0.1499
  531MOL0     H70060   4.521   6.652   7.594  2.5944 -2.2771 -3.3123
  531MOL0     H70061   4.469   6.599   7.762 -1.9748  0.8094 -0.8195
  531MOL0     H70062   4.383   6.386   7.674 -1.5243  0.4133 -0.4141
  531MOL0     H70063   4.428   6.434   7.509  2.7462 -0.6789  0.9499
  531MOL0     H70064   4.219   6.536   7.702  0.2708 -1.0421 -0.2928
  531MOL0     H70065   4.289   6.637   7.561  1.3088 -1.3459 -0.9065
  531MOL0     H70066   4.145   6.366   7.535 -2.2708 -1.2849 -2.8974
  531MOL0     H70067   4.229   6.465   7.414 -1.2685 -1.0951 -1.2909
  531MOL0     H70068   4.047   6.646   7.478 -1.2507  0.3847 -0.6571
  531MOL0     H70069   3.983   6.525   7.581 -2.7656  3.8077 -1.2036
  531MOL0     H70070   3.850   6.542   7.385  0.7308 -1.9281 -0.1306
  531MOL0     H70071   3.990   6.526   7.281 -0.2853 -2.7243 -1.3713
  531MOL0     H70072   3.886   6.309   7.473  0.2015  2.3288  1.1479
  531MOL0     H70073   4.025   6.287   7.356  1.0228  1.7173 -4.3249
  531MOL0     H70074   4.846   6.419   7.334 -0.0824 -1.8310 -0.4328
  531MOL0     H70075   5.046   6.308   7.317 -1.9576  1.0807 -0.7022
  531MOL0     H70076   5.542   6.347   7.353 -1.2558  0.3821 -0.3120
  531MOL0     H70077   5.756   6.221   7.349 -0.1206 -0.7325 -1.4554
  531MOL0     H70078   7.362   5.485   6.535 -0.3177 -1.5328 -0.3065
  531MOL0     H70079   7.596   5.435   6.507  0.7852 -1.0091 -0.5553
  531MOL0     H70080   7.870   5.249   6.363  0.1482 -1.3438 -2.2117
  531MOL0     H70081   8.063   5.107   6.336 -0.8089 -0.1526  2.9481
  531MOL0     H70082   8.459   5.314   6.297 -1.0923  0.0308  0.5445
  531MOL0     H70083   8.424   5.266   6.131 -1.3315 -0.6508 -0.6058
  531MOL0     H70084   8.543   5.093   6.355  0.9519  0.3899 -0.4786
  531MOL0     H70085   8.510   5.028   6.194  4.0316 -0.5931 -1.6178
  531MOL0     H70086   8.690   5.278   6.253  2.4892 -0.9048  2.5640
  531MOL0     H70087   8.676   5.195   6.093 -1.1940  1.8576  1.4124
  531MOL0     H70088   8.878   5.138   6.236 -0.1419  0.6079  2.6912
  531MOL0     H70089   8.771   5.053   6.345  2.0563 -0.3345  0.2293
  531MOL0     H70090   8.728   4.755   6.075 -2.8338  0.4377  1.0641
  531MOL0     H70091   8.302   5.446   6.199  0.6068  0.2562  1.3911
  531MOL0     H70092   8.097   5.588   6.217 -2.6805  0.3129 -3.4806
  532MOL0     O70093  11.164   9.169   8.411 -0.6828  0.8686 -0.2657
  532MOL0     C70094  11.089   9.195   8.317 -0.0833 -0.0588 -0.2418
  532MOL0     O70095  11.062   9.324   8.282  0.2766  0.4419 -0.9042
  532MOL0     C70096  11.120   9.417   8.359 -0.7439 -0.4161 -1.0995
  532MOL0     C70097  11.253   9.444   8.346 -0.3892 -0.5511 -0.2701
  532MOL0     C70098  11.318   9.545   8.418  0.3834  0.4166 -0.0229
  532MOL0     C70099  11.246   9.625   8.506  0.3321 -0.1628  0.2101
  532MOL0     O70100  11.304   9.727   8.577  0.1572 -0.2069  0.0622
  532MOL0     C70101  11.444   9.751   8.578 -0.2046 -1.4896  0.1997
  532MOL0     C70102  11.467   9.878   8.664 -0.6569 -0.2432 -0.1786
  532MOL0     C70103  11.619   9.892   8.689  0.8848 -0.1430  0.0139
  532MOL0     C70104  11.663  10.027   8.739  0.4866 -0.1057  0.1188
  532MOL0     C70105  11.813  10.027   8.774  0.7743 -0.5302  0.2141
  532MOL0     C70106  11.877  10.158   8.788  0.6371 -0.3990 -0.4234
  532MOL0     C70107  11.797  10.259   8.871  0.5986 -0.1002  0.1173
  532MOL0     C70108  11.861  10.404   8.877  0.1252  0.5885  0.0849
  532MOL0     N70109  11.802  10.486   8.980  0.6049  0.2851 -0.3040
  532MOL0     C70110  11.855  10.523   9.105 -0.7943 -0.2499  0.1290
  532MOL0     C70111  11.754  10.588   9.159 -0.0975  0.4721 -0.4347
  532MOL0     C70112  11.738  10.638   9.297 -0.5936 -0.7565 -0.1239
  532MOL0     C70113  11.641  10.551   9.371  0.4823 -0.1587 -0.2112
  532MOL0     C70114  11.666  10.560   9.521  0.0396 -0.0102  0.5054
  532MOL0     C70115  11.536  10.541   9.599  0.1124  0.5111 -0.6023
  532MOL0     O70116  11.438  10.644   9.564 -0.0971 -0.6995 -0.1144
  532MOL0     C70117  11.318  10.626   9.618  0.2992 -0.1980 -0.8778
  532MOL0     C70118  11.298  10.545   9.735 -0.9452  0.2417  1.0065
  532MOL0     C70119  11.173  10.509   9.780  0.4460 -0.2880  0.4500
  532MOL0     C70120  11.056  10.546   9.710  0.3543  0.2214  0.1503
  532MOL0     C70121  10.927  10.508   9.768 -0.4253  0.0525  0.0358
  532MOL0     O70122  10.834  10.520   9.670 -0.1027 -0.7512 -0.2393
  532MOL0     C70123  10.702  10.487   9.692 -0.3728 -0.1135 -0.5804
  532MOL0     C70124  10.634  10.445   9.578  0.3530  0.2460  0.3825
  532MOL0     C70125  10.497  10.408   9.576 -0.3484  0.7050  1.6030
  532MOL0     C70126  10.428  10.428   9.694  0.2221  0.4967  0.4806
  532MOL0     O70127  10.297  10.404   9.716 -0.0748  0.3335 -0.6685
  532MOL0     C70128  10.218  10.347   9.621  0.7299  1.2255  0.6448
  532MOL0     C70129  10.084  10.309   9.684 -0.4336 -1.2848  0.2806
  532MOL0     C70130   9.966  10.409   9.655 -0.1089 -0.5434  0.3532
  532MOL0     C70131   9.825  10.356   9.702 -0.5102 -0.1532 -0.8015
  532MOL0     C70132   9.711  10.412   9.615 -0.0365 -0.1586  0.8415
  532MOL0     C70133   9.574  10.355   9.654  0.3155  0.2140 -0.4995
  532MOL0     C70134   9.475  10.384   9.545  0.7005  0.0680 -0.1442
  532MOL0     C70135   9.342  10.317   9.590 -0.2330  0.5088 -0.3449
  532MOL0    Cl70136   9.218  10.357   9.468 -0.3397 -1.0526 -0.1846
  532MOL0     C70137  10.487  10.481   9.809  0.0469 -0.9448  0.0615
  532MOL0     C70138  10.624  10.508   9.812 -0.8244 -0.3921  0.1561
  532MOL0     O70139  10.918  10.459   9.878  0.9876  0.6640 -1.1558
  532MOL0     C70140  11.070  10.617   9.593 -0.6063 -0.0751  1.3524
  532MOL0     C70141  11.200  10.665   9.552 -0.6127 -0.7677 -0.6801
  532MOL0     N70142  11.650  10.602   9.070  0.6086 -0.7838 -0.2438
  532MOL0     N70143  11.675  10.538   8.967  0.3352  0.0644 -0.2147
  532MOL0     C70144  11.112   9.595   8.527 -0.1418  0.2251  0.3188
  532MOL0     C70145  11.054   9.496   8.449  0.8585  0.7056 -0.7197
  532MOL0     C70146  11.027   9.083   8.248 -0.2675 -1.3476 -0.0700
  532MOL0     C70147  11.075   8.957   8.258  0.6490  0.4694  0.4671
  532MOL0     C70148  11.009   8.851   8.191  0.1344 -0.0994 -1.3592
  532MOL0     C70149  10.877   8.877   8.127  0.1275 -0.6906 -0.3878
  532MOL0     O70150  10.791   8.789   8.068  0.4257 -0.9183  0.4644
  532MOL0     C70151  10.824   8.647   8.065  0.3120 -0.6797  0.2784
  532MOL0     C70152  10.761   8.563   8.174 -0.4337 -0.3061  0.0026
  532MOL0     C70153  10.849   8.566   8.299  0.3985  0.4922 -0.0346
  532MOL0     C70154  10.776   8.484   8.405  0.0059 -0.5766  0.3517
  532MOL0     C70155  10.638   8.517   8.438 -0.3128 -0.0119  1.0156
  532MOL0     C70156  10.520   8.542   8.479  0.1800  0.7400  1.3765
  532MOL0     C70157  10.841   9.008   8.119  0.5799  0.0327 -0.4700
  532MOL0     C70158  10.910   9.112   8.179  0.3547 -1.1493  0.6713
  532MOL0     H70159  11.316   9.385   8.279 -1.4030  1.1050 -2.8175
  532MOL0     H70160  11.425   9.550   8.402  0.6416 -2.7184  0.0771
  532MOL0     H70161  11.479   9.774   8.477 -1.1285  0.2588  0.2490
  532MOL0     H70162  11.497   9.667   8.626 -1.2325 -2.0515  0.3734
  532MOL0     H70163  11.412   9.864   8.758  0.3965  1.7152  0.7880
  532MOL0     H70164  11.425   9.964   8.612 -0.9685 -1.7145 -2.5075
  532MOL0     H70165  11.672   9.869   8.596 -0.1117  1.8827 -1.1050
  532MOL0     H70166  11.646   9.810   8.756 -0.6114  1.1430  2.3079
  532MOL0     H70167  11.651  10.101   8.659  1.6140 -1.4733 -1.3937
  532MOL0     H70168  11.606  10.069   8.822  1.8122 -1.8192  1.9733
  532MOL0     H70169  11.863   9.974   8.692  0.5664 -1.9248  0.9753
  532MOL0     H70170  11.829   9.984   8.873 -1.0674  2.6437  2.0845
  532MOL0     H70171  11.879  10.198   8.686 -1.9938 -1.9126 -1.1495
  532MOL0     H70172  11.976  10.144   8.833 -0.3128 -0.6514  1.6655
  532MOL0     H70173  11.695  10.268   8.834 -0.0437  0.4240  1.8880
  532MOL0     H70174  11.788  10.214   8.971 -0.0886 -0.1984  0.0189
  532MOL0     H70175  11.857  10.445   8.776 -0.1484 -4.2132 -2.0980
  532MOL0     H70176  11.966  10.384   8.899  0.0222 -0.6493 -0.4938
  532MOL0     H70177  11.952  10.516   9.153 -1.1784  0.4625  1.0283
  532MOL0     H70178  11.699  10.739   9.309  0.2109 -0.6312  1.7339
  532MOL0     H70179  11.838  10.640   9.339 -0.2100 -4.4005 -0.5543
  532MOL0     H70180  11.672  10.448   9.351  1.7854  0.1033  0.3614
  532MOL0     H70181  11.538  10.576   9.344 -0.1775 -0.5432  1.7595
  532MOL0     H70182  11.740  10.482   9.540 -0.0132 -0.2548 -0.2461
  532MOL0     H70183  11.715  10.655   9.546 -0.8126  0.7402 -0.5836
  532MOL0     H70184  11.570  10.556   9.702  2.2337 -2.3941 -0.7268
  532MOL0     H70185  11.509  10.435   9.591 -0.2036  0.3629  1.7630
  532MOL0     H70186  11.382  10.503   9.790  0.5843  0.8424 -0.7945
  532MOL0     H70187  11.163  10.445   9.868  3.9297 -1.7042 -0.0198
  532MOL0     H70188  10.686  10.436   9.484  0.4779 -1.1322  0.5628
  532MOL0     H70189  10.459  10.361   9.485  2.4711 -0.2500  0.7972
  532MOL0     H70190  10.262  10.252   9.587  3.3493  3.0852 -1.6485
  532MOL0     H70191  10.194  10.404   9.531 -0.9540 -4.2538 -2.8702
  532MOL0     H70192  10.084  10.293   9.792 -2.7136  0.9626  0.7057
  532MOL0     H70193  10.051  10.220   9.628 -1.8287  0.1729 -1.3488
  532MOL0     H70194   9.963  10.426   9.547 -2.1745 -1.5525  0.2032
  532MOL0     H70195   9.987  10.500   9.712 -1.1318 -1.3055  2.0241
  532MOL0     H70196   9.813  10.247   9.700 -0.5242 -0.1677 -3.9309
  532MOL0     H70197   9.797  10.391   9.802 -1.7728  3.7161 -2.3515
  532MOL0     H70198   9.735  10.404   9.509 -0.8903  1.3082  0.5078
  532MOL0     H70199   9.710  10.521   9.625  0.7930  0.1238 -1.6105
  532MOL0     H70200   9.545  10.403   9.747  0.3441  1.3470 -1.0549
  532MOL0     H70201   9.574  10.247   9.669 -1.1464 -0.1314 -2.5453
  532MOL0     H70202   9.468  10.491   9.524 -0.1103  0.3443  1.4204
  532MOL0     H70203   9.509  10.344   9.449  0.8878  0.4958 -0.2628
  532MOL0     H70204   9.309  10.342   9.691  1.7776 -0.5259  0.6406
  532MOL0     H70205   9.358  10.209   9.588 -0.7032  0.4170  0.5009
  532MOL0     H70206  10.429  10.489   9.901  0.8968 -2.2789  0.7474
  532MOL0     H70207  10.672  10.545   9.902 -1.1589 -2.2555  1.1508
  532MOL0     H70208  10.984  10.651   9.536 -0.9703 -2.3482  0.4336
  532MOL0     H70209  11.205  10.723   9.460  1.2162  1.5169  0.7418
  532MOL0     H70210  11.059   9.660   8.595  2.8301  2.8012  0.3941
  532MOL0     H70211  10.946   9.486   8.450  0.8379  0.7193 -1.7640
  532MOL0     H70212  11.155   8.939   8.329 -0.1732  3.0925  2.1980
  532MOL0     H70213  11.058   8.755   8.201  1.2639  0.4583 -1.4054
  532MOL0     H70214  10.931   8.627   8.070  0.2097 -0.9535  2.5162
  532MOL0     H70215  10.782   8.607   7.972 -1.2167  0.9938  0.1928
  532MOL0     H70216  10.665   8.609   8.198 -0.5179  0.9432 -2.4695
  532MOL0     H70217  10.737   8.459   8.152 -0.1363 -0.6085  1.0372
  532MOL0     H70218  10.865   8.668   8.333 -0.5408  0.3541  0.8588
  532MOL0     H70219  10.937   8.503   8.281 -0.9548 -1.6549  0.4574
  532MOL0     H70220  10.780   8.378   8.378 -1.1474 -0.3481 -0.8146
  532MOL0     H70221  10.833   8.490   8.499  0.2842 -2.1301  0.3051
  532MOL0     H70222  10.427   8.556   8.530 -1.7065 -0.9058 -1.3498
  532MOL0     H70223  10.772   9.039   8.041  2.9376  2.1871 -1.8645
  532MOL0     H70224  10.876   9.215   8.174  1.2747 -0.8267  0.9554
  533MOL0     O70225   4.022   7.846  11.183 -0.5705  0.1954 -0.3856
  533MOL0     C70226   4.025   7.929  11.091  0.5922 -1.1980 -0.6448
  533MOL0     O70227   3.968   8.051  11.096  0.6049  0.5375 -0.1325
  533MOL0     C70228   3.852   8.079  11.179 -0.3821  0.2704  0.4235
  533MOL0     C70229   3.794   8.207  11.153 -0.7100  0.3181 -0.1955
  533MOL0     C70230   3.690   8.258  11.233  0.0088 -0.8207  0.1133
  533MOL0     C70231   3.627   8.173  11.324  0.3301  0.5104 -0.0516
  533MOL0     O70232   3.534   8.218  11.415 -0.4886 -0.3053 -0.1171
  533MOL0     C70233   3.512   8.358  11.421  0.3691  0.5484 -0.1979
  533MOL0     C70234   3.415   8.384  11.536 -0.4019 -0.2524  0.6004
  533MOL0     C70235   3.276   8.344  11.503 -0.6055 -0.0900 -0.0835
  533MOL0     C70236   3.192   8.353  11.635 -0.6770 -0.4679  0.1397
  533MOL0     C70237   3.050   8.295  11.620  0.1492 -0.0347 -0.9393
  533MOL0     C70238   2.965   8.382  11.522 -0.7430 -0.5393  0.5166
  533MOL0     C70239   2.815   8.338  11.505  0.0129 -0.5555 -0.5437
  533MOL0     C70240   2.766   8.410  11.379 -0.2960  0.6671 -0.0109
  533MOL0     N70241   2.643   8.361  11.326 -0.7464 -0.1979 -0.0121
  533MOL0     C70242   2.594   8.234  11.317  0.8709 -0.2408 -0.2460
  533MOL0     C70243   2.491   8.246  11.236 -0.6560 -0.0990  0.0577
  533MOL0     C70244   2.408   8.128  11.209  0.3067  1.0764  0.4647
  533MOL0     C70245   2.260   8.158  11.183 -0.1119  0.1549 -1.0221
  533MOL0     C70246   2.232   8.217  11.044 -0.5096  0.1105  0.6811
  533MOL0     C70247   2.090   8.281  11.044  0.3002  0.0941 -0.0909
  533MOL0     O70248   2.001   8.175  11.014  0.6673  0.0614  0.1299
  533MOL0     C70249   1.858   8.196  11.019 -0.1363  0.4814 -1.0607
  533MOL0     C70250   1.784   8.086  10.994 -0.8338 -0.0969  1.0076
  533MOL0     C70251   1.644   8.091  10.979  0.7445  0.7410  0.4716
  533MOL0     C70252   1.589   8.222  10.985 -0.1100  0.0944  0.5428
  533MOL0     C70253   1.443   8.242  10.956 -0.0871 -0.3873 -0.0711
  533MOL0     O70254   1.380   8.131  10.903  0.1298 -0.3091 -0.3984
  533MOL0     C70255   1.245   8.134  10.873  0.9107  0.6176 -0.1610
  533MOL0     C70256   1.173   8.235  10.802 -0.2932 -0.2887  0.0924
  533MOL0     C70257   1.037   8.225  10.773  0.2219 -0.5465  0.2110
  533MOL0     C70258   0.957   8.122  10.827 -0.5963 -0.0190 -0.4926
  533MOL0     O70259   0.820   8.107  10.819  0.5160  0.1979  0.3647
  533MOL0     C70260   0.738   8.201  10.753 -0.1545 -0.1755  0.0990
  533MOL0     C70261   0.599   8.145  10.728 -0.6697 -0.9775 -0.3929
  533MOL0     C70262   0.521   8.109  10.853  0.3838 -0.1153  0.6693
  533MOL0     C70263   0.379   8.057  10.815  0.2044 -0.4487 -0.2815
  533MOL0     C70264   0.278   8.171  10.790  0.3270  0.3459 -0.6127
  533MOL0     C70265   0.148   8.109  10.755  0.3490 -0.0427  0.4225
  533MOL0     C70266   0.075   8.047  10.884  0.3097  0.5432  0.1518
  533MOL0     C70267  -0.061   8.010  10.835  0.6180 -0.2144 -0.2955
  533MOL0    Cl70268  -0.165   7.956  10.973  0.0107 -0.0931  0.0750
  533MOL0     C70269   1.028   8.020  10.892  0.1626 -0.1700  0.7369
  533MOL0     C70270   1.174   8.019  10.909 -0.0786 -0.1406 -0.0803
  533MOL0     O70271   1.385   8.350  10.974  0.5481 -0.2166  0.0280
  533MOL0     C70272   1.670   8.335  11.010 -0.5449 -0.5216  1.2774
  533MOL0     C70273   1.797   8.320  11.047  1.1457  0.4655  0.0914
  533MOL0     N70274   2.465   8.378  11.207  0.2321  0.1842 -0.0770
  533MOL0     N70275   2.564   8.446  11.256  1.1537  0.3015  0.2303
  533MOL0     C70276   3.675   8.046  11.338 -0.9964  1.0341 -0.2428
  533MOL0     C70277   3.793   8.002  11.280  0.2786 -0.1491 -0.4456
  533MOL0     C70278   4.100   7.899  10.967  0.2842 -0.2251  0.2918
  533MOL0     C70279   4.196   7.798  10.968 -0.2204  0.1049  0.6674
  533MOL0     C70280   4.278   7.792  10.854 -0.2699 -0.0750  0.0332
  533MOL0     C70281   4.262   7.875  10.742  0.3498 -0.2783  0.3181
  533MOL0     O70282   4.336   7.877  10.625  1.0457  0.0506  0.1570
  533MOL0     C70283   4.471   7.807  10.638  0.8846 -0.2724  0.1485
  533MOL0     C70284   4.547   7.843  10.514  0.1660 -0.4450 -0.9765
  533MOL0     C70285   4.557   7.987  10.495 -0.2102  0.6151  0.0273
  533MOL0     C70286   4.676   8.028  10.412 -1.2235  0.6550  0.4104
  533MOL0     C70287   4.669   7.962  10.282  0.4465  0.8627  0.0729
  533MOL0     C70288   4.670   7.900  10.178 -0.1667  0.7193 -0.8489
  533MOL0     C70289   4.160   7.971  10.740 -0.5706  0.4129 -0.4848
  533MOL0     C70290   4.070   7.974  10.841 -0.4170 -0.3937  0.1049
  533MOL0     H70291   3.838   8.262  11.070  1.8059 -1.6926 -0.3017
  533MOL0     H70292   3.679   8.366  11.223  3.0110 -0.3782  0.4990
  533MOL0     H70293   3.467   8.392  11.327 -1.9950 -1.0466  0.2592
  533MOL0     H70294   3.608   8.408  11.439  2.9971 -3.4802 -1.5561
  533MOL0     H70295   3.414   8.487  11.574 -0.2152 -0.9261  2.5129
  533MOL0     H70296   3.452   8.324  11.620 -0.5870  0.0468  0.8999
  533MOL0     H70297   3.274   8.246  11.455 -2.2425  0.7360 -1.8421
  533MOL0     H70298   3.233   8.414  11.432 -0.7490  0.7402  0.7961
  533MOL0     H70299   3.240   8.306  11.722 -1.6870  2.3474  2.3706
  533MOL0     H70300   3.181   8.458  11.662  0.9815 -0.6508  1.7616
  533MOL0     H70301   3.005   8.290  11.719  3.2574  0.8371  0.6305
  533MOL0     H70302   3.051   8.191  11.586  2.5262 -0.3795  0.0503
  533MOL0     H70303   3.001   8.350  11.423 -2.2277  0.5769 -0.4400
  533MOL0     H70304   2.984   8.489  11.540  5.4440 -1.4154  1.4912
  533MOL0     H70305   2.800   8.230  11.492 -1.4130 -0.4884  0.3232
  533MOL0     H70306   2.751   8.367  11.589 -1.0194 -1.8514 -0.8318
  533MOL0     H70307   2.829   8.381  11.295 -1.3602  1.6538 -1.1874
  533MOL0     H70308   2.777   8.519  11.388 -0.2737  0.6043  0.7923
  533MOL0     H70309   2.627   8.139  11.360 -0.7171 -1.1819 -1.0134
  533MOL0     H70310   2.422   8.051  11.287  1.6391  0.3022 -0.4993
  533MOL0     H70311   2.451   8.069  11.127  0.0990 -0.5326  1.4534
  533MOL0     H70312   2.218   8.218  11.265  3.6827 -0.5193  1.6723
  533MOL0     H70313   2.202   8.065  11.188 -2.0044  1.2876 -1.0984
  533MOL0     H70314   2.312   8.288  11.022 -1.1510  0.2828 -1.3067
  533MOL0     H70315   2.232   8.136  10.970  0.2483  1.8767 -1.3531
  533MOL0     H70316   2.068   8.355  10.967 -0.5454  0.0367  0.0817
  533MOL0     H70317   2.073   8.333  11.139 -0.6787  1.7448 -1.1244
  533MOL0     H70318   1.842   7.994  10.999  3.0503  2.0532 -0.1147
  533MOL0     H70319   1.584   8.003  10.958  0.4260  1.0196  0.1925
  533MOL0     H70320   1.235   8.316  10.766  0.4898 -0.5797  0.7376
  533MOL0     H70321   0.987   8.301  10.713  0.1219 -1.5861 -1.0592
  533MOL0     H70322   0.779   8.238  10.659 -0.4163  0.2522  0.1517
  533MOL0     H70323   0.728   8.295  10.807 -2.3956  0.4601 -1.2682
  533MOL0     H70324   0.619   8.057  10.666 -1.9354 -2.6612  1.4600
  533MOL0     H70325   0.545   8.220  10.670  0.5229  0.6109  0.4573
  533MOL0     H70326   0.515   8.194  10.921 -1.6159 -1.1085  1.8462
  533MOL0     H70327   0.571   8.022  10.897  1.5523  0.4798  0.5411
  533MOL0     H70328   0.394   8.002  10.722  0.7642 -2.1817  0.7935
  533MOL0     H70329   0.347   7.988  10.893 -3.5437  2.5987  1.2110
  533MOL0     H70330   0.309   8.241  10.711 -0.3804 -0.8476 -1.9902
  533MOL0     H70331   0.274   8.236  10.878  1.9059 -1.4761  0.8912
  533MOL0     H70332   0.166   8.030  10.682 -1.2273  1.1839 -1.3965
  533MOL0     H70333   0.081   8.185  10.713 -0.9329 -0.3548  1.8026
  533MOL0     H70334   0.129   7.957  10.914  0.7714  0.5356 -0.6608
  533MOL0     H70335   0.071   8.115  10.969 -2.2394 -0.6704  1.1119
  533MOL0     H70336  -0.053   7.928  10.763 -0.1237 -1.5188  1.0377
  533MOL0     H70337  -0.106   8.095  10.783 -1.7045 -1.9427 -1.3111
  533MOL0     H70338   0.964   7.936  10.916 -1.7340 -0.2440 -3.6264
  533MOL0     H70339   1.225   7.937  10.959  1.0863  0.4440 -0.2799
  533MOL0     H70340   1.620   8.430  11.026 -2.3225 -0.7899 -1.8801
  533MOL0     H70341   1.858   8.403  11.082  0.5449 -0.3603  3.4531
  533MOL0     H70342   3.626   7.985  11.413  2.9331 -3.0170 -0.4719
  533MOL0     H70343   3.827   7.903  11.310 -1.2759 -0.9350 -1.1248
  533MOL0     H70344   4.200   7.722  11.046  1.1497 -1.2267 -0.6364
  533MOL0     H70345   4.352   7.713  10.853 -0.3875 -0.2457  1.8632
  533MOL0     H70346   4.456   7.700  10.652  1.5266 -0.2652  0.9522
  533MOL0     H70347   4.531   7.844  10.721  2.1850  0.1903 -0.9540
  533MOL0     H70348   4.651   7.808  10.517  0.0401 -0.7560  0.6839
  533MOL0     H70349   4.505   7.794  10.425 -4.2511  0.6050  0.2940
  533MOL0     H70350   4.569   8.036  10.592 -3.1197 -0.7647  1.2178
  533MOL0     H70351   4.469   8.043  10.460  1.1308  3.6358  1.1934
  533MOL0     H70352   4.673   8.135  10.389  1.2621  0.5824 -0.5389
  533MOL0     H70353   4.766   8.005  10.468 -0.5040  0.9477 -0.5917
  533MOL0     H70354   4.678   7.845  10.086 -1.1694 -0.5527 -0.2115
  533MOL0     H70355   4.151   8.027  10.648 -1.7161 -0.8505 -1.1857
  533MOL0     H70356   3.983   8.039  10.842 -0.7941 -0.8952  0.6876
  534MOL0     O70357   8.922  10.715  10.776 -0.2520 -0.6904 -0.1614
  534MOL0     C70358   8.928  10.671  10.665 -0.1872  0.0535  0.4969
  534MOL0     O70359   8.819  10.662  10.577 -0.1923  0.2826  0.2588
  534MOL0     C70360   8.696  10.711  10.608 -0.3287  0.0034 -0.0037
  534MOL0     C70361   8.676  10.843  10.647  0.1139  0.3914 -1.0229
  534MOL0     C70362   8.550  10.901  10.657 -0.8324 -0.5517  0.4021
  534MOL0     C70363   8.437  10.817  10.628 -0.1204 -0.4174 -0.1963
  534MOL0     O70364   8.307  10.854  10.634 -0.5658 -0.4975  0.1268
  534MOL0     C70365   8.265  10.940  10.734  0.1173 -0.3848  0.1133
  534MOL0     C70366   8.113  10.940  10.719 -0.3394  0.7034 -0.4749
  534MOL0     C70367   8.047  11.036  10.822  0.0509 -0.3783  0.2950
  534MOL0     C70368   7.897  11.034  10.788 -0.5190 -0.5172  0.2197
  534MOL0     C70369   7.834  11.174  10.807 -0.4016  0.4762 -0.1175
  534MOL0     C70370   7.857  11.244  10.938 -0.7540 -1.0742 -0.6783
  534MOL0     C70371   7.731  11.329  10.971  0.0117  0.4322  0.6193
  534MOL0     C70372   7.638  11.244  11.056 -0.6511  0.3856 -0.1742
  534MOL0     N70373   7.491  11.268  11.048 -0.8680 -0.8299  0.3361
  534MOL0     C70374   7.424  11.370  11.103  0.2814 -0.9529 -0.7234
  534MOL0     C70375   7.319  11.407  11.028  0.2346 -0.1844  0.8623
  534MOL0     C70376   7.243  11.540  11.031 -0.1280  0.2218  0.3593
  534MOL0     C70377   7.105  11.529  10.972  0.4211 -0.4045  0.6333
  534MOL0     C70378   7.064  11.662  10.910  0.0719  0.2493 -0.1253
  534MOL0     C70379   7.089  11.789  10.989  0.2558  0.0287 -0.6956
  534MOL0     O70380   7.029  11.785  11.121  0.6107  0.0423 -0.2792
  534MOL0     C70381   6.895  11.826  11.140 -0.5078  0.2108 -0.5810
  534MOL0     C70382   6.851  11.952  11.109 -0.1318  0.4306 -0.2092
  534MOL0     C70383   6.726  11.996  11.158 -0.5401  0.3231  0.5784
  534MOL0     C70384   6.640  11.900  11.220  0.4738  0.5260  0.2052
  534MOL0     C70385   6.503  11.946  11.258 -1.4542 -0.7462  0.3135
  534MOL0     O70386   6.474  12.072  11.228 -0.5566 -1.6614 -0.0071
  534MOL0     C70387   6.348  12.113  11.234  0.2124 -0.0400  0.4293
  534MOL0     C70388   6.249  12.066  11.143 -0.2143  0.1334  0.8741
  534MOL0     C70389   6.115  12.112  11.155 -1.6190 -0.2381  0.1609
  534MOL0     C70390   6.080  12.205  11.260  0.0284  0.2539  0.0472
  534MOL0     O70391   5.960  12.269  11.272 -0.4015 -0.0569  0.0374
  534MOL0     C70392   5.903  12.312  11.147  0.9942  0.9562  0.6857
  534MOL0     C70393   5.787  12.411  11.187  0.0969 -0.8780  0.5878
  534MOL0     C70394   5.691  12.451  11.071  0.5332  0.6966 -0.6564
  534MOL0     C70395   5.568  12.532  11.112  0.3614 -0.0679 -0.0604
  534MOL0     C70396   5.483  12.568  10.986  0.4163  0.5034  0.2728
  534MOL0     C70397   5.375  12.667  11.017  0.0371 -0.5653 -0.8336
  534MOL0     C70398   5.300  12.712  10.890  0.0116  0.0215  0.5160
  534MOL0     C70399   5.358  12.841  10.833 -0.2800 -0.1965  0.6447
  534MOL0    Cl70400   5.231  12.914  10.730  0.1288 -0.1705 -0.1635
  534MOL0     C70401   6.172  12.247  11.342 -0.8009  0.4708  0.1994
  534MOL0     C70402   6.306  12.208  11.326 -0.1280 -0.3389 -0.5973
  534MOL0     O70403   6.431  11.864  11.306  1.0285 -0.1605 -0.5141
  534MOL0     C70404   6.686  11.771  11.239  0.9357 -0.8409 -0.5005
  534MOL0     C70405   6.809  11.739  11.205  0.1021  0.2735 -0.2594
  534MOL0     N70406   7.327  11.319  10.918  0.3271  0.1391  0.9619
  534MOL0     N70407   7.425  11.239  10.932  0.0060  1.1214  0.1016
  534MOL0     C70408   8.455  10.685  10.583 -0.1368  0.3517  0.6065
  534MOL0     C70409   8.589  10.635  10.571  1.2590 -0.5982  0.1063
  534MOL0     C70410   9.057  10.615  10.630  0.3233  0.1174  0.3582
  534MOL0     C70411   9.155  10.597  10.726  0.1342  0.8232 -0.4782
  534MOL0     C70412   9.280  10.542  10.689 -0.5797 -0.3259  0.4579
  534MOL0     C70413   9.309  10.523  10.553  0.0268 -1.3118 -0.0863
  534MOL0     O70414   9.432  10.489  10.504 -0.1883  0.5786  0.3773
  534MOL0     C70415   9.550  10.502  10.582 -0.0256 -0.0891  0.1745
  534MOL0     C70416   9.669  10.432  10.516 -0.4270  0.8799  0.1015
  534MOL0     C70417   9.777  10.405  10.618 -1.1910  0.0262 -0.5055
  534MOL0     C70418   9.869  10.295  10.566  0.1141  0.0485 -0.2882
  534MOL0     C70419   9.986  10.269  10.654  0.8366  0.5491  0.0027
  534MOL0     C70420  10.083  10.222  10.715  0.6363 -0.6314  0.7087
  534MOL0     C70421   9.210  10.541  10.460 -0.0456  1.1482 -0.3403
  534MOL0     C70422   9.084  10.586  10.499 -0.0677 -0.1355  0.1237
  534MOL0     H70423   8.763  10.898  10.682 -0.7614  0.1373  1.8076
  534MOL0     H70424   8.544  11.003  10.693 -2.4974  0.4358 -2.3487
  534MOL0     H70425   8.308  11.040  10.719  2.1562 -1.1604  0.5067
  534MOL0     H70426   8.291  10.899  10.832  2.1564  0.7532  0.1035
  534MOL0     H70427   8.065  10.842  10.729 -1.1931  0.9178 -2.1716
  534MOL0     H70428   8.092  10.968  10.615  1.4432 -1.4231 -1.4978
  534MOL0     H70429   8.087  11.135  10.800  1.5503 -1.2293 -1.0269
  534MOL0     H70430   8.072  11.018  10.927  3.5002 -0.6189 -0.4411
  534MOL0     H70431   7.880  10.991  10.690  0.9420  0.2182 -0.3837
  534MOL0     H70432   7.860  10.966  10.865 -1.5075 -1.7668 -1.3144
  534MOL0     H70433   7.727  11.154  10.797  0.0417 -2.7870  0.3374
  534MOL0     H70434   7.848  11.237  10.719 -2.8341 -0.4685 -1.2827
  534MOL0     H70435   7.944  11.310  10.930 -1.9307  0.8310  1.1229
  534MOL0     H70436   7.884  11.173  11.017  0.7089 -0.4380 -0.5862
  534MOL0     H70437   7.752  11.419  11.029  1.3799 -0.3507  1.4089
  534MOL0     H70438   7.681  11.362  10.879 -1.7305 -0.7512  1.0949
  534MOL0     H70439   7.678  11.246  11.158 -3.7807 -1.2445  1.2489
  534MOL0     H70440   7.645  11.138  11.030 -2.6146 -0.0120  0.6930
  534MOL0     H70441   7.455  11.432  11.187 -1.7694 -0.1179 -0.5328
  534MOL0     H70442   7.300  11.618  10.980 -0.5540  1.1947  1.3156
  534MOL0     H70443   7.246  11.564  11.138  3.4172  1.1058  0.2011
  534MOL0     H70444   7.043  11.506  11.059  0.6941 -0.3457  0.8446
  534MOL0     H70445   7.095  11.456  10.892  0.4756  2.0751 -1.7919
  534MOL0     H70446   7.113  11.675  10.813 -0.8013 -1.4687 -0.8362
  534MOL0     H70447   6.957  11.666  10.889 -0.1375  1.2671  1.0079
  534MOL0     H70448   7.056  11.876  10.932  1.1299  0.4866 -0.5240
  534MOL0     H70449   7.195  11.809  11.008  0.1769 -0.8423  0.8447
  534MOL0     H70450   6.913  12.023  11.055  0.2265 -1.0219 -1.7903
  534MOL0     H70451   6.690  12.094  11.131  1.8284  0.6810 -1.6888
  534MOL0     H70452   6.269  11.995  11.063  0.4279 -0.5045  1.5809
  534MOL0     H70453   6.049  12.076  11.077 -0.6523 -0.5316 -0.5399
  534MOL0     H70454   5.856  12.227  11.096  0.5081  0.2728  2.2202
  534MOL0     H70455   5.968  12.360  11.072  0.5260  0.2055 -0.2250
  534MOL0     H70456   5.837  12.501  11.227  0.4965 -1.5835  1.7404
  534MOL0     H70457   5.728  12.378  11.273  1.0979  3.3819  3.2407
  534MOL0     H70458   5.655  12.358  11.026  0.4106 -0.4438  1.6561
  534MOL0     H70459   5.748  12.511  11.000 -1.6392 -0.1174 -3.2727
  534MOL0     H70460   5.518  12.475  11.191  1.1698 -0.2191  0.3615
  534MOL0     H70461   5.598  12.621  11.168 -1.3429 -1.1330  2.7476
  534MOL0     H70462   5.426  12.484  10.944  2.1561 -2.1893  2.8851
  534MOL0     H70463   5.550  12.606  10.908 -0.0634 -0.0122 -0.4092
  534MOL0     H70464   5.430  12.743  11.073 -1.7034  0.8976 -1.0093
  534MOL0     H70465   5.301  12.627  11.086 -0.2530  0.7592 -0.3375
  534MOL0     H70466   5.310  12.636  10.812  1.7005  1.2922 -0.5878
  534MOL0     H70467   5.194  12.727  10.909 -0.0456  3.0392 -1.5027
  534MOL0     H70468   5.436  12.817  10.760 -2.5457 -0.0711 -1.9842
  534MOL0     H70469   5.382  12.907  10.917 -3.2055 -0.2975  1.6753
  534MOL0     H70470   6.141  12.319  11.418 -0.0568  1.9474 -0.8496
  534MOL0     H70471   6.386  12.241  11.393  0.3320 -0.4257 -1.0967
  534MOL0     H70472   6.620  11.692  11.274  1.9985 -1.1326  0.9740
  534MOL0     H70473   6.847  11.639  11.226 -0.3407  0.2630  0.5232
  534MOL0     H70474   8.378  10.615  10.550  0.3932 -0.4885  1.1351
  534MOL0     H70475   8.606  10.536  10.531  0.9078 -1.1375  1.2504
  534MOL0     H70476   9.138  10.619  10.831 -0.4643  2.5821 -0.9224
  534MOL0     H70477   9.358  10.522  10.761  1.0551 -3.8881 -2.0286
  534MOL0     H70478   9.538  10.458  10.681  1.5571 -0.3913  0.2535
  534MOL0     H70479   9.574  10.609  10.586 -0.2289  0.0644 -1.9821
  534MOL0     H70480   9.634  10.335  10.480 -0.1547 -0.3561  2.9503
  534MOL0     H70481   9.712  10.491  10.434  1.2133  1.4667  1.3397
  534MOL0     H70482   9.735  10.365  10.710  2.0589  3.4740  2.8859
  534MOL0     H70483   9.826  10.495  10.657  1.7627 -1.6250 -0.0872
  534MOL0     H70484   9.818  10.200  10.547  1.6374 -0.5954 -1.3173
  534MOL0     H70485   9.913  10.335  10.475  3.3342  2.3629  2.0679
  534MOL0     H70486  10.173  10.182  10.756  1.1768 -0.0455  0.0940
  534MOL0     H70487   9.242  10.520  10.358  1.4108  0.5751  0.2064
  534MOL0     H70488   9.001  10.585  10.428 -0.0714 -1.4006  0.1159
  535MOL0     O70489   4.915   1.602   3.515 -0.3037 -0.1868 -0.0336
  535MOL0     C70490   4.848   1.672   3.596 -0.5059 -0.1788 -0.7665
  535MOL0     O70491   4.883   1.698   3.722  0.3601  0.5706 -0.6939
  535MOL0     C70492   5.015   1.689   3.760 -0.1168 -0.5719 -0.0221
  535MOL0     C70493   5.069   1.576   3.817 -0.0011 -0.8072 -0.2047
  535MOL0     C70494   5.206   1.573   3.847 -0.0191  0.5833 -0.2261
  535MOL0     C70495   5.286   1.689   3.834  0.2061 -0.3556 -0.1762
  535MOL0     O70496   5.424   1.696   3.861  1.0012 -0.8227  0.4130
  535MOL0     C70497   5.478   1.577   3.935 -0.1146  0.3598  0.6170
  535MOL0     C70498   5.615   1.607   4.004 -0.1241  0.3757 -0.4112
  535MOL0     C70499   5.737   1.578   3.914  0.8409  0.4529  0.6581
  535MOL0     C70500   5.874   1.622   3.988  0.7817  0.1680 -0.1494
  535MOL0     C70501   5.995   1.556   3.922  0.3652  0.0966  0.0772
  535MOL0     C70502   6.127   1.624   3.957  0.2635  0.6932  0.4992
  535MOL0     C70503   6.233   1.582   3.847  0.9483  0.4190  0.2007
  535MOL0     C70504   6.368   1.637   3.880  0.7332 -0.0636 -0.1093
  535MOL0     N70505   6.391   1.777   3.842 -0.0233  0.7917  1.1153
  535MOL0     C70506   6.344   1.886   3.912 -0.1508 -0.1945 -0.1159
  535MOL0     C70507   6.404   1.996   3.856  0.8798 -0.4075 -0.1193
  535MOL0     C70508   6.398   2.138   3.902  0.2858 -0.4253  0.1532
  535MOL0     C70509   6.412   2.240   3.794  0.2418 -0.8385 -0.2225
  535MOL0     C70510   6.393   2.393   3.844  0.3419 -0.1151 -0.8808
  535MOL0     C70511   6.283   2.422   3.944 -0.7650 -1.7137 -0.3155
  535MOL0     O70512   6.159   2.389   3.882  0.6568  0.1026 -0.5056
  535MOL0     C70513   6.040   2.448   3.931 -0.4960 -0.4995 -0.4529
  535MOL0     C70514   5.926   2.422   3.852  0.6487  0.1007  0.3044
  535MOL0     C70515   5.791   2.467   3.888 -0.5076 -0.2569  0.5018
  535MOL0     C70516   5.778   2.534   4.010  0.1854  0.3852 -0.1101
  535MOL0     C70517   5.643   2.570   4.064 -0.6306  0.2274  0.1348
  535MOL0     O70518   5.541   2.570   3.977 -0.3964  0.1288 -0.6421
  535MOL0     C70519   5.418   2.605   4.026  0.1502  0.2238 -0.5156
  535MOL0     C70520   5.371   2.728   4.061 -0.2184  0.6252 -0.4750
  535MOL0     C70521   5.244   2.757   4.103  0.8867  0.4569 -0.0229
  535MOL0     C70522   5.150   2.654   4.121 -0.5662 -0.2736  0.6999
  535MOL0     O70523   5.022   2.671   4.164 -0.8951 -0.4701 -0.6688
  535MOL0     C70524   4.919   2.603   4.097  0.9430 -0.3929  0.2572
  535MOL0     C70525   4.793   2.682   4.107  0.1526 -0.8351 -0.5689
  535MOL0     C70526   4.733   2.688   4.248  0.1384 -0.3763 -0.4935
  535MOL0     C70527   4.599   2.762   4.238 -0.0025 -0.7371 -0.5291
  535MOL0     C70528   4.549   2.794   4.380  0.0580 -0.2398  1.7316
  535MOL0     C70529   4.627   2.912   4.450  0.9203  0.4858 -0.3123
  535MOL0     C70530   4.556   2.978   4.577 -0.6852  0.1765  0.1656
  535MOL0     C70531   4.657   3.064   4.674 -1.0588 -0.1696  0.4987
  535MOL0    Cl70532   4.674   2.958   4.816  0.1489 -0.4295 -0.4462
  535MOL0     C70533   5.195   2.526   4.085  0.7804  0.7742  0.4850
  535MOL0     C70534   5.330   2.500   4.042  0.6711 -0.4849 -0.3410
  535MOL0     O70535   5.635   2.610   4.180 -0.2670 -0.5726 -0.0200
  535MOL0     C70536   5.896   2.576   4.079  0.3633  0.8158 -0.0339
  535MOL0     C70537   6.030   2.537   4.042  0.3597  0.2382  0.3765
  535MOL0     N70538   6.481   1.948   3.754  0.1812  0.4762 -0.0263
  535MOL0     N70539   6.480   1.822   3.743 -0.5989 -0.8255 -0.0700
  535MOL0     C70540   5.232   1.800   3.770 -0.1943  0.2467 -0.1743
  535MOL0     C70541   5.098   1.799   3.727 -0.0257  0.0335 -0.6995
  535MOL0     C70542   4.718   1.723   3.554  0.0189 -0.0093  0.5101
  535MOL0     C70543   4.649   1.653   3.450 -0.0938  1.0102 -0.5973
  535MOL0     C70544   4.524   1.694   3.414  0.0442 -0.7498 -1.0266
  535MOL0     C70545   4.470   1.811   3.476 -0.0241 -0.3270 -0.2354
  535MOL0     O70546   4.349   1.849   3.418  0.0647  0.5337 -0.1012
  535MOL0     C70547   4.267   1.948   3.491 -0.0989 -0.3931 -0.0705
  535MOL0     C70548   4.262   2.073   3.395  0.5872 -0.4460 -0.1150
  535MOL0     C70549   4.234   2.205   3.470 -0.0195 -0.3710 -0.6242
  535MOL0     C70550   4.108   2.198   3.548  0.1474 -0.0016  0.6340
  535MOL0     C70551   4.124   2.186   3.694 -0.7013  0.0828 -0.0984
  535MOL0     C70552   4.126   2.187   3.816 -0.1110  0.4087  0.0472
  535MOL0     C70553   4.542   1.880   3.571  0.9412  0.2197 -0.3470
  535MOL0     C70554   4.661   1.831   3.616 -0.1217 -0.1285 -0.3986
  535MOL0     H70555   5.006   1.488   3.827 -2.0056  0.6635  0.7262
  535MOL0     H70556   5.237   1.472   3.870 -1.5582 -0.1342 -1.2049
  535MOL0     H70557   5.492   1.499   3.860  1.0305  0.2407  0.9283
  535MOL0     H70558   5.407   1.543   4.011  0.0290 -1.0106  0.1635
  535MOL0     H70559   5.619   1.546   4.094 -2.3358 -2.2187 -1.8964
  535MOL0     H70560   5.622   1.713   4.030  1.3670 -0.1146  1.4043
  535MOL0     H70561   5.733   1.648   3.830  0.3918 -0.6422 -0.2543
  535MOL0     H70562   5.740   1.474   3.881 -2.1928  1.2545 -2.7738
  535MOL0     H70563   5.871   1.731   3.997 -1.8208 -0.0331  3.1483
  535MOL0     H70564   5.872   1.590   4.093  1.6829  1.3626  0.2530
  535MOL0     H70565   5.975   1.559   3.814 -2.0286 -1.1672  0.4034
  535MOL0     H70566   5.992   1.450   3.951  1.2769  0.2937  0.9012
  535MOL0     H70567   6.146   1.592   4.060 -1.1748  1.3279  0.9867
  535MOL0     H70568   6.105   1.731   3.957 -0.8515  0.5589 -2.4494
  535MOL0     H70569   6.240   1.473   3.847  0.8119  0.4091  0.1784
  535MOL0     H70570   6.204   1.623   3.749  0.5075 -0.2505  0.0428
  535MOL0     H70571   6.446   1.575   3.834  1.3493  1.8721 -1.8500
  535MOL0     H70572   6.374   1.622   3.988  1.2319  0.6042 -0.0433
  535MOL0     H70573   6.285   1.905   4.001  0.3700  0.9349  0.0060
  535MOL0     H70574   6.485   2.143   3.969  0.2701  1.3621  0.0947
  535MOL0     H70575   6.308   2.159   3.960  0.2989  3.0251 -0.8878
  535MOL0     H70576   6.322   2.223   3.734 -0.7838  2.2091  0.2698
  535MOL0     H70577   6.504   2.224   3.738  1.5925  1.8384  1.0295
  535MOL0     H70578   6.490   2.423   3.886  0.1978  0.2409 -0.8084
  535MOL0     H70579   6.374   2.454   3.755  2.4065 -0.4663 -1.6274
  535MOL0     H70580   6.281   2.529   3.962 -0.9478 -1.7327 -0.2248
  535MOL0     H70581   6.304   2.362   4.033  1.8359  0.2353  0.4973
  535MOL0     H70582   5.940   2.356   3.767 -2.1859  0.6091 -0.6758
  535MOL0     H70583   5.700   2.447   3.831 -2.7686  1.9422  3.0513
  535MOL0     H70584   5.445   2.808   4.061  3.4221 -2.4549 -0.4772
  535MOL0     H70585   5.219   2.861   4.122 -0.2670  0.8532 -3.0871
  535MOL0     H70586   4.902   2.511   4.154 -1.2827  1.4366  2.7720
  535MOL0     H70587   4.939   2.592   3.990 -1.3789  0.5356 -0.3331
  535MOL0     H70588   4.717   2.640   4.041  1.7825  0.4939 -3.4936
  535MOL0     H70589   4.804   2.786   4.076 -0.2329 -0.2630  1.1229
  535MOL0     H70590   4.804   2.745   4.309 -0.3784  0.3151 -0.5240
  535MOL0     H70591   4.718   2.587   4.288 -4.1982  0.4367  0.4632
  535MOL0     H70592   4.620   2.861   4.196  1.2183 -0.5433  0.4812
  535MOL0     H70593   4.529   2.708   4.174  0.1854 -3.2192  1.2393
  535MOL0     H70594   4.541   2.702   4.439  1.0092 -1.6397 -0.2091
  535MOL0     H70595   4.446   2.827   4.369 -0.4024 -1.5641  1.8381
  535MOL0     H70596   4.651   2.996   4.384 -2.0922  4.1428  2.7315
  535MOL0     H70597   4.725   2.875   4.481  1.6095  2.4907  0.0017
  535MOL0     H70598   4.478   3.047   4.543 -1.7361 -0.6984  0.7266
  535MOL0     H70599   4.515   2.889   4.625 -0.5572  0.6340  1.1521
  535MOL0     H70600   4.612   3.163   4.688 -0.6839  0.2693 -1.1489
  535MOL0     H70601   4.754   3.089   4.630 -1.7809 -1.2172 -1.8578
  535MOL0     H70602   5.134   2.437   4.099 -0.8974  1.7731 -0.1952
  535MOL0     H70603   5.355   2.396   4.023 -2.2022 -1.6458  1.5165
  535MOL0     H70604   5.882   2.637   4.168  0.5521 -0.8635  1.1908
  535MOL0     H70605   6.119   2.575   4.091 -0.5242  1.6277  0.9699
  535MOL0     H70606   5.289   1.892   3.756  0.3852 -0.2605 -1.2908
  535MOL0     H70607   5.048   1.886   3.687 -0.7703 -0.5331 -1.0344
  535MOL0     H70608   4.694   1.571   3.395 -3.8331 -0.0065 -2.4698
  535MOL0     H70609   4.475   1.643   3.332 -0.4503 -0.1913 -1.0754
  535MOL0     H70610   4.304   1.966   3.592 -0.2966  0.4696 -0.1444
  535MOL0     H70611   4.163   1.918   3.507 -0.7009  1.3227 -0.5340
  535MOL0     H70612   4.356   2.074   3.341 -0.7799  0.1181 -2.6263
  535MOL0     H70613   4.189   2.061   3.314 -0.5712 -0.1961  0.8530
  535MOL0     H70614   4.226   2.285   3.396 -0.1467  0.4701  0.2801
  535MOL0     H70615   4.321   2.222   3.533 -1.9392 -0.0732  2.1506
  535MOL0     H70616   4.054   2.293   3.542  2.1088  1.3137  2.1570
  535MOL0     H70617   4.045   2.123   3.501  1.8754 -0.4604 -1.0937
  535MOL0     H70618   4.118   2.192   3.923  1.6901  1.6854  0.1725
  535MOL0     H70619   4.502   1.972   3.611  1.9798 -0.1570  1.6632
  535MOL0     H70620   4.717   1.878   3.696  1.8090 -1.0930 -1.1212
  536MOL0     O70621   8.505   6.555   4.014  0.2943  0.0418 -0.0447
  536MOL0     C70622   8.541   6.660   4.071  0.9467 -0.2609 -0.8963
  536MOL0     O70623   8.458   6.761   4.120  0.8609 -0.4568  0.2642
  536MOL0     C70624   8.318   6.754   4.115 -0.6045  1.1585 -0.6171
  536MOL0     C70625   8.243   6.633   4.137  0.3435 -0.2918  0.8119
  536MOL0     C70626   8.097   6.640   4.132 -1.2619  0.8360  0.4131
  536MOL0     C70627   8.030   6.760   4.102  0.3222  0.1954 -0.3255
  536MOL0     O70628   7.893   6.771   4.082 -0.3301  0.2715 -0.0074
  536MOL0     C70629   7.821   6.648   4.045  0.1193  0.7016  0.8504
  536MOL0     C70630   7.862   6.600   3.908 -0.2766  0.0332  0.3875
  536MOL0     C70631   7.744   6.526   3.850  0.1112  0.0538 -0.3273
  536MOL0     C70632   7.742   6.377   3.894  0.0709  0.4758 -0.5058
  536MOL0     C70633   7.600   6.313   3.873  0.0699  0.5433  0.0766
  536MOL0     C70634   7.573   6.297   3.725 -0.0124  0.4576  0.5930
  536MOL0     C70635   7.660   6.171   3.663  0.5865 -0.1880 -0.6001
  536MOL0     C70636   7.606   6.038   3.702 -0.3856 -0.4940 -0.0884
  536MOL0     N70637   7.473   6.018   3.649  0.2442  0.3129  0.1641
  536MOL0     C70638   7.443   5.982   3.516  0.1860 -0.4193  0.3858
  536MOL0     C70639   7.309   5.988   3.507  0.5412  0.4157 -0.1268
  536MOL0     C70640   7.232   5.963   3.381 -0.7029 -0.0492 -0.3984
  536MOL0     C70641   7.143   5.847   3.405  0.1027  0.6219  0.2110
  536MOL0     C70642   7.217   5.721   3.435 -0.0546  0.4974  0.8285
  536MOL0     C70643   7.128   5.603   3.474  0.7259 -0.6033  0.2098
  536MOL0     O70644   7.203   5.494   3.502 -1.1622 -0.0097 -0.0786
  536MOL0     C70645   7.282   5.444   3.400  0.3856 -0.1328 -0.6596
  536MOL0     C70646   7.234   5.420   3.270  0.6260  0.4365 -0.3082
  536MOL0     C70647   7.316   5.374   3.164  0.9062 -0.3629 -0.1342
  536MOL0     C70648   7.454   5.360   3.182  0.0988 -0.4191  0.0566
  536MOL0     C70649   7.536   5.315   3.075 -1.2845 -0.7153  0.6810
  536MOL0     O70650   7.474   5.287   2.955 -0.0433 -0.1162  0.0798
  536MOL0     C70651   7.560   5.239   2.857 -0.1665  0.7093  0.3948
  536MOL0     C70652   7.629   5.119   2.877  0.9071 -0.1735  1.0237
  536MOL0     C70653   7.721   5.074   2.784 -0.5628 -0.6125 -0.3025
  536MOL0     C70654   7.752   5.153   2.667  0.1563  0.0631 -0.2925
  536MOL0     O70655   7.835   5.116   2.563  0.2851 -0.0203 -0.1822
  536MOL0     C70656   7.947   5.026   2.590 -0.5380  0.0109  0.4643
  536MOL0     C70657   8.057   5.099   2.676  0.2947 -0.2287  0.1584
  536MOL0     C70658   8.196   5.047   2.655  0.3048  0.5282  0.0418
  536MOL0     C70659   8.280   5.098   2.783 -0.0071 -0.2853  0.5288
  536MOL0     C70660   8.432   5.097   2.765  0.0372 -0.6452 -0.3512
  536MOL0     C70661   8.484   5.160   2.892  0.0808  0.5951 -0.5484
  536MOL0     C70662   8.638   5.185   2.864  0.1137 -0.6795 -0.0724
  536MOL0     C70663   8.693   5.277   2.988 -0.3477 -0.2771  1.0227
  536MOL0    Cl70664   8.871   5.291   2.972  0.4402  0.1405 -0.0772
  536MOL0     C70665   7.661   5.254   2.639  0.2690 -0.4591 -0.0032
  536MOL0     C70666   7.566   5.296   2.736 -0.1337  0.1795 -1.2168
  536MOL0     O70667   7.660   5.324   3.091  0.2644  0.0095 -0.6976
  536MOL0     C70668   7.501   5.384   3.315  0.3370 -0.1076 -0.5048
  536MOL0     C70669   7.419   5.431   3.412 -0.8612  0.6344  0.3269
  536MOL0     N70670   7.262   6.013   3.635  0.1200 -0.0935  0.2423
  536MOL0     N70671   7.352   6.035   3.724 -0.2597  1.1456  0.0876
  536MOL0     C70672   8.107   6.875   4.080 -0.4737 -0.2187  0.6152
  536MOL0     C70673   8.247   6.875   4.093 -0.7838  0.1266  0.7341
  536MOL0     C70674   8.681   6.678   4.095 -0.0475  0.5760  0.0725
  536MOL0     C70675   8.728   6.790   4.152 -0.4061 -0.6927 -0.2553
  536MOL0     C70676   8.859   6.803   4.191 -0.0904  0.9187 -0.7077
  536MOL0     C70677   8.952   6.706   4.147 -0.2022  0.2598 -0.1737
  536MOL0     O70678   9.090   6.717   4.178  0.0455 -0.8146  0.1350
  536MOL0     C70679   9.148   6.828   4.251 -0.3951 -0.4410 -0.5481
  536MOL0     C70680   9.291   6.859   4.212 -0.1000 -0.6129 -0.5900
  536MOL0     C70681   9.390   6.743   4.253  0.3647 -0.4942  0.5644
  536MOL0     C70682   9.371   6.701   4.396 -0.5723 -0.2303  0.2685
  536MOL0     C70683   9.488   6.643   4.463 -0.3363 -0.6038  0.7921
  536MOL0     C70684   9.588   6.602   4.518 -0.1320  0.4165 -0.0248
  536MOL0     C70685   8.901   6.595   4.076 -0.0809 -0.0543 -0.2075
  536MOL0     C70686   8.767   6.573   4.051 -0.3857  0.1144  0.5200
  536MOL0     H70687   8.289   6.537   4.160 -0.4960 -1.0365 -0.4929
  536MOL0     H70688   8.060   6.540   4.154  2.2353 -0.4136  1.3020
  536MOL0     H70689   7.717   6.679   4.048 -0.5704 -1.3895  0.1988
  536MOL0     H70690   7.835   6.572   4.123 -0.6028  3.3956  3.8204
  536MOL0     H70691   7.947   6.533   3.924 -0.9171 -0.7170  0.7181
  536MOL0     H70692   7.890   6.689   3.852  1.7581 -0.3817  0.6427
  536MOL0     H70693   7.756   6.518   3.742 -0.7418  0.6625 -0.4863
  536MOL0     H70694   7.649   6.580   3.866  0.7651  0.6722  1.9578
  536MOL0     H70695   7.819   6.325   3.837  1.9765 -0.7383  2.8766
  536MOL0     H70696   7.770   6.374   4.000  3.2002 -0.2877 -1.2470
  536MOL0     H70697   7.524   6.376   3.920 -1.3845 -1.4483  0.5409
  536MOL0     H70698   7.607   6.219   3.928  1.7820  0.3676 -0.3731
  536MOL0     H70699   7.595   6.391   3.675 -0.2410 -0.7457 -1.9336
  536MOL0     H70700   7.468   6.284   3.696  0.3460  1.3523 -1.2388
  536MOL0     H70701   7.655   6.168   3.554 -0.6523 -0.1143 -0.5624
  536MOL0     H70702   7.763   6.177   3.701 -0.2435 -0.1710  1.8572
  536MOL0     H70703   7.619   6.036   3.811  0.3013 -0.0327 -0.1598
  536MOL0     H70704   7.666   5.953   3.669  2.3473  1.4201 -0.3720
  536MOL0     H70705   7.510   5.952   3.436  0.5919 -0.0879  0.5950
  536MOL0     H70706   7.292   5.941   3.293 -1.2090  0.1721 -0.8103
  536MOL0     H70707   7.173   6.054   3.362  1.1521  0.8943 -2.0347
  536MOL0     H70708   7.083   5.836   3.314 -0.0907  0.5842  0.3440
  536MOL0     H70709   7.078   5.863   3.491 -1.0071 -1.0760 -0.2548
  536MOL0     H70710   7.279   5.691   3.350 -2.3385  1.1194 -1.1780
  536MOL0     H70711   7.283   5.731   3.521  0.2713  1.2024  0.5038
  536MOL0     H70712   7.048   5.577   3.404 -1.1583  3.5348  0.5660
  536MOL0     H70713   7.070   5.622   3.565 -0.9809 -1.6548 -0.6051
  536MOL0     H70714   7.130   5.434   3.240  0.7485  0.5716 -0.6783
  536MOL0     H70715   7.264   5.366   3.070 -0.1668 -1.3024  0.5141
  536MOL0     H70716   7.599   5.054   2.960 -2.3551 -2.9975 -2.0426
  536MOL0     H70717   7.788   4.991   2.805  0.2155 -0.0433 -0.5260
  536MOL0     H70718   7.992   5.006   2.492  0.7951  2.8787  0.4029
  536MOL0     H70719   7.917   4.930   2.633 -0.1761 -0.7943 -0.9986
  536MOL0     H70720   8.031   5.085   2.781  1.0297 -0.0686  0.3665
  536MOL0     H70721   8.053   5.203   2.643 -0.0511 -0.4957 -0.6663
  536MOL0     H70722   8.242   5.089   2.565  1.2673  1.6471  1.0220
  536MOL0     H70723   8.187   4.938   2.654  1.6859  0.3711 -2.6304
  536MOL0     H70724   8.245   5.196   2.817  0.9264  0.2956 -0.1246
  536MOL0     H70725   8.265   5.031   2.869  1.2742 -1.0378  0.1960
  536MOL0     H70726   8.474   5.144   2.675 -1.2461 -1.2033 -1.2766
  536MOL0     H70727   8.471   4.995   2.758 -1.0347 -1.0026 -1.3938
  536MOL0     H70728   8.479   5.092   2.978  1.7582  1.5856  0.3819
  536MOL0     H70729   8.433   5.255   2.909 -1.7341  0.3560 -3.8214
  536MOL0     H70730   8.686   5.087   2.860 -1.0860 -1.2616 -0.5843
  536MOL0     H70731   8.647   5.238   2.769 -0.7934 -0.0911  0.1491
  536MOL0     H70732   8.677   5.210   3.073 -1.6673 -2.3437 -0.7310
  536MOL0     H70733   8.633   5.368   2.996 -0.5954 -0.3247 -0.0907
  536MOL0     H70734   7.665   5.307   2.544  3.5972 -1.9507 -0.8492
  536MOL0     H70735   7.487   5.371   2.735 -1.3096 -1.0417 -1.7960
  536MOL0     H70736   7.607   5.383   3.336  0.8332  4.2456 -1.6653
  536MOL0     H70737   7.462   5.465   3.506 -1.6628 -0.9547  1.3177
  536MOL0     H70738   8.051   6.963   4.051  1.0213  0.3681 -0.6344
  536MOL0     H70739   8.290   6.972   4.071  1.3222 -0.6893  0.9641
  536MOL0     H70740   8.658   6.864   4.189  0.3352  0.0037 -0.2129
  536MOL0     H70741   8.884   6.887   4.254 -4.0065  1.6146  0.1557
  536MOL0     H70742   9.131   6.811   4.358 -1.8896  1.8698 -0.3599
  536MOL0     H70743   9.093   6.917   4.219  1.3675  0.2496 -1.7926
  536MOL0     H70744   9.304   6.882   4.106 -0.9116  1.9603 -0.2050
  536MOL0     H70745   9.311   6.945   4.276 -1.4224 -1.0187  0.4192
  536MOL0     H70746   9.496   6.770   4.253  1.0349 -2.8337 -0.2918
  536MOL0     H70747   9.367   6.656   4.190 -3.1691  0.6600  0.0338
  536MOL0     H70748   9.340   6.784   4.460  0.8034  0.8832 -0.4680
  536MOL0     H70749   9.296   6.621   4.393 -0.5774 -0.2017 -0.3784
  536MOL0     H70750   9.671   6.561   4.571 -1.3555 -0.9170  0.9601
  536MOL0     H70751   8.963   6.525   4.022  0.7434 -0.6646  1.4740
  536MOL0     H70752   8.736   6.485   3.995  0.8632 -1.5695  2.3278
  537MOL0     O70753   8.162   1.856   6.899  0.4697 -0.0139 -0.6577
  537MOL0     C70754   8.148   1.746   6.844 -0.0485 -0.5144  0.6100
  537MOL0     O70755   8.230   1.630   6.865  0.2319 -0.4574  0.2075
  537MOL0     C70756   8.304   1.609   6.983  0.3567  0.9496  0.7108
  537MOL0     C70757   8.289   1.669   7.109 -0.1551  0.3997  0.3076
  537MOL0     C70758   8.361   1.629   7.217  0.3284 -0.0914 -0.2441
  537MOL0     C70759   8.456   1.527   7.210 -0.4058  0.2323  0.4025
  537MOL0     O70760   8.523   1.480   7.317 -0.2925 -0.0171  0.9391
  537MOL0     C70761   8.537   1.557   7.436  0.0759 -0.6574 -0.1843
  537MOL0     C70762   8.413   1.528   7.520 -0.4554 -0.1291 -0.7493
  537MOL0     C70763   8.405   1.610   7.652  0.6620 -0.1648  0.4873
  537MOL0     C70764   8.266   1.568   7.716 -0.1994 -0.1670 -0.1484
  537MOL0     C70765   8.258   1.650   7.839 -0.0763  0.5658 -0.6845
  537MOL0     C70766   8.134   1.626   7.926  0.0520 -0.1034 -0.0754
  537MOL0     C70767   8.141   1.684   8.060 -0.8898 -0.6066  0.2950
  537MOL0     C70768   8.004   1.722   8.110  0.7744 -0.7162 -0.0171
  537MOL0     N70769   7.937   1.822   8.028 -0.8201 -0.3472 -0.3630
  537MOL0     C70770   7.824   1.807   7.949  0.4742  0.7045  0.3669
  537MOL0     C70771   7.780   1.932   7.922  0.2644 -0.4795 -0.3798
  537MOL0     C70772   7.657   1.964   7.831 -1.0504  0.3135 -0.7677
  537MOL0     C70773   7.529   1.965   7.907  0.0311  0.3539 -0.4069
  537MOL0     C70774   7.421   2.041   7.832  0.8978  0.7670  0.5141
  537MOL0     C70775   7.280   2.028   7.897 -0.6918 -0.3624 -0.4500
  537MOL0     O70776   7.186   2.103   7.810 -0.7693  0.0456 -0.2229
  537MOL0     C70777   7.057   2.101   7.845 -0.2503  0.1794 -0.1029
  537MOL0     C70778   6.982   2.206   7.815  0.1737 -0.9112  0.1721
  537MOL0     C70779   6.846   2.213   7.839  0.5500  0.2174 -0.0042
  537MOL0     C70780   6.781   2.103   7.899  0.3847 -0.3745  0.5180
  537MOL0     C70781   6.634   2.101   7.914 -0.6799  0.2376 -0.3034
  537MOL0     O70782   6.558   2.189   7.845  0.4827 -0.2753 -0.0736
  537MOL0     C70783   6.421   2.172   7.832  0.0611  0.1759 -1.0079
  537MOL0     C70784   6.362   2.215   7.715 -0.6519 -0.0914  0.3133
  537MOL0     C70785   6.225   2.187   7.688  0.0271 -0.3050 -0.1033
  537MOL0     C70786   6.146   2.128   7.794 -0.7615  0.3056  0.1259
  537MOL0     O70787   6.013   2.101   7.787  0.1182 -0.7398 -0.0786
  537MOL0     C70788   5.957   2.075   7.661  1.0352  0.3814 -0.0873
  537MOL0     C70789   5.799   2.065   7.659  0.0046 -0.1365  0.1347
  537MOL0     C70790   5.748   2.030   7.522 -0.6664 -0.9359 -0.5563
  537MOL0     C70791   5.599   2.054   7.520  0.3380 -0.0238  0.3979
  537MOL0     C70792   5.518   1.942   7.589  0.4355  0.2435  0.2710
  537MOL0     C70793   5.378   1.917   7.524  0.0212  0.9329 -0.0467
  537MOL0     C70794   5.313   1.793   7.581 -0.4639 -0.7502 -0.8013
  537MOL0     C70795   5.196   1.748   7.498  0.4922  0.5808  1.0541
  537MOL0    Cl70796   5.073   1.865   7.495  0.5116  0.1902 -0.4339
  537MOL0     C70797   6.201   2.097   7.913 -0.4972  0.6215  0.5043
  537MOL0     C70798   6.337   2.127   7.933  0.1023  0.1357  0.2688
  537MOL0     O70799   6.589   2.017   7.993 -0.3214  0.0963  0.6964
  537MOL0     C70800   6.861   1.997   7.927 -0.1659 -0.0856 -0.4275
  537MOL0     C70801   6.996   1.994   7.901 -0.3569 -0.0230  0.2543
  537MOL0     N70802   7.866   2.022   7.985  0.1384 -0.0126  0.9749
  537MOL0     N70803   7.958   1.957   8.040  0.3463  0.4221 -0.0884
  537MOL0     C70804   8.465   1.460   7.087 -0.8484 -0.0821 -1.0820
  537MOL0     C70805   8.391   1.502   6.977  0.7519 -0.4813  0.8598
  537MOL0     C70806   8.047   1.744   6.738  0.2420 -0.0797  0.5147
  537MOL0     C70807   7.949   1.846   6.713 -0.8203  0.2897  0.3153
  537MOL0     C70808   7.851   1.839   6.614 -0.1656  0.0072  0.0098
  537MOL0     C70809   7.843   1.732   6.529  0.5405  0.4404  0.2036
  537MOL0     O70810   7.754   1.701   6.430  0.7582 -0.0131  0.9825
  537MOL0     C70811   7.627   1.776   6.417 -0.0096 -0.3957  0.9694
  537MOL0     C70812   7.521   1.722   6.513 -0.7912 -0.6770  0.1255
  537MOL0     C70813   7.380   1.773   6.496 -0.5155  0.3927 -0.4073
  537MOL0     C70814   7.381   1.922   6.526 -0.3342  0.1107  0.4582
  537MOL0     C70815   7.251   1.979   6.565 -0.9166  0.0921 -0.1095
  537MOL0     C70816   7.160   2.048   6.608  0.6976  1.2754 -0.5819
  537MOL0     C70817   7.944   1.633   6.551 -0.5254  0.7568  0.6791
  537MOL0     C70818   8.046   1.634   6.648 -0.0437  0.9860 -0.1687
  537MOL0     H70819   8.228   1.758   7.120  0.9550  1.0107  1.8192
  537MOL0     H70820   8.334   1.679   7.309  4.0812 -1.1105  1.6027
  537MOL0     H70821   8.556   1.663   7.416 -4.4076  0.2600 -0.6654
  537MOL0     H70822   8.627   1.530   7.491  1.8796  0.3470 -2.4976
  537MOL0     H70823   8.420   1.427   7.562  3.5206  1.4165  3.0140
  537MOL0     H70824   8.318   1.537   7.466 -1.0245 -0.4131  0.1623
  537MOL0     H70825   8.403   1.713   7.615 -2.0960 -1.1184 -2.4862
  537MOL0     H70826   8.495   1.597   7.713  0.3167 -0.4296  0.9483
  537MOL0     H70827   8.176   1.589   7.657  0.9581 -0.1408 -1.9709
  537MOL0     H70828   8.264   1.462   7.743  0.1251 -0.0454  0.3772
  537MOL0     H70829   8.271   1.754   7.808 -0.7413  0.3268 -1.8083
  537MOL0     H70830   8.346   1.621   7.897  0.4464 -1.9494 -2.5629
  537MOL0     H70831   8.107   1.520   7.930  1.1093 -0.3497  2.9920
  537MOL0     H70832   8.054   1.677   7.871 -1.7263 -1.3943  1.1910
  537MOL0     H70833   8.171   1.606   8.131  0.6381 -0.3684 -0.0400
  537MOL0     H70834   8.211   1.769   8.060  2.5078 -3.1876  1.4353
  537MOL0     H70835   7.999   1.749   8.215 -0.5703 -0.8739 -0.0269
  537MOL0     H70836   7.932   1.640   8.101 -0.1679  0.1223 -0.2579
  537MOL0     H70837   7.770   1.722   7.908 -0.6416  1.4614  0.2243
  537MOL0     H70838   7.652   1.888   7.753 -0.5341  1.0079 -1.4888
  537MOL0     H70839   7.668   2.061   7.782  0.5463 -0.0061 -1.0875
  537MOL0     H70840   7.540   2.009   8.006 -0.5303  0.2627 -0.2993
  537MOL0     H70841   7.497   1.861   7.917 -3.0417  1.1275 -1.0889
  537MOL0     H70842   7.444   2.147   7.823  0.1303  0.7320 -4.6252
  537MOL0     H70843   7.403   2.002   7.732  1.4655  1.5753  0.0867
  537MOL0     H70844   7.284   2.063   8.001  3.1140 -0.3143 -0.4608
  537MOL0     H70845   7.255   1.921   7.897  0.1924 -0.5842  0.0041
  537MOL0     H70846   7.038   2.291   7.778  3.0156 -2.6582  0.1775
  537MOL0     H70847   6.793   2.305   7.816 -3.0044 -1.6765 -0.0077
  537MOL0     H70848   6.416   2.259   7.632  0.5733 -0.0532  1.0990
  537MOL0     H70849   6.192   2.227   7.592  1.5511  2.8164  0.5261
  537MOL0     H70850   5.999   1.984   7.620  4.9906  1.9642  0.0455
  537MOL0     H70851   5.993   2.151   7.591 -1.1042  1.1636 -0.4161
  537MOL0     H70852   5.752   2.156   7.698  0.2652  0.0267  0.0729
  537MOL0     H70853   5.777   1.979   7.722  0.2631 -2.9481 -3.3046
  537MOL0     H70854   5.766   1.925   7.499 -0.7201 -0.7537 -1.5028
  537MOL0     H70855   5.801   2.085   7.443  0.8988  0.6517  1.4714
  537MOL0     H70856   5.569   2.143   7.576 -0.2973 -0.0331  0.0826
  537MOL0     H70857   5.570   2.075   7.416  0.4623  1.4429  0.6337
  537MOL0     H70858   5.507   1.970   7.694 -1.6530  2.5414 -0.4645
  537MOL0     H70859   5.572   1.850   7.564 -0.8910  0.2357 -3.2492
  537MOL0     H70860   5.373   1.897   7.416 -0.6267  2.2457 -0.2716
  537MOL0     H70861   5.313   2.000   7.551 -2.0779 -0.5688 -0.2627
  537MOL0     H70862   5.390   1.716   7.590  1.8886  1.1667 -3.0179
  537MOL0     H70863   5.282   1.820   7.683  1.4243  0.0143 -0.3714
  537MOL0     H70864   5.157   1.653   7.535  1.0889  0.2044  0.7297
  537MOL0     H70865   5.234   1.735   7.396  2.4332  2.6460  1.4312
  537MOL0     H70866   6.150   2.051   7.997  1.0162 -0.8925  0.6582
  537MOL0     H70867   6.370   2.096   8.031 -2.0898 -0.7615  0.7883
  537MOL0     H70868   6.811   1.911   7.969 -0.0398 -0.2542 -0.6211
  537MOL0     H70869   7.056   1.903   7.901  3.4062  2.2321  0.1018
  537MOL0     H70870   8.540   1.381   7.084  1.5542  1.9130  1.4312
  537MOL0     H70871   8.419   1.457   6.882 -2.5407  0.4291 -0.6803
  537MOL0     H70872   7.961   1.935   6.773 -1.2868  1.2692 -0.9972
  537MOL0     H70873   7.788   1.922   6.586 -2.5658 -1.7728 -0.1500
  537MOL0     H70874   7.578   1.757   6.321  0.9405 -0.3787  0.4717
  537MOL0     H70875   7.644   1.883   6.426 -0.2851 -0.1294 -1.2685
  537MOL0     H70876   7.522   1.614   6.502  2.2887 -0.6541 -0.7018
  537MOL0     H70877   7.555   1.744   6.615 -0.1382  2.7752 -0.6832
  537MOL0     H70878   7.314   1.730   6.571  0.9593  0.3368  0.9233
  537MOL0     H70879   7.342   1.753   6.395 -0.0454  0.8430 -0.6867
  537MOL0     H70880   7.451   1.955   6.603 -1.8428  3.3625  0.6103
  537MOL0     H70881   7.403   1.970   6.431  0.0852  0.9134  0.9536
  537MOL0     H70882   7.080   2.109   6.644  0.2849  0.7118 -0.5191
  537MOL0     H70883   7.940   1.540   6.495 -1.2360  1.1316  0.0891
  537MOL0     H70884   8.117   1.553   6.661 -0.1661  0.5896 -1.7636
  538MOL0     O70885   1.365   1.751   3.626 -0.1127  0.0379 -0.8547
  538MOL0     C70886   1.329   1.870   3.630  0.4548  0.8233 -0.3023
  538MOL0     O70887   1.196   1.913   3.657  0.6518  0.1065  0.2539
  538MOL0     C70888   1.125   1.816   3.718  0.1293 -0.6676  0.1529
  538MOL0     C70889   1.049   1.735   3.636  0.4031 -0.3571  0.5719
  538MOL0     C70890   0.960   1.644   3.696 -0.3630 -0.8650  0.2990
  538MOL0     C70891   0.959   1.628   3.837  0.5023 -0.2159 -0.1919
  538MOL0     O70892   0.892   1.526   3.898  0.1370  0.0617  0.0876
  538MOL0     C70893   0.890   1.395   3.837  0.0116 -0.1539 -0.1448
  538MOL0     C70894   0.807   1.307   3.924 -0.0760  0.6884  0.5673
  538MOL0     C70895   0.759   1.181   3.845  0.2105 -0.1069 -0.6294
  538MOL0     C70896   0.874   1.075   3.821  0.5166  0.1049  0.0212
  538MOL0     C70897   0.946   1.026   3.947 -0.4880 -0.4966  0.5460
  538MOL0     C70898   0.855   0.999   4.072 -0.1141  0.2365 -0.5564
  538MOL0     C70899   0.938   0.934   4.195  0.2775 -0.3573 -0.1368
  538MOL0     C70900   0.849   0.907   4.325  0.5079 -0.2269 -0.4826
  538MOL0     N70901   0.758   0.796   4.299 -0.0536 -0.5004 -1.2707
  538MOL0     C70902   0.808   0.671   4.279 -0.0745 -0.2146 -0.6375
  538MOL0     C70903   0.694   0.598   4.270  0.0286  1.2336  0.5356
  538MOL0     C70904   0.691   0.450   4.250 -0.2409 -0.2024 -1.2197
  538MOL0     C70905   0.554   0.384   4.215  0.8588 -0.0281 -0.4184
  538MOL0     C70906   0.464   0.351   4.337 -0.0684  0.6423 -0.1402
  538MOL0     C70907   0.316   0.369   4.320  0.1233 -0.0645  0.4988
  538MOL0     O70908   0.271   0.268   4.232 -0.6136  0.2305 -0.5606
  538MOL0     C70909   0.130   0.264   4.206  0.3256 -0.3123  0.3688
  538MOL0     C70910   0.039   0.342   4.270  0.2014  0.4517 -0.2990
  538MOL0     C70911  -0.102   0.323   4.255 -0.4711  0.4125 -0.3230
  538MOL0     C70912  -0.152   0.240   4.153 -0.4250 -0.2911 -0.2164
  538MOL0     C70913  -0.296   0.217   4.132  0.5311 -0.0370 -0.2750
  538MOL0     O70914  -0.346   0.156   4.025 -0.2157 -0.6176  0.6772
  538MOL0     C70915  -0.464   0.090   4.052  0.0960  0.1942 -0.4368
  538MOL0     C70916  -0.580   0.163   4.061  0.0598  0.1659  0.1467
  538MOL0     C70917  -0.704   0.099   4.078  0.2356 -0.1472  0.4054
  538MOL0     C70918  -0.706  -0.042   4.085 -0.1056  0.0171 -0.4940
  538MOL0     O70919  -0.828  -0.105   4.093  0.6063  0.0605  0.3156
  538MOL0     C70920  -0.954  -0.032   4.091 -0.1722  0.4271 -0.3157
  538MOL0     C70921  -1.065  -0.139   4.109  0.4349 -0.1473  0.3453
  538MOL0     C70922  -1.205  -0.079   4.087 -0.0695 -0.1550 -0.4507
  538MOL0     C70923  -1.307  -0.191   4.101  0.9517  0.1138 -0.5927
  538MOL0     C70924  -1.445  -0.129   4.083  0.4029 -0.1316  0.1141
  538MOL0     C70925  -1.501  -0.078   4.211  0.0066 -0.7522 -0.8798
  538MOL0     C70926  -1.640  -0.007   4.184 -0.5447 -0.3276 -0.4795
  538MOL0     C70927  -1.724   0.029   4.311 -0.3391 -0.6692  0.3383
  538MOL0    Cl70928  -1.870   0.120   4.260  0.0466  0.0965 -0.2229
  538MOL0     C70929  -0.591  -0.116   4.069  0.0567  0.3338  0.2693
  538MOL0     C70930  -0.466  -0.046   4.060  0.1139 -0.2250 -0.7140
  538MOL0     O70931  -0.363   0.247   4.228 -0.5027 -0.1917 -0.2481
  538MOL0     C70932  -0.051   0.165   4.083  0.7086 -0.3234 -0.9103
  538MOL0     C70933   0.087   0.175   4.106  0.1466  0.5076 -0.9758
  538MOL0     N70934   0.583   0.675   4.300 -0.8392 -0.4565 -0.4832
  538MOL0     N70935   0.623   0.797   4.314  0.0496  0.4714  0.4996
  538MOL0     C70936   1.021   1.717   3.918  0.0338 -0.1504  0.1536
  538MOL0     C70937   1.111   1.814   3.858 -0.5061  0.0798 -0.1238
  538MOL0     C70938   1.430   1.975   3.592  0.3503 -1.0332 -0.8913
  538MOL0     C70939   1.377   2.111   3.568  0.8031 -0.3627 -0.0500
  538MOL0     C70940   1.465   2.214   3.529 -0.0745  0.3961 -0.0980
  538MOL0     C70941   1.596   2.188   3.499 -0.1653  0.6228 -0.2679
  538MOL0     O70942   1.671   2.298   3.447  0.0685 -0.3728  0.0633
  538MOL0     C70943   1.790   2.336   3.520 -0.0168 -0.1432  0.0888
  538MOL0     C70944   1.751   2.386   3.666 -0.1152  0.7185  0.0510
  538MOL0     C70945   1.656   2.510   3.672  0.6272 -0.1396  0.1157
  538MOL0     C70946   1.637   2.573   3.807 -0.9654 -0.0047 -0.7086
  538MOL0     C70947   1.536   2.676   3.805 -0.1987  0.5812  0.3497
  538MOL0     C70948   1.449   2.751   3.788  0.3055 -0.4891 -0.9651
  538MOL0     C70949   1.649   2.057   3.513 -0.1579 -0.4944  0.0007
  538MOL0     C70950   1.569   1.959   3.573  0.0289 -0.3589 -0.1061
  538MOL0     H70951   1.055   1.753   3.529 -0.9583 -4.7696 -0.4279
  538MOL0     H70952   0.905   1.579   3.629  0.3051 -0.2829 -0.8573
  538MOL0     H70953   0.990   1.358   3.814  1.0349  3.2721 -1.8523
  538MOL0     H70954   0.841   1.401   3.739  1.8534 -1.6781 -1.2316
  538MOL0     H70955   0.713   1.360   3.944  0.2612  1.7750 -0.5876
  538MOL0     H70956   0.860   1.287   4.017  2.4047 -0.1811 -0.9343
  538MOL0     H70957   0.713   1.214   3.751 -0.7427 -1.0147 -0.4957
  538MOL0     H70958   0.678   1.131   3.898 -1.5950  1.6441 -1.6224
  538MOL0     H70959   0.838   0.994   3.758  1.1342 -1.0878  1.1483
  538MOL0     H70960   0.944   1.129   3.757  2.4417 -0.4110  1.5779
  538MOL0     H70961   1.023   1.100   3.971 -1.7576  0.6933  1.1131
  538MOL0     H70962   0.995   0.933   3.918 -0.3850  0.1915 -1.6939
  538MOL0     H70963   0.782   0.921   4.045  0.3951 -0.3200 -0.3603
  538MOL0     H70964   0.813   1.094   4.106 -0.2374  0.9121 -2.4867
  538MOL0     H70965   0.993   0.844   4.165 -1.1797 -0.4560 -2.8000
  538MOL0     H70966   1.010   1.013   4.220  2.0939 -1.5444 -1.4172
  538MOL0     H70967   0.789   0.999   4.331  0.2722 -0.1227 -3.0709
  538MOL0     H70968   0.907   0.899   4.417 -1.3232  0.3061  0.7690
  538MOL0     H70969   0.909   0.632   4.268 -1.0193 -2.6154 -1.5489
  538MOL0     H70970   0.734   0.415   4.344  0.0859  2.1984 -0.4117
  538MOL0     H70971   0.764   0.412   4.178  0.7458 -1.2322  0.2741
  538MOL0     H70972   0.578   0.291   4.161 -0.4761 -0.2644 -0.6338
  538MOL0     H70973   0.488   0.446   4.155 -0.9995  1.1330  2.5953
  538MOL0     H70974   0.489   0.247   4.362  3.1727  1.0811 -1.0528
  538MOL0     H70975   0.495   0.409   4.424  2.5616 -2.3568  1.1288
  538MOL0     H70976   0.298   0.470   4.281 -0.5924 -0.9509 -1.5686
  538MOL0     H70977   0.262   0.350   4.414  0.4642  0.4656  0.8107
  538MOL0     H70978   0.064   0.416   4.346  0.6486  0.1952 -0.1946
  538MOL0     H70979  -0.174   0.379   4.313 -3.9559 -3.9362  0.0746
  538MOL0     H70980  -0.571   0.270   4.044  2.7244 -0.1212 -0.7592
  538MOL0     H70981  -0.791   0.164   4.072  0.8288  0.6405  0.0801
  538MOL0     H70982  -0.974   0.022   3.998 -1.4143 -1.0620 -0.9647
  538MOL0     H70983  -0.945   0.030   4.180  2.9800 -0.8090  0.3672
  538MOL0     H70984  -1.071  -0.174   4.212 -4.0518  1.0982  0.7186
  538MOL0     H70985  -1.037  -0.226   4.049  3.0531 -0.9660  2.6001
  538MOL0     H70986  -1.213  -0.040   3.984  0.7538 -2.5444 -1.4817
  538MOL0     H70987  -1.229   0.001   4.158 -2.1462 -1.7800  0.7858
  538MOL0     H70988  -1.281  -0.262   4.022 -0.4101  1.3141 -2.1931
  538MOL0     H70989  -1.285  -0.236   4.198  1.2094  0.6573 -0.3952
  538MOL0     H70990  -1.512  -0.206   4.044  0.4589  0.5738 -1.4581
  538MOL0     H70991  -1.434  -0.057   4.001 -0.5650  0.9792  0.9362
  538MOL0     H70992  -1.439   0.002   4.253 -1.7527  1.1423 -1.7137
  538MOL0     H70993  -1.514  -0.158   4.285  0.6393  0.8826  1.0748
  538MOL0     H70994  -1.619   0.083   4.125  1.5153 -1.1157 -1.0552
  538MOL0     H70995  -1.703  -0.069   4.120 -3.7826  0.8901  1.3103
  538MOL0     H70996  -1.672   0.101   4.374 -3.0313 -1.2127  3.4714
  538MOL0     H70997  -1.749  -0.062   4.367  1.0288 -2.3037 -1.5930
  538MOL0     H70998  -0.587  -0.225   4.067  1.9514  0.3665 -2.5294
  538MOL0     H70999  -0.372  -0.099   4.053  1.7522  1.8726  2.9026
  538MOL0     H71000  -0.085   0.100   4.002  1.5373 -1.0033 -0.7233
  538MOL0     H71001   0.162   0.132   4.041  0.0855  0.5922 -1.1019
  538MOL0     H71002   1.025   1.703   4.026  1.2973  0.8295  0.2604
  538MOL0     H71003   1.152   1.894   3.919 -1.6171 -0.2784  1.1553
  538MOL0     H71004   1.274   2.137   3.589  1.4747  0.6782  2.3039
  538MOL0     H71005   1.439   2.319   3.523 -0.7761  0.1753 -1.2244
  538MOL0     H71006   1.836   2.417   3.462 -1.4913  0.8996  0.3351
  538MOL0     H71007   1.863   2.256   3.537  0.8190  1.3471  4.9971
  538MOL0     H71008   1.710   2.300   3.720  1.7895 -1.9518 -2.4603
  538MOL0     H71009   1.841   2.419   3.719  1.2754 -0.9315 -1.1706
  538MOL0     H71010   1.559   2.475   3.634  0.0447  1.6003 -0.0885
  538MOL0     H71011   1.684   2.590   3.603  3.5248 -2.8036 -2.0586
  538MOL0     H71012   1.608   2.491   3.874 -0.0304  0.3426  0.1335
  538MOL0     H71013   1.732   2.615   3.841 -1.0195 -0.7251  0.4033
  538MOL0     H71014   1.365   2.815   3.771  2.0381  2.7605  1.6800
  538MOL0     H71015   1.753   2.043   3.484  0.5829  2.3996  0.9238
  538MOL0     H71016   1.622   1.868   3.598  0.3324 -0.0621  0.3547
  539MOL0     O71017   5.044   9.051  11.059  0.0481 -0.5215 -0.0030
  539MOL0     C71018   4.941   8.983  11.040 -0.8015  1.0123 -0.0970
  539MOL0     O71019   4.829   9.021  10.988 -0.1725 -0.2722 -0.2944
  539MOL0     C71020   4.790   9.154  10.975  0.3569 -0.4711  0.2915
  539MOL0     C71021   4.665   9.180  10.903 -0.2249 -0.3826  1.1476
  539MOL0     C71022   4.613   9.311  10.907  0.4000  0.2791 -0.0195
  539MOL0     C71023   4.664   9.415  10.973 -0.6606  0.4253  0.9513
  539MOL0     O71024   4.599   9.538  10.969 -0.1571  0.1240  0.0479
  539MOL0     C71025   4.660   9.644  11.032 -0.0215  0.5326  0.3023
  539MOL0     C71026   4.570   9.758  11.045 -0.0957 -0.7935 -0.6303
  539MOL0     C71027   4.455   9.743  11.141 -0.7524  0.6856 -0.5107
  539MOL0     C71028   4.494   9.801  11.282  0.4129 -0.0543  0.4735
  539MOL0     C71029   4.364   9.823  11.365 -0.3294 -0.0785  0.6365
  539MOL0     C71030   4.398   9.798  11.508  0.5127 -0.8721  0.0443
  539MOL0     C71031   4.263   9.815  11.587  1.0277 -0.2148  0.0125
  539MOL0     C71032   4.222   9.946  11.636 -0.1406 -1.1079  0.2006
  539MOL0     N71033   4.099   9.944  11.712  0.4113 -0.0623 -0.0236
  539MOL0     C71034   4.065  10.047  11.794  1.1040  0.5336  0.9851
  539MOL0     C71035   3.956   9.999  11.863  0.1600  1.0593 -0.9809
  539MOL0     C71036   3.877  10.069  11.971  0.1594 -0.5412  0.0919
  539MOL0     C71037   3.726  10.024  11.976  0.1556 -0.7118 -1.0122
  539MOL0     C71038   3.655  10.106  12.084  0.3530 -0.1739 -0.2944
  539MOL0     C71039   3.502  10.087  12.089 -0.4071 -0.1446  0.4273
  539MOL0     O71040   3.432  10.170  12.187  0.7592  0.9759  0.4240
  539MOL0     C71041   3.307  10.129  12.226  0.7143  0.2867 -0.2917
  539MOL0     C71042   3.257  10.004  12.216 -0.5431 -0.2391 -0.3493
  539MOL0     C71043   3.131   9.978  12.274  0.3911  0.3898 -0.8630
  539MOL0     C71044   3.063  10.073  12.360 -0.3248 -0.2499 -0.8157
  539MOL0     C71045   2.958  10.020  12.455 -0.1934  0.2539 -0.7508
  539MOL0     O71046   2.968   9.900  12.516  0.0954  0.2619  0.3482
  539MOL0     C71047   2.851   9.863  12.582 -0.3827 -0.1678 -0.0317
  539MOL0     C71048   2.749   9.788  12.517  0.1105 -0.5832 -0.1097
  539MOL0     C71049   2.618   9.774  12.567  0.3828  0.0836 -0.2027
  539MOL0     C71050   2.597   9.820  12.700  0.4076 -0.1729 -0.4198
  539MOL0     O71051   2.482   9.806  12.774 -0.3047 -0.2180  0.0347
  539MOL0     C71052   2.384   9.713  12.735 -0.1115 -0.5470  0.6191
  539MOL0     C71053   2.270   9.737  12.839 -0.7154 -0.6575  0.0121
  539MOL0     C71054   2.145   9.649  12.830 -0.1775 -0.0924  0.2869
  539MOL0     C71055   2.044   9.688  12.935 -0.1513 -0.2665  0.4980
  539MOL0     C71056   1.917   9.595  12.932 -0.4824  0.0398 -0.6791
  539MOL0     C71057   1.810   9.668  13.011  0.5313 -0.1769 -0.0728
  539MOL0     C71058   1.670   9.603  13.014  0.0826 -0.3916  1.2391
  539MOL0     C71059   1.671   9.472  13.094  0.0957 -0.8084  0.8171
  539MOL0    Cl71060   1.739   9.477  13.268  0.1950  0.0565  0.1453
  539MOL0     C71061   2.708   9.880  12.773 -0.3023  0.8145  0.7726
  539MOL0     C71062   2.832   9.902  12.715 -0.2723  0.3026  0.6380
  539MOL0     O71063   2.867  10.102  12.473 -0.1967 -0.1733 -0.1345
  539MOL0     C71064   3.105  10.203  12.348 -0.0470  0.1514 -0.1928
  539MOL0     C71065   3.226  10.235  12.280  0.0458  0.6299  0.0386
  539MOL0     N71066   3.928   9.867  11.823  0.9862 -0.0618  0.4728
  539MOL0     N71067   4.009   9.838  11.725 -0.4201  0.1374  0.2054
  539MOL0     C71068   4.791   9.391  11.027 -0.1312 -0.2131  0.2113
  539MOL0     C71069   4.850   9.269  11.036 -0.5257  0.0802 -0.0740
  539MOL0     C71070   4.946   8.833  11.065 -0.0104 -0.1825  0.0087
  539MOL0     C71071   5.068   8.762  11.092 -1.1085  0.1343  0.7303
  539MOL0     C71072   5.068   8.632  11.132 -0.2253  0.0938  0.1796
  539MOL0     C71073   4.943   8.562  11.129 -0.0122 -0.6973 -0.7256
  539MOL0     O71074   4.937   8.434  11.175 -0.4217  0.3131 -0.0615
  539MOL0     C71075   5.000   8.392  11.298 -0.3344 -0.3876  0.8961
  539MOL0     C71076   4.958   8.256  11.347  0.3326  0.5361 -0.2088
  539MOL0     C71077   5.017   8.213  11.477  0.8023 -0.0243 -0.4637
  539MOL0     C71078   4.982   8.079  11.520  0.8356 -0.0714  0.4184
  539MOL0     C71079   5.074   7.976  11.469 -0.2722  0.5359  0.5009
  539MOL0     C71080   5.137   7.890  11.403  0.5765 -0.2890 -0.1090
  539MOL0     C71081   4.820   8.632  11.114 -0.1980 -0.5659  0.2206
  539MOL0     C71082   4.822   8.762  11.078 -0.2194 -0.0193  0.7070
  539MOL0     H71083   4.597   9.112  10.853  0.5550  0.5130 -1.2877
  539MOL0     H71084   4.513   9.327  10.867 -0.5106  1.0899  2.4390
  539MOL0     H71085   4.751   9.672  10.978  0.0977  1.3714  0.9140
  539MOL0     H71086   4.683   9.615  11.135 -1.5605  0.9623  0.7879
  539MOL0     H71087   4.519   9.776  10.950 -0.3504  0.8572 -0.2161
  539MOL0     H71088   4.625   9.850  11.066 -2.2703  0.0769  1.8821
  539MOL0     H71089   4.425   9.637  11.147 -0.2078  0.6040  1.7936
  539MOL0     H71090   4.369   9.798  11.102 -0.4617  0.8446 -0.9257
  539MOL0     H71091   4.552   9.717  11.322  1.0086 -1.5812 -3.2064
  539MOL0     H71092   4.549   9.894  11.266 -2.0598  1.6014  0.9836
  539MOL0     H71093   4.286   9.753  11.331 -0.5406  1.3632 -2.1931
  539MOL0     H71094   4.323   9.923  11.349 -0.0859 -0.4184 -3.0139
  539MOL0     H71095   4.470   9.872  11.544  1.3080 -0.8754 -1.4754
  539MOL0     H71096   4.431   9.695  11.520  1.4022 -0.5590  0.3252
  539MOL0     H71097   4.184   9.764  11.531 -1.4179 -0.2798  3.2350
  539MOL0     H71098   4.265   9.755  11.679  2.3620  0.6896  0.6055
  539MOL0     H71099   4.215  10.017  11.552  0.5560 -0.0786  0.9935
  539MOL0     H71100   4.299   9.989  11.700  0.0871 -0.4889 -0.4718
  539MOL0     H71101   4.108  10.146  11.798  0.9003  0.6066  1.4809
  539MOL0     H71102   3.882  10.177  11.955  0.1692 -0.6250 -0.5248
  539MOL0     H71103   3.930  10.060  12.065  1.0734 -0.5135 -0.4109
  539MOL0     H71104   3.724   9.919  12.008 -2.0167 -0.8321 -1.4041
  539MOL0     H71105   3.675  10.036  11.880 -1.5278  2.3653  0.1197
  539MOL0     H71106   3.682  10.077  12.186  1.2065  3.8545  0.8310
  539MOL0     H71107   3.683  10.212  12.082  1.1467 -0.3602  0.4152
  539MOL0     H71108   3.503   9.980  12.114 -0.2305 -0.3193 -0.3003
  539MOL0     H71109   3.453  10.101  11.992  0.6678  1.2868  0.0647
  539MOL0     H71110   3.304   9.918  12.169 -0.8695 -1.5394  1.5773
  539MOL0     H71111   3.092   9.876  12.274  2.6945 -0.5799  0.3708
  539MOL0     H71112   2.760   9.737  12.421 -3.1825 -1.9384  0.0918
  539MOL0     H71113   2.544   9.728  12.503  0.4087 -0.5483  0.2115
  539MOL0     H71114   2.416   9.609  12.731  0.6939 -0.2637 -2.2402
  539MOL0     H71115   2.344   9.738  12.636 -0.0488  0.1855  0.7684
  539MOL0     H71116   2.238   9.840  12.824 -1.4345 -0.6359  1.5615
  539MOL0     H71117   2.302   9.725  12.942  0.4627  0.2987 -0.2266
  539MOL0     H71118   2.164   9.542  12.846  1.3033 -0.2657 -2.1727
  539MOL0     H71119   2.109   9.669  12.729  3.3131 -0.5498 -1.1844
  539MOL0     H71120   2.086   9.676  13.036  1.8036 -1.8508 -0.4452
  539MOL0     H71121   2.016   9.793  12.925 -1.4000 -0.8438 -3.5006
  539MOL0     H71122   1.938   9.500  12.982 -0.8264  1.2783  1.9759
  539MOL0     H71123   1.878   9.583  12.831 -0.8106  0.8885 -0.6588
  539MOL0     H71124   1.794   9.766  12.964  1.5956 -0.7946 -1.7832
  539MOL0     H71125   1.839   9.688  13.115 -0.6253  0.3655  0.1613
  539MOL0     H71126   1.602   9.665  13.073 -2.2059 -1.6298  0.0457
  539MOL0     H71127   1.628   9.588  12.914  2.6657  1.1359 -0.1724
  539MOL0     H71128   1.731   9.400  13.037 -0.9734 -1.5063  0.5451
  539MOL0     H71129   1.571   9.428  13.090 -0.6522  0.9166 -0.5624
  539MOL0     H71130   2.696   9.906  12.878 -0.4041 -0.4073  1.0777
  539MOL0     H71131   2.903   9.965  12.767 -0.3715  0.0745  1.0497
  539MOL0     H71132   3.047  10.279  12.401 -1.2756  0.1601 -1.4874
  539MOL0     H71133   3.264  10.337  12.288  0.9580  0.3493 -0.6129
  539MOL0     H71134   4.844   9.480  11.058 -1.2310  0.0306  1.5032
  539MOL0     H71135   4.941   9.253  11.093  0.1610 -0.4082 -1.2620
  539MOL0     H71136   5.163   8.813  11.097 -0.4942 -0.8150 -0.5746
  539MOL0     H71137   5.157   8.584  11.171 -0.5808  1.0505  2.3603
  539MOL0     H71138   4.978   8.479  11.360  1.4599 -0.1842  1.3007
  539MOL0     H71139   5.109   8.382  11.290 -0.3141  0.8655 -1.5441
  539MOL0     H71140   4.850   8.251  11.364  0.5417  2.2715  2.1105
  539MOL0     H71141   4.986   8.186  11.268  0.4783  4.3594 -3.9390
  539MOL0     H71142   4.982   8.283  11.553 -1.9834  0.2813 -1.8819
  539MOL0     H71143   5.126   8.216  11.469  0.7503  0.1491 -1.2188
  539MOL0     H71144   4.987   8.084  11.629 -2.3689 -1.2842  0.7253
  539MOL0     H71145   4.875   8.067  11.498 -0.0055  1.5082  3.1329
  539MOL0     H71146   5.192   7.810  11.357 -1.6257 -0.3869 -2.8143
  539MOL0     H71147   4.724   8.582  11.120 -0.4544 -0.4646 -2.0990
  539MOL0     H71148   4.730   8.808  11.045  1.9344  1.5502 -3.9454
  540MOL0     O71149   8.376   8.007   7.028  0.3034 -0.1387 -0.5915
  540MOL0     C71150   8.334   7.895   6.995 -0.1609 -0.8081 -1.0265
  540MOL0     O71151   8.397   7.818   6.901 -0.5660 -0.0369  0.5517
  540MOL0     C71152   8.526   7.852   6.854  0.8493  0.0885 -0.1209
  540MOL0     C71153   8.565   7.782   6.740  0.2320 -0.1347  0.9483
  540MOL0     C71154   8.692   7.781   6.692 -0.0864  0.4542  1.3725
  540MOL0     C71155   8.796   7.858   6.754  0.5030 -0.5755 -1.1912
  540MOL0     O71156   8.917   7.862   6.697  0.0555 -0.3874  0.4325
  540MOL0     C71157   9.016   7.952   6.752 -0.0124 -0.3438  0.0919
  540MOL0     C71158   9.140   7.910   6.675  0.0992 -0.8101  0.8621
  540MOL0     C71159   9.232   8.030   6.660 -0.6641 -0.4991  0.4849
  540MOL0     C71160   9.313   8.060   6.786  0.4701  0.5959 -0.8285
  540MOL0     C71161   9.374   8.203   6.790  0.7442 -0.0937 -0.6591
  540MOL0     C71162   9.454   8.223   6.922 -0.6185 -0.2570  0.1463
  540MOL0     C71163   9.498   8.373   6.943  0.0828  0.6050  0.2631
  540MOL0     C71164   9.628   8.399   6.859  0.7448  0.4281 -0.3328
  540MOL0     N71165   9.665   8.536   6.884  0.6793 -0.3766 -1.1168
  540MOL0     C71166   9.705   8.585   7.010  0.4806 -0.1616  0.4646
  540MOL0     C71167   9.748   8.709   6.980  0.3826 -0.2403  0.3049
  540MOL0     C71168   9.804   8.802   7.084  0.2033 -0.7393 -0.6191
  540MOL0     C71169   9.689   8.863   7.171 -1.0237  0.3729 -0.0361
  540MOL0     C71170   9.620   8.775   7.278 -0.7527 -0.0290  0.8085
  540MOL0     C71171   9.492   8.706   7.229 -0.2360  1.0067 -0.3797
  540MOL0     O71172   9.488   8.569   7.272 -0.2056 -0.5939  0.6992
  540MOL0     C71173   9.386   8.497   7.233  0.0937  0.0684  0.4344
  540MOL0     C71174   9.384   8.372   7.302 -1.2219  0.3981  0.8684
  540MOL0     C71175   9.287   8.279   7.272 -0.0440 -0.5295 -0.3294
  540MOL0     C71176   9.186   8.305   7.179  0.0615 -0.4468  0.0118
  540MOL0     C71177   9.083   8.196   7.153  0.0143 -0.1275  0.6166
  540MOL0     O71178   9.061   8.097   7.250  0.5628  0.0185  0.7725
  540MOL0     C71179   8.955   8.012   7.235  0.0694  1.2430 -0.4567
  540MOL0     C71180   8.980   7.876   7.262 -0.3852 -0.8513 -0.0573
  540MOL0     C71181   8.874   7.791   7.309  0.2795 -0.6393  0.3731
  540MOL0     C71182   8.744   7.834   7.317  0.0865 -0.1491 -0.8091
  540MOL0     O71183   8.654   7.755   7.370 -0.7364  0.3126 -0.0409
  540MOL0     C71184   8.517   7.771   7.347  0.3106 -0.0224 -0.0750
  540MOL0     C71185   8.447   7.645   7.412  0.4208  0.1127  0.2700
  540MOL0     C71186   8.433   7.652   7.567 -0.0736 -0.5880  0.1436
  540MOL0     C71187   8.313   7.736   7.601  0.7086  0.9021  0.6777
  540MOL0     C71188   8.278   7.714   7.758  0.4612  0.1959  0.6977
  540MOL0     C71189   8.396   7.713   7.853  0.4750 -0.0478 -0.5169
  540MOL0     C71190   8.480   7.844   7.858 -1.0015 -0.7648  0.0538
  540MOL0     C71191   8.396   7.974   7.890 -1.0017 -0.4598  0.4418
  540MOL0    Cl71192   8.511   8.110   7.911  0.4718  0.4774 -0.3010
  540MOL0     C71193   8.718   7.968   7.272 -0.2588  0.1636  0.3568
  540MOL0     C71194   8.821   8.059   7.230 -0.9111  0.2634 -0.0013
  540MOL0     O71195   9.024   8.206   7.046 -0.4732 -0.7081 -0.7761
  540MOL0     C71196   9.178   8.431   7.124  0.9114 -0.8304  0.1490
  540MOL0     C71197   9.283   8.532   7.143 -0.7203  0.1249 -0.0793
  540MOL0     N71198   9.730   8.730   6.844 -0.0885 -0.8090 -0.1764
  540MOL0     N71199   9.680   8.627   6.786 -0.1527 -0.3774 -0.3809
  540MOL0     C71200   8.756   7.924   6.881 -0.2223 -0.0292  0.7271
  540MOL0     C71201   8.624   7.917   6.929 -0.3358  0.0487 -0.6368
  540MOL0     C71202   8.213   7.834   7.054  0.1388 -0.1663  0.1521
  540MOL0     C71203   8.119   7.906   7.139 -0.9920 -0.3307  0.8670
  540MOL0     C71204   8.002   7.838   7.185  0.1196  0.7103  0.4091
  540MOL0     C71205   7.966   7.705   7.142  0.4367  0.0690 -0.8962
  540MOL0     O71206   7.848   7.635   7.192 -0.0080  0.0174  0.1341
  540MOL0     C71207   7.751   7.700   7.274  0.1407  0.0383  0.0524
  540MOL0     C71208   7.629   7.600   7.272  0.1849  0.1071 -1.1305
  540MOL0     C71209   7.581   7.581   7.121  0.8211  0.5524  0.8522
  540MOL0     C71210   7.478   7.463   7.117  0.5290  0.0769  1.1269
  540MOL0     C71211   7.357   7.508   7.184 -0.9880 -0.2521 -1.3394
  540MOL0     C71212   7.253   7.531   7.242  1.2880 -0.7852 -0.9408
  540MOL0     C71213   8.055   7.651   7.049 -0.4501  0.8289 -0.5857
  540MOL0     C71214   8.180   7.703   7.016 -0.5452  0.6319 -0.2439
  540MOL0     H71215   8.488   7.721   6.694  0.0440  0.5790  0.2974
  540MOL0     H71216   8.717   7.719   6.607  3.0101  0.1784  2.3560
  540MOL0     H71217   9.032   7.944   6.860  2.8854 -0.2202 -0.2531
  540MOL0     H71218   8.993   8.057   6.729  2.9647  0.1397 -1.0734
  540MOL0     H71219   9.118   7.871   6.575 -0.6666  2.1980 -0.2667
  540MOL0     H71220   9.198   7.832   6.725  3.0083  0.8997  0.3915
  540MOL0     H71221   9.175   8.119   6.630 -0.7946  0.3202  2.9988
  540MOL0     H71222   9.305   8.006   6.582  0.6798 -0.0210  1.5557
  540MOL0     H71223   9.249   8.043   6.874  2.4987  0.5822  0.7094
  540MOL0     H71224   9.390   7.982   6.792 -1.1286 -1.0526 -0.4879
  540MOL0     H71225   9.288   8.267   6.766  0.5329 -1.4086 -3.8785
  540MOL0     H71226   9.441   8.218   6.706 -1.8239  1.5021 -2.5930
  540MOL0     H71227   9.545   8.162   6.923  0.4588  1.2956  1.2656
  540MOL0     H71228   9.386   8.202   7.005  0.8037 -4.8452  0.4104
  540MOL0     H71229   9.417   8.441   6.913  2.0584  1.7260 -3.1036
  540MOL0     H71230   9.520   8.388   7.049 -0.5734  0.3797  0.4393
  540MOL0     H71231   9.594   8.389   6.755  0.1956 -0.9416 -0.0523
  540MOL0     H71232   9.710   8.331   6.884 -0.7740 -1.8513 -1.1261
  540MOL0     H71233   9.713   8.541   7.109 -2.4483  1.6331  1.6217
  540MOL0     H71234   9.867   8.882   7.045  1.3542 -0.9226  0.7654
  540MOL0     H71235   9.865   8.735   7.146 -1.4931 -2.4848 -0.7324
  540MOL0     H71236   9.615   8.916   7.111 -0.1630 -2.0825 -3.5822
  540MOL0     H71237   9.746   8.940   7.225  1.1959 -0.9198 -0.4082
  540MOL0     H71238   9.696   8.704   7.312  2.1786  1.8175 -1.3954
  540MOL0     H71239   9.598   8.826   7.372  3.3368  1.7881  0.9864
  540MOL0     H71240   9.468   8.714   7.123 -3.4334 -3.0109 -0.2102
  540MOL0     H71241   9.406   8.760   7.271 -0.7223 -0.1869  0.2084
  540MOL0     H71242   9.462   8.340   7.371 -0.2472 -2.1935 -1.2314
  540MOL0     H71243   9.283   8.185   7.327 -1.2200  0.7921  2.0153
  540MOL0     H71244   9.081   7.841   7.281 -0.4229  0.0592  2.1241
  540MOL0     H71245   8.884   7.689   7.344 -0.8769 -0.8844  0.0353
  540MOL0     H71246   8.503   7.783   7.239  2.9763 -0.0366 -0.4876
  540MOL0     H71247   8.466   7.854   7.397 -1.8149 -1.3490  0.0640
  540MOL0     H71248   8.506   7.558   7.383  0.9575  0.3009  0.7976
  540MOL0     H71249   8.347   7.639   7.368  0.8310 -2.2598 -0.4871
  540MOL0     H71250   8.526   7.697   7.603 -1.7184  2.2027  1.3172
  540MOL0     H71251   8.423   7.548   7.598 -0.1922 -1.2738 -2.0238
  540MOL0     H71252   8.355   7.835   7.583  1.5116  0.6326  1.0491
  540MOL0     H71253   8.230   7.710   7.535  0.9974 -0.7955  0.9447
  540MOL0     H71254   8.242   7.612   7.774  0.6082  0.1482  0.7236
  540MOL0     H71255   8.200   7.785   7.788 -1.6966 -0.8812 -1.9429
  540MOL0     H71256   8.464   7.631   7.829  1.6493  0.7573 -0.0987
  540MOL0     H71257   8.346   7.689   7.947  1.8092  2.0547  0.8289
  540MOL0     H71258   8.557   7.843   7.936  1.2933  0.7768 -2.0429
  540MOL0     H71259   8.528   7.864   7.762 -0.0053  1.2078  0.8930
  540MOL0     H71260   8.344   7.956   7.984  0.6582 -1.5696  1.1867
  540MOL0     H71261   8.327   8.003   7.810 -0.9677  0.5994  0.7745
  540MOL0     H71262   8.619   8.011   7.268  0.0143  1.0816  2.3131
  540MOL0     H71263   8.796   8.157   7.191 -0.2021 -0.0862 -1.4333
  540MOL0     H71264   9.098   8.440   7.052  0.0405  0.3381  1.2192
  540MOL0     H71265   9.279   8.624   7.086 -2.9695 -0.6390 -1.3029
  540MOL0     H71266   8.832   7.987   6.924  1.2579 -3.0155  2.8773
  540MOL0     H71267   8.619   7.977   7.019  1.3389  3.1551 -2.4284
  540MOL0     H71268   8.156   8.006   7.159  1.4177 -0.5478 -1.8161
  540MOL0     H71269   7.951   7.901   7.258 -2.7960 -1.7195  0.6386
  540MOL0     H71270   7.730   7.799   7.233  1.8910  0.6765  0.5871
  540MOL0     H71271   7.783   7.716   7.378  0.6321 -0.1193 -0.0737
  540MOL0     H71272   7.661   7.502   7.310  3.2722  1.9570  1.6187
  540MOL0     H71273   7.546   7.635   7.334 -0.2461  0.8672 -2.1203
  540MOL0     H71274   7.665   7.551   7.057  0.8501 -0.1502  1.2137
  540MOL0     H71275   7.541   7.678   7.091  2.6993  0.6015 -1.7880
  540MOL0     H71276   7.453   7.430   7.016 -1.6023 -0.8133  1.8820
  540MOL0     H71277   7.520   7.378   7.172 -0.3002 -0.5677  0.7754
  540MOL0     H71278   7.160   7.545   7.295  1.0994  2.8198 -1.9634
  540MOL0     H71279   8.025   7.555   7.007 -0.5844 -0.1812  1.6704
  540MOL0     H71280   8.248   7.643   6.957 -1.6459 -2.1835  1.1474
  541MOL0     O71281   5.941   5.539   5.228 -0.3040 -0.5906 -0.6311
  541MOL0     C71282   6.035   5.607   5.180  0.2395  0.3077 -0.6687
  541MOL0     O71283   6.058   5.739   5.218  0.3166 -0.3569  0.0407
  541MOL0     C71284   5.945   5.800   5.242  1.0897 -0.4654  0.7728
  541MOL0     C71285   5.860   5.815   5.131  0.3333 -0.4949 -0.3976
  541MOL0     C71286   5.743   5.889   5.142  0.3179  0.2459  0.9266
  541MOL0     C71287   5.701   5.930   5.270  1.5194  0.1391 -0.2152
  541MOL0     O71288   5.568   5.972   5.293  0.3053 -0.1261  0.0431
  541MOL0     C71289   5.524   6.075   5.208  0.1026  0.0364  0.0055
  541MOL0     C71290   5.398   6.137   5.268 -0.1568 -0.0603  0.3890
  541MOL0     C71291   5.317   6.218   5.166  0.2324  0.4895 -0.3368
  541MOL0     C71292   5.180   6.258   5.229  0.1361  0.3772  1.0318
  541MOL0     C71293   5.116   6.352   5.129  0.0261 -0.1016  0.4675
  541MOL0     C71294   4.962   6.366   5.166 -0.1204 -0.3462 -0.0953
  541MOL0     C71295   4.887   6.479   5.096 -0.0746 -0.1135 -0.6424
  541MOL0     C71296   4.758   6.511   5.170  0.6047 -0.4723  0.3660
  541MOL0     N71297   4.650   6.408   5.143 -0.4154 -0.9002  0.7489
  541MOL0     C71298   4.633   6.301   5.228  0.4749  0.0090  0.3152
  541MOL0     C71299   4.507   6.255   5.194 -0.4200  0.0451 -0.1665
  541MOL0     C71300   4.435   6.143   5.271 -0.5079 -0.8457  0.2010
  541MOL0     C71301   4.440   6.138   5.431 -0.2154 -0.4659  0.4473
  541MOL0     C71302   4.369   6.254   5.503  0.1563  0.9805 -0.0651
  541MOL0     C71303   4.213   6.251   5.494  0.4938 -0.3352  1.5624
  541MOL0     O71304   4.174   6.388   5.479 -0.0030  0.2914 -0.4519
  541MOL0     C71305   4.041   6.419   5.478 -0.2879 -0.3817  0.1771
  541MOL0     C71306   4.010   6.552   5.524 -0.0402  0.9916  0.1200
  541MOL0     C71307   3.882   6.602   5.521  0.0399  0.1368 -0.4648
  541MOL0     C71308   3.780   6.519   5.473  1.0560 -0.7699 -0.0991
  541MOL0     C71309   3.641   6.576   5.454  0.7771  0.2889  0.7430
  541MOL0     O71310   3.558   6.504   5.374 -0.4484 -0.9454 -0.5801
  541MOL0     C71311   3.428   6.546   5.331 -0.7747  0.1747  0.2695
  541MOL0     C71312   3.388   6.684   5.328 -0.2250 -0.4627 -0.4187
  541MOL0     C71313   3.271   6.713   5.278 -0.4866 -0.1607 -0.5646
  541MOL0     C71314   3.178   6.628   5.228 -0.6022  0.2536 -0.4156
  541MOL0     O71315   3.067   6.693   5.190  0.3660 -0.0199  1.4065
  541MOL0     C71316   2.956   6.606   5.142 -0.5440 -0.9064  1.0507
  541MOL0     C71317   2.861   6.696   5.073 -0.4750  0.1767 -0.1565
  541MOL0     C71318   2.798   6.794   5.167 -0.3191  0.7108 -0.0902
  541MOL0     C71319   2.683   6.853   5.091 -0.5878 -1.0719  0.2032
  541MOL0     C71320   2.605   6.955   5.181 -0.2924 -0.4959 -0.7833
  541MOL0     C71321   2.567   6.904   5.326  0.3778  0.0872  0.0668
  541MOL0     C71322   2.462   6.787   5.313 -0.3021 -0.9500 -0.2452
  541MOL0     C71323   2.332   6.813   5.398 -0.8714  0.3082 -0.5354
  541MOL0    Cl71324   2.254   6.963   5.333 -0.0240 -0.4994 -0.2826
  541MOL0     C71325   3.207   6.484   5.241 -0.2309  0.2149  0.3150
  541MOL0     C71326   3.332   6.448   5.285 -0.5362  0.5038  0.1975
  541MOL0     O71327   3.601   6.677   5.519  0.3626 -0.1090  0.0978
  541MOL0     C71328   3.803   6.384   5.433  0.6283  0.0156 -0.6489
  541MOL0     C71329   3.937   6.338   5.433  0.6076  0.0987  0.2159
  541MOL0     N71330   4.462   6.335   5.095 -0.5292 -0.4807  0.5542
  541MOL0     N71331   4.548   6.418   5.057 -0.0865 -0.6613 -0.0438
  541MOL0     C71332   5.775   5.905   5.381  0.0154 -0.7632 -0.6604
  541MOL0     C71333   5.896   5.835   5.366  0.1899  0.4556 -0.8022
  541MOL0     C71334   6.129   5.550   5.079  0.2274  0.0411 -0.6363
  541MOL0     C71335   6.217   5.637   5.006 -0.2582  0.5466 -0.2297
  541MOL0     C71336   6.303   5.590   4.907  0.4173 -0.7526  0.4964
  541MOL0     C71337   6.317   5.457   4.879 -0.6893  0.0348 -0.3829
  541MOL0     O71338   6.375   5.417   4.760 -0.0576  0.2299 -0.4491
  541MOL0     C71339   6.476   5.318   4.779 -0.7058  0.3274 -0.3957
  541MOL0     C71340   6.455   5.194   4.689  0.0680  0.0195  0.6464
  541MOL0     C71341   6.440   5.230   4.539 -0.1240 -0.0193 -0.0851
  541MOL0     C71342   6.525   5.350   4.476  0.7012  0.0084  0.6459
  541MOL0     C71343   6.664   5.299   4.469 -0.5114 -0.6539 -0.1472
  541MOL0     C71344   6.785   5.260   4.474 -0.1983 -0.2654 -0.6876
  541MOL0     C71345   6.245   5.369   4.955  0.2946 -0.2438 -0.5854
  541MOL0     C71346   6.144   5.417   5.049  0.0838  0.2600 -0.2576
  541MOL0     H71347   5.865   5.785   5.027 -2.1744 -0.5359 -0.5673
  541MOL0     H71348   5.688   5.893   5.049  2.7034 -2.9281 -0.8281
  541MOL0     H71349   5.511   6.023   5.113 -0.1045 -0.2036  0.1611
  541MOL0     H71350   5.603   6.149   5.196  1.6385 -1.5279  0.1634
  541MOL0     H71351   5.405   6.199   5.358 -3.2443  1.1648 -0.0931
  541MOL0     H71352   5.337   6.056   5.308 -2.1097  1.7464  1.3075
  541MOL0     H71353   5.297   6.158   5.076 -1.1313 -0.4561  0.5537
  541MOL0     H71354   5.362   6.314   5.138 -1.7801  1.7381  0.4563
  541MOL0     H71355   5.124   6.165   5.240 -0.2663  0.8106  2.8746
  541MOL0     H71356   5.196   6.302   5.328 -0.2433  2.0155  0.4086
  541MOL0     H71357   5.130   6.309   5.030 -0.1410 -0.8107  0.7466
  541MOL0     H71358   5.173   6.445   5.137  0.3918 -0.3908  1.3830
  541MOL0     H71359   4.957   6.381   5.274 -0.6200 -0.2030 -0.1392
  541MOL0     H71360   4.905   6.278   5.134  0.3263 -0.2651 -1.1770
  541MOL0     H71361   4.950   6.569   5.097  2.1789 -1.6132  0.3704
  541MOL0     H71362   4.864   6.444   4.995  0.2438 -0.4629 -0.5971
  541MOL0     H71363   4.727   6.613   5.145 -1.2103 -1.7810 -3.4419
  541MOL0     H71364   4.766   6.513   5.279 -0.4197 -0.4565  0.4486
  541MOL0     H71365   4.700   6.271   5.307 -0.6482 -0.6482  1.0525
  541MOL0     H71366   4.479   6.047   5.242  0.8977 -0.1811  0.0596
  541MOL0     H71367   4.330   6.147   5.240 -1.2384  0.2120  2.5760
  541MOL0     H71368   4.544   6.141   5.466 -0.0110 -0.9217 -0.1061
  541MOL0     H71369   4.410   6.045   5.481 -1.4286  1.2052  3.0882
  541MOL0     H71370   4.395   6.233   5.607  2.3641 -1.9508 -1.0634
  541MOL0     H71371   4.411   6.350   5.471 -2.0598  1.1815 -2.6778
  541MOL0     H71372   4.169   6.205   5.583 -0.9094  0.5032  1.3257
  541MOL0     H71373   4.178   6.188   5.411 -0.1754 -0.1554  1.7016
  541MOL0     H71374   4.089   6.622   5.552 -1.1909  1.9561  1.0807
  541MOL0     H71375   3.861   6.703   5.554 -0.7793 -0.9189  2.5459
  541MOL0     H71376   3.455   6.765   5.354  0.7688 -0.9174 -1.4569
  541MOL0     H71377   3.234   6.814   5.268 -0.5188 -0.0691  0.3899
  541MOL0     H71378   2.904   6.543   5.215 -0.9358 -4.1127 -1.7394
  541MOL0     H71379   3.000   6.539   5.068 -0.9307  0.2423 -0.2773
  541MOL0     H71380   2.782   6.628   5.038  0.5225 -0.8219 -0.5149
  541MOL0     H71381   2.915   6.747   4.993  0.1961  0.4761  0.4783
  541MOL0     H71382   2.860   6.880   5.196  0.4546 -0.6111  2.4841
  541MOL0     H71383   2.758   6.737   5.252 -2.4163  0.1711 -1.3785
  541MOL0     H71384   2.724   6.902   5.002 -0.0363  0.4500  1.2563
  541MOL0     H71385   2.604   6.780   5.071 -2.1745 -0.1658  2.6935
  541MOL0     H71386   2.507   6.985   5.143 -0.3691  1.9768  1.1032
  541MOL0     H71387   2.673   7.039   5.202 -0.3857 -0.6847  0.3186
  541MOL0     H71388   2.524   6.995   5.368 -0.8288  0.4506 -1.8550
  541MOL0     H71389   2.644   6.878   5.400  0.7932 -2.9063 -1.2602
  541MOL0     H71390   2.427   6.766   5.212  0.9692 -1.4641 -0.5996
  541MOL0     H71391   2.517   6.699   5.348 -1.5073 -1.1864  1.1768
  541MOL0     H71392   2.348   6.822   5.506  1.4788 -3.3516 -0.4061
  541MOL0     H71393   2.267   6.727   5.380 -1.3380  0.6445 -0.4822
  541MOL0     H71394   3.129   6.413   5.215  1.3001 -2.2799  2.1208
  541MOL0     H71395   3.344   6.341   5.299  0.0469  0.6148  0.5830
  541MOL0     H71396   3.720   6.323   5.401  1.5550 -0.0094 -3.1904
  541MOL0     H71397   3.963   6.237   5.403 -0.1462  0.0355 -0.2489
  541MOL0     H71398   5.733   5.943   5.473  2.2282  0.0697  0.0554
  541MOL0     H71399   5.964   5.811   5.447  0.0841  1.7764 -0.3051
  541MOL0     H71400   6.204   5.744   5.013  0.8066  0.7232 -0.6219
  541MOL0     H71401   6.345   5.669   4.846 -0.5228 -1.1955 -0.7694
  541MOL0     H71402   6.498   5.292   4.883 -0.3928 -0.4843 -0.6550
  541MOL0     H71403   6.570   5.367   4.751  1.2024 -1.1233  2.8001
  541MOL0     H71404   6.533   5.118   4.703  1.2442  1.3249  1.3544
  541MOL0     H71405   6.364   5.141   4.720  1.1116 -2.7134 -0.5808
  541MOL0     H71406   6.333   5.238   4.520 -0.1394  0.1909  0.0875
  541MOL0     H71407   6.457   5.133   4.491  0.0144 -0.7791  1.4540
  541MOL0     H71408   6.485   5.372   4.377 -0.7629 -2.4608  0.5984
  541MOL0     H71409   6.526   5.437   4.542  0.8447 -0.0086  0.6678
  541MOL0     H71410   6.886   5.233   4.496 -0.1731  1.6293  2.0648
  541MOL0     H71411   6.251   5.262   4.939 -3.5506 -0.4394 -1.8333
  541MOL0     H71412   6.090   5.339   5.103 -1.1795 -0.7629 -2.8127
  542MOL0     O71413   1.763   8.031   7.544  0.3081 -0.6325  0.2019
  542MOL0     C71414   1.827   7.976   7.462 -0.1490 -0.1284  0.4819
  542MOL0     O71415   1.882   8.026   7.348  0.3484  0.1188  0.5171
  542MOL0     C71416   1.853   8.156   7.326 -0.1955  0.9147 -0.0956
  542MOL0     C71417   1.732   8.195   7.268 -0.4708 -0.3026 -0.3275
  542MOL0     C71418   1.689   8.325   7.240 -1.0966  0.1862 -0.2772
  542MOL0     C71419   1.778   8.427   7.286  1.0055  0.2648 -0.8009
  542MOL0     O71420   1.733   8.557   7.263  0.0247  0.2180 -0.7915
  542MOL0     C71421   1.790   8.669   7.338 -0.9137 -0.1384  0.2474
  542MOL0     C71422   1.737   8.795   7.285  0.5144  1.0257  0.4443
  542MOL0     C71423   1.807   8.923   7.323 -0.2433  0.3946  0.0354
  542MOL0     C71424   1.889   8.968   7.210 -0.1119 -0.4246 -0.5357
  542MOL0     C71425   1.949   9.103   7.240 -0.2946 -0.3128  0.4124
  542MOL0     C71426   2.020   9.162   7.118  0.0940 -0.1077  0.1485
  542MOL0     C71427   2.063   9.299   7.170 -0.1293 -0.1436 -0.1835
  542MOL0     C71428   2.136   9.390   7.074 -0.5473  0.1859  0.3946
  542MOL0     N71429   2.063   9.420   6.951 -0.1460  0.5155 -0.0315
  542MOL0     C71430   1.949   9.491   6.943  0.4105 -0.0624  0.4808
  542MOL0     C71431   1.893   9.457   6.824  0.1095 -0.2467 -0.1506
  542MOL0     C71432   1.764   9.524   6.782  0.7727 -0.1235  0.6579
  542MOL0     C71433   1.643   9.448   6.828  0.0898 -0.3758  0.4870
  542MOL0     C71434   1.511   9.517   6.805  0.2297 -0.2305 -0.0646
  542MOL0     C71435   1.380   9.437   6.833 -0.5398  0.3314  0.3658
  542MOL0     O71436   1.379   9.319   6.747  0.4397 -0.0837  0.6414
  542MOL0     C71437   1.275   9.230   6.776 -0.1489 -0.2530  0.9921
  542MOL0     C71438   1.282   9.103   6.714  0.3618 -0.8087 -0.4491
  542MOL0     C71439   1.191   9.005   6.754 -0.0936  0.1377 -0.2233
  542MOL0     C71440   1.071   9.043   6.818  0.2479 -0.0141  0.3386
  542MOL0     C71441   0.956   8.950   6.850 -0.6629 -0.4248  0.0681
  542MOL0     O71442   0.856   9.010   6.917  0.5698  0.3235 -0.3681
  542MOL0     C71443   0.754   8.926   6.955  0.5903  0.0274  0.1938
  542MOL0     C71444   0.716   8.934   7.089 -1.1245 -0.8537  0.5017
  542MOL0     C71445   0.612   8.863   7.134  0.8879  0.7241  0.0446
  542MOL0     C71446   0.535   8.770   7.063 -0.2112 -0.2905 -0.8391
  542MOL0     O71447   0.422   8.703   7.109 -0.8864  0.2094  0.2822
  542MOL0     C71448   0.384   8.714   7.249 -0.1856 -0.0851  0.6939
  542MOL0     C71449   0.306   8.592   7.285 -0.5683  0.7909 -0.1173
  542MOL0     C71450   0.182   8.560   7.201 -0.3673  0.1851 -1.2334
  542MOL0     C71451   0.136   8.409   7.212 -0.0163  0.3392 -0.1986
  542MOL0     C71452   0.006   8.395   7.137 -0.3018  0.2127  0.2604
  542MOL0     C71453  -0.041   8.252   7.133  0.0857 -0.3704  0.6133
  542MOL0     C71454  -0.167   8.225   7.053 -0.6144 -0.2812  0.3759
  542MOL0     C71455  -0.280   8.325   7.073 -0.5652 -0.0899 -0.4396
  542MOL0    Cl71456  -0.393   8.292   6.943 -0.2771 -0.0399 -0.2149
  542MOL0     C71457   0.571   8.771   6.923  0.4733 -0.6758  0.5657
  542MOL0     C71458   0.677   8.847   6.868 -0.0108  0.3826 -0.5641
  542MOL0     O71459   0.959   8.829   6.816 -0.0878  0.7532 -0.0379
  542MOL0     C71460   1.066   9.167   6.872 -0.3906 -0.5343  0.0665
  542MOL0     C71461   1.165   9.267   6.845  0.6088 -0.6489  0.5270
  542MOL0     N71462   1.976   9.377   6.760  0.6409  0.1976  0.1276
  542MOL0     N71463   2.078   9.363   6.832 -0.5108  0.8712  0.7037
  542MOL0     C71464   1.891   8.393   7.361 -0.4576 -0.4359 -0.2062
  542MOL0     C71465   1.933   8.259   7.367  0.0063  0.1189 -1.4137
  542MOL0     C71466   1.875   7.846   7.501 -0.4626 -0.4001 -0.4678
  542MOL0     C71467   1.815   7.773   7.609  0.2445 -0.5116  0.0234
  542MOL0     C71468   1.875   7.650   7.657 -0.1836 -0.2488 -0.9021
  542MOL0     C71469   1.989   7.597   7.595  0.0262 -0.1776 -0.0406
  542MOL0     O71470   2.063   7.483   7.637  0.5331 -0.4181 -0.6431
  542MOL0     C71471   2.028   7.410   7.756  0.8207 -0.4309  0.1062
  542MOL0     C71472   2.146   7.342   7.809  0.6354 -0.0908 -0.1096
  542MOL0     C71473   2.129   7.287   7.942  0.0376 -0.3632 -0.2588
  542MOL0     C71474   2.085   7.141   7.957  0.0894  0.3613  0.4865
  542MOL0     C71475   1.940   7.139   7.918 -0.9930  0.9997 -0.2759
  542MOL0     C71476   1.830   7.131   7.872  0.3519  0.2065 -0.1041
  542MOL0     C71477   2.034   7.664   7.483 -0.0008  0.2326 -0.1977
  542MOL0     C71478   1.982   7.784   7.438  0.4251 -0.9802 -0.0920
  542MOL0     H71479   1.654   8.124   7.241 -2.4149  0.6476  2.3442
  542MOL0     H71480   1.599   8.335   7.181  0.5015  0.5822 -2.8399
  542MOL0     H71481   1.899   8.672   7.330 -0.8018  0.0936  1.6015
  542MOL0     H71482   1.767   8.667   7.445  1.7069  1.1008  0.8934
  542MOL0     H71483   1.635   8.793   7.323  1.1239 -3.5045  2.4221
  542MOL0     H71484   1.735   8.789   7.175  1.5648  2.5829  0.3059
  542MOL0     H71485   1.875   8.909   7.408  0.1915  0.7989 -0.2379
  542MOL0     H71486   1.739   9.004   7.351  0.1040  1.1544 -1.2396
  542MOL0     H71487   1.969   8.898   7.184  1.2379  1.8115 -2.9371
  542MOL0     H71488   1.827   8.977   7.120 -0.9244  0.3325  0.0784
  542MOL0     H71489   2.016   9.094   7.326  1.6515 -1.7378 -1.1675
  542MOL0     H71490   1.870   9.170   7.275 -0.4252 -0.6528  0.7824
  542MOL0     H71491   1.946   9.184   7.040  0.5604 -0.2240 -0.3325
  542MOL0     H71492   2.103   9.098   7.086 -0.0453  0.2943 -1.0565
  542MOL0     H71493   1.971   9.353   7.196 -0.1924  0.6256 -1.8663
  542MOL0     H71494   2.127   9.289   7.259  2.1658  1.9023 -1.4912
  542MOL0     H71495   2.228   9.337   7.048 -0.2146  1.3132 -0.8591
  542MOL0     H71496   2.167   9.484   7.121  0.0938  0.1188  0.1181
  542MOL0     H71497   1.917   9.551   7.028  1.1838 -1.2932  1.6767
  542MOL0     H71498   1.756   9.532   6.673  2.2046  0.9144  0.6115
  542MOL0     H71499   1.751   9.621   6.830  0.7582 -0.2644  0.9470
  542MOL0     H71500   1.642   9.416   6.932 -0.6977  0.6413  0.8087
  542MOL0     H71501   1.637   9.355   6.770  4.5838 -1.5035  1.3962
  542MOL0     H71502   1.500   9.609   6.864 -1.7778 -0.4329 -0.0352
  542MOL0     H71503   1.499   9.550   6.702 -0.6410  0.1914  0.1603
  542MOL0     H71504   1.293   9.499   6.809 -0.1874  0.5887 -0.2748
  542MOL0     H71505   1.381   9.415   6.940 -0.9859  1.1190  0.5372
  542MOL0     H71506   1.361   9.061   6.652 -1.5567  0.9771 -4.4253
  542MOL0     H71507   1.214   8.910   6.707 -1.4176 -0.1938 -0.2462
  542MOL0     H71508   0.781   8.993   7.152 -0.5878 -0.6013 -0.2728
  542MOL0     H71509   0.597   8.878   7.240  3.2640  1.4627  0.3226
  542MOL0     H71510   0.329   8.806   7.272 -0.0567  0.5255 -1.2527
  542MOL0     H71511   0.468   8.713   7.319 -1.5601 -0.5467  2.4307
  542MOL0     H71512   0.264   8.590   7.385 -2.0121 -2.5390 -0.6513
  542MOL0     H71513   0.374   8.506   7.277 -2.2354 -0.5296 -0.9014
  542MOL0     H71514   0.200   8.583   7.096  1.3324  1.5092 -0.6911
  542MOL0     H71515   0.104   8.620   7.248 -0.6633 -0.1982 -1.2251
  542MOL0     H71516   0.212   8.345   7.167 -1.6011  0.6972 -3.7015
  542MOL0     H71517   0.115   8.372   7.313 -0.6582 -2.3373 -1.2251
  542MOL0     H71518   0.005   8.448   7.041 -0.6904 -0.9063 -0.3706
  542MOL0     H71519  -0.061   8.455   7.200 -2.4536  2.0085 -3.3813
  542MOL0     H71520  -0.061   8.224   7.237  3.1424 -0.1364  1.3633
  542MOL0     H71521   0.043   8.192   7.095 -0.3658 -0.9843  0.5682
  542MOL0     H71522  -0.137   8.239   6.948 -1.8571  0.1152  0.0499
  542MOL0     H71523  -0.192   8.119   7.064  0.5647 -0.2673  4.4333
  542MOL0     H71524  -0.249   8.429   7.059 -1.1861 -0.2129 -3.5614
  542MOL0     H71525  -0.333   8.315   7.168 -1.0573 -1.5791 -0.8401
  542MOL0     H71526   0.528   8.695   6.858  2.3284 -2.0372  0.8466
  542MOL0     H71527   0.707   8.849   6.763 -0.4598  0.1188 -0.7039
  542MOL0     H71528   0.986   9.199   6.938  2.0866 -0.8415  3.5144
  542MOL0     H71529   1.147   9.366   6.886  0.1733 -1.1286  1.5281
  542MOL0     H71530   1.969   8.463   7.390 -0.6739  1.0211 -2.8229
  542MOL0     H71531   2.033   8.248   7.410 -0.8715  0.4758  0.8403
  542MOL0     H71532   1.721   7.806   7.650  0.0039 -2.6965  1.3759
  542MOL0     H71533   1.828   7.598   7.740  0.2360 -0.1424 -0.5947
  542MOL0     H71534   1.956   7.328   7.750 -0.2691  0.5995 -2.3363
  542MOL0     H71535   1.990   7.480   7.831  1.6725  1.1736 -0.9027
  542MOL0     H71536   2.159   7.260   7.738 -3.7583 -0.4914 -0.7260
  542MOL0     H71537   2.229   7.413   7.817  0.1519  0.3092  1.8574
  542MOL0     H71538   2.057   7.355   7.990 -0.9241 -0.8300 -1.0196
  542MOL0     H71539   2.220   7.304   8.001 -0.3148  1.9377 -0.2767
  542MOL0     H71540   2.140   7.076   7.888 -0.7679 -0.0342  0.1617
  542MOL0     H71541   2.101   7.105   8.060  1.7776  0.3936  0.2649
  542MOL0     H71542   1.734   7.124   7.825  0.7599 -3.4054 -0.7445
  542MOL0     H71543   2.124   7.624   7.436 -0.2849 -0.0070 -0.5422
  542MOL0     H71544   2.024   7.824   7.346  2.7799  0.8668  1.6507
  543MOL0     O71545   6.602  11.063   5.184 -0.4656 -0.1985  0.1309
  543MOL0     C71546   6.677  11.009   5.098  0.6801 -0.3289 -1.0284
  543MOL0     O71547   6.642  10.893   5.032  0.1079  0.0054 -0.6206
  543MOL0     C71548   6.540  10.822   5.085 -0.0924  0.5092  0.0672
  543MOL0     C71549   6.554  10.750   5.200 -0.2749 -0.0501  0.7847
  543MOL0     C71550   6.457  10.671   5.260  1.0175 -0.2154  1.0243
  543MOL0     C71551   6.335  10.657   5.185 -0.3352 -0.0869 -1.6011
  543MOL0     O71552   6.248  10.564   5.231 -0.1349  0.1250 -0.7141
  543MOL0     C71553   6.120  10.598   5.271 -0.6262 -0.1422 -0.0887
  543MOL0     C71554   6.121  10.675   5.398 -0.5348 -0.4764 -0.1659
  543MOL0     C71555   5.997  10.742   5.439  0.6826 -0.0763 -0.0813
  543MOL0     C71556   5.894  10.646   5.502  0.4116  0.4040  0.6525
  543MOL0     C71557   5.751  10.708   5.508  0.4542 -0.6268  0.4952
  543MOL0     C71558   5.636  10.612   5.561  0.1795  0.6895  0.1632
  543MOL0     C71559   5.504  10.693   5.568  0.2049 -0.4093  0.2820
  543MOL0     C71560   5.396  10.625   5.657  0.1545  0.1692  0.0634
  543MOL0     N71561   5.417  10.635   5.805 -0.2714  0.2718  0.6609
  543MOL0     C71562   5.459  10.523   5.878  0.6793 -0.1475 -0.0228
  543MOL0     C71563   5.465  10.577   5.999 -0.4954 -0.4485 -0.2927
  543MOL0     C71564   5.524  10.512   6.118 -0.0446  0.2129 -0.1671
  543MOL0     C71565   5.458  10.552   6.252 -0.4796  0.4222  0.0762
  543MOL0     C71566   5.328  10.473   6.283  0.1999 -0.2816  0.4996
  543MOL0     C71567   5.267  10.527   6.416 -0.1180 -0.1443 -0.7583
  543MOL0     O71568   5.142  10.460   6.452  0.2220  0.2380 -0.1865
  543MOL0     C71569   5.023  10.498   6.403 -0.9917 -0.0526  0.2921
  543MOL0     C71570   4.910  10.419   6.442  0.5328  0.4485 -0.7012
  543MOL0     C71571   4.790  10.437   6.381  0.4248  0.1479 -0.2675
  543MOL0     C71572   4.778  10.529   6.277 -0.0817  0.0953  0.6931
  543MOL0     C71573   4.643  10.553   6.222 -0.7128 -0.4203 -0.3397
  543MOL0     O71574   4.541  10.458   6.254  1.0753 -1.0723  0.5030
  543MOL0     C71575   4.414  10.482   6.204 -0.1370  0.4286  0.3976
  543MOL0     C71576   4.378  10.526   6.070  0.5953  0.7916 -0.0114
  543MOL0     C71577   4.244  10.526   6.032 -0.0110 -0.8470 -0.0774
  543MOL0     C71578   4.146  10.497   6.125 -0.3087  0.5863  1.3852
  543MOL0     O71579   4.014  10.502   6.086  0.7398 -0.9115 -0.1428
  543MOL0     C71580   3.947  10.380   6.084  0.9489  0.3679  0.1912
  543MOL0     C71581   3.966  10.304   5.954 -0.3445 -0.4753  0.0958
  543MOL0     C71582   3.928  10.384   5.833 -0.5971 -0.8208  0.0740
  543MOL0     C71583   3.974  10.331   5.695  0.6381 -0.3900 -1.0356
  543MOL0     C71584   3.868  10.218   5.673 -0.5518 -0.5237  1.3607
  543MOL0     C71585   3.921  10.123   5.567 -0.8686 -0.4558  0.1226
  543MOL0     C71586   3.923  10.177   5.428 -0.6127 -0.2941  0.8624
  543MOL0     C71587   4.060  10.201   5.378  0.3008 -0.1742  0.0647
  543MOL0    Cl71588   4.119  10.050   5.299 -0.0837 -0.0480  0.1134
  543MOL0     C71589   4.175  10.449   6.252  0.7124  0.8198  0.4421
  543MOL0     C71590   4.308  10.442   6.287  0.2442  0.4091 -0.9533
  543MOL0     O71591   4.640  10.654   6.144  0.5168 -0.2228  0.1395
  543MOL0     C71592   4.882  10.615   6.239 -0.8483  0.3794  0.6791
  543MOL0     C71593   5.002  10.600   6.309 -0.5328  0.4860 -0.2561
  543MOL0     N71594   5.422  10.709   6.001  0.1758 -0.6782 -0.7513
  543MOL0     N71595   5.387  10.732   5.886 -0.4286 -0.4283  0.3146
  543MOL0     C71596   6.317  10.720   5.069 -0.3902 -0.0154  0.1060
  543MOL0     C71597   6.416  10.801   5.013  0.1310 -0.6356 -0.4522
  543MOL0     C71598   6.804  11.070   5.069  0.9322  0.2783 -0.7056
  543MOL0     C71599   6.856  11.180   5.148  0.3299 -0.9123  0.6684
  543MOL0     C71600   6.984  11.234   5.120  0.4585 -0.1209  0.2256
  543MOL0     C71601   7.063  11.178   5.010  0.5806  0.3500 -0.5491
  543MOL0     O71602   7.193  11.218   4.982  0.2744 -0.6773  1.1319
  543MOL0     C71603   7.255  11.314   5.063  0.9260  0.7257 -0.0561
  543MOL0     C71604   7.213  11.459   5.028 -0.9218  0.0648  0.0606
  543MOL0     C71605   7.269  11.541   5.141  0.4592  0.5417  1.0004
  543MOL0     C71606   7.270  11.693   5.102 -0.1722 -0.4780 -0.7031
  543MOL0     C71607   7.347  11.752   5.214 -0.0547  0.1081 -0.2211
  543MOL0     C71608   7.395  11.807   5.310 -0.3208 -0.1544 -0.2674
  543MOL0     C71609   7.001  11.076   4.937  0.7273 -0.9294 -0.1925
  543MOL0     C71610   6.872  11.023   4.963 -0.3128 -0.0309  0.1709
  543MOL0     H71611   6.644  10.766   5.258 -0.0978 -1.9164  1.0872
  543MOL0     H71612   6.468  10.618   5.353 -0.9693 -0.3510  1.2322
  543MOL0     H71613   6.057  10.510   5.289 -0.2885 -0.6049 -1.0488
  543MOL0     H71614   6.078  10.654   5.186  1.6583  0.5405 -0.8267
  543MOL0     H71615   6.194  10.755   5.388 -0.9637 -0.3134 -2.3848
  543MOL0     H71616   6.145  10.604   5.478  1.0733 -1.8573 -1.7829
  543MOL0     H71617   5.964  10.793   5.348  1.0493 -1.1167 -0.8313
  543MOL0     H71618   6.005  10.819   5.515  3.5235 -0.1937 -0.1416
  543MOL0     H71619   5.887  10.557   5.439  0.1899  0.9269 -0.0716
  543MOL0     H71620   5.935  10.616   5.600  0.7750  0.8133  0.6317
  543MOL0     H71621   5.731  10.744   5.406 -0.3593  0.2747  0.9619
  543MOL0     H71622   5.757  10.800   5.567 -1.6702  0.1625 -0.4091
  543MOL0     H71623   5.655  10.587   5.666 -0.7175  0.5331  0.2894
  543MOL0     H71624   5.630  10.535   5.484  2.4049  1.0940 -0.5086
  543MOL0     H71625   5.527  10.792   5.610  2.0936 -0.0532 -1.4470
  543MOL0     H71626   5.464  10.703   5.467 -0.9133  0.5572  0.7854
  543MOL0     H71627   5.381  10.519   5.639 -1.0752 -0.2928  3.1643
  543MOL0     H71628   5.301  10.677   5.641 -0.0132 -0.0133  0.4534
  543MOL0     H71629   5.496  10.427   5.846 -0.3766 -1.7094  3.0842
  543MOL0     H71630   5.625  10.553   6.127 -1.0512  2.3943  2.8578
  543MOL0     H71631   5.531  10.403   6.111  0.2905 -0.0794  3.1883
  543MOL0     H71632   5.445  10.658   6.276  1.5553  0.5824  0.6704
  543MOL0     H71633   5.518  10.519   6.337 -1.0852 -1.1576 -0.0792
  543MOL0     H71634   5.255  10.494   6.204  0.0006  2.3154  1.2692
  543MOL0     H71635   5.352  10.368   6.300 -1.9772 -0.7484  0.9977
  543MOL0     H71636   5.250  10.634   6.407  2.1408  0.1225 -2.5543
  543MOL0     H71637   5.343  10.506   6.492 -0.1409 -1.2889 -1.0301
  543MOL0     H71638   4.930  10.348   6.523  0.1141  0.9700 -0.1292
  543MOL0     H71639   4.712  10.373   6.421 -1.2373  0.6229 -2.5867
  543MOL0     H71640   4.464  10.549   6.008 -0.5289  2.2580 -1.1075
  543MOL0     H71641   4.211  10.559   5.934  0.2421 -1.6493 -0.4396
  543MOL0     H71642   3.841  10.402   6.098  1.4831  1.6679  2.7498
  543MOL0     H71643   3.982  10.316   6.166 -0.6986 -0.5453  0.2247
  543MOL0     H71644   3.916  10.208   5.967  1.3109 -1.3585  0.1477
  543MOL0     H71645   4.072  10.279   5.958 -0.7642 -2.3598  0.1076
  543MOL0     H71646   3.956  10.490   5.833  0.6420 -1.1288 -0.5463
  543MOL0     H71647   3.819  10.384   5.838 -0.5780 -1.4835  0.6014
  543MOL0     H71648   3.957  10.405   5.616 -0.3350 -2.9399 -3.3749
  543MOL0     H71649   4.077  10.296   5.695  1.4308  1.6428 -3.4454
  543MOL0     H71650   3.776  10.255   5.628 -0.1053 -1.2019 -0.1794
  543MOL0     H71651   3.848  10.157   5.761 -0.6334 -0.6363  1.2640
  543MOL0     H71652   3.866  10.029   5.565 -0.0870 -0.9605  1.2827
  543MOL0     H71653   4.020  10.089   5.601 -0.6635 -0.3388 -0.3522
  543MOL0     H71654   3.866  10.117   5.358 -2.3610  0.1498  1.8399
  543MOL0     H71655   3.876  10.276   5.430  0.6645  0.3426  0.4335
  543MOL0     H71656   4.132  10.235   5.453  0.5802  0.7755 -0.6051
  543MOL0     H71657   4.062  10.283   5.306  1.6398  2.0464  2.4692
  543MOL0     H71658   4.102  10.423   6.328  0.3799  0.8846  0.1478
  543MOL0     H71659   4.332  10.417   6.389  0.0447  0.4103 -0.9067
  543MOL0     H71660   4.871  10.692   6.164 -3.5806 -0.1750  0.3982
  543MOL0     H71661   5.087  10.660   6.278  0.5038 -0.4270  0.7022
  543MOL0     H71662   6.232  10.701   5.005 -2.5696  0.5687  2.6456
  543MOL0     H71663   6.397  10.848   4.917  1.6060  0.6447 -0.1696
  543MOL0     H71664   6.798  11.220   5.231 -1.7617 -0.8653 -0.7232
  543MOL0     H71665   7.012  11.320   5.179 -1.1849  1.6387 -1.4361
  543MOL0     H71666   7.361  11.304   5.036  0.4891 -1.3995 -1.2606
  543MOL0     H71667   7.248  11.299   5.171 -0.6628 -1.1731 -0.3471
  543MOL0     H71668   7.266  11.484   4.936  0.5917 -1.4283  0.4771
  543MOL0     H71669   7.104  11.464   5.015 -1.0878 -2.8194 -0.4365
  543MOL0     H71670   7.368  11.506   5.171  0.5255  1.1119  1.4596
  543MOL0     H71671   7.200  11.522   5.224  2.1818 -0.9016  2.1873
  543MOL0     H71672   7.307  11.729   5.006  1.1054  1.9891  0.6311
  543MOL0     H71673   7.165  11.723   5.105 -0.1907 -0.5958  0.2156
  543MOL0     H71674   7.452  11.853   5.388 -2.5553  0.5728  1.0014
  543MOL0     H71675   7.074  11.035   4.869  2.3186 -0.6884  1.2800
  543MOL0     H71676   6.826  10.946   4.902 -1.9509 -0.9648  2.4472
  544MOL0     O71677   0.159   2.875   5.965  0.3015 -0.5249 -0.1969
  544MOL0     C71678   0.153   2.982   6.020 -0.1672  0.1952 -0.1489
  544MOL0     O71679   0.044   3.054   6.044  0.1722  0.7657  0.3271
  544MOL0     C71680  -0.082   3.018   5.999  0.3713  0.3903  0.2383
  544MOL0     C71681  -0.099   2.983   5.867  0.1198 -0.3141 -0.7229
  544MOL0     C71682  -0.220   2.956   5.820  0.6430  0.4986  0.3971
  544MOL0     C71683  -0.334   2.966   5.901  0.3806 -0.9450 -0.5171
  544MOL0     O71684  -0.461   2.952   5.854  0.6927 -0.4267  0.0615
  544MOL0     C71685  -0.574   2.939   5.933  0.0611  0.7188 -0.0223
  544MOL0     C71686  -0.682   2.902   5.836 -0.0565  0.1031  0.7431
  544MOL0     C71687  -0.813   2.869   5.903  0.2171  0.1573  0.2836
  544MOL0     C71688  -0.915   2.844   5.792 -0.4206  0.4302 -0.4207
  544MOL0     C71689  -1.046   2.775   5.832  0.2088  0.3813 -0.1640
  544MOL0     C71690  -1.135   2.746   5.716 -0.3948 -0.0765 -0.3115
  544MOL0     C71691  -1.270   2.678   5.745 -0.1210  0.4217 -0.3202
  544MOL0     C71692  -1.357   2.671   5.616  0.4156  0.0069  0.5699
  544MOL0     N71693  -1.462   2.568   5.642  0.1311 -0.2808 -0.4917
  544MOL0     C71694  -1.583   2.586   5.706 -0.2879 -0.4496  0.2030
  544MOL0     C71695  -1.645   2.465   5.710 -0.1615 -0.2249 -0.5974
  544MOL0     C71696  -1.782   2.449   5.758 -0.1473  0.3932 -0.7820
  544MOL0     C71697  -1.884   2.445   5.637  0.1675 -0.5539  0.5480
  544MOL0     C71698  -2.025   2.438   5.692 -0.6786  0.1844 -0.2534
  544MOL0     C71699  -2.074   2.293   5.698 -0.5975  0.9644  0.6174
  544MOL0     O71700  -2.204   2.274   5.763 -0.2611 -0.6840  0.1330
  544MOL0     C71701  -2.267   2.160   5.755  0.4834 -0.4419 -0.2253
  544MOL0     C71702  -2.215   2.045   5.685 -0.4859 -0.0329 -0.2009
  544MOL0     C71703  -2.291   1.930   5.667  0.6324  0.3567  0.5147
  544MOL0     C71704  -2.419   1.920   5.738 -0.1834 -1.1714 -0.4923
  544MOL0     C71705  -2.493   1.793   5.725 -0.5214  0.0662  0.0760
  544MOL0     O71706  -2.445   1.705   5.635 -0.6670 -0.6090  0.5096
  544MOL0     C71707  -2.509   1.583   5.613 -0.2712  0.2609 -0.0224
  544MOL0     C71708  -2.645   1.574   5.603  0.0255 -0.7524 -0.9557
  544MOL0     C71709  -2.711   1.457   5.564 -0.0661  1.2186 -0.1303
  544MOL0     C71710  -2.626   1.345   5.528  1.0430 -0.0437  0.2129
  544MOL0     O71711  -2.692   1.220   5.500 -0.6524 -0.8307 -0.1532
  544MOL0     C71712  -2.630   1.135   5.404  0.2910  0.2245 -0.7477
  544MOL0     C71713  -2.725   1.031   5.341  0.9375 -0.3195 -0.1761
  544MOL0     C71714  -2.852   1.082   5.275  0.0356  0.0802  0.2164
  544MOL0     C71715  -2.947   0.968   5.252 -0.9448  0.2472 -0.3558
  544MOL0     C71716  -3.042   0.990   5.129  0.4136 -0.6508  0.0632
  544MOL0     C71717  -3.162   1.067   5.175  0.1315 -0.1137  0.0171
  544MOL0     C71718  -3.250   1.098   5.050  0.4031 -0.0020  0.3560
  544MOL0     C71719  -3.368   1.190   5.100 -0.0348 -0.0045 -0.3506
  544MOL0    Cl71720  -3.474   1.068   5.177 -0.2380  0.3518  0.4403
  544MOL0     C71721  -2.491   1.359   5.524  0.3072  0.1539 -0.8027
  544MOL0     C71722  -2.433   1.475   5.565 -0.9989  0.6123 -0.4938
  544MOL0     O71723  -2.586   1.771   5.806  0.8304  1.0143 -0.5318
  544MOL0     C71724  -2.464   2.036   5.807 -0.0659 -0.4268 -0.9709
  544MOL0     C71725  -2.390   2.158   5.815 -0.1361 -0.1398  0.4842
  544MOL0     N71726  -1.560   2.380   5.645  0.1233  0.5587 -0.7187
  544MOL0     N71727  -1.454   2.433   5.607 -0.3673  0.3676  0.0425
  544MOL0     C71728  -0.315   3.004   6.039  0.0760  0.2110  0.4584
  544MOL0     C71729  -0.190   3.038   6.084 -0.0021 -0.4900  0.3931
  544MOL0     C71730   0.281   3.047   6.066  0.6996  0.1064  0.3469
  544MOL0     C71731   0.276   3.173   6.127 -0.5910 -0.4755 -0.1149
  544MOL0     C71732   0.395   3.235   6.175  0.5790  0.7796 -0.4351
  544MOL0     C71733   0.511   3.162   6.164 -0.3323 -0.1892  0.0187
  544MOL0     O71734   0.630   3.219   6.176 -0.1240  0.0117  0.3841
  544MOL0     C71735   0.660   3.291   6.292  0.0974 -0.6864 -0.0316
  544MOL0     C71736   0.805   3.274   6.337  0.2808  0.2880  0.2316
  544MOL0     C71737   0.896   3.333   6.222 -0.5974  0.6373  0.0139
  544MOL0     C71738   1.045   3.327   6.256  0.3072 -0.2284 -0.9072
  544MOL0     C71739   1.115   3.397   6.151 -0.3982 -0.1737  0.3536
  544MOL0     C71740   1.182   3.448   6.064  0.4303  0.3893  0.2463
  544MOL0     C71741   0.508   3.033   6.104 -0.4985 -1.1834 -0.5746
  544MOL0     C71742   0.396   2.976   6.053  0.1852 -0.5613 -0.8917
  544MOL0     H71743  -0.008   2.971   5.809  0.9970 -1.2907  0.8058
  544MOL0     H71744  -0.233   2.925   5.717  0.6533  1.2082  0.1753
  544MOL0     H71745  -0.603   3.031   5.985  0.1250 -0.6241  2.5451
  544MOL0     H71746  -0.563   2.858   6.006 -0.9323 -3.6439 -4.2577
  544MOL0     H71747  -0.639   2.819   5.778  0.3695  0.6447  0.2677
  544MOL0     H71748  -0.690   2.982   5.763  0.6137  0.8050  1.4198
  544MOL0     H71749  -0.845   2.946   5.974 -2.8363 -0.5405 -0.2147
  544MOL0     H71750  -0.791   2.779   5.961 -2.8553 -0.0649  1.2869
  544MOL0     H71751  -0.937   2.939   5.743 -1.5219 -1.1188 -3.1226
  544MOL0     H71752  -0.870   2.768   5.728 -3.4755 -2.2443  0.3742
  544MOL0     H71753  -1.106   2.827   5.907 -1.3713  1.0600 -1.8277
  544MOL0     H71754  -1.025   2.674   5.870 -2.8735  0.0901  1.0904
  544MOL0     H71755  -1.073   2.686   5.649  0.2732  2.3953 -2.0315
  544MOL0     H71756  -1.159   2.842   5.671  0.5306 -1.4310 -4.0104
  544MOL0     H71757  -1.243   2.576   5.772  1.3103  1.1375  1.1197
  544MOL0     H71758  -1.323   2.731   5.825  0.6666 -0.8965  1.1382
  544MOL0     H71759  -1.304   2.634   5.528 -1.0910 -0.1059 -0.3319
  544MOL0     H71760  -1.411   2.759   5.578 -1.3584 -0.7323  1.2638
  544MOL0     H71761  -1.629   2.670   5.757 -1.3696 -1.4669  0.9346
  544MOL0     H71762  -1.808   2.534   5.822  0.5370  0.1225 -0.1387
  544MOL0     H71763  -1.790   2.362   5.823  0.9548  0.4352 -0.5717
  544MOL0     H71764  -1.875   2.361   5.567  0.2112 -1.7899  2.0031
  544MOL0     H71765  -1.867   2.541   5.587  0.4569 -0.3190  1.0912
  544MOL0     H71766  -2.036   2.476   5.794  0.7154  0.0123 -0.0194
  544MOL0     H71767  -2.093   2.488   5.622 -1.2186  1.5033  1.1530
  544MOL0     H71768  -1.991   2.235   5.738 -2.4237 -3.2255 -1.0343
  544MOL0     H71769  -2.066   2.268   5.592  1.9198  2.4762  0.3712
  544MOL0     H71770  -2.117   2.051   5.639 -0.8208  2.2129 -0.7438
  544MOL0     H71771  -2.247   1.853   5.604  0.7726  0.1385  0.8750
  544MOL0     H71772  -2.708   1.655   5.638  0.8383 -0.6289  0.3008
  544MOL0     H71773  -2.819   1.445   5.563 -0.1055  1.1635 -3.3223
  544MOL0     H71774  -2.551   1.080   5.455 -1.1036  0.6617  2.1580
  544MOL0     H71775  -2.578   1.195   5.329  1.4276  2.1381  1.4319
  544MOL0     H71776  -2.768   0.965   5.417  1.8310 -0.8767 -0.1417
  544MOL0     H71777  -2.672   0.965   5.271  1.9804  0.4348 -0.1233
  544MOL0     H71778  -2.828   1.127   5.178 -0.4516 -1.1483 -0.5059
  544MOL0     H71779  -2.900   1.156   5.340  1.2972 -0.2547  1.5632
  544MOL0     H71780  -2.893   0.874   5.234 -1.5373 -0.8685  2.9499
  544MOL0     H71781  -2.998   0.959   5.349  0.8327  2.7270  0.9009
  544MOL0     H71782  -3.081   0.896   5.091 -1.3297 -0.4327  1.1997
  544MOL0     H71783  -2.996   1.045   5.046 -1.2900 -0.1496 -0.5978
  544MOL0     H71784  -3.130   1.164   5.213  0.7838  0.0061 -0.8167
  544MOL0     H71785  -3.211   1.019   5.260  0.1542  2.2803  1.4603
  544MOL0     H71786  -3.183   1.142   4.975  0.0332  1.0612  0.6292
  544MOL0     H71787  -3.293   1.011   5.000 -2.5070  0.5355  1.6921
  544MOL0     H71788  -3.428   1.225   5.016 -0.6331 -0.0935  0.0307
  544MOL0     H71789  -3.352   1.278   5.162  1.1064  2.5912 -4.0252
  544MOL0     H71790  -2.426   1.277   5.497 -1.0282 -1.4331  0.5918
  544MOL0     H71791  -2.324   1.474   5.567 -0.9877 -0.3754 -1.0945
  544MOL0     H71792  -2.555   2.035   5.866  0.5850  0.8077  0.0958
  544MOL0     H71793  -2.428   2.240   5.875 -3.2817 -0.9203 -0.2608
  544MOL0     H71794  -0.389   3.016   6.117  0.8914 -1.9976  1.6481
  544MOL0     H71795  -0.176   3.061   6.189 -0.9436 -3.2247  1.1984
  544MOL0     H71796   0.190   3.238   6.143  0.8600  1.3693  0.6323
  544MOL0     H71797   0.389   3.337   6.213 -3.0085  0.4459  0.2114
  544MOL0     H71798   0.601   3.243   6.371 -1.7747 -0.2324 -1.0857
  544MOL0     H71799   0.621   3.390   6.263 -2.3138 -1.4889  0.2139
  544MOL0     H71800   0.829   3.335   6.425  0.9955 -2.6608  2.2344
  544MOL0     H71801   0.837   3.173   6.361 -0.2838 -0.0020 -0.2216
  544MOL0     H71802   0.876   3.439   6.205 -1.7994  0.2756 -0.9514
  544MOL0     H71803   0.897   3.269   6.133  0.6251  0.3476  0.2155
  544MOL0     H71804   1.063   3.367   6.356  2.9248 -1.7779 -0.6769
  544MOL0     H71805   1.078   3.223   6.257  1.1666  0.0267  0.5041
  544MOL0     H71806   1.245   3.500   5.995  1.7478 -1.1120  0.2564
  544MOL0     H71807   0.607   2.987   6.102 -0.1616 -0.5357  0.1756
  544MOL0     H71808   0.409   2.884   5.997 -0.2355 -1.5541  0.5881
  545MOL0     O71809   6.370   0.769   4.994 -0.3009 -0.3726 -0.2297
  545MOL0     C71810   6.399   0.886   4.969 -0.4583 -0.7034  0.3392
  545MOL0     O71811   6.323   0.960   4.883  0.1544  0.1847  0.7288
  545MOL0     C71812   6.196   0.936   4.855  0.1227 -0.2228 -0.6612
  545MOL0     C71813   6.105   0.894   4.955 -0.7350  0.1550  0.3986
  545MOL0     C71814   5.973   0.877   4.920 -0.1492  0.4589  0.4235
  545MOL0     C71815   5.926   0.897   4.787  0.9069  0.4184  0.2003
  545MOL0     O71816   5.793   0.893   4.747 -0.7159  0.5522 -0.4425
  545MOL0     C71817   5.695   0.822   4.828 -0.3679  0.2605 -0.7045
  545MOL0     C71818   5.553   0.864   4.780  0.4357  0.4569 -0.4596
  545MOL0     C71819   5.444   0.790   4.844  0.5581  0.0065  0.2130
  545MOL0     C71820   5.309   0.836   4.794  0.1800 -0.0959  0.4392
  545MOL0     C71821   5.269   0.979   4.843  0.0233  1.1581  0.4559
  545MOL0     C71822   5.111   0.997   4.823 -0.0946  0.4373 -0.1539
  545MOL0     C71823   5.070   1.133   4.889 -0.0114  0.2421 -0.0549
  545MOL0     C71824   5.063   1.138   5.038 -0.9523  0.4500  0.1873
  545MOL0     N71825   5.027   1.266   5.096  0.4959 -0.0555  0.0297
  545MOL0     C71826   5.071   1.392   5.055  0.0773  0.7727  0.0544
  545MOL0     C71827   5.031   1.478   5.155  0.8854 -0.0620 -0.7066
  545MOL0     C71828   5.065   1.624   5.169 -0.0248  0.4549  0.4765
  545MOL0     C71829   5.104   1.662   5.315 -0.5307 -0.2295 -0.0470
  545MOL0     C71830   5.122   1.810   5.342  0.3664 -0.0111 -0.0770
  545MOL0     C71831   5.204   1.832   5.465  0.5205  0.7237  0.3551
  545MOL0     O71832   5.211   1.972   5.491  0.0675  0.3520 -0.0426
  545MOL0     C71833   5.299   2.014   5.586 -0.6858  0.1189 -0.3257
  545MOL0     C71834   5.289   2.144   5.613 -0.0129 -0.5418  0.2298
  545MOL0     C71835   5.371   2.212   5.705 -0.9376 -1.0880  0.3213
  545MOL0     C71836   5.468   2.147   5.781  0.6030  0.2104  0.2774
  545MOL0     C71837   5.528   2.222   5.885 -0.2746 -0.0644 -0.1081
  545MOL0     O71838   5.614   2.150   5.966  0.8574 -0.2419  0.1469
  545MOL0     C71839   5.659   2.200   6.082  0.0254 -0.5208  0.1676
  545MOL0     C71840   5.760   2.299   6.097  0.1109 -0.4518 -0.0645
  545MOL0     C71841   5.818   2.313   6.220  0.4641  0.4713  0.3086
  545MOL0     C71842   5.779   2.236   6.333  0.7953  0.7966  0.5244
  545MOL0     O71843   5.832   2.268   6.449 -0.5837 -0.6053  0.6590
  545MOL0     C71844   5.954   2.192   6.472  0.2917 -0.6717  0.0170
  545MOL0     C71845   6.048   2.269   6.569 -0.8619  0.3064 -0.2649
  545MOL0     C71846   5.991   2.277   6.704  0.6204  0.2439 -0.6915
  545MOL0     C71847   5.993   2.137   6.773  0.0369 -1.0435  0.1080
  545MOL0     C71848   5.956   2.158   6.922  0.6452 -0.7866 -0.1920
  545MOL0     C71849   6.080   2.205   7.006 -0.0850  0.2450 -0.4669
  545MOL0     C71850   6.046   2.240   7.150 -0.3116 -0.0872 -0.1619
  545MOL0     C71851   6.075   2.110   7.237 -0.1327  0.1893  0.2312
  545MOL0    Cl71852   5.963   1.978   7.208 -0.3941  0.2616 -0.1603
  545MOL0     C71853   5.685   2.139   6.311  0.4699  0.1824  0.4561
  545MOL0     C71854   5.626   2.115   6.190 -0.9689  0.5541  0.1343
  545MOL0     O71855   5.516   2.345   5.895  0.0076 -0.0175  0.2841
  545MOL0     C71856   5.476   2.007   5.765 -0.0221 -0.1013 -0.3878
  545MOL0     C71857   5.397   1.940   5.665  0.3037 -0.1284 -0.1504
  545MOL0     N71858   4.953   1.409   5.244 -0.9990  0.5056  0.1277
  545MOL0     N71859   4.945   1.288   5.209 -0.2668  0.2452  0.3968
  545MOL0     C71860   6.017   0.938   4.693  0.3196  0.4687 -0.0336
  545MOL0     C71861   6.152   0.968   4.726 -0.0286 -1.1155  0.0158
  545MOL0     C71862   6.518   0.948   5.029 -0.4750 -0.3414  1.1329
  545MOL0     C71863   6.549   1.076   4.993  0.1183 -0.2811 -0.0542
  545MOL0     C71864   6.675   1.127   5.039  1.3644 -0.1284  0.0816
  545MOL0     C71865   6.766   1.053   5.109  0.1258  0.7245  0.1726
  545MOL0     O71866   6.886   1.115   5.142 -0.1057 -0.3587  0.7307
  545MOL0     C71867   6.991   1.045   5.218 -0.1730 -0.3160 -0.3827
  545MOL0     C71868   7.085   0.955   5.132 -0.0975 -0.1528  0.2949
  545MOL0     C71869   7.181   1.035   5.042  0.3587 -0.5077 -0.2796
  545MOL0     C71870   7.298   1.098   5.120 -0.5237  0.4363 -0.5771
  545MOL0     C71871   7.391   0.998   5.191  1.0237 -0.0004 -0.0352
  545MOL0     C71872   7.468   0.920   5.244  0.1304 -0.5950 -0.0847
  545MOL0     C71873   6.737   0.922   5.144  0.5114  0.4629  0.4661
  545MOL0     C71874   6.613   0.875   5.099 -0.2138  0.3345 -0.4429
  545MOL0     H71875   6.142   0.872   5.055 -2.0768  0.0660  0.8997
  545MOL0     H71876   5.901   0.832   4.989  0.0561 -2.2532 -1.0034
  545MOL0     H71877   5.707   0.835   4.936  1.1838 -2.0020 -0.5408
  545MOL0     H71878   5.711   0.716   4.808 -0.7024  0.2224 -0.7791
  545MOL0     H71879   5.554   0.858   4.671  0.8468  0.0306 -0.4380
  545MOL0     H71880   5.546   0.969   4.811 -3.4402  0.2031  0.0479
  545MOL0     H71881   5.445   0.811   4.951 -1.5804  3.3812 -0.2618
  545MOL0     H71882   5.458   0.682   4.836  0.6782  0.0955 -0.9869
  545MOL0     H71883   5.310   0.833   4.685  0.8843  1.6469  0.3675
  545MOL0     H71884   5.229   0.767   4.822  0.0284  0.3316  1.0695
  545MOL0     H71885   5.321   1.058   4.788 -0.3834 -0.1926 -2.0269
  545MOL0     H71886   5.300   0.992   4.947  0.0268  2.0398  0.3481
  545MOL0     H71887   5.058   0.915   4.873 -0.5195  2.2069  2.4875
  545MOL0     H71888   5.094   0.982   4.716 -1.9790  0.5194  0.1057
  545MOL0     H71889   5.143   1.204   4.848  0.3204 -0.8206 -1.3615
  545MOL0     H71890   4.973   1.159   4.845 -0.1101 -0.3018 -0.1637
  545MOL0     H71891   5.158   1.105   5.081 -0.9283 -3.4516 -2.3519
  545MOL0     H71892   4.980   1.070   5.062 -0.4737  0.3177  1.5898
  545MOL0     H71893   5.130   1.401   4.965  0.5970  0.0380  0.3074
  545MOL0     H71894   4.983   1.688   5.135  0.2738 -0.5843 -2.5321
  545MOL0     H71895   5.156   1.641   5.110  0.4189  0.5182  1.1649
  545MOL0     H71896   5.193   1.609   5.350  0.6673  1.6819 -0.0776
  545MOL0     H71897   5.007   1.632   5.356 -1.3465  0.1465 -1.6174
  545MOL0     H71898   5.159   1.868   5.257  1.5542  0.4295  0.7321
  545MOL0     H71899   5.019   1.839   5.365  0.0094 -2.3687  1.6614
  545MOL0     H71900   5.307   1.805   5.442  0.1510 -0.5087  0.1115
  545MOL0     H71901   5.159   1.780   5.551  0.1011  0.8601  0.2229
  545MOL0     H71902   5.216   2.201   5.557  0.5323 -0.0958 -0.0373
  545MOL0     H71903   5.345   2.316   5.720 -3.5584 -1.2203 -2.4491
  545MOL0     H71904   5.797   2.364   6.018 -1.5922  3.6534  2.2194
  545MOL0     H71905   5.890   2.391   6.245  2.1485 -0.5532 -1.1068
  545MOL0     H71906   6.001   2.170   6.376  0.8463 -1.5031  0.4680
  545MOL0     H71907   5.929   2.092   6.509  1.8871 -0.8388  0.6945
  545MOL0     H71908   6.054   2.370   6.528 -0.9471 -0.5702 -2.5542
  545MOL0     H71909   6.150   2.232   6.583 -0.7061 -1.1201 -3.9367
  545MOL0     H71910   5.888   2.314   6.699 -0.8947 -3.5786 -1.0259
  545MOL0     H71911   6.054   2.346   6.761  0.9816  0.7840 -1.7296
  545MOL0     H71912   5.919   2.068   6.733  0.6181 -1.9647  0.5816
  545MOL0     H71913   6.092   2.092   6.765  0.6609  0.2787  0.1097
  545MOL0     H71914   5.919   2.060   6.955 -0.0706 -1.2670 -2.2708
  545MOL0     H71915   5.871   2.226   6.925  0.1295 -1.4545  1.5796
  545MOL0     H71916   6.128   2.289   6.955 -1.4790  1.0710 -0.4726
  545MOL0     H71917   6.146   2.118   7.006  0.8986  0.8980  2.1294
  545MOL0     H71918   6.105   2.318   7.199 -1.2823 -0.0700  1.0399
  545MOL0     H71919   5.940   2.259   7.171 -0.5371  0.0854 -1.3870
  545MOL0     H71920   6.081   2.135   7.344  1.4021 -4.0276  1.3619
  545MOL0     H71921   6.177   2.073   7.220  0.1599  0.2458  1.7277
  545MOL0     H71922   5.652   2.093   6.403  0.3883 -0.9746 -0.1353
  545MOL0     H71923   5.547   2.041   6.176 -1.4286  1.0690 -0.0426
  545MOL0     H71924   5.542   1.945   5.825 -1.3617  0.6781  1.9970
  545MOL0     H71925   5.410   1.837   5.634  0.4865 -0.4936  1.1009
  545MOL0     H71926   5.988   0.959   4.590  2.7380 -2.0275 -1.3851
  545MOL0     H71927   6.228   1.002   4.656  1.8143  0.5120  2.6060
  545MOL0     H71928   6.487   1.136   4.927 -0.7317  0.0237  0.9928
  545MOL0     H71929   6.717   1.226   5.025  2.4526 -0.5017  0.5909
  545MOL0     H71930   6.939   0.989   5.296 -4.1506  3.5685  0.1814
  545MOL0     H71931   7.055   1.121   5.266 -2.2664  0.4047  1.4205
  545MOL0     H71932   7.151   0.897   5.197 -0.5108 -2.1171 -0.9685
  545MOL0     H71933   7.030   0.887   5.067 -1.7648  1.8499 -0.4917
  545MOL0     H71934   7.124   1.101   4.977  0.2834  1.4279  1.6384
  545MOL0     H71935   7.236   0.967   4.975  0.1660 -1.7442  0.7643
  545MOL0     H71936   7.354   1.164   5.053  2.5736 -0.7121  0.7121
  545MOL0     H71937   7.262   1.176   5.187  0.2736  1.3486 -1.1970
  545MOL0     H71938   7.523   0.850   5.303 -0.0737 -0.4509  0.2761
  545MOL0     H71939   6.809   0.865   5.203 -0.3807  2.0580  3.3183
  545MOL0     H71940   6.590   0.773   5.127 -0.1035  0.3905 -0.1502
  546MOL0     O71941   5.328   6.072   0.279  0.1542  0.9487  0.0279
  546MOL0     C71942   5.395   6.088   0.377  0.5608  0.1656 -0.2404
  546MOL0     O71943   5.361   6.163   0.488 -0.0229  0.3688 -0.1634
  546MOL0     C71944   5.233   6.212   0.479 -0.1205  0.0032 -0.1623
  546MOL0     C71945   5.158   6.188   0.592  0.2018  0.2781 -0.5386
  546MOL0     C71946   5.022   6.234   0.599 -0.1228 -0.9598  0.4150
  546MOL0     C71947   4.971   6.310   0.492  0.9738  0.4296  0.5357
  546MOL0     O71948   4.833   6.346   0.491 -0.2050  0.7631 -0.0847
  546MOL0     C71949   4.744   6.307   0.592 -0.3030 -0.0339 -0.5917
  546MOL0     C71950   4.610   6.378   0.562 -0.5355 -0.6788 -0.4252
  546MOL0     C71951   4.501   6.343   0.659 -0.0575  0.2117 -0.7878
  546MOL0     C71952   4.390   6.450   0.685 -0.3960 -0.0907 -0.8026
  546MOL0     C71953   4.273   6.409   0.781  0.0535  0.1653 -0.6313
  546MOL0     C71954   4.162   6.515   0.783  0.0166  0.5177  0.1514
  546MOL0     C71955   4.029   6.462   0.829  0.8537  0.2584 -0.1798
  546MOL0     C71956   3.914   6.544   0.788  0.5680 -0.7363  0.3711
  546MOL0     N71957   3.795   6.474   0.832 -0.7358 -0.0249 -0.2357
  546MOL0     C71958   3.747   6.477   0.960  1.5144  0.1446 -0.0460
  546MOL0     C71959   3.628   6.404   0.958  0.1275 -0.5425  0.5295
  546MOL0     C71960   3.530   6.374   1.072 -0.2533  0.2623  0.1454
  546MOL0     C71961   3.590   6.261   1.162  0.2588  0.3705 -0.1477
  546MOL0     C71962   3.524   6.258   1.302 -0.2939  0.5896  0.9604
  546MOL0     C71963   3.373   6.251   1.297  0.2051 -0.2711 -0.1941
  546MOL0     O71964   3.321   6.208   1.426  0.1159  0.0388 -0.5537
  546MOL0     C71965   3.264   6.081   1.436  0.1398  0.6942  0.1692
  546MOL0     C71966   3.243   6.035   1.563 -0.2562  0.5371  0.7399
  546MOL0     C71967   3.172   5.923   1.590  0.1513 -0.1694 -0.5836
  546MOL0     C71968   3.098   5.854   1.487 -0.1228  0.0612 -0.4452
  546MOL0     C71969   2.995   5.743   1.527  0.1162  0.2486 -0.5098
  546MOL0     O71970   2.907   5.702   1.426  0.5941 -0.2094 -0.4480
  546MOL0     C71971   2.812   5.606   1.445  0.5070 -0.9080 -0.4715
  546MOL0     C71972   2.847   5.478   1.458  0.1083  1.0130  1.6017
  546MOL0     C71973   2.746   5.376   1.471  0.2393  0.3445 -0.5778
  546MOL0     C71974   2.610   5.414   1.477  0.1910 -0.3171 -0.0522
  546MOL0     O71975   2.513   5.321   1.493 -0.5649 -0.4129  0.3636
  546MOL0     C71976   2.377   5.363   1.488  0.3446 -0.2410  0.4244
  546MOL0     C71977   2.286   5.246   1.490 -0.8441  1.1219 -0.3043
  546MOL0     C71978   2.136   5.281   1.513 -0.6519  0.4148  0.2353
  546MOL0     C71979   2.045   5.161   1.525  0.5284 -0.2565  0.0289
  546MOL0     C71980   1.899   5.215   1.506 -0.2843 -0.9321 -0.1917
  546MOL0     C71981   1.802   5.103   1.498 -0.3366  0.0304  0.3473
  546MOL0     C71982   1.677   5.167   1.453  0.2325  0.9053  0.0415
  546MOL0     C71983   1.562   5.060   1.461 -0.0226 -0.7662 -0.3642
  546MOL0    Cl71984   1.414   5.125   1.397 -0.1700 -0.1067  0.2273
  546MOL0     C71985   2.574   5.549   1.478  0.1040 -0.6262 -0.8774
  546MOL0     C71986   2.678   5.647   1.467  0.3941  0.6176 -1.0030
  546MOL0     O71987   2.992   5.709   1.644  0.0427  0.0251  0.2250
  546MOL0     C71988   3.127   5.892   1.349 -0.8961 -0.0752  0.6749
  546MOL0     C71989   3.206   6.007   1.330 -0.3984  0.6799  1.2430
  546MOL0     N71990   3.613   6.355   0.832 -0.5744 -0.3233 -0.3975
  546MOL0     N71991   3.705   6.407   0.754 -0.0428 -0.0295  0.0460
  546MOL0     C71992   5.061   6.349   0.385 -0.6108 -0.4437  0.3443
  546MOL0     C71993   5.187   6.304   0.380 -0.2259  1.1636  0.9328
  546MOL0     C71994   5.525   6.009   0.378 -0.2280  0.2557 -0.8309
  546MOL0     C71995   5.605   5.992   0.497  0.0285  0.4632 -0.0394
  546MOL0     C71996   5.728   5.921   0.494 -0.7207  0.2778 -0.4153
  546MOL0     C71997   5.763   5.838   0.394  0.3161  0.4492 -0.8360
  546MOL0     O71998   5.869   5.744   0.401  0.2533 -0.6969  0.2866
  546MOL0     C71999   5.928   5.710   0.526 -0.6336 -0.4757 -0.0094
  546MOL0     C72000   6.024   5.584   0.502 -0.4083 -0.5263 -0.4839
  546MOL0     C72001   6.111   5.606   0.379  0.0877  0.5505  0.4382
  546MOL0     C72002   6.211   5.492   0.385 -0.0472  0.0949 -0.5933
  546MOL0     C72003   6.317   5.505   0.287 -0.6053 -0.5284 -0.5400
  546MOL0     C72004   6.396   5.502   0.193 -0.3310 -0.4478  0.5677
  546MOL0     C72005   5.689   5.860   0.277  0.1267 -0.3036  1.6940
  546MOL0     C72006   5.576   5.947   0.271 -0.6004 -0.9649  0.8410
  546MOL0     H72007   5.206   6.128   0.669 -1.9581 -0.3885  0.3444
  546MOL0     H72008   4.956   6.206   0.680 -3.2046  0.7144 -1.3411
  546MOL0     H72009   4.780   6.325   0.693 -4.6232  4.1892  0.5783
  546MOL0     H72010   4.729   6.200   0.576 -2.5719  0.4802 -2.5913
  546MOL0     H72011   4.582   6.347   0.461 -0.0169 -1.3439 -0.3701
  546MOL0     H72012   4.624   6.487   0.565 -0.1111 -0.7107 -0.9580
  546MOL0     H72013   4.531   6.320   0.762  0.5354  0.0640 -0.9934
  546MOL0     H72014   4.453   6.257   0.612  0.7194  0.0966 -1.3815
  546MOL0     H72015   4.447   6.535   0.724  0.6655 -0.4913 -1.4140
  546MOL0     H72016   4.353   6.474   0.584 -1.7272  3.4593  0.3919
  546MOL0     H72017   4.309   6.401   0.884 -1.1898  1.1649 -0.0903
  546MOL0     H72018   4.238   6.315   0.739  1.1944  0.3284 -2.0072
  546MOL0     H72019   4.159   6.557   0.683 -2.0061 -2.4131 -1.1501
  546MOL0     H72020   4.185   6.595   0.855 -0.5494  1.4908 -0.7201
  546MOL0     H72021   4.019   6.357   0.799 -0.2671 -0.2269  1.7545
  546MOL0     H72022   4.018   6.456   0.937 -0.5952  0.4998 -0.2927
  546MOL0     H72023   3.918   6.558   0.680  1.8427 -0.3410  0.4450
  546MOL0     H72024   3.911   6.640   0.842 -1.4902 -0.4812 -0.1088
  546MOL0     H72025   3.773   6.533   1.049  1.4364 -2.1093  1.4702
  546MOL0     H72026   3.436   6.337   1.032 -0.6327  1.4689 -0.0893
  546MOL0     H72027   3.528   6.461   1.139  0.6122  1.2096 -1.0230
  546MOL0     H72028   3.699   6.270   1.170  0.2734  0.7402 -0.6513
  546MOL0     H72029   3.574   6.169   1.106  2.1792  0.7028 -1.3580
  546MOL0     H72030   3.554   6.165   1.350 -2.3162 -0.0268  1.1212
  546MOL0     H72031   3.560   6.344   1.359  1.2056  0.8876 -0.3664
  546MOL0     H72032   3.340   6.197   1.208  0.6872  1.8920 -1.7602
  546MOL0     H72033   3.340   6.355   1.283 -1.3682 -0.8303 -0.8616
  546MOL0     H72034   3.271   6.102   1.644  1.2378  0.7359  0.0912
  546MOL0     H72035   3.142   5.897   1.691 -3.4959  0.8848 -1.2250
  546MOL0     H72036   2.951   5.445   1.456 -0.2139 -0.0565  1.7011
  546MOL0     H72037   2.776   5.274   1.493 -0.4346  0.0478 -0.9771
  546MOL0     H72038   2.356   5.415   1.394  2.2212 -1.3301 -0.6620
  546MOL0     H72039   2.361   5.429   1.574  1.7425 -0.9347  1.2604
  546MOL0     H72040   2.320   5.186   1.575  0.6714  0.4445 -1.3555
  546MOL0     H72041   2.300   5.177   1.407 -0.9572  0.6502  0.0665
  546MOL0     H72042   2.117   5.345   1.426 -0.1477 -0.2451 -0.3793
  546MOL0     H72043   2.129   5.346   1.601  0.3825  2.0177 -0.8154
  546MOL0     H72044   2.073   5.104   1.436  2.9079  0.2006  0.4131
  546MOL0     H72045   2.056   5.103   1.616 -0.7573 -0.8237 -0.1509
  546MOL0     H72046   1.903   5.270   1.411  0.9065 -1.1100 -0.2554
  546MOL0     H72047   1.879   5.290   1.583  0.3616 -1.2271  0.2673
  546MOL0     H72048   1.798   5.056   1.597 -0.5363 -0.7496 -0.0220
  546MOL0     H72049   1.842   5.026   1.431 -0.4270  1.0671 -0.9352
  546MOL0     H72050   1.654   5.255   1.513 -0.6559 -0.8296  2.4160
  546MOL0     H72051   1.687   5.191   1.346  0.1445  2.0415  0.2852
  546MOL0     H72052   1.540   5.049   1.567  2.2797  0.5127  0.3177
  546MOL0     H72053   1.580   4.960   1.420 -4.9463 -1.3945 -1.5757
  546MOL0     H72054   2.471   5.584   1.480 -0.8379 -2.9852  2.8345
  546MOL0     H72055   2.650   5.751   1.452  0.6364  1.3514  2.7105
  546MOL0     H72056   3.076   5.839   1.269  0.2091  1.9799 -1.5198
  546MOL0     H72057   3.197   6.016   1.222  0.3035 -3.3199  0.6917
  546MOL0     H72058   5.028   6.413   0.303  1.4613  0.4416  0.1236
  546MOL0     H72059   5.256   6.352   0.312 -0.3042  1.1364  0.8336
  546MOL0     H72060   5.573   6.031   0.594 -1.3321 -0.1021 -0.2409
  546MOL0     H72061   5.774   5.933   0.591 -2.8824 -0.6783  0.8257
  546MOL0     H72062   5.845   5.710   0.598 -0.6376 -1.4213 -0.0041
  546MOL0     H72063   6.001   5.781   0.566 -2.2892  0.7960  0.8717
  546MOL0     H72064   6.083   5.563   0.592 -0.5018  0.4493 -0.1826
  546MOL0     H72065   5.963   5.494   0.490  0.6389 -1.7532  2.3738
  546MOL0     H72066   6.161   5.702   0.391  0.7396  0.4688 -1.3506
  546MOL0     H72067   6.049   5.616   0.289 -0.1793 -0.2230  0.5225
  546MOL0     H72068   6.262   5.490   0.482 -0.9224  1.8397 -0.0656
  546MOL0     H72069   6.153   5.403   0.360  1.7582 -0.9571 -1.2757
  546MOL0     H72070   6.459   5.493   0.107  0.3709 -0.6109  1.0932
  546MOL0     H72071   5.716   5.800   0.191  1.3626  2.5085 -0.0138
  546MOL0     H72072   5.515   5.955   0.181  0.8891 -0.3859 -0.1730
  547MOL0     O72073   0.024  10.101   0.028  0.4627 -0.2754  0.2805
  547MOL0     C72074   0.106  10.178  -0.016  0.8454  0.1121 -0.1100
  547MOL0     O72075   0.090  10.306  -0.064 -0.2662  0.2383  0.3843
  547MOL0     C72076  -0.028  10.374  -0.076 -0.7350 -0.6092  0.6858
  547MOL0     C72077  -0.025  10.507  -0.053 -0.5573 -1.6211  0.0137
  547MOL0     C72078  -0.140  10.583  -0.092  0.3642  0.4952 -0.5746
  547MOL0     C72079  -0.257  10.519  -0.127 -0.1349 -0.3321  0.4355
  547MOL0     O72080  -0.363  10.612  -0.149 -0.7797 -0.0800  0.1155
  547MOL0     C72081  -0.490  10.554  -0.115 -0.5211  0.0070 -0.6735
  547MOL0     C72082  -0.593  10.665  -0.121  0.9974 -0.0807 -1.1318
  547MOL0     C72083  -0.596  10.737  -0.254 -0.3515  0.3542 -0.4422
  547MOL0     C72084  -0.616  10.648  -0.377 -0.4338 -0.2697 -0.9900
  547MOL0     C72085  -0.639  10.714  -0.513 -0.6831 -0.3692  0.3824
  547MOL0     C72086  -0.749  10.814  -0.528 -0.8059 -0.2351  0.1193
  547MOL0     C72087  -0.752  10.875  -0.668 -0.3779 -0.5313 -0.2238
  547MOL0     C72088  -0.856  10.984  -0.681 -0.2989  0.4283  0.1741
  547MOL0     N72089  -0.984  10.944  -0.630 -0.2127 -0.6407  0.2565
  547MOL0     C72090  -1.063  10.844  -0.671 -0.7594  0.6443 -0.6039
  547MOL0     C72091  -1.177  10.860  -0.595 -0.7681  0.0861  0.1621
  547MOL0     C72092  -1.306  10.781  -0.613 -0.3969  0.0684 -0.1112
  547MOL0     C72093  -1.370  10.798  -0.749  0.4761 -0.0995  0.6724
  547MOL0     C72094  -1.390  10.946  -0.806  0.2450  0.9587  0.4628
  547MOL0     C72095  -1.439  10.933  -0.953 -0.0530  0.0592  0.4200
  547MOL0     O72096  -1.554  10.844  -0.953 -0.0398 -0.2550  0.2350
  547MOL0     C72097  -1.671  10.902  -0.921  0.5966  0.4212 -0.0326
  547MOL0     C72098  -1.706  11.035  -0.941 -0.5552 -0.8998 -0.9845
  547MOL0     C72099  -1.840  11.080  -0.918 -0.4283 -0.7553  0.3453
  547MOL0     C72100  -1.927  10.987  -0.859 -0.0059  0.8580 -0.5903
  547MOL0     C72101  -2.076  11.022  -0.842 -0.8369  0.0695 -0.8629
  547MOL0     O72102  -2.111  11.142  -0.902 -0.3631 -0.0145  0.0983
  547MOL0     C72103  -2.233  11.173  -0.933 -0.2569 -0.3893 -0.2243
  547MOL0     C72104  -2.337  11.159  -0.834 -0.0459 -0.5689  0.5708
  547MOL0     C72105  -2.468  11.185  -0.869 -0.7791  0.0268  0.0511
  547MOL0     C72106  -2.505  11.237  -0.993 -0.4887 -0.6690 -0.4263
  547MOL0     O72107  -2.639  11.272  -1.012 -0.4344  1.0317 -0.5601
  547MOL0     C72108  -2.653  11.407  -1.039 -1.7206  0.4801  0.0159
  547MOL0     C72109  -2.800  11.435  -1.051 -0.6575 -0.1746  1.1889
  547MOL0     C72110  -2.816  11.584  -1.080  0.5767 -0.2295  0.4896
  547MOL0     C72111  -2.966  11.600  -1.134  0.3961 -0.1203  0.2061
  547MOL0     C72112  -3.077  11.544  -1.044 -1.2037  0.5612 -0.1600
  547MOL0     C72113  -3.220  11.569  -1.077  0.0678 -0.4979 -0.3115
  547MOL0     C72114  -3.236  11.485  -1.210  0.9003 -1.0509  0.5759
  547MOL0     C72115  -3.381  11.466  -1.245  0.4230  0.5339 -0.2163
  547MOL0    Cl72116  -3.467  11.623  -1.268 -0.0171  0.7033  0.3496
  547MOL0     C72117  -2.401  11.249  -1.091 -0.3512 -0.1710 -0.3092
  547MOL0     C72118  -2.266  11.223  -1.059 -0.4307  0.0501  0.6875
  547MOL0     O72119  -2.140  10.952  -0.765  0.2369 -0.1765  0.0907
  547MOL0     C72120  -1.882  10.855  -0.826  0.2186  0.4072 -0.5667
  547MOL0     C72121  -1.757  10.812  -0.860 -0.2750  0.4162  0.8893
  547MOL0     N72122  -1.158  10.972  -0.512  0.9174  0.1822 -0.1227
  547MOL0     N72123  -1.043  11.016  -0.540  0.0251  0.0638  1.2053
  547MOL0     C72124  -0.258  10.382  -0.147  0.5535 -0.4804 -0.2628
  547MOL0     C72125  -0.140  10.310  -0.131 -0.0176  0.5556  0.2831
  547MOL0     C72126   0.245  10.129  -0.013 -0.3001  0.0571 -0.0173
  547MOL0     C72127   0.278  10.011   0.059  0.1774 -0.4532  0.2836
  547MOL0     C72128   0.412   9.967   0.064  0.5552  0.3517 -0.2936
  547MOL0     C72129   0.512  10.052   0.005  0.6383  1.3455 -0.1047
  547MOL0     O72130   0.645  10.024   0.027 -0.2600 -0.0890  0.2893
  547MOL0     C72131   0.703   9.925  -0.051 -0.5465 -0.0877  0.5007
  547MOL0     C72132   0.688   9.950  -0.206  0.1643 -0.9494 -0.0906
  547MOL0     C72133   0.828   9.998  -0.243 -0.1439 -0.0163 -0.2073
  547MOL0     C72134   0.911   9.892  -0.304 -0.4332  0.4790  0.8961
  547MOL0     C72135   0.890   9.763  -0.252  0.1252 -0.4021 -0.5469
  547MOL0     C72136   0.884   9.658  -0.198 -0.0300 -0.8637  0.6422
  547MOL0     C72137   0.476  10.172  -0.062  0.2033 -0.3568  0.4624
  547MOL0     C72138   0.347  10.216  -0.067  0.3226 -0.0227 -0.1949
  547MOL0     H72139   0.058  10.553   0.000 -3.0500  3.2993  0.1937
  547MOL0     H72140  -0.150  10.689  -0.071  2.5230  0.4247  1.3022
  547MOL0     H72141  -0.487  10.502  -0.019 -1.2141 -0.4054 -0.8748
  547MOL0     H72142  -0.520  10.484  -0.193 -1.8977 -1.6864  1.2451
  547MOL0     H72143  -0.578  10.740  -0.043 -1.6098  1.7890 -2.2801
  547MOL0     H72144  -0.690  10.620  -0.101  0.9748  0.6440  0.5152
  547MOL0     H72145  -0.519  10.813  -0.273 -1.1399  1.4118  0.4326
  547MOL0     H72146  -0.687  10.798  -0.246  0.1596  0.9768  0.8571
  547MOL0     H72147  -0.529  10.583  -0.389  0.4637  0.6839  0.1340
  547MOL0     H72148  -0.704  10.583  -0.368 -0.1148 -0.9157 -2.3110
  547MOL0     H72149  -0.656  10.630  -0.581 -0.5612 -1.0352  1.1640
  547MOL0     H72150  -0.545  10.760  -0.544 -1.6726 -0.4386 -3.1904
  547MOL0     H72151  -0.733  10.892  -0.452  1.0296 -0.2317 -0.2483
  547MOL0     H72152  -0.841  10.764  -0.494 -1.7103  0.0544 -1.7805
  547MOL0     H72153  -0.656  10.923  -0.690  0.7281 -2.2725  0.6064
  547MOL0     H72154  -0.777  10.798  -0.741 -2.7725 -1.2820  1.2903
  547MOL0     H72155  -0.854  11.006  -0.789 -0.1763 -0.1049  0.0672
  547MOL0     H72156  -0.824  11.076  -0.631  0.9813  0.5045 -0.7406
  547MOL0     H72157  -1.053  10.771  -0.750 -1.2551 -0.4470  0.2996
  547MOL0     H72158  -1.372  10.821  -0.535 -0.9739  1.2518 -1.1698
  547MOL0     H72159  -1.285  10.676  -0.593 -0.1857 -0.3200 -2.1520
  547MOL0     H72160  -1.470  10.765  -0.723  0.6920  0.3261  2.1589
  547MOL0     H72161  -1.317  10.733  -0.818  1.3031  0.0193  1.1754
  547MOL0     H72162  -1.473  10.992  -0.752  0.5124  2.1225 -0.0738
  547MOL0     H72163  -1.310  11.021  -0.807  0.2215  0.9986 -0.9323
  547MOL0     H72164  -1.362  10.889  -1.017 -1.1393  0.9058 -1.5692
  547MOL0     H72165  -1.453  11.032  -0.998 -3.0176 -1.2323 -1.9328
  547MOL0     H72166  -1.643  11.109  -0.991 -1.1135  1.5489  1.7065
  547MOL0     H72167  -1.866  11.185  -0.927  0.9985 -0.3662  0.4718
  547MOL0     H72168  -2.318  11.121  -0.734  1.7978 -0.7755  0.1697
  547MOL0     H72169  -2.540  11.171  -0.789 -0.1467 -0.1196  0.6051
  547MOL0     H72170  -2.601  11.409  -1.135  1.6066 -2.3289  1.5158
  547MOL0     H72171  -2.593  11.473  -0.976  0.7923 -0.9249 -0.7574
  547MOL0     H72172  -2.852  11.406  -0.959  0.3622  2.4861  2.7320
  547MOL0     H72173  -2.832  11.381  -1.140 -0.6344  1.6536  0.0224
  547MOL0     H72174  -2.741  11.608  -1.156  1.0728  0.1805  1.1048
  547MOL0     H72175  -2.794  11.636  -0.987  0.8572 -0.8268  0.7586
  547MOL0     H72176  -2.982  11.708  -1.130  1.6006  0.0713  0.3788
  547MOL0     H72177  -2.959  11.565  -1.237  2.5569  0.3039  0.1601
  547MOL0     H72178  -3.059  11.563  -0.937 -2.0802 -0.0095  0.0978
  547MOL0     H72179  -3.077  11.435  -1.044 -2.9551  0.5376  0.2423
  547MOL0     H72180  -3.229  11.676  -1.100  0.3382 -0.6543 -1.1998
  547MOL0     H72181  -3.290  11.536  -1.000  0.5611  1.5186  1.1015
  547MOL0     H72182  -3.195  11.542  -1.294 -0.9795  0.0901  0.3937
  547MOL0     H72183  -3.185  11.389  -1.221 -0.1901 -1.4420 -1.7852
  547MOL0     H72184  -3.425  11.412  -1.160  2.6723  0.9282  1.2721
  547MOL0     H72185  -3.385  11.405  -1.336  0.3767 -1.2152  0.9095
  547MOL0     H72186  -2.414  11.294  -1.189 -0.9712  2.8583  1.0711
  547MOL0     H72187  -2.188  11.244  -1.131 -0.0521  2.9082  1.7967
  547MOL0     H72188  -1.947  10.790  -0.769  3.7536 -2.6503  0.3492
  547MOL0     H72189  -1.730  10.708  -0.848  1.0943  0.2247 -2.6907
  547MOL0     H72190  -0.351  10.344  -0.188 -0.4348  2.0419 -0.5225
  547MOL0     H72191  -0.133  10.203  -0.149  0.9127 -0.0971  3.7695
  547MOL0     H72192   0.202   9.951   0.109 -0.5069 -0.1686 -0.4066
  547MOL0     H72193   0.429   9.881   0.128 -3.3746 -1.5038 -1.4211
  547MOL0     H72194   0.671   9.825  -0.020  1.8679 -1.0082  0.2297
  547MOL0     H72195   0.809   9.915  -0.025  0.0961 -1.5054 -2.2983
  547MOL0     H72196   0.656   9.870  -0.274  0.6707 -2.4482  1.3472
  547MOL0     H72197   0.613  10.025  -0.230  0.6386 -0.6699 -0.7350
  547MOL0     H72198   0.880  10.044  -0.158 -0.5823 -1.7292  1.0486
  547MOL0     H72199   0.824  10.080  -0.315  2.1635 -0.5483 -1.0282
  547MOL0     H72200   0.890   9.878  -0.411 -2.7376 -0.9781  1.4521
  547MOL0     H72201   1.012   9.931  -0.294  0.1845 -0.8830  0.2756
  547MOL0     H72202   0.879   9.563  -0.149 -0.3384 -0.7321  0.8732
  547MOL0     H72203   0.559  10.221  -0.111  0.3768 -2.0306 -1.0410
  547MOL0     H72204   0.336  10.320  -0.096 -0.6874  0.4028  1.5541
  548MOL0     O72205   4.910   1.047   0.126 -0.5804  0.6324  0.5525
  548MOL0     C72206   4.942   1.157   0.155  0.4132 -0.2053 -0.0334
  548MOL0     O72207   5.061   1.210   0.148 -0.5424  0.5853 -0.0409
  548MOL0     C72208   5.182   1.143   0.129 -0.7533 -0.0067 -0.0142
  548MOL0     C72209   5.242   1.071   0.238 -0.7517  0.0414  0.3632
  548MOL0     C72210   5.365   1.000   0.221  0.6636 -0.2314 -0.4631
  548MOL0     C72211   5.433   0.995   0.100  0.0284  0.2192 -0.6297
  548MOL0     O72212   5.547   0.927   0.089 -0.0777  0.0118 -0.1280
  548MOL0     C72213   5.569   0.875  -0.042 -0.0877 -0.1942  0.1961
  548MOL0     C72214   5.687   0.773  -0.047  0.0744 -0.2143  0.8551
  548MOL0     C72215   5.656   0.643   0.041 -0.0668 -0.0092  0.5158
  548MOL0     C72216   5.791   0.572   0.060 -0.1466 -0.5137 -0.4783
  548MOL0     C72217   5.783   0.443   0.145  0.0204 -0.1547 -0.5160
  548MOL0     C72218   5.907   0.358   0.176  0.0861 -0.8067 -0.1455
  548MOL0     C72219   5.986   0.322   0.051  0.7195 -0.2426 -0.2995
  548MOL0     C72220   6.116   0.249   0.097 -0.6996  0.8628 -0.3031
  548MOL0     N72221   6.199   0.212  -0.025 -0.2374 -0.3689 -0.3413
  548MOL0     C72222   6.331   0.256  -0.033  0.0174 -0.8433 -0.0308
  548MOL0     C72223   6.380   0.206  -0.146 -0.4637 -0.6579 -0.0966
  548MOL0     C72224   6.513   0.256  -0.191 -0.7316 -0.3986  0.0112
  548MOL0     C72225   6.629   0.170  -0.143 -0.3024 -0.8874 -0.9318
  548MOL0     C72226   6.605   0.029  -0.193 -0.1385  0.7049 -0.2732
  548MOL0     C72227   6.711  -0.062  -0.140 -0.4078  0.6594  0.2123
  548MOL0     O72228   6.665  -0.198  -0.177  0.2670 -0.0650 -0.0210
  548MOL0     C72229   6.573  -0.263  -0.098  0.0210 -0.2468 -0.0147
  548MOL0     C72230   6.475  -0.337  -0.166  0.3773  0.1065  0.0081
  548MOL0     C72231   6.372  -0.393  -0.089  0.0760  0.7234 -0.2020
  548MOL0     C72232   6.363  -0.381   0.052  0.4423  0.1087 -0.4536
  548MOL0     C72233   6.247  -0.443   0.127 -0.1128 -1.2658  0.2479
  548MOL0     O72234   6.239  -0.412   0.256 -0.1113 -0.0969 -0.2035
  548MOL0     C72235   6.140  -0.474   0.327  1.4477 -0.2294 -0.5323
  548MOL0     C72236   6.132  -0.613   0.327  0.2413  0.2585  0.5758
  548MOL0     C72237   6.061  -0.677   0.424  0.4078 -0.6046 -1.5002
  548MOL0     C72238   5.976  -0.604   0.511  0.3262  0.5657  0.4246
  548MOL0     O72239   5.916  -0.660   0.620  0.9719 -0.2890  0.4378
  548MOL0     C72240   5.833  -0.777   0.605 -0.3059  0.7227 -0.0145
  548MOL0     C72241   5.754  -0.781   0.735  0.0278 -0.6316  0.2857
  548MOL0     C72242   5.630  -0.876   0.726  0.4934  0.5187 -0.0158
  548MOL0     C72243   5.544  -0.858   0.849  0.4022 -0.0048  0.0901
  548MOL0     C72244   5.423  -0.948   0.842  1.0493  0.3966  0.5187
  548MOL0     C72245   5.345  -0.945   0.981 -0.4542  1.3282 -0.3600
  548MOL0     C72246   5.247  -1.067   0.973 -0.4235  0.3261 -1.3133
  548MOL0     C72247   5.184  -1.098   1.106 -0.0579  0.4384 -0.1580
  548MOL0    Cl72248   5.293  -1.196   1.207  0.0473  0.9499 -0.4503
  548MOL0     C72249   5.973  -0.458   0.496  0.3639  0.5364  0.5190
  548MOL0     C72250   6.052  -0.392   0.403 -0.7137 -0.9782 -0.4762
  548MOL0     O72251   6.165  -0.502   0.056  0.3272  0.5515 -0.0229
  548MOL0     C72252   6.476  -0.326   0.120  0.3781  1.0309 -0.0182
  548MOL0     C72253   6.575  -0.263   0.044 -0.4105  0.5640  0.5700
  548MOL0     N72254   6.290   0.113  -0.191  0.0964  0.5024  0.4073
  548MOL0     N72255   6.175   0.119  -0.132  0.2346 -0.6052 -0.2846
  548MOL0     C72256   5.362   1.055  -0.007  0.3693 -0.3654  0.2745
  548MOL0     C72257   5.248   1.128   0.009 -0.2647 -0.5357 -0.5870
  548MOL0     C72258   4.830   1.237   0.197  0.3314 -0.4107 -0.9245
  548MOL0     C72259   4.705   1.176   0.242 -1.0374  0.3418 -0.2955
  548MOL0     C72260   4.604   1.249   0.303 -0.1778  0.3451  0.3474
  548MOL0     C72261   4.619   1.386   0.327  0.0425  0.9599  0.4902
  548MOL0     O72262   4.531   1.466   0.396  0.6027 -0.6066  0.1830
  548MOL0     C72263   4.526   1.443   0.539  0.3893 -0.7000  0.2023
  548MOL0     C72264   4.416   1.344   0.567 -0.2932 -0.3712 -0.3369
  548MOL0     C72265   4.278   1.398   0.537  0.0694  0.1020 -0.3006
  548MOL0     C72266   4.218   1.471   0.664 -0.7298  0.7033 -0.0692
  548MOL0     C72267   4.085   1.527   0.635  0.1407  0.2883  0.2502
  548MOL0     C72268   3.978   1.577   0.613 -0.2941 -0.0965  1.2680
  548MOL0     C72269   4.740   1.445   0.292 -0.9620 -0.3281 -0.3412
  548MOL0     C72270   4.847   1.372   0.226  0.5444 -0.8365 -0.8583
  548MOL0     H72271   5.189   1.067   0.333  0.7747 -0.5004  1.2355
  548MOL0     H72272   5.406   0.958   0.313 -3.7344 -0.6657  1.5717
  548MOL0     H72273   5.595   0.956  -0.112  0.3974 -0.1075  0.4682
  548MOL0     H72274   5.481   0.825  -0.082 -0.5065  0.2060  0.6034
  548MOL0     H72275   5.779   0.817  -0.007  0.6007  0.0180 -0.5310
  548MOL0     H72276   5.693   0.737  -0.150 -1.1899  2.6906 -0.3567
  548MOL0     H72277   5.586   0.577  -0.011 -0.4432 -0.9730  2.1838
  548MOL0     H72278   5.616   0.667   0.140 -3.2267  0.2246 -0.7002
  548MOL0     H72279   5.832   0.550  -0.039 -1.0413  0.7384 -1.1615
  548MOL0     H72280   5.852   0.644   0.116 -0.1552 -1.2182  0.4524
  548MOL0     H72281   5.704   0.376   0.109 -1.0451  0.4443  0.6341
  548MOL0     H72282   5.755   0.472   0.247  1.4113 -1.8857  0.4033
  548MOL0     H72283   5.886   0.263   0.226  1.9395 -0.4243  1.4871
  548MOL0     H72284   5.971   0.408   0.249 -1.5526  1.2566  0.0078
  548MOL0     H72285   5.936   0.257  -0.022  2.1485  0.3149 -1.8450
  548MOL0     H72286   6.029   0.403  -0.008  3.4519 -2.5054 -1.6486
  548MOL0     H72287   6.087   0.151   0.139  1.4574 -0.4411 -1.6856
  548MOL0     H72288   6.174   0.300   0.174 -0.4417  0.0946  0.0273
  548MOL0     H72289   6.374   0.321   0.042 -1.7201 -0.6198  0.8332
  548MOL0     H72290   6.520   0.363  -0.168  0.3762 -0.0742 -1.6597
  548MOL0     H72291   6.505   0.264  -0.300  1.3321  0.0397 -0.1413
  548MOL0     H72292   6.640   0.180  -0.035 -2.6577 -0.7607 -0.6621
  548MOL0     H72293   6.723   0.209  -0.184 -0.3349 -1.2404 -1.3469
  548MOL0     H72294   6.511  -0.019  -0.164  0.5451 -0.0853  0.7164
  548MOL0     H72295   6.627   0.029  -0.300  1.9414 -0.4311  0.1177
  548MOL0     H72296   6.727  -0.056  -0.032  1.2133 -3.0161  0.3328
  548MOL0     H72297   6.802  -0.041  -0.196 -0.2234  4.2723  1.5871
  548MOL0     H72298   6.479  -0.350  -0.274  2.2646  1.3632 -0.1139
  548MOL0     H72299   6.298  -0.443  -0.151  1.7202 -0.6996 -1.1154
  548MOL0     H72300   6.190  -0.666   0.252  0.6598  1.7780 -0.2364
  548MOL0     H72301   6.070  -0.782   0.451  1.9782  0.0649  0.8458
  548MOL0     H72302   5.897  -0.866   0.603 -1.8806 -0.6092  2.8482
  548MOL0     H72303   5.762  -0.784   0.523  0.6010 -1.6745 -0.6911
  548MOL0     H72304   5.728  -0.676   0.748  4.7219  0.9025 -0.9725
  548MOL0     H72305   5.823  -0.818   0.811  1.1864 -1.5151 -1.1475
  548MOL0     H72306   5.666  -0.979   0.731 -0.3597  0.2777  1.6162
  548MOL0     H72307   5.572  -0.853   0.636 -1.4073 -0.2620  0.9489
  548MOL0     H72308   5.599  -0.897   0.935 -0.3477  1.4522  1.2757
  548MOL0     H72309   5.512  -0.754   0.861 -0.0108  0.0578 -1.3816
  548MOL0     H72310   5.453  -1.050   0.818  2.0893  0.3548  1.8855
  548MOL0     H72311   5.367  -0.907   0.757  3.1512  3.1448  0.3151
  548MOL0     H72312   5.302  -0.845   0.982  0.4943  1.7400  0.7647
  548MOL0     H72313   5.412  -0.949   1.067 -2.6213  2.8359  1.5303
  548MOL0     H72314   5.165  -1.043   0.904 -2.4227  0.1370  0.8423
  548MOL0     H72315   5.298  -1.157   0.939 -2.2612 -2.0259  1.6163
  548MOL0     H72316   5.090  -1.148   1.082  1.0375 -1.1629 -1.3774
  548MOL0     H72317   5.170  -1.006   1.164 -1.4747  0.2522 -0.1708
  548MOL0     H72318   5.919  -0.397   0.568  1.2070  0.3273  1.3374
  548MOL0     H72319   6.049  -0.284   0.394  0.8887 -0.4534  3.3509
  548MOL0     H72320   6.479  -0.328   0.229  1.2909  0.7553 -0.0340
  548MOL0     H72321   6.661  -0.225   0.100 -0.4440  0.4358  0.7103
  548MOL0     H72322   5.380   1.036  -0.112 -0.3832  1.1916 -0.1628
  548MOL0     H72323   5.203   1.179  -0.076 -0.2087  2.6661  1.1509
  548MOL0     H72324   4.683   1.070   0.237  2.3583 -0.6000  1.4828
  548MOL0     H72325   4.511   1.201   0.329  1.0079 -2.3591 -0.0396
  548MOL0     H72326   4.507   1.540   0.586 -1.6812 -0.7458 -0.4196
  548MOL0     H72327   4.619   1.404   0.580  1.7624 -1.2196 -3.0930
  548MOL0     H72328   4.421   1.253   0.508  1.8990 -0.9427  0.6063
  548MOL0     H72329   4.418   1.303   0.669 -0.3403 -0.4556 -0.3701
  548MOL0     H72330   4.210   1.313   0.521  0.3665 -0.2237  0.1513
  548MOL0     H72331   4.272   1.467   0.453  1.5949  1.9708  1.0232
  548MOL0     H72332   4.213   1.391   0.738  3.6689  0.4869  0.2730
  548MOL0     H72333   4.290   1.545   0.701 -0.2002 -0.1052  0.5407
  548MOL0     H72334   3.878   1.617   0.609  0.8833  3.1894  1.2305
  548MOL0     H72335   4.764   1.550   0.308  1.4550 -1.0392  1.1943
  548MOL0     H72336   4.947   1.412   0.214  1.1398 -1.6235  1.0964
  549MOL0     O72337   0.415   5.935   6.347 -0.3527  0.2524 -0.1466
  549MOL0     C72338   0.430   5.973   6.463  0.3292  0.7191  0.0215
  549MOL0     O72339   0.325   6.000   6.555 -0.0769  0.0712 -0.5396
  549MOL0     C72340   0.200   5.999   6.513 -0.1811 -0.3170  0.1008
  549MOL0     C72341   0.140   6.095   6.427 -0.0036 -0.4052 -0.0792
  549MOL0     C72342   0.004   6.090   6.392  0.0323 -0.3634  0.4536
  549MOL0     C72343  -0.075   5.988   6.444 -0.4441 -0.9054 -0.4206
  549MOL0     O72344  -0.206   5.964   6.405  0.0261  0.4316  0.3042
  549MOL0     C72345  -0.262   6.029   6.293  0.5743 -0.1985 -0.1920
  549MOL0     C72346  -0.402   5.978   6.267  0.1783  0.1216  0.1058
  549MOL0     C72347  -0.506   6.067   6.195 -0.1059 -0.6061  0.5538
  549MOL0     C72348  -0.627   5.994   6.134 -0.6015 -0.2926 -0.0892
  549MOL0     C72349  -0.599   5.898   6.017  0.3791 -0.0487  0.5351
  549MOL0     C72350  -0.736   5.846   5.965 -0.4751 -0.0642 -0.7183
  549MOL0     C72351  -0.783   5.721   6.029 -0.5659  1.2993 -0.6893
  549MOL0     C72352  -0.692   5.600   5.990 -0.1603 -0.6675  1.0524
  549MOL0     N72353  -0.752   5.471   6.008  0.2972 -0.5475 -0.6066
  549MOL0     C72354  -0.879   5.424   5.984 -0.1480 -0.0854 -0.1633
  549MOL0     C72355  -0.895   5.316   6.057  0.1064  0.0164 -0.5835
  549MOL0     C72356  -1.016   5.226   6.062  0.5916 -0.1176 -0.1732
  549MOL0     C72357  -1.126   5.295   6.146 -0.8893 -0.7349 -0.4471
  549MOL0     C72358  -1.252   5.214   6.126  0.3278  0.0150 -0.5936
  549MOL0     C72359  -1.359   5.252   6.232  0.0550  0.3548 -0.1512
  549MOL0     O72360  -1.472   5.183   6.192  0.5197 -0.0675 -0.8751
  549MOL0     C72361  -1.592   5.215   6.259  0.7416  0.1730 -1.0503
  549MOL0     C72362  -1.715   5.209   6.195  0.1061  0.9015 -0.0935
  549MOL0     C72363  -1.824   5.247   6.263  1.1794 -0.6340  0.9036
  549MOL0     C72364  -1.822   5.298   6.390  0.6908 -0.2779  0.4507
  549MOL0     C72365  -1.953   5.346   6.453  0.0697  0.1659  0.4838
  549MOL0     O72366  -1.954   5.356   6.589 -0.0719 -0.8673 -0.5325
  549MOL0     C72367  -2.067   5.403   6.658 -0.3730  0.9340 -1.0127
  549MOL0     C72368  -2.081   5.367   6.794 -0.4016 -0.5206  1.4604
  549MOL0     C72369  -2.182   5.426   6.874  0.1856 -0.1099  0.2438
  549MOL0     C72370  -2.276   5.509   6.812 -0.3087 -0.1418  0.4212
  549MOL0     O72371  -2.357   5.561   6.905 -0.0343 -0.0672 -0.6413
  549MOL0     C72372  -2.495   5.591   6.878 -0.5917  0.1464 -0.6326
  549MOL0     C72373  -2.584   5.472   6.907 -0.3228 -0.5093  0.2083
  549MOL0     C72374  -2.736   5.504   6.895  0.2525 -0.4285 -0.9434
  549MOL0     C72375  -2.820   5.385   6.938  0.0552 -0.1916 -0.2048
  549MOL0     C72376  -2.972   5.414   6.922  0.3994  0.4274 -0.2976
  549MOL0     C72377  -3.027   5.528   7.010  0.9384 -0.9991  0.9073
  549MOL0     C72378  -3.178   5.564   6.982  0.3243 -0.7904  0.1677
  549MOL0     C72379  -3.244   5.677   7.070  0.3083 -0.5112 -0.5696
  549MOL0    Cl72380  -3.172   5.840   7.048 -0.6782  0.1209  0.1165
  549MOL0     C72381  -2.260   5.556   6.681  0.0654 -0.6877 -0.3854
  549MOL0     C72382  -2.153   5.491   6.603 -0.0960  0.2834  0.1822
  549MOL0     O72383  -2.050   5.355   6.373  0.2158 -0.0043  0.2157
  549MOL0     C72384  -1.700   5.306   6.457  0.4895  0.3797 -0.0192
  549MOL0     C72385  -1.586   5.251   6.396 -0.4619 -0.4233 -0.2320
  549MOL0     N72386  -0.782   5.295   6.136 -0.2737 -0.2126  0.0328
  549MOL0     N72387  -0.712   5.400   6.118  0.2372  0.0731 -0.2214
  549MOL0     C72388  -0.018   5.889   6.525 -0.7139  0.3858  0.6660
  549MOL0     C72389   0.120   5.889   6.555  0.8911 -0.2412  0.3538
  549MOL0     C72390   0.567   6.013   6.497  0.2721  0.3034 -0.3929
  549MOL0     C72391   0.674   5.957   6.436 -0.5220  0.0998  0.6603
  549MOL0     C72392   0.811   5.997   6.455 -0.0611  0.0963  0.1835
  549MOL0     C72393   0.834   6.105   6.542 -1.4455  0.0750  0.2992
  549MOL0     O72394   0.967   6.145   6.536  0.3092  0.3078  0.2820
  549MOL0     C72395   1.018   6.259   6.604 -0.5074 -0.7695  0.4849
  549MOL0     C72396   1.172   6.274   6.594  1.3674 -0.0258 -0.2413
  549MOL0     C72397   1.241   6.148   6.647  0.7029  0.4142  0.1906
  549MOL0     C72398   1.235   6.029   6.550  0.4364 -0.1378  0.0417
  549MOL0     C72399   1.329   5.926   6.569  0.2627 -0.1681 -0.3908
  549MOL0     C72400   1.423   5.849   6.582 -0.0019 -0.6522  0.3528
  549MOL0     C72401   0.724   6.164   6.605 -0.3214 -0.4706 -0.6998
  549MOL0     C72402   0.598   6.113   6.595 -0.0058 -0.1630 -0.6139
  549MOL0     H72403   0.196   6.177   6.381  1.3297 -1.3555 -0.2207
  549MOL0     H72404  -0.049   6.160   6.328 -3.6156 -3.2126 -0.0310
  549MOL0     H72405  -0.197   6.030   6.205 -0.1037  1.4627 -0.7216
  549MOL0     H72406  -0.276   6.135   6.318  0.3809  0.2642 -2.0782
  549MOL0     H72407  -0.443   5.956   6.365  2.3807 -0.9703  0.8447
  549MOL0     H72408  -0.385   5.888   6.208 -3.7083 -1.1523  0.6370
  549MOL0     H72409  -0.450   6.120   6.118 -1.3222  0.8834  0.6546
  549MOL0     H72410  -0.528   6.147   6.266  1.9205  1.0773 -0.5894
  549MOL0     H72411  -0.690   5.947   6.210  1.5150 -0.0806  1.9237
  549MOL0     H72412  -0.676   6.075   6.080  2.7648  1.5924 -0.6002
  549MOL0     H72413  -0.534   5.812   6.038  1.7098  1.3495  2.5904
  549MOL0     H72414  -0.550   5.963   5.944  1.4106  1.7067  2.6593
  549MOL0     H72415  -0.724   5.822   5.859 -2.7243 -5.7500 -0.0245
  549MOL0     H72416  -0.814   5.921   5.979  0.6482  0.8244  1.1438
  549MOL0     H72417  -0.797   5.728   6.137 -0.0221 -2.3088 -0.2506
  549MOL0     H72418  -0.881   5.702   5.984 -0.8488 -0.2297  0.4773
  549MOL0     H72419  -0.601   5.598   6.051  0.9003 -1.7896 -0.4930
  549MOL0     H72420  -0.661   5.605   5.886 -1.0958  0.3888  0.8083
  549MOL0     H72421  -0.951   5.473   5.919 -0.7821 -0.2042  0.4435
  549MOL0     H72422  -0.989   5.135   6.115  0.3419 -1.2135 -1.8336
  549MOL0     H72423  -1.050   5.202   5.961  1.5549  0.9696 -0.7843
  549MOL0     H72424  -1.144   5.398   6.115 -1.3494 -0.0327  1.9419
  549MOL0     H72425  -1.094   5.307   6.250  0.8797  1.7405 -1.1896
  549MOL0     H72426  -1.295   5.245   6.031 -0.9597  1.5180  0.4307
  549MOL0     H72427  -1.248   5.105   6.126 -2.3726 -0.1679  0.6502
  549MOL0     H72428  -1.385   5.358   6.231 -0.2638  0.3319 -3.2373
  549MOL0     H72429  -1.316   5.218   6.327 -0.2740  0.9022  0.1987
  549MOL0     H72430  -1.729   5.167   6.096  0.4403 -0.9757  0.6115
  549MOL0     H72431  -1.917   5.234   6.209  2.2256  1.1992 -1.5756
  549MOL0     H72432  -2.000   5.313   6.843  0.5069  0.3566  0.9552
  549MOL0     H72433  -2.195   5.412   6.981 -0.0517  2.3753  0.6111
  549MOL0     H72434  -2.509   5.620   6.773  2.3756  0.5416 -1.0103
  549MOL0     H72435  -2.514   5.678   6.940 -0.5922 -0.4814  0.2610
  549MOL0     H72436  -2.562   5.434   7.007 -0.7999 -2.0450 -0.2350
  549MOL0     H72437  -2.554   5.399   6.832  1.5654  0.6869 -0.2653
  549MOL0     H72438  -2.773   5.559   6.807 -2.8992 -1.2589 -0.2439
  549MOL0     H72439  -2.760   5.572   6.977 -1.2481 -0.1616 -1.5602
  549MOL0     H72440  -2.790   5.299   6.878  0.7362 -2.7425  3.4276
  549MOL0     H72441  -2.796   5.355   7.041  0.8199  0.3004 -0.2333
  549MOL0     H72442  -3.027   5.324   6.949  1.8197 -0.7975 -1.2967
  549MOL0     H72443  -2.987   5.432   6.815  0.2587  0.7331 -0.2273
  549MOL0     H72444  -2.975   5.622   6.989 -1.6362  0.2379 -0.3920
  549MOL0     H72445  -3.008   5.499   7.114  1.5814  0.9095  1.3625
  549MOL0     H72446  -3.185   5.582   6.874  2.3200 -0.3851  0.0544
  549MOL0     H72447  -3.239   5.477   7.006 -0.4445 -1.0250 -2.3023
  549MOL0     H72448  -3.236   5.648   7.175 -0.5081  0.9416 -0.0756
  549MOL0     H72449  -3.352   5.686   7.053  0.4102  4.1450 -0.0294
  549MOL0     H72450  -2.321   5.641   6.652  3.4594  1.4017 -1.9356
  549MOL0     H72451  -2.136   5.524   6.501  0.3757  0.9357  0.4593
  549MOL0     H72452  -1.696   5.352   6.555 -0.7209 -0.5162  0.4775
  549MOL0     H72453  -1.494   5.274   6.450 -0.0606  0.5691 -1.3080
  549MOL0     H72454  -0.074   5.805   6.566  0.3945  0.4774  2.4655
  549MOL0     H72455   0.154   5.803   6.613  0.9763 -1.2704 -1.1833
  549MOL0     H72456   0.660   5.876   6.366  0.2965  1.8090 -1.6028
  549MOL0     H72457   0.896   5.946   6.412 -2.2691 -2.1921 -1.7536
  549MOL0     H72458   0.983   6.253   6.708 -0.5781 -0.6959  0.4659
  549MOL0     H72459   0.965   6.349   6.570  1.0265  0.0830  0.2425
  549MOL0     H72460   1.200   6.293   6.489  0.7309  2.8447  0.0088
  549MOL0     H72461   1.216   6.349   6.660  0.9404  0.3936 -0.4274
  549MOL0     H72462   1.186   6.115   6.736  1.3595  0.5501  0.6572
  549MOL0     H72463   1.342   6.178   6.680 -0.6230  3.3767  2.0305
  549MOL0     H72464   1.138   5.981   6.563  0.7635 -1.1066 -0.9396
  549MOL0     H72465   1.249   6.071   6.449  1.0294 -1.4734 -0.4530
  549MOL0     H72466   1.497   5.772   6.576  1.2112  0.5235 -0.7421
  549MOL0     H72467   0.742   6.248   6.672 -0.7423 -0.2250 -0.8922
  549MOL0     H72468   0.519   6.166   6.647 -0.3457  0.9132 -2.1453
  550MOL0     O72469   4.997   1.746   0.316  0.2801  0.9674 -0.7655
  550MOL0     C72470   5.010   1.857   0.264  0.4999  0.1050  0.0603
  550MOL0     O72471   4.921   1.957   0.253  0.7078  0.0170  0.3916
  550MOL0     C72472   4.793   1.938   0.277 -0.1342 -0.2466 -0.0467
  550MOL0     C72473   4.727   2.025   0.366  0.7490 -0.2457  0.0780
  550MOL0     C72474   4.590   2.009   0.386 -0.6720  1.7372 -0.1288
  550MOL0     C72475   4.511   1.898   0.334 -0.1385  0.2181 -0.0329
  550MOL0     O72476   4.378   1.884   0.359  0.0900  0.1666  0.2475
  550MOL0     C72477   4.330   1.749   0.384  0.2761 -0.2226 -0.0391
  550MOL0     C72478   4.182   1.757   0.396  0.6660  0.0701 -0.3747
  550MOL0     C72479   4.107   1.758   0.267 -0.6711  0.0936  0.1665
  550MOL0     C72480   3.956   1.756   0.269  0.1920 -0.4015  0.1505
  550MOL0     C72481   3.900   1.765   0.129 -0.5290  0.3075  0.2472
  550MOL0     C72482   3.772   1.840   0.122 -0.5300  0.4900 -1.2973
  550MOL0     C72483   3.734   1.861  -0.018 -0.4534 -0.1974 -0.2330
  550MOL0     C72484   3.663   1.733  -0.075 -0.4145  0.1508 -0.3985
  550MOL0     N72485   3.546   1.681  -0.011  0.0027 -0.2535 -0.4914
  550MOL0     C72486   3.439   1.752   0.037  0.0755  0.0586 -0.8579
  550MOL0     C72487   3.351   1.662   0.086 -0.6585  0.2680 -0.0064
  550MOL0     C72488   3.215   1.685   0.151  0.3336  0.3638 -0.8087
  550MOL0     C72489   3.143   1.822   0.114 -0.1007 -0.4540 -0.5501
  550MOL0     C72490   3.024   1.869   0.209 -0.1963 -0.7068 -0.2442
  550MOL0     C72491   2.909   1.768   0.194 -0.2995  0.5391  0.7070
  550MOL0     O72492   2.809   1.792   0.301  0.3356 -0.2872 -0.5852
  550MOL0     C72493   2.686   1.727   0.292  0.6458 -0.0755 -0.2233
  550MOL0     C72494   2.573   1.781   0.355 -0.2520 -0.6701 -0.0515
  550MOL0     C72495   2.443   1.730   0.350 -0.8062  0.3096 -0.2405
  550MOL0     C72496   2.417   1.619   0.269 -0.6670  0.8309 -0.3214
  550MOL0     C72497   2.287   1.555   0.272  0.3055 -0.3232 -0.2299
  550MOL0     O72498   2.194   1.617   0.352 -0.1842 -0.3196 -0.0942
  550MOL0     C72499   2.061   1.581   0.357  0.3838 -0.8424  0.3945
  550MOL0     C72500   2.013   1.455   0.337  0.3568  0.5119 -0.0138
  550MOL0     C72501   1.868   1.433   0.332 -0.5445  1.0435 -0.2739
  550MOL0     C72502   1.770   1.523   0.377  1.3516  0.0746  0.6567
  550MOL0     O72503   1.635   1.503   0.360  0.1338 -0.3511 -0.8197
  550MOL0     C72504   1.581   1.368   0.385 -0.1983 -0.0626 -0.4394
  550MOL0     C72505   1.432   1.379   0.416 -0.4283 -0.7323 -0.0980
  550MOL0     C72506   1.377   1.251   0.477 -1.0821 -0.0183  0.1414
  550MOL0     C72507   1.409   1.128   0.393  0.1311 -0.9552 -0.9324
  550MOL0     C72508   1.361   1.000   0.470  0.0023  0.1269  0.3547
  550MOL0     C72509   1.212   0.999   0.507 -0.3024  0.5526  0.5524
  550MOL0     C72510   1.121   0.994   0.386  0.7502  0.4320  0.0518
  550MOL0     C72511   0.986   0.939   0.412  0.0684  0.2885 -0.0186
  550MOL0    Cl72512   0.929   1.027   0.558 -0.1220 -0.5437  0.1741
  550MOL0     C72513   1.825   1.645   0.406 -0.0935 -0.3714 -0.5436
  550MOL0     C72514   1.965   1.671   0.401 -0.3002  1.0665  0.5558
  550MOL0     O72515   2.274   1.443   0.217 -0.7785 -0.4337 -0.5069
  550MOL0     C72516   2.527   1.557   0.198 -0.1437 -0.1931  0.0401
  550MOL0     C72517   2.655   1.613   0.211 -0.4758 -0.3229 -0.3368
  550MOL0     N72518   3.400   1.536   0.061 -0.4923  0.1190 -0.4576
  550MOL0     N72519   3.520   1.549   0.008  0.6230  0.7515  0.4603
  550MOL0     C72520   4.584   1.809   0.251  0.6725 -0.4749 -0.3669
  550MOL0     C72521   4.724   1.824   0.218  1.2123 -1.0675 -1.1583
  550MOL0     C72522   5.136   1.883   0.193 -0.8125  0.7170 -0.3087
  550MOL0     C72523   5.247   1.804   0.229  0.2063  0.1103 -0.6066
  550MOL0     C72524   5.355   1.818   0.140 -0.4913  0.9555  0.0507
  550MOL0     C72525   5.361   1.896   0.030 -0.0131 -0.0652  0.4639
  550MOL0     O72526   5.464   1.878  -0.068 -0.3122  0.2728  0.2383
  550MOL0     C72527   5.475   1.971  -0.177 -0.6202  0.1864 -0.1878
  550MOL0     C72528   5.598   1.934  -0.263 -0.1600 -0.3713  0.2246
  550MOL0     C72529   5.728   1.999  -0.217 -0.7239 -0.3348  0.7749
  550MOL0     C72530   5.766   2.124  -0.299  0.5234  0.1599  0.0721
  550MOL0     C72531   5.667   2.232  -0.298  0.0017  0.8690 -0.9100
  550MOL0     C72532   5.586   2.323  -0.302 -0.2105  0.4089  0.3046
  550MOL0     C72533   5.252   1.986   0.009 -0.9680  0.2623  0.0307
  550MOL0     C72534   5.139   1.970   0.084  0.0517 -0.2561  0.4705
  550MOL0     H72535   4.782   2.115   0.392  1.1112 -0.0764 -1.1851
  550MOL0     H72536   4.538   2.085   0.443 -1.0774  0.3396  1.4422
  550MOL0     H72537   4.371   1.697   0.471  1.9620 -0.0748 -0.7176
  550MOL0     H72538   4.355   1.681   0.302  3.1888  0.3101  0.3186
  550MOL0     H72539   4.162   1.856   0.439  0.1838  0.4329 -1.3993
  550MOL0     H72540   4.151   1.672   0.458  0.1237  1.2786  1.1047
  550MOL0     H72541   4.139   1.672   0.207  2.6682  2.1020 -1.1601
  550MOL0     H72542   4.152   1.843   0.214 -0.2189 -0.7757 -0.8866
  550MOL0     H72543   3.921   1.661   0.310  1.9227 -2.1430 -2.0965
  550MOL0     H72544   3.918   1.845   0.321  0.9628 -0.1802  0.3551
  550MOL0     H72545   3.900   1.664   0.088  3.1090  0.5567 -0.7656
  550MOL0     H72546   3.967   1.815   0.058  0.5365  1.1459  1.7790
  550MOL0     H72547   3.772   1.936   0.174 -2.9682 -0.5935  0.9342
  550MOL0     H72548   3.689   1.787   0.170 -0.7281  1.0647 -1.0084
  550MOL0     H72549   3.670   1.949  -0.026 -1.5533 -0.9340  0.2283
  550MOL0     H72550   3.824   1.884  -0.077 -0.8697  2.9663  0.1815
  550MOL0     H72551   3.739   1.655  -0.070  1.2726  1.6648 -1.1089
  550MOL0     H72552   3.645   1.752  -0.182 -2.5677 -1.0067 -0.2904
  550MOL0     H72553   3.419   1.859   0.045 -1.1035 -0.3007  3.5389
  550MOL0     H72554   3.213   1.669   0.259 -0.8826 -0.5374 -0.9382
  550MOL0     H72555   3.158   1.606   0.102 -0.4399  0.8238 -0.6733
  550MOL0     H72556   3.084   1.804   0.024 -2.5603 -3.3656  1.4229
  550MOL0     H72557   3.213   1.906   0.106 -0.5862  0.1190  0.8013
  550MOL0     H72558   3.061   1.857   0.312 -0.3465 -1.1343 -0.2372
  550MOL0     H72559   2.996   1.973   0.192  0.6866 -0.2433  0.9684
  550MOL0     H72560   2.937   1.662   0.198 -3.5229 -0.6079 -2.0369
  550MOL0     H72561   2.858   1.778   0.098  1.3518 -1.5345 -0.4715
  550MOL0     H72562   2.572   1.870   0.417  0.4778  0.1397 -1.1437
  550MOL0     H72563   2.365   1.781   0.406 -1.6653 -0.8713 -0.3202
  550MOL0     H72564   2.076   1.373   0.305  3.9864  1.4203  3.8716
  550MOL0     H72565   1.838   1.336   0.295 -2.4287  1.4178  0.1831
  550MOL0     H72566   1.624   1.316   0.471  0.3833  0.7231 -0.2416
  550MOL0     H72567   1.594   1.305   0.296  0.5358  0.0509 -0.4176
  550MOL0     H72568   1.383   1.403   0.321  0.3618 -1.7533 -0.7917
  550MOL0     H72569   1.432   1.459   0.490 -0.8917 -1.6901  0.9662
  550MOL0     H72570   1.269   1.262   0.486 -1.3751 -0.8215 -1.8163
  550MOL0     H72571   1.427   1.248   0.574 -0.2778  2.1796 -0.1590
  550MOL0     H72572   1.353   1.130   0.299 -1.5861 -1.2232  0.0522
  550MOL0     H72573   1.518   1.115   0.386  0.6684  1.7574  0.8809
  550MOL0     H72574   1.424   0.997   0.560 -2.4332 -1.8623  2.1396
  550MOL0     H72575   1.370   0.907   0.413 -2.2593  0.6249 -0.9024
  550MOL0     H72576   1.193   1.087   0.569  3.7427  0.2908  2.4340
  550MOL0     H72577   1.202   0.905   0.562 -0.6706 -0.4467 -1.1623
  550MOL0     H72578   1.110   1.089   0.333 -1.8944 -0.3672 -0.9872
  550MOL0     H72579   1.167   0.926   0.314 -1.0864 -0.0940 -0.6699
  550MOL0     H72580   0.988   0.834   0.442  0.4425  0.4166  0.4174
  550MOL0     H72581   0.920   0.963   0.328  2.8650  0.0589 -2.4092
  550MOL0     H72582   1.752   1.720   0.436 -1.3331 -1.4814 -0.6916
  550MOL0     H72583   2.018   1.765   0.417  4.2664 -1.2845  0.7484
  550MOL0     H72584   2.503   1.476   0.129 -1.3538  1.5399 -1.7094
  550MOL0     H72585   2.729   1.563   0.150  0.7077 -2.1548  2.3970
  550MOL0     H72586   4.531   1.720   0.217 -1.3804  0.1765  0.9605
  550MOL0     H72587   4.777   1.751   0.158  2.0524 -0.7866 -0.7655
  550MOL0     H72588   5.244   1.733   0.311 -0.9368 -0.5728 -1.2141
  550MOL0     H72589   5.434   1.746   0.159 -1.9118  0.1203  3.5684
  550MOL0     H72590   5.470   2.075  -0.144 -3.5302  0.1318 -0.1953
  550MOL0     H72591   5.387   1.946  -0.238  0.6783 -1.0944 -1.6214
  550MOL0     H72592   5.617   1.826  -0.258 -3.2718 -0.9336  1.9287
  550MOL0     H72593   5.576   1.961  -0.367 -0.7803  0.3887  0.5459
  550MOL0     H72594   5.807   1.929  -0.246  0.9500  1.8818 -0.2646
  550MOL0     H72595   5.730   2.023  -0.110 -0.3042  1.6222  0.3618
  550MOL0     H72596   5.864   2.161  -0.267  0.6710  0.6703 -0.9214
  550MOL0     H72597   5.770   2.097  -0.405  0.6676  1.8824 -0.3815
  550MOL0     H72598   5.521   2.408  -0.307 -2.2601 -1.1788 -2.8130
  550MOL0     H72599   5.248   2.066  -0.064 -2.7564 -1.8936 -2.4081
  550MOL0     H72600   5.060   2.039   0.054  0.6439  1.2553  2.2231
  551MOL0     O72601   8.535   1.958  10.182  0.7098 -0.2697  0.0427
  551MOL0     C72602   8.587   1.997  10.074 -0.9990 -0.1774 -0.7029
  551MOL0     O72603   8.523   2.065   9.974  0.6551  0.1633  0.6313
  551MOL0     C72604   8.388   2.075   9.983 -0.5805  0.6610 -0.0373
  551MOL0     C72605   8.341   2.208  10.004 -0.0495 -0.0179  0.3022
  551MOL0     C72606   8.206   2.220  10.025 -0.4531 -0.1251 -0.5063
  551MOL0     C72607   8.108   2.123  10.010 -0.1267 -0.7373  0.3829
  551MOL0     O72608   7.975   2.163  10.020 -0.8121 -0.0886 -0.3064
  551MOL0     C72609   7.871   2.064  10.020 -0.3045  0.3171  0.0056
  551MOL0     C72610   7.808   2.059  10.157  0.1615 -0.4063 -0.6703
  551MOL0     C72611   7.716   1.941  10.194  0.2636  0.1458  0.1006
  551MOL0     C72612   7.582   1.994  10.249 -1.2423  0.6776 -0.4390
  551MOL0     C72613   7.484   1.882  10.305  0.0141 -0.3039  0.4080
  551MOL0     C72614   7.375   1.964  10.372 -0.5814  0.4207  0.4026
  551MOL0     C72615   7.272   1.864  10.434  0.0971 -0.1420  0.4658
  551MOL0     C72616   7.157   1.926  10.506 -0.3596 -0.6067  0.7347
  551MOL0     N72617   7.072   2.001  10.409  0.0960 -0.2605  0.2830
  551MOL0     C72618   6.988   1.952  10.316 -0.4939 -0.2441 -0.2400
  551MOL0     C72619   6.925   2.056  10.262 -0.2604 -0.0357 -0.3623
  551MOL0     C72620   6.824   2.046  10.152 -0.2420 -0.5693 -0.5929
  551MOL0     C72621   6.703   1.963  10.193 -0.2237 -0.4641 -0.8189
  551MOL0     C72622   6.590   1.973  10.087 -0.1882  0.9533  0.0569
  551MOL0     C72623   6.461   1.909  10.148 -0.5972 -0.0685 -0.5427
  551MOL0     O72624   6.359   1.942  10.054  0.1682 -0.3055  0.1928
  551MOL0     C72625   6.229   1.906  10.090  0.2103  0.2608 -0.3266
  551MOL0     C72626   6.135   1.939   9.997 -0.4312 -0.2337  0.4041
  551MOL0     C72627   5.999   1.903  10.014  0.9519  0.7817  0.1016
  551MOL0     C72628   5.959   1.821  10.129 -0.0017  0.7878 -0.4428
  551MOL0     C72629   5.817   1.779  10.149 -0.0981 -0.7320 -0.2957
  551MOL0     O72630   5.729   1.833  10.061  0.7107  0.1169  0.1515
  551MOL0     C72631   5.601   1.779  10.079  0.4957  0.8759  0.1526
  551MOL0     C72632   5.505   1.862  10.126 -0.1538 -0.2946  0.5082
  551MOL0     C72633   5.375   1.822  10.151 -0.5297  0.8227 -0.2156
  551MOL0     C72634   5.331   1.698  10.116 -0.0622  0.8936  0.1508
  551MOL0     O72635   5.202   1.656  10.121 -0.2478 -0.0618 -0.4269
  551MOL0     C72636   5.139   1.621   9.997 -0.2718 -0.0037 -0.0477
  551MOL0     C72637   4.999   1.677   9.974 -0.2710  0.5003 -0.6763
  551MOL0     C72638   4.900   1.579  10.037 -0.5589  0.3484 -0.5563
  551MOL0     C72639   4.749   1.630  10.042  0.8049  0.4902  0.3407
  551MOL0     C72640   4.669   1.508  10.096  0.8805  0.7550  0.1196
  551MOL0     C72641   4.531   1.505  10.031 -0.2214  0.8118 -0.1784
  551MOL0     C72642   4.441   1.400  10.109 -0.3721 -1.1341 -0.8880
  551MOL0     C72643   4.338   1.329  10.014 -0.3287 -0.4461  0.5951
  551MOL0    Cl72644   4.208   1.443   9.961  0.3658  0.5216 -0.6237
  551MOL0     C72645   5.430   1.605  10.076 -0.1139 -0.2080  0.2172
  551MOL0     C72646   5.565   1.642  10.051  0.5702 -0.4575  0.1523
  551MOL0     O72647   5.796   1.714  10.252 -0.5029 -0.6488 -0.4536
  551MOL0     C72648   6.064   1.779  10.220 -0.0702 -0.1471 -0.0441
  551MOL0     C72649   6.197   1.825  10.199 -0.2005 -0.2020 -0.0483
  551MOL0     N72650   6.964   2.166  10.326  0.4726 -0.2930 -0.0353
  551MOL0     N72651   7.060   2.135  10.405  0.0201 -0.0794 -0.1295
  551MOL0     C72652   8.158   1.987  10.002 -0.7788 -0.7018  0.7819
  551MOL0     C72653   8.298   1.963   9.983  0.1105  0.3704  0.5777
  551MOL0     C72654   8.731   1.976  10.051 -0.4240  0.1572  0.0696
  551MOL0     C72655   8.792   2.007   9.931  0.4802 -0.6603 -0.2954
  551MOL0     C72656   8.930   1.984   9.907 -0.9557 -1.0824 -0.1410
  551MOL0     C72657   9.007   1.922  10.008  0.6433  0.0680  0.0133
  551MOL0     O72658   9.140   1.905   9.985  0.0483 -0.7297  0.3175
  551MOL0     C72659   9.179   1.818   9.870  0.2190 -1.0376 -0.6326
  551MOL0     C72660   9.139   1.673   9.901 -0.5332  0.2651  0.0842
  551MOL0     C72661   9.209   1.613  10.018 -0.2817 -0.2820  0.3494
  551MOL0     C72662   9.173   1.459  10.037  0.1055 -0.1684  0.3697
  551MOL0     C72663   9.273   1.392  10.115 -0.6257  0.3605  0.2539
  551MOL0     C72664   9.351   1.316  10.162  0.1074 -0.9017 -0.0975
  551MOL0     C72665   8.944   1.892  10.130 -0.3756  0.3132  0.7107
  551MOL0     C72666   8.814   1.915  10.151 -0.4390  0.5114 -0.3509
  551MOL0     H72667   8.398   2.299  10.019 -1.5409  0.8247  1.0270
  551MOL0     H72668   8.166   2.319  10.042  0.4596  0.0194  0.9328
  551MOL0     H72669   7.907   1.964   9.993 -0.4131  0.0766  0.7121
  551MOL0     H72670   7.792   2.088   9.950  0.3009 -2.0797 -1.6229
  551MOL0     H72671   7.761   2.157  10.174 -0.1536 -0.9304  1.8241
  551MOL0     H72672   7.889   2.054  10.229 -0.7107  1.9935  0.6084
  551MOL0     H72673   7.770   1.868  10.254 -0.2057 -0.7462 -0.5255
  551MOL0     H72674   7.694   1.883  10.103 -0.4856  2.6578 -1.4150
  551MOL0     H72675   7.602   2.074  10.321  2.7329  1.3957 -2.0710
  551MOL0     H72676   7.526   2.034  10.164 -1.7050  0.9498 -0.0103
  551MOL0     H72677   7.534   1.820  10.379 -0.6718 -3.8395 -1.8598
  551MOL0     H72678   7.441   1.820  10.226  1.2780 -1.3970  0.5463
  551MOL0     H72679   7.327   2.033  10.303 -1.0631  1.5238  1.8008
  551MOL0     H72680   7.420   2.030  10.446  1.7934 -0.2010 -0.3729
  551MOL0     H72681   7.230   1.804  10.353 -3.0521 -1.9376  3.1819
  551MOL0     H72682   7.326   1.794  10.499  1.2330  0.1872 -0.0860
  551MOL0     H72683   7.179   1.986  10.595 -2.3132  2.1660 -0.4883
  551MOL0     H72684   7.105   1.833  10.533  0.4485 -1.8413 -1.6553
  551MOL0     H72685   6.977   1.848  10.289  2.1251 -1.2144  1.9968
  551MOL0     H72686   6.874   2.016  10.059 -0.9575  0.0135 -1.1726
  551MOL0     H72687   6.788   2.148  10.136 -0.7391 -0.3524  1.5640
  551MOL0     H72688   6.668   2.006  10.287 -0.1617  1.2307 -1.5366
  551MOL0     H72689   6.735   1.860  10.211 -0.9051 -1.1319 -3.1682
  551MOL0     H72690   6.570   2.077  10.063 -1.6099  1.0290  1.4381
  551MOL0     H72691   6.625   1.912  10.003  1.2305  3.9578 -1.7156
  551MOL0     H72692   6.445   1.963  10.242 -0.6924  1.8082 -1.5774
  551MOL0     H72693   6.482   1.803  10.166 -0.5787 -0.1485 -1.0234
  551MOL0     H72694   6.161   2.005   9.915 -0.5955 -0.2647  0.3275
  551MOL0     H72695   5.926   1.920   9.936  0.6604 -0.3294  0.1152
  551MOL0     H72696   5.535   1.961  10.158 -0.4481 -0.4797  1.3680
  551MOL0     H72697   5.300   1.890  10.191  0.1282  0.6961  1.3073
  551MOL0     H72698   5.126   1.512   9.988 -2.0684  0.2617 -1.2781
  551MOL0     H72699   5.201   1.657   9.915 -1.2151 -1.5751 -1.5270
  551MOL0     H72700   4.982   1.689   9.866  0.6274  1.0209 -0.7663
  551MOL0     H72701   4.995   1.775  10.021  0.2830 -0.1971  0.8942
  551MOL0     H72702   4.925   1.551  10.140 -5.3738 -1.2510  0.4494
  551MOL0     H72703   4.907   1.484   9.984 -0.3234  0.1209 -0.1236
  551MOL0     H72704   4.726   1.708  10.115 -2.3878 -0.8157  0.8760
  551MOL0     H72705   4.712   1.660   9.943 -0.8530 -0.0225  0.7838
  551MOL0     H72706   4.668   1.513  10.205 -0.1651  0.4390  0.1366
  551MOL0     H72707   4.712   1.411  10.070 -3.5249 -0.9633 -1.8911
  551MOL0     H72708   4.547   1.472   9.928 -1.9533  2.3872 -1.0231
  551MOL0     H72709   4.480   1.602  10.035 -3.3721 -0.6845  3.6851
  551MOL0     H72710   4.510   1.325  10.149 -0.3623 -0.4647  0.4055
  551MOL0     H72711   4.390   1.450  10.191  0.6514  0.1178 -0.9810
  551MOL0     H72712   4.292   1.241  10.062 -1.8307 -0.6421 -1.1038
  551MOL0     H72713   4.384   1.300   9.919 -2.6596 -0.4305 -0.6087
  551MOL0     H72714   5.394   1.506  10.048 -0.2457  0.2557 -1.3853
  551MOL0     H72715   5.632   1.562  10.018  1.1272 -0.1093  0.4291
  551MOL0     H72716   6.038   1.711  10.301 -2.9060  1.6849  0.7155
  551MOL0     H72717   6.269   1.780  10.266 -0.8793 -1.8112 -0.3565
  551MOL0     H72718   8.089   1.904   9.998 -0.6668 -0.7509 -0.4630
  551MOL0     H72719   8.338   1.863   9.970 -1.3933 -0.0713 -1.1520
  551MOL0     H72720   8.731   2.059   9.858 -0.2846 -1.4880 -0.2653
  551MOL0     H72721   8.976   2.021   9.816  1.1041 -0.8257  0.9577
  551MOL0     H72722   9.285   1.836   9.849 -0.6226  2.4361 -2.5885
  551MOL0     H72723   9.124   1.839   9.778 -1.0171  0.8686  0.4656
  551MOL0     H72724   9.030   1.665   9.905 -0.6130 -0.0061 -1.6003
  551MOL0     H72725   9.165   1.627   9.805 -0.0294 -0.4383  0.5466
  551MOL0     H72726   9.181   1.673  10.105 -0.6646  1.6446 -1.0275
  551MOL0     H72727   9.316   1.624   9.996 -0.9921  2.2607 -2.4672
  551MOL0     H72728   9.081   1.459  10.096  0.8036  1.4451  1.5002
  551MOL0     H72729   9.169   1.409   9.939  1.9599 -0.7250  0.5400
  551MOL0     H72730   9.422   1.246  10.202  1.8435  1.2119  0.7569
  551MOL0     H72731   8.998   1.848  10.213  0.2084 -2.7491 -1.1314
  551MOL0     H72732   8.773   1.896  10.250  0.5392  0.8493  0.1268
  552MOL0     O72733   9.461   2.452   3.282 -0.7231  0.8198  0.1384
  552MOL0     C72734   9.500   2.383   3.378  0.4584 -1.1028 -0.5489
  552MOL0     O72735   9.425   2.308   3.457  0.0883 -0.3602 -0.3029
  552MOL0     C72736   9.292   2.322   3.442  0.6461 -0.5326 -0.2558
  552MOL0     C72737   9.235   2.433   3.494  0.6691 -0.3553 -0.1611
  552MOL0     C72738   9.095   2.440   3.492 -0.1929  0.4201 -0.5372
  552MOL0     C72739   9.011   2.351   3.432 -0.0966 -0.0290  0.1787
  552MOL0     O72740   8.874   2.362   3.422  0.0888 -0.1254  0.2804
  552MOL0     C72741   8.831   2.486   3.369  0.4817  0.0756 -0.2625
  552MOL0     C72742   8.694   2.480   3.297  1.1925  0.1730  0.0563
  552MOL0     C72743   8.592   2.405   3.381 -0.2294  0.3087 -0.3875
  552MOL0     C72744   8.467   2.417   3.325 -0.3593 -0.2335  0.4108
  552MOL0     C72745   8.350   2.351   3.403 -0.4452  0.2380  0.2232
  552MOL0     C72746   8.228   2.338   3.319  0.0821 -0.0747 -0.0773
  552MOL0     C72747   8.123   2.258   3.392  0.6298  0.1696 -0.2800
  552MOL0     C72748   8.018   2.178   3.320 -0.5413 -0.1202  0.4222
  552MOL0     N72749   7.937   2.251   3.216 -0.1100  0.3690 -0.8057
  552MOL0     C72750   7.844   2.195   3.129 -0.5101  0.7871  0.1571
  552MOL0     C72751   7.765   2.287   3.081 -0.9739 -0.6770  0.1150
  552MOL0     C72752   7.653   2.265   2.979  1.4669  0.0609  0.0222
  552MOL0     C72753   7.520   2.236   3.042  0.6005 -0.9285 -0.1837
  552MOL0     C72754   7.459   2.353   3.119 -0.0564 -0.3129 -0.2885
  552MOL0     C72755   7.313   2.321   3.137  0.1521 -0.1930 -0.3458
  552MOL0     O72756   7.261   2.416   3.235 -0.2405  0.0901  0.0794
  552MOL0     C72757   7.132   2.412   3.261  0.4756 -0.7280  0.6406
  552MOL0     C72758   7.091   2.438   3.396 -0.2709  0.3822 -0.3010
  552MOL0     C72759   6.963   2.409   3.438  1.1883  0.4723 -0.0837
  552MOL0     C72760   6.861   2.399   3.346  1.4632 -0.2633  0.0783
  552MOL0     C72761   6.719   2.402   3.402 -0.4539  0.7130  0.1654
  552MOL0     O72762   6.619   2.391   3.312  0.2462 -0.5941  0.4653
  552MOL0     C72763   6.486   2.413   3.340  0.4740  0.4510 -0.2276
  552MOL0     C72764   6.433   2.463   3.458 -0.5764 -0.4111  0.0192
  552MOL0     C72765   6.297   2.479   3.470 -0.1641 -0.1545  0.2364
  552MOL0     C72766   6.206   2.447   3.369 -0.0419  0.0936  0.6174
  552MOL0     O72767   6.068   2.440   3.394  0.6129  0.0347  0.4387
  552MOL0     C72768   6.011   2.512   3.502  0.0854 -0.0605 -0.7417
  552MOL0     C72769   5.861   2.509   3.490 -0.1185 -0.0322 -0.1827
  552MOL0     C72770   5.799   2.625   3.570  0.0262  0.1139 -0.0037
  552MOL0     C72771   5.654   2.591   3.571  0.7732 -0.0286 -0.0324
  552MOL0     C72772   5.581   2.705   3.647 -0.2380  0.9589  0.0194
  552MOL0     C72773   5.442   2.660   3.660 -0.2451 -0.3722 -0.2952
  552MOL0     C72774   5.350   2.771   3.710  0.5513 -0.9317 -0.1605
  552MOL0     C72775   5.198   2.730   3.718 -0.6009  0.6964  0.1619
  552MOL0    Cl72776   5.137   2.674   3.557 -0.2123 -0.6499 -0.0609
  552MOL0     C72777   6.257   2.407   3.242 -0.7890 -0.7062 -0.0428
  552MOL0     C72778   6.395   2.386   3.233  0.9331 -0.4796  0.3113
  552MOL0     O72779   6.708   2.392   3.532 -0.4767  0.1580 -0.0608
  552MOL0     C72780   6.894   2.381   3.210  0.4543  0.2400  0.6833
  552MOL0     C72781   7.025   2.386   3.166 -0.1308 -0.1682  0.3556
  552MOL0     N72782   7.808   2.409   3.130 -0.3813  0.2950  0.4029
  552MOL0     N72783   7.915   2.387   3.206 -0.1348 -0.3786  0.2774
  552MOL0     C72784   9.069   2.238   3.377 -0.7888 -1.0108 -0.4485
  552MOL0     C72785   9.209   2.222   3.393 -0.5523  0.0770  0.7520
  552MOL0     C72786   9.646   2.380   3.405  0.0535 -0.1932 -0.3891
  552MOL0     C72787   9.695   2.341   3.535 -0.1005 -0.0627  0.3394
  552MOL0     C72788   9.830   2.322   3.559 -0.4324  0.0502 -0.5015
  552MOL0     C72789   9.923   2.326   3.452  0.1616 -0.2712 -0.2848
  552MOL0     O72790  10.047   2.299   3.487 -0.2942 -0.2690 -0.4961
  552MOL0     C72791  10.142   2.244   3.393 -0.3985 -0.9153 -0.1290
  552MOL0     C72792  10.109   2.110   3.334  0.1712  0.5126 -0.2308
  552MOL0     C72793  10.217   2.052   3.243  0.5577 -0.8229 -0.1920
  552MOL0     C72794  10.353   2.018   3.302  0.4569  0.1544  0.8494
  552MOL0     C72795  10.456   1.999   3.204  0.8025  0.9344  0.7655
  552MOL0     C72796  10.519   1.986   3.103  0.5568 -0.3377  0.6645
  552MOL0     C72797   9.873   2.359   3.319 -0.3261 -0.3878 -0.4237
  552MOL0     C72798   9.738   2.389   3.299 -0.9305 -0.2305  0.0554
  552MOL0     H72799   9.291   2.512   3.544 -0.2934 -0.3560  0.9576
  552MOL0     H72800   9.043   2.529   3.527  1.2966  0.7040  1.0983
  552MOL0     H72801   8.904   2.527   3.299  3.0807 -1.0088  1.6319
  552MOL0     H72802   8.823   2.556   3.452 -1.4753  0.0504 -0.3918
  552MOL0     H72803   8.711   2.443   3.196 -0.7626  0.3569 -0.3687
  552MOL0     H72804   8.654   2.582   3.289 -0.0064 -0.1519  1.4711
  552MOL0     H72805   8.593   2.454   3.478 -0.1043 -0.1167 -0.1735
  552MOL0     H72806   8.618   2.299   3.387 -1.5529  0.0163  0.8052
  552MOL0     H72807   8.451   2.524   3.308  0.1905 -0.2880 -0.5147
  552MOL0     H72808   8.471   2.372   3.226 -2.1921 -1.0401  0.6582
  552MOL0     H72809   8.324   2.412   3.491 -1.1816 -0.1336  0.2783
  552MOL0     H72810   8.393   2.258   3.440  2.2727  0.9554 -0.9206
  552MOL0     H72811   8.252   2.288   3.224 -3.5212 -0.2718 -1.0526
  552MOL0     H72812   8.186   2.435   3.292 -1.2241  0.1527  2.5070
  552MOL0     H72813   8.178   2.183   3.450  1.9397  0.7392 -0.7444
  552MOL0     H72814   8.074   2.328   3.460  1.2828 -0.3474  0.7623
  552MOL0     H72815   7.948   2.134   3.391  0.5891 -1.4415  0.7730
  552MOL0     H72816   8.071   2.096   3.269  0.8877  1.8277 -1.4065
  552MOL0     H72817   7.836   2.089   3.110  2.4395  0.2521  1.4174
  552MOL0     H72818   7.672   2.180   2.913 -0.5638 -0.8417  0.5216
  552MOL0     H72819   7.643   2.350   2.911  0.3917 -0.1285 -0.0733
  552MOL0     H72820   7.542   2.154   3.111  2.7905 -0.0143  0.2837
  552MOL0     H72821   7.441   2.197   2.978  0.6730 -0.3822 -0.6181
  552MOL0     H72822   7.517   2.351   3.212  1.3802  0.5291 -1.1370
  552MOL0     H72823   7.488   2.442   3.063  1.1157 -0.6041 -0.1670
  552MOL0     H72824   7.308   2.223   3.185 -1.4365  0.3472  0.6799
  552MOL0     H72825   7.268   2.341   3.040 -0.2846  1.0871  0.0953
  552MOL0     H72826   7.172   2.466   3.462 -1.3870  4.0313 -0.2482
  552MOL0     H72827   6.935   2.415   3.543 -2.1584  0.2763 -0.8385
  552MOL0     H72828   6.490   2.476   3.549  0.9264 -0.7988 -0.8438
  552MOL0     H72829   6.263   2.524   3.562  1.0626 -1.3447  1.3252
  552MOL0     H72830   6.052   2.613   3.497  1.9678 -0.5533  2.3052
  552MOL0     H72831   6.044   2.465   3.595  2.0750  0.6132 -1.0549
  552MOL0     H72832   5.821   2.417   3.533  0.4571  0.0397  0.5288
  552MOL0     H72833   5.842   2.510   3.382  0.7886 -2.8758 -0.4516
  552MOL0     H72834   5.823   2.719   3.521 -1.0139  1.3337  1.7360
  552MOL0     H72835   5.843   2.621   3.671 -2.4651 -0.0285  1.1445
  552MOL0     H72836   5.619   2.578   3.468  3.1817  3.3761 -1.4709
  552MOL0     H72837   5.647   2.494   3.622  1.7948  0.2422  0.6376
  552MOL0     H72838   5.580   2.796   3.586 -0.2092  2.7576  2.5528
  552MOL0     H72839   5.618   2.729   3.747 -0.2279 -0.1265  0.2938
  552MOL0     H72840   5.433   2.578   3.732  0.1035  0.3170  0.5425
  552MOL0     H72841   5.405   2.614   3.567 -0.7541  0.3886 -0.4715
  552MOL0     H72842   5.382   2.811   3.807  0.9968 -1.0076 -0.2713
  552MOL0     H72843   5.347   2.852   3.637  2.1829 -0.5994  0.0941
  552MOL0     H72844   5.148   2.822   3.747  0.5623  2.0414 -1.9047
  552MOL0     H72845   5.184   2.654   3.796 -0.6799  0.1935 -0.3386
  552MOL0     H72846   6.185   2.397   3.161 -0.7276 -0.1915 -0.1623
  552MOL0     H72847   6.442   2.341   3.145 -1.9790 -1.9443 -0.6096
  552MOL0     H72848   6.822   2.353   3.134  2.1321 -1.5920 -0.3304
  552MOL0     H72849   7.049   2.367   3.062 -0.3362 -1.2733  0.4971
  552MOL0     H72850   9.006   2.159   3.338 -2.2795 -0.3067  0.4187
  552MOL0     H72851   9.258   2.129   3.363  1.1384  0.9290  0.7341
  552MOL0     H72852   9.620   2.334   3.612  0.3920 -0.1246  0.8179
  552MOL0     H72853   9.862   2.313   3.662 -1.0416  1.1655 -0.1975
  552MOL0     H72854  10.240   2.250   3.443  0.0818  0.9025 -1.1940
  552MOL0     H72855  10.151   2.309   3.306  3.4085 -2.0760 -0.7894
  552MOL0     H72856  10.093   2.043   3.419 -0.8498  1.0908  0.0478
  552MOL0     H72857  10.021   2.112   3.268  0.9423  2.1423 -1.2699
  552MOL0     H72858  10.235   2.126   3.165  1.8287 -1.8081 -0.8826
  552MOL0     H72859  10.176   1.968   3.187  2.3193 -1.5256 -0.4909
  552MOL0     H72860  10.384   2.106   3.359  3.8097  1.3680 -2.4397
  552MOL0     H72861  10.341   1.927   3.361 -1.4335 -0.0505  0.2066
  552MOL0     H72862  10.583   1.970   3.019 -0.8573  2.4259 -1.0589
  552MOL0     H72863   9.944   2.367   3.237 -2.2442  1.6308 -2.0068
  552MOL0     H72864   9.701   2.420   3.202 -0.4826 -0.5136 -0.2113
  553MOL0     O72865   7.703   1.477   5.324  0.2951 -0.3514 -0.3476
  553MOL0     C72866   7.796   1.557   5.352 -0.6147  0.8441 -1.0188
  553MOL0     O72867   7.800   1.683   5.326  0.1128  0.2734  0.5044
  553MOL0     C72868   7.682   1.733   5.275  0.4383 -0.1518  0.5203
  553MOL0     C72869   7.579   1.775   5.358 -1.0689 -0.8608 -0.4588
  553MOL0     C72870   7.472   1.854   5.309  0.1978 -0.2630 -0.1817
  553MOL0     C72871   7.467   1.887   5.178 -1.3447  0.6369 -0.0007
  553MOL0     O72872   7.379   1.965   5.120 -0.0116  0.3091  0.8452
  553MOL0     C72873   7.267   2.013   5.198  0.1256 -0.4850 -0.4546
  553MOL0     C72874   7.175   2.094   5.116 -0.3204 -0.7909 -0.2587
  553MOL0     C72875   7.045   2.138   5.195  0.1611 -0.0691  0.0481
  553MOL0     C72876   6.918   2.114   5.114  0.3278 -0.3189  0.6644
  553MOL0     C72877   6.793   2.201   5.155 -0.0039 -0.2069 -0.6912
  553MOL0     C72878   6.682   2.185   5.044 -0.1642 -0.3398  0.4457
  553MOL0     C72879   6.561   2.268   5.085  1.0196  0.4887  0.0116
  553MOL0     C72880   6.465   2.266   4.972 -0.2843 -0.0472  0.9812
  553MOL0     N72881   6.402   2.145   4.936  0.2348  0.1161  0.0854
  553MOL0     C72882   6.340   2.057   5.020 -0.0454 -1.0903 -0.5923
  553MOL0     C72883   6.281   1.974   4.929 -0.0548 -1.1913 -0.7546
  553MOL0     C72884   6.209   1.846   4.967  0.1179 -0.7925  0.1875
  553MOL0     C72885   6.065   1.870   4.976 -0.9289  0.0077 -0.5521
  553MOL0     C72886   5.988   1.745   5.005 -0.4407  0.5441 -0.9682
  553MOL0     C72887   5.836   1.765   5.028 -0.0353 -0.2578  0.2399
  553MOL0     O72888   5.781   1.821   4.907  0.5446  0.5092 -0.3772
  553MOL0     C72889   5.642   1.837   4.905 -0.3056  0.1730 -0.7956
  553MOL0     C72890   5.593   1.887   4.790 -0.1124 -0.3959 -0.4818
  553MOL0     C72891   5.462   1.924   4.769 -0.2092  1.0141  0.4207
  553MOL0     C72892   5.369   1.904   4.867  0.2408  0.5685  0.7420
  553MOL0     C72893   5.228   1.940   4.847  0.0439 -0.0076  0.2529
  553MOL0     O72894   5.202   2.014   4.732  0.1449 -0.2034 -0.5449
  553MOL0     C72895   5.066   2.019   4.703  0.0178  0.4542 -0.1953
  553MOL0     C72896   4.988   2.128   4.739  0.0012  0.1182 -0.4967
  553MOL0     C72897   4.855   2.140   4.703  0.6624  0.4402 -0.4618
  553MOL0     C72898   4.791   2.037   4.628 -0.1137 -0.0725 -0.4894
  553MOL0     O72899   4.655   2.041   4.592  0.0353  0.1045  0.2405
  553MOL0     C72900   4.590   2.169   4.588  0.4396  0.6192 -0.2394
  553MOL0     C72901   4.479   2.157   4.493  0.0287 -0.7109  0.0357
  553MOL0     C72902   4.426   2.298   4.456  0.3089  0.8742  0.1498
  553MOL0     C72903   4.321   2.287   4.348  0.4536  0.6105 -0.2292
  553MOL0     C72904   4.203   2.390   4.360 -0.5079 -0.1395 -0.1240
  553MOL0     C72905   4.125   2.405   4.231  0.1281  0.2144  0.0679
  553MOL0     C72906   4.007   2.497   4.243 -0.3769  0.0086  0.7881
  553MOL0     C72907   3.946   2.520   4.100 -1.4948 -0.6609 -0.1097
  553MOL0    Cl72908   3.841   2.661   4.109  0.3037 -0.1689 -0.0582
  553MOL0     C72909   4.861   1.918   4.600  0.1985 -0.1043  0.7008
  553MOL0     C72910   5.001   1.915   4.625 -0.3976  0.1692 -0.6049
  553MOL0     O72911   5.145   1.888   4.927  0.0311  0.1349  0.5463
  553MOL0     C72912   5.409   1.848   4.987 -0.1666 -0.7120  0.0949
  553MOL0     C72913   5.543   1.813   5.003 -0.2553 -0.3109 -0.3191
  553MOL0     N72914   6.314   1.998   4.801 -0.4633 -0.5500 -0.3232
  553MOL0     N72915   6.392   2.100   4.807  0.4924 -0.1385  0.8803
  553MOL0     C72916   7.577   1.844   5.097 -0.4988 -0.7938  0.2321
  553MOL0     C72917   7.688   1.773   5.146  1.2117  0.1174 -0.4705
  553MOL0     C72918   7.899   1.499   5.438 -0.3130  0.6385 -0.2744
  553MOL0     C72919   7.976   1.596   5.511 -0.4377  0.8802 -0.7843
  553MOL0     C72920   8.076   1.548   5.604  0.3806 -0.3916  0.2586
  553MOL0     C72921   8.096   1.416   5.623 -0.1117  0.2803  0.5983
  553MOL0     O72922   8.181   1.385   5.724 -0.1413 -0.2199  0.5999
  553MOL0     C72923   8.253   1.257   5.718  0.6916 -0.2648 -0.6515
  553MOL0     C72924   8.156   1.156   5.801 -0.5431 -0.5994 -0.0294
  553MOL0     C72925   8.214   1.014   5.789  1.1262  0.6118  0.0252
  553MOL0     C72926   8.103   0.907   5.796 -0.5916 -1.2060  0.5717
  553MOL0     C72927   8.015   0.903   5.677  0.5219 -0.2989 -1.6164
  553MOL0     C72928   7.929   0.897   5.592  0.4723 -0.5495 -0.2628
  553MOL0     C72929   8.013   1.323   5.557  0.9121  0.5829  0.5693
  553MOL0     C72930   7.918   1.359   5.459 -0.2326  0.3273 -0.5435
  553MOL0     H72931   7.598   1.754   5.463  0.5823 -2.2786 -0.9875
  553MOL0     H72932   7.399   1.902   5.373 -0.2990  4.4009 -3.6383
  553MOL0     H72933   7.298   2.082   5.277 -0.4262  0.0885 -0.7350
  553MOL0     H72934   7.218   1.926   5.243  0.0845 -0.1822  0.0889
  553MOL0     H72935   7.159   2.053   5.016  1.7449 -1.2489 -0.4456
  553MOL0     H72936   7.240   2.181   5.104 -1.4163  0.1055  0.1007
  553MOL0     H72937   7.056   2.242   5.226  0.0784  0.1444 -0.6241
  553MOL0     H72938   7.037   2.068   5.279  0.8773 -0.8438 -0.5056
  553MOL0     H72939   6.941   2.134   5.009  0.1961  0.7474  0.8235
  553MOL0     H72940   6.882   2.011   5.110  0.6246 -0.4745  1.7424
  553MOL0     H72941   6.824   2.305   5.168 -1.6640  0.0692  1.4421
  553MOL0     H72942   6.752   2.165   5.249  0.4297  0.8091 -0.0972
  553MOL0     H72943   6.644   2.084   5.030  1.2964 -1.0412  1.3056
  553MOL0     H72944   6.710   2.230   4.948 -2.0345  2.8063  1.2358
  553MOL0     H72945   6.507   2.226   5.170  0.3545  0.5004 -0.3920
  553MOL0     H72946   6.588   2.371   5.112  0.9508  0.6812 -0.6374
  553MOL0     H72947   6.519   2.300   4.883 -1.1051  0.1438  0.5544
  553MOL0     H72948   6.378   2.326   4.998 -0.1011 -0.4432  2.6795
  553MOL0     H72949   6.330   2.051   5.128 -1.8042  0.5893 -0.5893
  553MOL0     H72950   6.252   1.819   5.064  4.9242  0.9533 -1.1398
  553MOL0     H72951   6.230   1.761   4.901 -3.3459 -2.2867  0.8308
  553MOL0     H72952   6.025   1.920   4.887  0.7167 -0.1453 -1.4105
  553MOL0     H72953   6.046   1.934   5.063  0.1795  1.1711 -1.1298
  553MOL0     H72954   6.004   1.679   4.920 -0.6049  1.3194 -1.6182
  553MOL0     H72955   6.030   1.696   5.094  0.1520  0.6907 -1.1584
  553MOL0     H72956   5.810   1.832   5.111 -0.2185 -0.3327  0.2421
  553MOL0     H72957   5.792   1.667   5.047  3.3649 -1.9885 -0.1484
  553MOL0     H72958   5.661   1.904   4.707  0.7801  1.8633  0.6299
  553MOL0     H72959   5.425   1.969   4.677 -0.8025 -0.7413 -0.2296
  553MOL0     H72960   5.037   2.209   4.793 -0.3653  0.0584 -0.0713
  553MOL0     H72961   4.793   2.221   4.741 -1.0943 -2.1885  2.8559
  553MOL0     H72962   4.656   2.244   4.543  1.6571  0.5346  1.3257
  553MOL0     H72963   4.552   2.204   4.685 -0.7024  0.3933 -0.5923
  553MOL0     H72964   4.397   2.104   4.542 -0.3504 -1.6844 -1.5890
  553MOL0     H72965   4.513   2.102   4.405  0.9815  1.4004 -0.9883
  553MOL0     H72966   4.508   2.367   4.433  0.2204  0.6795 -0.7974
  553MOL0     H72967   4.390   2.334   4.553  1.4716 -0.4970  1.1243
  553MOL0     H72968   4.365   2.302   4.249  1.2367 -0.9714 -0.1535
  553MOL0     H72969   4.289   2.183   4.348  1.4542  0.2942 -0.4581
  553MOL0     H72970   4.241   2.489   4.387 -1.6355  0.9181 -2.1920
  553MOL0     H72971   4.136   2.365   4.443  1.3943 -0.6105  1.3363
  553MOL0     H72972   4.082   2.306   4.209 -3.1945  0.9557  2.5821
  553MOL0     H72973   4.190   2.437   4.149  0.1736 -0.6979 -0.2738
  553MOL0     H72974   3.927   2.477   4.315 -0.5924 -1.6344  0.1421
  553MOL0     H72975   4.054   2.593   4.265  2.8820 -0.5015 -2.8493
  553MOL0     H72976   3.890   2.432   4.068 -1.7985 -0.7878  0.7666
  553MOL0     H72977   4.034   2.541   4.038 -1.0290 -0.6412  0.5484
  553MOL0     H72978   4.802   1.858   4.532 -1.9884  3.1882 -0.5645
  553MOL0     H72979   5.065   1.835   4.589  1.3885  1.4313 -0.3045
  553MOL0     H72980   5.339   1.837   5.069  1.0252 -1.9060  0.9924
  553MOL0     H72981   5.584   1.780   5.098  2.5366  1.2949 -0.8459
  553MOL0     H72982   7.574   1.872   4.992 -0.5809 -0.7166  0.2558
  553MOL0     H72983   7.782   1.762   5.093  0.2644 -2.4507 -1.7935
  553MOL0     H72984   7.968   1.703   5.498 -1.8560  1.0259  0.9536
  553MOL0     H72985   8.130   1.617   5.668  3.0586 -0.8340 -1.3934
  553MOL0     H72986   8.352   1.264   5.764 -0.1819  1.2820  1.1406
  553MOL0     H72987   8.257   1.217   5.617 -0.3659 -1.3435 -0.2977
  553MOL0     H72988   8.170   1.184   5.906  4.0092 -1.1408 -0.2566
  553MOL0     H72989   8.052   1.159   5.770  0.3763  1.8323 -3.4597
  553MOL0     H72990   8.288   0.995   5.867  3.9683 -2.4984 -3.0527
  553MOL0     H72991   8.264   1.010   5.692  0.3489 -2.8093 -0.3902
  553MOL0     H72992   8.148   0.807   5.800  1.2594 -0.4036  0.4680
  553MOL0     H72993   8.048   0.916   5.890 -0.1306 -0.6614  0.7903
  553MOL0     H72994   7.838   0.895   5.535  0.1707 -1.1077  0.2308
  553MOL0     H72995   8.038   1.217   5.560  1.4056  0.3086 -4.5400
  553MOL0     H72996   7.867   1.278   5.407  2.4616 -2.6604  1.1163
  554MOL0     O72997   1.799   7.873   0.856  0.0457 -0.0174 -0.7027
  554MOL0     C72998   1.899   7.928   0.801  0.3362  0.5209  0.4518
  554MOL0     O72999   1.894   8.037   0.714 -0.3981  0.1811 -0.5064
  554MOL0     C73000   1.769   8.095   0.702 -0.6530 -0.4783  0.8752
  554MOL0     C73001   1.707   8.096   0.574  0.5996  0.9986  0.6308
  554MOL0     C73002   1.581   8.155   0.560  0.2808 -0.4878 -0.1833
  554MOL0     C73003   1.517   8.222   0.664 -0.4390 -0.2192 -0.8001
  554MOL0     O73004   1.396   8.287   0.637 -0.1646  0.4315  0.3328
  554MOL0     C73005   1.300   8.183   0.600 -1.1313 -0.4677 -0.0523
  554MOL0     C73006   1.182   8.256   0.528 -0.0635  1.5448  0.3062
  554MOL0     C73007   1.060   8.169   0.491 -0.5876  1.6194 -0.4328
  554MOL0     C73008   0.947   8.255   0.429  0.3462  0.0175  0.7992
  554MOL0     C73009   0.818   8.168   0.415  0.2700  0.3671  0.7688
  554MOL0     C73010   0.745   8.146   0.545 -0.2962 -0.2967  0.0863
  554MOL0     C73011   0.633   8.037   0.530 -1.0225  0.1985  0.2671
  554MOL0     C73012   0.563   8.021   0.658  0.1889 -0.3477  0.0076
  554MOL0     N73013   0.431   7.957   0.638  0.1356  0.1563 -0.3359
  554MOL0     C73014   0.358   7.910   0.743 -0.6056  1.3767  0.1162
  554MOL0     C73015   0.234   7.895   0.700  0.2495 -0.3453 -0.3346
  554MOL0     C73016   0.125   7.841   0.785 -0.0365  0.3908  0.0446
  554MOL0     C73017   0.001   7.804   0.715  0.9227  0.4971  0.6588
  554MOL0     C73018  -0.077   7.694   0.784  0.1095 -1.1578  0.1549
  554MOL0     C73019  -0.011   7.549   0.768 -0.5285  0.3966  0.1977
  554MOL0     O73020  -0.101   7.440   0.784  0.0754 -0.4270 -0.2480
  554MOL0     C73021  -0.194   7.415   0.688  0.4041 -0.3512  0.3029
  554MOL0     C73022  -0.179   7.435   0.552  0.5247  0.3564 -0.0598
  554MOL0     C73023  -0.284   7.395   0.461  0.1543  0.5435  0.0499
  554MOL0     C73024  -0.399   7.329   0.502  0.6732 -0.3242  0.0906
  554MOL0     C73025  -0.521   7.307   0.414  0.7772  0.3306  0.0653
  554MOL0     O73026  -0.644   7.296   0.479  0.7088 -0.3052 -0.1380
  554MOL0     C73027  -0.764   7.291   0.403 -0.0143 -0.3827 -0.2686
  554MOL0     C73028  -0.805   7.372   0.292 -0.9378 -0.0397 -0.1869
  554MOL0     C73029  -0.936   7.372   0.245 -1.0189 -0.2919 -0.3503
  554MOL0     C73030  -1.039   7.290   0.298  0.4054 -0.1603 -0.4329
  554MOL0     O73031  -1.172   7.315   0.258  0.0097 -0.0663 -0.8374
  554MOL0     C73032  -1.271   7.238   0.325  0.1607 -0.2833  0.1987
  554MOL0     C73033  -1.402   7.297   0.275 -0.1616 -0.5857  0.4797
  554MOL0     C73034  -1.523   7.208   0.318  0.4029  0.0584  0.5222
  554MOL0     C73035  -1.650   7.291   0.302  0.3438  0.3546  1.4953
  554MOL0     C73036  -1.772   7.184   0.312  0.3598 -0.9238 -0.5435
  554MOL0     C73037  -1.907   7.251   0.328  0.1292 -0.0202  0.1686
  554MOL0     C73038  -2.030   7.167   0.339  1.1498  0.2718 -0.7728
  554MOL0     C73039  -2.162   7.238   0.323 -0.0594 -0.4596 -0.2036
  554MOL0    Cl73040  -2.289   7.124   0.287 -0.0335 -0.0664  1.0575
  554MOL0     C73041  -0.998   7.200   0.400 -0.7239 -0.1523  1.2874
  554MOL0     C73042  -0.870   7.205   0.456 -1.0986  1.0181 -0.4458
  554MOL0     O73043  -0.498   7.318   0.291 -0.1730 -0.2284  0.5710
  554MOL0     C73044  -0.415   7.323   0.646 -0.2367 -0.9220  0.3960
  554MOL0     C73045  -0.309   7.355   0.726  0.8355  0.1306 -0.6501
  554MOL0     N73046   0.226   7.952   0.578  0.0773 -0.6809 -1.5777
  554MOL0     N73047   0.343   7.984   0.543  0.2948  0.5541 -0.2057
  554MOL0     C73048   1.579   8.236   0.785  0.5172  0.5657  0.6171
  554MOL0     C73049   1.700   8.166   0.805 -0.1178 -0.1381  0.6206
  554MOL0     C73050   2.034   7.867   0.824  0.5913 -0.2829 -0.6673
  554MOL0     C73051   2.054   7.784   0.935 -0.4713 -0.1169 -1.3079
  554MOL0     C73052   2.173   7.706   0.942  0.1914 -0.4660  0.1057
  554MOL0     C73053   2.263   7.707   0.840  0.2588  0.9057  0.0016
  554MOL0     O73054   2.363   7.616   0.849 -0.4886  0.2257 -0.0949
  554MOL0     C73055   2.461   7.617   0.742  0.5072  0.1891  0.2069
  554MOL0     C73056   2.557   7.492   0.767  0.1277  0.7105 -0.5924
  554MOL0     C73057   2.691   7.498   0.693 -0.3519  0.1058  0.1440
  554MOL0     C73058   2.729   7.351   0.662  0.5730  0.4403  0.6581
  554MOL0     C73059   2.660   7.309   0.536  0.8111  0.3923 -0.4760
  554MOL0     C73060   2.596   7.266   0.440 -0.1690 -0.4425 -0.1595
  554MOL0     C73061   2.243   7.803   0.740  0.0106 -0.4254  0.3807
  554MOL0     C73062   2.131   7.893   0.734 -0.1593  0.9364 -0.2602
  554MOL0     H73063   1.744   8.055   0.481  0.8713  2.1910  0.2047
  554MOL0     H73064   1.533   8.158   0.463  1.2007  1.9092 -0.6397
  554MOL0     H73065   1.261   8.134   0.690 -2.1802 -0.4310 -0.4730
  554MOL0     H73066   1.340   8.116   0.524  1.3468  0.3784  0.4120
  554MOL0     H73067   1.236   8.296   0.442  4.7592 -0.3573  2.0670
  554MOL0     H73068   1.150   8.348   0.579  1.6623  2.3245  0.0479
  554MOL0     H73069   1.030   8.119   0.584  1.9421 -0.6100 -0.6908
  554MOL0     H73070   1.098   8.093   0.422  1.5423  2.4238 -0.2219
  554MOL0     H73071   0.920   8.347   0.481  0.5262  2.2002 -2.6283
  554MOL0     H73072   0.983   8.289   0.331 -0.9611  0.4423  0.4546
  554MOL0     H73073   0.838   8.068   0.377 -0.2951  1.1681 -1.8354
  554MOL0     H73074   0.744   8.222   0.355 -0.2843  2.8616  3.4697
  554MOL0     H73075   0.696   8.240   0.570  1.3423  0.1850  1.6833
  554MOL0     H73076   0.814   8.116   0.624  2.2110  0.8349 -1.5531
  554MOL0     H73077   0.567   8.074   0.451  0.3513 -0.9517 -1.5113
  554MOL0     H73078   0.686   7.948   0.493 -3.3235 -0.9594 -0.4703
  554MOL0     H73079   0.560   8.116   0.713 -3.3447 -0.4016  0.1277
  554MOL0     H73080   0.625   7.955   0.719 -1.4970 -2.8941 -0.8918
  554MOL0     H73081   0.393   7.890   0.844 -1.7701 -1.2270  0.0716
  554MOL0     H73082   0.091   7.925   0.846 -3.1765 -0.3580 -0.4920
  554MOL0     H73083   0.173   7.764   0.846 -0.4980  0.6586  0.7606
  554MOL0     H73084   0.012   7.771   0.612  0.7915 -0.0180  0.8079
  554MOL0     H73085  -0.068   7.889   0.721  0.3323  0.0534  0.0894
  554MOL0     H73086  -0.082   7.720   0.890 -0.6819 -3.5465  0.7630
  554MOL0     H73087  -0.181   7.688   0.753 -1.3414 -0.5630  4.3392
  554MOL0     H73088   0.070   7.536   0.841  0.0031 -2.4425 -0.7842
  554MOL0     H73089   0.033   7.555   0.668  0.2593 -2.3766  0.2938
  554MOL0     H73090  -0.088   7.481   0.516  0.4961 -1.6588 -2.9844
  554MOL0     H73091  -0.269   7.419   0.357 -0.8347  1.3967  0.0828
  554MOL0     H73092  -0.728   7.435   0.248 -0.0275  0.0118  1.4157
  554MOL0     H73093  -0.966   7.446   0.172 -2.9755  0.4816  1.1447
  554MOL0     H73094  -1.274   7.254   0.433 -0.8264 -0.3972  0.1946
  554MOL0     H73095  -1.271   7.131   0.304 -1.0442 -0.7194  2.2242
  554MOL0     H73096  -1.407   7.301   0.166 -3.3665 -2.4134  0.4427
  554MOL0     H73097  -1.403   7.397   0.318 -1.7051 -1.8405  3.7166
  554MOL0     H73098  -1.514   7.177   0.423  0.6184  0.6208  0.6744
  554MOL0     H73099  -1.525   7.121   0.252 -0.8105 -0.4881  1.2496
  554MOL0     H73100  -1.665   7.363   0.383 -1.2687 -0.6168  2.1110
  554MOL0     H73101  -1.649   7.350   0.210  1.9114 -1.6966  0.1235
  554MOL0     H73102  -1.753   7.126   0.402  0.3790 -1.6479 -1.0013
  554MOL0     H73103  -1.765   7.119   0.224  1.2664  0.2693 -1.4010
  554MOL0     H73104  -1.913   7.315   0.240 -0.0411 -0.0597  0.1522
  554MOL0     H73105  -1.893   7.322   0.409  3.3247  1.1762 -1.2652
  554MOL0     H73106  -2.020   7.086   0.266  1.4890  1.1788 -1.7610
  554MOL0     H73107  -2.044   7.120   0.437 -0.6112  0.2749 -0.9884
  554MOL0     H73108  -2.157   7.320   0.251  0.1866  0.2657  0.6045
  554MOL0     H73109  -2.184   7.287   0.419  1.7110  0.6542 -0.3275
  554MOL0     H73110  -1.066   7.132   0.450 -1.8187  0.6151  0.8775
  554MOL0     H73111  -0.846   7.143   0.542 -1.5928 -1.0660 -1.7398
  554MOL0     H73112  -0.500   7.278   0.695 -0.4545 -0.5907  0.3339
  554MOL0     H73113  -0.327   7.326   0.829  0.1033 -2.1885 -1.3682
  554MOL0     H73114   1.527   8.276   0.872  2.1023 -0.9921  2.3789
  554MOL0     H73115   1.737   8.168   0.907  1.9346  0.6087 -0.0862
  554MOL0     H73116   1.992   7.760   1.021  0.5587 -1.1307 -0.8125
  554MOL0     H73117   2.203   7.629   1.013  1.4099  1.0957  1.3582
  554MOL0     H73118   2.524   7.705   0.758  0.7925 -0.5193  3.5985
  554MOL0     H73119   2.410   7.618   0.645 -1.4419  3.3774  1.1112
  554MOL0     H73120   2.581   7.497   0.873 -0.8807  1.8075 -0.3961
  554MOL0     H73121   2.499   7.400   0.749  0.3940  0.7226 -1.5558
  554MOL0     H73122   2.761   7.549   0.760  1.0409 -1.2989 -0.1869
  554MOL0     H73123   2.693   7.557   0.601  3.8419 -0.8988 -0.6118
  554MOL0     H73124   2.834   7.341   0.631  0.0651 -1.4807 -0.5537
  554MOL0     H73125   2.707   7.284   0.745  0.7080 -0.6391 -0.1597
  554MOL0     H73126   2.558   7.237   0.344 -0.7516 -0.5462  0.1010
  554MOL0     H73127   2.316   7.824   0.663  0.8148 -2.2193  0.6128
  554MOL0     H73128   2.132   7.953   0.644  3.2966  1.7791  0.2035
  555MOL0     O73129   2.918   3.811   5.948 -0.3328 -0.7469 -0.3528
  555MOL0     C73130   2.890   3.761   6.056 -0.5352  0.2642 -0.1654
  555MOL0     O73131   2.793   3.816   6.141 -0.4789  0.1124 -0.1555
  555MOL0     C73132   2.741   3.933   6.097  1.1163  0.0503  1.1753
  555MOL0     C73133   2.805   4.057   6.065 -0.3495  0.5127 -0.6208
  555MOL0     C73134   2.744   4.174   6.039  0.1871 -0.4786 -0.2646
  555MOL0     C73135   2.600   4.165   6.041  0.0412 -0.1898  0.2442
  555MOL0     O73136   2.514   4.269   6.018  0.6047 -0.2548 -0.4087
  555MOL0     C73137   2.549   4.400   6.071  0.8026  0.5163  0.3462
  555MOL0     C73138   2.453   4.421   6.189 -0.0173  0.1522 -0.6341
  555MOL0     C73139   2.314   4.449   6.140 -0.5272  0.4290  0.1370
  555MOL0     C73140   2.200   4.442   6.251 -0.5973 -0.1363 -0.8937
  555MOL0     C73141   2.225   4.556   6.359  0.3629  1.1469 -0.1919
  555MOL0     C73142   2.088   4.618   6.410 -0.7209  0.7052  0.6341
  555MOL0     C73143   2.107   4.708   6.529 -0.3477 -1.0749 -0.5360
  555MOL0     C73144   1.985   4.787   6.559  0.7177  0.1381  0.3205
  555MOL0     N73145   1.858   4.718   6.589  0.4582  0.2008  0.5565
  555MOL0     C73146   1.775   4.653   6.499  0.3531 -0.6997  0.0885
  555MOL0     C73147   1.663   4.626   6.577  0.2372  0.4391  0.5018
  555MOL0     C73148   1.548   4.542   6.519  0.0582  0.3511 -0.8868
  555MOL0     C73149   1.593   4.411   6.442  0.5748 -0.1087 -0.3416
  555MOL0     C73150   1.487   4.322   6.390  0.3087  0.0428 -0.2847
  555MOL0     C73151   1.392   4.264   6.490  0.2785 -0.4750  0.3370
  555MOL0     O73152   1.279   4.211   6.418  0.2933  0.6305 -0.0137
  555MOL0     C73153   1.178   4.166   6.498  0.8431 -0.5590 -0.0604
  555MOL0     C73154   1.173   4.175   6.639  0.4346  0.1317 -0.5485
  555MOL0     C73155   1.067   4.130   6.715  0.1950 -0.5844 -0.2220
  555MOL0     C73156   0.953   4.076   6.655  0.8883 -0.0549  0.6775
  555MOL0     C73157   0.837   4.028   6.735 -0.8699  0.5422  0.1883
  555MOL0     O73158   0.746   3.954   6.665  0.3839  0.6690 -0.6202
  555MOL0     C73159   0.626   3.920   6.729 -0.2163 -0.7025  0.3157
  555MOL0     C73160   0.505   3.950   6.659  1.1053 -0.3261 -0.3382
  555MOL0     C73161   0.381   3.942   6.732  0.7242  0.5563  0.6437
  555MOL0     C73162   0.377   3.899   6.858 -0.1871  0.3191  0.2941
  555MOL0     O73163   0.252   3.905   6.919 -0.3870  0.1352 -0.6283
  555MOL0     C73164   0.236   3.863   7.057  0.0815  0.1665 -0.0561
  555MOL0     C73165   0.087   3.854   7.084 -0.0748 -0.5545  0.6362
  555MOL0     C73166   0.018   3.757   6.994 -0.5139 -0.6961 -0.2068
  555MOL0     C73167  -0.134   3.747   7.010  0.4596 -0.1922  0.6019
  555MOL0     C73168  -0.187   3.736   6.869  0.6441 -0.0447  0.5636
  555MOL0     C73169  -0.341   3.697   6.872  0.5017  0.5037 -0.9976
  555MOL0     C73170  -0.395   3.666   6.729 -0.5336 -0.9607 -0.7591
  555MOL0     C73171  -0.552   3.670   6.713  0.3748 -0.1097  0.2322
  555MOL0    Cl73172  -0.610   3.832   6.721 -0.2056 -0.0647  0.2209
  555MOL0     C73173   0.496   3.853   6.921  0.1894 -0.9850  0.1920
  555MOL0     C73174   0.622   3.867   6.856  0.7870  0.1591 -0.2831
  555MOL0     O73175   0.824   4.072   6.848 -0.0163  0.2676 -0.3333
  555MOL0     C73176   0.957   4.058   6.508  0.3139  0.0011 -1.0441
  555MOL0     C73177   1.072   4.103   6.431 -0.5451 -0.7311 -0.6746
  555MOL0     N73178   1.674   4.678   6.704 -0.2719  0.0664 -0.4657
  555MOL0     N73179   1.790   4.733   6.696 -0.0653  0.7502 -0.0120
  555MOL0     C73180   2.531   4.047   6.085  0.5522 -0.3038 -0.3449
  555MOL0     C73181   2.603   3.930   6.112 -0.5631  0.2022 -1.1086
  555MOL0     C73182   2.981   3.651   6.107 -0.7199 -0.6599 -0.0761
  555MOL0     C73183   2.986   3.622   6.242 -0.8376 -0.4720 -0.3168
  555MOL0     C73184   3.066   3.523   6.289 -0.3431  0.3199  0.4041
  555MOL0     C73185   3.143   3.436   6.201  0.0559 -0.2172  0.6266
  555MOL0     O73186   3.216   3.334   6.256  0.2756 -0.1337 -0.0067
  555MOL0     C73187   3.276   3.236   6.165  0.0437 -1.8274  0.0803
  555MOL0     C73188   3.353   3.141   6.243  0.0308 -0.1508  0.0670
  555MOL0     C73189   3.420   3.038   6.148 -1.1841  0.6753 -0.0726
  555MOL0     C73190   3.500   2.941   6.233 -0.1433  0.6705  0.0755
  555MOL0     C73191   3.426   2.851   6.329  0.0699 -0.5595  0.7518
  555MOL0     C73192   3.362   2.771   6.394 -0.0784  0.0803  0.2004
  555MOL0     C73193   3.138   3.464   6.069  0.6099 -0.4412 -0.4347
  555MOL0     C73194   3.067   3.574   6.021  1.1106  0.1327  0.6144
  555MOL0     H73195   2.913   4.060   6.071 -0.2355 -2.6916  1.5322
  555MOL0     H73196   2.798   4.267   6.021 -0.8488 -0.1965 -2.2362
  555MOL0     H73197   2.522   4.473   5.994 -0.4528 -0.3100 -0.0318
  555MOL0     H73198   2.653   4.417   6.098  0.8093  1.3037 -0.1739
  555MOL0     H73199   2.488   4.505   6.251  2.0719 -1.9194  1.1814
  555MOL0     H73200   2.454   4.338   6.261  1.4822 -0.5554 -1.4361
  555MOL0     H73201   2.291   4.390   6.051 -0.7772  1.5387 -0.5684
  555MOL0     H73202   2.314   4.543   6.082  2.2030 -0.8957 -2.2716
  555MOL0     H73203   2.103   4.458   6.204 -1.8737  1.8123  2.0425
  555MOL0     H73204   2.200   4.346   6.303  1.1953 -1.6077 -3.4009
  555MOL0     H73205   2.281   4.640   6.317  1.9435  0.5028  0.5464
  555MOL0     H73206   2.279   4.515   6.445 -0.2381  1.1636  0.2047
  555MOL0     H73207   2.021   4.534   6.432 -0.1224 -0.5840 -2.1043
  555MOL0     H73208   2.050   4.677   6.327  0.6673  2.5717  1.2437
  555MOL0     H73209   2.138   4.663   6.624 -0.8367  3.6026  2.0967
  555MOL0     H73210   2.189   4.777   6.509 -1.0714  0.4016  1.3631
  555MOL0     H73211   1.975   4.847   6.468 -2.0459 -3.3234 -1.9528
  555MOL0     H73212   2.017   4.848   6.644  1.3873 -0.8549  0.7960
  555MOL0     H73213   1.782   4.631   6.393 -0.0579 -0.4677  0.0090
  555MOL0     H73214   1.496   4.617   6.459  0.3638  0.2713 -1.2578
  555MOL0     H73215   1.480   4.516   6.601  1.7937  0.2054  0.5643
  555MOL0     H73216   1.645   4.359   6.524 -0.8123 -1.6536 -0.3864
  555MOL0     H73217   1.657   4.440   6.358  0.9102  1.0828  0.2947
  555MOL0     H73218   1.435   4.386   6.318  1.7487  4.1246  1.9827
  555MOL0     H73219   1.527   4.239   6.330 -0.0721 -0.6357  0.3748
  555MOL0     H73220   1.357   4.352   6.546 -0.7512 -1.0039  0.5559
  555MOL0     H73221   1.433   4.187   6.555  0.3768 -3.6046 -3.1195
  555MOL0     H73222   1.262   4.214   6.687  1.9547 -0.3117 -2.8173
  555MOL0     H73223   1.084   4.142   6.822  3.6717 -2.9251 -0.3494
  555MOL0     H73224   0.499   3.985   6.556  1.8915  1.1328  0.0907
  555MOL0     H73225   0.288   3.975   6.687  1.7105  3.5502  0.5852
  555MOL0     H73226   0.288   3.936   7.120  1.4138  1.2785 -2.3128
  555MOL0     H73227   0.274   3.762   7.071 -4.5115 -1.6729  1.0111
  555MOL0     H73228   0.049   3.953   7.057  1.6361  0.3024  1.1583
  555MOL0     H73229   0.066   3.821   7.186 -1.2773 -2.4827 -0.1900
  555MOL0     H73230   0.067   3.659   7.004  0.2258 -0.3241 -0.1258
  555MOL0     H73231   0.043   3.791   6.893 -3.4123 -1.7386 -1.3903
  555MOL0     H73232  -0.159   3.659   7.070 -0.4165 -0.0340  0.4819
  555MOL0     H73233  -0.186   3.830   7.058 -0.8642 -0.8239  0.3148
  555MOL0     H73234  -0.133   3.660   6.812  0.0970  0.5784 -0.8373
  555MOL0     H73235  -0.184   3.834   6.821 -2.3706 -0.4324 -0.6358
  555MOL0     H73236  -0.395   3.784   6.910  0.3140  0.6891 -1.6882
  555MOL0     H73237  -0.361   3.616   6.943  0.1764  0.6813 -0.8864
  555MOL0     H73238  -0.353   3.738   6.657 -0.9187  0.5060  0.4292
  555MOL0     H73239  -0.360   3.564   6.714  0.3736 -0.9212  0.8527
  555MOL0     H73240  -0.592   3.594   6.781  2.6958 -0.7278  1.0248
  555MOL0     H73241  -0.578   3.635   6.613  1.2224 -1.0335  0.3124
  555MOL0     H73242   0.475   3.810   7.018 -1.3913 -0.9127 -0.0832
  555MOL0     H73243   0.714   3.843   6.909  1.6094 -3.1280 -2.8185
  555MOL0     H73244   0.859   4.042   6.464 -0.5189  3.9644 -1.0536
  555MOL0     H73245   1.076   4.090   6.324 -0.0127  1.6402 -0.9807
  555MOL0     H73246   2.424   4.053   6.104  0.7062 -2.4098  1.6054
  555MOL0     H73247   2.555   3.841   6.150 -0.0705  0.5062  0.2541
  555MOL0     H73248   2.924   3.676   6.313  1.1996  3.8888 -1.5575
  555MOL0     H73249   3.077   3.507   6.396 -0.2316 -0.5474  0.2662
  555MOL0     H73250   3.353   3.276   6.098  1.1310 -1.3427  1.5565
  555MOL0     H73251   3.197   3.185   6.109  0.3309  0.1747 -2.3104
  555MOL0     H73252   3.436   3.191   6.293 -1.9628  3.2111  0.3540
  555MOL0     H73253   3.289   3.093   6.318 -1.8800  2.3513  0.1732
  555MOL0     H73254   3.495   3.092   6.088 -0.8644  0.0894 -0.2031
  555MOL0     H73255   3.354   2.985   6.079  1.3576 -0.6673 -1.6188
  555MOL0     H73256   3.559   2.870   6.173  0.3977  1.0099  0.1997
  555MOL0     H73257   3.586   2.986   6.283  0.5071 -1.4240  0.9676
  555MOL0     H73258   3.305   2.701   6.452 -0.2481 -0.4391 -0.5760
  555MOL0     H73259   3.191   3.413   5.989  0.1735 -0.3233 -0.8052
  555MOL0     H73260   3.060   3.590   5.914 -2.4590  2.5319  1.0000
  556MOL0     O73261  10.363   1.615  10.082 -0.0421 -0.2923 -0.0168
  556MOL0     C73262  10.468   1.680  10.090  0.2361  0.3474 -0.0779
  556MOL0     O73263  10.497   1.766  10.191  0.3265  0.9602 -0.5333
  556MOL0     C73264  10.394   1.841  10.257 -1.2971  0.7990 -0.5386
  556MOL0     C73265  10.431   1.899  10.383  0.1192  1.2625 -0.6586
  556MOL0     C73266  10.333   1.958  10.463  0.7415  0.3239  0.0379
  556MOL0     C73267  10.197   1.952  10.436  0.5820 -0.2135 -0.1543
  556MOL0     O73268  10.116   2.011  10.533  1.0280 -0.1988 -0.5717
  556MOL0     C73269   9.984   1.958  10.550 -0.8803 -0.1221 -0.2937
  556MOL0     C73270   9.915   2.032  10.671 -0.1509 -0.3570 -0.7031
  556MOL0     C73271   9.773   2.012  10.666 -0.0332  0.2277 -0.2611
  556MOL0     C73272   9.707   2.069  10.792  0.4996  0.2553 -0.4329
  556MOL0     C73273   9.562   2.044  10.822  0.0907 -0.0199 -0.2466
  556MOL0     C73274   9.470   2.068  10.701 -0.8027 -0.0747 -0.3171
  556MOL0     C73275   9.325   2.070  10.754  0.1649 -0.9408  0.2316
  556MOL0     C73276   9.279   2.208  10.812  0.4376  0.0123 -0.6772
  556MOL0     N73277   9.151   2.195  10.888  0.1515 -1.1067  0.5501
  556MOL0     C73278   9.027   2.195  10.821  0.8176 -0.0642  0.0260
  556MOL0     C73279   8.943   2.154  10.915 -0.4435  0.1341 -0.1116
  556MOL0     C73280   8.798   2.125  10.893  0.5675 -0.5729 -0.1595
  556MOL0     C73281   8.711   2.244  10.895 -0.8049 -1.4558  0.1018
  556MOL0     C73282   8.717   2.338  11.020  0.0555 -0.2937 -0.1939
  556MOL0     C73283   8.639   2.470  11.005  0.1563 -0.0838  0.1192
  556MOL0     O73284   8.676   2.559  11.115 -0.1286  0.2135 -0.1680
  556MOL0     C73285   8.618   2.680  11.135 -0.8716  0.1461  0.7832
  556MOL0     C73286   8.681   2.766  11.227  0.1405  0.8075 -0.1050
  556MOL0     C73287   8.630   2.883  11.262  0.0032 -0.0588  0.6924
  556MOL0     C73288   8.511   2.919  11.195 -0.4627 -0.4583  0.0074
  556MOL0     C73289   8.432   3.040  11.230  0.1157  0.3524 -1.0447
  556MOL0     O73290   8.306   3.063  11.189 -0.4814 -0.6125 -0.1639
  556MOL0     C73291   8.243   3.177  11.235 -0.5681 -0.2706 -0.7642
  556MOL0     C73292   8.210   3.277  11.149 -0.6810  0.3441 -0.4399
  556MOL0     C73293   8.130   3.384  11.201  0.2554 -0.6634  0.1855
  556MOL0     C73294   8.088   3.396  11.336 -0.8268 -0.7976  0.0953
  556MOL0     O73295   8.018   3.504  11.384  0.0009 -0.0751 -0.3106
  556MOL0     C73296   7.879   3.485  11.365  0.7522  0.9691 -0.2092
  556MOL0     C73297   7.803   3.617  11.342  0.7482  0.9440  0.1267
  556MOL0     C73298   7.816   3.723  11.447  0.2423 -0.1358 -0.0872
  556MOL0     C73299   7.710   3.723  11.550  0.4820 -0.2250 -0.5291
  556MOL0     C73300   7.568   3.775  11.507 -0.0854  1.0961 -0.4970
  556MOL0     C73301   7.469   3.785  11.621 -0.0464 -0.1485  0.2118
  556MOL0     C73302   7.330   3.824  11.560 -0.1568 -0.2477 -1.0114
  556MOL0     C73303   7.241   3.860  11.678  0.0636  0.4768 -0.9772
  556MOL0    Cl73304   7.086   3.910  11.609 -0.0419 -0.2356  0.1291
  556MOL0     C73305   8.132   3.290  11.416  0.9375 -0.5197 -0.0526
  556MOL0     C73306   8.197   3.175  11.367  0.5698 -0.4905 -0.3958
  556MOL0     O73307   8.494   3.114  11.317  0.1281 -0.1306  0.7000
  556MOL0     C73308   8.446   2.843  11.097 -0.1814 -0.6547  0.1603
  556MOL0     C73309   8.503   2.722  11.064 -0.1328  0.9256 -0.2504
  556MOL0     N73310   9.010   2.133  11.036  0.4117 -0.3070  0.1848
  556MOL0     N73311   9.133   2.172  11.024  0.1150 -0.1915 -0.0236
  556MOL0     C73312  10.158   1.900  10.310 -1.0785  0.5194  0.2067
  556MOL0     C73313  10.256   1.843  10.228 -0.2439 -0.5526  0.4608
  556MOL0     C73314  10.583   1.653   9.990  0.3214 -0.4951  0.0246
  556MOL0     C73315  10.583   1.535   9.916  1.2345  0.3679  0.0322
  556MOL0     C73316  10.693   1.490   9.837 -0.7650 -0.3717 -0.3128
  556MOL0     C73317  10.798   1.583   9.829 -0.7391  0.5256 -0.2021
  556MOL0     O73318  10.886   1.554   9.727  0.1368 -0.7044  0.1459
  556MOL0     C73319  10.991   1.640   9.702 -0.2433  0.3449  0.5844
  556MOL0     C73320  11.073   1.578   9.588 -0.0777 -0.3845 -0.3303
  556MOL0     C73321  11.208   1.641   9.578 -0.6926 -0.4325  0.6205
  556MOL0     C73322  11.277   1.590   9.451  0.3115 -0.4364  0.4538
  556MOL0     C73323  11.405   1.662   9.427  1.2445  0.3740 -0.3109
  556MOL0     C73324  11.509   1.721   9.394  0.2802  0.6931  0.8989
  556MOL0     C73325  10.798   1.706   9.900  0.9485 -0.0533 -0.1277
  556MOL0     C73326  10.700   1.735   9.983 -0.7590 -0.2243  0.8301
  556MOL0     H73327  10.535   1.889  10.413  0.5281 -2.0897 -2.6543
  556MOL0     H73328  10.358   2.008  10.556  1.9626 -0.2266  0.0264
  556MOL0     H73329   9.994   1.852  10.577 -2.3771 -0.3569 -0.5786
  556MOL0     H73330   9.929   1.984  10.459  0.1916  7.6955  0.6070
  556MOL0     H73331   9.933   2.140  10.666  1.9518 -0.7139 -2.8494
  556MOL0     H73332   9.947   1.991  10.767 -1.0950 -1.4179 -0.8277
  556MOL0     H73333   9.740   1.907  10.663 -0.5155  0.3943 -0.9815
  556MOL0     H73334   9.729   2.064  10.581 -0.4769  0.0773 -0.1306
  556MOL0     H73335   9.750   2.031  10.885 -0.6074  1.1702  0.4876
  556MOL0     H73336   9.719   2.177  10.801 -0.3379  0.1971  4.8523
  556MOL0     H73337   9.526   2.100  10.908 -0.8537 -0.2228 -0.4900
  556MOL0     H73338   9.553   1.939  10.851  1.5931 -0.7163 -2.0830
  556MOL0     H73339   9.474   1.980  10.637 -1.2017  0.5651 -1.2405
  556MOL0     H73340   9.493   2.160  10.646 -0.2944 -1.3735 -2.3752
  556MOL0     H73341   9.252   2.040  10.677 -0.6487 -0.0029  0.6156
  556MOL0     H73342   9.311   1.994  10.831 -2.2267 -0.9021 -0.0726
  556MOL0     H73343   9.260   2.279  10.732 -0.6916  1.3224  0.6955
  556MOL0     H73344   9.354   2.248  10.880  1.0112  1.6881 -2.2341
  556MOL0     H73345   9.008   2.211  10.715  0.1886 -1.8330 -0.1677
  556MOL0     H73346   8.759   2.054  10.967 -1.3254 -2.4953 -2.8177
  556MOL0     H73347   8.790   2.087  10.791 -1.4486  2.1719 -1.1523
  556MOL0     H73348   8.608   2.213  10.875 -0.8128 -1.9936  0.9294
  556MOL0     H73349   8.750   2.307  10.814 -1.8352 -1.2932 -0.2793
  556MOL0     H73350   8.671   2.291  11.107 -1.1419 -1.3534 -1.3537
  556MOL0     H73351   8.822   2.355  11.047 -0.2892  2.8372 -0.5232
  556MOL0     H73352   8.532   2.447  11.011 -0.1034  1.3147  1.2864
  556MOL0     H73353   8.669   2.526  10.916  0.3558  1.7645  1.2884
  556MOL0     H73354   8.767   2.728  11.280  1.0207  2.4534 -0.2666
  556MOL0     H73355   8.675   2.948  11.336 -2.5533  1.2141  1.2266
  556MOL0     H73356   8.249   3.266  11.049  0.7793 -2.3945  0.3430
  556MOL0     H73357   8.102   3.474  11.148 -1.6370 -1.5447 -0.4068
  556MOL0     H73358   7.850   3.441  11.460  1.0826  0.7517 -0.2100
  556MOL0     H73359   7.861   3.423  11.277 -1.4121  1.2448 -0.0096
  556MOL0     H73360   7.698   3.590  11.326  0.7600  0.9847 -0.0299
  556MOL0     H73361   7.828   3.662  11.245 -2.7733 -0.0264 -1.4004
  556MOL0     H73362   7.804   3.811  11.385  0.7962 -1.7478 -2.6204
  556MOL0     H73363   7.913   3.698  11.492 -0.8414 -3.1169  0.8435
  556MOL0     H73364   7.698   3.621  11.587 -0.9371  0.3905  0.8360
  556MOL0     H73365   7.748   3.789  11.628  1.1349 -0.1531 -0.9050
  556MOL0     H73366   7.523   3.725  11.421  3.0405 -1.0448 -1.0374
  556MOL0     H73367   7.575   3.878  11.469 -0.9857  1.0923 -0.7091
  556MOL0     H73368   7.500   3.859  11.695  0.1897  0.4453 -0.4646
  556MOL0     H73369   7.472   3.692  11.677  1.1572 -0.3135 -0.1065
  556MOL0     H73370   7.341   3.899  11.481  0.2011 -0.0877 -0.8072
  556MOL0     H73371   7.290   3.735  11.509 -2.5070  1.2887 -2.0354
  556MOL0     H73372   7.279   3.936  11.747 -1.4334  0.2560  0.1490
  556MOL0     H73373   7.226   3.767  11.733 -0.7922 -1.3373 -4.0554
  556MOL0     H73374   8.095   3.284  11.518 -1.9323  0.0132 -0.9843
  556MOL0     H73375   8.221   3.088  11.426  0.3552 -0.2222  0.0936
  556MOL0     H73376   8.361   2.885  11.045 -0.3490 -2.0080 -0.7021
  556MOL0     H73377   8.457   2.668  10.982 -0.3019  2.8693 -1.4837
  556MOL0     H73378  10.052   1.884  10.291 -1.2417 -1.8146  2.4793
  556MOL0     H73379  10.220   1.789  10.141 -1.7750 -0.3981  0.9771
  556MOL0     H73380  10.495   1.473   9.931  0.2874  1.5809 -0.3610
  556MOL0     H73381  10.688   1.401   9.776  0.5404  0.9421 -2.4434
  556MOL0     H73382  11.059   1.650   9.787  1.5670 -1.3131 -0.5971
  556MOL0     H73383  10.967   1.741   9.667  2.3170  0.5073 -0.9644
  556MOL0     H73384  11.094   1.472   9.605 -2.2268 -0.7992  0.0108
  556MOL0     H73385  11.022   1.588   9.492 -0.9298  1.2677  0.2491
  556MOL0     H73386  11.269   1.610   9.664 -0.5255  2.7415  1.7750
  556MOL0     H73387  11.193   1.749   9.580  0.4502 -0.2368 -0.1913
  556MOL0     H73388  11.295   1.486   9.479  2.4721 -0.3810 -0.5572
  556MOL0     H73389  11.201   1.603   9.373  1.1932  0.1926 -0.3267
  556MOL0     H73390  11.596   1.779   9.370  0.0755  0.6803  0.1022
  556MOL0     H73391  10.872   1.785   9.888 -0.9606  1.9442  0.6493
  556MOL0     H73392  10.712   1.826  10.041 -0.3361  1.3323 -1.5892
  557MOL0     O73393   7.188   7.529   6.105  0.1623  0.7258 -0.7181
  557MOL0     C73394   7.196   7.560   6.223 -0.7564 -0.2871  0.0810
  557MOL0     O73395   7.113   7.643   6.289 -0.1507  0.7029  0.0010
  557MOL0     C73396   7.002   7.706   6.240 -0.4081 -0.1914 -0.8452
  557MOL0     C73397   6.967   7.737   6.111 -0.2808  0.8408  0.0838
  557MOL0     C73398   6.860   7.814   6.078  0.5382  0.4665  0.7298
  557MOL0     C73399   6.789   7.879   6.175  0.2570  0.0657  0.1998
  557MOL0     O73400   6.690   7.963   6.127  1.1279 -0.1198 -0.4230
  557MOL0     C73401   6.618   8.044   6.229 -0.2550  0.4822  0.4876
  557MOL0     C73402   6.519   8.142   6.168 -0.0167 -0.4992  0.0847
  557MOL0     C73403   6.448   8.226   6.272  0.5516 -0.1781 -0.3643
  557MOL0     C73404   6.544   8.310   6.362  0.1040  0.1437  0.7500
  557MOL0     C73405   6.639   8.403   6.293  0.0109  0.0315 -0.6030
  557MOL0     C73406   6.583   8.486   6.180  0.1080 -0.1129  0.5626
  557MOL0     C73407   6.676   8.603   6.155  0.5143  0.6389  0.1227
  557MOL0     C73408   6.613   8.690   6.049 -0.7095  0.0884 -0.8592
  557MOL0     N73409   6.494   8.768   6.091 -0.2461 -0.2311  0.1160
  557MOL0     C73410   6.390   8.792   6.007  0.0026 -0.2581  0.2675
  557MOL0     C73411   6.313   8.880   6.073 -0.1728 -0.8293 -0.5603
  557MOL0     C73412   6.192   8.962   6.038 -0.3793 -0.5351 -0.5468
  557MOL0     C73413   6.119   8.912   5.916 -0.5039 -0.4694 -0.0037
  557MOL0     C73414   6.052   9.044   5.851 -0.6756 -0.5142 -0.0445
  557MOL0     C73415   5.984   9.016   5.721 -0.0287  0.7665  0.5704
  557MOL0     O73416   5.920   8.889   5.722 -0.6562 -0.1305  0.5856
  557MOL0     C73417   5.796   8.862   5.778 -0.1389  0.2050 -0.0185
  557MOL0     C73418   5.687   8.945   5.750 -0.4987  0.7709 -0.1824
  557MOL0     C73419   5.558   8.918   5.798  0.5239 -0.1502  0.0314
  557MOL0     C73420   5.537   8.797   5.864  0.1754 -0.9266 -0.4857
  557MOL0     C73421   5.397   8.755   5.903 -0.0939 -0.3410  0.0582
  557MOL0     O73422   5.382   8.635   5.958 -0.0103  0.7564 -0.1671
  557MOL0     C73423   5.262   8.595   6.014 -0.5772 -1.0591 -1.0596
  557MOL0     C73424   5.156   8.673   6.077  0.2822  0.1066  0.0466
  557MOL0     C73425   5.053   8.608   6.139  0.7601  0.0176 -0.3797
  557MOL0     C73426   5.029   8.472   6.126 -0.5537 -0.5092 -0.0902
  557MOL0     O73427   4.924   8.402   6.182 -0.1986 -0.2189 -0.5725
  557MOL0     C73428   4.829   8.473   6.262 -0.9878 -0.4564  1.3712
  557MOL0     C73429   4.732   8.373   6.323  0.8494  0.2410 -0.4844
  557MOL0     C73430   4.647   8.310   6.216 -0.2302 -0.7912  0.8321
  557MOL0     C73431   4.540   8.226   6.282  0.0471 -0.0161  0.0288
  557MOL0     C73432   4.411   8.217   6.199 -0.2526  0.0936  0.0822
  557MOL0     C73433   4.303   8.127   6.257 -0.0121 -0.5690  0.1076
  557MOL0     C73434   4.169   8.158   6.187 -0.1554  0.3219  0.1847
  557MOL0     C73435   4.166   8.093   6.059  0.0094  0.7855  1.0425
  557MOL0    Cl73436   4.184   7.919   6.074  0.0393 -0.1981 -0.1937
  557MOL0     C73437   5.126   8.398   6.052  0.1530 -0.2367  0.1429
  557MOL0     C73438   5.238   8.458   6.001 -0.3726  0.2119 -0.4199
  557MOL0     O73439   5.305   8.836   5.873 -0.0447  0.7182 -0.2684
  557MOL0     C73440   5.646   8.707   5.886 -0.1815 -0.3750 -0.9355
  557MOL0     C73441   5.769   8.748   5.850  0.0797 -0.4839  0.7065
  557MOL0     N73442   6.363   8.889   6.201 -0.8124  0.6413 -0.0944
  557MOL0     N73443   6.475   8.825   6.212 -0.5295 -0.4227 -0.2499
  557MOL0     C73444   6.826   7.851   6.311 -0.0143  0.2130 -0.2850
  557MOL0     C73445   6.935   7.764   6.346  1.1861 -0.3942  0.0495
  557MOL0     C73446   7.314   7.512   6.299 -0.9828  0.2591 -0.1668
  557MOL0     C73447   7.432   7.460   6.225 -0.7272  0.2885 -0.2798
  557MOL0     C73448   7.550   7.439   6.296 -0.1862 -0.2212  0.5854
  557MOL0     C73449   7.566   7.459   6.434  0.1140  0.2598  0.1008
  557MOL0     O73450   7.687   7.438   6.495  0.3438 -0.7105  0.0417
  557MOL0     C73451   7.807   7.397   6.431  0.0606 -0.2897 -0.8205
  557MOL0     C73452   7.902   7.340   6.540  0.2758  0.0623  0.4541
  557MOL0     C73453   7.924   7.460   6.636  0.5416 -0.4122  0.0883
  557MOL0     C73454   8.078   7.498   6.651  0.8505 -0.5146 -0.0263
  557MOL0     C73455   8.122   7.601   6.546  0.6619 -0.4835 -0.8199
  557MOL0     C73456   8.140   7.697   6.470 -0.5742  0.3843  0.1883
  557MOL0     C73457   7.450   7.500   6.504 -0.3464 -0.0904 -0.4199
  557MOL0     C73458   7.328   7.528   6.437 -0.4828 -0.1895 -0.0522
  557MOL0     H73459   7.024   7.710   6.022 -0.6618  1.8003 -0.4628
  557MOL0     H73460   6.836   7.838   5.975  0.5279  0.3906  0.7143
  557MOL0     H73461   6.692   8.102   6.285 -0.6660  2.5404 -1.0011
  557MOL0     H73462   6.567   7.977   6.299 -2.1004  0.8886 -0.4180
  557MOL0     H73463   6.445   8.103   6.099  1.4255 -1.9774 -0.6937
  557MOL0     H73464   6.578   8.214   6.110  2.7321 -1.3720  1.5677
  557MOL0     H73465   6.373   8.162   6.320 -0.7451  1.2212 -0.4279
  557MOL0     H73466   6.387   8.296   6.213  3.3668  0.1199 -3.1550
  557MOL0     H73467   6.489   8.366   6.438  1.5177  1.2216  1.0224
  557MOL0     H73468   6.604   8.242   6.424 -0.8427  0.6030  2.2200
  557MOL0     H73469   6.735   8.357   6.265  0.0401 -0.5622  0.4241
  557MOL0     H73470   6.668   8.473   6.372  0.4899 -0.6823 -0.1348
  557MOL0     H73471   6.485   8.525   6.209 -1.3576 -1.2082 -2.4901
  557MOL0     H73472   6.566   8.427   6.090 -1.3024  0.2124  0.5966
  557MOL0     H73473   6.704   8.659   6.245  0.1496 -1.2756  1.4917
  557MOL0     H73474   6.760   8.557   6.103  0.0498 -0.6358  0.4715
  557MOL0     H73475   6.610   8.629   5.958  0.2974 -1.0207 -0.1864
  557MOL0     H73476   6.677   8.772   6.013  0.3738 -0.9393 -1.3650
  557MOL0     H73477   6.390   8.759   5.904  2.0716  3.8603 -1.3032
  557MOL0     H73478   6.220   9.066   6.021 -1.2353 -0.6817 -3.6209
  557MOL0     H73479   6.122   8.983   6.119 -0.4003  0.4744 -0.8092
  557MOL0     H73480   6.042   8.839   5.940  0.7586 -2.9651 -2.8292
  557MOL0     H73481   6.188   8.862   5.846 -1.7058 -0.8892 -0.9187
  557MOL0     H73482   5.983   9.071   5.930 -0.6633 -0.3128 -0.1039
  557MOL0     H73483   6.128   9.121   5.834 -2.5840  1.2812 -0.7224
  557MOL0     H73484   6.062   9.008   5.645  0.2488  0.7655  0.8592
  557MOL0     H73485   5.907   9.091   5.702 -0.3494  0.6158  1.2331
  557MOL0     H73486   5.709   9.024   5.679 -0.7926  0.6914 -0.3668
  557MOL0     H73487   5.470   8.981   5.788  0.0237 -0.8900 -0.2884
  557MOL0     H73488   5.144   8.781   6.084 -1.6295  0.2665 -3.5323
  557MOL0     H73489   4.989   8.675   6.196  3.4943  1.8339  0.7744
  557MOL0     H73490   4.777   8.535   6.188 -0.9778 -3.2769 -1.2239
  557MOL0     H73491   4.889   8.530   6.333  0.1319  1.2479 -0.8330
  557MOL0     H73492   4.672   8.428   6.397  1.3411  1.8566 -1.2448
  557MOL0     H73493   4.792   8.301   6.379  2.0010  2.6402  1.5816
  557MOL0     H73494   4.705   8.248   6.147 -1.1253 -2.9294  1.9013
  557MOL0     H73495   4.614   8.395   6.156  3.1680  0.1329  0.0975
  557MOL0     H73496   4.581   8.126   6.296  1.9793  0.9093  1.3828
  557MOL0     H73497   4.507   8.268   6.378 -0.1912 -1.0048  0.3954
  557MOL0     H73498   4.438   8.171   6.104 -2.8383  0.7827 -1.0607
  557MOL0     H73499   4.378   8.322   6.197  2.0179  0.8599 -1.7832
  557MOL0     H73500   4.289   8.172   6.356 -1.6600  1.4690 -0.9699
  557MOL0     H73501   4.333   8.022   6.265 -3.2554 -1.5554  0.8011
  557MOL0     H73502   4.096   8.106   6.249 -3.2665  0.2904 -3.1906
  557MOL0     H73503   4.138   8.263   6.183 -1.6836 -0.0846  0.7204
  557MOL0     H73504   4.237   8.142   5.991 -0.1147  0.3004  0.5564
  557MOL0     H73505   4.063   8.110   6.027 -1.1039 -0.1588  3.8919
  557MOL0     H73506   5.124   8.289   6.059 -0.8571 -0.4237 -2.1813
  557MOL0     H73507   5.312   8.388   5.965 -0.1960  0.2967 -0.2232
  557MOL0     H73508   5.646   8.608   5.930  1.6730 -0.2349 -0.5062
  557MOL0     H73509   5.853   8.685   5.877 -0.2124 -0.9918  0.4423
  557MOL0     H73510   6.755   7.881   6.387 -1.9509 -1.9393 -1.0941
  557MOL0     H73511   6.975   7.738   6.443  1.2370  0.7414  0.3505
  557MOL0     H73512   7.440   7.443   6.119  1.0340 -0.3729 -0.0707
  557MOL0     H73513   7.629   7.425   6.224 -1.1526 -1.6092 -0.2550
  557MOL0     H73514   7.849   7.486   6.383  3.4156 -0.3440  1.6568
  557MOL0     H73515   7.784   7.318   6.359  3.6260 -2.2196 -0.0747
  557MOL0     H73516   7.866   7.262   6.609 -0.3906  0.7435  0.8842
  557MOL0     H73517   7.998   7.301   6.506  1.2300 -1.7490  4.5214
  557MOL0     H73518   7.884   7.440   6.735 -0.8188  1.9628  0.1023
  557MOL0     H73519   7.873   7.549   6.598  0.8516 -1.3262 -2.7245
  557MOL0     H73520   8.090   7.549   6.747 -2.3630 -2.1470  1.4008
  557MOL0     H73521   8.129   7.401   6.639 -1.6697 -1.9402  0.0963
  557MOL0     H73522   8.153   7.776   6.399 -0.4465  0.5952  0.4486
  557MOL0     H73523   7.473   7.511   6.609  1.4507 -1.0700 -0.6684
  557MOL0     H73524   7.253   7.586   6.489  1.4077  2.9681 -0.5868
  558MOL0     O73525   0.683   8.788   4.653 -0.8769 -0.3762 -1.0945
  558MOL0     C73526   0.721   8.696   4.728 -0.3401 -0.6291  0.6537
  558MOL0     O73527   0.645   8.587   4.764  0.0649 -0.2124 -0.1098
  558MOL0     C73528   0.538   8.549   4.681 -0.3679 -0.0340  0.2664
  558MOL0     C73529   0.577   8.470   4.569  0.1902 -0.3923 -0.0216
  558MOL0     C73530   0.472   8.429   4.484 -0.0019  0.4092  0.4109
  558MOL0     C73531   0.332   8.455   4.497 -0.7409 -0.5609  0.0414
  558MOL0     O73532   0.245   8.388   4.419 -0.2177  0.3084  0.0204
  558MOL0     C73533   0.109   8.375   4.458 -0.5106  0.2019  0.7158
  558MOL0     C73534   0.046   8.272   4.371  0.6021  0.0278 -0.6701
  558MOL0     C73535  -0.106   8.263   4.390 -0.0286 -0.1014 -0.8068
  558MOL0     C73536  -0.154   8.149   4.313  0.5601  0.9838  0.8262
  558MOL0     C73537  -0.307   8.120   4.322 -0.7929  0.0968 -0.7443
  558MOL0     C73538  -0.331   7.988   4.247 -0.4953  0.1152 -0.4868
  558MOL0     C73539  -0.478   7.965   4.204  0.5722  0.4094 -1.0110
  558MOL0     C73540  -0.568   7.946   4.323 -0.1641  0.1198 -1.1122
  558MOL0     N73541  -0.711   7.915   4.303  0.3614  0.0078 -0.5987
  558MOL0     C73542  -0.816   7.987   4.345  0.4556  0.1236  0.7302
  558MOL0     C73543  -0.925   7.941   4.275  0.2154  0.4021  0.1151
  558MOL0     C73544  -1.068   7.986   4.281 -0.0042  0.0133 -0.4327
  558MOL0     C73545  -1.137   7.913   4.405  0.4935 -0.6702 -0.2960
  558MOL0     C73546  -1.144   7.757   4.385  0.1162  0.0141  0.1193
  558MOL0     C73547  -1.189   7.703   4.248 -0.2097  0.0575  0.1896
  558MOL0     O73548  -1.256   7.578   4.261 -0.2091  0.8586 -0.3110
  558MOL0     C73549  -1.390   7.573   4.248  0.1007 -0.1565  0.3257
  558MOL0     C73550  -1.480   7.675   4.283  0.5209  0.6418  0.5575
  558MOL0     C73551  -1.616   7.653   4.255  0.0584 -0.0016  0.1006
  558MOL0     C73552  -1.670   7.525   4.215  0.2452 -0.9483 -0.2235
  558MOL0     C73553  -1.810   7.490   4.212  0.1964  0.3117 -0.8559
  558MOL0     O73554  -1.847   7.362   4.162 -0.1284 -0.0117  0.7175
  558MOL0     C73555  -1.982   7.337   4.136 -1.1921  0.1109 -0.4143
  558MOL0     C73556  -2.047   7.414   4.043  0.6261 -0.3874  0.8134
  558MOL0     C73557  -2.179   7.386   4.013 -0.2173  0.3750 -1.1910
  558MOL0     C73558  -2.251   7.281   4.078 -0.1718 -0.1658  0.3126
  558MOL0     O73559  -2.382   7.253   4.053 -0.5167 -0.0861  0.1407
  558MOL0     C73560  -2.456   7.337   3.959 -0.2618  0.7516 -0.4321
  558MOL0     C73561  -2.595   7.274   3.929  0.3632  0.8439  0.0875
  558MOL0     C73562  -2.695   7.314   4.036  0.3071  0.6332 -0.5574
  558MOL0     C73563  -2.842   7.288   3.989 -0.2258  0.0687  0.3277
  558MOL0     C73564  -2.925   7.337   4.098  0.6443 -0.2884  0.3504
  558MOL0     C73565  -3.077   7.321   4.048  0.3392 -0.1750 -0.8333
  558MOL0     C73566  -3.167   7.350   4.167  1.0009 -0.1565 -0.4737
  558MOL0     C73567  -3.318   7.336   4.126 -0.4542  0.0691  0.0232
  558MOL0    Cl73568  -3.350   7.173   4.063 -0.0972 -0.6310 -0.2041
  558MOL0     C73569  -2.175   7.197   4.159  0.0862 -0.1526 -0.9069
  558MOL0     C73570  -2.046   7.227   4.192  0.4444  0.1909 -0.1095
  558MOL0     O73571  -1.884   7.582   4.254 -0.0727  0.3184  0.4898
  558MOL0     C73572  -1.573   7.431   4.180 -0.0719  0.4478 -0.3470
  558MOL0     C73573  -1.439   7.453   4.197 -0.0001  0.0191  0.2708
  558MOL0     N73574  -0.887   7.833   4.200 -0.8404 -0.4602 -0.7272
  558MOL0     N73575  -0.759   7.828   4.212 -0.8484  0.6339  0.5963
  558MOL0     C73576   0.309   8.525   4.614  0.4885  0.2531 -0.7347
  558MOL0     C73577   0.405   8.566   4.710 -0.6266 -0.5873 -0.2454
  558MOL0     C73578   0.862   8.711   4.785  0.1179 -0.0870  0.6914
  558MOL0     C73579   0.962   8.788   4.715  0.2744  1.1066  0.2278
  558MOL0     C73580   1.087   8.801   4.770 -0.3468 -0.5092 -0.0519
  558MOL0     C73581   1.120   8.736   4.889  0.1252 -0.3659  0.2054
  558MOL0     O73582   1.242   8.761   4.945  0.3102 -0.0926 -0.5309
  558MOL0     C73583   1.352   8.776   4.862 -0.3919 -0.7631 -0.2403
  558MOL0     C73584   1.462   8.724   4.953 -0.4193  0.6173 -0.1897
  558MOL0     C73585   1.604   8.737   4.886 -0.0026  0.3775  0.0956
  558MOL0     C73586   1.716   8.714   4.988 -0.1041  0.1725 -0.5065
  558MOL0     C73587   1.690   8.590   5.061  0.1697 -0.5594 -0.1909
  558MOL0     C73588   1.674   8.476   5.117  0.1686  0.6120  0.3112
  558MOL0     C73589   1.021   8.659   4.950  0.2086  0.2775  0.5644
  558MOL0     C73590   0.894   8.644   4.900 -0.1934  0.5243  0.3092
  558MOL0     H73591   0.681   8.455   4.541  0.9506 -0.5646  2.6169
  558MOL0     H73592   0.504   8.375   4.395  0.4971  0.0267  0.8137
  558MOL0     H73593   0.045   8.463   4.453 -4.2832 -2.1981  2.0043
  558MOL0     H73594   0.100   8.343   4.562  2.0856  2.1139  1.6474
  558MOL0     H73595   0.086   8.173   4.393  0.9306  0.0593 -1.0888
  558MOL0     H73596   0.059   8.288   4.263 -5.9614  0.2459 -1.8142
  558MOL0     H73597  -0.146   8.360   4.360 -0.7168 -0.5229 -1.2872
  558MOL0     H73598  -0.139   8.252   4.493  0.4208  1.6399 -0.4443
  558MOL0     H73599  -0.128   8.173   4.210 -1.5256 -0.5877 -0.1306
  558MOL0     H73600  -0.096   8.064   4.349 -1.6820 -0.7403  0.5982
  558MOL0     H73601  -0.353   8.204   4.269  2.0047  1.3302 -1.3980
  558MOL0     H73602  -0.356   8.108   4.419 -3.8147  2.3996 -1.7964
  558MOL0     H73603  -0.297   7.910   4.317  0.9099  1.6757  0.6365
  558MOL0     H73604  -0.276   7.988   4.153 -0.5874 -1.3349 -0.5721
  558MOL0     H73605  -0.515   8.046   4.141  1.6527  1.4491 -0.3617
  558MOL0     H73606  -0.483   7.869   4.152  0.3953 -0.7184  0.9750
  558MOL0     H73607  -0.552   8.027   4.395  3.2550 -2.1941  1.1068
  558MOL0     H73608  -0.535   7.854   4.374  0.0045 -0.1008 -1.6079
  558MOL0     H73609  -0.806   8.082   4.397  0.1921  1.5309 -1.6371
  558MOL0     H73610  -1.124   7.961   4.190  0.9319  0.7435 -1.2358
  558MOL0     H73611  -1.072   8.092   4.308 -0.1133 -0.8854  3.7875
  558MOL0     H73612  -1.232   7.965   4.421  0.8727  0.1408 -0.6042
  558MOL0     H73613  -1.077   7.928   4.495  0.0475 -0.3274 -0.0528
  558MOL0     H73614  -1.051   7.705   4.410  1.9874  2.6335 -0.9104
  558MOL0     H73615  -1.215   7.716   4.457  0.7919 -1.3833  0.0303
  558MOL0     H73616  -1.110   7.690   4.174 -0.7665 -1.2139 -0.2007
  558MOL0     H73617  -1.263   7.774   4.209 -1.4234 -2.5832 -2.7468
  558MOL0     H73618  -1.447   7.768   4.329 -0.0745  1.2883 -0.2996
  558MOL0     H73619  -1.697   7.718   4.285 -2.3544 -3.3927  1.6427
  558MOL0     H73620  -1.998   7.495   3.988 -0.0454 -1.4686 -1.5249
  558MOL0     H73621  -2.220   7.448   3.934 -0.6356  0.5740 -0.8272
  558MOL0     H73622  -2.404   7.345   3.863 -2.5707 -0.9337 -1.9348
  558MOL0     H73623  -2.472   7.435   4.005 -1.3283 -0.9162  3.1427
  558MOL0     H73624  -2.578   7.166   3.928  1.0146  0.9435 -0.6960
  558MOL0     H73625  -2.623   7.321   3.834 -1.2880  1.2671  0.7526
  558MOL0     H73626  -2.675   7.420   4.051 -1.2548  0.9350 -0.4669
  558MOL0     H73627  -2.684   7.268   4.135 -1.2346  2.8926  0.7679
  558MOL0     H73628  -2.872   7.340   3.898 -3.0619 -1.8100  0.0941
  558MOL0     H73629  -2.852   7.181   3.971  1.9184 -0.4686  1.9107
  558MOL0     H73630  -2.906   7.444   4.113  0.3810 -0.4352  1.8739
  558MOL0     H73631  -2.906   7.274   4.185 -0.4858  0.3927  1.1095
  558MOL0     H73632  -3.081   7.215   4.018  0.6675 -0.2791 -0.5157
  558MOL0     H73633  -3.103   7.389   3.967 -1.8211 -0.2743 -0.2695
  558MOL0     H73634  -3.139   7.270   4.235 -0.3237 -1.0645 -0.9515
  558MOL0     H73635  -3.163   7.453   4.202 -3.0901 -0.1723  0.5035
  558MOL0     H73636  -3.343   7.406   4.045  0.0019  1.9653  1.4648
  558MOL0     H73637  -3.379   7.361   4.212 -0.1451  0.4124  0.1451
  558MOL0     H73638  -2.226   7.107   4.190  2.5413 -1.5636 -0.6986
  558MOL0     H73639  -2.005   7.165   4.271 -1.6521  0.7016  1.4759
  558MOL0     H73640  -1.607   7.334   4.147 -0.0299 -0.1786  1.3472
  558MOL0     H73641  -1.368   7.378   4.165  2.0098  2.6528 -2.0574
  558MOL0     H73642   0.205   8.531   4.645  0.7027 -1.4770  0.4782
  558MOL0     H73643   0.378   8.623   4.798  1.5490  0.6573 -0.3188
  558MOL0     H73644   0.941   8.842   4.623 -0.6864  1.5113  0.6785
  558MOL0     H73645   1.166   8.860   4.727  1.3712 -1.5181  1.5743
  558MOL0     H73646   1.351   8.883   4.840  1.9202 -0.5476  0.4625
  558MOL0     H73647   1.353   8.716   4.771  0.5661 -0.7961 -0.2180
  558MOL0     H73648   1.461   8.776   5.049 -2.5667  1.6226 -0.6942
  558MOL0     H73649   1.441   8.618   4.970  0.7547  0.5529  1.0241
  558MOL0     H73650   1.631   8.836   4.850 -1.2867  0.9718  0.6935
  558MOL0     H73651   1.618   8.668   4.802  0.1412  1.2606 -0.6188
  558MOL0     H73652   1.811   8.710   4.932 -0.4235  1.3612 -1.1916
  558MOL0     H73653   1.720   8.794   5.063 -2.0468 -1.0075  0.9266
  558MOL0     H73654   1.675   8.382   5.168  3.3663  0.9086  0.9689
  558MOL0     H73655   1.031   8.610   5.046 -0.8383 -1.8435 -0.3452
  558MOL0     H73656   0.827   8.574   4.951 -1.3817  2.3603  1.4104
  559MOL0     O73657   9.854   2.394   9.310  0.0192 -0.3849 -0.1361
  559MOL0     C73658   9.844   2.285   9.256  0.2530  0.2952  0.4351
  559MOL0     O73659   9.732   2.243   9.188  0.5745  0.0503  0.3580
  559MOL0     C73660   9.608   2.305   9.188  0.0073 -0.1144  0.3114
  559MOL0     C73661   9.502   2.213   9.196 -0.0826  0.3690 -0.5405
  559MOL0     C73662   9.372   2.254   9.166  0.4099 -0.2158  0.6108
  559MOL0     C73663   9.353   2.387   9.121  0.6064  0.3752 -0.6611
  559MOL0     O73664   9.234   2.432   9.084  0.2108 -0.5135  0.1229
  559MOL0     C73665   9.142   2.467   9.188 -0.0218 -0.4405 -0.0049
  559MOL0     C73666   9.008   2.521   9.120  0.1855 -0.1209  0.4547
  559MOL0     C73667   8.917   2.588   9.217 -0.6582  0.2176 -0.3757
  559MOL0     C73668   8.804   2.656   9.145  0.0150 -0.8843  0.3665
  559MOL0     C73669   8.718   2.742   9.240 -0.1412 -0.3831 -0.1435
  559MOL0     C73670   8.599   2.802   9.153  0.2538 -0.7944 -0.7317
  559MOL0     C73671   8.474   2.714   9.154 -0.1958  0.5364 -0.0449
  559MOL0     C73672   8.353   2.767   9.066  0.4429  0.9355 -0.7641
  559MOL0     N73673   8.236   2.678   9.087  0.1811  0.4573 -0.2048
  559MOL0     C73674   8.133   2.655   9.000  1.1685  1.0895 -0.7363
  559MOL0     C73675   8.049   2.569   9.079  0.0550  0.2145 -0.5969
  559MOL0     C73676   7.924   2.497   9.030 -0.7213 -1.3412 -0.5724
  559MOL0     C73677   7.812   2.604   9.023 -0.2053  0.2461  0.5324
  559MOL0     C73678   7.675   2.545   8.976  0.4857 -0.1988  0.1060
  559MOL0     C73679   7.570   2.646   8.995  0.2647 -0.1574 -0.5592
  559MOL0     O73680   7.447   2.574   8.982  0.5097 -0.2586  0.6638
  559MOL0     C73681   7.329   2.638   9.009 -1.1530  0.1449 -0.2927
  559MOL0     C73682   7.310   2.781   9.027 -0.1187  0.4964 -0.4687
  559MOL0     C73683   7.186   2.829   9.083  0.1464 -0.4839 -0.8427
  559MOL0     C73684   7.084   2.739   9.112 -0.5983 -0.5417  0.7891
  559MOL0     C73685   6.949   2.785   9.154  0.2674  0.0711 -0.0673
  559MOL0     O73686   6.931   2.922   9.161  0.0518  0.2964 -0.7148
  559MOL0     C73687   6.807   2.958   9.204  0.5631 -0.9590 -0.0481
  559MOL0     C73688   6.715   2.991   9.103  0.3802 -0.3045  0.4997
  559MOL0     C73689   6.583   3.023   9.139 -0.0347 -0.3346 -0.1729
  559MOL0     C73690   6.541   3.022   9.276 -1.1869 -0.3726  0.2164
  559MOL0     O73691   6.416   3.060   9.314 -0.4507 -0.1834 -0.6139
  559MOL0     C73692   6.313   2.984   9.247  0.3790 -0.2867  0.6304
  559MOL0     C73693   6.175   3.018   9.302  1.3905  0.8157  0.2240
  559MOL0     C73694   6.065   2.957   9.204  0.7449  0.1371 -1.5316
  559MOL0     C73695   5.929   3.033   9.211  0.8657 -0.6375  0.9363
  559MOL0     C73696   5.817   3.019   9.106  0.1720 -0.8537 -0.2867
  559MOL0     C73697   5.698   3.100   9.146 -0.4780 -1.4118  0.8310
  559MOL0     C73698   5.585   3.099   9.044 -0.5202 -0.0542  0.1392
  559MOL0     C73699   5.478   3.202   9.077 -0.1018 -0.2149  0.3874
  559MOL0    Cl73700   5.409   3.189   9.244  0.4315  0.3778 -0.1795
  559MOL0     C73701   6.639   3.003   9.378 -0.1507  0.9286 -0.0074
  559MOL0     C73702   6.773   2.965   9.341  0.1217  0.4018  0.0524
  559MOL0     O73703   6.872   2.695   9.188  0.0616 -0.4840 -0.4604
  559MOL0     C73704   7.101   2.604   9.087  0.5690 -0.4218 -0.3332
  559MOL0     C73705   7.227   2.551   9.050  0.1114 -0.0017  0.5524
  559MOL0     N73706   8.107   2.543   9.204 -0.2060  0.5053 -0.5533
  559MOL0     N73707   8.219   2.611   9.204  0.0711 -0.3158  0.0932
  559MOL0     C73708   9.453   2.478   9.129 -0.2666  0.3925  0.0116
  559MOL0     C73709   9.583   2.441   9.160 -0.6370 -0.4041 -0.5340
  559MOL0     C73710   9.966   2.203   9.260 -0.0835 -0.2507  0.2312
  559MOL0     C73711  10.083   2.249   9.325  0.1589  0.2449 -0.6494
  559MOL0     C73712  10.198   2.169   9.330  0.0646  0.2890  0.9991
  559MOL0     C73713  10.195   2.035   9.270 -0.2004  0.4695  0.3209
  559MOL0     O73714  10.307   1.953   9.273 -0.0159 -0.9514 -0.2142
  559MOL0     C73715  10.312   1.857   9.373  0.2945 -0.4281  0.2683
  559MOL0     C73716  10.305   1.902   9.517  0.2380 -1.2797 -0.3307
  559MOL0     C73717  10.427   1.992   9.541  0.3587 -0.3729  1.0763
  559MOL0     C73718  10.433   2.034   9.691 -0.3572  0.8745 -0.1128
  559MOL0     C73719  10.565   2.096   9.714  0.4445 -0.2452  0.2843
  559MOL0     C73720  10.677   2.141   9.712  0.3864 -0.1665  0.4950
  559MOL0     C73721  10.081   1.993   9.200 -1.0581  0.4603  0.3776
  559MOL0     C73722   9.963   2.071   9.203  0.6079 -1.0542 -0.3652
  559MOL0     H73723   9.519   2.109   9.220 -1.6028  0.7713  2.9692
  559MOL0     H73724   9.289   2.185   9.167  0.6270 -0.7219 -2.8938
  559MOL0     H73725   9.190   2.549   9.242  2.6763 -2.2739  0.5763
  559MOL0     H73726   9.118   2.387   9.258  0.9856  0.8548  1.9233
  559MOL0     H73727   8.962   2.442   9.060  1.8557 -1.6074  1.0406
  559MOL0     H73728   9.039   2.602   9.054  3.0146 -1.2650  0.2459
  559MOL0     H73729   8.974   2.663   9.273 -1.1506  1.8440 -1.9345
  559MOL0     H73730   8.877   2.519   9.292  2.9331 -0.0146  1.5346
  559MOL0     H73731   8.850   2.716   9.067 -1.3407  1.0625  0.9857
  559MOL0     H73732   8.735   2.587   9.096  0.1541 -0.9986  0.3284
  559MOL0     H73733   8.785   2.820   9.275 -0.3473  0.7987 -2.2226
  559MOL0     H73734   8.683   2.686   9.327  0.4153 -1.3792 -0.5346
  559MOL0     H73735   8.624   2.828   9.050 -0.0676 -3.4262 -1.5647
  559MOL0     H73736   8.567   2.891   9.207 -2.4611 -1.9319 -0.2594
  559MOL0     H73737   8.497   2.622   9.100  0.0079 -0.2380  1.3173
  559MOL0     H73738   8.445   2.694   9.257  0.8547 -1.1765 -0.0498
  559MOL0     H73739   8.378   2.773   8.960  0.3434  4.0346 -0.7099
  559MOL0     H73740   8.338   2.872   9.092 -0.8633  1.2652 -2.6768
  559MOL0     H73741   8.100   2.689   8.902 -5.7762  1.0803  1.0847
  559MOL0     H73742   7.885   2.424   9.101  0.0181 -0.3518  0.8994
  559MOL0     H73743   7.941   2.434   8.942  2.1239 -2.8013  0.8550
  559MOL0     H73744   7.851   2.673   8.947  2.8103  0.6198  2.2690
  559MOL0     H73745   7.797   2.658   9.117  1.8375  1.7213  0.0730
  559MOL0     H73746   7.683   2.511   8.872  1.3312 -1.8544  0.6857
  559MOL0     H73747   7.651   2.458   9.037 -1.0319  1.9817  2.8440
  559MOL0     H73748   7.581   2.725   8.921  1.6004 -1.0492 -1.3519
  559MOL0     H73749   7.576   2.688   9.096  2.4224 -1.1360 -0.2128
  559MOL0     H73750   7.397   2.845   9.015 -0.1254  0.3133 -1.6515
  559MOL0     H73751   7.172   2.936   9.094 -2.6940 -0.7121 -1.3617
  559MOL0     H73752   6.738   2.991   8.997 -0.9655 -0.3693  0.1891
  559MOL0     H73753   6.516   3.038   9.055 -0.6767 -1.7189  0.0689
  559MOL0     H73754   6.319   2.878   9.272  1.6847  0.4479  4.0057
  559MOL0     H73755   6.318   3.011   9.141 -0.3350  0.8074  0.8549
  559MOL0     H73756   6.155   3.126   9.303 -3.5037  0.1123  0.0042
  559MOL0     H73757   6.157   2.972   9.400  1.3841 -0.6936 -0.4671
  559MOL0     H73758   6.052   2.854   9.238 -0.5902  0.0338 -2.2806
  559MOL0     H73759   6.099   2.944   9.100  0.7324 -1.5278 -1.3460
  559MOL0     H73760   5.899   3.008   9.313  1.1681 -1.1587  0.9007
  559MOL0     H73761   5.963   3.138   9.209  1.0795 -0.6479  2.5127
  559MOL0     H73762   5.799   2.911   9.110 -1.2482 -0.6002  1.4983
  559MOL0     H73763   5.855   3.045   9.007  1.1008  1.2003  0.5391
  559MOL0     H73764   5.735   3.203   9.150  0.7429 -1.6099 -2.2917
  559MOL0     H73765   5.669   3.065   9.245 -1.4979  0.1410  1.1261
  559MOL0     H73766   5.624   3.139   8.950  0.4943  1.3540  1.1150
  559MOL0     H73767   5.551   2.998   9.018  3.1766 -1.0753 -1.3622
  559MOL0     H73768   5.400   3.174   9.006  0.7700 -0.7089 -0.3948
  559MOL0     H73769   5.514   3.304   9.061  2.9737 -1.5888 -2.8491
  559MOL0     H73770   6.620   3.022   9.484 -1.5367 -1.2661  0.2002
  559MOL0     H73771   6.859   2.940   9.403  0.3277 -3.1039 -1.4173
  559MOL0     H73772   7.020   2.533   9.100 -1.4386  2.1677  2.7350
  559MOL0     H73773   7.241   2.443   9.046  0.6132  0.0960 -0.5853
  559MOL0     H73774   9.433   2.584   9.111  0.2831  0.8301  1.7290
  559MOL0     H73775   9.667   2.510   9.164 -0.7843 -0.2647  2.5686
  559MOL0     H73776  10.088   2.348   9.369 -1.8671 -0.4587  1.3360
  559MOL0     H73777  10.290   2.206   9.373 -0.4716  2.5486  0.3067
  559MOL0     H73778  10.408   1.805   9.365  2.2128  3.0330 -1.3947
  559MOL0     H73779  10.225   1.799   9.343  0.4718  0.2451 -1.6458
  559MOL0     H73780  10.223   1.969   9.544  0.6632 -0.7162 -0.4260
  559MOL0     H73781  10.299   1.815   9.583 -1.1731  0.4817  2.0023
  559MOL0     H73782  10.422   2.083   9.480  0.7196 -0.5760  0.7392
  559MOL0     H73783  10.515   1.937   9.508  0.3933  0.9082 -1.1393
  559MOL0     H73784  10.351   2.102   9.715 -1.9379 -1.0332  0.2153
  559MOL0     H73785  10.421   1.944   9.752  1.4178  0.7531  0.1119
  559MOL0     H73786  10.776   2.181   9.702  0.0180  0.7907  0.5498
  559MOL0     H73787  10.082   1.891   9.162 -0.5260  0.5657  0.1052
  559MOL0     H73788   9.871   2.030   9.164 -2.0008  1.5613  2.5388
  560MOL0     O73789   8.895   9.186   7.949  0.2885 -0.3013 -0.3812
  560MOL0     C73790   8.992   9.178   7.874 -0.7062 -0.3782 -0.2965
  560MOL0     O73791   8.989   9.133   7.739  0.0676 -0.1852 -0.3982
  560MOL0     C73792   8.872   9.094   7.689 -0.3161  0.2400  0.4085
  560MOL0     C73793   8.882   8.963   7.643 -0.7148 -1.0984  0.0225
  560MOL0     C73794   8.773   8.902   7.590  0.5340  0.4693  0.1099
  560MOL0     C73795   8.648   8.977   7.579 -0.0252  0.3496 -0.3588
  560MOL0     O73796   8.528   8.925   7.537 -0.2752  0.3383  0.3385
  560MOL0     C73797   8.532   8.788   7.493 -0.5166  0.4449  0.2202
  560MOL0     C73798   8.388   8.748   7.446  0.0282  0.3626 -0.2939
  560MOL0     C73799   8.277   8.761   7.552 -0.3959  0.6645  0.6471
  560MOL0     C73800   8.157   8.672   7.513 -0.0737  0.8320 -0.3492
  560MOL0     C73801   8.029   8.699   7.593  0.1454  0.7566  0.4503
  560MOL0     C73802   7.921   8.603   7.545 -0.7139 -0.5986 -0.5225
  560MOL0     C73803   7.783   8.641   7.596  0.1144  0.5054 -0.0666
  560MOL0     C73804   7.661   8.559   7.551 -0.2564  0.3309 -0.6741
  560MOL0     N73805   7.529   8.606   7.599  0.0235 -0.6648 -0.2711
  560MOL0     C73806   7.478   8.703   7.522  0.3009 -0.1919 -0.4943
  560MOL0     C73807   7.373   8.741   7.595  0.4788  0.4452  0.1891
  560MOL0     C73808   7.279   8.851   7.548  0.0248 -0.6349 -0.2202
  560MOL0     C73809   7.162   8.869   7.646 -0.7080 -0.5130  0.3712
  560MOL0     C73810   7.039   8.938   7.578 -0.6985  0.2203 -0.0347
  560MOL0     C73811   6.930   8.937   7.679 -0.3730 -0.1252 -0.3794
  560MOL0     O73812   6.825   9.041   7.645 -0.0380  0.1461  0.0130
  560MOL0     C73813   6.720   9.072   7.734  0.7439  0.9938 -0.4725
  560MOL0     C73814   6.625   9.160   7.690 -0.3599  0.5129  0.4110
  560MOL0     C73815   6.514   9.187   7.765  0.3982 -0.3046 -0.2434
  560MOL0     C73816   6.493   9.119   7.889  0.2632 -0.9998 -0.2313
  560MOL0     C73817   6.375   9.156   7.980  0.1712  0.1687  0.4313
  560MOL0     O73818   6.267   9.221   7.926  0.3378 -1.0169 -0.0453
  560MOL0     C73819   6.163   9.247   8.016  0.6700 -0.1522  0.5905
  560MOL0     C73820   6.101   9.154   8.096  0.6063  0.6190 -0.1007
  560MOL0     C73821   5.995   9.178   8.177  0.3481  1.1043  0.3970
  560MOL0     C73822   5.924   9.303   8.165  0.2629  0.4575  0.6379
  560MOL0     O73823   5.811   9.343   8.237 -0.3297  0.0155 -0.0066
  560MOL0     C73824   5.726   9.236   8.281 -0.4387  0.8927 -0.7475
  560MOL0     C73825   5.604   9.299   8.335  0.8309 -0.3181 -0.8311
  560MOL0     C73826   5.491   9.209   8.382 -0.8151  0.8439 -0.3225
  560MOL0     C73827   5.366   9.274   8.430 -0.4144 -0.2882 -0.2790
  560MOL0     C73828   5.277   9.180   8.503  0.8820  0.2966 -0.0834
  560MOL0     C73829   5.132   9.230   8.509 -0.5104  0.2838 -0.1095
  560MOL0     C73830   5.048   9.135   8.591  0.0287 -0.0692 -0.3183
  560MOL0     C73831   5.011   9.014   8.499  0.0037 -0.6256 -0.3235
  560MOL0    Cl73832   4.940   8.893   8.596 -0.0842 -0.1456 -0.4936
  560MOL0     C73833   5.968   9.396   8.067 -0.1247 -0.4007  0.6968
  560MOL0     C73834   6.084   9.365   7.994  0.7136  0.1759 -0.0906
  560MOL0     O73835   6.381   9.102   8.087  0.5607  0.5620 -0.6093
  560MOL0     C73836   6.590   9.027   7.936 -0.4681  0.2315 -0.1033
  560MOL0     C73837   6.713   9.005   7.862  0.5359 -0.4357 -0.7248
  560MOL0     N73838   7.360   8.679   7.719  0.1268  0.1414 -0.6093
  560MOL0     N73839   7.452   8.590   7.716  0.1519 -0.6890  0.9870
  560MOL0     C73840   8.642   9.106   7.631 -0.2386 -0.5289  0.7442
  560MOL0     C73841   8.755   9.165   7.681  0.7330 -0.3690  0.5579
  560MOL0     C73842   9.122   9.224   7.929  0.9202  0.5096 -0.2406
  560MOL0     C73843   9.233   9.223   7.843  0.0576  0.5156  0.8647
  560MOL0     C73844   9.363   9.242   7.896 -1.0888 -0.8285  0.8347
  560MOL0     C73845   9.383   9.266   8.037  0.1732 -0.2504 -0.0106
  560MOL0     O73846   9.519   9.278   8.078  0.8297 -0.0224 -0.4565
  560MOL0     C73847   9.548   9.300   8.214  0.2413  0.7260 -0.7955
  560MOL0     C73848   9.698   9.327   8.236  0.2626 -0.7176  0.3646
  560MOL0     C73849   9.739   9.341   8.378  0.3822 -0.0738  0.2562
  560MOL0     C73850   9.888   9.298   8.398  1.1250  0.6697 -0.3272
  560MOL0     C73851   9.976   9.388   8.324  0.1152 -0.4355  0.4591
  560MOL0     C73852  10.054   9.466   8.260  0.5388  0.3413 -0.5839
  560MOL0     C73853   9.271   9.266   8.117  0.5012  0.0599  0.5383
  560MOL0     C73854   9.142   9.246   8.066 -0.0167 -0.3039  0.7200
  560MOL0     H73855   8.979   8.914   7.641 -0.8954 -1.4960  0.5703
  560MOL0     H73856   8.777   8.798   7.562 -0.3525  0.3295  0.4771
  560MOL0     H73857   8.562   8.718   7.571 -0.4491 -4.4032 -3.7098
  560MOL0     H73858   8.596   8.782   7.405  1.1284  2.0918  1.2334
  560MOL0     H73859   8.395   8.640   7.428  2.9622  0.3686  0.3764
  560MOL0     H73860   8.354   8.796   7.354 -2.0980 -0.3501  0.0687
  560MOL0     H73861   8.259   8.869   7.563 -0.2882  0.5155  2.5343
  560MOL0     H73862   8.322   8.725   7.644  1.0447  1.5984  0.3424
  560MOL0     H73863   8.135   8.688   7.407 -1.7950 -0.4643 -0.2271
  560MOL0     H73864   8.174   8.565   7.528  0.0708  0.8609 -0.3036
  560MOL0     H73865   7.995   8.801   7.577  0.5654  0.5662 -1.9150
  560MOL0     H73866   8.056   8.685   7.698  1.9721 -0.5158 -0.1393
  560MOL0     H73867   7.952   8.506   7.583  0.4980 -0.3335 -0.7806
  560MOL0     H73868   7.913   8.598   7.436 -1.1693  1.2109 -0.6026
  560MOL0     H73869   7.786   8.642   7.705  0.4418 -0.0988 -0.0657
  560MOL0     H73870   7.771   8.744   7.562  3.3817  1.3464  1.0163
  560MOL0     H73871   7.685   8.463   7.598 -0.1440  1.5584  1.9113
  560MOL0     H73872   7.663   8.545   7.442 -3.2460 -3.4981 -0.4580
  560MOL0     H73873   7.507   8.732   7.422  1.5393 -0.1273 -0.1286
  560MOL0     H73874   7.228   8.813   7.458 -2.8894  0.4699  0.8524
  560MOL0     H73875   7.329   8.944   7.518 -0.7196 -0.1623 -0.0216
  560MOL0     H73876   7.189   8.936   7.728 -1.1107  1.5492 -1.0901
  560MOL0     H73877   7.123   8.771   7.674 -1.9812 -0.1796 -0.1082
  560MOL0     H73878   7.059   9.037   7.536 -1.0784 -0.0117 -0.7766
  560MOL0     H73879   6.997   8.880   7.496 -0.6924  0.7683 -0.4322
  560MOL0     H73880   6.968   8.961   7.779  0.3592  2.5946 -1.2079
  560MOL0     H73881   6.876   8.843   7.686  0.4400 -0.6511 -0.9853
  560MOL0     H73882   6.633   9.219   7.599 -0.7739  1.8523  1.2134
  560MOL0     H73883   6.450   9.270   7.741  0.0175 -0.5953 -0.2382
  560MOL0     H73884   6.140   9.052   8.098  1.0446  0.7893  0.2774
  560MOL0     H73885   5.962   9.101   8.245 -0.8201 -1.1990 -2.5940
  560MOL0     H73886   5.785   9.182   8.355 -0.7577 -0.0093 -1.1293
  560MOL0     H73887   5.693   9.170   8.200 -2.5390  1.2952 -0.2863
  560MOL0     H73888   5.558   9.373   8.270 -3.0640 -0.1873  1.7292
  560MOL0     H73889   5.634   9.355   8.424  0.1745  0.3023 -0.9994
  560MOL0     H73890   5.533   9.137   8.453 -0.0033  1.6294  0.0162
  560MOL0     H73891   5.461   9.153   8.292  0.9715  2.2296 -1.8624
  560MOL0     H73892   5.398   9.349   8.503  2.4305  0.8227 -2.4639
  560MOL0     H73893   5.306   9.317   8.350 -0.3051 -0.4563 -0.4513
  560MOL0     H73894   5.315   9.172   8.606  1.9436  0.7261 -0.4198
  560MOL0     H73895   5.288   9.083   8.453  1.7380  2.0399 -3.5789
  560MOL0     H73896   5.093   9.243   8.408 -1.7130 -0.5613  0.2289
  560MOL0     H73897   5.134   9.326   8.562 -2.1447 -0.5898  1.6478
  560MOL0     H73898   5.109   9.109   8.678 -0.3102  2.0475  0.6041
  560MOL0     H73899   4.953   9.185   8.614  0.3358  0.1145  0.5919
  560MOL0     H73900   5.100   8.987   8.441  0.0980  2.8543 -2.0378
  560MOL0     H73901   4.943   9.053   8.423 -0.7769  2.6264  1.8157
  560MOL0     H73902   5.904   9.482   8.052 -0.0208 -0.6064 -1.2456
  560MOL0     H73903   6.129   9.435   7.924  2.3012  0.2815  0.9921
  560MOL0     H73904   6.577   8.975   8.031 -1.6245 -0.1983 -0.4758
  560MOL0     H73905   6.792   8.943   7.903  1.2564  1.6837  1.3226
  560MOL0     H73906   8.549   9.161   7.626 -0.1513 -0.3297  1.2867
  560MOL0     H73907   8.738   9.268   7.711  0.6879 -0.8464  2.2708
  560MOL0     H73908   9.223   9.216   7.735 -0.5853 -0.3579  0.9707
  560MOL0     H73909   9.443   9.252   7.823 -2.9115  1.0668 -1.0397
  560MOL0     H73910   9.531   9.205   8.264  0.5183  2.6559  3.4406
  560MOL0     H73911   9.478   9.378   8.246 -0.5870 -0.2859 -0.0607
  560MOL0     H73912   9.748   9.248   8.179  4.4620  2.8160 -1.4138
  560MOL0     H73913   9.744   9.416   8.193  0.6475 -0.0605  2.0371
  560MOL0     H73914   9.675   9.279   8.442  0.4635  0.1769  0.5830
  560MOL0     H73915   9.722   9.447   8.399 -2.2161 -0.5284  0.7680
  560MOL0     H73916   9.926   9.292   8.500 -0.8206  0.3583  0.4049
  560MOL0     H73917   9.894   9.194   8.364 -0.3284 -0.0460  1.4572
  560MOL0     H73918  10.104   9.529   8.190 -1.5225 -0.6463 -3.1006
  560MOL0     H73919   9.280   9.280   8.224  1.5606 -1.1440  0.6357
  560MOL0     H73920   9.057   9.263   8.132 -1.9134 -2.3292 -1.0606
  561MOL0     O73921   6.560   7.010   5.147  0.0049  0.8297  0.5529
  561MOL0     C73922   6.547   6.890   5.179 -0.2068 -0.5394 -0.2633
  561MOL0     O73923   6.442   6.834   5.243  0.4485 -0.3529  0.8857
  561MOL0     C73924   6.330   6.908   5.266 -0.2320  0.5610 -0.2263
  561MOL0     C73925   6.281   6.908   5.399  0.3875  0.7502 -0.1503
  561MOL0     C73926   6.159   6.958   5.437  0.5099  0.4703  0.8048
  561MOL0     C73927   6.083   7.025   5.340  0.3062 -0.1842 -0.7052
  561MOL0     O73928   5.982   7.112   5.363 -0.2536  0.1730  0.3420
  561MOL0     C73929   5.955   7.146   5.500 -0.1680  0.1331  0.6602
  561MOL0     C73930   5.849   7.258   5.499  0.3911 -0.0052  0.4282
  561MOL0     C73931   5.705   7.219   5.468 -0.1102  0.2525  0.3659
  561MOL0     C73932   5.645   7.302   5.352 -0.9958  0.6340 -0.0654
  561MOL0     C73933   5.494   7.272   5.335  0.2528 -0.3124  0.7283
  561MOL0     C73934   5.430   7.358   5.222 -0.9007  0.2638 -0.0261
  561MOL0     C73935   5.286   7.391   5.240  1.0805  0.4180 -0.4569
  561MOL0     C73936   5.238   7.486   5.121  0.3162 -0.2072 -0.0874
  561MOL0     N73937   5.091   7.495   5.125 -0.0424  0.4738 -0.1297
  561MOL0     C73938   5.006   7.445   5.026  0.0399  0.8160 -0.2849
  561MOL0     C73939   4.880   7.467   5.073 -0.0582  0.3183 -0.2179
  561MOL0     C73940   4.744   7.436   5.027  0.9659  0.1519 -0.2883
  561MOL0     C73941   4.679   7.316   5.106  0.3080 -0.3167 -0.6299
  561MOL0     C73942   4.527   7.318   5.117  0.2516  0.6610 -0.2677
  561MOL0     C73943   4.474   7.181   5.154  0.0871  0.0183  0.3683
  561MOL0     O73944   4.337   7.184   5.195  0.2707  0.3809 -0.1444
  561MOL0     C73945   4.239   7.199   5.104 -0.4911 -0.5094 -0.0302
  561MOL0     C73946   4.254   7.214   4.966  0.3529  0.0113 -0.6112
  561MOL0     C73947   4.151   7.246   4.884  1.2344  0.0114  0.5003
  561MOL0     C73948   4.024   7.271   4.939 -0.0947  0.9505 -0.6349
  561MOL0     C73949   3.912   7.299   4.849 -0.2792  1.0996 -0.2934
  561MOL0     O73950   3.794   7.298   4.909  0.0332 -0.3665 -0.2340
  561MOL0     C73951   3.676   7.321   4.838  0.0548 -0.3440  0.1770
  561MOL0     C73952   3.579   7.401   4.891  0.7353  0.3655  0.0466
  561MOL0     C73953   3.451   7.423   4.825  0.4988 -0.4465 -0.4746
  561MOL0     C73954   3.427   7.355   4.705  0.0234  0.5745  0.4931
  561MOL0     O73955   3.311   7.363   4.640 -0.1271  0.0944 -0.1706
  561MOL0     C73956   3.320   7.412   4.499  0.0357 -0.4704 -1.3468
  561MOL0     C73957   3.174   7.449   4.459  0.0014 -0.0889  0.4637
  561MOL0     C73958   3.169   7.513   4.317  0.6966 -0.2987 -0.3371
  561MOL0     C73959   3.031   7.579   4.281  1.0556 -0.6616  0.8019
  561MOL0     C73960   3.008   7.610   4.124  0.4238  0.6718  0.6501
  561MOL0     C73961   2.931   7.744   4.102 -0.3592 -0.7293 -0.0094
  561MOL0     C73962   2.782   7.732   4.129 -0.1754 -0.0477  0.2017
  561MOL0     C73963   2.715   7.855   4.066  0.6499 -0.2617 -0.2231
  561MOL0    Cl73964   2.790   8.021   4.097  0.0905  0.0452  0.2685
  561MOL0     C73965   3.519   7.260   4.656 -0.9489 -0.4092  0.3713
  561MOL0     C73966   3.646   7.242   4.726  0.0264 -0.2584  0.1844
  561MOL0     O73967   3.933   7.327   4.732 -0.0390 -0.1511  0.1165
  561MOL0     C73968   4.005   7.257   5.079 -0.5265 -0.2736  0.5602
  561MOL0     C73969   4.108   7.219   5.158  0.4981  0.2745  0.8980
  561MOL0     N73970   4.896   7.516   5.204  0.4574 -0.2541  0.3326
  561MOL0     N73971   5.020   7.528   5.233  0.5288  0.2444  0.2616
  561MOL0     C73972   6.123   7.032   5.207 -0.1993  0.1105  0.7905
  561MOL0     C73973   6.252   6.982   5.172  0.4285 -0.3255 -0.7551
  561MOL0     C73974   6.646   6.791   5.129  0.7151  0.3471 -0.2071
  561MOL0     C73975   6.721   6.811   5.013  0.7824  0.5809  0.2860
  561MOL0     C73976   6.831   6.730   4.971 -0.9036 -1.3984 -0.6698
  561MOL0     C73977   6.860   6.620   5.049 -0.0343 -0.3894  0.2145
  561MOL0     O73978   6.956   6.526   5.021 -0.4769  0.2518  0.6063
  561MOL0     C73979   7.026   6.522   4.890  0.3402 -0.1975  1.1559
  561MOL0     C73980   6.944   6.476   4.769 -0.3623 -0.5354 -0.6352
  561MOL0     C73981   6.948   6.327   4.766 -0.0702  0.5346  0.4357
  561MOL0     C73982   6.879   6.258   4.646  0.5996 -0.0069 -0.5144
  561MOL0     C73983   6.978   6.244   4.540  0.1892  0.2035  0.2336
  561MOL0     C73984   7.074   6.233   4.465  0.3504 -0.0498  1.1013
  561MOL0     C73985   6.777   6.592   5.159 -0.4685  1.3435  0.2066
  561MOL0     C73986   6.675   6.677   5.203  0.4414  0.7237 -0.0629
  561MOL0     H73987   6.346   6.859   5.471 -1.5771  0.9585  1.8834
  561MOL0     H73988   6.129   6.942   5.541 -0.3957 -3.2180  0.1270
  561MOL0     H73989   6.045   7.189   5.544 -0.0265  1.1373 -0.5605
  561MOL0     H73990   5.921   7.057   5.554 -1.1836  0.2898  0.3114
  561MOL0     H73991   5.888   7.325   5.422  0.4447 -0.1616  0.3186
  561MOL0     H73992   5.844   7.312   5.594 -1.5629  0.9411 -0.1636
  561MOL0     H73993   5.642   7.226   5.557  0.1040  2.3830  0.3910
  561MOL0     H73994   5.708   7.117   5.429  2.1813  0.8447 -1.1668
  561MOL0     H73995   5.657   7.408   5.372  0.7498  1.0115 -2.6007
  561MOL0     H73996   5.706   7.274   5.266  1.6421 -1.0015  2.1620
  561MOL0     H73997   5.448   7.307   5.428  1.7239  0.8832  1.0366
  561MOL0     H73998   5.474   7.164   5.323 -0.4429 -0.3167  1.8015
  561MOL0     H73999   5.436   7.302   5.129 -1.1930 -0.3060  0.2940
  561MOL0     H74000   5.485   7.451   5.207 -0.7857  0.2373  0.2355
  561MOL0     H74001   5.232   7.296   5.242 -0.1994  1.0347 -2.4192
  561MOL0     H74002   5.265   7.436   5.337 -1.4315 -1.4246 -0.0409
  561MOL0     H74003   5.259   7.443   5.022 -0.8470  1.9863 -1.3586
  561MOL0     H74004   5.291   7.581   5.124  0.2008 -0.0829 -1.5335
  561MOL0     H74005   5.026   7.395   4.932 -2.3602 -0.8134 -0.0303
  561MOL0     H74006   4.729   7.417   4.921  1.5726 -1.5049 -0.1190
  561MOL0     H74007   4.678   7.517   5.058  0.9601 -0.4584  1.4136
  561MOL0     H74008   4.707   7.309   5.212 -3.3506  0.1425  0.5291
  561MOL0     H74009   4.732   7.232   5.062  0.9737 -0.2281 -0.0247
  561MOL0     H74010   4.494   7.394   5.188 -0.6174 -0.5147  0.6292
  561MOL0     H74011   4.504   7.342   5.012  0.1508 -0.8602 -0.6161
  561MOL0     H74012   4.522   7.146   5.245 -2.4743  2.0658  2.6978
  561MOL0     H74013   4.491   7.125   5.061  2.9998  1.5812 -0.1258
  561MOL0     H74014   4.349   7.202   4.914  2.0238  1.0166  1.9630
  561MOL0     H74015   4.165   7.260   4.777 -0.8871  2.0719  0.4138
  561MOL0     H74016   3.600   7.451   4.985 -1.6190  4.4757 -1.3750
  561MOL0     H74017   3.370   7.485   4.863  0.4090 -0.7672 -0.1313
  561MOL0     H74018   3.358   7.333   4.433  1.0524 -1.0802 -0.0833
  561MOL0     H74019   3.390   7.496   4.498 -2.1934  1.7597  2.9236
  561MOL0     H74020   3.139   7.520   4.534  2.4545  2.0494 -0.2618
  561MOL0     H74021   3.112   7.361   4.478 -1.8339  1.4692  2.2667
  561MOL0     H74022   3.180   7.431   4.246  3.7928 -0.0314 -0.2848
  561MOL0     H74023   3.246   7.589   4.309  1.0859 -0.4660  1.4938
  561MOL0     H74024   2.951   7.516   4.322  0.0729 -0.4898 -0.7477
  561MOL0     H74025   3.035   7.677   4.327  1.6947  1.0241 -2.5180
  561MOL0     H74026   2.949   7.531   4.078 -1.8004  1.0391  2.6576
  561MOL0     H74027   3.104   7.609   4.073  0.0952 -1.2640  0.0136
  561MOL0     H74028   2.934   7.775   3.997 -1.0480 -1.6273 -0.2970
  561MOL0     H74029   2.983   7.817   4.166  3.1367 -3.4265  0.5290
  561MOL0     H74030   2.739   7.642   4.085  3.6343 -0.8214 -2.4418
  561MOL0     H74031   2.767   7.733   4.237 -2.2297  0.3857 -0.0376
  561MOL0     H74032   2.610   7.864   4.098  0.4520  1.2106 -1.2330
  561MOL0     H74033   2.713   7.833   3.959  1.2806 -2.9216  0.2345
  561MOL0     H74034   3.496   7.216   4.560 -2.1208 -0.8661  0.8414
  561MOL0     H74035   3.718   7.189   4.666  1.2416  2.5176 -0.9583
  561MOL0     H74036   3.904   7.264   5.119 -0.9034 -1.1014 -0.2068
  561MOL0     H74037   4.084   7.215   5.264 -1.3124  2.0327  0.6203
  561MOL0     H74038   6.060   7.069   5.127 -0.2905 -2.7643 -0.6048
  561MOL0     H74039   6.288   6.990   5.070 -1.9383  2.8181 -1.5007
  561MOL0     H74040   6.697   6.887   4.939 -1.0803  1.4008  1.6373
  561MOL0     H74041   6.893   6.753   4.885  0.0831 -0.1490  0.3318
  561MOL0     H74042   7.120   6.466   4.890  0.1833 -0.4811  0.2645
  561MOL0     H74043   7.069   6.620   4.867 -1.0301  0.0233 -0.6316
  561MOL0     H74044   6.843   6.513   4.787 -0.2983 -1.3538  1.7800
  561MOL0     H74045   6.987   6.515   4.676  0.4786  0.0631 -0.0129
  561MOL0     H74046   6.902   6.284   4.856  1.0694 -0.2006  0.6804
  561MOL0     H74047   7.055   6.306   4.768 -0.4933 -1.9881  0.2038
  561MOL0     H74048   6.837   6.161   4.675  2.1329 -0.4633  0.2657
  561MOL0     H74049   6.795   6.316   4.605  1.3425  2.3037  0.9926
  561MOL0     H74050   7.168   6.234   4.414  0.2869 -0.3705  0.9766
  561MOL0     H74051   6.800   6.507   5.224 -0.3527  1.6026  0.5069
  561MOL0     H74052   6.614   6.654   5.289 -0.5792  1.3800 -0.5870
  562MOL0     O74053   2.018   2.117   8.914 -0.6703  0.0159  0.0161
  562MOL0     C74054   1.991   2.120   8.796 -0.4041 -0.1218 -0.3429
  562MOL0     O74055   1.879   2.073   8.739  0.0840 -0.7458 -0.1221
  562MOL0     C74056   1.765   2.071   8.817  0.0685 -0.2107  0.1196
  562MOL0     C74057   1.738   2.109   8.945 -0.5926 -0.3578 -0.6742
  562MOL0     C74058   1.615   2.096   9.003 -0.6364 -0.7820  1.0272
  562MOL0     C74059   1.508   2.040   8.931  1.1836 -0.6843 -0.3959
  562MOL0     O74060   1.394   2.005   9.001  0.0518 -0.1418  0.0094
  562MOL0     C74061   1.312   1.915   8.926 -0.9932 -0.3791  0.4010
  562MOL0     C74062   1.211   1.858   9.032 -0.0910 -1.2493  0.6622
  562MOL0     C74063   1.089   1.787   8.965  0.2584 -1.0740  0.8047
  562MOL0     C74064   1.021   1.865   8.846 -0.5759  0.1465 -0.4102
  562MOL0     C74065   0.974   2.014   8.878 -0.1857 -0.5880  0.3830
  562MOL0     C74066   0.879   2.029   8.998 -0.1978 -0.0949 -0.2594
  562MOL0     C74067   0.827   2.175   9.016 -0.7945 -0.1840 -0.3751
  562MOL0     C74068   0.716   2.206   8.926 -0.3834  0.2424 -0.2997
  562MOL0     N74069   0.597   2.126   8.961 -0.4064 -0.2759 -0.5675
  562MOL0     C74070   0.531   2.127   9.082  0.0722  0.1032 -0.1163
  562MOL0     C74071   0.424   2.050   9.074 -0.5389 -0.7642 -0.4262
  562MOL0     C74072   0.319   2.050   9.187  0.5448  0.1208 -0.3898
  562MOL0     C74073   0.211   2.162   9.181  1.2202 -0.5904 -0.2564
  562MOL0     C74074   0.126   2.158   9.308  1.1418 -0.2186  0.4402
  562MOL0     C74075   0.013   2.058   9.311  0.6585  0.0619 -0.6259
  562MOL0     O74076  -0.017   2.008   9.181  0.0488  0.3715 -0.1782
  562MOL0     C74077  -0.096   2.079   9.094  0.0646 -0.9650  0.2129
  562MOL0     C74078  -0.148   2.017   8.982  0.3185 -0.2487  0.0874
  562MOL0     C74079  -0.234   2.087   8.897  0.1684  0.1151  0.4189
  562MOL0     C74080  -0.278   2.218   8.932  0.2045  0.2851 -0.0646
  562MOL0     C74081  -0.381   2.281   8.846 -0.1040 -0.8529 -0.8555
  562MOL0     O74082  -0.430   2.401   8.893  0.6237 -0.1676 -0.4805
  562MOL0     C74083  -0.548   2.459   8.855 -0.4076 -0.2769 -0.0198
  562MOL0     C74084  -0.631   2.513   8.951  0.4314 -0.2096  0.3128
  562MOL0     C74085  -0.750   2.571   8.913  0.4232 -0.3486  0.3985
  562MOL0     C74086  -0.802   2.555   8.790 -0.0383 -0.5368  0.0547
  562MOL0     O74087  -0.927   2.602   8.766  0.2673  0.4727  0.0016
  562MOL0     C74088  -0.971   2.627   8.637 -0.0482 -0.4630  1.2904
  562MOL0     C74089  -1.106   2.697   8.629 -0.1127  0.3129 -0.2396
  562MOL0     C74090  -1.179   2.688   8.495 -0.2742 -0.0847  0.2533
  562MOL0     C74091  -1.302   2.767   8.497 -0.5883 -0.1633  0.4339
  562MOL0     C74092  -1.373   2.726   8.370  0.6255  0.6103 -0.1415
  562MOL0     C74093  -1.505   2.802   8.370 -0.5304 -0.0806 -0.4382
  562MOL0     C74094  -1.583   2.784   8.243  0.8696  0.0068  1.2000
  562MOL0     C74095  -1.730   2.831   8.243 -0.6273  0.1949  0.5640
  562MOL0    Cl74096  -1.761   2.994   8.288  0.0622  0.0462  0.0423
  562MOL0     C74097  -0.717   2.509   8.689 -0.0735  1.0773 -0.0270
  562MOL0     C74098  -0.594   2.455   8.723 -0.2358  0.8944  0.1100
  562MOL0     O74099  -0.432   2.213   8.758 -0.1257 -0.3647  1.0751
  562MOL0     C74100  -0.223   2.283   9.041 -0.1021  0.4579  0.3163
  562MOL0     C74101  -0.133   2.213   9.120  0.6791 -1.0336  0.1611
  562MOL0     N74102   0.419   2.008   8.936 -0.5841 -0.0643 -0.6811
  562MOL0     N74103   0.523   2.052   8.874 -0.0866  0.4522  0.3404
  562MOL0     C74104   1.532   2.013   8.793 -0.1607 -0.0523  0.2396
  562MOL0     C74105   1.657   2.028   8.740 -0.0496 -0.0414 -0.2861
  562MOL0     C74106   2.097   2.159   8.697 -0.7993 -0.0720  0.3193
  562MOL0     C74107   2.068   2.172   8.563 -0.4170  0.6931  0.2089
  562MOL0     C74108   2.176   2.186   8.479 -0.1358  0.0395 -0.1851
  562MOL0     C74109   2.307   2.205   8.523 -0.1033  0.4263  0.4699
  562MOL0     O74110   2.394   2.237   8.423  0.0695  0.0978 -0.0407
  562MOL0     C74111   2.533   2.251   8.444 -0.2554  0.1578 -0.0882
  562MOL0     C74112   2.593   2.115   8.443  0.3013 -0.1128  0.7540
  562MOL0     C74113   2.718   2.125   8.523  0.0638  0.0965 -0.0588
  562MOL0     C74114   2.807   2.000   8.525 -0.3548 -0.3652 -0.2333
  562MOL0     C74115   2.941   2.007   8.600  0.4999 -0.5331  0.3545
  562MOL0     C74116   3.031   2.026   8.670 -0.1433 -0.3803 -0.3298
  562MOL0     C74117   2.334   2.200   8.658 -0.2947  0.1304 -0.0644
  562MOL0     C74118   2.225   2.184   8.747 -0.2561 -0.2067 -0.6183
  562MOL0     H74119   1.814   2.124   9.021 -2.3033  2.6659  0.6269
  562MOL0     H74120   1.591   2.105   9.109  0.3228 -2.8559  1.4880
  562MOL0     H74121   1.378   1.838   8.883 -2.0016 -1.1362  0.1728
  562MOL0     H74122   1.262   1.962   8.840 -0.5478 -1.3587 -0.4125
  562MOL0     H74123   1.188   1.944   9.095  0.2041 -1.5738  1.2214
  562MOL0     H74124   1.259   1.781   9.093  1.0320 -1.6283 -0.6259
  562MOL0     H74125   1.015   1.763   9.042  0.0485  1.2209  1.3946
  562MOL0     H74126   1.118   1.691   8.923 -0.2016 -0.9575  0.2178
  562MOL0     H74127   1.080   1.865   8.755  0.3809 -4.0383 -0.0076
  562MOL0     H74128   0.928   1.811   8.824  0.2245 -0.3259 -2.9216
  562MOL0     H74129   0.923   2.071   8.800 -2.4453  1.1943  2.9672
  562MOL0     H74130   1.060   2.078   8.898 -0.0960 -1.3294  2.6584
  562MOL0     H74131   0.938   2.007   9.088  1.0870  3.2203 -0.1636
  562MOL0     H74132   0.806   1.947   9.000  1.1407 -1.3498  2.7950
  562MOL0     H74133   0.791   2.184   9.119 -1.4460 -1.4655 -0.4649
  562MOL0     H74134   0.907   2.246   8.994 -1.0194  0.1109 -0.2415
  562MOL0     H74135   0.746   2.192   8.821  1.0431 -2.1480  0.3505
  562MOL0     H74136   0.686   2.312   8.929  1.6448  0.8652 -0.1909
  562MOL0     H74137   0.567   2.190   9.163 -0.8581 -1.6962  1.7595
  562MOL0     H74138   0.370   2.053   9.283 -0.6115 -0.1491  0.2579
  562MOL0     H74139   0.262   1.957   9.196  2.1470 -1.3731 -3.8568
  562MOL0     H74140   0.150   2.159   9.091 -0.7010  0.0338  0.9505
  562MOL0     H74141   0.253   2.263   9.179  2.3153 -1.0359 -2.0926
  562MOL0     H74142   0.199   2.146   9.389  4.5046 -5.3585 -2.8136
  562MOL0     H74143   0.092   2.262   9.319  2.7244  0.1255  3.0230
  562MOL0     H74144  -0.074   2.101   9.363  0.5326 -0.5898 -0.2851
  562MOL0     H74145   0.043   1.981   9.383  0.6247  0.2684 -0.3866
  562MOL0     H74146  -0.101   1.924   8.952 -0.1072 -0.4138 -0.0801
  562MOL0     H74147  -0.263   2.039   8.805  4.0476 -2.5808  0.3524
  562MOL0     H74148  -0.599   2.513   9.054  3.5227 -0.3173 -0.5336
  562MOL0     H74149  -0.817   2.627   8.979  0.5132 -0.7591  0.8411
  562MOL0     H74150  -0.967   2.534   8.579 -1.6570  0.9604 -1.3197
  562MOL0     H74151  -0.904   2.696   8.585 -1.1836 -2.4528 -3.2792
  562MOL0     H74152  -1.078   2.801   8.649 -1.0905  0.5564 -0.0953
  562MOL0     H74153  -1.168   2.662   8.712  0.3679  1.1707  0.5002
  562MOL0     H74154  -1.203   2.583   8.476  1.4413 -0.7001  1.2021
  562MOL0     H74155  -1.118   2.722   8.411  0.0675 -1.2968 -0.0127
  562MOL0     H74156  -1.358   2.750   8.589  0.5025 -1.4461  0.8921
  562MOL0     H74157  -1.283   2.874   8.489 -2.7052  0.1153 -3.7948
  562MOL0     H74158  -1.390   2.618   8.367 -2.4752  0.9716 -3.4902
  562MOL0     H74159  -1.327   2.745   8.272  0.6774  2.3355  0.1921
  562MOL0     H74160  -1.479   2.908   8.376 -0.3017 -0.2246  2.3335
  562MOL0     H74161  -1.573   2.785   8.453 -1.6549  0.6982 -1.1815
  562MOL0     H74162  -1.534   2.842   8.164 -0.7281  0.6092  0.6062
  562MOL0     H74163  -1.564   2.677   8.223  0.0108 -0.2127  1.5366
  562MOL0     H74164  -1.778   2.753   8.304  0.3939  1.2430  2.8270
  562MOL0     H74165  -1.769   2.811   8.142 -0.3995  0.4229  0.4300
  562MOL0     H74166  -0.755   2.504   8.587  0.5705 -0.3796 -0.2178
  562MOL0     H74167  -0.542   2.409   8.640 -2.2442 -0.9065 -0.2251
  562MOL0     H74168  -0.250   2.384   9.072  2.4371  0.9199  1.3046
  562MOL0     H74169  -0.100   2.271   9.205 -3.1794  1.4748  0.2026
  562MOL0     H74170   1.452   1.986   8.724 -1.9291  3.5793  0.6278
  562MOL0     H74171   1.659   2.023   8.631  0.3338 -1.6094 -0.2302
  562MOL0     H74172   1.975   2.183   8.508  0.1036  2.2536 -0.4135
  562MOL0     H74173   2.152   2.195   8.373  0.4854 -0.0749 -0.3398
  562MOL0     H74174   2.555   2.310   8.534  6.2044 -0.7926 -0.5758
  562MOL0     H74175   2.575   2.307   8.360  0.0404 -1.5540 -1.1246
  562MOL0     H74176   2.526   2.044   8.492 -0.8430  0.1141 -0.4391
  562MOL0     H74177   2.618   2.076   8.344 -0.6629  0.2623  0.3509
  562MOL0     H74178   2.702   2.142   8.630  0.4401  0.1582 -0.0098
  562MOL0     H74179   2.784   2.203   8.485  1.8762 -1.2324  0.2007
  562MOL0     H74180   2.750   1.913   8.560 -1.3672  0.4198  0.1379
  562MOL0     H74181   2.849   1.978   8.426  0.1803  0.5300 -0.2194
  562MOL0     H74182   3.106   2.052   8.741  0.9410 -1.1523 -1.1523
  562MOL0     H74183   2.433   2.200   8.702 -0.2751  1.3706 -0.0966
  562MOL0     H74184   2.241   2.182   8.855  1.3484 -2.5316 -0.8436
  563MOL0     O74185   6.968   5.837  10.258  0.0307  0.8602 -0.1766
  563MOL0     C74186   7.038   5.782  10.343 -0.0783 -0.0988 -0.2623
  563MOL0     O74187   6.999   5.693  10.447  0.3123  0.4784  0.7493
  563MOL0     C74188   6.866   5.679  10.470  0.4659 -0.0105 -0.2116
  563MOL0     C74189   6.773   5.790  10.461  0.2684  0.9903  0.1685
  563MOL0     C74190   6.638   5.764  10.470  0.5629  0.3513 -0.0716
  563MOL0     C74191   6.592   5.630  10.496  0.2392  0.2497 -0.0715
  563MOL0     O74192   6.458   5.591  10.507 -0.0332  0.8241  0.1056
  563MOL0     C74193   6.367   5.701  10.527  0.4558  0.5120  0.6166
  563MOL0     C74194   6.236   5.645  10.513  0.9817  0.1519  0.3138
  563MOL0     C74195   6.112   5.732  10.521 -0.2556 -0.5285  0.0387
  563MOL0     C74196   5.986   5.661  10.556  0.2774  0.7467  0.7342
  563MOL0     C74197   5.869   5.758  10.574  1.1648  0.4622 -0.4212
  563MOL0     C74198   5.742   5.681  10.619 -0.0311 -0.2339 -0.5035
  563MOL0     C74199   5.611   5.777  10.621  0.0083 -0.0490  0.2067
  563MOL0     C74200   5.505   5.764  10.509  0.5003 -0.4336 -0.1063
  563MOL0     N74201   5.397   5.857  10.523 -0.0112 -0.3566  0.4664
  563MOL0     C74202   5.324   5.890  10.632  0.3906  0.0511 -0.5542
  563MOL0     C74203   5.251   5.992  10.596 -0.8631 -1.0186  0.4606
  563MOL0     C74204   5.171   6.080  10.684  0.0798 -0.3839 -0.6571
  563MOL0     C74205   5.019   6.051  10.660  0.3435  0.5373 -0.2291
  563MOL0     C74206   4.921   6.125  10.757  0.8231 -0.3320  0.3995
  563MOL0     C74207   4.782   6.073  10.723  0.0343  0.3351 -0.9138
  563MOL0     O74208   4.680   6.157  10.778 -0.0718 -0.0438  0.9403
  563MOL0     C74209   4.557   6.128  10.727  0.1146  0.1075 -0.6005
  563MOL0     C74210   4.507   6.019  10.654  0.4199 -0.5499 -0.6909
  563MOL0     C74211   4.373   6.007  10.640  0.0103  0.6192 -1.1549
  563MOL0     C74212   4.277   6.104  10.695 -0.4676 -0.0090  0.8982
  563MOL0     C74213   4.131   6.081  10.673  0.4043 -0.0486 -0.7508
  563MOL0     O74214   4.081   5.953  10.662  0.1541 -0.1252  0.1734
  563MOL0     C74215   3.942   5.937  10.642  0.8411  0.3167 -0.1079
  563MOL0     C74216   3.877   5.976  10.525  1.0564 -1.0907  0.1450
  563MOL0     C74217   3.734   5.944  10.514  0.7278 -0.3296  0.1690
  563MOL0     C74218   3.665   5.882  10.617  0.7742 -1.0235 -0.2119
  563MOL0     O74219   3.538   5.855  10.582  0.7284 -0.5028  0.1970
  563MOL0     C74220   3.460   5.763  10.659  0.5094 -0.5873 -0.8701
  563MOL0     C74221   3.344   5.706  10.569 -0.1334 -1.0751 -0.0237
  563MOL0     C74222   3.242   5.822  10.541 -0.5110 -0.9324 -0.0195
  563MOL0     C74223   3.107   5.773  10.485 -0.4264  0.8454  1.0925
  563MOL0     C74224   3.033   5.655  10.562  0.1456  0.1829 -0.6271
  563MOL0     C74225   2.889   5.636  10.508  0.8866 -1.2086  0.3962
  563MOL0     C74226   2.807   5.536  10.579  0.0210 -0.5273 -0.0039
  563MOL0     C74227   2.692   5.483  10.507 -0.0019  1.0471  1.0106
  563MOL0    Cl74228   2.605   5.602  10.431 -0.2024 -0.0050  0.3474
  563MOL0     C74229   3.730   5.854  10.739 -0.3088 -0.0162  0.2254
  563MOL0     C74230   3.865   5.880  10.750  0.9781  0.4692 -0.2365
  563MOL0     O74231   4.062   6.182  10.663 -0.0372 -0.3907  0.0393
  563MOL0     C74232   4.330   6.217  10.757 -0.3723  0.1985 -1.0697
  563MOL0     C74233   4.467   6.221  10.786 -0.2276  0.4255  0.0614
  563MOL0     N74234   5.271   6.016  10.454 -0.2266  0.9613  0.4202
  563MOL0     N74235   5.365   5.939  10.416 -0.2875  0.5764 -1.5249
  563MOL0     C74236   6.683   5.526  10.507 -0.3250  0.6735 -0.5519
  563MOL0     C74237   6.817   5.553  10.492 -0.1035 -0.9312 -0.2816
  563MOL0     C74238   7.174   5.829  10.344  0.6542 -0.0242 -0.0674
  563MOL0     C74239   7.265   5.771  10.445  0.1767 -0.2529 -0.1084
  563MOL0     C74240   7.384   5.840  10.475  0.5065  0.4239  1.0127
  563MOL0     C74241   7.432   5.950  10.397 -0.6382  0.5213 -0.3232
  563MOL0     O74242   7.547   6.016  10.427  0.2548  0.0782 -0.3096
  563MOL0     C74243   7.634   6.042  10.318 -0.3306  0.4457 -0.2377
  563MOL0     C74244   7.669   5.918  10.223 -0.0121  0.2684  0.8029
  563MOL0     C74245   7.706   5.783  10.294  0.1523 -0.4000 -0.0995
  563MOL0     C74246   7.847   5.731  10.264 -0.2943  0.1830 -0.2406
  563MOL0     C74247   7.951   5.831  10.312  0.5465 -0.4078 -0.4300
  563MOL0     C74248   8.046   5.895  10.333  0.0227  0.1028  0.0366
  563MOL0     C74249   7.344   6.002  10.301  0.0238  0.2072 -0.0541
  563MOL0     C74250   7.216   5.943  10.276 -0.8197  0.3271 -0.2650
  563MOL0     H74251   6.801   5.892  10.438  1.3491  0.8290  0.7404
  563MOL0     H74252   6.564   5.843  10.467 -0.6466 -0.7400  0.2164
  563MOL0     H74253   6.381   5.786  10.460 -0.5928  1.2113  1.2534
  563MOL0     H74254   6.384   5.741  10.627  1.4314 -2.5405  1.8062
  563MOL0     H74255   6.226   5.570  10.591 -2.8321  1.6494  1.5104
  563MOL0     H74256   6.233   5.599  10.414  7.8315  1.1442 -0.8839
  563MOL0     H74257   6.102   5.796  10.433  3.9116 -0.8671 -0.9000
  563MOL0     H74258   6.129   5.799  10.606 -1.0459 -1.3263  0.8541
  563MOL0     H74259   5.958   5.602  10.468 -0.1013 -1.7859  2.4455
  563MOL0     H74260   5.999   5.593  10.641 -0.5276 -0.4839 -0.1027
  563MOL0     H74261   5.855   5.821  10.485  0.8819 -0.3056 -0.9351
  563MOL0     H74262   5.890   5.821  10.661  1.9571 -1.7414  1.0642
  563MOL0     H74263   5.750   5.640  10.720 -0.6294  1.4964  0.2957
  563MOL0     H74264   5.727   5.595  10.553  1.0776 -1.9769  1.3718
  563MOL0     H74265   5.554   5.760  10.713  0.7140  0.4281  0.7410
  563MOL0     H74266   5.639   5.883  10.616 -1.5353  0.4003  0.2787
  563MOL0     H74267   5.462   5.664  10.494  2.6708 -1.9922  2.8901
  563MOL0     H74268   5.556   5.790  10.416 -2.7882  2.0985 -1.3580
  563MOL0     H74269   5.333   5.835  10.725  0.9493 -1.4233 -1.4291
  563MOL0     H74270   5.180   6.187  10.664 -2.5530  0.3094  1.2175
  563MOL0     H74271   5.195   6.062  10.789 -0.4735  3.6246  0.3027
  563MOL0     H74272   5.006   5.946  10.688  1.1859  0.6417  0.6123
  563MOL0     H74273   5.003   6.055  10.552 -0.7870  1.7937 -0.0468
  563MOL0     H74274   4.941   6.109  10.863  0.2599 -0.9807  0.4140
  563MOL0     H74275   4.927   6.234  10.747  0.0999 -0.4158 -1.2082
  563MOL0     H74276   4.771   5.970  10.756  0.9974  0.7785  0.9118
  563MOL0     H74277   4.759   6.067  10.616 -3.0452  2.9564 -0.5948
  563MOL0     H74278   4.562   5.934  10.616 -2.6635 -2.0093 -2.2775
  563MOL0     H74279   4.329   5.918  10.597 -1.9154  1.4427 -0.9516
  563MOL0     H74280   3.929   6.028  10.445 -0.8594  0.1003 -0.3888
  563MOL0     H74281   3.672   5.981  10.434  1.1663  0.9792  0.4054
  563MOL0     H74282   3.421   5.819  10.744  0.1324  1.4436 -2.2889
  563MOL0     H74283   3.527   5.680  10.683  2.0973  0.4077 -1.7102
  563MOL0     H74284   3.298   5.631  10.633 -0.1445  1.3135  3.0137
  563MOL0     H74285   3.377   5.665  10.473  0.1599 -1.5377  0.2751
  563MOL0     H74286   3.297   5.887  10.472 -0.2732 -3.3368 -2.2948
  563MOL0     H74287   3.237   5.876  10.635  3.7748  1.7925 -1.1054
  563MOL0     H74288   3.056   5.869  10.493  0.2259  1.4875 -1.4427
  563MOL0     H74289   3.122   5.748  10.379  0.3292 -0.5093  1.4998
  563MOL0     H74290   3.043   5.676  10.669  1.6938  0.3780 -0.7852
  563MOL0     H74291   3.094   5.565  10.547  1.4429  0.8273  0.5450
  563MOL0     H74292   2.914   5.611  10.405 -1.1241  3.0902 -1.3708
  563MOL0     H74293   2.846   5.737  10.511  1.5103 -0.9055 -0.6435
  563MOL0     H74294   2.865   5.451  10.615  1.0160 -0.1663 -0.7110
  563MOL0     H74295   2.763   5.585  10.666 -0.6313  3.5522 -2.3338
  563MOL0     H74296   2.631   5.422  10.575 -0.5024 -1.8296 -1.7941
  563MOL0     H74297   2.713   5.406  10.432  0.4550 -0.2797  2.4433
  563MOL0     H74298   3.665   5.824  10.821 -1.6697 -0.9668 -1.1343
  563MOL0     H74299   3.922   5.852  10.838  1.0888 -0.2000 -0.5131
  563MOL0     H74300   4.259   6.295  10.783 -0.9621 -0.8023  0.5145
  563MOL0     H74301   4.507   6.302  10.845 -1.0218 -1.3012  3.1563
  563MOL0     H74302   6.660   5.424  10.537 -0.8621  1.0465  0.3393
  563MOL0     H74303   6.889   5.472  10.486 -0.3322 -1.2060  0.5470
  563MOL0     H74304   7.232   5.685  10.501 -0.2929 -0.6137 -0.9111
  563MOL0     H74305   7.449   5.814  10.558 -3.2459  1.3174  4.5677
  563MOL0     H74306   7.732   6.072  10.357 -1.0036  2.3162  0.0849
  563MOL0     H74307   7.594   6.125  10.258  0.0687  1.4642  0.8718
  563MOL0     H74308   7.576   5.902  10.169  0.9917 -2.7654 -0.2644
  563MOL0     H74309   7.742   5.949  10.147 -1.0523 -1.4014 -0.9627
  563MOL0     H74310   7.636   5.705  10.262 -0.6742  0.2736  0.0493
  563MOL0     H74311   7.690   5.787  10.402 -0.1620  2.9342 -0.1904
  563MOL0     H74312   7.872   5.636  10.312  1.9150  0.9871  0.3554
  563MOL0     H74313   7.862   5.717  10.157  0.6713 -0.7194 -0.0078
  563MOL0     H74314   8.139   5.947  10.337 -0.2398  0.5021  2.3581
  563MOL0     H74315   7.344   6.102  10.260 -0.4867  0.7931  1.3163
  563MOL0     H74316   7.158   6.007  10.210  1.8083  0.4575 -2.6463
  564MOL0     O74317   0.759   4.354   0.003 -0.1875 -0.0087 -1.0794
  564MOL0     C74318   0.742   4.360  -0.117  0.4902 -0.0428  0.5149
  564MOL0     O74319   0.841   4.327  -0.214 -0.3039  0.4914 -0.3876
  564MOL0     C74320   0.968   4.347  -0.173  0.4189  0.1244  0.2756
  564MOL0     C74321   1.034   4.454  -0.213 -0.6720  0.1197  0.2105
  564MOL0     C74322   1.177   4.458  -0.198  0.3314 -1.0837 -0.0642
  564MOL0     C74323   1.248   4.349  -0.154  0.1599  0.3860 -0.9521
  564MOL0     O74324   1.388   4.333  -0.148 -0.9137  0.0349  0.3872
  564MOL0     C74325   1.465   4.449  -0.184 -0.0459 -0.8069 -0.0595
  564MOL0     C74326   1.618   4.419  -0.157 -1.0099 -0.0716  0.9968
  564MOL0     C74327   1.709   4.532  -0.197  0.0340 -0.3993 -0.3818
  564MOL0     C74328   1.855   4.501  -0.163  0.9747 -0.9806 -0.6805
  564MOL0     C74329   1.952   4.600  -0.215 -0.7032  0.9356 -0.2322
  564MOL0     C74330   2.105   4.564  -0.174 -0.1052 -0.2497  0.5522
  564MOL0     C74331   2.191   4.578  -0.293 -0.2141 -0.2734  0.6088
  564MOL0     C74332   2.341   4.558  -0.251 -0.0473  0.3420 -0.9303
  564MOL0     N74333   2.366   4.416  -0.226 -0.5310  0.3193 -0.1065
  564MOL0     C74334   2.338   4.318  -0.312 -1.0038 -0.2909  0.0181
  564MOL0     C74335   2.320   4.206  -0.238 -0.4596  0.1425 -0.4716
  564MOL0     C74336   2.271   4.071  -0.290 -0.0552  0.8403  1.3994
  564MOL0     C74337   2.125   4.047  -0.254 -0.9739  0.2880  0.1607
  564MOL0     C74338   2.043   4.101  -0.363  0.1848  0.9703 -0.2453
  564MOL0     C74339   1.902   4.100  -0.323  0.0279  0.0485  0.0410
  564MOL0     O74340   1.869   3.969  -0.282  0.4773 -0.5546  0.3370
  564MOL0     C74341   1.753   3.951  -0.217  0.8844 -0.7669 -0.2508
  564MOL0     C74342   1.634   4.038  -0.222 -1.3219 -1.0762  0.4269
  564MOL0     C74343   1.522   4.009  -0.141  0.3375  0.6353 -0.5568
  564MOL0     C74344   1.530   3.900  -0.050 -0.4077 -0.2425 -0.6280
  564MOL0     C74345   1.419   3.878   0.051  0.5397 -0.3240 -0.0566
  564MOL0     O74346   1.307   3.958   0.053 -0.0491  0.1345  0.6795
  564MOL0     C74347   1.180   3.931   0.101  0.6697  0.4173  0.0004
  564MOL0     C74348   1.102   4.041   0.148  0.2241 -0.8897  0.3537
  564MOL0     C74349   0.971   4.018   0.192 -0.1034 -0.3040 -0.0124
  564MOL0     C74350   0.902   3.893   0.175 -0.4181  0.0284  0.1563
  564MOL0     O74351   0.767   3.883   0.210 -0.2450  0.2267 -0.2844
  564MOL0     C74352   0.674   3.818   0.128  0.9934 -0.1189  0.2936
  564MOL0     C74353   0.529   3.850   0.166  0.1894 -0.0521 -0.4852
  564MOL0     C74354   0.489   3.990   0.153  0.4576 -0.5876  0.6174
  564MOL0     C74355   0.342   4.009   0.162  0.2621 -0.4787 -0.8685
  564MOL0     C74356   0.296   4.151   0.114 -0.5130 -0.3136 -0.4495
  564MOL0     C74357   0.147   4.183   0.114 -0.2452 -0.4217  0.7618
  564MOL0     C74358   0.086   4.183   0.250  0.0289 -0.4377  0.2565
  564MOL0     C74359   0.067   4.321   0.304  0.3437 -0.3945  1.0076
  564MOL0    Cl74360  -0.069   4.418   0.214  0.1092 -0.2363  0.2692
  564MOL0     C74361   0.975   3.785   0.125  0.7187 -0.4554  0.7939
  564MOL0     C74362   1.113   3.807   0.086  0.2050  1.1006 -0.2112
  564MOL0     O74363   1.430   3.783   0.123  0.1368 -0.0248 -0.2842
  564MOL0     C74364   1.646   3.815  -0.055 -0.6079 -0.2410 -0.6218
  564MOL0     C74365   1.749   3.833  -0.146 -0.6531  0.0341 -0.4804
  564MOL0     N74366   2.330   4.242  -0.108  0.5421  0.7025 -0.4565
  564MOL0     N74367   2.350   4.367  -0.099  0.1253  0.3944 -0.8938
  564MOL0     C74368   1.173   4.235  -0.119 -0.2434 -0.2849 -0.0926
  564MOL0     C74369   1.031   4.240  -0.123  0.0607 -0.0023  0.1300
  564MOL0     C74370   0.596   4.380  -0.167 -0.6111  1.0753 -0.7228
  564MOL0     C74371   0.538   4.295  -0.261  0.1699  0.0595 -0.0191
  564MOL0     C74372   0.403   4.308  -0.291 -0.4753 -0.2184 -0.7883
  564MOL0     C74373   0.320   4.411  -0.232  0.2003  0.6582 -0.1348
  564MOL0     O74374   0.186   4.413  -0.263  0.1971  0.2752 -0.3386
  564MOL0     C74375   0.094   4.486  -0.180 -0.2949 -0.3937  0.2139
  564MOL0     C74376  -0.048   4.432  -0.196 -0.5024 -0.4334 -0.8939
  564MOL0     C74377  -0.089   4.449  -0.344 -0.0535  0.1930 -0.2770
  564MOL0     C74378  -0.234   4.424  -0.347 -0.6644 -0.7690 -0.2517
  564MOL0     C74379  -0.264   4.281  -0.326 -0.7468 -0.0934 -0.4877
  564MOL0     C74380  -0.294   4.163  -0.323  0.9685 -0.1638  0.3752
  564MOL0     C74381   0.382   4.497  -0.134  0.6693 -0.8503  1.1068
  564MOL0     C74382   0.516   4.487  -0.112  0.5010  0.0801 -1.4139
  564MOL0     H74383   0.977   4.537  -0.255 -0.0254  0.0164 -0.9347
  564MOL0     H74384   1.237   4.547  -0.209  0.8771 -1.0935  2.1644
  564MOL0     H74385   1.432   4.534  -0.125  1.1102 -0.2572 -0.1694
  564MOL0     H74386   1.452   4.468  -0.291  2.7419  0.8297 -0.2170
  564MOL0     H74387   1.647   4.329  -0.212  3.4072  1.2759  0.7149
  564MOL0     H74388   1.623   4.400  -0.049  1.2538 -0.1368  0.9400
  564MOL0     H74389   1.673   4.625  -0.153  2.2404 -0.1260  0.9725
  564MOL0     H74390   1.697   4.543  -0.305  1.3634 -0.6214 -0.5702
  564MOL0     H74391   1.861   4.503  -0.054  2.1615  0.4250 -0.7464
  564MOL0     H74392   1.872   4.398  -0.194  4.5018 -0.0260 -2.4272
  564MOL0     H74393   1.929   4.699  -0.174 -0.1961  0.6509  0.7681
  564MOL0     H74394   1.941   4.606  -0.323  1.4844  1.2209 -0.4714
  564MOL0     H74395   2.105   4.460  -0.141 -2.6613 -2.3013 -4.6622
  564MOL0     H74396   2.148   4.630  -0.099  3.1194  0.3046 -1.5616
  564MOL0     H74397   2.171   4.505  -0.372  1.6994 -1.0087  0.7465
  564MOL0     H74398   2.185   4.680  -0.334  1.5780  0.4554  1.9896
  564MOL0     H74399   2.363   4.602  -0.154  0.4948 -2.0983  0.1348
  564MOL0     H74400   2.411   4.600  -0.323 -2.1817  0.6733 -2.9527
  564MOL0     H74401   2.332   4.329  -0.420 -0.5596  0.2960  0.0447
  564MOL0     H74402   2.331   3.997  -0.237  1.5675  1.3043  0.2972
  564MOL0     H74403   2.287   4.054  -0.397  0.9922  1.0509  1.5154
  564MOL0     H74404   2.108   4.078  -0.150  1.1291  2.6122 -0.0804
  564MOL0     H74405   2.114   3.938  -0.253 -2.1131  0.3834  1.5386
  564MOL0     H74406   2.088   4.195  -0.397  2.0743 -0.6764 -2.6132
  564MOL0     H74407   2.047   4.027  -0.444  0.1563  0.6090  0.0844
  564MOL0     H74408   1.846   4.135  -0.410 -0.6002  0.7075  0.6939
  564MOL0     H74409   1.889   4.170  -0.240 -1.2083  0.9432 -0.8682
  564MOL0     H74410   1.639   4.120  -0.292  2.0878 -1.6427 -0.1628
  564MOL0     H74411   1.443   4.081  -0.128  1.4703  1.4815  2.3573
  564MOL0     H74412   1.142   4.141   0.160  0.0961 -0.4133 -2.6047
  564MOL0     H74413   0.924   4.108   0.229 -1.3226 -0.6613 -0.6426
  564MOL0     H74414   0.677   3.710   0.142  0.5482 -0.1552  0.1118
  564MOL0     H74415   0.692   3.836   0.022 -0.9005  3.8339  0.4503
  564MOL0     H74416   0.512   3.818   0.269 -1.6019  3.5150  0.4811
  564MOL0     H74417   0.480   3.784   0.093  1.9242 -0.4065 -1.3829
  564MOL0     H74418   0.521   4.033   0.058 -1.8920 -2.1751 -0.9997
  564MOL0     H74419   0.541   4.053   0.226 -1.8269  1.1628  0.8460
  564MOL0     H74420   0.286   3.939   0.099  1.6569  0.4898 -3.3541
  564MOL0     H74421   0.312   3.998   0.266 -0.8661  0.5739 -1.0655
  564MOL0     H74422   0.326   4.166   0.010 -0.6536 -1.5100 -0.6776
  564MOL0     H74423   0.350   4.227   0.171  0.0766 -0.2109 -1.1257
  564MOL0     H74424   0.090   4.118   0.047  1.0645  0.9258 -1.8230
  564MOL0     H74425   0.143   4.285   0.076  0.9717  0.9619  3.9319
  564MOL0     H74426  -0.013   4.140   0.263 -0.9818  2.3133  2.7817
  564MOL0     H74427   0.146   4.121   0.318 -1.2426 -1.5587  0.3903
  564MOL0     H74428   0.163   4.373   0.292 -0.6921  1.2197 -1.0384
  564MOL0     H74429   0.040   4.316   0.410  1.0778  2.5361  1.4280
  564MOL0     H74430   0.930   3.688   0.109 -0.8100  0.5480 -1.6397
  564MOL0     H74431   1.172   3.730   0.038 -2.2212  0.5914 -2.6433
  564MOL0     H74432   1.659   3.734   0.016 -1.0518 -1.1960 -1.5934
  564MOL0     H74433   1.836   3.768  -0.140 -2.4859 -2.6262 -1.1693
  564MOL0     H74434   1.228   4.146  -0.093  0.0017 -2.3073 -6.1407
  564MOL0     H74435   0.970   4.152  -0.106 -0.0004  0.1379  0.6450
  564MOL0     H74436   0.593   4.217  -0.312  1.5531  0.8278  0.2179
  564MOL0     H74437   0.353   4.234  -0.352 -4.7689  3.5055 -2.3172
  564MOL0     H74438   0.090   4.590  -0.215  0.9422 -0.5452 -0.4158
  564MOL0     H74439   0.129   4.491  -0.077 -0.5611 -1.5151  0.3630
  564MOL0     H74440  -0.055   4.327  -0.163 -5.9304  0.4336  1.9498
  564MOL0     H74441  -0.109   4.488  -0.125  0.6960 -1.3993  0.9997
  564MOL0     H74442  -0.028   4.376  -0.397  2.6003  0.7464  1.8011
  564MOL0     H74443  -0.065   4.548  -0.384  2.2837 -0.2989 -0.2351
  564MOL0     H74444  -0.271   4.486  -0.265  2.0614 -0.3269  0.7467
  564MOL0     H74445  -0.284   4.466  -0.435 -3.7833  0.8548  2.1151
  564MOL0     H74446  -0.325   4.061  -0.307 -0.6284 -0.0401 -1.5668
  564MOL0     H74447   0.320   4.570  -0.083  0.1113 -0.3206 -0.2697
  564MOL0     H74448   0.559   4.546  -0.032  1.4376 -0.3563 -1.5897
  565MOL0     O74449   8.593   3.175   7.371 -0.0661  0.5332  0.1940
  565MOL0     C74450   8.677   3.215   7.291 -0.1948 -0.4711  0.1605
  565MOL0     O74451   8.647   3.247   7.159 -0.2480  0.0823  0.6955
  565MOL0     C74452   8.517   3.241   7.116 -0.1030 -0.6133  0.2492
  565MOL0     C74453   8.460   3.120   7.069 -0.2396 -0.0235  0.1099
  565MOL0     C74454   8.336   3.121   7.010  0.5433  0.6413 -0.2276
  565MOL0     C74455   8.264   3.240   6.991  1.2266 -0.2887 -0.3662
  565MOL0     O74456   8.129   3.254   6.953 -1.1996 -0.3817 -0.3809
  565MOL0     C74457   8.052   3.153   6.899  0.3582 -0.2480 -0.2674
  565MOL0     C74458   8.103   3.120   6.756  0.5649  0.1799 -0.4228
  565MOL0     C74459   8.017   3.011   6.698 -0.7651 -0.0951  0.0118
  565MOL0     C74460   8.065   2.964   6.561 -0.0780 -0.8147 -0.3957
  565MOL0     C74461   7.980   2.839   6.512  0.0110 -0.2031 -0.0097
  565MOL0     C74462   8.040   2.762   6.388 -0.4575 -0.8316  0.0915
  565MOL0     C74463   7.997   2.616   6.384  0.3667 -0.1595  0.3314
  565MOL0     C74464   7.862   2.589   6.310 -0.1488 -0.4136  1.1007
  565MOL0     N74465   7.757   2.666   6.366 -0.1350  0.1057 -0.5657
  565MOL0     C74466   7.676   2.749   6.289  0.0389  0.5019 -0.1542
  565MOL0     C74467   7.591   2.806   6.383 -0.1568  0.3614 -0.4248
  565MOL0     C74468   7.509   2.926   6.349  0.5844 -0.1456  0.3266
  565MOL0     C74469   7.355   2.896   6.368 -0.3481  0.1464 -0.1983
  565MOL0     C74470   7.324   2.875   6.520  0.0323  0.9505 -0.1958
  565MOL0     C74471   7.178   2.877   6.559 -0.0758  0.1534  0.2625
  565MOL0     O74472   7.098   2.802   6.474 -0.5459 -0.2168  0.3376
  565MOL0     C74473   6.971   2.839   6.448  0.2423  1.0700 -0.5062
  565MOL0     C74474   6.915   2.792   6.322  0.2767 -0.1102 -0.3049
  565MOL0     C74475   6.778   2.803   6.291  0.3888 -0.1761  0.2864
  565MOL0     C74476   6.690   2.874   6.378 -0.0111  0.1841  0.7307
  565MOL0     C74477   6.550   2.891   6.339 -0.3200  0.8793  0.1819
  565MOL0     O74478   6.515   2.851   6.207 -0.1870 -0.2787 -0.4605
  565MOL0     C74479   6.398   2.887   6.148  0.1638  0.0510 -0.5892
  565MOL0     C74480   6.275   2.904   6.222 -0.3255 -0.0315 -0.2694
  565MOL0     C74481   6.159   2.928   6.149 -0.3630  0.1396  0.1846
  565MOL0     C74482   6.158   2.920   6.003  0.0625 -0.1626 -0.9725
  565MOL0     O74483   6.046   2.929   5.924 -0.0679 -0.0414 -0.9152
  565MOL0     C74484   5.920   2.913   5.985 -0.1341 -0.2670 -0.4183
  565MOL0     C74485   5.832   2.885   5.864  0.4686  0.0843 -0.3983
  565MOL0     C74486   5.813   3.008   5.768  0.1747  0.3814 -0.0131
  565MOL0     C74487   5.718   2.978   5.648 -0.9060  0.4896 -0.3823
  565MOL0     C74488   5.698   3.107   5.565  0.2714  0.8712 -0.9174
  565MOL0     C74489   5.589   3.200   5.620  0.6996  0.4752 -0.5501
  565MOL0     C74490   5.581   3.323   5.542  0.5787 -0.1840  0.1092
  565MOL0     C74491   5.503   3.431   5.618  1.1984 -0.2917  0.2543
  565MOL0    Cl74492   5.505   3.414   5.796 -0.0385 -0.2992  0.4970
  565MOL0     C74493   6.273   2.888   5.935 -0.2788  0.2307  0.1257
  565MOL0     C74494   6.392   2.883   6.005  0.1129  0.5572 -1.0954
  565MOL0     O74495   6.481   2.958   6.417  0.0939 -0.4486 -0.8433
  565MOL0     C74496   6.743   2.932   6.492 -0.3759  0.5949 -0.4130
  565MOL0     C74497   6.877   2.917   6.531 -0.1546 -0.3110 -0.4958
  565MOL0     N74498   7.618   2.760   6.505 -0.4981  0.4238 -0.2461
  565MOL0     N74499   7.714   2.666   6.497  0.5675  0.0470 -0.1524
  565MOL0     C74500   8.314   3.353   7.038  0.3555  0.0490  0.5940
  565MOL0     C74501   8.443   3.361   7.088  0.4241 -0.1727  0.7568
  565MOL0     C74502   8.815   3.242   7.342  0.2990  0.1590 -0.1994
  565MOL0     C74503   8.931   3.241   7.266  0.1261 -0.0215 -0.0099
  565MOL0     C74504   9.053   3.256   7.324 -0.1192 -0.0107 -0.7278
  565MOL0     C74505   9.069   3.294   7.462 -0.4912  0.0225  0.0856
  565MOL0     O74506   9.187   3.328   7.521 -0.1263 -0.4090  0.2279
  565MOL0     C74507   9.312   3.263   7.472 -0.1800 -0.2915 -0.3025
  565MOL0     C74508   9.427   3.298   7.573  0.1426  0.1613 -0.5046
  565MOL0     C74509   9.448   3.447   7.563 -0.7494 -0.2460 -0.5435
  565MOL0     C74510   9.570   3.517   7.632 -0.2835  0.2111 -0.1118
  565MOL0     C74511   9.699   3.448   7.628  0.2071 -0.3307  0.9029
  565MOL0     C74512   9.800   3.383   7.643 -0.7218  0.2419  0.1834
  565MOL0     C74513   8.959   3.279   7.539 -0.0517  0.6721  0.2573
  565MOL0     C74514   8.836   3.250   7.482 -0.4889  0.1268 -0.1557
  565MOL0     H74515   8.516   3.031   7.095  2.8371  1.3904 -1.1448
  565MOL0     H74516   8.298   3.022   6.990  3.1828 -0.8286  1.3978
  565MOL0     H74517   7.956   3.203   6.883  0.6210  1.0155  1.6831
  565MOL0     H74518   8.031   3.066   6.962 -0.2501 -0.2495 -0.4631
  565MOL0     H74519   8.205   3.082   6.749  0.9816  0.5166  2.6356
  565MOL0     H74520   8.087   3.206   6.690 -0.4608  1.2521  1.1506
  565MOL0     H74521   7.919   3.054   6.676 -0.0675  0.9414 -1.1595
  565MOL0     H74522   7.991   2.928   6.764 -1.0819  0.6273  0.8185
  565MOL0     H74523   8.058   3.049   6.493 -0.2229 -1.1100 -0.7567
  565MOL0     H74524   8.169   2.929   6.565 -0.3507 -1.7117 -0.9246
  565MOL0     H74525   7.882   2.886   6.498 -0.1182 -0.3803  0.3076
  565MOL0     H74526   7.983   2.768   6.595  1.0975 -0.2837 -0.1051
  565MOL0     H74527   8.149   2.764   6.402 -0.3247 -0.1639 -0.9140
  565MOL0     H74528   8.017   2.811   6.292 -1.3830 -1.2542  0.0858
  565MOL0     H74529   8.064   2.552   6.326 -1.1398 -0.1239 -1.5547
  565MOL0     H74530   7.995   2.584   6.488 -0.5810 -2.4544 -0.3328
  565MOL0     H74531   7.842   2.483   6.295 -3.0132  0.2108 -0.2715
  565MOL0     H74532   7.885   2.622   6.208 -0.5316  0.0817  1.1700
  565MOL0     H74533   7.685   2.782   6.186 -1.8407 -0.9045 -0.8281
  565MOL0     H74534   7.537   2.957   6.248 -0.4065 -2.3144 -0.6754
  565MOL0     H74535   7.538   3.006   6.418 -2.7555  0.4338  1.2793
  565MOL0     H74536   7.328   2.806   6.313 -1.2349 -0.0527  0.5405
  565MOL0     H74537   7.302   2.984   6.329  0.7007  0.7398 -0.3168
  565MOL0     H74538   7.368   2.777   6.540 -2.6664 -0.0468  1.4997
  565MOL0     H74539   7.377   2.951   6.577  0.8849 -0.3755  0.8489
  565MOL0     H74540   7.139   2.979   6.563  1.3531  0.8369 -1.6994
  565MOL0     H74541   7.177   2.845   6.663 -1.0862 -2.0302 -0.3635
  565MOL0     H74542   6.970   2.728   6.254  0.4136  0.0513 -0.3486
  565MOL0     H74543   6.748   2.771   6.192  0.4375  1.5804 -0.3317
  565MOL0     H74544   6.270   2.894   6.329  1.2404 -1.0962 -0.2703
  565MOL0     H74545   6.067   2.943   6.203 -0.1711 -3.6323  1.8771
  565MOL0     H74546   5.889   3.004   6.038  0.8377 -0.3178  0.2564
  565MOL0     H74547   5.921   2.838   6.064 -1.8650  1.4020  1.3162
  565MOL0     H74548   5.738   2.850   5.907  1.6083 -1.3039  1.1151
  565MOL0     H74549   5.881   2.805   5.808  0.8209  0.2781 -0.3739
  565MOL0     H74550   5.911   3.034   5.727  0.9666 -3.3133 -0.8427
  565MOL0     H74551   5.771   3.090   5.828  1.8638  1.3354 -0.0637
  565MOL0     H74552   5.764   2.893   5.596  0.2845  0.1039  1.2290
  565MOL0     H74553   5.624   2.941   5.689 -0.2159  1.6905  2.5035
  565MOL0     H74554   5.663   3.074   5.467  0.2814 -2.2727  0.0520
  565MOL0     H74555   5.794   3.152   5.538  0.3364 -0.0367 -2.3008
  565MOL0     H74556   5.621   3.217   5.723 -0.7928 -1.9932  0.3905
  565MOL0     H74557   5.492   3.150   5.621 -0.0069  1.7957 -0.1217
  565MOL0     H74558   5.680   3.371   5.537  0.5622  0.3567  3.1548
  565MOL0     H74559   5.539   3.301   5.444  1.0094 -0.3845 -0.0343
  565MOL0     H74560   5.395   3.428   5.598  0.5301  0.8508  3.1666
  565MOL0     H74561   5.529   3.530   5.580 -0.6388 -0.1472 -0.7685
  565MOL0     H74562   6.275   2.878   5.827  2.1698  1.1491  0.0429
  565MOL0     H74563   6.482   2.864   5.949 -0.7173 -0.7401 -2.0352
  565MOL0     H74564   6.692   3.001   6.559  1.6931  0.3478  1.5462
  565MOL0     H74565   6.908   2.957   6.627  0.3624 -1.7862 -0.0252
  565MOL0     H74566   8.256   3.445   7.038 -0.7341 -0.6115 -0.5448
  565MOL0     H74567   8.478   3.457   7.126 -0.1534 -0.1079  1.1319
  565MOL0     H74568   8.922   3.229   7.158  2.0050 -0.3087 -0.1629
  565MOL0     H74569   9.139   3.256   7.257  0.8600  0.1187  0.4825
  565MOL0     H74570   9.329   3.305   7.373 -1.7051 -1.0577 -0.9195
  565MOL0     H74571   9.310   3.154   7.464  0.0770 -0.4694  1.5943
  565MOL0     H74572   9.385   3.263   7.668  0.1805  0.0338 -0.5348
  565MOL0     H74573   9.520   3.242   7.563  1.4636  2.1308  0.1411
  565MOL0     H74574   9.351   3.491   7.590 -0.5020 -0.8966  1.6046
  565MOL0     H74575   9.459   3.469   7.456  1.2049 -0.1197 -0.3517
  565MOL0     H74576   9.580   3.618   7.592 -1.2487 -0.4365 -2.1530
  565MOL0     H74577   9.543   3.533   7.737 -1.1555  1.2578 -0.4767
  565MOL0     H74578   9.894   3.333   7.655 -1.6262 -1.2985  1.1553
  565MOL0     H74579   8.972   3.285   7.647  3.3306 -2.8968  0.2757
  565MOL0     H74580   8.751   3.266   7.549 -1.6838 -0.9991 -1.3467
  566MOL0     O74581   2.767   8.428   7.063 -0.0968  0.2978  0.3406
  566MOL0     C74582   2.854   8.475   7.140  0.3429 -0.0973 -0.0920
  566MOL0     O74583   2.909   8.408   7.246  0.3353  0.0359 -0.0200
  566MOL0     C74584   2.856   8.284   7.265 -0.5511 -0.1606 -0.1915
  566MOL0     C74585   2.946   8.177   7.265 -0.1545 -0.0579 -0.8256
  566MOL0     C74586   2.908   8.046   7.289 -0.2474  0.8302  0.5677
  566MOL0     C74587   2.773   8.026   7.302  0.2135  0.8523  0.5987
  566MOL0     O74588   2.732   7.897   7.311  0.1576  0.4108 -0.7896
  566MOL0     C74589   2.633   7.864   7.409  0.4888 -0.1230  1.3098
  566MOL0     C74590   2.641   7.709   7.418  0.0399 -0.3240 -0.0728
  566MOL0     C74591   2.576   7.675   7.559  0.4822  0.1503 -0.1303
  566MOL0     C74592   2.546   7.531   7.573  0.4396  0.4482 -0.3174
  566MOL0     C74593   2.558   7.469   7.713  0.0404  0.6942  0.4764
  566MOL0     C74594   2.513   7.314   7.711 -0.4197 -0.8472 -0.2070
  566MOL0     C74595   2.509   7.250   7.846  0.2324 -0.8765  0.6512
  566MOL0     C74596   2.437   7.119   7.833 -0.9333  0.7336  0.1213
  566MOL0     N74597   2.441   7.045   7.955 -0.5079  1.0642  0.4458
  566MOL0     C74598   2.464   6.912   7.966  0.0676  0.7887 -0.3953
  566MOL0     C74599   2.469   6.891   8.100  0.1371 -0.4367  0.8552
  566MOL0     C74600   2.490   6.754   8.156 -0.7938 -0.7719 -0.1971
  566MOL0     C74601   2.361   6.672   8.143 -0.3122  0.3172 -0.5621
  566MOL0     C74602   2.373   6.536   8.206 -0.2676 -0.3238  0.1961
  566MOL0     C74603   2.246   6.452   8.218  0.4754  0.5128  0.4428
  566MOL0     O74604   2.280   6.332   8.293 -0.0966  0.2576  0.0043
  566MOL0     C74605   2.196   6.224   8.284  0.9609 -0.7957  0.6784
  566MOL0     C74606   2.060   6.241   8.236  0.5931  0.4436 -0.1161
  566MOL0     C74607   1.973   6.139   8.216  0.2452  0.2495 -0.1905
  566MOL0     C74608   2.015   6.011   8.252 -0.8987 -0.0170 -0.3721
  566MOL0     C74609   1.920   5.906   8.222  0.6626 -0.5369 -0.3292
  566MOL0     O74610   1.944   5.789   8.287 -0.3185 -0.5782 -0.3495
  566MOL0     C74611   1.853   5.683   8.263 -0.5686  0.4493  0.3108
  566MOL0     C74612   1.720   5.702   8.298  0.5316  0.0860 -0.1023
  566MOL0     C74613   1.628   5.605   8.278 -0.3259  0.2682  0.6677
  566MOL0     C74614   1.662   5.484   8.219  0.6737 -0.7971  0.6117
  566MOL0     O74615   1.575   5.377   8.211 -0.5724 -0.5901 -0.3747
  566MOL0     C74616   1.626   5.243   8.177 -0.5022 -0.3467 -0.4828
  566MOL0     C74617   1.516   5.130   8.169  0.0043 -0.2571  0.5621
  566MOL0     C74618   1.479   5.102   8.312  0.2391  0.0417 -0.6263
  566MOL0     C74619   1.368   4.993   8.315  0.2915 -0.0802  0.2225
  566MOL0     C74620   1.235   5.024   8.267  0.5475 -0.5866 -0.0858
  566MOL0     C74621   1.150   4.897   8.257  0.0720  0.3700  0.1503
  566MOL0     C74622   1.007   4.925   8.195  0.1256 -0.4002 -0.1671
  566MOL0     C74623   0.931   4.796   8.169 -0.0119  0.3569 -0.9091
  566MOL0    Cl74624   0.873   4.730   8.327  0.3575  0.1010  0.3505
  566MOL0     C74625   1.794   5.474   8.182 -0.5516 -0.5601 -0.3602
  566MOL0     C74626   1.892   5.566   8.204  0.5697  0.6341 -0.2818
  566MOL0     O74627   1.837   5.924   8.133  0.4415  0.1045 -0.1402
  566MOL0     C74628   2.145   5.987   8.302  0.4874  0.1460 -0.3701
  566MOL0     C74629   2.237   6.091   8.303 -0.5023 -1.1162 -0.0338
  566MOL0     N74630   2.455   7.008   8.166 -1.0807  0.4482  0.0479
  566MOL0     N74631   2.427   7.104   8.080  0.2654  0.4880  0.7693
  566MOL0     C74632   2.678   8.124   7.309 -0.4813 -0.0322  0.6815
  566MOL0     C74633   2.719   8.253   7.280  0.4987  1.0639  0.6559
  566MOL0     C74634   2.905   8.611   7.118  0.3136  0.0833 -0.3295
  566MOL0     C74635   3.008   8.670   7.203 -0.4280 -0.0012 -0.3523
  566MOL0     C74636   3.039   8.807   7.189  0.6404 -0.6166 -0.2684
  566MOL0     C74637   2.986   8.884   7.083 -0.3067 -0.3053 -0.2606
  566MOL0     O74638   3.046   9.013   7.076  0.1932  0.9178 -0.1151
  566MOL0     C74639   2.975   9.110   6.995  0.1896 -0.9750  0.6881
  566MOL0     C74640   3.056   9.242   7.013 -0.0551 -0.2883  0.7615
  566MOL0     C74641   3.195   9.244   6.962 -0.8789  0.1809 -0.2889
  566MOL0     C74642   3.251   9.377   6.927 -0.0042  0.6980 -0.5412
  566MOL0     C74643   3.393   9.361   6.892  0.2656 -0.0936 -0.6287
  566MOL0     C74644   3.508   9.361   6.866  0.5014  0.5091  0.9255
  566MOL0     C74645   2.893   8.830   6.997  1.2425 -1.0528 -0.7380
  566MOL0     C74646   2.847   8.699   7.018  0.8907  0.8429 -0.0024
  566MOL0     H74647   3.052   8.199   7.251 -0.4005  0.5928 -1.8082
  566MOL0     H74648   2.973   7.959   7.296 -2.3629 -0.7834  1.5271
  566MOL0     H74649   2.529   7.883   7.381 -0.1798 -2.0127  2.3075
  566MOL0     H74650   2.657   7.913   7.504  2.6805  1.6458 -0.0709
  566MOL0     H74651   2.748   7.685   7.418  0.1106 -0.1815 -2.2902
  566MOL0     H74652   2.596   7.668   7.327  0.0157  0.3886 -0.3871
  566MOL0     H74653   2.489   7.739   7.576 -0.0964 -0.4667 -0.7403
  566MOL0     H74654   2.655   7.700   7.631 -1.0401  0.9458  1.3472
  566MOL0     H74655   2.444   7.503   7.546 -0.6306 -0.8730  4.2812
  566MOL0     H74656   2.611   7.475   7.506 -0.5093 -2.0722  0.7462
  566MOL0     H74657   2.489   7.522   7.779  0.4939  0.5668  1.0575
  566MOL0     H74658   2.660   7.480   7.749 -0.1502  0.2673  1.1577
  566MOL0     H74659   2.583   7.260   7.646 -1.7528  0.6611 -3.0740
  566MOL0     H74660   2.416   7.306   7.662 -0.3270  1.6297 -0.9057
  566MOL0     H74661   2.602   7.232   7.903 -0.0899 -0.3866  1.3469
  566MOL0     H74662   2.452   7.310   7.917  0.5657  0.4081 -0.1462
  566MOL0     H74663   2.490   7.061   7.757 -1.3766 -0.6028  0.7930
  566MOL0     H74664   2.334   7.127   7.798 -1.3084  0.5246  1.1360
  566MOL0     H74665   2.466   6.839   7.886  1.2757  2.1885 -1.7156
  566MOL0     H74666   2.510   6.760   8.263 -1.0415 -0.2105 -0.1747
  566MOL0     H74667   2.564   6.703   8.093 -1.3914 -1.3275 -0.4568
  566MOL0     H74668   2.336   6.660   8.037  0.9705  0.9463 -0.9558
  566MOL0     H74669   2.281   6.726   8.195  1.6338  0.2604  2.7442
  566MOL0     H74670   2.453   6.485   8.151  1.7082  2.4129  0.3119
  566MOL0     H74671   2.401   6.552   8.310 -3.1025  0.7796  0.8938
  566MOL0     H74672   2.209   6.423   8.120  0.0631 -1.6139  1.1806
  566MOL0     H74673   2.187   6.518   8.282 -0.3779  0.3928 -0.2133
  566MOL0     H74674   2.020   6.337   8.205 -1.6412 -0.7783 -1.3013
  566MOL0     H74675   1.875   6.174   8.187  1.5700  2.6963 -2.1344
  566MOL0     H74676   1.691   5.798   8.339  1.5708  0.3615  0.0363
  566MOL0     H74677   1.524   5.622   8.306 -0.4482 -1.0405  1.0904
  566MOL0     H74678   1.698   5.200   8.247 -1.7523  0.8442  1.6310
  566MOL0     H74679   1.679   5.245   8.082  1.6512 -0.2967  0.6580
  566MOL0     H74680   1.546   5.037   8.119 -1.8811 -1.6068  1.7904
  566MOL0     H74681   1.442   5.182   8.108  1.4716  1.0061 -0.1874
  566MOL0     H74682   1.431   5.187   8.363  0.3437  0.7898 -1.7388
  566MOL0     H74683   1.566   5.071   8.370  1.1612 -0.5316 -2.2730
  566MOL0     H74684   1.396   4.899   8.268  0.4799 -0.1353  0.4411
  566MOL0     H74685   1.362   4.976   8.423  1.5170 -4.2421 -0.1989
  566MOL0     H74686   1.233   5.072   8.169  0.5829 -2.3642 -0.9854
  566MOL0     H74687   1.189   5.095   8.337 -2.6742  0.3874 -2.9469
  566MOL0     H74688   1.139   4.865   8.360  2.1747 -2.3173 -0.3446
  566MOL0     H74689   1.209   4.822   8.202 -0.1004  0.6969 -0.4977
  566MOL0     H74690   0.959   4.976   8.279  0.2520 -1.1477  0.3716
  566MOL0     H74691   1.008   4.984   8.103 -0.7488  0.8021  0.5531
  566MOL0     H74692   0.997   4.722   8.123 -1.5899 -2.3236  0.8757
  566MOL0     H74693   0.843   4.809   8.105 -1.0826 -3.5564 -0.4960
  566MOL0     H74694   1.827   5.377   8.147  0.4915 -0.1962 -0.4415
  566MOL0     H74695   1.993   5.539   8.173 -0.2542 -0.2053 -2.3326
  566MOL0     H74696   2.166   5.887   8.338 -1.8632  0.3672  1.9612
  566MOL0     H74697   2.341   6.079   8.330 -0.7194 -2.3124  0.3299
  566MOL0     H74698   2.572   8.103   7.322 -1.7133  3.9759 -1.2836
  566MOL0     H74699   2.645   8.333   7.288 -0.6406  0.0751  0.4029
  566MOL0     H74700   3.047   8.609   7.284 -0.7010  1.1164  0.6598
  566MOL0     H74701   3.108   8.838   7.267 -1.5326  1.7123  0.8552
  566MOL0     H74702   2.880   9.136   7.043  0.7875  1.1024  0.8075
  566MOL0     H74703   2.965   9.085   6.889 -1.4308 -1.4658  0.9256
  566MOL0     H74704   3.003   9.321   6.959 -0.0321  0.5543  1.9138
  566MOL0     H74705   3.044   9.272   7.117 -1.6538 -1.6000  0.9924
  566MOL0     H74706   3.202   9.173   6.879  0.7290 -0.9132  0.7385
  566MOL0     H74707   3.251   9.205   7.047 -1.6003 -1.3092 -0.4767
  566MOL0     H74708   3.205   9.409   6.834  1.9886 -0.6664 -2.0851
  566MOL0     H74709   3.228   9.453   7.002  1.5317  2.3819 -1.7057
  566MOL0     H74710   3.608   9.344   6.832 -0.3328 -1.1725 -0.8780
  566MOL0     H74711   2.846   8.896   6.925  1.9618 -0.2567 -0.4965
  566MOL0     H74712   2.762   8.652   6.970  2.6668 -1.0355 -1.5001
  567MOL0     O74713   1.950   4.479   4.916  0.2291 -0.2388  0.0537
  567MOL0     C74714   1.944   4.599   4.884  0.1824  0.0912 -0.0280
  567MOL0     O74715   1.830   4.667   4.885 -0.1463 -0.2679 -0.3879
  567MOL0     C74716   1.714   4.601   4.890  0.2870 -0.2291  0.3650
  567MOL0     C74717   1.668   4.522   5.001  0.1904  0.8618 -0.4922
  567MOL0     C74718   1.539   4.466   5.006 -0.1349  0.5904 -0.7347
  567MOL0     C74719   1.456   4.489   4.897 -0.2554 -0.4733 -0.1000
  567MOL0     O74720   1.320   4.473   4.903  0.3938  0.4692 -0.0769
  567MOL0     C74721   1.256   4.413   5.024 -0.0316 -0.2771 -0.2485
  567MOL0     C74722   1.104   4.412   5.016 -0.2676  0.0394 -0.2332
  567MOL0     C74723   1.065   4.287   4.939 -0.0338  0.1714 -0.4360
  567MOL0     C74724   0.914   4.285   4.940 -0.0639 -0.4059 -0.0255
  567MOL0     C74725   0.855   4.180   4.842  0.7113 -0.0104 -0.3834
  567MOL0     C74726   0.853   4.241   4.702 -0.2180 -0.2642 -0.5039
  567MOL0     C74727   0.743   4.202   4.607  0.2739  0.3407 -0.2461
  567MOL0     C74728   0.727   4.048   4.574 -0.3910  0.5449  0.1395
  567MOL0     N74729   0.847   3.989   4.513  0.3297 -0.1669 -0.3675
  567MOL0     C74730   0.913   4.019   4.398  0.9788 -0.4342  0.1462
  567MOL0     C74731   1.036   3.971   4.402  0.0905 -0.4589  0.5413
  567MOL0     C74732   1.148   3.991   4.298 -0.6200 -0.6139  0.0794
  567MOL0     C74733   1.162   3.868   4.200 -0.1371 -0.7776 -0.1718
  567MOL0     C74734   1.189   3.732   4.264 -0.2492 -0.3837  0.5050
  567MOL0     C74735   1.313   3.715   4.344 -1.0922  0.7035 -0.2228
  567MOL0     O74736   1.431   3.729   4.270  0.1912  0.5534  0.5662
  567MOL0     C74737   1.481   3.632   4.193 -0.9650  0.6056 -0.2965
  567MOL0     C74738   1.480   3.490   4.217  0.2961  0.0913  0.1096
  567MOL0     C74739   1.566   3.402   4.150  0.5160 -0.3338  0.9312
  567MOL0     C74740   1.651   3.445   4.045  0.8616 -0.1373  0.6721
  567MOL0     C74741   1.747   3.354   3.986 -0.5139  0.5105 -0.1853
  567MOL0     O74742   1.852   3.427   3.921 -0.2642 -0.4689  0.1959
  567MOL0     C74743   1.978   3.365   3.892 -0.0074 -0.0657 -0.0789
  567MOL0     C74744   2.037   3.256   3.958  0.3597  0.5168 -0.1306
  567MOL0     C74745   2.161   3.208   3.924 -0.2402 -0.0643 -0.7914
  567MOL0     C74746   2.236   3.264   3.826  0.7589 -0.3842 -0.3283
  567MOL0     O74747   2.359   3.211   3.810  0.1402  0.0245  0.5165
  567MOL0     C74748   2.389   3.178   3.670  0.4223  0.5111 -0.4170
  567MOL0     C74749   2.496   3.260   3.591  0.9849  0.3742 -0.0763
  567MOL0     C74750   2.646   3.243   3.634 -0.6397  0.1396  0.5568
  567MOL0     C74751   2.729   3.346   3.555 -0.5162 -0.8583 -0.0709
  567MOL0     C74752   2.874   3.357   3.594 -0.2842  0.5673 -0.2061
  567MOL0     C74753   2.967   3.303   3.481  0.5359  0.2058  0.5201
  567MOL0     C74754   2.939   3.158   3.439  0.4655 -0.3088  0.1900
  567MOL0     C74755   2.973   3.064   3.550 -0.9575  0.2294  0.3654
  567MOL0    Cl74756   3.147   3.030   3.589  0.0913  0.6497 -0.3805
  567MOL0     C74757   2.177   3.363   3.743  0.7470  0.0063  0.0638
  567MOL0     C74758   2.048   3.417   3.777  0.1158 -0.0860  0.9630
  567MOL0     O74759   1.732   3.233   3.992 -0.3960 -0.3560  0.7685
  567MOL0     C74760   1.637   3.587   4.012 -0.1251 -0.2212 -0.3423
  567MOL0     C74761   1.554   3.670   4.078 -0.2149 -0.8985  0.7541
  567MOL0     N74762   1.047   3.897   4.522 -0.1513 -1.3259  0.1939
  567MOL0     N74763   0.938   3.911   4.585  0.6812  0.9260  0.5874
  567MOL0     C74764   1.505   4.553   4.782 -0.2120  0.4083 -0.7399
  567MOL0     C74765   1.630   4.615   4.779  0.9300  0.4961 -0.3318
  567MOL0     C74766   2.071   4.686   4.870  0.1549  0.7474  0.0132
  567MOL0     C74767   2.198   4.637   4.886  0.5189 -0.1255  0.1768
  567MOL0     C74768   2.312   4.721   4.873 -0.5328 -0.0759 -0.1354
  567MOL0     C74769   2.306   4.853   4.825  0.2854  0.4525 -0.2154
  567MOL0     O74770   2.420   4.915   4.808 -0.6637  0.3779  0.2948
  567MOL0     C74771   2.416   5.046   4.771 -0.4097  0.3800  0.1224
  567MOL0     C74772   2.554   5.099   4.765 -0.4334 -0.3075 -0.3452
  567MOL0     C74773   2.570   5.253   4.762  0.6932 -0.3932  0.4254
  567MOL0     C74774   2.721   5.289   4.756 -0.0983  0.2494  0.4070
  567MOL0     C74775   2.749   5.436   4.764 -0.5627  0.3339 -0.0282
  567MOL0     C74776   2.784   5.550   4.787  0.2721  0.5106  0.0054
  567MOL0     C74777   2.176   4.902   4.809 -0.3064  0.4384 -0.5094
  567MOL0     C74778   2.062   4.817   4.836  0.1698  0.7465 -0.2129
  567MOL0     H74779   1.741   4.509   5.080  0.2933  0.0591 -0.7121
  567MOL0     H74780   1.506   4.404   5.089  1.4795 -0.1204 -0.5777
  567MOL0     H74781   1.271   4.493   5.097 -0.4456 -0.2188 -0.2218
  567MOL0     H74782   1.302   4.318   5.053 -0.3234 -0.6910 -1.1100
  567MOL0     H74783   1.064   4.502   4.969 -0.5152  1.0930  1.8502
  567MOL0     H74784   1.068   4.408   5.119 -0.6190  2.5166 -0.1881
  567MOL0     H74785   1.111   4.197   4.980 -0.3675  0.5043  0.7066
  567MOL0     H74786   1.078   4.300   4.831 -1.5467 -0.8459 -0.7755
  567MOL0     H74787   0.890   4.247   5.040 -0.3697 -0.5764 -0.1622
  567MOL0     H74788   0.868   4.382   4.921 -1.5394 -0.5377  2.5223
  567MOL0     H74789   0.749   4.173   4.872  0.4964  3.2063 -0.1064
  567MOL0     H74790   0.897   4.079   4.848 -0.2965 -0.5070 -1.3236
  567MOL0     H74791   0.951   4.224   4.656  0.0717  1.9697 -0.8292
  567MOL0     H74792   0.840   4.349   4.719  0.5162 -0.3376  0.6240
  567MOL0     H74793   0.642   4.228   4.642 -0.2602 -0.2913 -1.2621
  567MOL0     H74794   0.762   4.268   4.522 -0.2438  0.8977  0.0603
  567MOL0     H74795   0.646   4.027   4.503 -0.9655  0.0547  0.9203
  567MOL0     H74796   0.711   4.000   4.672  4.2245 -2.7520 -0.4105
  567MOL0     H74797   0.868   4.074   4.316 -0.2779 -2.0334 -0.2741
  567MOL0     H74798   1.246   4.016   4.338  0.1041 -1.9475 -0.7942
  567MOL0     H74799   1.123   4.080   4.238  0.1149  0.3073  1.1180
  567MOL0     H74800   1.245   3.891   4.133 -0.5438  0.6979 -0.2082
  567MOL0     H74801   1.073   3.860   4.137 -1.0228  0.4826  0.8603
  567MOL0     H74802   1.103   3.689   4.316  1.4309 -1.9860  2.0958
  567MOL0     H74803   1.206   3.661   4.182 -2.4194 -0.7514  0.3189
  567MOL0     H74804   1.303   3.615   4.390 -1.4851  0.7837 -0.1293
  567MOL0     H74805   1.310   3.787   4.427  0.5727 -0.0926  0.5807
  567MOL0     H74806   1.407   3.453   4.289 -0.2709 -0.6150 -0.8043
  567MOL0     H74807   1.551   3.299   4.180 -3.0502 -0.1518  0.2238
  567MOL0     H74808   1.998   3.203   4.045  0.8533 -0.8325 -0.6983
  567MOL0     H74809   2.212   3.133   3.985 -0.4464 -0.2954 -0.8994
  567MOL0     H74810   2.297   3.169   3.611  0.8699 -2.0071 -0.8152
  567MOL0     H74811   2.413   3.072   3.671 -2.1161 -0.1239  0.2434
  567MOL0     H74812   2.473   3.366   3.605 -1.4356 -0.4133  3.2143
  567MOL0     H74813   2.483   3.240   3.484 -2.3214  1.7165 -0.0575
  567MOL0     H74814   2.674   3.142   3.604 -2.5674 -0.2696 -0.0294
  567MOL0     H74815   2.658   3.265   3.740  0.6902  1.6555  0.1224
  567MOL0     H74816   2.717   3.333   3.447  3.0018 -0.2435 -0.6462
  567MOL0     H74817   2.682   3.443   3.575  4.3215  1.7639  0.1778
  567MOL0     H74818   2.897   3.311   3.691  1.2948  0.3340 -0.6514
  567MOL0     H74819   2.896   3.464   3.602  1.8392  0.1047  1.3201
  567MOL0     H74820   3.073   3.308   3.506  0.7515 -2.2241  0.3188
  567MOL0     H74821   2.951   3.364   3.392 -2.1663  0.0883  0.8132
  567MOL0     H74822   2.840   3.142   3.396 -0.7871  1.7597  2.0985
  567MOL0     H74823   3.022   3.145   3.368  0.1771  0.5695 -0.3236
  567MOL0     H74824   2.928   2.967   3.524 -1.0089  0.5030 -0.5919
  567MOL0     H74825   2.927   3.099   3.643  1.0330  0.5596  1.2714
  567MOL0     H74826   2.238   3.401   3.661  1.0966 -0.1460  0.2492
  567MOL0     H74827   2.014   3.502   3.719  1.7620  1.3178  1.9604
  567MOL0     H74828   1.696   3.637   3.936  0.0223  0.3943  0.1757
  567MOL0     H74829   1.556   3.777   4.058 -1.2867 -0.9677  0.2100
  567MOL0     H74830   1.440   4.588   4.704  1.9291  0.4940 -2.5855
  567MOL0     H74831   1.667   4.667   4.692  1.0729 -0.8379 -1.0970
  567MOL0     H74832   2.210   4.532   4.911 -2.2720 -1.2525 -2.6346
  567MOL0     H74833   2.404   4.676   4.910  0.6864  1.9802 -0.5035
  567MOL0     H74834   2.359   5.108   4.842  0.4156  1.2536  0.0390
  567MOL0     H74835   2.369   5.075   4.676  0.5783  2.2829  0.1664
  567MOL0     H74836   2.604   5.068   4.858  0.3728  1.5942 -0.0912
  567MOL0     H74837   2.595   5.051   4.676  0.1971 -1.9818  0.8050
  567MOL0     H74838   2.522   5.308   4.843  0.3109  0.3729 -0.3022
  567MOL0     H74839   2.529   5.290   4.667 -2.5724 -1.4134  1.2916
  567MOL0     H74840   2.776   5.234   4.833  0.7388  0.6242  0.0881
  567MOL0     H74841   2.753   5.254   4.657 -2.2761 -0.1624 -0.2151
  567MOL0     H74842   2.807   5.654   4.800 -1.7377  0.7539  2.2242
  567MOL0     H74843   2.147   5.001   4.774 -1.7298 -0.2178 -1.2679
  567MOL0     H74844   1.963   4.857   4.819  0.6350  0.7146 -3.8206
  568MOL0     O74845   0.737   2.179   5.634 -0.3413 -0.4216  0.6462
  568MOL0     C74846   0.720   2.073   5.570  0.2733 -0.3794 -0.6446
  568MOL0     O74847   0.806   2.005   5.477 -0.5386 -0.3574  0.2545
  568MOL0     C74848   0.930   2.064   5.449  0.6358 -0.8519 -1.1990
  568MOL0     C74849   0.938   2.202   5.410  0.3452  0.0442  0.4089
  568MOL0     C74850   1.062   2.257   5.373 -0.5549  0.7213  0.1002
  568MOL0     C74851   1.180   2.166   5.389  0.8680 -0.7309 -0.4580
  568MOL0     O74852   1.302   2.203   5.354 -0.3849  0.1781  0.4239
  568MOL0     C74853   1.321   2.320   5.273 -0.2610  0.0087 -0.7276
  568MOL0     C74854   1.469   2.346   5.236  0.4036  0.5423  0.2847
  568MOL0     C74855   1.490   2.487   5.195  0.1768 -0.3877  0.6179
  568MOL0     C74856   1.626   2.507   5.122 -0.3003  0.6469  0.5459
  568MOL0     C74857   1.741   2.512   5.227 -0.4381 -0.6085  0.8039
  568MOL0     C74858   1.882   2.536   5.163  0.3562  1.3077  0.2489
  568MOL0     C74859   1.921   2.426   5.062  0.6452  0.2170 -0.1342
  568MOL0     C74860   2.063   2.461   5.008 -0.1666 -0.1742 -0.6581
  568MOL0     N74861   2.078   2.598   4.950 -0.2992  0.2692 -0.4309
  568MOL0     C74862   2.009   2.636   4.837 -0.2456 -0.1122  0.1496
  568MOL0     C74863   2.035   2.769   4.818  0.1203 -0.9418 -1.0552
  568MOL0     C74864   1.967   2.860   4.714  0.2938  0.1998 -0.2736
  568MOL0     C74865   1.832   2.916   4.757  0.5121  0.6097 -0.2055
  568MOL0     C74866   1.734   2.802   4.802  0.6483 -0.0784  0.4220
  568MOL0     C74867   1.592   2.860   4.812  0.3416 -0.0759 -0.6301
  568MOL0     O74868   1.500   2.752   4.782 -0.6594 -0.0460 -0.0979
  568MOL0     C74869   1.365   2.765   4.784  0.0512 -1.8683  0.0876
  568MOL0     C74870   1.302   2.754   4.910 -0.2915  0.4215  0.0516
  568MOL0     C74871   1.162   2.778   4.914 -0.2522  0.3002 -0.4513
  568MOL0     C74872   1.087   2.817   4.794 -0.1317 -0.2958  0.3505
  568MOL0     C74873   0.953   2.858   4.798 -0.4015 -0.6268 -0.2206
  568MOL0     O74874   0.911   2.941   4.697  0.2784  0.0733  0.1446
  568MOL0     C74875   0.779   2.963   4.702 -0.8051 -0.0768 -0.0935
  568MOL0     C74876   0.746   3.100   4.699 -0.0578 -0.5199 -0.9120
  568MOL0     C74877   0.616   3.143   4.721 -0.8651  0.4754  1.4656
  568MOL0     C74878   0.513   3.055   4.722  0.3664 -0.3664  0.5627
  568MOL0     O74879   0.391   3.109   4.737  0.0126  0.3438  0.0879
  568MOL0     C74880   0.282   3.060   4.656  0.4804 -0.8799  0.0434
  568MOL0     C74881   0.155   3.106   4.728  0.1473  0.5209  0.5681
  568MOL0     C74882   0.026   3.043   4.667  1.1532  0.4183 -0.1846
  568MOL0     C74883  -0.100   3.122   4.715 -0.0502 -0.4214 -0.4958
  568MOL0     C74884  -0.233   3.054   4.668 -0.2110  0.9494  0.6923
  568MOL0     C74885  -0.261   3.028   4.514  1.6628  0.4928 -0.5081
  568MOL0     C74886  -0.407   2.978   4.488 -0.1523 -0.0803 -0.4506
  568MOL0     C74887  -0.425   2.947   4.341 -0.6394  0.2070  0.1929
  568MOL0    Cl74888  -0.590   2.885   4.319 -0.4368  0.1246  0.0324
  568MOL0     C74889   0.536   2.919   4.709  0.0900 -0.3958  0.0257
  568MOL0     C74890   0.676   2.877   4.708  0.0851  1.0397  0.2452
  568MOL0     O74891   0.885   2.819   4.897  0.7154  0.1972  0.1019
  568MOL0     C74892   1.156   2.816   4.672 -0.3828  0.1759  0.1853
  568MOL0     C74893   1.294   2.798   4.671  0.7330  0.5103  0.6240
  568MOL0     N74894   2.133   2.805   4.909  0.3552 -0.3739 -1.0587
  568MOL0     N74895   2.162   2.701   4.983  0.2373 -0.0261  0.9075
  568MOL0     C74896   1.168   2.044   5.429 -0.1126  0.5585  0.0030
  568MOL0     C74897   1.042   1.992   5.460 -0.7438 -0.5594 -0.3113
  568MOL0     C74898   0.586   2.019   5.581 -1.3025 -0.0851  0.1384
  568MOL0     C74899   0.476   2.104   5.612  0.4464 -0.0263 -0.3528
  568MOL0     C74900   0.351   2.052   5.638 -0.0031 -0.0258  0.1610
  568MOL0     C74901   0.328   1.919   5.634  1.0020  0.6398  0.5707
  568MOL0     O74902   0.205   1.867   5.671  0.3095  0.3278 -0.7656
  568MOL0     C74903   0.164   1.732   5.647 -0.1833  0.1995 -0.0578
  568MOL0     C74904   0.029   1.705   5.714 -0.2217  0.5015 -0.0760
  568MOL0     C74905   0.024   1.729   5.869 -0.1421  0.9236 -0.8059
  568MOL0     C74906  -0.065   1.846   5.914 -0.4398  0.4742  0.0867
  568MOL0     C74907  -0.015   1.979   5.887  0.3122 -0.4515  0.2501
  568MOL0     C74908  -0.001   2.097   5.858 -0.5592 -0.2672  0.6639
  568MOL0     C74909   0.432   1.832   5.596 -0.4530  1.1856 -0.4395
  568MOL0     C74910   0.559   1.885   5.573  0.1022  0.0800  0.5792
  568MOL0     H74911   0.847   2.261   5.413 -0.7633 -1.5808 -0.1563
  568MOL0     H74912   1.067   2.359   5.337 -3.0195  0.9092  0.1285
  568MOL0     H74913   1.303   2.410   5.331  1.0403 -0.0199 -0.2604
  568MOL0     H74914   1.257   2.316   5.184 -2.3209 -0.7211  0.7342
  568MOL0     H74915   1.503   2.282   5.154  3.2936 -0.3189  2.0241
  568MOL0     H74916   1.538   2.326   5.318  1.4894  2.4248 -0.1051
  568MOL0     H74917   1.476   2.553   5.281 -2.2645 -0.9261  0.7289
  568MOL0     H74918   1.413   2.524   5.125 -0.2074  0.9883  1.7179
  568MOL0     H74919   1.648   2.427   5.051  0.3799  2.1958 -1.0568
  568MOL0     H74920   1.616   2.599   5.064  1.1282  0.5156  0.0577
  568MOL0     H74921   1.744   2.419   5.284  2.4548 -2.2545 -1.7213
  568MOL0     H74922   1.731   2.597   5.296  0.0327 -1.7944  2.3907
  568MOL0     H74923   1.954   2.541   5.245  1.7807  0.8013 -0.9295
  568MOL0     H74924   1.882   2.635   5.116  1.0861  0.5970 -1.3155
  568MOL0     H74925   1.919   2.331   5.117 -1.4897  2.2224  3.6272
  568MOL0     H74926   1.856   2.402   4.977  0.9033  0.1205 -0.3089
  568MOL0     H74927   2.095   2.379   4.943 -0.3766 -0.0985 -0.8603
  568MOL0     H74928   2.135   2.458   5.090 -1.1394 -2.8800  0.1946
  568MOL0     H74929   1.941   2.579   4.776 -1.1777  2.6687 -1.6206
  568MOL0     H74930   1.959   2.805   4.620  2.9930 -1.9630  0.6505
  568MOL0     H74931   2.033   2.943   4.685  0.8370  0.2674  1.0700
  568MOL0     H74932   1.779   2.961   4.672 -0.1787 -1.8347 -1.1660
  568MOL0     H74933   1.855   2.989   4.835  2.1142  0.1395 -0.2161
  568MOL0     H74934   1.743   2.721   4.729 -3.3432  0.0281 -0.4527
  568MOL0     H74935   1.761   2.760   4.899 -0.5807 -1.9441 -0.0059
  568MOL0     H74936   1.571   2.944   4.746 -1.2898 -1.4771 -2.0001
  568MOL0     H74937   1.577   2.902   4.912  0.3353  2.0607 -1.4841
  568MOL0     H74938   1.355   2.740   5.004  1.2981  3.8807 -0.2009
  568MOL0     H74939   1.114   2.776   5.011 -0.2060  0.8419 -0.4097
  568MOL0     H74940   0.830   3.168   4.712  1.2005 -2.1201 -0.3932
  568MOL0     H74941   0.595   3.249   4.730 -0.1415  1.0213 -2.0391
  568MOL0     H74942   0.279   2.951   4.657 -1.4128 -0.8616  0.5016
  568MOL0     H74943   0.276   3.099   4.553 -0.9753 -1.9614 -0.3054
  568MOL0     H74944   0.149   3.215   4.727  0.9538  0.5641  0.3923
  568MOL0     H74945   0.166   3.073   4.832  0.6099 -0.1954  0.2952
  568MOL0     H74946   0.029   2.940   4.701  2.8877 -0.1443 -1.8721
  568MOL0     H74947   0.022   3.041   4.557 -0.4903  0.1939 -0.1425
  568MOL0     H74948  -0.106   3.115   4.824  3.3448  0.7041 -0.1110
  568MOL0     H74949  -0.094   3.226   4.683  1.1496 -0.6965 -1.2158
  568MOL0     H74950  -0.316   3.111   4.712 -3.2640 -0.9954 -2.0529
  568MOL0     H74951  -0.229   2.954   4.714  1.4298  1.1713  1.0996
  568MOL0     H74952  -0.194   2.954   4.469  0.1662 -1.3669  0.1428
  568MOL0     H74953  -0.251   3.126   4.466 -2.5464  1.7267  0.7087
  568MOL0     H74954  -0.419   2.886   4.546  1.5324  0.8640  1.5807
  568MOL0     H74955  -0.468   3.059   4.529  1.4206  0.3614  1.1890
  568MOL0     H74956  -0.352   2.870   4.314 -0.3495  0.9074 -1.1100
  568MOL0     H74957  -0.408   3.037   4.280 -0.6949  1.3400  1.7971
  568MOL0     H74958   0.456   2.846   4.702  0.0415 -0.2521 -1.0986
  568MOL0     H74959   0.694   2.774   4.680  1.8939  0.9015  1.7005
  568MOL0     H74960   1.097   2.828   4.582  0.9086 -2.1213 -1.0574
  568MOL0     H74961   1.355   2.819   4.584 -0.3529  2.5811  0.3097
  568MOL0     H74962   1.262   1.990   5.434 -0.9221 -0.8917  0.1144
  568MOL0     H74963   1.033   1.898   5.514  0.8782 -0.4616  0.1733
  568MOL0     H74964   0.491   2.212   5.620  3.8521 -0.3944 -0.1503
  568MOL0     H74965   0.267   2.116   5.661  0.0530  0.8931 -2.0412
  568MOL0     H74966   0.237   1.668   5.696  0.2781  1.8205  1.4964
  568MOL0     H74967   0.148   1.704   5.542 -1.3670 -0.3274  0.2435
  568MOL0     H74968  -0.046   1.769   5.666 -3.1228 -0.8946  2.2914
  568MOL0     H74969  -0.002   1.602   5.694 -1.1979  1.3553 -3.9366
  568MOL0     H74970   0.117   1.738   5.925 -1.7494  1.7929  1.8704
  568MOL0     H74971  -0.011   1.640   5.921  3.8175 -0.4984 -0.2327
  568MOL0     H74972  -0.167   1.846   5.875 -0.1442  0.2289 -0.6982
  568MOL0     H74973  -0.076   1.826   6.021 -0.2138 -0.6988 -0.0990
  568MOL0     H74974   0.002   2.197   5.821  1.6108 -1.0071 -1.4682
  568MOL0     H74975   0.420   1.724   5.589 -0.6478  0.9710  2.1229
  568MOL0     H74976   0.633   1.808   5.554 -1.5613 -1.7227  1.0623
  569MOL0     O74977   9.308   1.444  11.171 -0.0196  0.0193  0.2413
  569MOL0     C74978   9.372   1.423  11.273  0.3039  0.3544 -0.3344
  569MOL0     O74979   9.312   1.405  11.387 -0.9654  0.5798 -0.1677
  569MOL0     C74980   9.184   1.368  11.402  0.0748  1.1493  0.2094
  569MOL0     C74981   9.134   1.236  11.362 -0.0733  0.0916 -0.1293
  569MOL0     C74982   8.995   1.200  11.384 -0.3975  0.1484  0.3008
  569MOL0     C74983   8.911   1.293  11.451 -0.7222 -1.0055  0.8313
  569MOL0     O74984   8.775   1.308  11.466  0.2569  0.3058  0.0219
  569MOL0     C74985   8.690   1.219  11.390  0.4827 -0.8590 -0.4074
  569MOL0     C74986   8.544   1.230  11.434  0.0805 -0.2972  0.6285
  569MOL0     C74987   8.474   1.367  11.391  0.3115  0.4104  0.2704
  569MOL0     C74988   8.326   1.376  11.428 -0.4337 -0.4208  0.3929
  569MOL0     C74989   8.248   1.496  11.378  0.2242  0.7450 -0.1174
  569MOL0     C74990   8.096   1.468  11.420 -0.3951 -0.5480 -0.2370
  569MOL0     C74991   8.012   1.565  11.335  0.6005 -0.0514 -0.5516
  569MOL0     C74992   8.004   1.700  11.404 -0.2057  0.3709 -0.1786
  569MOL0     N74993   7.920   1.717  11.521 -0.2523 -0.2875 -0.4294
  569MOL0     C74994   7.814   1.639  11.548  0.4299  0.8291 -0.0939
  569MOL0     C74995   7.768   1.692  11.664  0.3060 -0.2628  0.0791
  569MOL0     C74996   7.649   1.651  11.744 -0.5332 -1.0904 -0.0312
  569MOL0     C74997   7.529   1.744  11.705  1.3761 -0.0532  0.6974
  569MOL0     C74998   7.410   1.729  11.808  0.2817 -0.1211  0.2581
  569MOL0     C74999   7.274   1.769  11.756 -0.1908  0.3380 -0.1352
  569MOL0     O75000   7.275   1.909  11.754 -0.4808 -0.4320  0.3161
  569MOL0     C75001   7.156   1.983  11.758 -0.0139  0.1470  0.4224
  569MOL0     C75002   7.022   1.939  11.737 -0.6337 -0.2476 -0.4819
  569MOL0     C75003   6.909   2.022  11.719 -0.2196 -0.3385 -0.6764
  569MOL0     C75004   6.921   2.157  11.744  0.7403  0.0929 -0.0433
  569MOL0     C75005   6.798   2.237  11.736  0.0532  0.1889 -0.6662
  569MOL0     O75006   6.675   2.178  11.715  0.4059  0.2368  0.6451
  569MOL0     C75007   6.578   2.255  11.661  0.1865 -0.3784 -0.4345
  569MOL0     C75008   6.513   2.348  11.741  0.7793 -0.1970 -0.5303
  569MOL0     C75009   6.424   2.436  11.682 -0.2547 -0.9634 -0.0694
  569MOL0     C75010   6.393   2.435  11.549 -0.5447 -0.0412  0.0801
  569MOL0     O75011   6.308   2.531  11.484  0.3140 -0.9919 -0.8471
  569MOL0     C75012   6.235   2.620  11.577 -0.6439 -0.6566  0.0288
  569MOL0     C75013   6.123   2.694  11.506 -0.2570  0.7493  0.3976
  569MOL0     C75014   6.033   2.764  11.593  0.8572  0.4127  1.3263
  569MOL0     C75015   5.950   2.843  11.483 -0.0768 -0.1054 -0.5690
  569MOL0     C75016   5.821   2.903  11.534 -0.9099  0.1024  1.1737
  569MOL0     C75017   5.715   2.792  11.561 -0.6553 -0.1508  1.1897
  569MOL0     C75018   5.569   2.849  11.569 -0.1262  0.1690  0.8178
  569MOL0     C75019   5.458   2.742  11.544 -0.4687 -1.0894 -0.3511
  569MOL0    Cl75020   5.365   2.780  11.389 -0.1175  0.5014 -0.3383
  569MOL0     C75021   6.457   2.335  11.472  0.0038  0.1025 -0.1106
  569MOL0     C75022   6.547   2.242  11.525  0.0318  0.0991  0.1054
  569MOL0     O75023   6.818   2.358  11.747 -0.0621 -0.4464  0.5945
  569MOL0     C75024   7.056   2.206  11.755 -1.2890 -0.4793 -0.6417
  569MOL0     C75025   7.168   2.120  11.767 -0.4746  0.1400 -0.1962
  569MOL0     N75026   7.846   1.798  11.704 -0.3610 -0.0395  0.5991
  569MOL0     N75027   7.938   1.817  11.611 -0.0328  0.2982  0.1829
  569MOL0     C75028   8.970   1.415  11.496 -0.1801  0.2784 -0.1328
  569MOL0     C75029   9.099   1.452  11.463 -0.2861 -0.4337  0.0436
  569MOL0     C75030   9.520   1.434  11.282 -1.0832  0.4647 -0.3951
  569MOL0     C75031   9.585   1.513  11.187 -0.3105 -0.0194  0.4194
  569MOL0     C75032   9.724   1.516  11.188 -0.5915 -0.2860  0.4948
  569MOL0     C75033   9.804   1.458  11.285  0.2961  0.4909  0.8642
  569MOL0     O75034   9.935   1.489  11.283 -0.0608 -0.5641  0.4009
  569MOL0     C75035  10.032   1.395  11.316 -0.2809  0.5416 -0.0649
  569MOL0     C75036  10.062   1.293  11.200  0.9244 -0.3946 -0.0262
  569MOL0     C75037  10.089   1.366  11.067  0.3529 -0.4493  0.1000
  569MOL0     C75038  10.098   1.272  10.945 -0.3789  0.1968  0.9410
  569MOL0     C75039  10.213   1.186  10.947  0.7704 -0.2973  0.9317
  569MOL0     C75040  10.292   1.095  10.943 -0.1623  0.4758  0.3031
  569MOL0     C75041   9.733   1.393  11.383 -0.5629  0.5097 -0.3517
  569MOL0     C75042   9.600   1.377  11.384 -0.0904  0.8137  0.4440
  569MOL0     H75043   9.206   1.162  11.329 -1.3005 -1.1890 -0.0039
  569MOL0     H75044   8.945   1.107  11.363 -1.9910  0.8051  1.0639
  569MOL0     H75045   8.727   1.117  11.407  2.3476 -0.4968 -1.9767
  569MOL0     H75046   8.707   1.223  11.282  2.4900 -2.9941 -0.2541
  569MOL0     H75047   8.531   1.217  11.541  0.9676 -0.7754  0.6906
  569MOL0     H75048   8.485   1.147  11.394 -2.1877  1.1047  0.9161
  569MOL0     H75049   8.479   1.388  11.283 -1.4852 -0.0902  0.0650
  569MOL0     H75050   8.524   1.453  11.438 -1.1154  0.7031  1.2923
  569MOL0     H75051   8.284   1.280  11.399 -0.2135 -0.7527  1.1519
  569MOL0     H75052   8.321   1.381  11.537 -1.1601 -0.7423  0.3809
  569MOL0     H75053   8.253   1.510  11.269 -0.8447 -0.0278 -0.2808
  569MOL0     H75054   8.288   1.586  11.424  1.0146 -0.0155  0.7030
  569MOL0     H75055   8.074   1.466  11.527 -1.0098 -3.5678 -0.3288
  569MOL0     H75056   8.067   1.374  11.373 -0.2613 -2.2823  2.8968
  569MOL0     H75057   8.064   1.579  11.240  3.2197 -0.1917  0.7438
  569MOL0     H75058   7.915   1.521  11.314 -0.3553  0.1236  2.8369
  569MOL0     H75059   7.970   1.771  11.329 -1.7609  0.5301  0.6322
  569MOL0     H75060   8.106   1.725  11.436 -0.2614  0.9439 -0.4433
  569MOL0     H75061   7.787   1.542  11.506  0.3859  0.1053  1.5361
  569MOL0     H75062   7.668   1.662  11.852  1.0307 -0.1891 -0.3680
  569MOL0     H75063   7.616   1.550  11.719 -1.5939 -0.9284  0.6159
  569MOL0     H75064   7.506   1.718  11.601 -1.1595  1.4002  0.8184
  569MOL0     H75065   7.556   1.850  11.700  1.6033 -0.1573 -0.8625
  569MOL0     H75066   7.403   1.622  11.828 -0.4475 -0.1522 -0.1229
  569MOL0     H75067   7.435   1.780  11.902 -2.0944  2.5199 -0.3797
  569MOL0     H75068   7.196   1.728  11.822  0.0616 -0.8221 -0.5408
  569MOL0     H75069   7.264   1.731  11.654  4.8141  0.1583 -0.7600
  569MOL0     H75070   7.004   1.833  11.728 -1.3769 -0.2636  0.8025
  569MOL0     H75071   6.816   1.970  11.700 -1.7830  2.1709 -0.3186
  569MOL0     H75072   6.531   2.356  11.848 -2.5482 -0.5132  0.1638
  569MOL0     H75073   6.385   2.519  11.740  0.1255 -1.7343  1.3620
  569MOL0     H75074   6.295   2.702  11.619 -1.8570 -0.0285  0.5709
  569MOL0     H75075   6.187   2.563  11.656 -2.0874  1.6752  0.9256
  569MOL0     H75076   6.078   2.609  11.455  3.5391 -0.2338 -1.7754
  569MOL0     H75077   6.170   2.752  11.425  0.4260  1.7895  1.5063
  569MOL0     H75078   6.073   2.846  11.653  0.4033  1.5142  0.1603
  569MOL0     H75079   5.971   2.699  11.655 -1.3819  1.7916  0.6289
  569MOL0     H75080   6.015   2.910  11.426  0.8702 -3.1175 -3.3624
  569MOL0     H75081   5.919   2.772  11.406  1.2449  0.6967 -1.8957
  569MOL0     H75082   5.779   2.959  11.450  1.2787 -1.7074 -1.2981
  569MOL0     H75083   5.838   2.969  11.619  0.4641  1.2180  0.0861
  569MOL0     H75084   5.745   2.740  11.652 -0.2330  2.1297  2.4156
  569MOL0     H75085   5.724   2.720  11.479 -0.0736 -0.2046  1.2963
  569MOL0     H75086   5.573   2.884  11.673  0.3172  1.1723  0.4755
  569MOL0     H75087   5.570   2.933  11.499  3.8518 -1.1203 -0.9753
  569MOL0     H75088   5.396   2.743  11.634 -0.9080 -0.0582 -0.6496
  569MOL0     H75089   5.510   2.647  11.531  1.6657  0.0621 -0.8476
  569MOL0     H75090   6.426   2.315  11.369 -1.2549 -1.6737  0.5628
  569MOL0     H75091   6.604   2.175  11.461  0.1528 -0.3891  0.7110
  569MOL0     H75092   7.083   2.311  11.753 -0.4551 -0.6562  0.3083
  569MOL0     H75093   7.265   2.168  11.779 -1.3104  1.8601 -0.0340
  569MOL0     H75094   8.900   1.492  11.529 -0.9836  0.2361 -1.6566
  569MOL0     H75095   9.140   1.551  11.483  1.0027 -0.6363 -1.4111
  569MOL0     H75096   9.532   1.558  11.104  2.0818 -0.8075 -1.6734
  569MOL0     H75097   9.791   1.562  11.117  3.2559 -1.2149  3.1849
  569MOL0     H75098  10.017   1.346  11.412 -4.1730  0.7369 -0.4424
  569MOL0     H75099  10.127   1.450  11.323 -0.8762  1.4891  0.6491
  569MOL0     H75100  10.147   1.229  11.228  1.4737 -0.0266 -0.8118
  569MOL0     H75101   9.976   1.227  11.185  0.5852  0.4804 -2.1794
  569MOL0     H75102  10.177   1.427  11.087 -0.8330  1.0169  1.0284
  569MOL0     H75103  10.013   1.442  11.045  2.3663  1.8673  0.7994
  569MOL0     H75104  10.010   1.207  10.940 -0.6993  0.6221  0.9353
  569MOL0     H75105  10.095   1.330  10.852  0.5932  1.8123  1.8507
  569MOL0     H75106  10.364   1.017  10.929 -0.7685 -0.9332  3.8284
  569MOL0     H75107   9.795   1.364  11.468 -0.8253  0.2893 -0.2343
  569MOL0     H75108   9.551   1.327  11.468 -0.4988  0.9939  0.3140
  570MOL0     O75109   2.292   9.226   0.819 -0.2742 -0.0689  0.1202
  570MOL0     C75110   2.241   9.127   0.869 -0.2427  0.4397 -1.4078
  570MOL0     O75111   2.304   9.021   0.926 -0.0145 -0.2721 -0.7628
  570MOL0     C75112   2.438   9.029   0.932  0.4491  0.0892  0.4756
  570MOL0     C75113   2.515   8.986   0.822  0.2059  0.8529 -0.4194
  570MOL0     C75114   2.657   8.986   0.840  0.9153 -0.8681 -0.0989
  570MOL0     C75115   2.712   9.027   0.959  0.1506  0.8652  0.2160
  570MOL0     O75116   2.849   8.998   0.975  0.5211 -0.1952  0.2633
  570MOL0     C75117   2.933   9.050   1.078  0.6311 -0.5605 -0.1535
  570MOL0     C75118   3.077   9.062   1.036 -0.5694 -0.2595  0.7950
  570MOL0     C75119   3.141   8.928   1.044  0.0544  0.0253  0.3228
  570MOL0     C75120   3.287   8.932   1.003 -0.4521  0.4494 -0.5133
  570MOL0     C75121   3.347   8.794   1.002  0.0258 -0.0231  0.2908
  570MOL0     C75122   3.492   8.794   0.935 -0.3054 -0.7592  0.4133
  570MOL0     C75123   3.594   8.887   0.997 -0.4375 -0.1272  0.3240
  570MOL0     C75124   3.727   8.857   0.920 -0.7539  0.3460  0.8163
  570MOL0     N75125   3.844   8.941   0.954  0.5639 -0.5155  0.2624
  570MOL0     C75126   3.961   8.961   0.884 -0.7596  0.3606  0.2902
  570MOL0     C75127   4.026   9.057   0.950 -0.4136  0.8198 -0.3492
  570MOL0     C75128   4.162   9.093   0.912 -1.1290  0.5953 -0.0804
  570MOL0     C75129   4.191   9.241   0.915  0.0844 -0.2695  0.1651
  570MOL0     C75130   4.122   9.329   0.819  1.0446  0.0176  0.3434
  570MOL0     C75131   4.134   9.479   0.852  0.1006  0.8117  0.0289
  570MOL0     O75132   4.020   9.545   0.795  0.4620  0.0493 -0.0365
  570MOL0     C75133   3.903   9.542   0.865 -0.3380 -0.0297  0.3604
  570MOL0     C75134   3.799   9.613   0.824  0.1968  0.5341  0.0675
  570MOL0     C75135   3.674   9.632   0.886 -0.4619 -0.3056  0.5012
  570MOL0     C75136   3.644   9.546   0.996 -0.1969 -0.1707 -0.1867
  570MOL0     C75137   3.522   9.557   1.067  0.2015  0.9884  0.5028
  570MOL0     O75138   3.508   9.480   1.170  0.0233 -0.6198 -0.6273
  570MOL0     C75139   3.390   9.486   1.241 -0.1218  0.3956  0.2611
  570MOL0     C75140   3.345   9.364   1.272  1.0962  0.8033  0.4945
  570MOL0     C75141   3.234   9.344   1.352  0.0350  0.4601 -0.1497
  570MOL0     C75142   3.164   9.459   1.396  0.2781  1.0389 -0.2457
  570MOL0     O75143   3.033   9.433   1.444 -0.3149 -0.0816  0.2328
  570MOL0     C75144   2.937   9.542   1.452 -0.5661  0.3981 -0.2399
  570MOL0     C75145   2.802   9.490   1.529 -0.9902  0.6220 -0.5633
  570MOL0     C75146   2.710   9.414   1.439  0.5197  0.4991  0.1719
  570MOL0     C75147   2.589   9.362   1.527  0.3664 -0.8594 -0.2393
  570MOL0     C75148   2.517   9.249   1.450  0.4541 -0.3284  0.5981
  570MOL0     C75149   2.397   9.179   1.524  0.5879  0.4597 -0.4179
  570MOL0     C75150   2.264   9.229   1.471 -0.1854 -0.7166  0.4802
  570MOL0     C75151   2.144   9.168   1.546  0.5830  0.0714  0.4271
  570MOL0    Cl75152   1.995   9.213   1.456 -0.6375 -0.2934  0.4078
  570MOL0     C75153   3.226   9.588   1.376  0.4248  0.2932 -0.0713
  570MOL0     C75154   3.337   9.604   1.299  0.1588  0.0408  0.2066
  570MOL0     O75155   3.432   9.611   1.009  0.7384 -0.1293  0.4389
  570MOL0     C75156   3.753   9.470   1.047  0.6673  0.2148  0.9325
  570MOL0     C75157   3.877   9.467   0.983  1.1321  0.7082 -0.1048
  570MOL0     N75158   3.949   9.095   1.062 -0.6836 -0.3937  0.0757
  570MOL0     N75159   3.852   9.017   1.069  0.2347  0.1183  0.3182
  570MOL0     C75160   2.638   9.071   1.066 -0.8354  0.2254 -0.6650
  570MOL0     C75161   2.500   9.075   1.048  0.5642  0.1287  0.2805
  570MOL0     C75162   2.098   9.131   0.854  0.7229 -0.9883  0.2203
  570MOL0     C75163   2.023   9.029   0.902  0.6318 -0.1433 -0.6450
  570MOL0     C75164   1.886   9.022   0.897 -0.1765 -0.2151 -0.0359
  570MOL0     C75165   1.823   9.124   0.825  0.5207  0.7574  0.3261
  570MOL0     O75166   1.685   9.113   0.810  0.1767 -0.0914 -0.5084
  570MOL0     C75167   1.605   9.233   0.770 -0.4590  0.4965 -0.4294
  570MOL0     C75168   1.582   9.309   0.897 -0.5727 -1.4832 -0.3193
  570MOL0     C75169   1.513   9.224   1.008  0.3456 -0.6715  0.7025
  570MOL0     C75170   1.385   9.140   0.968  0.4977 -0.8087  0.4854
  570MOL0     C75171   1.277   9.225   0.915 -0.5596 -0.3288 -0.0666
  570MOL0     C75172   1.191   9.311   0.888 -0.0046  0.5218 -0.1475
  570MOL0     C75173   1.890   9.234   0.779  0.2615  0.1359  0.1681
  570MOL0     C75174   2.028   9.241   0.791 -0.7192 -0.4790 -0.9008
  570MOL0     H75175   2.467   8.948   0.733 -1.1300  0.4339  0.4563
  570MOL0     H75176   2.718   8.940   0.763  0.3398  1.5931 -2.1383
  570MOL0     H75177   2.921   8.977   1.160  2.9123 -0.6361  0.1807
  570MOL0     H75178   2.907   9.152   1.109 -1.5636 -0.4040 -2.2183
  570MOL0     H75179   3.135   9.126   1.102 -0.2464 -0.6731  0.9192
  570MOL0     H75180   3.086   9.087   0.930  0.6130 -2.2722  0.3612
  570MOL0     H75181   3.087   8.861   0.977  0.4786  0.2300 -0.2297
  570MOL0     H75182   3.139   8.889   1.146  3.0437  1.2663  0.9581
  570MOL0     H75183   3.295   8.979   0.905  1.4125  0.9506 -0.1509
  570MOL0     H75184   3.342   8.999   1.070  2.3503 -0.2110 -2.0332
  570MOL0     H75185   3.283   8.719   0.955  1.5076 -2.4586  1.9627
  570MOL0     H75186   3.356   8.748   1.101 -1.6020  0.0607  0.5100
  570MOL0     H75187   3.473   8.832   0.834 -1.9113  0.6834  1.2094
  570MOL0     H75188   3.525   8.690   0.923 -0.1490 -0.4995 -1.8309
  570MOL0     H75189   3.568   8.993   0.982 -1.7099 -0.1206  2.2887
  570MOL0     H75190   3.596   8.858   1.102 -1.2819 -4.6486 -0.6988
  570MOL0     H75191   3.706   8.866   0.813 -0.9310 -1.9337  0.6091
  570MOL0     H75192   3.756   8.752   0.928 -2.2881 -0.1792 -0.0011
  570MOL0     H75193   4.010   8.909   0.802  1.3175 -0.6552  2.0690
  570MOL0     H75194   4.178   9.065   0.807 -2.4014 -0.0207 -0.1287
  570MOL0     H75195   4.238   9.046   0.975 -0.1576  1.6930 -0.4066
  570MOL0     H75196   4.300   9.247   0.903  0.0364 -0.2886 -0.3327
  570MOL0     H75197   4.168   9.284   1.012  1.8763 -3.2050  2.0345
  570MOL0     H75198   4.159   9.315   0.717  1.9159 -0.1364  0.6796
  570MOL0     H75199   4.017   9.298   0.819  0.5161  1.6548 -0.7373
  570MOL0     H75200   4.221   9.533   0.814  0.3551  1.2656  1.2132
  570MOL0     H75201   4.143   9.495   0.960  1.3852  0.2541  0.0216
  570MOL0     H75202   3.813   9.674   0.735  3.7085  2.2442  1.6344
  570MOL0     H75203   3.604   9.703   0.843 -0.1811 -0.0070  0.5317
  570MOL0     H75204   3.394   9.275   1.235  1.2119  0.9553  0.2795
  570MOL0     H75205   3.193   9.247   1.380  0.7138  0.0471 -0.5766
  570MOL0     H75206   2.919   9.575   1.349 -0.1999  0.7818 -0.1852
  570MOL0     H75207   2.980   9.630   1.502 -1.2713  0.5530  0.1111
  570MOL0     H75208   2.749   9.581   1.557 -1.4902  0.2374 -0.2444
  570MOL0     H75209   2.826   9.437   1.621 -3.5827 -3.2435 -1.8615
  570MOL0     H75210   2.761   9.327   1.399  0.4183  0.7403 -0.4971
  570MOL0     H75211   2.680   9.471   1.351 -1.5957 -1.3458 -0.3953
  570MOL0     H75212   2.628   9.318   1.619 -0.3239 -0.4189  0.2686
  570MOL0     H75213   2.519   9.441   1.553  0.6748 -0.6170 -0.1451
  570MOL0     H75214   2.596   9.174   1.441 -0.1928 -0.9805  0.2083
  570MOL0     H75215   2.485   9.278   1.350 -2.8325 -0.4819  1.4739
  570MOL0     H75216   2.403   9.188   1.632  2.5069 -1.8292 -0.2377
  570MOL0     H75217   2.398   9.073   1.496 -1.4901  0.3049 -0.0750
  570MOL0     H75218   2.259   9.338   1.480 -0.8316 -0.5359 -1.5586
  570MOL0     H75219   2.253   9.194   1.368 -1.1610 -0.0437  0.3391
  570MOL0     H75220   2.128   9.204   1.648  1.1630  1.2490  0.1145
  570MOL0     H75221   2.147   9.059   1.548  0.9535  0.0805  2.0280
  570MOL0     H75222   3.180   9.682   1.404  0.5673  0.1980  0.4963
  570MOL0     H75223   3.373   9.703   1.273  0.4355 -0.9337 -3.6282
  570MOL0     H75224   3.742   9.404   1.133 -1.5747 -1.3302 -0.4168
  570MOL0     H75225   3.946   9.399   1.032 -1.1578 -2.4065 -0.8446
  570MOL0     H75226   2.692   9.097   1.157  1.4964 -0.7362 -1.6803
  570MOL0     H75227   2.423   9.115   1.114 -2.1129 -1.1697 -1.8710
  570MOL0     H75228   2.077   8.953   0.956  0.5306  1.1690  1.4137
  570MOL0     H75229   1.842   8.935   0.943  2.4825 -1.2942  0.6153
  570MOL0     H75230   1.514   9.189   0.730 -0.3284  0.5267 -0.7619
  570MOL0     H75231   1.644   9.298   0.691 -2.7909  0.8288 -1.3622
  570MOL0     H75232   1.673   9.357   0.932 -0.6449 -0.7480 -1.1030
  570MOL0     H75233   1.515   9.392   0.871 -0.8294 -0.1625  3.8817
  570MOL0     H75234   1.484   9.295   1.086 -2.4963 -1.5520  0.5589
  570MOL0     H75235   1.574   9.143   1.049 -0.2503 -0.5522  1.8818
  570MOL0     H75236   1.396   9.057   0.898  1.0536  0.4686 -0.9931
  570MOL0     H75237   1.347   9.091   1.058 -2.8912 -0.3380 -0.5325
  570MOL0     H75238   1.125   9.392   0.867 -0.4571  0.3572  0.5964
  570MOL0     H75239   1.843   9.316   0.727  0.6524  0.3437  0.1436
  570MOL0     H75240   2.087   9.326   0.759 -0.3102 -0.0762  0.8283
  571MOL0     O75241   8.971  10.542   5.873 -0.1809 -0.7284  0.5080
  571MOL0     C75242   8.995  10.459   5.953  0.1110  1.0589 -0.8445
  571MOL0     O75243   8.936  10.443   6.078 -0.7216 -0.3856  0.0974
  571MOL0     C75244   8.831  10.527   6.106 -0.2962  0.4071 -1.6359
  571MOL0     C75245   8.832  10.594   6.223  0.1379  0.8983 -0.1628
  571MOL0     C75246   8.729  10.682   6.261  0.4342  0.3122  0.1972
  571MOL0     C75247   8.619  10.698   6.173  0.8029 -1.0756 -0.1033
  571MOL0     O75248   8.520  10.785   6.197 -0.4067  0.4925 -0.2649
  571MOL0     C75249   8.496  10.828   6.330 -0.1294  0.5105 -1.3559
  571MOL0     C75250   8.353  10.867   6.351 -0.4819  0.5995  0.0334
  571MOL0     C75251   8.314  10.922   6.486 -0.8352 -0.1769  0.0783
  571MOL0     C75252   8.162  10.947   6.491 -0.2047  0.6466  0.0113
  571MOL0     C75253   8.111  10.955   6.645  0.0836 -0.0583 -0.0442
  571MOL0     C75254   7.968  10.996   6.658 -0.5527 -0.1028 -0.7494
  571MOL0     C75255   7.929  11.098   6.557 -0.2263 -0.2238 -0.7714
  571MOL0     C75256   7.787  11.139   6.596  0.4180  0.3266  0.0478
  571MOL0     N75257   7.668  11.045   6.574 -0.2370 -0.5059 -0.8232
  571MOL0     C75258   7.542  11.065   6.611 -0.8660 -0.2957  0.0248
  571MOL0     C75259   7.467  10.977   6.556  0.3325  1.1356  0.0443
  571MOL0     C75260   7.323  10.968   6.563  0.4398 -0.6960 -1.2603
  571MOL0     C75261   7.277  10.877   6.679  0.2168  0.5281 -0.1131
  571MOL0     C75262   7.130  10.910   6.720 -1.4420  0.5875 -0.0628
  571MOL0     C75263   7.063  10.799   6.801 -0.4163 -0.6424 -0.1591
  571MOL0     O75264   6.935  10.855   6.836  0.1318 -0.1752 -0.1992
  571MOL0     C75265   6.836  10.770   6.818  0.3813 -0.2584  0.0355
  571MOL0     C75266   6.719  10.832   6.773 -0.4467  0.3359 -0.1763
  571MOL0     C75267   6.599  10.768   6.774 -0.5465 -0.1252  0.5793
  571MOL0     C75268   6.588  10.628   6.809 -1.0075 -0.2254  0.3429
  571MOL0     C75269   6.459  10.558   6.785  0.0757 -0.9980  0.0169
  571MOL0     O75270   6.356  10.617   6.709 -0.0937 -0.4701 -0.6366
  571MOL0     C75271   6.233  10.560   6.709  0.5066  0.9302 -0.3444
  571MOL0     C75272   6.165  10.486   6.810 -0.1236 -0.8814  0.8317
  571MOL0     C75273   6.041  10.426   6.774 -0.9507 -0.1581 -0.1487
  571MOL0     C75274   5.970  10.471   6.656  0.6213 -0.5034 -0.8610
  571MOL0     O75275   5.842  10.440   6.624 -0.2856 -0.4688  0.7163
  571MOL0     C75276   5.811  10.304   6.631 -0.2123  0.1506  0.7626
  571MOL0     C75277   5.666  10.298   6.567  0.2784  0.4612  0.3711
  571MOL0     C75278   5.611  10.161   6.592 -0.5479 -0.2828 -0.8909
  571MOL0     C75279   5.482  10.149   6.519 -0.7988 -0.7616  0.4894
  571MOL0     C75280   5.423  10.004   6.514 -0.2068  0.0186  0.7548
  571MOL0     C75281   5.301   9.987   6.425  0.4749  0.0859  0.0032
  571MOL0     C75282   5.181  10.055   6.480 -0.8428 -0.1794 -0.0254
  571MOL0     C75283   5.050  10.002   6.422  0.5993  0.1434 -0.4033
  571MOL0    Cl75284   4.919  10.089   6.504 -0.4143  0.0432  0.0041
  571MOL0     C75285   6.029  10.559   6.574  0.6965  0.7870 -0.5242
  571MOL0     C75286   6.161  10.591   6.592 -0.2488 -0.7475 -0.1945
  571MOL0     O75287   6.450  10.455   6.842  0.1556  0.4266  0.2743
  571MOL0     C75288   6.708  10.569   6.858 -0.5304  0.4304  0.0007
  571MOL0     C75289   6.825  10.644   6.870  0.1307 -0.1428  0.2224
  571MOL0     N75290   7.544  10.900   6.467 -0.1762  0.6387 -0.1382
  571MOL0     N75291   7.661  10.946   6.480 -0.5631  0.5725  0.3955
  571MOL0     C75292   8.617  10.631   6.047  0.4090 -0.3284  0.4409
  571MOL0     C75293   8.721  10.538   6.014  0.6845  0.0345 -0.3066
  571MOL0     C75294   9.112  10.377   5.921  0.3978 -0.5712 -1.4001
  571MOL0     C75295   9.202  10.416   5.817  0.0461  0.0013 -0.2397
  571MOL0     C75296   9.332  10.350   5.803  0.1407  0.2513 -0.3980
  571MOL0     C75297   9.368  10.241   5.888  1.3778 -0.4932 -0.7100
  571MOL0     O75298   9.476  10.166   5.846 -0.6961  0.0314  0.5415
  571MOL0     C75299   9.520  10.061   5.926  0.2480  0.1532  0.8001
  571MOL0     C75300   9.636   9.986   5.858  0.1225  0.6929 -0.2004
  571MOL0     C75301   9.757  10.082   5.847 -0.3216 -0.2221  0.3826
  571MOL0     C75302   9.889  10.010   5.797  0.1530 -0.5583 -0.1796
  571MOL0     C75303  10.003  10.098   5.811  0.0652  0.3804  0.5637
  571MOL0     C75304  10.096  10.176   5.822 -0.1034 -0.5784  0.6185
  571MOL0     C75305   9.274  10.203   5.983  0.0003  0.9304  0.0083
  571MOL0     C75306   9.150  10.269   6.004 -0.1091 -0.3539 -0.0790
  571MOL0     H75307   8.913  10.565   6.289  0.2810 -0.7824 -1.0364
  571MOL0     H75308   8.731  10.729   6.359  0.2762 -1.2048  0.9741
  571MOL0     H75309   8.562  10.912   6.353  0.0973  0.3192 -1.3020
  571MOL0     H75310   8.523  10.747   6.399 -1.0073  1.7724  0.5493
  571MOL0     H75311   8.292  10.777   6.341 -0.2628  0.3517  0.8691
  571MOL0     H75312   8.326  10.940   6.274 -1.1792  1.0440  0.6889
  571MOL0     H75313   8.367  11.016   6.501 -1.3676  0.3121 -0.9823
  571MOL0     H75314   8.351  10.857   6.566 -1.2324  0.6701  0.9713
  571MOL0     H75315   8.136  11.031   6.426 -3.2839  0.0973  0.4042
  571MOL0     H75316   8.111  10.861   6.448 -1.4085  1.9635 -1.3110
  571MOL0     H75317   8.173  11.037   6.685  0.7472 -0.8575  0.5912
  571MOL0     H75318   8.139  10.867   6.703  1.3784  0.8026  0.7061
  571MOL0     H75319   7.947  11.027   6.761 -1.5350 -0.0084 -0.9620
  571MOL0     H75320   7.914  10.903   6.636 -2.1668  0.4972  0.4770
  571MOL0     H75321   7.989  11.190   6.561 -5.1863  3.3650  1.2576
  571MOL0     H75322   7.930  11.062   6.454 -0.1941  0.5334 -1.0437
  571MOL0     H75323   7.761  11.227   6.537 -1.1452  0.1114  0.3754
  571MOL0     H75324   7.785  11.178   6.698  1.7158  0.5216  0.0183
  571MOL0     H75325   7.504  11.142   6.678 -2.7593 -2.6778  1.8920
  571MOL0     H75326   7.277  10.933   6.471  0.8216 -0.1873 -1.6497
  571MOL0     H75327   7.287  11.071   6.578 -1.3215 -1.0850 -2.4661
  571MOL0     H75328   7.345  10.886   6.764 -1.0258 -0.7310  1.0566
  571MOL0     H75329   7.277  10.775   6.639  2.3595 -0.6392  2.5182
  571MOL0     H75330   7.130  11.004   6.777 -0.6197  0.3021  0.4263
  571MOL0     H75331   7.077  10.916   6.625 -1.8854  0.3023  0.1652
  571MOL0     H75332   7.110  10.776   6.896  3.6315  2.6298 -1.0765
  571MOL0     H75333   7.059  10.711   6.736 -1.4421  0.3445 -1.5172
  571MOL0     H75334   6.718  10.938   6.751  2.7781  0.7057  0.8285
  571MOL0     H75335   6.516  10.829   6.740  0.3662  0.5305 -0.5225
  571MOL0     H75336   6.209  10.456   6.904  0.0149 -0.3311  0.9493
  571MOL0     H75337   5.996  10.359   6.847 -0.4431 -0.1975  0.1312
  571MOL0     H75338   5.813  10.274   6.736  0.5492 -2.0756  0.1807
  571MOL0     H75339   5.881  10.235   6.581  0.3892  1.1040  0.2702
  571MOL0     H75340   5.675  10.323   6.461  2.4625  3.4096  1.1389
  571MOL0     H75341   5.601  10.366   6.622 -1.4027 -0.8929  0.1495
  571MOL0     H75342   5.603  10.153   6.701 -0.3103 -0.1976 -0.8645
  571MOL0     H75343   5.688  10.090   6.561  0.0995 -0.1730  0.4009
  571MOL0     H75344   5.409  10.224   6.554  1.7259  2.3758 -0.5353
  571MOL0     H75345   5.503  10.182   6.417 -3.3225  1.4894  0.5759
  571MOL0     H75346   5.408   9.965   6.615  0.5628 -3.5678 -0.3656
  571MOL0     H75347   5.492   9.935   6.465 -0.4722  0.4631 -0.2780
  571MOL0     H75348   5.281   9.879   6.417  1.3081 -0.1772  1.1381
  571MOL0     H75349   5.324  10.022   6.324 -0.2093 -1.3706 -0.6990
  571MOL0     H75350   5.179  10.035   6.588  3.1367 -0.4207  0.1675
  571MOL0     H75351   5.204  10.160   6.456  0.5953 -0.5570 -0.4235
  571MOL0     H75352   5.036   9.894   6.436  1.5855 -0.0174 -0.5883
  571MOL0     H75353   5.051  10.017   6.313 -0.0253  0.3540 -0.3851
  571MOL0     H75354   5.969  10.609   6.498 -0.8302 -2.4180 -1.6038
  571MOL0     H75355   6.203  10.658   6.519 -1.0162 -0.8135 -0.7071
  571MOL0     H75356   6.708  10.464   6.888  1.4143  0.9617  2.1549
  571MOL0     H75357   6.913  10.605   6.920 -0.4563 -0.1214  1.3071
  571MOL0     H75358   8.528  10.653   5.989  0.4440  1.9417  1.1578
  571MOL0     H75359   8.709  10.477   5.924 -1.1544 -1.2848  0.7577
  571MOL0     H75360   9.164  10.489   5.746 -2.2552 -0.1173  0.7767
  571MOL0     H75361   9.401  10.371   5.722  0.4246 -4.0991 -1.5727
  571MOL0     H75362   9.438   9.990   5.940  0.6259 -0.0561  2.0576
  571MOL0     H75363   9.548  10.109   6.020  1.8187  0.9268 -0.0252
  571MOL0     H75364   9.668   9.896   5.911  1.1354  0.1885 -1.5918
  571MOL0     H75365   9.611   9.956   5.756  0.0614 -0.6470  0.1952
  571MOL0     H75366   9.764  10.130   5.946 -0.2326 -0.1473  0.3400
  571MOL0     H75367   9.735  10.157   5.770  1.5567 -0.4022 -0.3788
  571MOL0     H75368   9.899   9.917   5.852 -0.7201  0.3042  1.5047
  571MOL0     H75369   9.879   9.993   5.689 -1.9697  2.7906 -0.6757
  571MOL0     H75370  10.174  10.239   5.859 -0.7914  2.3561 -2.3888
  571MOL0     H75371   9.299  10.127   6.057 -3.5329 -0.5840 -0.1599
  571MOL0     H75372   9.087  10.226   6.081  0.8067 -0.5648  0.5782
  572MOL0     O75373   7.152   9.646   3.246 -0.5797 -0.4715  0.1334
  572MOL0     C75374   7.136   9.541   3.177 -0.7621  0.2267 -0.2063
  572MOL0     O75375   7.012   9.483   3.160 -0.3350  0.7994 -0.4801
  572MOL0     C75376   6.912   9.518   3.240 -0.0063  0.2971 -1.0326
  572MOL0     C75377   6.869   9.449   3.355  0.1754 -0.5705  0.1530
  572MOL0     C75378   6.764   9.492   3.432 -0.4727 -0.4544  0.1787
  572MOL0     C75379   6.681   9.598   3.401  0.4970  1.1640 -0.2078
  572MOL0     O75380   6.566   9.640   3.465  0.1753  0.8274  0.1324
  572MOL0     C75381   6.493   9.533   3.520  0.8577  0.2360 -1.4558
  572MOL0     C75382   6.359   9.583   3.574  1.0022 -0.4066 -0.4467
  572MOL0     C75383   6.248   9.473   3.613 -0.3176 -0.3997  1.2192
  572MOL0     C75384   6.122   9.552   3.648  0.1945  0.5089 -0.5363
  572MOL0     C75385   6.132   9.629   3.779  0.5934 -0.2627 -1.2189
  572MOL0     C75386   5.986   9.656   3.840 -0.1427  0.3245  0.0180
  572MOL0     C75387   5.982   9.721   3.984 -0.2126  0.0488 -0.2376
  572MOL0     C75388   5.840   9.746   4.042  0.4201  0.2591  0.7551
  572MOL0     N75389   5.761   9.839   3.953 -0.1668  0.1405  1.1420
  572MOL0     C75390   5.630   9.821   3.931  0.2007  0.0534 -0.5497
  572MOL0     C75391   5.590   9.905   3.842  0.0009 -0.1523  0.1209
  572MOL0     C75392   5.455   9.910   3.765 -0.4504 -0.0929  0.9577
  572MOL0     C75393   5.352   9.976   3.850  0.0390  0.0754  0.1157
  572MOL0     C75394   5.224   9.990   3.760  0.3643  0.3213 -0.3345
  572MOL0     C75395   5.097  10.034   3.837 -0.3117 -0.1390 -0.7359
  572MOL0     O75396   4.981  10.020   3.747  0.4085  0.5994 -0.2822
  572MOL0     C75397   4.856  10.052   3.802  0.6252 -0.0004 -0.4491
  572MOL0     C75398   4.746  10.036   3.721  0.6744  0.0097  0.8939
  572MOL0     C75399   4.615  10.065   3.757  0.8043 -0.2080 -0.5787
  572MOL0     C75400   4.591  10.104   3.885 -0.6660  0.5800  0.9918
  572MOL0     C75401   4.455  10.090   3.938 -1.2206 -0.0042  0.4708
  572MOL0     O75402   4.349  10.070   3.856 -0.0147 -0.0672 -0.5771
  572MOL0     C75403   4.222  10.034   3.900 -0.6895 -0.0412 -1.0487
  572MOL0     C75404   4.192   9.957   4.015 -0.1825 -0.5583 -0.6487
  572MOL0     C75405   4.062   9.924   4.039  0.5570 -0.5556 -0.2057
  572MOL0     C75406   3.955   9.966   3.964  0.0973  0.4333  1.4161
  572MOL0     O75407   3.837   9.905   4.002 -0.4357  0.1406  0.9417
  572MOL0     C75408   3.712   9.906   3.930  0.2182 -0.1722  0.5538
  572MOL0     C75409   3.695   9.775   3.850  0.0137  0.1936  0.1526
  572MOL0     C75410   3.580   9.697   3.892  1.6422  0.1065 -0.0237
  572MOL0     C75411   3.558   9.567   3.811  0.9243  0.2457 -0.0043
  572MOL0     C75412   3.426   9.506   3.845 -0.3507  0.5860 -0.3846
  572MOL0     C75413   3.414   9.374   3.777 -0.1313  0.0292  0.2534
  572MOL0     C75414   3.310   9.278   3.830  0.4564  0.2570  0.3375
  572MOL0     C75415   3.364   9.207   3.959  0.3204  0.2051 -0.3570
  572MOL0    Cl75416   3.491   9.089   3.907 -0.0827  0.0338 -0.1322
  572MOL0     C75417   3.981  10.036   3.842  0.1342 -0.0045 -0.4559
  572MOL0     C75418   4.114  10.067   3.810 -0.1000  1.0977  0.2503
  572MOL0     O75419   4.443  10.110   4.059 -0.0167  0.0855  0.0401
  572MOL0     C75420   4.705  10.122   3.969  0.2769 -0.3442  0.2810
  572MOL0     C75421   4.832  10.095   3.937 -0.2565  0.1376  0.5755
  572MOL0     N75422   5.700   9.992   3.812 -0.3039  0.4928 -0.5703
  572MOL0     N75423   5.800   9.950   3.882 -0.9830 -0.0393 -0.0252
  572MOL0     C75424   6.726   9.668   3.291  0.1994  0.2565  0.7669
  572MOL0     C75425   6.831   9.628   3.213 -0.0554  0.2474 -0.0436
  572MOL0     C75426   7.262   9.479   3.123  0.3052 -0.6898  0.7272
  572MOL0     C75427   7.391   9.528   3.149 -0.7634 -0.2125 -0.8355
  572MOL0     C75428   7.501   9.462   3.097 -0.2046  0.2600  0.2290
  572MOL0     C75429   7.485   9.357   3.004 -0.3380 -0.1088 -0.2468
  572MOL0     O75430   7.582   9.291   2.932  0.2573  0.0769 -0.4735
  572MOL0     C75431   7.710   9.335   2.960  1.0653  0.1628  0.7195
  572MOL0     C75432   7.800   9.266   2.864 -0.0304  0.0026  1.4678
  572MOL0     C75433   7.943   9.267   2.902 -0.2731 -0.5609  0.5758
  572MOL0     C75434   8.036   9.222   2.789  0.2879 -0.6601  0.1282
  572MOL0     C75435   8.154   9.303   2.792 -0.0820  1.1887 -0.8171
  572MOL0     C75436   8.252   9.375   2.801 -0.0878 -0.4625  0.5253
  572MOL0     C75437   7.358   9.310   2.977  0.2609 -0.1269  0.6329
  572MOL0     C75438   7.251   9.367   3.039 -0.5342  0.0255 -0.8964
  572MOL0     H75439   6.926   9.366   3.396 -0.7368  0.3236  3.5685
  572MOL0     H75440   6.750   9.434   3.523  0.4011 -1.3728 -0.2562
  572MOL0     H75441   6.560   9.501   3.600 -0.8317 -1.3787 -0.6145
  572MOL0     H75442   6.478   9.448   3.452  0.0134 -1.2558  0.4770
  572MOL0     H75443   6.312   9.649   3.500  0.1057 -0.7725 -0.2133
  572MOL0     H75444   6.383   9.645   3.661  2.2952  1.5814 -2.1040
  572MOL0     H75445   6.286   9.409   3.693  2.0734  0.5830  0.9379
  572MOL0     H75446   6.241   9.405   3.528  1.1161  3.6282 -2.5051
  572MOL0     H75447   6.103   9.619   3.564 -0.3452 -2.8631 -3.3321
  572MOL0     H75448   6.047   9.472   3.658  0.3657  0.5310  1.1988
  572MOL0     H75449   6.181   9.726   3.771  0.5515 -0.1374 -0.0882
  572MOL0     H75450   6.175   9.570   3.860 -0.7248  0.4641  0.0711
  572MOL0     H75451   5.923   9.567   3.840 -0.1829  0.3332 -1.5987
  572MOL0     H75452   5.940   9.725   3.769  0.9674 -3.0653 -4.3838
  572MOL0     H75453   6.036   9.653   4.051 -1.6667 -1.7210 -0.7810
  572MOL0     H75454   6.033   9.818   3.990  1.0300 -0.6679  2.3503
  572MOL0     H75455   5.848   9.794   4.141  0.0726  0.9000  0.4832
  572MOL0     H75456   5.798   9.646   4.056  0.0763  0.4849  1.4284
  572MOL0     H75457   5.578   9.736   3.975  1.6250 -1.0011 -0.8176
  572MOL0     H75458   5.423   9.808   3.740 -2.2121  0.9796 -1.6162
  572MOL0     H75459   5.459   9.968   3.672 -3.4118 -0.9064  0.2291
  572MOL0     H75460   5.394  10.073   3.875  0.9911 -0.3435  0.1715
  572MOL0     H75461   5.335   9.918   3.941 -0.7558  1.6759  1.0396
  572MOL0     H75462   5.246  10.056   3.676 -2.7529  1.4091 -0.4230
  572MOL0     H75463   5.196   9.891   3.724 -1.1306  0.4726  0.3330
  572MOL0     H75464   5.122  10.137   3.864 -0.6395  0.2291 -1.7913
  572MOL0     H75465   5.086   9.976   3.929 -1.6101  1.4890  0.1813
  572MOL0     H75466   4.759  10.004   3.618 -1.3946  0.1141  0.5591
  572MOL0     H75467   4.526  10.040   3.698  0.4105 -1.5538  0.5317
  572MOL0     H75468   4.270   9.919   4.080 -2.7773 -1.2243  2.3030
  572MOL0     H75469   4.028   9.862   4.122 -0.8028 -1.6486 -1.5192
  572MOL0     H75470   3.710   9.988   3.857  1.0660  0.5431  1.3138
  572MOL0     H75471   3.631   9.920   4.002 -1.1953  2.0251 -1.3423
  572MOL0     H75472   3.782   9.709   3.852 -0.4463 -0.4214  0.2989
  572MOL0     H75473   3.679   9.798   3.745  1.9384  0.5242 -0.1099
  572MOL0     H75474   3.497   9.767   3.885 -0.5543 -2.2051  1.0688
  572MOL0     H75475   3.585   9.678   4.000 -1.4194  2.8843  0.7523
  572MOL0     H75476   3.563   9.587   3.704 -3.0654 -3.4733 -1.1539
  572MOL0     H75477   3.634   9.491   3.829 -0.0835 -0.2748  2.4884
  572MOL0     H75478   3.337   9.563   3.817 -0.5654  1.9137  2.5499
  572MOL0     H75479   3.424   9.495   3.954  2.5124  0.0148 -0.3100
  572MOL0     H75480   3.513   9.326   3.784 -1.1805 -2.5737 -1.2282
  572MOL0     H75481   3.391   9.385   3.671  0.4063 -0.5229  0.0705
  572MOL0     H75482   3.213   9.324   3.852 -0.3774 -1.1345 -0.2661
  572MOL0     H75483   3.288   9.205   3.752  0.3583 -3.1250  3.2852
  572MOL0     H75484   3.280   9.154   4.005 -0.1817  1.9117  0.7660
  572MOL0     H75485   3.410   9.280   4.026  0.7735 -1.2769  0.9979
  572MOL0     H75486   3.901  10.070   3.777 -0.3115 -1.4354 -0.6787
  572MOL0     H75487   4.137  10.120   3.718 -1.0404  0.4790 -0.3523
  572MOL0     H75488   4.680  10.147   4.072 -0.7705  2.6123 -0.5934
  572MOL0     H75489   4.912  10.098   4.010  0.3122  0.0743 -0.0428
  572MOL0     H75490   6.659   9.748   3.262  0.2741 -0.1300 -0.5235
  572MOL0     H75491   6.849   9.683   3.121  0.7771 -0.4977 -0.3467
  572MOL0     H75492   7.407   9.611   3.216 -0.8678  0.4594 -1.6243
  572MOL0     H75493   7.599   9.503   3.121  0.6178 -1.6401  0.2305
  572MOL0     H75494   7.750   9.300   3.056 -0.3169 -0.1275  1.2026
  572MOL0     H75495   7.716   9.443   2.946  1.4584 -0.1594 -2.1361
  572MOL0     H75496   7.759   9.169   2.838  1.8943  0.2067 -3.5423
  572MOL0     H75497   7.785   9.311   2.765  0.6622 -1.3691  0.7081
  572MOL0     H75498   7.957   9.202   2.989  0.5909 -1.4255 -0.1845
  572MOL0     H75499   7.957   9.371   2.933  1.8615 -0.6678  0.1411
  572MOL0     H75500   8.055   9.116   2.806 -1.2216 -0.6372  2.3300
  572MOL0     H75501   7.988   9.223   2.691  1.7057  0.3455 -0.5913
  572MOL0     H75502   8.331   9.447   2.806  1.2237 -1.7823 -0.3317
  572MOL0     H75503   7.342   9.220   2.920 -0.8940 -1.0015  2.2521
  572MOL0     H75504   7.159   9.314   3.018  0.4983 -2.0085 -0.5563
  573MOL0     O75505   7.233   1.404   0.527  0.1140 -0.0431  0.4632
  573MOL0     C75506   7.257   1.420   0.409  0.2068  0.8957  0.6937
  573MOL0     O75507   7.176   1.481   0.314 -0.1224  0.4781 -0.0930
  573MOL0     C75508   7.049   1.530   0.329  1.1121 -0.0106  0.3267
  573MOL0     C75509   7.002   1.597   0.217  1.3289 -0.8625 -0.0936
  573MOL0     C75510   6.867   1.652   0.225 -0.7087 -0.0811 -0.4000
  573MOL0     C75511   6.789   1.655   0.340  0.0412  0.2374  0.1535
  573MOL0     O75512   6.667   1.715   0.363  0.0904 -0.4574  0.2771
  573MOL0     C75513   6.591   1.754   0.242  0.2075 -0.5680 -0.4282
  573MOL0     C75514   6.506   1.870   0.277 -0.1221 -0.0127 -0.4425
  573MOL0     C75515   6.393   1.816   0.371  0.3966  0.5854  0.4877
  573MOL0     C75516   6.332   1.928   0.444 -0.5079  0.1561 -0.2664
  573MOL0     C75517   6.222   2.008   0.370  0.4967 -0.2103 -0.0088
  573MOL0     C75518   6.159   2.110   0.465 -0.1751 -0.8692 -0.4514
  573MOL0     C75519   6.011   2.150   0.420  0.2182  0.0206 -0.7562
  573MOL0     C75520   6.020   2.240   0.296 -0.2076  0.3391  0.5210
  573MOL0     N75521   5.896   2.310   0.246  0.8138  0.6741  0.1735
  573MOL0     C75522   5.812   2.260   0.148 -0.2905  0.1599 -0.4729
  573MOL0     C75523   5.717   2.355   0.134  0.4296 -0.8154 -0.8672
  573MOL0     C75524   5.593   2.363   0.044 -0.2754  0.0634  0.0102
  573MOL0     C75525   5.469   2.328   0.123  0.1065  0.2572  0.5036
  573MOL0     C75526   5.342   2.370   0.046 -0.2219  0.1923 -0.2065
  573MOL0     C75527   5.207   2.334   0.111  0.3266  0.1119 -0.0115
  573MOL0     O75528   5.105   2.332   0.017 -0.4820 -0.7156 -0.4692
  573MOL0     C75529   4.977   2.352   0.061  0.5668  0.1782  0.6497
  573MOL0     C75530   4.939   2.350   0.201  1.2356 -0.4035 -0.1949
  573MOL0     C75531   4.808   2.378   0.241 -0.0623  0.3046  0.3087
  573MOL0     C75532   4.708   2.395   0.149 -0.5453 -1.0045  0.3426
  573MOL0     C75533   4.569   2.412   0.182 -0.7405 -0.4108 -0.1564
  573MOL0     O75534   4.530   2.373   0.307 -0.1151 -0.3294  0.2995
  573MOL0     C75535   4.393   2.352   0.323  0.0316  0.9139 -0.2568
  573MOL0     C75536   4.324   2.235   0.279 -0.2175  0.9609  0.2033
  573MOL0     C75537   4.202   2.208   0.333  0.3426 -0.3310  0.0659
  573MOL0     C75538   4.136   2.289   0.415 -0.0564  0.3906 -0.1977
  573MOL0     O75539   4.005   2.264   0.457 -0.8599 -0.1478  0.3523
  573MOL0     C75540   3.917   2.220   0.353 -0.7271  0.0782 -0.1442
  573MOL0     C75541   3.774   2.265   0.381  0.0170  0.3743  0.0914
  573MOL0     C75542   3.676   2.217   0.263 -0.5379  1.1969  0.2723
  573MOL0     C75543   3.538   2.279   0.266  0.5237  0.5738  0.6305
  573MOL0     C75544   3.466   2.237   0.394 -0.2258  0.0719  0.9649
  573MOL0     C75545   3.437   2.087   0.418  1.1181 -0.2547  0.5756
  573MOL0     C75546   3.306   2.045   0.486 -0.2511  0.3689  0.5177
  573MOL0     C75547   3.172   2.111   0.447 -0.6655 -0.1113 -0.1983
  573MOL0    Cl75548   3.167   2.146   0.269 -0.1356  0.2507 -0.0238
  573MOL0     C75549   4.195   2.408   0.447 -0.3950 -0.7241  0.5385
  573MOL0     C75550   4.322   2.443   0.411 -1.0142  0.1896 -0.3843
  573MOL0     O75551   4.493   2.456   0.099  0.0923  0.0588 -0.7567
  573MOL0     C75552   4.752   2.405   0.009  0.5364 -0.5340 -0.2182
  573MOL0     C75553   4.880   2.387  -0.033 -0.0485  0.8642 -0.3169
  573MOL0     N75554   5.755   2.457   0.224 -0.1010 -1.2133  0.6919
  573MOL0     N75555   5.858   2.431   0.286 -0.4000 -0.2538 -0.4464
  573MOL0     C75556   6.849   1.595   0.449  0.6378 -0.4120 -0.2170
  573MOL0     C75557   6.971   1.527   0.445  0.0570 -0.3073  0.2470
  573MOL0     C75558   7.384   1.353   0.359 -0.3721 -1.1519 -0.2911
  573MOL0     C75559   7.454   1.379   0.239  0.9608  0.1241 -0.0886
  573MOL0     C75560   7.581   1.327   0.209 -0.1239 -0.4450  0.5372
  573MOL0     C75561   7.640   1.231   0.300 -0.1738  1.2633 -0.1018
  573MOL0     O75562   7.767   1.190   0.267 -0.0962 -0.0791 -0.8515
  573MOL0     C75563   7.836   1.125   0.366 -1.0196  0.1203 -0.6136
  573MOL0     C75564   7.985   1.117   0.329 -0.5439 -0.9749 -0.4535
  573MOL0     C75565   8.077   1.072   0.450 -0.3112  0.0272  0.3191
  573MOL0     C75566   8.233   1.048   0.416  0.5596 -0.9090 -0.1772
  573MOL0     C75567   8.260   0.991   0.283  0.3658 -0.5626  0.5825
  573MOL0     C75568   8.281   0.937   0.178  0.3344  0.4874  0.6835
  573MOL0     C75569   7.564   1.196   0.412  0.0646  0.2742  0.2005
  573MOL0     C75570   7.447   1.263   0.447 -0.1468  0.4953 -0.0118
  573MOL0     H75571   7.057   1.607   0.123 -0.5343  1.1716 -1.0734
  573MOL0     H75572   6.828   1.694   0.133  1.3020 -3.4484 -3.0121
  573MOL0     H75573   6.543   1.665   0.201  0.5597 -0.7364 -0.4788
  573MOL0     H75574   6.665   1.796   0.173  1.0779 -2.0654 -0.4412
  573MOL0     H75575   6.459   1.917   0.190  1.7411  0.0509 -1.4940
  573MOL0     H75576   6.569   1.950   0.317  1.4056 -1.6190  0.5296
  573MOL0     H75577   6.440   1.749   0.443  2.0011  2.1076  0.9241
  573MOL0     H75578   6.311   1.764   0.318 -0.4248  1.2572  1.0704
  573MOL0     H75579   6.290   1.886   0.535  0.9793  1.6149  1.1563
  573MOL0     H75580   6.409   1.999   0.473 -0.0086 -0.2245 -0.6442
  573MOL0     H75581   6.145   1.940   0.333 -1.9557  2.9679 -1.2547
  573MOL0     H75582   6.254   2.061   0.279 -1.6278  0.7820 -0.2337
  573MOL0     H75583   6.222   2.198   0.478 -0.9634 -0.2278 -0.8371
  573MOL0     H75584   6.149   2.066   0.565 -0.0831  1.0843  0.4695
  573MOL0     H75585   5.940   2.070   0.399  0.9506 -0.3447 -1.9289
  573MOL0     H75586   5.968   2.208   0.502  1.9453  0.1753  0.0896
  573MOL0     H75587   6.058   2.170   0.222 -1.1939 -1.4721  1.6588
  573MOL0     H75588   6.092   2.319   0.317  0.9759 -0.1058 -1.6197
  573MOL0     H75589   5.819   2.163   0.099  1.4762 -1.1739  2.1868
  573MOL0     H75590   5.608   2.294  -0.039  1.8847  0.0891  0.3291
  573MOL0     H75591   5.591   2.466   0.007  1.2982 -0.1524 -0.7207
  573MOL0     H75592   5.464   2.374   0.222 -1.1025 -1.5320  1.3371
  573MOL0     H75593   5.472   2.219   0.131  0.7309  0.2159 -0.2296
  573MOL0     H75594   5.352   2.473   0.010  0.4964  0.0743 -0.3549
  573MOL0     H75595   5.356   2.305  -0.040  0.7049 -0.3655  0.3435
  573MOL0     H75596   5.196   2.414   0.185 -0.4318  1.4987 -1.5641
  573MOL0     H75597   5.223   2.246   0.173 -0.4978  0.2146  0.3658
  573MOL0     H75598   5.005   2.324   0.283  0.3453 -0.5673  0.4905
  573MOL0     H75599   4.784   2.367   0.346  1.8732  1.9846  0.9875
  573MOL0     H75600   4.381   2.168   0.216  1.4893  1.1427  1.4679
  573MOL0     H75601   4.156   2.110   0.321 -0.9303  0.2745 -0.1671
  573MOL0     H75602   3.918   2.112   0.337  1.2092  0.1344 -0.6439
  573MOL0     H75603   3.942   2.274   0.261 -1.1269 -1.6031 -1.2885
  573MOL0     H75604   3.768   2.375   0.382 -2.4214  0.3038  0.1899
  573MOL0     H75605   3.740   2.235   0.480 -0.5614  1.4215  0.2277
  573MOL0     H75606   3.665   2.109   0.255 -1.8021  1.3778 -0.9485
  573MOL0     H75607   3.724   2.236   0.167  1.3764  0.4854  1.0547
  573MOL0     H75608   3.530   2.388   0.260 -0.3051  0.5328  0.8091
  573MOL0     H75609   3.484   2.234   0.182 -0.3262  0.5898  1.1597
  573MOL0     H75610   3.370   2.291   0.392 -0.9015 -1.0758 -0.8883
  573MOL0     H75611   3.523   2.278   0.477  0.4951  0.5994  0.2209
  573MOL0     H75612   3.511   2.057   0.493 -1.0282  0.8185  3.2774
  573MOL0     H75613   3.433   2.026   0.327 -2.4383  0.3451  0.2041
  573MOL0     H75614   3.293   1.937   0.473  1.6108 -0.2081  2.8930
  573MOL0     H75615   3.324   2.058   0.593  2.0911 -0.6955  0.3061
  573MOL0     H75616   3.158   2.205   0.501  1.3643  1.4288 -2.1718
  573MOL0     H75617   3.097   2.035   0.469 -0.1484 -1.7191 -3.3593
  573MOL0     H75618   4.132   2.472   0.508 -1.1268  1.8033 -2.5281
  573MOL0     H75619   4.373   2.535   0.442  2.7610 -1.4795 -1.0409
  573MOL0     H75620   4.683   2.440  -0.067 -0.8362  1.8656  1.9564
  573MOL0     H75621   4.903   2.381  -0.139  0.2809 -0.3741 -0.1883
  573MOL0     H75622   6.799   1.587   0.545 -0.1540 -3.4719 -0.7747
  573MOL0     H75623   6.999   1.462   0.527 -1.4425  1.6493  2.4487
  573MOL0     H75624   7.402   1.453   0.178 -0.8139 -0.1000  1.0585
  573MOL0     H75625   7.630   1.345   0.114 -1.4676  0.8596  0.0466
  573MOL0     H75626   7.794   1.030   0.400  1.1976 -0.1321  1.6966
  573MOL0     H75627   7.839   1.190   0.454 -1.0417 -1.0123  0.2533
  573MOL0     H75628   7.999   1.062   0.235  0.0531 -2.9764  0.7543
  573MOL0     H75629   8.021   1.216   0.297  0.7680 -1.7234 -1.4288
  573MOL0     H75630   8.031   0.982   0.493  0.1887 -0.3763  0.0290
  573MOL0     H75631   8.087   1.154   0.521  0.3488  1.6867 -1.6128
  573MOL0     H75632   8.299   1.136   0.422  0.5076 -0.5940 -2.7386
  573MOL0     H75633   8.263   0.979   0.495  0.2939 -2.3434 -1.2782
  573MOL0     H75634   8.283   0.887   0.083 -0.9352 -0.9685  1.3853
  573MOL0     H75635   7.611   1.133   0.487  0.3385  0.9700  0.6298
  573MOL0     H75636   7.399   1.234   0.540 -0.7350 -1.5915 -0.8889
  574MOL0     O75637   7.205   2.944   0.057 -0.4931  0.5136  0.3859
  574MOL0     C75638   7.203   2.844   0.126 -0.1514 -0.0844 -0.2829
  574MOL0     O75639   7.121   2.824   0.232  0.2894  0.5737 -0.0006
  574MOL0     C75640   7.041   2.934   0.267 -0.1352  0.4565  1.0190
  574MOL0     C75641   6.922   2.962   0.198 -0.8712  0.3556  0.2374
  574MOL0     C75642   6.848   3.070   0.238  0.0328 -0.6337 -0.7258
  574MOL0     C75643   6.881   3.150   0.347  0.1764  0.6211 -0.4124
  574MOL0     O75644   6.802   3.257   0.385 -0.2797  0.1272  0.2437
  574MOL0     C75645   6.664   3.255   0.344  0.5332 -0.8135  0.6030
  574MOL0     C75646   6.602   3.373   0.416  0.3459  0.0902  0.1546
  574MOL0     C75647   6.455   3.389   0.395  1.1773 -0.7472 -0.6956
  574MOL0     C75648   6.398   3.518   0.467 -0.2902  0.4973  0.2214
  574MOL0     C75649   6.281   3.461   0.557 -0.3564  0.3123 -0.5302
  574MOL0     C75650   6.199   3.580   0.602 -0.3472 -0.1167  0.7612
  574MOL0     C75651   6.075   3.579   0.520 -0.6278 -0.0588 -0.3311
  574MOL0     C75652   5.998   3.714   0.520 -0.5546  0.1581  0.2913
  574MOL0     N75653   5.944   3.741   0.656 -0.4239 -0.5520 -0.4837
  574MOL0     C75654   5.837   3.670   0.712 -0.1895  0.1183 -0.1634
  574MOL0     C75655   5.803   3.735   0.826 -0.2509  0.3488 -0.0699
  574MOL0     C75656   5.702   3.678   0.931  0.2614 -0.2803 -0.1574
  574MOL0     C75657   5.555   3.664   0.878  0.1024 -0.3316 -0.6562
  574MOL0     C75658   5.516   3.809   0.825  0.0030  0.3117 -0.7231
  574MOL0     C75659   5.365   3.820   0.790  0.3170  0.1934 -0.2317
  574MOL0     O75660   5.336   3.953   0.735 -0.3196 -0.2146 -0.5652
  574MOL0     C75661   5.214   3.969   0.676  0.1635 -1.0637 -0.3511
  574MOL0     C75662   5.100   3.884   0.694 -0.4679  0.2722  0.3353
  574MOL0     C75663   4.980   3.915   0.621 -0.7835  0.2173 -0.6624
  574MOL0     C75664   4.963   4.044   0.556  0.1335  1.0972  0.6826
  574MOL0     C75665   4.830   4.074   0.491 -0.7043  0.3056 -0.0072
  574MOL0     O75666   4.712   4.019   0.539 -0.7173  0.2857 -0.0467
  574MOL0     C75667   4.609   4.035   0.455  0.5481  0.1975 -0.4864
  574MOL0     C75668   4.544   4.153   0.451 -0.0669  0.1394 -0.5075
  574MOL0     C75669   4.427   4.165   0.378  0.5216 -0.0971  0.4992
  574MOL0     C75670   4.375   4.052   0.310 -0.0028 -0.0013 -0.1917
  574MOL0     O75671   4.251   4.075   0.263 -0.3845 -0.6224  0.3140
  574MOL0     C75672   4.160   3.967   0.275  0.2775  0.1449  0.4959
  574MOL0     C75673   4.020   4.008   0.256  0.0513  0.2483  0.3441
  574MOL0     C75674   3.957   3.978   0.121 -0.6492  0.5039 -0.0389
  574MOL0     C75675   3.812   4.017   0.129 -0.0634 -0.4011 -0.0619
  574MOL0     C75676   3.730   4.013  -0.001  0.2392 -0.4784  0.0695
  574MOL0     C75677   3.657   3.879  -0.041  0.0442 -0.7597 -0.0888
  574MOL0     C75678   3.531   3.855   0.047 -0.6409 -0.1690 -0.9971
  574MOL0     C75679   3.443   3.734   0.006  0.0485 -0.4662  0.0944
  574MOL0    Cl75680   3.527   3.575   0.011  0.6048  0.1770  0.1039
  574MOL0     C75681   4.445   3.933   0.309 -0.3427  0.3063  0.4409
  574MOL0     C75682   4.567   3.928   0.379 -0.9417  0.7908 -0.1899
  574MOL0     O75683   4.845   4.140   0.391  0.1041  0.5059  0.4050
  574MOL0     C75684   5.074   4.130   0.552 -0.2271 -0.4846 -0.9249
  574MOL0     C75685   5.200   4.093   0.618  0.3615 -0.5001  0.3770
  574MOL0     N75686   5.862   3.859   0.824  0.0679  0.2891  0.1415
  574MOL0     N75687   5.948   3.858   0.722  0.1195  0.1970 -0.8936
  574MOL0     C75688   7.005   3.132   0.401 -0.4528 -0.9273 -0.3771
  574MOL0     C75689   7.084   3.022   0.363 -0.3024 -1.4998 -0.7298
  574MOL0     C75690   7.287   2.724   0.088  0.8304 -0.0294 -0.5352
  574MOL0     C75691   7.401   2.734   0.017 -0.8154  0.0698  1.1219
  574MOL0     C75692   7.476   2.620  -0.018 -0.6264 -0.0583 -0.0181
  574MOL0     C75693   7.429   2.489   0.012 -0.3358 -0.2372  0.4123
  574MOL0     O75694   7.488   2.373  -0.039  0.8730 -0.0929 -0.5829
  574MOL0     C75695   7.608   2.372  -0.119  0.5709  0.0333  0.7175
  574MOL0     C75696   7.677   2.237  -0.145  0.2635 -0.1321  0.7539
  574MOL0     C75697   7.825   2.266  -0.192  0.3468 -0.2305 -0.2083
  574MOL0     C75698   7.914   2.146  -0.221 -0.4436  0.2200 -0.0545
  574MOL0     C75699   8.049   2.184  -0.264  0.4427  0.0349  0.5245
  574MOL0     C75700   8.165   2.216  -0.283 -0.2708  0.4375  0.6240
  574MOL0     C75701   7.308   2.483   0.080  0.1859  0.3576 -0.2647
  574MOL0     C75702   7.237   2.598   0.130 -0.7991  1.0521  0.4685
  574MOL0     H75703   6.900   2.911   0.106  4.2115 -1.1702 -0.4741
  574MOL0     H75704   6.755   3.084   0.184 -0.2070  2.9734  0.3278
  574MOL0     H75705   6.603   3.167   0.369 -1.6332  1.1056  2.5420
  574MOL0     H75706   6.656   3.264   0.235 -1.0015  0.9195  0.8043
  574MOL0     H75707   6.653   3.463   0.383 -0.6579  1.1596  1.4089
  574MOL0     H75708   6.614   3.372   0.525 -2.0764  1.1669  0.4898
  574MOL0     H75709   6.403   3.300   0.433 -0.7523  0.7567  0.4517
  574MOL0     H75710   6.418   3.402   0.293  1.8311  2.7261 -0.6193
  574MOL0     H75711   6.478   3.560   0.529  2.2157 -2.1646 -0.9365
  574MOL0     H75712   6.372   3.590   0.389  0.7628 -0.6085 -1.2181
  574MOL0     H75713   6.332   3.418   0.643 -2.0812 -0.2761  0.2547
  574MOL0     H75714   6.217   3.383   0.514 -0.2165  0.3026 -0.7243
  574MOL0     H75715   6.260   3.670   0.614 -0.3311  0.0786 -0.6951
  574MOL0     H75716   6.157   3.557   0.701 -3.2808 -1.6322 -0.7189
  574MOL0     H75717   6.112   3.569   0.417  0.1878  0.7512 -0.1272
  574MOL0     H75718   6.014   3.494   0.551  3.4379 -2.2175  2.6588
  574MOL0     H75719   5.917   3.708   0.447  1.6637 -0.8335 -2.2861
  574MOL0     H75720   6.065   3.796   0.492  0.9789 -0.5764  1.5794
  574MOL0     H75721   5.798   3.574   0.681  1.9101 -0.5930 -0.7769
  574MOL0     H75722   5.716   3.735   1.023  4.6633 -0.4785 -0.4885
  574MOL0     H75723   5.721   3.572   0.946 -4.1754 -1.1615  0.8026
  574MOL0     H75724   5.484   3.634   0.956  0.9062 -2.6822 -0.7801
  574MOL0     H75725   5.548   3.599   0.790  0.7811  1.0169 -1.7453
  574MOL0     H75726   5.541   3.884   0.901  1.7030  2.1465 -2.9538
  574MOL0     H75727   5.574   3.832   0.736  0.7835  0.9578 -0.0624
  574MOL0     H75728   5.293   3.787   0.866 -1.1561  2.7882 -0.3898
  574MOL0     H75729   5.345   3.754   0.705  0.7534  1.1666 -1.1057
  574MOL0     H75730   5.092   3.791   0.749  0.9804 -0.8229 -1.1873
  574MOL0     H75731   4.900   3.843   0.629 -0.2328 -0.5143 -1.5091
  574MOL0     H75732   4.587   4.239   0.501 -3.1052  0.2361  2.2593
  574MOL0     H75733   4.363   4.252   0.390  0.0640 -0.3450 -0.0928
  574MOL0     H75734   4.159   3.941   0.381  2.6054  3.4587  1.4905
  574MOL0     H75735   4.188   3.881   0.213  1.1286  0.2256  0.7544
  574MOL0     H75736   4.022   4.115   0.279 -1.3575 -0.3160  3.5903
  574MOL0     H75737   3.968   3.957   0.337 -0.2571 -0.2886 -0.1807
  574MOL0     H75738   3.956   3.870   0.104  0.4300  0.5905 -0.6782
  574MOL0     H75739   4.003   4.027   0.035 -0.5200 -0.2615 -0.4059
  574MOL0     H75740   3.756   3.958   0.203 -0.8519 -1.0033 -1.1051
  574MOL0     H75741   3.815   4.121   0.163  1.4328 -0.8844  1.4139
  574MOL0     H75742   3.795   4.038  -0.085 -0.1332  0.7461  0.1212
  574MOL0     H75743   3.653   4.090   0.017 -0.1691 -1.0821  0.9602
  574MOL0     H75744   3.728   3.796  -0.044  1.1541  0.0733  1.7192
  574MOL0     H75745   3.633   3.895  -0.147  2.3427  0.2651 -0.5169
  574MOL0     H75746   3.573   3.834   0.146 -1.4503 -1.4656 -0.9020
  574MOL0     H75747   3.472   3.947   0.050 -0.3235  0.0867 -2.1823
  574MOL0     H75748   3.400   3.754  -0.093 -0.0492 -2.2613 -0.2512
  574MOL0     H75749   3.360   3.727   0.078 -0.8365  1.4864 -0.6454
  574MOL0     H75750   4.427   3.840   0.257 -1.4655  1.1431 -0.7505
  574MOL0     H75751   4.629   3.840   0.394 -0.8091  0.2878 -3.1203
  574MOL0     H75752   5.063   4.227   0.505  2.5859 -0.8449 -2.5349
  574MOL0     H75753   5.274   4.170   0.636 -0.2218  0.7556 -2.0429
  574MOL0     H75754   7.042   3.194   0.482  0.1106 -0.2410 -1.1364
  574MOL0     H75755   7.169   2.998   0.426  0.6182 -0.4468 -1.5441
  574MOL0     H75756   7.438   2.834  -0.003  2.0469 -0.3479  3.4873
  574MOL0     H75757   7.575   2.625  -0.062 -0.4279  2.5100  0.5836
  574MOL0     H75758   7.688   2.437  -0.081  0.0602  1.2623 -0.2530
  574MOL0     H75759   7.581   2.417  -0.215  1.2041  3.4143  1.9805
  574MOL0     H75760   7.667   2.167  -0.061 -1.4263  0.9953  1.5425
  574MOL0     H75761   7.628   2.186  -0.228  0.3149  2.5759 -1.0695
  574MOL0     H75762   7.877   2.327  -0.118 -1.5766  2.1524 -0.6828
  574MOL0     H75763   7.818   2.320  -0.286  1.1904 -1.9139 -1.2814
  574MOL0     H75764   7.925   2.086  -0.130 -1.0860  0.9518  0.5268
  574MOL0     H75765   7.868   2.079  -0.294 -2.5221 -0.5480  1.8282
  574MOL0     H75766   8.269   2.239  -0.289 -0.5022  1.3113 -0.3065
  574MOL0     H75767   7.267   2.384   0.101 -2.2954  1.4718  0.4764
  574MOL0     H75768   7.137   2.584   0.169  0.1110 -0.7846  2.3935
  575MOL0     O75769   3.034   3.383   6.979 -0.1009 -0.1074  0.2570
  575MOL0     C75770   3.076   3.329   7.084  0.8391 -0.9092 -0.1956
  575MOL0     O75771   3.004   3.251   7.169 -0.3465  0.3981 -0.5464
  575MOL0     C75772   2.867   3.244   7.165  0.4455 -0.7056 -1.1573
  575MOL0     C75773   2.780   3.335   7.092 -0.3524  0.0404  0.2181
  575MOL0     C75774   2.637   3.316   7.091 -0.4407  0.9083  0.2088
  575MOL0     C75775   2.573   3.215   7.159  0.1714 -0.2669 -0.4400
  575MOL0     O75776   2.440   3.193   7.158 -0.0048  0.2876 -0.5454
  575MOL0     C75777   2.359   3.302   7.118 -1.4185  0.7654  0.0812
  575MOL0     C75778   2.214   3.237   7.127 -0.0209  0.2028  0.0930
  575MOL0     C75779   2.179   3.171   7.001 -0.1846  0.3303 -0.6462
  575MOL0     C75780   2.027   3.138   6.991 -0.0743 -0.6363 -0.0972
  575MOL0     C75781   1.996   3.071   6.854 -0.3240  0.2665 -0.1970
  575MOL0     C75782   1.849   3.046   6.810 -0.5338 -0.6271 -0.2758
  575MOL0     C75783   1.780   2.942   6.905 -0.5831  0.5587  0.5962
  575MOL0     C75784   1.640   2.923   6.855 -0.2024  1.0008 -0.3181
  575MOL0     N75785   1.576   2.822   6.939 -0.3227  0.7407  0.3665
  575MOL0     C75786   1.539   2.837   7.067  0.3414 -0.1991  0.3922
  575MOL0     C75787   1.495   2.717   7.110 -1.1923  0.0187 -0.3117
  575MOL0     C75788   1.445   2.672   7.245  0.1804 -0.1773 -1.3823
  575MOL0     C75789   1.295   2.664   7.262  0.6991  0.4984  0.3824
  575MOL0     C75790   1.222   2.793   7.227  0.8778 -0.3759  0.6428
  575MOL0     C75791   1.071   2.787   7.238  0.7224  1.1662  0.4283
  575MOL0     O75792   1.039   2.744   7.375 -0.1901  0.3505 -0.3240
  575MOL0     C75793   0.909   2.700   7.404 -0.3273 -0.1889 -0.0920
  575MOL0     C75794   0.885   2.627   7.515 -0.7058 -0.6591 -0.1739
  575MOL0     C75795   0.763   2.583   7.556 -0.5330  0.4156  0.6187
  575MOL0     C75796   0.653   2.625   7.479  0.1297 -0.1256  0.7469
  575MOL0     C75797   0.515   2.604   7.531 -0.6933  0.3935 -0.5822
  575MOL0     O75798   0.412   2.667   7.476  0.2784 -0.2855  0.3075
  575MOL0     C75799   0.285   2.645   7.514  0.0352  0.7706  0.0930
  575MOL0     C75800   0.216   2.540   7.457  0.1341  0.7463 -0.0537
  575MOL0     C75801   0.082   2.516   7.487  0.0938  0.7903 -0.0535
  575MOL0     C75802   0.008   2.595   7.583  0.4877 -1.2530 -0.5947
  575MOL0     O75803  -0.127   2.573   7.618  0.4876  0.7823  0.3206
  575MOL0     C75804  -0.205   2.472   7.549 -0.5854 -1.0834  0.4600
  575MOL0     C75805  -0.344   2.459   7.615 -0.0627 -0.0586  0.3107
  575MOL0     C75806  -0.438   2.371   7.530 -0.1209 -0.4200 -0.2960
  575MOL0     C75807  -0.576   2.363   7.595  0.5314 -0.6340 -0.0892
  575MOL0     C75808  -0.677   2.288   7.497 -0.2552  0.5305  0.6140
  575MOL0     C75809  -0.830   2.303   7.536  0.5187 -0.5599  0.0824
  575MOL0     C75810  -0.919   2.233   7.429 -0.4153 -0.0330  0.0388
  575MOL0     C75811  -1.071   2.234   7.462 -0.2628  0.4472 -0.6746
  575MOL0    Cl75812  -1.170   2.174   7.328 -0.0979 -0.0791 -0.2719
  575MOL0     C75813   0.078   2.701   7.644 -0.2849  0.6571  0.0145
  575MOL0     C75814   0.216   2.719   7.613 -0.3289 -0.7659  0.5530
  575MOL0     O75815   0.497   2.503   7.608  0.2212  0.2411  0.2546
  575MOL0     C75816   0.677   2.686   7.358 -0.0400 -0.6306  0.4807
  575MOL0     C75817   0.801   2.734   7.322  0.3684  0.5642 -0.5029
  575MOL0     N75818   1.511   2.627   7.005  0.1266 -1.1502 -0.7638
  575MOL0     N75819   1.565   2.692   6.899 -0.2504  0.6683 -0.3190
  575MOL0     C75820   2.658   3.134   7.237 -0.6146 -0.5653  0.6925
  575MOL0     C75821   2.798   3.154   7.241 -0.1334  1.2922  0.0281
  575MOL0     C75822   3.226   3.349   7.114  0.4590 -1.3506  1.0470
  575MOL0     C75823   3.278   3.292   7.230  0.0612 -0.2401  0.0239
  575MOL0     C75824   3.418   3.295   7.255  0.1531  0.7905  0.0558
  575MOL0     C75825   3.499   3.372   7.179 -0.2085  0.4531  0.6083
  575MOL0     O75826   3.629   3.394   7.211  0.2365 -0.9999  0.2464
  575MOL0     C75827   3.709   3.281   7.224  0.3560 -0.3392 -0.2454
  575MOL0     C75828   3.850   3.337   7.251  0.7935  0.6419  0.1624
  575MOL0     C75829   3.952   3.221   7.295  0.7821 -0.4308  0.2024
  575MOL0     C75830   4.096   3.266   7.330  0.1560  0.4067  0.9945
  575MOL0     C75831   4.089   3.352   7.441  0.4576  0.6575  0.2805
  575MOL0     C75832   4.085   3.426   7.534  0.2425  0.7264  0.5200
  575MOL0     C75833   3.447   3.443   7.068  0.1572  0.1874  0.1851
  575MOL0     C75834   3.308   3.437   7.037 -0.7979  0.0680  0.6155
  575MOL0     H75835   2.811   3.426   7.042  1.1427 -0.5483  0.0287
  575MOL0     H75836   2.588   3.389   7.027  1.3639  2.2886  0.3104
  575MOL0     H75837   2.397   3.338   7.022  0.0657 -1.2735 -0.1660
  575MOL0     H75838   2.358   3.388   7.185 -1.6734  0.0231  1.0549
  575MOL0     H75839   2.152   3.324   7.152 -0.9595 -0.7307  1.0794
  575MOL0     H75840   2.215   3.170   7.213 -1.5171  0.3587  0.2558
  575MOL0     H75841   2.236   3.078   6.988 -0.2990  0.1179  0.2950
  575MOL0     H75842   2.208   3.246   6.927  1.1861  1.0907  0.6107
  575MOL0     H75843   1.985   3.079   7.074 -0.8350  0.6630  0.4823
  575MOL0     H75844   1.986   3.239   6.998  0.0553 -0.6496  1.2700
  575MOL0     H75845   2.058   2.981   6.847  1.6619  1.5564 -0.2207
  575MOL0     H75846   2.037   3.148   6.789 -0.3597  1.5628  1.2519
  575MOL0     H75847   1.850   3.006   6.708 -2.4761  0.0266 -0.5824
  575MOL0     H75848   1.796   3.142   6.810 -2.6980 -1.7504 -1.4631
  575MOL0     H75849   1.818   2.840   6.895 -0.8194  0.6398 -1.7401
  575MOL0     H75850   1.783   2.972   7.010  0.7658 -0.5409  0.9070
  575MOL0     H75851   1.650   2.881   6.754  1.3419  1.9784 -0.6009
  575MOL0     H75852   1.568   3.003   6.837 -0.1171  0.8861 -1.2472
  575MOL0     H75853   1.538   2.918   7.139  1.4060 -1.5314  1.9836
  575MOL0     H75854   1.482   2.750   7.313 -1.2241 -1.3522  0.8189
  575MOL0     H75855   1.502   2.590   7.289 -0.7916 -0.6641 -1.0042
  575MOL0     H75856   1.271   2.631   7.363  0.0810 -2.0825 -0.5133
  575MOL0     H75857   1.264   2.584   7.193 -0.5602  0.2666  1.1820
  575MOL0     H75858   1.255   2.882   7.280  1.4112 -0.4840  0.5049
  575MOL0     H75859   1.238   2.813   7.120 -1.2910 -0.8435  0.1800
  575MOL0     H75860   1.030   2.722   7.160  0.2866  0.5491  1.1526
  575MOL0     H75861   1.027   2.885   7.218 -2.0134 -0.4321 -2.1446
  575MOL0     H75862   0.973   2.597   7.572 -1.0644  2.0434  2.0479
  575MOL0     H75863   0.758   2.519   7.644  1.7844 -1.9066 -0.7956
  575MOL0     H75864   0.274   2.475   7.392 -3.0589 -3.0374  0.5740
  575MOL0     H75865   0.022   2.447   7.429 -1.0623  2.1975 -0.5811
  575MOL0     H75866  -0.165   2.371   7.533 -2.7215 -1.4936 -3.7415
  575MOL0     H75867  -0.211   2.516   7.449  1.1127 -0.6658  0.5221
  575MOL0     H75868  -0.390   2.558   7.621 -0.2223 -0.1510  0.6332
  575MOL0     H75869  -0.338   2.418   7.716  2.7325  0.9122  0.6150
  575MOL0     H75870  -0.387   2.276   7.514  2.1636  0.3028  2.0156
  575MOL0     H75871  -0.448   2.424   7.435  0.7702 -0.7958 -0.6073
  575MOL0     H75872  -0.568   2.320   7.695  2.5218 -0.4201 -0.1077
  575MOL0     H75873  -0.618   2.464   7.607  0.1930 -0.8513  0.5495
  575MOL0     H75874  -0.648   2.183   7.491 -1.9729  0.0507  0.3272
  575MOL0     H75875  -0.659   2.327   7.396  1.1114 -1.7423 -0.1046
  575MOL0     H75876  -0.857   2.408   7.554  2.5133  0.2597 -1.4176
  575MOL0     H75877  -0.844   2.239   7.624  1.4119  0.3999  0.9538
  575MOL0     H75878  -0.908   2.278   7.329  1.1535  0.3981  0.3656
  575MOL0     H75879  -0.887   2.130   7.410  1.6410  0.3715  0.9822
  575MOL0     H75880  -1.106   2.336   7.480 -0.7014 -0.0532  1.7227
  575MOL0     H75881  -1.101   2.171   7.547 -1.5309  2.7554  0.7057
  575MOL0     H75882   0.036   2.770   7.717 -2.4920  0.4193 -0.9829
  575MOL0     H75883   0.252   2.811   7.659 -1.5752  0.1385 -0.1910
  575MOL0     H75884   0.591   2.691   7.292 -1.0677 -3.8877  1.3925
  575MOL0     H75885   0.818   2.778   7.224  1.7256  1.2047 -0.0073
  575MOL0     H75886   2.604   3.054   7.287 -2.8630  0.2511 -0.2787
  575MOL0     H75887   2.848   3.082   7.305 -0.7015  2.2299  1.6037
  575MOL0     H75888   3.207   3.238   7.293 -0.3130  0.3990  0.1552
  575MOL0     H75889   3.473   3.237   7.329  1.5889  2.3285  0.2544
  575MOL0     H75890   3.697   3.217   7.136 -1.4417  0.0598 -0.3373
  575MOL0     H75891   3.684   3.227   7.317  0.0383  0.3148  0.0527
  575MOL0     H75892   3.887   3.381   7.158 -1.9553  1.6454 -0.5545
  575MOL0     H75893   3.852   3.406   7.336  0.7464 -1.0008  1.5419
  575MOL0     H75894   3.966   3.161   7.204 -1.7114  0.5426 -0.9134
  575MOL0     H75895   3.906   3.153   7.367 -2.7806 -1.3995 -2.6767
  575MOL0     H75896   4.143   3.172   7.360 -1.9231 -1.4056 -0.9942
  575MOL0     H75897   4.145   3.329   7.256  0.8136 -0.0756  1.0102
  575MOL0     H75898   4.081   3.503   7.608 -0.2037 -1.0525  2.4254
  575MOL0     H75899   3.512   3.507   7.010 -0.2510  1.7849  1.4247
  575MOL0     H75900   3.276   3.497   6.953 -2.4905 -1.4996  0.0745
  576MOL0     O75901   9.588   4.918   0.022 -0.7629 -0.3526  0.5381
  576MOL0     C75902   9.640   5.026   0.001 -0.3088 -0.4692 -0.6049
  576MOL0     O75903   9.576   5.145  -0.051  0.8747 -0.2064  0.6033
  576MOL0     C75904   9.452   5.164  -0.107 -0.6908  0.7001  0.4209
  576MOL0     C75905   9.365   5.051  -0.125  0.9423 -0.0031  0.0958
  576MOL0     C75906   9.238   5.077  -0.191  0.7459 -1.2682 -0.0857
  576MOL0     C75907   9.201   5.206  -0.223  0.1910 -0.8852 -0.6243
  576MOL0     O75908   9.086   5.234  -0.295 -0.0199  0.2062 -0.2465
  576MOL0     C75909   8.991   5.130  -0.327  0.9240 -0.4921  0.4865
  576MOL0     C75910   8.857   5.191  -0.367  0.2008 -0.1353  0.0042
  576MOL0     C75911   8.864   5.278  -0.498 -0.1792 -0.3334  0.4592
  576MOL0     C75912   8.720   5.314  -0.529 -0.2505  0.4899 -0.0585
  576MOL0     C75913   8.720   5.410  -0.649 -0.2872 -0.7175 -0.0882
  576MOL0     C75914   8.732   5.558  -0.616 -0.7945 -0.1088  0.2783
  576MOL0     C75915   8.731   5.651  -0.743 -0.1019  0.9494 -0.3935
  576MOL0     C75916   8.777   5.795  -0.711 -0.7963  0.3154  0.0461
  576MOL0     N75917   8.687   5.869  -0.624 -0.0675 -0.3295 -0.0498
  576MOL0     C75918   8.711   5.929  -0.502 -0.0812  0.5071 -0.1575
  576MOL0     C75919   8.582   5.969  -0.462  0.6390  0.4280 -0.3404
  576MOL0     C75920   8.536   6.016  -0.318 -0.0781 -0.1723  0.1173
  576MOL0     C75921   8.392   5.997  -0.280  0.4324  0.7275 -0.0991
  576MOL0     C75922   8.296   6.118  -0.333 -0.6988  1.0268 -0.8851
  576MOL0     C75923   8.146   6.088  -0.304  0.0689 -0.3488 -0.4656
  576MOL0     O75924   8.117   6.123  -0.165  0.2774  0.1597  0.4257
  576MOL0     C75925   7.998   6.190  -0.147 -0.2779  0.1418 -0.7083
  576MOL0     C75926   7.875   6.148  -0.194 -0.2442 -0.4283 -0.4373
  576MOL0     C75927   7.764   6.223  -0.157  0.4093 -0.0643  0.4333
  576MOL0     C75928   7.772   6.349  -0.089 -0.5393 -0.2744  0.0552
  576MOL0     C75929   7.650   6.419  -0.058  1.7722  0.5599 -0.0695
  576MOL0     O75930   7.532   6.350  -0.080  0.1686 -0.5638 -0.0541
  576MOL0     C75931   7.411   6.405  -0.045  0.0032  0.0321  0.5093
  576MOL0     C75932   7.356   6.402   0.081 -0.0854  0.2837  0.3892
  576MOL0     C75933   7.224   6.447   0.098 -0.4666  0.3999 -0.4614
  576MOL0     C75934   7.136   6.477  -0.005  0.4099  0.0807 -0.3647
  576MOL0     O75935   7.003   6.505   0.016  0.2450 -0.1876 -0.1602
  576MOL0     C75936   6.961   6.556   0.144  0.2292 -0.2201 -0.8866
  576MOL0     C75937   6.801   6.579   0.130 -0.1579 -0.2443 -0.1662
  576MOL0     C75938   6.752   6.636   0.263  0.1074  0.2049 -0.0590
  576MOL0     C75939   6.596   6.659   0.253 -0.5795  0.5844 -0.8423
  576MOL0     C75940   6.528   6.653   0.389  0.1800  0.3814 -0.0695
  576MOL0     C75941   6.382   6.688   0.364 -0.3428  0.8522 -0.9212
  576MOL0     C75942   6.311   6.685   0.511 -0.1882 -0.0849  0.4264
  576MOL0     C75943   6.167   6.719   0.488  0.1154 -0.7680  0.4481
  576MOL0    Cl75944   6.078   6.778   0.630 -0.3135 -0.5282  0.3069
  576MOL0     C75945   7.191   6.463  -0.133  0.2254 -0.6773  0.2596
  576MOL0     C75946   7.327   6.438  -0.160  0.4488  0.7241 -0.7793
  576MOL0     O75947   7.658   6.535  -0.023 -0.5552 -0.3651  0.7435
  576MOL0     C75948   7.900   6.394  -0.050 -0.0285  0.2410  0.9089
  576MOL0     C75949   8.013   6.312  -0.074  0.3075 -0.1901 -0.2693
  576MOL0     N75950   8.490   5.929  -0.557  0.1896  0.4666 -0.5019
  576MOL0     N75951   8.555   5.870  -0.651 -0.0935  1.0410  0.6971
  576MOL0     C75952   9.287   5.312  -0.196  0.0938 -0.0771 -0.2589
  576MOL0     C75953   9.416   5.295  -0.141  0.1678 -0.8169 -0.5497
  576MOL0     C75954   9.787   5.031   0.027  0.1108 -0.6502  0.4238
  576MOL0     C75955   9.852   4.948   0.114  0.4518 -0.0787 -0.1526
  576MOL0     C75956   9.991   4.940   0.136 -0.3222  0.0683 -0.0918
  576MOL0     C75957  10.068   5.041   0.066  0.6332  0.2025 -0.1747
  576MOL0     O75958  10.202   5.067   0.080  0.8084 -0.5117 -0.6184
  576MOL0     C75959  10.299   4.961   0.051 -0.1711 -0.2296  0.6956
  576MOL0     C75960  10.346   4.958  -0.096 -0.7895 -0.3233 -0.4671
  576MOL0     C75961  10.264   4.880  -0.194  0.0267  0.1224  0.3882
  576MOL0     C75962  10.288   4.733  -0.201  0.0047  0.2903  0.1651
  576MOL0     C75963  10.422   4.685  -0.230  0.4526  0.2676 -0.2280
  576MOL0     C75964  10.529   4.654  -0.268 -0.2743 -0.1133 -0.5656
  576MOL0     C75965  10.005   5.131  -0.021  0.2630  0.1901 -0.5647
  576MOL0     C75966   9.866   5.129  -0.032 -0.1235  0.0118  0.8238
  576MOL0     H75967   9.378   4.947  -0.096  1.0530  0.0661  0.2912
  576MOL0     H75968   9.164   5.001  -0.211  0.0746 -0.4632 -0.7704
  576MOL0     H75969   8.971   5.065  -0.242 -0.8638  0.6135  0.9454
  576MOL0     H75970   9.041   5.064  -0.399  0.2684 -0.2549 -0.2027
  576MOL0     H75971   8.828   5.260  -0.288  3.7331  3.0974 -1.1658
  576MOL0     H75972   8.783   5.112  -0.381 -0.4862  0.6940 -1.3285
  576MOL0     H75973   8.905   5.237  -0.591  1.4631  4.0195 -0.9815
  576MOL0     H75974   8.931   5.363  -0.484  2.6413 -2.4505  0.8081
  576MOL0     H75975   8.680   5.216  -0.555  1.2431 -0.0695 -0.3685
  576MOL0     H75976   8.668   5.353  -0.441  1.1574 -1.4810  1.7450
  576MOL0     H75977   8.631   5.399  -0.712 -0.0180 -3.5007 -0.1273
  576MOL0     H75978   8.801   5.378  -0.716 -0.5686  0.7178 -1.1589
  576MOL0     H75979   8.815   5.575  -0.546 -2.2540 -1.2027  2.3630
  576MOL0     H75980   8.648   5.592  -0.554 -1.1621 -0.3388 -0.0899
  576MOL0     H75981   8.796   5.605  -0.818 -2.2572 -0.2674 -1.6238
  576MOL0     H75982   8.629   5.653  -0.784  0.5668 -0.7399 -2.2588
  576MOL0     H75983   8.788   5.842  -0.809  1.8263 -0.1948  0.0316
  576MOL0     H75984   8.879   5.798  -0.673 -0.6333 -0.1840 -0.3330
  576MOL0     H75985   8.802   5.948  -0.445 -0.4824  2.5237 -0.1258
  576MOL0     H75986   8.567   6.119  -0.301  2.2997 -0.4634 -1.7953
  576MOL0     H75987   8.584   5.954  -0.242 -0.2990  1.8079  1.9595
  576MOL0     H75988   8.390   5.980  -0.172  2.4046 -1.0161 -0.2728
  576MOL0     H75989   8.361   5.905  -0.331  0.7812 -0.0195  0.9939
  576MOL0     H75990   8.335   6.203  -0.277  0.9143 -1.5140  2.1928
  576MOL0     H75991   8.299   6.125  -0.442 -3.3067 -1.6423 -1.2531
  576MOL0     H75992   8.124   5.983  -0.321 -0.8436 -0.4245  0.9484
  576MOL0     H75993   8.078   6.138  -0.374 -1.1049  0.1864  0.9975
  576MOL0     H75994   7.868   6.060  -0.257  1.0801 -0.7226 -0.1917
  576MOL0     H75995   7.673   6.198  -0.210  0.0305  0.1631  0.9648
  576MOL0     H75996   7.410   6.367   0.169 -0.8864  0.5632  1.0099
  576MOL0     H75997   7.183   6.435   0.198  1.1651  1.1641  0.3431
  576MOL0     H75998   7.006   6.653   0.166  2.3443 -1.2223 -0.5180
  576MOL0     H75999   6.984   6.480   0.220  2.6367 -0.3217 -1.6062
  576MOL0     H76000   6.759   6.480   0.108 -0.0595 -0.2589 -0.2950
  576MOL0     H76001   6.755   6.644   0.055 -1.3734  0.8155  1.4488
  576MOL0     H76002   6.795   6.733   0.288 -0.1956  0.5000 -0.6890
  576MOL0     H76003   6.793   6.562   0.333  1.0526  0.7427 -0.0300
  576MOL0     H76004   6.573   6.752   0.200 -0.6126  0.6225 -0.7624
  576MOL0     H76005   6.557   6.575   0.195 -1.9409  1.7537 -1.6908
  576MOL0     H76006   6.580   6.725   0.452  3.1475 -0.3427 -1.5261
  576MOL0     H76007   6.549   6.553   0.429 -0.0594 -0.3795 -1.7600
  576MOL0     H76008   6.327   6.609   0.313  0.2180 -2.4379  2.9969
  576MOL0     H76009   6.364   6.783   0.313 -3.6741 -0.6082 -2.7965
  576MOL0     H76010   6.324   6.591   0.564  0.2865 -0.5663 -0.5257
  576MOL0     H76011   6.356   6.766   0.570  1.4387  0.0088 -0.8843
  576MOL0     H76012   6.118   6.627   0.454 -2.2193  0.5159  0.1483
  576MOL0     H76013   6.156   6.787   0.403 -1.8966  0.2617  1.4645
  576MOL0     H76014   7.134   6.485  -0.223 -0.2428 -0.9457  0.4884
  576MOL0     H76015   7.376   6.437  -0.257 -0.2792 -0.3421 -1.1529
  576MOL0     H76016   7.904   6.483   0.013  0.8040  0.9792 -0.1581
  576MOL0     H76017   8.111   6.328  -0.028  1.0571 -1.1078 -1.4900
  576MOL0     H76018   9.263   5.415  -0.219  0.3685  0.1523  0.4407
  576MOL0     H76019   9.488   5.375  -0.129 -0.0207 -0.7310  0.0333
  576MOL0     H76020   9.793   4.869   0.160  2.9382 -2.2014 -0.3353
  576MOL0     H76021  10.043   4.888   0.216  1.3982  2.4577  0.4606
  576MOL0     H76022  10.259   4.863   0.079 -0.5013  0.3150  2.2349
  576MOL0     H76023  10.384   4.973   0.120  0.6001  0.2224 -0.3133
  576MOL0     H76024  10.343   5.059  -0.138  1.5307  0.5548  1.2258
  576MOL0     H76025  10.449   4.922  -0.105  0.5870  3.1507 -0.2555
  576MOL0     H76026  10.274   4.922  -0.295 -0.6486 -1.0804 -0.2004
  576MOL0     H76027  10.162   4.906  -0.164 -0.5306 -1.3787 -0.1256
  576MOL0     H76028  10.269   4.684  -0.106 -0.0329  2.4065  1.3138
  576MOL0     H76029  10.213   4.692  -0.269  1.1152  0.4010 -1.1937
  576MOL0     H76030  10.610   4.620  -0.330 -1.6341 -2.4766 -1.1755
  576MOL0     H76031  10.055   5.218  -0.062 -0.6024  1.0052  0.0482
  576MOL0     H76032   9.822   5.211  -0.088  0.2165 -0.3084  0.0745
  577MOL0     O76033   4.352   0.903   7.029  0.0916  0.3096  0.5972
  577MOL0     C76034   4.444   0.979   7.003  0.1729  0.3756  0.5410
  577MOL0     O76035   4.425   1.118   6.991 -0.4785 -0.1778 -0.0740
  577MOL0     C76036   4.297   1.159   7.021 -0.1711 -0.0545 -0.7172
  577MOL0     C76037   4.266   1.235   7.136 -0.3131  0.9936  0.4406
  577MOL0     C76038   4.128   1.268   7.156  0.6358  0.3188  0.5983
  577MOL0     C76039   4.028   1.230   7.073 -0.0879  0.6626 -0.8132
  577MOL0     O76040   3.899   1.271   7.109  0.7923 -0.3097 -0.3330
  577MOL0     C76041   3.787   1.242   7.014  0.2064  0.0697 -0.3883
  577MOL0     C76042   3.647   1.282   7.076  0.9981  0.5709 -0.7942
  577MOL0     C76043   3.534   1.218   6.989 -0.9183 -0.0106 -0.0295
  577MOL0     C76044   3.393   1.248   7.053 -0.4067  0.7982 -0.6427
  577MOL0     C76045   3.275   1.181   6.984  0.6825 -0.6982 -0.2897
  577MOL0     C76046   3.266   1.042   7.028  0.2270  0.7088 -0.1812
  577MOL0     C76047   3.147   0.966   6.970 -0.4971  0.3061  0.5003
  577MOL0     C76048   3.132   0.944   6.815  0.0542  0.2591  0.1944
  577MOL0     N76049   3.219   0.832   6.772 -0.0502 -0.3032 -0.1763
  577MOL0     C76050   3.347   0.855   6.722  0.4612 -0.1190 -0.3570
  577MOL0     C76051   3.391   0.734   6.674  0.0388  0.5082  1.1009
  577MOL0     C76052   3.530   0.698   6.631  0.6595  0.6510  0.1403
  577MOL0     C76053   3.559   0.770   6.498 -0.9507  0.4478  0.5439
  577MOL0     C76054   3.683   0.699   6.440 -0.5724  0.3466 -0.1461
  577MOL0     C76055   3.704   0.729   6.294 -0.5044 -0.0132 -0.5144
  577MOL0     O76056   3.783   0.615   6.250 -0.1440 -0.3300  0.1570
  577MOL0     C76057   3.882   0.660   6.168  0.0748  0.6405 -0.4728
  577MOL0     C76058   3.875   0.677   6.024 -0.3391 -0.1600  0.1494
  577MOL0     C76059   3.984   0.708   5.949  0.3523  0.5126 -1.1038
  577MOL0     C76060   4.116   0.720   6.008 -0.2012  0.5650 -0.0275
  577MOL0     C76061   4.237   0.752   5.934  0.4094 -0.1313 -0.1836
  577MOL0     O76062   4.219   0.797   5.806  0.2404 -0.2189  0.0035
  577MOL0     C76063   4.330   0.847   5.741  0.5399  0.7427 -0.6087
  577MOL0     C76064   4.361   0.786   5.624  0.2541 -0.1456 -0.0222
  577MOL0     C76065   4.475   0.828   5.548  0.9219 -0.2177 -0.4769
  577MOL0     C76066   4.548   0.935   5.591 -0.2228 -0.5560 -0.2414
  577MOL0     O76067   4.648   0.981   5.514 -0.1346 -0.5041  0.7553
  577MOL0     C76068   4.779   0.925   5.549  0.1507 -0.3258  0.2426
  577MOL0     C76069   4.899   1.014   5.520  0.3193  0.3448  0.5583
  577MOL0     C76070   4.904   1.133   5.625 -0.1963 -0.2085 -0.0493
  577MOL0     C76071   4.938   1.103   5.777  0.2398  0.1499  0.3486
  577MOL0     C76072   4.876   1.201   5.877  0.0973 -0.2051 -0.0539
  577MOL0     C76073   4.918   1.341   5.844  0.5476 -0.6529  0.4282
  577MOL0     C76074   4.846   1.436   5.939 -0.2988  0.6803  0.0366
  577MOL0     C76075   4.896   1.580   5.916  0.0468 -0.3164  0.5225
  577MOL0    Cl76076   5.078   1.608   5.943  0.0570 -0.1465 -0.2223
  577MOL0     C76077   4.522   0.992   5.714 -0.4030  0.2763 -0.2747
  577MOL0     C76078   4.403   0.959   5.787 -0.2539 -0.4827  0.3884
  577MOL0     O76079   4.347   0.736   5.991 -0.2414 -0.0301 -0.1971
  577MOL0     C76080   4.122   0.684   6.148 -0.6590  0.9989 -0.0561
  577MOL0     C76081   4.010   0.658   6.221  0.6257  0.6040  0.4920
  577MOL0     N76082   3.280   0.643   6.689 -0.4548 -0.3682 -0.2284
  577MOL0     N76083   3.180   0.702   6.752 -0.5505 -0.5053 -0.0452
  577MOL0     C76084   4.056   1.139   6.970  0.1796 -0.2243 -0.3302
  577MOL0     C76085   4.188   1.106   6.944  0.4737  0.2602  0.9492
  577MOL0     C76086   4.583   0.924   6.978 -0.5995 -0.0749 -0.1006
  577MOL0     C76087   4.684   1.020   6.958 -0.3981  0.3277 -0.1788
  577MOL0     C76088   4.814   0.971   6.930 -0.1714  0.7759 -0.6322
  577MOL0     C76089   4.847   0.835   6.930 -0.3940 -0.6459  0.2289
  577MOL0     O76090   4.978   0.813   6.911 -0.0501  0.4285  0.6605
  577MOL0     C76091   5.024   0.675   6.893 -0.6887  0.4586  0.6117
  577MOL0     C76092   5.182   0.676   6.885  0.8576 -0.5674  0.1650
  577MOL0     C76093   5.250   0.548   6.838 -0.4137  0.1104  0.3920
  577MOL0     C76094   5.222   0.432   6.929  0.3846 -0.6317 -0.5275
  577MOL0     C76095   5.307   0.315   6.890  0.0935 -0.1527  0.1299
  577MOL0     C76096   5.365   0.215   6.850  0.0636  0.4442  0.1432
  577MOL0     C76097   4.740   0.743   6.950 -0.2172 -0.1872 -0.2185
  577MOL0     C76098   4.610   0.787   6.981 -0.4281  0.7064 -0.4854
  577MOL0     H76099   4.344   1.264   7.205  2.5298 -0.3859 -1.9896
  577MOL0     H76100   4.094   1.328   7.240  1.6966 -1.3168  2.2758
  577MOL0     H76101   3.791   1.135   6.989 -1.1478  0.3320 -1.8885
  577MOL0     H76102   3.807   1.285   6.915 -1.9799  0.7518 -0.5971
  577MOL0     H76103   3.640   1.390   7.087  2.5072  0.8413 -2.1671
  577MOL0     H76104   3.642   1.238   7.176  1.3090  1.4313 -0.3930
  577MOL0     H76105   3.533   1.109   6.979 -0.2162 -0.1740  1.3930
  577MOL0     H76106   3.545   1.249   6.885 -0.5758 -1.4120 -0.4336
  577MOL0     H76107   3.403   1.210   7.155 -0.5402  2.6220  0.0921
  577MOL0     H76108   3.371   1.353   7.075 -1.1917  0.4233  0.4504
  577MOL0     H76109   3.291   1.190   6.876 -0.7993 -1.7466 -0.6318
  577MOL0     H76110   3.190   1.246   7.007  1.6160  1.3750 -2.3232
  577MOL0     H76111   3.279   1.024   7.135 -1.7137  0.8305  0.1055
  577MOL0     H76112   3.354   0.996   6.981 -0.4122 -1.0975  0.3007
  577MOL0     H76113   3.159   0.865   7.011 -2.2164 -0.5096 -0.8663
  577MOL0     H76114   3.065   1.027   7.009  0.3873  0.4362  2.2745
  577MOL0     H76115   3.161   1.031   6.756  0.2389 -1.1038 -1.8059
  577MOL0     H76116   3.028   0.931   6.782  0.3002  1.4625 -1.1300
  577MOL0     H76117   3.406   0.946   6.728  1.0016 -0.0813 -3.9200
  577MOL0     H76118   3.524   0.592   6.603 -0.8131  1.0096 -1.0470
  577MOL0     H76119   3.605   0.717   6.708  1.2124 -1.1734  0.1019
  577MOL0     H76120   3.592   0.872   6.521  1.7931 -0.5476  1.3684
  577MOL0     H76121   3.477   0.759   6.427  0.4676 -2.2260 -0.8198
  577MOL0     H76122   3.771   0.718   6.504 -1.3394  3.3855  0.1886
  577MOL0     H76123   3.671   0.591   6.453  0.2746  0.2545 -0.0570
  577MOL0     H76124   3.748   0.824   6.264  3.1404 -1.7361 -1.1236
  577MOL0     H76125   3.605   0.718   6.248 -0.3259  0.3985 -0.9991
  577MOL0     H76126   3.784   0.647   5.973  0.1389 -1.9141  0.2598
  577MOL0     H76127   3.972   0.699   5.841 -0.4568  0.3115 -1.0067
  577MOL0     H76128   4.298   0.713   5.574  0.7410  0.0382 -0.9284
  577MOL0     H76129   4.495   0.776   5.455 -0.7775 -0.0524 -0.9725
  577MOL0     H76130   4.804   0.834   5.494  1.6214  0.5201 -0.5515
  577MOL0     H76131   4.779   0.903   5.656 -0.6677  1.3337  0.6219
  577MOL0     H76132   4.903   1.057   5.420  0.5630 -2.7546 -0.8761
  577MOL0     H76133   4.991   0.958   5.540 -0.4495 -0.4505  1.9728
  577MOL0     H76134   4.811   1.190   5.614  0.1986  0.1755 -1.5646
  577MOL0     H76135   4.981   1.203   5.592 -0.1851  0.6312  1.6355
  577MOL0     H76136   4.906   1.000   5.797  1.6742 -0.3689  0.0644
  577MOL0     H76137   5.045   1.094   5.795  0.5024 -0.2912 -1.3041
  577MOL0     H76138   4.907   1.183   5.981 -0.2791 -1.8746 -0.1942
  577MOL0     H76139   4.767   1.188   5.875  0.2038 -1.0944 -1.1263
  577MOL0     H76140   4.880   1.358   5.742 -2.3951  1.2699  1.7033
  577MOL0     H76141   5.027   1.353   5.845  0.3439  1.8390  2.2439
  577MOL0     H76142   4.741   1.436   5.907 -0.9229 -3.1904  1.5241
  577MOL0     H76143   4.856   1.403   6.043  0.8748 -0.7927 -0.5039
  577MOL0     H76144   4.840   1.644   5.986  0.3512 -2.2139  2.5870
  577MOL0     H76145   4.869   1.606   5.813 -1.8695 -0.8731  0.8353
  577MOL0     H76146   4.588   1.075   5.737  1.0252 -0.9276  0.0498
  577MOL0     H76147   4.375   1.004   5.882  2.7316 -2.0906  2.2223
  577MOL0     H76148   4.216   0.673   6.201 -0.4949 -1.8213 -0.7796
  577MOL0     H76149   4.025   0.639   6.326  1.7480 -0.3887  0.1704
  577MOL0     H76150   3.987   1.092   6.900  0.4285 -1.0226 -0.0494
  577MOL0     H76151   4.201   1.027   6.871  3.9427 -1.2330  2.9691
  577MOL0     H76152   4.678   1.129   6.963 -1.3245  0.5666 -3.8460
  577MOL0     H76153   4.901   1.032   6.908 -0.0966  0.1900 -2.1045
  577MOL0     H76154   4.989   0.650   6.793  2.1768 -0.5965 -0.2188
  577MOL0     H76155   4.983   0.607   6.968 -2.3809  1.5714  0.7296
  577MOL0     H76156   5.218   0.763   6.830 -0.9725 -0.1148 -0.3767
  577MOL0     H76157   5.208   0.685   6.990 -1.4526  0.8898  0.6955
  577MOL0     H76158   5.357   0.554   6.816 -0.0433 -2.3852  1.3127
  577MOL0     H76159   5.206   0.524   6.740 -3.1265  4.2513  0.3454
  577MOL0     H76160   5.252   0.463   7.029 -4.1269  0.9592  0.5481
  577MOL0     H76161   5.116   0.405   6.930  0.3648 -0.8732 -3.0031
  577MOL0     H76162   5.414   0.123   6.827 -0.4302  0.1787  0.1376
  577MOL0     H76163   4.754   0.636   6.959  0.7257  0.0993  3.7270
  577MOL0     H76164   4.532   0.714   7.003  1.6195 -1.0257  1.5384
  578MOL0     O76165   0.189   0.972   1.482  0.3328 -0.6047 -0.8408
  578MOL0     C76166   0.196   0.856   1.438  0.2416 -0.3836 -0.5482
  578MOL0     O76167   0.235   0.750   1.516  0.0464  0.4762  0.7331
  578MOL0     C76168   0.298   0.777   1.635  0.7949 -0.0418  0.4026
  578MOL0     C76169   0.229   0.820   1.746 -0.1327 -0.4796 -0.0881
  578MOL0     C76170   0.289   0.855   1.862  0.2362 -0.1542  0.2681
  578MOL0     C76171   0.429   0.825   1.876  0.1826  0.9538 -0.2727
  578MOL0     O76172   0.501   0.851   1.992  0.2444  0.2010  0.1016
  578MOL0     C76173   0.518   0.991   2.034 -0.2048 -0.1615  0.4897
  578MOL0     C76174   0.660   1.054   1.987 -0.4909 -0.7464 -0.4874
  578MOL0     C76175   0.673   1.202   2.003  0.5389  0.2132  0.5887
  578MOL0     C76176   0.582   1.288   1.913 -0.4929 -0.1500 -0.1463
  578MOL0     C76177   0.628   1.430   1.929  0.3576  0.5356  0.5276
  578MOL0     C76178   0.538   1.521   1.850  0.0800  0.1894  0.0950
  578MOL0     C76179   0.590   1.663   1.856  0.5697 -0.5668  0.4133
  578MOL0     C76180   0.524   1.753   1.742 -0.0650 -0.3052  0.1489
  578MOL0     N76181   0.374   1.758   1.756  0.9477 -0.1279 -0.4831
  578MOL0     C76182   0.289   1.658   1.717 -0.8108  0.0504  0.5383
  578MOL0     C76183   0.163   1.700   1.736  0.5508  0.1610  0.2139
  578MOL0     C76184   0.037   1.623   1.713  0.4421  0.3246  0.5790
  578MOL0     C76185  -0.083   1.647   1.814 -0.1407 -0.2703 -0.0880
  578MOL0     C76186  -0.185   1.532   1.821 -0.5312  0.3178  0.3378
  578MOL0     C76187  -0.305   1.533   1.724 -0.0523  0.1480  0.8079
  578MOL0     O76188  -0.344   1.397   1.709  0.2680 -0.0538  0.1755
  578MOL0     C76189  -0.450   1.386   1.613  0.2395  0.6992 -0.7391
  578MOL0     C76190  -0.509   1.265   1.619 -0.3402 -0.3057 -0.9736
  578MOL0     C76191  -0.625   1.233   1.556 -0.8203  0.5251  0.0643
  578MOL0     C76192  -0.693   1.326   1.478  0.2538 -0.0741  0.3232
  578MOL0     C76193  -0.824   1.306   1.412  0.8174  0.3332  0.0129
  578MOL0     O76194  -0.902   1.412   1.375  0.8519  0.3554 -0.3488
  578MOL0     C76195  -1.024   1.389   1.310 -0.4285 -0.4714  0.9027
  578MOL0     C76196  -1.040   1.419   1.173  0.1085 -0.7374 -0.6404
  578MOL0     C76197  -1.157   1.390   1.110  0.3567  0.9970 -0.0775
  578MOL0     C76198  -1.274   1.334   1.161 -0.4283  0.1071  0.0143
  578MOL0     O76199  -1.385   1.317   1.086 -0.0081 -0.2505 -0.0164
  578MOL0     C76200  -1.505   1.259   1.144  0.1470 -0.2158 -0.2481
  578MOL0     C76201  -1.630   1.285   1.055 -0.3934 -0.3666  0.1887
  578MOL0     C76202  -1.750   1.225   1.118 -0.2023  0.1356  0.0869
  578MOL0     C76203  -1.861   1.235   1.027 -0.0438 -0.1317  0.2644
  578MOL0     C76204  -2.004   1.222   1.073  0.1297  0.0231 -0.7021
  578MOL0     C76205  -2.105   1.220   0.956  0.2151 -0.5536  0.4151
  578MOL0     C76206  -2.239   1.161   1.003  0.5542 -0.1853  0.4185
  578MOL0     C76207  -2.307   1.112   0.880 -0.1549 -0.1979 -0.0303
  578MOL0    Cl76208  -2.467   1.044   0.918  0.0341 -0.1737  0.2270
  578MOL0     C76209  -1.266   1.316   1.305 -0.1670  0.2048 -0.7092
  578MOL0     C76210  -1.142   1.341   1.373  0.0517  1.1101 -0.6124
  578MOL0     O76211  -0.848   1.189   1.386  0.5477  0.4495 -0.1803
  578MOL0     C76212  -0.630   1.451   1.466  0.6137  0.6202  0.4057
  578MOL0     C76213  -0.509   1.481   1.527 -0.2872  0.6483  0.8643
  578MOL0     N76214   0.173   1.833   1.782 -0.4532 -0.5208  0.3028
  578MOL0     N76215   0.297   1.859   1.801  0.4755  0.5877  0.2414
  578MOL0     C76216   0.494   0.767   1.770 -0.1952 -0.2672  0.1629
  578MOL0     C76217   0.433   0.756   1.643 -0.0210  0.5288  0.8085
  578MOL0     C76218   0.129   0.809   1.309 -0.1244 -0.8207  0.1212
  578MOL0     C76219   0.144   0.687   1.253 -0.1164  0.1274 -0.1054
  578MOL0     C76220   0.083   0.652   1.133 -0.2608 -0.0343  0.6981
  578MOL0     C76221  -0.022   0.735   1.078  0.2734  0.4317 -0.7815
  578MOL0     O76222  -0.081   0.713   0.957 -0.1041  0.6799 -0.2259
  578MOL0     C76223  -0.082   0.591   0.888  0.1511  0.1263  0.4191
  578MOL0     C76224  -0.168   0.597   0.762  0.1588  0.3173 -0.2500
  578MOL0     C76225  -0.324   0.560   0.781 -0.0454 -0.7462 -1.2183
  578MOL0     C76226  -0.395   0.593   0.658  0.8254  0.9494  1.4790
  578MOL0     C76227  -0.517   0.511   0.643  0.1442 -0.1118  0.2661
  578MOL0     C76228  -0.608   0.440   0.624 -0.6060  1.0248  0.2124
  578MOL0     C76229  -0.047   0.864   1.141 -0.9422  0.7685 -0.2941
  578MOL0     C76230   0.030   0.896   1.257 -0.2715 -0.1354  0.3357
  578MOL0     H76231   0.122   0.825   1.730 -0.4351 -1.7479  1.3899
  578MOL0     H76232   0.213   0.885   1.934 -1.7713 -0.0656 -1.7916
  578MOL0     H76233   0.514   1.005   2.142  2.7350  1.0470  0.5276
  578MOL0     H76234   0.437   1.054   1.997 -1.6582 -2.5259 -0.6795
  578MOL0     H76235   0.684   1.029   1.883  1.7377 -1.3075  0.1153
  578MOL0     H76236   0.737   1.009   2.050  1.1979  2.2748 -0.1788
  578MOL0     H76237   0.777   1.228   1.981  0.9550 -0.0779  2.1369
  578MOL0     H76238   0.662   1.235   2.106 -1.1852  1.2891  0.1101
  578MOL0     H76239   0.586   1.257   1.808 -1.7828 -1.0288  0.0413
  578MOL0     H76240   0.480   1.297   1.951 -0.1123  3.3058  0.4130
  578MOL0     H76241   0.733   1.441   1.900 -0.2040 -1.6247 -2.7800
  578MOL0     H76242   0.631   1.459   2.035 -0.8811 -1.8244  1.2803
  578MOL0     H76243   0.434   1.510   1.884 -0.3079  1.7924 -0.4607
  578MOL0     H76244   0.564   1.487   1.749  1.8043 -1.0885  0.9181
  578MOL0     H76245   0.570   1.693   1.959  2.1277 -2.7120  1.4202
  578MOL0     H76246   0.699   1.670   1.845  0.3162  1.9669 -1.4154
  578MOL0     H76247   0.559   1.718   1.645 -2.6893 -1.7370 -0.3728
  578MOL0     H76248   0.553   1.858   1.759 -1.4579  0.1174  0.0415
  578MOL0     H76249   0.319   1.564   1.670 -0.7330  0.2212  0.2444
  578MOL0     H76250   0.066   1.520   1.733  0.1052 -0.0119 -0.5718
  578MOL0     H76251   0.015   1.630   1.606  4.7233 -1.6367 -0.6507
  578MOL0     H76252  -0.137   1.739   1.791  0.1678  0.4837  1.9814
  578MOL0     H76253  -0.030   1.661   1.908  1.0717  1.0980 -0.9245
  578MOL0     H76254  -0.135   1.436   1.802 -0.7824 -0.1848  2.1006
  578MOL0     H76255  -0.222   1.526   1.923 -3.4216  2.4635 -0.4728
  578MOL0     H76256  -0.262   1.558   1.627  0.2329 -3.4377 -0.1231
  578MOL0     H76257  -0.388   1.597   1.755 -1.3116 -0.7796 -0.5439
  578MOL0     H76258  -0.460   1.191   1.682 -1.8508 -0.8610 -0.4006
  578MOL0     H76259  -0.676   1.140   1.578  1.8721 -1.3853 -1.3589
  578MOL0     H76260  -0.962   1.448   1.104 -1.9456  2.5171 -1.8029
  578MOL0     H76261  -1.158   1.405   1.002  2.8400 -3.8918 -1.0915
  578MOL0     H76262  -1.533   1.294   1.244 -1.0518  1.4828 -1.1299
  578MOL0     H76263  -1.500   1.151   1.158 -2.9888 -0.4186  0.0225
  578MOL0     H76264  -1.611   1.244   0.955  1.5567  0.9666 -0.0398
  578MOL0     H76265  -1.653   1.391   1.039 -1.1774 -0.2213  2.0174
  578MOL0     H76266  -1.768   1.286   1.207 -0.3491  0.0183  0.1388
  578MOL0     H76267  -1.734   1.122   1.151  1.2985 -0.1045 -1.3183
  578MOL0     H76268  -1.852   1.330   0.973  0.7894  0.5652  1.5866
  578MOL0     H76269  -1.849   1.156   0.952 -0.5654 -1.7854  1.8711
  578MOL0     H76270  -2.034   1.302   1.143 -0.1945 -1.0339  0.4003
  578MOL0     H76271  -2.013   1.130   1.131 -0.7966  0.9258  0.6724
  578MOL0     H76272  -2.057   1.174   0.869  0.3156 -2.8080  1.5858
  578MOL0     H76273  -2.127   1.324   0.929 -1.6266 -1.7707 -3.4946
  578MOL0     H76274  -2.227   1.082   1.078  3.9186  0.3349  0.6133
  578MOL0     H76275  -2.291   1.239   1.059  2.0780 -0.6277  2.5706
  578MOL0     H76276  -2.252   1.033   0.829 -1.0246 -1.0284  0.2916
  578MOL0     H76277  -2.316   1.194   0.808  0.8122  2.1426  2.3649
  578MOL0     H76278  -1.345   1.281   1.371  1.9246 -2.9036  0.3808
  578MOL0     H76279  -1.126   1.330   1.480 -0.3007  2.7915 -0.3627
  578MOL0     H76280  -0.680   1.525   1.404  1.6236  0.6136 -0.4313
  578MOL0     H76281  -0.469   1.582   1.522 -1.3845  1.1474  1.7491
  578MOL0     H76282   0.596   0.731   1.782 -0.4068 -0.5121  1.3500
  578MOL0     H76283   0.484   0.730   1.550 -1.0547  1.8140 -0.1635
  578MOL0     H76284   0.216   0.613   1.287 -0.4060  0.3015  0.9251
  578MOL0     H76285   0.101   0.557   1.085  2.2913  0.4211  0.6259
  578MOL0     H76286  -0.119   0.507   0.947 -3.1460 -0.3952 -2.0725
  578MOL0     H76287   0.021   0.561   0.864 -0.5947 -2.2849 -0.0749
  578MOL0     H76288  -0.172   0.699   0.722 -0.2118  1.7674  3.1682
  578MOL0     H76289  -0.118   0.539   0.684  0.2966 -0.8867  0.7087
  578MOL0     H76290  -0.357   0.619   0.867 -0.3099  1.2277 -2.6044
  578MOL0     H76291  -0.327   0.452   0.802  1.0479 -0.3304  1.4647
  578MOL0     H76292  -0.430   0.694   0.635 -1.1054 -0.4636 -2.8587
  578MOL0     H76293  -0.333   0.573   0.569  1.7236  3.6795  1.3889
  578MOL0     H76294  -0.679   0.360   0.616 -2.1748  2.4527 -0.7080
  578MOL0     H76295  -0.127   0.923   1.096  0.3102  0.8119 -2.5888
  578MOL0     H76296   0.001   0.983   1.314  0.8341 -0.1115  0.8935
  579MOL0     O76297   0.658   6.589   2.994  0.1748  0.2293 -0.6001
  579MOL0     C76298   0.674   6.563   3.113 -0.2672  1.1501  1.2346
  579MOL0     O76299   0.569   6.519   3.194  0.5285 -0.5502 -0.3506
  579MOL0     C76300   0.454   6.495   3.137  0.0269 -0.0521 -0.2819
  579MOL0     C76301   0.415   6.356   3.130 -1.2483  0.1154  0.1747
  579MOL0     C76302   0.287   6.320   3.091  0.3325  0.6017 -0.0127
  579MOL0     C76303   0.196   6.416   3.054  0.2837 -0.6229 -0.7671
  579MOL0     O76304   0.063   6.385   3.018  0.4955  0.1529  0.1486
  579MOL0     C76305   0.010   6.266   3.074 -0.3447  0.1356  0.2439
  579MOL0     C76306  -0.130   6.266   3.028  0.7432  0.2651  0.1376
  579MOL0     C76307  -0.183   6.128   3.080 -0.2235 -0.3138  0.7216
  579MOL0     C76308  -0.337   6.139   3.061 -0.1573 -0.3463  0.4013
  579MOL0     C76309  -0.408   6.030   3.130 -0.3034 -0.1313 -0.2785
  579MOL0     C76310  -0.393   5.898   3.055 -0.3258  0.2729  0.0757
  579MOL0     C76311  -0.477   5.788   3.117  0.8699 -0.9763 -0.8561
  579MOL0     C76312  -0.633   5.819   3.124  0.2436  0.4909 -0.0849
  579MOL0     N76313  -0.688   5.848   2.995 -0.1540 -0.4893  0.3128
  579MOL0     C76314  -0.730   5.754   2.901 -0.6473 -0.4372 -0.1292
  579MOL0     C76315  -0.800   5.821   2.813 -0.4698 -0.1082  0.3453
  579MOL0     C76316  -0.874   5.757   2.695  0.3772 -0.6979  0.2417
  579MOL0     C76317  -1.004   5.692   2.747  0.1175  0.3041  0.5468
  579MOL0     C76318  -1.108   5.663   2.633  0.3107  0.7939 -0.1820
  579MOL0     C76319  -1.233   5.605   2.689  0.5462  0.2214 -0.2220
  579MOL0     O76320  -1.207   5.464   2.719 -0.2932 -0.3346 -0.0022
  579MOL0     C76321  -1.315   5.387   2.771 -0.4483  0.1408  0.0930
  579MOL0     C76322  -1.437   5.441   2.803  0.7750  0.2223 -0.3147
  579MOL0     C76323  -1.545   5.363   2.855 -0.5957  0.0675  0.6488
  579MOL0     C76324  -1.521   5.224   2.870 -0.3129  0.2552  0.0823
  579MOL0     C76325  -1.618   5.132   2.941 -0.4181  0.3964  0.3828
  579MOL0     O76326  -1.735   5.197   2.963 -0.0638 -0.2678 -0.6659
  579MOL0     C76327  -1.845   5.131   3.011  0.0105  0.0466 -0.1576
  579MOL0     C76328  -1.842   5.056   3.138  0.7756  0.4119 -0.2287
  579MOL0     C76329  -1.960   4.996   3.185 -0.5948 -0.2990  0.4411
  579MOL0     C76330  -2.074   4.998   3.102 -0.2014  0.4662 -0.4483
  579MOL0     O76331  -2.183   4.918   3.149 -0.2999  0.1330 -0.1015
  579MOL0     C76332  -2.315   4.971   3.125 -0.2727 -0.6682 -0.8346
  579MOL0     C76333  -2.413   4.883   3.196  0.1152  0.0585 -0.0795
  579MOL0     C76334  -2.549   4.950   3.195 -0.9792  0.6889  0.3684
  579MOL0     C76335  -2.662   4.854   3.244  0.1798  0.1259  0.2182
  579MOL0     C76336  -2.727   4.907   3.377 -0.1727  0.3319 -0.3339
  579MOL0     C76337  -2.631   4.900   3.493 -0.5995  0.5242  0.2558
  579MOL0     C76338  -2.677   4.958   3.623 -0.9165  0.4971  0.8219
  579MOL0     C76339  -2.684   5.112   3.616 -0.2032 -0.2635 -0.0154
  579MOL0    Cl76340  -2.525   5.170   3.683  0.1621 -0.0828  0.2060
  579MOL0     C76341  -2.075   5.072   2.979  0.0598 -0.1271 -0.2479
  579MOL0     C76342  -1.957   5.132   2.927 -0.7251 -0.1291  0.5862
  579MOL0     O76343  -1.588   5.015   2.981 -0.4699 -0.6118  1.2671
  579MOL0     C76344  -1.400   5.166   2.822  0.6961 -0.3244  0.4235
  579MOL0     C76345  -1.294   5.245   2.779  0.3637  0.3980  0.5511
  579MOL0     N76346  -0.797   5.950   2.845 -0.5652  0.0379 -0.3864
  579MOL0     N76347  -0.722   5.970   2.948  0.4856  0.7706  0.7554
  579MOL0     C76348   0.226   6.552   3.069 -0.0063  0.1900  0.1725
  579MOL0     C76349   0.362   6.594   3.116  0.1157  1.0559  0.0968
  579MOL0     C76350   0.810   6.557   3.169  0.8875  0.1331 -0.1076
  579MOL0     C76351   0.831   6.523   3.304  0.0462  0.6044  0.2666
  579MOL0     C76352   0.967   6.517   3.353 -0.0761  0.1163  0.1679
  579MOL0     C76353   1.078   6.541   3.273  0.1598 -0.3335 -0.4132
  579MOL0     O76354   1.196   6.526   3.337 -0.3134  0.6129  0.6242
  579MOL0     C76355   1.313   6.547   3.256  0.0640 -0.1671 -0.2239
  579MOL0     C76356   1.441   6.518   3.339 -0.4970  0.5222  0.1933
  579MOL0     C76357   1.487   6.635   3.431  0.0979  0.4088 -0.8775
  579MOL0     C76358   1.577   6.576   3.534 -0.4233 -0.3437  0.3635
  579MOL0     C76359   1.616   6.695   3.615  0.5361  0.6403 -0.1931
  579MOL0     C76360   1.652   6.787   3.690 -0.5678  0.5653 -0.3782
  579MOL0     C76361   1.057   6.571   3.141  0.1389 -0.9302  0.2647
  579MOL0     C76362   0.923   6.581   3.088 -0.0287  0.7592  0.4094
  579MOL0     H76363   0.490   6.282   3.157  0.5672  2.2753  1.3915
  579MOL0     H76364   0.251   6.218   3.100  3.5662 -0.9552 -2.4255
  579MOL0     H76365   0.014   6.268   3.183 -0.5341  0.6316  0.2422
  579MOL0     H76366   0.057   6.175   3.035  0.9420  0.2488  1.4437
  579MOL0     H76367  -0.138   6.272   2.919 -1.3147 -2.0592  0.0605
  579MOL0     H76368  -0.189   6.342   3.082 -1.9283 -1.1892 -0.5315
  579MOL0     H76369  -0.159   6.099   3.182  0.9711 -0.2765  0.4750
  579MOL0     H76370  -0.140   6.054   3.011 -1.7503  0.6338 -1.3691
  579MOL0     H76371  -0.363   6.231   3.115  2.2725  0.7821 -0.1937
  579MOL0     H76372  -0.368   6.147   2.957 -3.1915  1.8995  1.3394
  579MOL0     H76373  -0.514   6.058   3.138 -0.1664  0.1545  0.5927
  579MOL0     H76374  -0.366   6.019   3.230  1.1337 -0.0001 -0.8457
  579MOL0     H76375  -0.291   5.857   3.060 -1.0539 -1.5413  1.5881
  579MOL0     H76376  -0.424   5.910   2.951  0.3298  0.3831 -0.1092
  579MOL0     H76377  -0.452   5.696   3.064  1.6185 -2.4329  1.8532
  579MOL0     H76378  -0.441   5.775   3.220 -0.6200  1.7098  0.1092
  579MOL0     H76379  -0.656   5.900   3.194 -0.2182  0.8977 -0.6987
  579MOL0     H76380  -0.691   5.734   3.161 -2.1461  0.9816 -2.4522
  579MOL0     H76381  -0.722   5.647   2.910 -0.0211 -0.3410  0.5356
  579MOL0     H76382  -0.813   5.689   2.635  0.0439 -0.3166 -0.5504
  579MOL0     H76383  -0.901   5.840   2.629 -1.5898 -0.0767  1.7554
  579MOL0     H76384  -1.041   5.763   2.821  3.9868  1.4570  1.6319
  579MOL0     H76385  -0.973   5.601   2.800  0.8403 -0.4432 -1.0756
  579MOL0     H76386  -1.139   5.752   2.578  2.3460  2.2469  0.9129
  579MOL0     H76387  -1.074   5.583   2.567 -3.9390 -1.8046  0.3740
  579MOL0     H76388  -1.318   5.614   2.621 -0.5255 -0.6630  0.9438
  579MOL0     H76389  -1.255   5.658   2.782  2.6663 -0.6202  0.8246
  579MOL0     H76390  -1.449   5.547   2.784  3.0355  0.2399 -2.0052
  579MOL0     H76391  -1.638   5.406   2.891 -2.2248  0.6862 -3.7657
  579MOL0     H76392  -1.756   5.059   3.205 -0.3390 -1.2054  1.3816
  579MOL0     H76393  -1.958   4.939   3.277 -1.1067  0.0519  0.6694
  579MOL0     H76394  -2.340   4.990   3.020  1.0067  0.9499 -0.8992
  579MOL0     H76395  -2.309   5.067   3.177 -0.5283 -2.7232  3.4249
  579MOL0     H76396  -2.381   4.881   3.300 -0.1564 -0.6341 -0.0060
  579MOL0     H76397  -2.413   4.781   3.157  0.1791  0.3482 -0.8803
  579MOL0     H76398  -2.564   4.985   3.093  1.3023 -2.2279 -1.1088
  579MOL0     H76399  -2.544   5.036   3.263 -0.6545  0.9605  0.0031
  579MOL0     H76400  -2.736   4.845   3.164  0.6405 -2.2025 -0.0285
  579MOL0     H76401  -2.620   4.754   3.258  0.8401  0.2582 -0.7038
  579MOL0     H76402  -2.818   4.852   3.402  0.3938 -0.5447 -0.1687
  579MOL0     H76403  -2.756   5.012   3.365 -1.7648 -0.1706 -1.2894
  579MOL0     H76404  -2.532   4.943   3.475  1.4396 -4.0640 -0.7945
  579MOL0     H76405  -2.611   4.793   3.505  1.5098  0.5914 -1.9900
  579MOL0     H76406  -2.772   4.904   3.630 -0.2448 -0.5742  2.2370
  579MOL0     H76407  -2.610   4.930   3.705  2.2849  2.0177 -1.1264
  579MOL0     H76408  -2.767   5.144   3.679 -1.6209 -0.2181 -1.8283
  579MOL0     H76409  -2.708   5.161   3.521 -1.5540 -1.6624 -0.4231
  579MOL0     H76410  -2.163   5.077   2.915 -0.7246  0.8869  0.8806
  579MOL0     H76411  -1.943   5.183   2.833  0.4717  1.1145  1.4031
  579MOL0     H76412  -1.385   5.058   2.815  1.6950 -0.1004 -2.4321
  579MOL0     H76413  -1.201   5.197   2.749 -1.2032 -1.7778 -1.2536
  579MOL0     H76414   0.150   6.620   3.032 -0.7814  0.3182  1.8868
  579MOL0     H76415   0.384   6.700   3.121  0.7452  1.0290 -1.6197
  579MOL0     H76416   0.754   6.501   3.377  1.7577  0.8831  2.2658
  579MOL0     H76417   0.986   6.498   3.458  0.5894 -5.1381 -0.6400
  579MOL0     H76418   1.324   6.640   3.199 -1.0036 -0.6641 -1.2915
  579MOL0     H76419   1.297   6.469   3.181  1.4648 -0.9169  0.2184
  579MOL0     H76420   1.420   6.427   3.397 -0.1809 -0.5885 -1.3540
  579MOL0     H76421   1.523   6.506   3.268  0.3930 -0.2600  1.3083
  579MOL0     H76422   1.396   6.671   3.479  0.8229  0.7234  0.3009
  579MOL0     H76423   1.524   6.716   3.367 -1.4947  1.1456 -0.9273
  579MOL0     H76424   1.522   6.506   3.597 -1.4521  2.9858  3.5222
  579MOL0     H76425   1.669   6.541   3.487 -0.2804  0.1346  0.2769
  579MOL0     H76426   1.675   6.867   3.757 -2.9765  0.4078  0.7650
  579MOL0     H76427   1.135   6.608   3.075  0.5734  0.1985  1.3857
  579MOL0     H76428   0.919   6.604   2.982  3.0617  1.7660  0.3945
  580MOL0     O76429  10.681   4.753   8.824 -0.5174  0.0641  0.6850
  580MOL0     C76430  10.751   4.650   8.823  0.4395 -0.2843 -0.3490
  580MOL0     O76431  10.716   4.526   8.884  0.3434 -0.3294  0.1468
  580MOL0     C76432  10.599   4.536   8.960  0.5036  0.1261  0.1647
  580MOL0     C76433  10.479   4.482   8.911  0.0072 -0.5655  0.2714
  580MOL0     C76434  10.369   4.479   8.993  0.4948 -0.6041 -0.1689
  580MOL0     C76435  10.372   4.528   9.128 -0.1054  0.8401  0.0935
  580MOL0     O76436  10.256   4.518   9.195 -0.0229 -0.3873  0.0131
  580MOL0     C76437  10.248   4.558   9.334  0.0493  0.0256  0.3900
  580MOL0     C76438  10.100   4.517   9.379 -0.0927 -0.3812  0.6358
  580MOL0     C76439  10.074   4.363   9.374 -0.3524 -0.3847  0.6738
  580MOL0     C76440   9.947   4.320   9.441 -0.4085 -0.5728  0.4980
  580MOL0     C76441   9.813   4.370   9.365  0.5468  0.2793 -0.4395
  580MOL0     C76442   9.681   4.351   9.446  0.2011  0.0912  0.3515
  580MOL0     C76443   9.578   4.425   9.367 -0.2519  0.8087  0.0415
  580MOL0     C76444   9.440   4.412   9.426 -0.6379 -0.2068  0.0125
  580MOL0     N76445   9.338   4.482   9.344 -0.1211 -0.2374  0.2348
  580MOL0     C76446   9.321   4.459   9.212 -0.0555 -0.0554 -0.8221
  580MOL0     C76447   9.197   4.501   9.181 -0.5249 -0.9438 -1.2305
  580MOL0     C76448   9.135   4.474   9.051  0.3705 -0.5095  0.8875
  580MOL0     C76449   9.032   4.579   9.018  0.6043  0.3375  0.7060
  580MOL0     C76450   8.992   4.571   8.878 -0.0925 -0.2922  0.8079
  580MOL0     C76451   8.904   4.679   8.831 -0.7701 -0.3334  0.1730
  580MOL0     O76452   8.767   4.648   8.865 -0.0115  0.3651 -0.1858
  580MOL0     C76453   8.660   4.712   8.808  0.0542  0.3427  0.1209
  580MOL0     C76454   8.657   4.781   8.694  0.3913 -0.8806  0.1128
  580MOL0     C76455   8.549   4.860   8.650 -0.0249  0.1835  0.9322
  580MOL0     C76456   8.426   4.863   8.718 -0.3157  0.0381  0.2377
  580MOL0     C76457   8.305   4.936   8.669 -0.6667  0.1835 -0.7744
  580MOL0     O76458   8.317   5.026   8.571 -0.0376 -0.4400  0.3441
  580MOL0     C76459   8.201   5.092   8.530  0.0906  0.3781 -0.4820
  580MOL0     C76460   8.110   5.016   8.450  0.4476  0.2516 -0.6919
  580MOL0     C76461   8.003   5.083   8.394  0.3909  0.1831 -0.3669
  580MOL0     C76462   7.983   5.219   8.416  0.1659  0.1024  0.1147
  580MOL0     O76463   7.871   5.291   8.366 -0.7129 -0.3867 -0.4692
  580MOL0     C76464   7.745   5.229   8.388 -0.1658  0.4722  0.1155
  580MOL0     C76465   7.628   5.309   8.325 -0.2231 -0.1577 -0.1583
  580MOL0     C76466   7.496   5.259   8.382  0.0267 -0.3971 -0.3870
  580MOL0     C76467   7.388   5.328   8.301  0.8436  0.0025 -0.3508
  580MOL0     C76468   7.249   5.286   8.357  0.1643  0.3000  0.0882
  580MOL0     C76469   7.132   5.349   8.287  0.0209 -0.1858 -0.0963
  580MOL0     C76470   7.002   5.303   8.351 -0.6393  0.8855 -0.5896
  580MOL0     C76471   6.982   5.323   8.502 -0.0920  0.7027 -0.6181
  580MOL0    Cl76472   7.003   5.498   8.520  0.5139 -0.0376  0.0240
  580MOL0     C76473   8.070   5.291   8.496  0.1040 -0.1324  0.7366
  580MOL0     C76474   8.178   5.225   8.558  0.2590  0.8109 -0.4223
  580MOL0     O76475   8.207   4.922   8.736  0.4474 -0.9978 -0.0466
  580MOL0     C76476   8.421   4.782   8.831 -0.1216  0.3205  0.3329
  580MOL0     C76477   8.537   4.710   8.876  0.0928  0.5552  0.5804
  580MOL0     N76478   9.151   4.579   9.287  0.0972  0.2788 -0.2482
  580MOL0     N76479   9.244   4.579   9.384 -0.8841 -0.2520  0.0936
  580MOL0     C76480  10.490   4.585   9.168 -0.2393 -0.0035 -0.2011
  580MOL0     C76481  10.603   4.591   9.089 -0.5115 -0.4794  0.2510
  580MOL0     C76482  10.866   4.643   8.734  0.1478  0.2356 -0.0022
  580MOL0     C76483  10.908   4.520   8.685 -0.2959  0.7573  0.5783
  580MOL0     C76484  11.021   4.512   8.598  0.5120  0.6767 -0.4323
  580MOL0     C76485  11.092   4.633   8.569 -0.2074  0.4741  0.1883
  580MOL0     O76486  11.205   4.629   8.489  0.6103  0.4006  0.7440
  580MOL0     C76487  11.202   4.534   8.381  0.4202  0.0162  0.6969
  580MOL0     C76488  11.286   4.408   8.407 -0.0260 -0.1710 -0.6828
  580MOL0     C76489  11.231   4.287   8.346  0.3719  0.3497  0.4532
  580MOL0     C76490  11.341   4.188   8.325  0.5049  0.6720  0.0204
  580MOL0     C76491  11.291   4.070   8.246 -0.5565 -0.8218  0.5271
  580MOL0     C76492  11.226   3.987   8.189  1.0201  0.4468 -0.3583
  580MOL0     C76493  11.052   4.753   8.622 -0.2193 -0.3376  0.5752
  580MOL0     C76494  10.938   4.761   8.701  0.6148 -0.1437  0.0223
  580MOL0     H76495  10.480   4.448   8.808  1.5757  0.8494 -0.2297
  580MOL0     H76496  10.275   4.439   8.954  1.0419  0.0734 -2.2862
  580MOL0     H76497  10.254   4.667   9.340 -3.4054  0.2551  2.1531
  580MOL0     H76498  10.309   4.501   9.404  0.8419  0.1904 -0.1571
  580MOL0     H76499  10.025   4.572   9.322 -1.7418 -1.3923  1.7691
  580MOL0     H76500  10.084   4.549   9.482  1.5263 -0.8397  1.0654
  580MOL0     H76501  10.150   4.305   9.428 -0.6560 -0.6477  0.8238
  580MOL0     H76502  10.061   4.332   9.270  2.1123  0.0578  0.1754
  580MOL0     H76503   9.936   4.213   9.458  0.5334 -0.4545  2.0960
  580MOL0     H76504   9.955   4.355   9.545  1.6053 -1.4328  0.6821
  580MOL0     H76505   9.808   4.310   9.274  0.0821 -0.8190  0.2894
  580MOL0     H76506   9.814   4.476   9.338  0.9298  0.3621 -0.1224
  580MOL0     H76507   9.694   4.405   9.541 -3.2808  2.4733 -0.3357
  580MOL0     H76508   9.652   4.246   9.459 -2.1255  0.5507 -0.7386
  580MOL0     H76509   9.607   4.531   9.363  1.0771  0.7256  3.7973
  580MOL0     H76510   9.593   4.387   9.265  2.8965  0.0667  0.6705
  580MOL0     H76511   9.449   4.461   9.523  1.7817 -1.6828  0.6172
  580MOL0     H76512   9.409   4.307   9.429 -0.3293 -0.3965 -2.0502
  580MOL0     H76513   9.366   4.384   9.148 -0.8767 -1.5569  0.2887
  580MOL0     H76514   9.082   4.379   9.067  1.2790 -0.7369  2.8244
  580MOL0     H76515   9.212   4.459   8.975 -1.4258 -1.0008 -0.8988
  580MOL0     H76516   9.073   4.680   9.033 -0.9347  0.7233  2.7926
  580MOL0     H76517   8.944   4.564   9.082  0.3208 -2.4960 -0.2119
  580MOL0     H76518   9.079   4.586   8.813  0.0926  2.6662  1.5812
  580MOL0     H76519   8.956   4.475   8.840  1.7953 -0.2905 -1.1386
  580MOL0     H76520   8.914   4.678   8.723  1.3420 -1.5603  0.3237
  580MOL0     H76521   8.926   4.779   8.872 -3.3824  0.6544 -0.6479
  580MOL0     H76522   8.747   4.774   8.634 -0.6079 -3.4106 -1.2372
  580MOL0     H76523   8.563   4.911   8.555  3.0091  0.5652  1.4737
  580MOL0     H76524   8.131   4.912   8.429  0.9589 -0.2394  1.8924
  580MOL0     H76525   7.933   5.027   8.332 -1.5329  2.3900 -0.3093
  580MOL0     H76526   7.726   5.231   8.496 -0.3271 -1.2783  0.1555
  580MOL0     H76527   7.744   5.124   8.357 -0.9787  0.2670  0.8017
  580MOL0     H76528   7.629   5.285   8.218 -1.0188  1.1578 -0.4802
  580MOL0     H76529   7.629   5.418   8.333  0.0713 -0.2962  2.5498
  580MOL0     H76530   7.485   5.287   8.487 -0.7622  1.4155 -0.9077
  580MOL0     H76531   7.494   5.150   8.375 -2.1335 -0.3169 -4.4356
  580MOL0     H76532   7.393   5.435   8.322 -0.7209 -0.3582  2.4169
  580MOL0     H76533   7.398   5.311   8.194  2.5769 -0.0509 -0.2080
  580MOL0     H76534   7.250   5.314   8.463 -0.3292  2.0768 -0.3392
  580MOL0     H76535   7.249   5.177   8.353 -0.6882  0.1251  2.6452
  580MOL0     H76536   7.132   5.313   8.183 -1.8935 -0.6833  0.0442
  580MOL0     H76537   7.137   5.458   8.281  0.2465 -0.0016  2.4248
  580MOL0     H76538   6.922   5.363   8.306  1.6126  2.9323 -2.1280
  580MOL0     H76539   6.980   5.200   8.322 -0.6332  0.4331  0.9058
  580MOL0     H76540   7.054   5.261   8.556 -1.0790 -2.2487 -2.4288
  580MOL0     H76541   6.880   5.300   8.533  0.8061 -2.7644  0.2885
  580MOL0     H76542   8.065   5.399   8.500 -2.5153 -0.1739  0.4067
  580MOL0     H76543   8.250   5.278   8.620  0.7762 -1.5128  1.0839
  580MOL0     H76544   8.325   4.767   8.881 -0.4432 -4.4324 -1.1492
  580MOL0     H76545   8.529   4.659   8.972  0.8003  0.6769  0.7140
  580MOL0     H76546  10.492   4.624   9.269  1.2135 -1.4902  0.3707
  580MOL0     H76547  10.695   4.641   9.119 -0.4155  1.0184 -2.2645
  580MOL0     H76548  10.870   4.431   8.734 -1.7128  1.4541  0.7952
  580MOL0     H76549  11.049   4.415   8.558  0.7932  0.4891  0.2066
  580MOL0     H76550  11.254   4.580   8.295 -2.3187  1.5517 -0.2499
  580MOL0     H76551  11.100   4.517   8.346  0.4556  2.3146 -0.7471
  580MOL0     H76552  11.392   4.432   8.396 -0.6464  2.8299 -0.9973
  580MOL0     H76553  11.271   4.394   8.514  1.2042  1.5375 -0.2456
  580MOL0     H76554  11.187   4.301   8.247  1.5930 -1.1264 -0.3225
  580MOL0     H76555  11.159   4.234   8.410  3.1008 -1.7981  1.9535
  580MOL0     H76556  11.424   4.223   8.263  0.7923 -0.4677 -0.2677
  580MOL0     H76557  11.380   4.153   8.421 -1.1884 -1.0024  0.1650
  580MOL0     H76558  11.166   3.909   8.145  1.5351  0.6954 -1.5481
  580MOL0     H76559  11.103   4.845   8.593  0.4743  0.3371  3.5078
  580MOL0     H76560  10.903   4.860   8.730  1.4363 -0.4237  2.1651
  581MOL0     O76561   2.110   6.228  10.306  0.0368 -0.9703 -0.2911
  581MOL0     C76562   2.053   6.339  10.292 -0.4703  0.2168 -0.8607
  581MOL0     O76563   2.117   6.458  10.304  0.2625  0.5275 -0.0243
  581MOL0     C76564   2.255   6.458  10.306  0.6920  0.0226  0.6212
  581MOL0     C76565   2.313   6.568  10.375 -0.3925  0.1924  0.0603
  581MOL0     C76566   2.454   6.583  10.384  1.2136 -0.1017  0.1121
  581MOL0     C76567   2.542   6.498  10.314  1.0841 -0.4999  0.0596
  581MOL0     O76568   2.673   6.512  10.336 -0.9624 -0.4655  0.1325
  581MOL0     C76569   2.758   6.395  10.313 -0.1162  0.2198 -0.6350
  581MOL0     C76570   2.892   6.415  10.395  0.4161  0.2301  0.2489
  581MOL0     C76571   2.983   6.297  10.389 -1.4532 -0.2511 -0.5648
  581MOL0     C76572   3.125   6.349  10.430  0.3027 -0.6397 -0.2313
  581MOL0     C76573   3.224   6.232  10.421  0.3562  0.4841  0.4544
  581MOL0     C76574   3.352   6.283  10.478  0.2829 -0.3894 -0.2345
  581MOL0     C76575   3.485   6.197  10.472 -0.1228  0.0047  0.9315
  581MOL0     C76576   3.612   6.279  10.475  0.0992  0.6098 -0.2560
  581MOL0     N76577   3.625   6.356  10.353  0.2070 -0.2048  0.5399
  581MOL0     C76578   3.633   6.301  10.226  1.0898  0.4891  0.2522
  581MOL0     C76579   3.604   6.400  10.143  0.7796 -0.2991 -0.7599
  581MOL0     C76580   3.578   6.405   9.989  0.7618  0.3378 -0.0389
  581MOL0     C76581   3.430   6.426   9.954 -0.0249  0.0008 -0.5147
  581MOL0     C76582   3.348   6.309   9.999  0.4606  0.1770 -0.1733
  581MOL0     C76583   3.199   6.344   9.959  0.0775 -0.2934 -0.4791
  581MOL0     O76584   3.121   6.237  10.000  0.1283 -0.8655  0.1040
  581MOL0     C76585   2.984   6.237   9.975 -0.5324  1.1843  0.0958
  581MOL0     C76586   2.910   6.124  10.006 -0.0736  0.3843 -0.2867
  581MOL0     C76587   2.770   6.118   9.985 -0.5803  0.4550  0.0158
  581MOL0     C76588   2.701   6.230   9.931  0.2280 -0.5867 -0.0503
  581MOL0     C76589   2.551   6.224   9.904 -0.2238 -0.2880  0.1328
  581MOL0     O76590   2.489   6.110   9.935 -0.1632  0.2582  0.7817
  581MOL0     C76591   2.344   6.110   9.912 -0.2460  0.2012  0.0678
  581MOL0     C76592   2.261   6.067  10.008  1.4380 -0.0151 -0.4124
  581MOL0     C76593   2.128   6.074   9.983  0.1092  0.5370  0.4450
  581MOL0     C76594   2.066   6.114   9.864 -0.3671  0.3154 -0.0835
  581MOL0     O76595   1.934   6.117   9.837 -0.0706 -0.4396 -0.1756
  581MOL0     C76596   1.844   6.107   9.951  1.0247  0.1487  0.2815
  581MOL0     C76597   1.703   6.055   9.913 -0.5023 -0.5430 -0.5820
  581MOL0     C76598   1.613   6.042  10.039 -0.6338  0.1908  0.7241
  581MOL0     C76599   1.482   5.967  10.037 -0.2149  0.5714  0.1323
  581MOL0     C76600   1.408   6.005  10.170 -0.0404 -0.1183 -0.1284
  581MOL0     C76601   1.274   5.938  10.151 -0.2456 -0.9382 -0.2872
  581MOL0     C76602   1.183   5.941  10.279 -0.2028 -0.2812 -0.7948
  581MOL0     C76603   1.038   5.899  10.247  0.0941 -0.5692  0.2392
  581MOL0    Cl76604   0.982   6.027  10.140  0.4911  0.6048  0.1191
  581MOL0     C76605   2.153   6.149   9.763  0.2429  1.0649  0.0132
  581MOL0     C76606   2.291   6.144   9.786  0.1664 -0.0204 -0.0849
  581MOL0     O76607   2.500   6.330   9.860  0.4027  0.0740  0.4454
  581MOL0     C76608   2.782   6.340   9.896  0.0329  0.5377  0.6010
  581MOL0     C76609   2.918   6.342   9.912  0.4354  0.8269 -0.3405
  581MOL0     N76610   3.605   6.518  10.218  0.3770 -0.5621 -0.1066
  581MOL0     N76611   3.606   6.489  10.337  0.3207 -0.3949 -0.5772
  581MOL0     C76612   2.484   6.400  10.233 -0.4311 -0.3549  0.3738
  581MOL0     C76613   2.347   6.384  10.230 -0.2695 -0.1768  0.8324
  581MOL0     C76614   1.906   6.339  10.281 -0.0430 -0.2520  0.2708
  581MOL0     C76615   1.842   6.463  10.274 -0.3574 -0.0984  1.1535
  581MOL0     C76616   1.702   6.476  10.280 -0.7166  0.8564  0.2270
  581MOL0     C76617   1.629   6.358  10.298 -1.1591  0.5659 -0.0530
  581MOL0     O76618   1.495   6.343  10.308  0.1091 -0.2167  0.2425
  581MOL0     C76619   1.415   6.468  10.324 -0.9261  0.5194  0.6205
  581MOL0     C76620   1.284   6.430  10.391 -0.3049 -0.1426 -0.2899
  581MOL0     C76621   1.178   6.365  10.303 -0.8950  0.2518 -0.0720
  581MOL0     C76622   1.077   6.460  10.238 -0.5373 -0.0094  0.4061
  581MOL0     C76623   1.144   6.557  10.154  0.2045  0.7748  0.9318
  581MOL0     C76624   1.208   6.633  10.085 -0.1062  0.2275 -0.0966
  581MOL0     C76625   1.691   6.230  10.306 -0.1930 -0.3481  0.2369
  581MOL0     C76626   1.832   6.217  10.299 -0.2099  0.2475 -0.5522
  581MOL0     H76627   2.244   6.630  10.431 -1.6698 -1.0712 -0.0786
  581MOL0     H76628   2.503   6.657  10.447  2.6760 -2.0884  1.4561
  581MOL0     H76629   2.787   6.387  10.208  2.7351 -1.3470  0.1852
  581MOL0     H76630   2.715   6.299  10.344 -0.3053  0.4424 -0.1986
  581MOL0     H76631   2.869   6.431  10.501 -2.5979 -0.0536 -0.2460
  581MOL0     H76632   2.933   6.506  10.351 -1.8841  1.6526  0.8373
  581MOL0     H76633   2.995   6.264  10.285  1.3677 -1.9660  0.1977
  581MOL0     H76634   2.942   6.218  10.453 -0.4744  1.6451  2.6423
  581MOL0     H76635   3.157   6.432  10.367  0.9489 -0.2447  0.5993
  581MOL0     H76636   3.115   6.390  10.530  0.3723  2.0007 -1.2429
  581MOL0     H76637   3.225   6.197  10.318 -5.0631 -2.4448  1.0367
  581MOL0     H76638   3.189   6.153  10.487 -1.1105 -0.5667 -1.4843
  581MOL0     H76639   3.325   6.314  10.579  0.0240  5.5890 -1.7807
  581MOL0     H76640   3.373   6.376  10.426  0.3371  0.5515  1.4043
  581MOL0     H76641   3.493   6.125  10.554 -1.8049 -0.5139  0.6855
  581MOL0     H76642   3.472   6.139  10.380 -0.4163  2.0593 -0.3703
  581MOL0     H76643   3.700   6.215  10.480 -0.5594 -0.2381  1.1979
  581MOL0     H76644   3.619   6.336  10.568 -2.2733 -3.3613  2.6991
  581MOL0     H76645   3.648   6.197  10.197 -0.8983  0.8514 -2.4439
  581MOL0     H76646   3.612   6.311   9.945 -0.2959 -2.0714  3.7709
  581MOL0     H76647   3.645   6.485   9.957  1.9671 -0.3643  0.6271
  581MOL0     H76648   3.423   6.446   9.846 -0.2207  2.2592 -0.1329
  581MOL0     H76649   3.396   6.516  10.005 -0.1980  0.2985 -1.1517
  581MOL0     H76650   3.372   6.215   9.949 -0.4003 -1.0229  1.5648
  581MOL0     H76651   3.367   6.290  10.105  0.4785 -0.1823 -0.2403
  581MOL0     H76652   3.174   6.376   9.858 -2.4836  1.4363  0.5799
  581MOL0     H76653   3.167   6.427  10.023 -0.2446 -1.2004  0.5821
  581MOL0     H76654   2.964   6.037  10.042  0.5573  1.2954  1.0584
  581MOL0     H76655   2.714   6.027   9.998 -0.3665  0.4312  0.8025
  581MOL0     H76656   2.310   6.036  10.100  1.1778  1.8800  0.4137
  581MOL0     H76657   2.063   6.046  10.065 -0.1197 -2.1667 -0.5609
  581MOL0     H76658   1.828   6.202  10.002 -2.5832  0.6693 -1.5488
  581MOL0     H76659   1.879   6.030  10.021 -1.4067 -0.6240  0.7290
  581MOL0     H76660   1.706   5.951   9.879 -0.5533 -1.1194  1.0530
  581MOL0     H76661   1.661   6.116   9.833  0.0351 -0.1034 -0.5350
  581MOL0     H76662   1.591   6.143  10.073 -2.9340  0.3233 -1.0061
  581MOL0     H76663   1.666   5.981  10.114 -0.8313  1.0121  1.5572
  581MOL0     H76664   1.419   6.002   9.955  1.2928 -0.0334 -1.3283
  581MOL0     H76665   1.496   5.860  10.023 -1.4408  0.4942 -0.6141
  581MOL0     H76666   1.398   6.113  10.181 -1.9924 -0.0644 -1.7471
  581MOL0     H76667   1.456   5.961  10.258  0.6320 -0.5363 -0.6851
  581MOL0     H76668   1.292   5.831  10.141 -4.4682 -1.9616  1.1387
  581MOL0     H76669   1.213   5.970  10.065  2.5287  2.6781 -1.2056
  581MOL0     H76670   1.236   5.874  10.348  1.3720 -1.0109 -2.6242
  581MOL0     H76671   1.183   6.042  10.321  1.2087 -0.4067 -0.4556
  581MOL0     H76672   0.976   5.883  10.335 -2.5941 -0.4704 -1.5302
  581MOL0     H76673   1.025   5.801  10.201 -1.5279 -0.5488  0.5929
  581MOL0     H76674   2.120   6.178   9.664  1.4673 -1.3327 -1.1811
  581MOL0     H76675   2.357   6.178   9.707 -2.9624 -0.3010 -3.0512
  581MOL0     H76676   2.739   6.428   9.850  0.0126  1.0104  1.5046
  581MOL0     H76677   2.975   6.429   9.882 -0.4328  2.4284  2.2807
  581MOL0     H76678   2.546   6.332  10.174  1.1754  0.3491  1.1911
  581MOL0     H76679   2.307   6.306  10.166 -0.5503  0.1507  0.6048
  581MOL0     H76680   1.897   6.554  10.253 -2.7823  1.0334 -0.7608
  581MOL0     H76681   1.660   6.576  10.274 -1.3690  0.5207 -2.9708
  581MOL0     H76682   1.405   6.512  10.224 -0.6881  0.6359  0.6481
  581MOL0     H76683   1.471   6.542  10.382  0.5849 -0.1742  0.0799
  581MOL0     H76684   1.317   6.372  10.477  2.3904 -1.4345 -2.0420
  581MOL0     H76685   1.240   6.528  10.414 -0.1786  0.9380 -3.9739
  581MOL0     H76686   1.132   6.289  10.367 -3.3852  3.3692  2.1406
  581MOL0     H76687   1.225   6.322  10.214 -0.1680  3.2389 -1.2647
  581MOL0     H76688   1.019   6.407  10.162  1.9017 -0.9286 -0.9427
  581MOL0     H76689   1.011   6.517  10.305  0.6141  3.3887 -1.1207
  581MOL0     H76690   1.279   6.688  10.027  1.1574 -0.8200  0.4139
  581MOL0     H76691   1.631   6.140  10.311  2.8235 -2.5291 -0.1932
  581MOL0     H76692   1.883   6.122  10.304  1.7323  1.2322 -0.6755
  582MOL0     O76693   3.639   3.283  10.220 -0.6897  0.1324  0.1811
  582MOL0     C76694   3.687   3.175  10.261 -0.5625 -0.0123 -0.1655
  582MOL0     O76695   3.621   3.052  10.274 -0.6466  0.1986 -0.9232
  582MOL0     C76696   3.492   3.035  10.234  0.0810 -0.2761  0.8722
  582MOL0     C76697   3.409   2.953  10.314  0.0952  0.9526 -0.8897
  582MOL0     C76698   3.276   2.940  10.277 -0.5701 -0.7697 -0.5750
  582MOL0     C76699   3.220   2.990  10.165 -0.3127 -0.0800  0.2219
  582MOL0     O76700   3.089   2.968  10.132 -1.1222  0.5146  0.2042
  582MOL0     C76701   3.065   2.848  10.066 -1.0429 -0.3193  1.1009
  582MOL0     C76702   2.914   2.822  10.052 -0.4507 -0.1263 -0.0680
  582MOL0     C76703   2.859   2.932   9.952  0.8035  0.0820 -0.5489
  582MOL0     C76704   2.703   2.918   9.941 -0.6202 -0.0115 -0.9390
  582MOL0     C76705   2.638   2.973  10.073  1.0197  0.1902 -0.3224
  582MOL0     C76706   2.505   3.049  10.024  0.1135  0.5909 -0.1380
  582MOL0     C76707   2.446   3.112  10.139 -0.2059  0.6581  0.3436
  582MOL0     C76708   2.298   3.144  10.121  0.0601 -0.3508  0.2711
  582MOL0     N76709   2.232   3.208  10.233 -0.5174 -0.4665 -0.6971
  582MOL0     C76710   2.095   3.220  10.246  0.8980 -0.1097 -0.3002
  582MOL0     C76711   2.070   3.318  10.331 -0.2709 -0.8377 -0.4226
  582MOL0     C76712   1.942   3.380  10.374  0.2450  0.7711  0.3925
  582MOL0     C76713   1.856   3.298  10.474  0.3911  0.4171  0.7531
  582MOL0     C76714   1.773   3.397  10.562  0.0093 -0.8651  0.1825
  582MOL0     C76715   1.690   3.331  10.665 -0.5193  1.0313  0.4697
  582MOL0     O76716   1.622   3.214  10.618  0.1060  0.1918 -0.1197
  582MOL0     C76717   1.505   3.186  10.691  0.3720  0.0077 -0.2608
  582MOL0     C76718   1.406   3.111  10.622  0.1411 -0.0281 -0.1963
  582MOL0     C76719   1.289   3.078  10.685 -0.4855  0.0033 -0.2138
  582MOL0     C76720   1.253   3.122  10.814  0.0759  0.3027  0.2945
  582MOL0     C76721   1.123   3.092  10.869 -0.3989 -0.1790  0.1690
  582MOL0     O76722   1.096   3.160  10.983  0.4571 -0.4169 -0.5666
  582MOL0     C76723   0.970   3.143  11.033  0.6186  0.1372  0.7180
  582MOL0     C76724   0.852   3.182  10.958  0.1153  0.4836  0.0197
  582MOL0     C76725   0.723   3.169  11.014  0.2083  0.0588  0.4075
  582MOL0     C76726   0.703   3.104  11.140 -0.3709 -0.1483 -0.1942
  582MOL0     O76727   0.577   3.092  11.182  0.2314  0.5072  0.5193
  582MOL0     C76728   0.564   3.171  11.301  0.3892  0.2946  0.0391
  582MOL0     C76729   0.412   3.178  11.333 -0.7476 -0.5624  0.2747
  582MOL0     C76730   0.346   3.236  11.209 -0.5707  0.1981  0.4426
  582MOL0     C76731   0.205   3.283  11.223 -0.1718 -0.1086  0.0166
  582MOL0     C76732   0.132   3.308  11.092 -0.2629  0.0351  0.0017
  582MOL0     C76733  -0.013   3.350  11.106  0.1314 -0.0988 -0.4511
  582MOL0     C76734  -0.084   3.336  10.972  0.0501  0.0896 -0.1332
  582MOL0     C76735  -0.091   3.200  10.923  0.3310 -0.8563  0.9332
  582MOL0    Cl76736  -0.166   3.239  10.761  0.7094 -0.0432  0.3905
  582MOL0     C76737   0.824   3.078  11.216 -0.1337  0.3171  0.0601
  582MOL0     C76738   0.952   3.101  11.168  0.8975  0.3240  1.0579
  582MOL0     O76739   1.039   3.034  10.797 -0.3002  0.4322  0.4423
  582MOL0     C76740   1.352   3.191  10.887 -1.0216 -0.2083 -0.0966
  582MOL0     C76741   1.478   3.217  10.829 -0.3300 -0.1316  0.0279
  582MOL0     N76742   2.196   3.365  10.371  0.0460  0.3605  0.5868
  582MOL0     N76743   2.291   3.304  10.307 -0.6920 -0.5327 -0.1536
  582MOL0     C76744   3.296   3.081  10.096 -0.3785  0.4386 -0.1564
  582MOL0     C76745   3.431   3.095  10.124  0.6444  0.2510  0.3908
  582MOL0     C76746   3.830   3.179  10.301  0.4710  0.6166 -0.0010
  582MOL0     C76747   3.908   3.289  10.277 -1.2227  0.1892  0.2444
  582MOL0     C76748   4.043   3.286  10.313 -0.3680 -0.1870 -0.3228
  582MOL0     C76749   4.100   3.166  10.364 -0.1555  0.4560  0.2425
  582MOL0     O76750   4.240   3.166  10.377  0.5266 -0.5861  0.2279
  582MOL0     C76751   4.296   3.113  10.501  0.4811 -0.2461 -0.1957
  582MOL0     C76752   4.236   3.181  10.626 -1.0657 -0.9001  0.0237
  582MOL0     C76753   4.231   3.336  10.627  0.9616 -0.0053  0.4793
  582MOL0     C76754   4.217   3.384  10.770  0.3153  0.9130 -0.7919
  582MOL0     C76755   4.266   3.524  10.772 -0.8650  0.2041  0.2630
  582MOL0     C76756   4.325   3.632  10.786 -0.0581 -0.6862  0.5320
  582MOL0     C76757   4.021   3.048  10.367 -0.9138  0.0662 -0.0344
  582MOL0     C76758   3.889   3.062  10.344  0.4608 -0.2074  0.2140
  582MOL0     H76759   3.441   2.892  10.398 -3.2983  2.2435  1.5845
  582MOL0     H76760   3.220   2.873  10.342  1.0217  0.0096  1.7211
  582MOL0     H76761   3.113   2.759  10.107  1.3613 -0.5665 -1.9317
  582MOL0     H76762   3.107   2.863   9.966 -0.2438 -2.5043  1.0700
  582MOL0     H76763   2.867   2.831  10.150 -2.2189 -0.2551 -0.8525
  582MOL0     H76764   2.888   2.723  10.014 -0.9290 -0.4889  1.1728
  582MOL0     H76765   2.907   2.912   9.856  1.2810  0.9011 -0.4888
  582MOL0     H76766   2.878   3.036   9.981 -1.9858  0.5691 -0.1789
  582MOL0     H76767   2.665   2.971   9.853 -1.1308  0.7390 -0.2766
  582MOL0     H76768   2.670   2.814   9.933 -1.8440  0.2006  0.9284
  582MOL0     H76769   2.704   3.050  10.115  1.7683  1.1878 -3.1637
  582MOL0     H76770   2.610   2.887  10.136  0.8547 -1.0164 -1.9658
  582MOL0     H76771   2.443   2.982   9.964 -1.4583  0.7401  1.2506
  582MOL0     H76772   2.534   3.133   9.960 -1.9908  2.7722  1.5509
  582MOL0     H76773   2.453   3.046  10.226  0.1309  0.0864 -0.1093
  582MOL0     H76774   2.506   3.201  10.160 -0.1422  0.7914 -0.3602
  582MOL0     H76775   2.252   3.045  10.112 -0.6347 -0.1501  1.4425
  582MOL0     H76776   2.278   3.208  10.034 -4.7104 -2.1982 -0.2875
  582MOL0     H76777   2.011   3.172  10.197 -0.7275  1.5892  0.6853
  582MOL0     H76778   1.889   3.409  10.283  1.6480  1.2007 -0.3143
  582MOL0     H76779   1.980   3.467  10.428 -0.0900  1.1724 -0.0122
  582MOL0     H76780   1.923   3.241  10.539  0.5480 -1.5673 -1.0387
  582MOL0     H76781   1.793   3.226  10.421 -0.1460  2.4871 -1.5449
  582MOL0     H76782   1.851   3.446  10.620  0.7850 -2.3063  0.3972
  582MOL0     H76783   1.711   3.469  10.509  0.2360 -0.2051  0.8062
  582MOL0     H76784   1.621   3.403  10.709 -2.5194 -0.4069 -0.1601
  582MOL0     H76785   1.757   3.293  10.743 -0.9611  1.3671  1.0165
  582MOL0     H76786   1.415   3.088  10.516 -4.2929  0.5192 -0.8772
  582MOL0     H76787   1.216   3.023  10.628 -4.0766  2.7448  1.3077
  582MOL0     H76788   0.874   3.222  10.860  0.9939 -1.7876 -0.7721
  582MOL0     H76789   0.637   3.201  10.955 -0.4823  2.5097  2.5636
  582MOL0     H76790   0.608   3.270  11.289  2.3372 -0.1746  2.3913
  582MOL0     H76791   0.611   3.122  11.388 -0.8318  4.1285  3.1567
  582MOL0     H76792   0.388   3.249  11.413 -2.5164 -0.5739 -0.2119
  582MOL0     H76793   0.363   3.086  11.367 -0.1450 -0.0219  2.8223
  582MOL0     H76794   0.344   3.165  11.126 -0.2152  2.1873 -1.3770
  582MOL0     H76795   0.407   3.318  11.169  0.6929 -1.6012 -1.5395
  582MOL0     H76796   0.156   3.204  11.282 -0.1481  2.0877  3.2434
  582MOL0     H76797   0.200   3.371  11.288  1.9913 -0.1582  0.3295
  582MOL0     H76798   0.146   3.227  11.020 -1.5889 -1.0498  0.9011
  582MOL0     H76799   0.185   3.393  11.048  0.2934  1.4830  3.1853
  582MOL0     H76800  -0.014   3.452  11.147 -2.1895 -0.6144  0.8969
  582MOL0     H76801  -0.064   3.277  11.168  2.8895  0.8186  3.2323
  582MOL0     H76802  -0.182   3.379  10.994 -1.1741 -2.6808  0.1793
  582MOL0     H76803  -0.033   3.397  10.897 -0.5276  0.6676 -0.0703
  582MOL0     H76804  -0.158   3.137  10.983 -0.9962 -0.5035 -0.1314
  582MOL0     H76805   0.009   3.157  10.908  0.8338  0.4061  0.5601
  582MOL0     H76806   0.813   3.041  11.317 -1.5515  0.5857  0.0272
  582MOL0     H76807   1.029   3.079  11.241  0.2190 -3.0620  0.8924
  582MOL0     H76808   1.337   3.233  10.986  1.2430  1.8524 -0.5394
  582MOL0     H76809   1.554   3.267  10.887 -1.1627 -0.9149  1.8489
  582MOL0     H76810   3.260   3.136  10.010 -2.0223 -1.1170 -0.5262
  582MOL0     H76811   3.491   3.163  10.063 -2.5894  1.3761 -1.7896
  582MOL0     H76812   3.872   3.377  10.225 -0.6496 -0.0796 -0.6208
  582MOL0     H76813   4.108   3.373  10.307  1.9840 -1.8359 -0.4000
  582MOL0     H76814   4.405   3.126  10.499  0.3764  0.5144 -1.3264
  582MOL0     H76815   4.267   3.008  10.505  1.3272 -0.4652  1.9373
  582MOL0     H76816   4.137   3.137  10.643 -2.2757  1.1541 -1.2194
  582MOL0     H76817   4.301   3.147  10.707 -1.4356 -1.1998  0.1977
  582MOL0     H76818   4.138   3.365  10.579  1.3798 -0.9790 -0.9965
  582MOL0     H76819   4.317   3.374  10.570  1.7371 -2.0401  0.1931
  582MOL0     H76820   4.118   3.377  10.815  1.0946 -0.2044  0.8408
  582MOL0     H76821   4.280   3.325  10.837 -0.6642  2.6110  1.7708
  582MOL0     H76822   4.363   3.733  10.794  0.2648 -0.8222  0.7639
  582MOL0     H76823   4.075   2.954  10.373 -0.6170  0.2020 -0.4898
  582MOL0     H76824   3.836   2.969  10.358  1.8248 -0.9205  0.8717
  583MOL0     O76825   8.792   3.412   9.419 -0.0845 -0.7042 -0.0883
  583MOL0     C76826   8.833   3.400   9.533  0.1093 -0.4085 -0.0843
  583MOL0     O76827   8.764   3.441   9.648  0.3019 -0.2258 -0.4849
  583MOL0     C76828   8.630   3.467   9.634  0.5841 -0.6765  0.0916
  583MOL0     C76829   8.537   3.395   9.556  0.3152 -0.6430 -0.2136
  583MOL0     C76830   8.396   3.424   9.571 -0.4650  0.5298 -0.7489
  583MOL0     C76831   8.346   3.526   9.656  0.2415  0.3061 -0.5159
  583MOL0     O76832   8.206   3.537   9.681 -0.0441  0.0496 -0.4451
  583MOL0     C76833   8.109   3.496   9.570 -0.6608  0.0945 -0.0000
  583MOL0     C76834   7.970   3.535   9.620 -0.4021  0.1953 -0.7134
  583MOL0     C76835   7.857   3.486   9.531 -0.1801  0.1186  0.0815
  583MOL0     C76836   7.713   3.501   9.585 -0.0543  0.2461 -0.2969
  583MOL0     C76837   7.664   3.647   9.598  0.2049  0.3251  0.1264
  583MOL0     C76838   7.514   3.650   9.613  0.4569  0.5639 -0.3203
  583MOL0     C76839   7.457   3.793   9.633  0.3003  0.0648 -0.3366
  583MOL0     C76840   7.310   3.799   9.662  0.4424 -0.5128 -0.7403
  583MOL0     N76841   7.253   3.913   9.732 -0.2052  0.5728  0.0962
  583MOL0     C76842   7.311   3.967   9.842 -0.7050 -0.4214 -0.7174
  583MOL0     C76843   7.229   4.059   9.889  0.5469  0.1276 -0.5177
  583MOL0     C76844   7.247   4.148  10.014 -0.3685 -0.2203 -0.0119
  583MOL0     C76845   7.314   4.280   9.993 -0.5294 -0.3137  0.8108
  583MOL0     C76846   7.460   4.276   9.975 -0.1070  0.1808  0.8640
  583MOL0     C76847   7.537   4.256  10.103 -0.5659 -0.5509 -0.1199
  583MOL0     O76848   7.659   4.182  10.072  0.1348  0.0006  0.0757
  583MOL0     C76849   7.740   4.148  10.177  0.5788  0.0649 -0.3197
  583MOL0     C76850   7.706   4.148  10.313 -0.3773 -0.2875  0.5411
  583MOL0     C76851   7.787   4.109  10.418 -1.1930 -0.0946 -0.4651
  583MOL0     C76852   7.923   4.052  10.384  1.0662 -0.4555  0.0182
  583MOL0     C76853   8.013   4.013  10.497  0.1905  0.0381 -0.4429
  583MOL0     O76854   8.113   3.928  10.471  0.8031  0.1267  0.0556
  583MOL0     C76855   8.213   3.915  10.570  0.5096 -0.3212 -0.7223
  583MOL0     C76856   8.347   3.939  10.530  0.0810  0.6272  0.0387
  583MOL0     C76857   8.446   3.929  10.623  0.0590 -0.9765  0.8380
  583MOL0     C76858   8.422   3.905  10.760 -0.0520  0.9461  0.1089
  583MOL0     O76859   8.536   3.897  10.845  0.5253 -0.1083 -0.0602
  583MOL0     C76860   8.521   3.876  10.982 -0.3137  0.3884  0.0777
  583MOL0     C76861   8.662   3.869  11.048  0.3396 -0.4570  0.1511
  583MOL0     C76862   8.746   3.764  10.989 -0.3835 -0.1496 -0.9356
  583MOL0     C76863   8.883   3.791  11.047 -0.7663  0.8832  0.3175
  583MOL0     C76864   8.976   3.672  11.004  0.0884 -0.8850  0.0770
  583MOL0     C76865   9.129   3.707  11.018  0.4615 -0.2852  0.1177
  583MOL0     C76866   9.220   3.618  10.939  0.9307 -0.0804  0.6912
  583MOL0     C76867   9.339   3.690  10.889  0.8039  0.8369 -0.3404
  583MOL0    Cl76868   9.477   3.717  11.003  0.0437 -0.2468  0.1547
  583MOL0     C76869   8.286   3.898  10.802 -0.2707 -0.0148 -0.4989
  583MOL0     C76870   8.183   3.900  10.706 -0.1955 -0.0340 -0.1211
  583MOL0     O76871   7.995   4.067  10.605 -0.3319 -0.5370 -0.1874
  583MOL0     C76872   7.951   4.055  10.245  0.0674  0.2883 -0.6054
  583MOL0     C76873   7.858   4.095  10.144 -0.2384  0.4477 -0.2391
  583MOL0     N76874   7.119   4.067   9.801  0.3635 -0.8921  0.3446
  583MOL0     N76875   7.140   3.977   9.708  0.0386  0.0005  0.4250
  583MOL0     C76876   8.444   3.587   9.735 -0.4578 -0.1846 -0.2601
  583MOL0     C76877   8.585   3.562   9.724  0.3582  0.2143  0.1273
  583MOL0     C76878   8.966   3.336   9.540  0.7796  0.2283  0.1360
  583MOL0     C76879   9.015   3.298   9.666  0.5469  0.3596  0.3815
  583MOL0     C76880   9.134   3.240   9.675 -0.6801 -0.3811 -0.4923
  583MOL0     C76881   9.214   3.214   9.565  0.5962 -0.0361  0.1601
  583MOL0     O76882   9.339   3.156   9.573 -0.6671  0.1506  0.0366
  583MOL0     C76883   9.432   3.248   9.616 -0.0309  0.0167  0.2995
  583MOL0     C76884   9.555   3.167   9.660  0.6005  0.3519  0.4774
  583MOL0     C76885   9.669   3.254   9.721  0.3309 -0.5251  0.2707
  583MOL0     C76886   9.794   3.171   9.747 -0.1765 -0.6166 -0.7239
  583MOL0     C76887   9.885   3.239   9.831 -0.1492  0.0317 -0.1049
  583MOL0     C76888   9.947   3.307   9.902  0.7029  0.8050  0.1379
  583MOL0     C76889   9.165   3.252   9.437 -0.2813  0.1861 -0.1865
  583MOL0     C76890   9.046   3.320   9.430  0.1251  0.1600 -0.1322
  583MOL0     H76891   8.577   3.322   9.486 -0.2341 -0.2386 -0.9662
  583MOL0     H76892   8.332   3.363   9.508  1.1605  0.8579 -2.8519
  583MOL0     H76893   8.118   3.387   9.568 -0.5783  0.1090 -0.3910
  583MOL0     H76894   8.129   3.542   9.473  1.4117  0.0256  0.3543
  583MOL0     H76895   7.971   3.644   9.624 -0.4952  0.1732  1.8792
  583MOL0     H76896   7.967   3.511   9.727 -2.0702  4.0907  0.2891
  583MOL0     H76897   7.870   3.378   9.524 -0.5733  0.0674  0.1237
  583MOL0     H76898   7.873   3.535   9.434  0.9927  2.4882  1.3693
  583MOL0     H76899   7.653   3.440   9.517  1.2689 -1.4861  0.0345
  583MOL0     H76900   7.709   3.466   9.688 -0.1621 -1.1947 -0.7768
  583MOL0     H76901   7.693   3.695   9.504 -0.4562 -2.2944 -1.5083
  583MOL0     H76902   7.710   3.693   9.686 -0.8424  0.3839  0.6618
  583MOL0     H76903   7.481   3.578   9.689 -1.2086 -1.5922 -2.9008
  583MOL0     H76904   7.463   3.604   9.528 -2.9872 -0.9539  2.3117
  583MOL0     H76905   7.508   3.839   9.718 -0.8985  0.3187  0.2623
  583MOL0     H76906   7.482   3.849   9.542  0.6380  1.3749  0.5226
  583MOL0     H76907   7.273   3.709   9.713 -0.8186 -0.6676 -1.8602
  583MOL0     H76908   7.246   3.812   9.574 -3.2020  0.1589  1.7485
  583MOL0     H76909   7.404   3.930   9.884 -0.8564 -0.9785 -0.8730
  583MOL0     H76910   7.294   4.088  10.092 -0.7476 -1.9692 -1.0648
  583MOL0     H76911   7.148   4.176  10.050 -1.3621 -0.3963 -2.3953
  583MOL0     H76912   7.290   4.349  10.074 -2.0050 -0.8820  0.8847
  583MOL0     H76913   7.289   4.327   9.897 -0.9519 -0.4861  0.8363
  583MOL0     H76914   7.478   4.194   9.905  1.3455  1.2435 -0.0413
  583MOL0     H76915   7.497   4.363   9.921  2.4139 -2.7571 -2.6915
  583MOL0     H76916   7.476   4.197  10.172 -2.9189  0.9142 -0.8530
  583MOL0     H76917   7.555   4.353  10.150 -0.0636  1.3247 -3.8274
  583MOL0     H76918   7.611   4.193  10.341  1.5697  2.3039  3.7061
  583MOL0     H76919   7.749   4.123  10.519 -0.8738 -1.4059 -0.1455
  583MOL0     H76920   8.368   3.970  10.428 -1.3172  2.5425  0.2714
  583MOL0     H76921   8.549   3.950  10.595 -0.5249  0.4304 -0.3954
  583MOL0     H76922   8.473   3.782  11.011 -0.1724  0.6255  1.1014
  583MOL0     H76923   8.466   3.959  11.026 -0.9643  0.8516 -1.5326
  583MOL0     H76924   8.653   3.860  11.156 -0.6603  1.4686  0.2752
  583MOL0     H76925   8.717   3.961  11.028  1.2948 -1.1741 -0.6347
  583MOL0     H76926   8.741   3.776  10.881  1.3896 -0.0687 -1.0373
  583MOL0     H76927   8.717   3.662  11.016  5.4203 -1.4288  2.1487
  583MOL0     H76928   8.921   3.887  11.011 -0.4868  0.7438  0.2361
  583MOL0     H76929   8.873   3.810  11.155  1.0855  1.1329  0.4871
  583MOL0     H76930   8.954   3.665  10.898  0.8371  1.8870 -0.3497
  583MOL0     H76931   8.948   3.577  11.051 -2.6136  0.7219  2.0389
  583MOL0     H76932   9.159   3.713  11.123  0.4431  1.1988  0.0584
  583MOL0     H76933   9.147   3.810  10.983  1.6069 -0.8057 -0.9275
  583MOL0     H76934   9.255   3.537  11.004 -0.0007  0.4734  1.9175
  583MOL0     H76935   9.175   3.576  10.849  1.6825  0.3243  0.1184
  583MOL0     H76936   9.317   3.786  10.840  0.9938  0.4508 -1.2109
  583MOL0     H76937   9.380   3.629  10.808  0.2365  1.7521 -1.3418
  583MOL0     H76938   8.271   3.877  10.908  0.6512 -0.5692 -0.4758
  583MOL0     H76939   8.085   3.877  10.747 -0.2829 -0.9261 -0.7932
  583MOL0     H76940   8.045   4.023  10.202 -0.3925 -2.4970  0.2238
  583MOL0     H76941   7.884   4.090  10.039 -1.0495 -1.2355 -0.3891
  583MOL0     H76942   8.412   3.660   9.809 -1.3166  0.8365 -1.5771
  583MOL0     H76943   8.651   3.620   9.788  0.7889 -0.0116 -0.1136
  583MOL0     H76944   8.957   3.314   9.757 -0.0243 -1.0642  0.2878
  583MOL0     H76945   9.164   3.216   9.776 -1.0672  1.7295  0.1829
  583MOL0     H76946   9.399   3.308   9.701  0.8706 -3.3166  3.2269
  583MOL0     H76947   9.455   3.312   9.530  0.0183  0.3557  0.5628
  583MOL0     H76948   9.526   3.094   9.735  0.1311  0.0747  0.0359
  583MOL0     H76949   9.581   3.111   9.570  1.3359 -1.5343  1.8000
  583MOL0     H76950   9.644   3.306   9.814  0.6564  2.8547 -1.3568
  583MOL0     H76951   9.695   3.335   9.651  0.2601  0.6357  1.5339
  583MOL0     H76952   9.772   3.073   9.790  3.1335 -0.3616  2.0554
  583MOL0     H76953   9.840   3.156   9.649  0.0744 -2.5209 -0.3517
  583MOL0     H76954   9.990   3.373   9.975  2.3460 -0.6364  0.5327
  583MOL0     H76955   9.228   3.227   9.352 -0.4754 -1.9792  0.2501
  583MOL0     H76956   9.015   3.359   9.333  1.4560  2.1337  0.1686
  584MOL0     O76957   4.571   5.672   8.521  0.0427 -0.0281  0.2781
  584MOL0     C76958   4.669   5.722   8.568  0.4283 -0.0088  0.0857
  584MOL0     O76959   4.673   5.840   8.638  0.2022 -0.2936 -0.3214
  584MOL0     C76960   4.557   5.901   8.688 -0.0258 -0.2565 -0.5708
  584MOL0     C76961   4.422   5.851   8.698 -0.0763  0.0685  0.6297
  584MOL0     C76962   4.330   5.936   8.760  0.0341  0.6030  0.8781
  584MOL0     C76963   4.360   6.048   8.831 -0.9082  0.4564  0.1280
  584MOL0     O76964   4.257   6.115   8.895  0.0471 -0.6151  0.1634
  584MOL0     C76965   4.272   6.258   8.929 -0.1581 -0.3471 -0.4513
  584MOL0     C76966   4.207   6.292   9.066  0.5304 -0.3985  0.1119
  584MOL0     C76967   4.057   6.255   9.081 -0.4222  0.0469 -0.7546
  584MOL0     C76968   4.002   6.317   9.208  0.6112 -0.4862 -0.2262
  584MOL0     C76969   3.859   6.294   9.227  0.2697  0.5664  1.3354
  584MOL0     C76970   3.819   6.339   9.368  0.3922  0.4094 -0.2376
  584MOL0     C76971   3.671   6.313   9.399 -0.0019  0.2757  0.3230
  584MOL0     C76972   3.576   6.433   9.359  0.8258 -0.6970 -0.5692
  584MOL0     N76973   3.433   6.404   9.343  0.1971 -0.1973 -0.4052
  584MOL0     C76974   3.352   6.387   9.457 -0.7557  0.2016 -0.8969
  584MOL0     C76975   3.228   6.422   9.422 -0.6483  0.8104 -0.5395
  584MOL0     C76976   3.114   6.415   9.517 -0.0965  0.1261 -0.4724
  584MOL0     C76977   2.977   6.384   9.448 -0.7002  0.2118  0.2458
  584MOL0     C76978   2.916   6.497   9.368 -0.5157  0.1276  0.2849
  584MOL0     C76979   2.777   6.480   9.306 -0.5496 -0.7203 -0.2820
  584MOL0     O76980   2.689   6.471   9.424 -0.3960 -0.7478  0.9133
  584MOL0     C76981   2.560   6.427   9.407  0.5454  0.0387  0.7385
  584MOL0     C76982   2.499   6.417   9.276  1.0197  0.4282 -0.4458
  584MOL0     C76983   2.356   6.390   9.275 -0.7610 -0.2053  0.4498
  584MOL0     C76984   2.285   6.370   9.394 -0.0659 -0.0469  0.4067
  584MOL0     C76985   2.138   6.339   9.380 -0.4836  0.0061  0.2003
  584MOL0     O76986   2.053   6.380   9.475  0.0916 -0.0195  0.1470
  584MOL0     C76987   1.922   6.351   9.456 -0.9040  0.2132  0.1782
  584MOL0     C76988   1.871   6.241   9.521  0.0749 -0.6956 -0.4197
  584MOL0     C76989   1.742   6.202   9.502  0.7251  0.0939 -0.4783
  584MOL0     C76990   1.653   6.272   9.416 -0.1272 -0.6358 -0.1326
  584MOL0     O76991   1.517   6.248   9.404 -0.0902 -0.0979 -0.0157
  584MOL0     C76992   1.425   6.357   9.398  0.9039 -0.5880  0.8636
  584MOL0     C76993   1.283   6.292   9.417  1.0548 -0.1830 -0.6705
  584MOL0     C76994   1.181   6.397   9.388  0.4917  0.4842 -0.7336
  584MOL0     C76995   1.032   6.360   9.413  0.3102  0.2851  0.2891
  584MOL0     C76996   0.990   6.234   9.333 -0.0234  0.1168  0.2310
  584MOL0     C76997   0.846   6.179   9.349 -0.1584  0.0443  0.0459
  584MOL0     C76998   0.814   6.061   9.259  0.3660 -0.1252  0.2389
  584MOL0     C76999   0.672   6.014   9.277  0.0669 -0.9512 -0.0431
  584MOL0    Cl77000   0.550   6.140   9.239 -0.1601 -0.1675 -0.5589
  584MOL0     C77001   1.709   6.387   9.350  0.0527  0.4301 -0.4320
  584MOL0     C77002   1.844   6.422   9.362  0.6283  0.1164  1.1014
  584MOL0     O77003   2.105   6.276   9.275  0.4287 -0.8063  0.3363
  584MOL0     C77004   2.343   6.385   9.517  0.0121  0.3216  0.7465
  584MOL0     C77005   2.484   6.397   9.520 -0.5364 -0.9503 -0.5540
  584MOL0     N77006   3.224   6.458   9.282 -1.0256 -0.0170 -0.4600
  584MOL0     N77007   3.359   6.456   9.241 -0.1595  0.5220  0.4504
  584MOL0     C77008   4.490   6.092   8.829 -0.1416  0.0138  0.4583
  584MOL0     C77009   4.587   6.028   8.745 -0.0476  0.3522 -0.0810
  584MOL0     C77010   4.801   5.654   8.543  0.6357  0.7419  0.8581
  584MOL0     C77011   4.911   5.685   8.624 -0.2840  0.5102  0.7466
  584MOL0     C77012   5.033   5.613   8.612  0.3126  0.2999 -0.6900
  584MOL0     C77013   5.052   5.512   8.514 -0.6897  0.3626 -0.2750
  584MOL0     O77014   5.164   5.442   8.498 -0.4801  0.3085 -0.5271
  584MOL0     C77015   5.276   5.459   8.590 -0.0866  0.3222  0.4229
  584MOL0     C77016   5.406   5.391   8.539  0.5051 -1.2947  0.4235
  584MOL0     C77017   5.384   5.242   8.533  0.1663 -0.7142 -0.6813
  584MOL0     C77018   5.510   5.167   8.489  0.3000  0.3617  0.1314
  584MOL0     C77019   5.607   5.169   8.593  0.6301  0.2320 -0.1961
  584MOL0     C77020   5.698   5.196   8.668  0.0956 -1.2407 -0.5713
  584MOL0     C77021   4.946   5.473   8.441  0.7008  0.2738  0.1149
  584MOL0     C77022   4.823   5.545   8.456 -0.3098 -0.6133  0.1756
  584MOL0     H77023   4.390   5.756   8.658 -0.8117  0.3761  0.4664
  584MOL0     H77024   4.227   5.903   8.766  0.6596 -1.6049  0.3151
  584MOL0     H77025   4.216   6.323   8.861 -0.6737  3.9046  3.4736
  584MOL0     H77026   4.376   6.294   8.930  1.8947 -5.2702 -3.4557
  584MOL0     H77027   4.216   6.401   9.062 -0.0128 -0.3813 -2.2825
  584MOL0     H77028   4.264   6.249   9.148 -0.6650  1.9444  2.3396
  584MOL0     H77029   4.036   6.148   9.078  0.3346 -0.1688  0.6970
  584MOL0     H77030   3.996   6.302   9.003 -1.0615  1.2763  0.4389
  584MOL0     H77031   4.057   6.261   9.283  1.9992  1.4455  0.2814
  584MOL0     H77032   4.006   6.427   9.208 -4.6987 -0.0165 -1.5863
  584MOL0     H77033   3.837   6.189   9.208 -1.5439  1.5638 -3.1811
  584MOL0     H77034   3.795   6.359   9.167 -1.4962 -0.5247  1.9822
  584MOL0     H77035   3.841   6.445   9.385 -0.3536  0.7393 -1.2883
  584MOL0     H77036   3.885   6.285   9.437 -0.2090 -0.6584 -0.4797
  584MOL0     H77037   3.641   6.222   9.345 -0.8050  0.4435  0.4669
  584MOL0     H77038   3.670   6.287   9.505 -1.4030 -1.2025 -0.0083
  584MOL0     H77039   3.608   6.454   9.256 -0.6639  3.2270 -0.3884
  584MOL0     H77040   3.591   6.522   9.421 -1.2336 -0.3890 -0.4676
  584MOL0     H77041   3.380   6.352   9.556 -0.8328 -0.4940 -1.1144
  584MOL0     H77042   3.106   6.513   9.565  0.5064 -0.0968  0.0966
  584MOL0     H77043   3.130   6.347   9.601 -0.4034  1.4971  0.7305
  584MOL0     H77044   2.899   6.352   9.517 -1.4309 -1.6094 -1.3103
  584MOL0     H77045   2.994   6.297   9.383  1.5102 -0.0976  1.1623
  584MOL0     H77046   2.921   6.588   9.429  0.0444  2.4610 -2.9096
  584MOL0     H77047   2.981   6.517   9.282 -1.8473  1.6639 -0.4244
  584MOL0     H77048   2.780   6.388   9.247  1.5417  1.8414 -4.7220
  584MOL0     H77049   2.754   6.571   9.250  2.0893  1.4757  1.8792
  584MOL0     H77050   2.557   6.444   9.188 -1.7131  1.8813 -1.9214
  584MOL0     H77051   2.297   6.392   9.183 -1.5990 -0.7427  0.9638
  584MOL0     H77052   1.930   6.190   9.595  0.0580  0.7113  0.6072
  584MOL0     H77053   1.686   6.128   9.559  0.1624 -0.2528 -1.4635
  584MOL0     H77054   1.437   6.411   9.304 -0.4756 -1.4335  0.1796
  584MOL0     H77055   1.430   6.435   9.474 -0.7586 -0.5224  0.9327
  584MOL0     H77056   1.274   6.257   9.520 -1.7369 -2.0181 -1.4290
  584MOL0     H77057   1.273   6.214   9.341 -0.9110 -0.2395 -0.3989
  584MOL0     H77058   1.193   6.431   9.285 -2.1190  1.4700 -0.7837
  584MOL0     H77059   1.200   6.484   9.452  1.7671 -0.3793  0.1165
  584MOL0     H77060   1.011   6.345   9.520 -0.6972 -3.6249 -0.3085
  584MOL0     H77061   0.970   6.442   9.375  2.9658  1.8420 -0.9382
  584MOL0     H77062   1.047   6.146   9.365 -0.1990 -0.3489 -0.7003
  584MOL0     H77063   1.021   6.252   9.230 -0.6447  0.0771  0.0288
  584MOL0     H77064   0.779   6.262   9.322 -0.3449 -0.2087 -0.2671
  584MOL0     H77065   0.825   6.143   9.451 -1.6818  0.4010 -0.1184
  584MOL0     H77066   0.830   6.087   9.154  0.5286 -1.0511  0.0227
  584MOL0     H77067   0.883   5.978   9.279  2.7086  0.8320 -3.0428
  584MOL0     H77068   0.648   5.976   9.377  0.1912 -4.0342 -1.0713
  584MOL0     H77069   0.664   5.921   9.221 -0.3425 -1.0475  0.1673
  584MOL0     H77070   1.642   6.441   9.284 -1.4511  0.0644  0.7449
  584MOL0     H77071   1.881   6.506   9.304 -0.8214  1.3084  1.8295
  584MOL0     H77072   2.284   6.382   9.608  1.6500 -1.0149  1.8349
  584MOL0     H77073   2.534   6.406   9.615 -1.2140  1.0371 -0.3423
  584MOL0     H77074   4.509   6.186   8.880  2.6469 -0.7988  1.0914
  584MOL0     H77075   4.685   6.073   8.732  0.4458 -0.4788  0.6652
  584MOL0     H77076   4.894   5.767   8.693 -3.4237  0.6653 -0.0163
  584MOL0     H77077   5.116   5.637   8.677 -1.6768 -0.1188  2.1863
  584MOL0     H77078   5.251   5.429   8.692 -0.2675  1.3629  0.6992
  584MOL0     H77079   5.310   5.563   8.603  1.6015 -0.3459  1.8078
  584MOL0     H77080   5.428   5.444   8.446 -0.4107 -0.5678  0.6076
  584MOL0     H77081   5.485   5.410   8.612 -1.9355 -0.1411  2.9378
  584MOL0     H77082   5.313   5.223   8.452 -1.0407  0.4498  0.0768
  584MOL0     H77083   5.355   5.208   8.633  1.2310  1.0009  0.2723
  584MOL0     H77084   5.488   5.063   8.464 -1.0069  0.8880 -0.9837
  584MOL0     H77085   5.557   5.216   8.403 -0.9587  0.2215 -0.6605
  584MOL0     H77086   5.778   5.227   8.733  0.4224 -0.1994 -1.4336
  584MOL0     H77087   4.961   5.382   8.385  1.7354 -0.5387  1.6452
  584MOL0     H77088   4.742   5.500   8.399  1.1828 -1.0228 -1.7244
  585MOL0     O77089   6.095   9.016   0.827 -0.0697 -0.0253  0.1601
  585MOL0     C77090   6.155   8.976   0.934 -0.1225  0.3750  0.9519
  585MOL0     O77091   6.089   8.942   1.050 -0.3045 -0.1119  0.1670
  585MOL0     C77092   5.956   8.941   1.064  0.5017 -0.1145 -0.3777
  585MOL0     C77093   5.883   8.820   1.053  0.0524 -0.1921 -0.7917
  585MOL0     C77094   5.745   8.810   1.077  0.2768  0.9967 -0.0443
  585MOL0     C77095   5.677   8.924   1.112  0.2395  0.1524  0.0451
  585MOL0     O77096   5.544   8.916   1.134  0.2601 -0.2981 -0.1282
  585MOL0     C77097   5.467   9.024   1.194 -0.5234  0.8259  0.2256
  585MOL0     C77098   5.401   9.109   1.087 -0.0017  0.5167  0.5879
  585MOL0     C77099   5.322   9.218   1.147  0.2624  0.2617 -0.2534
  585MOL0     C77100   5.216   9.166   1.238  0.0368  0.1980  0.0503
  585MOL0     C77101   5.070   9.219   1.198  0.2001 -0.2409  0.0126
  585MOL0     C77102   4.973   9.176   1.312 -0.0954 -0.4870  0.1429
  585MOL0     C77103   4.829   9.227   1.283  0.2663 -0.0826 -0.0566
  585MOL0     C77104   4.709   9.182   1.374 -1.1162  0.4521 -1.0599
  585MOL0     N77105   4.586   9.241   1.315 -0.5344  0.2574  0.0165
  585MOL0     C77106   4.518   9.349   1.361  0.2487 -0.1183 -0.1520
  585MOL0     C77107   4.417   9.375   1.277 -0.6162 -0.0403  0.4516
  585MOL0     C77108   4.304   9.471   1.287 -0.4076 -0.8228 -0.6865
  585MOL0     C77109   4.196   9.386   1.350 -0.8721  0.3595  0.6450
  585MOL0     C77110   4.063   9.470   1.375 -0.1389 -0.0210  0.6456
  585MOL0     C77111   3.975   9.403   1.470  0.9525  0.6122  0.2864
  585MOL0     O77112   3.864   9.492   1.488  1.0909 -0.0088  0.7597
  585MOL0     C77113   3.759   9.438   1.560  0.4914 -0.1848  1.2706
  585MOL0     C77114   3.754   9.332   1.653  0.4089  0.0976 -0.5418
  585MOL0     C77115   3.634   9.305   1.710 -0.4856  0.3340  0.3720
  585MOL0     C77116   3.516   9.377   1.684  0.0197  0.7900 -0.9738
  585MOL0     C77117   3.393   9.341   1.754 -0.3853 -0.3199  0.3707
  585MOL0     O77118   3.286   9.412   1.712 -0.6330 -0.5479 -0.0047
  585MOL0     C77119   3.167   9.387   1.777 -0.1120 -0.1051  0.3960
  585MOL0     C77120   3.071   9.302   1.721  0.2954 -0.4187  0.1777
  585MOL0     C77121   2.958   9.278   1.811 -0.3376 -0.3913  0.9727
  585MOL0     C77122   2.941   9.351   1.931  0.5152 -0.1458  0.7921
  585MOL0     O77123   2.828   9.334   2.000 -0.2550 -0.1165 -0.1964
  585MOL0     C77124   2.821   9.362   2.137  0.9131  0.1055  0.1767
  585MOL0     C77125   2.706   9.276   2.200  0.6172 -1.1782  0.4166
  585MOL0     C77126   2.737   9.129   2.182 -0.9754  0.5556 -0.8444
  585MOL0     C77127   2.639   9.032   2.242  0.1044  0.5238 -0.3948
  585MOL0     C77128   2.504   9.022   2.169  0.4164 -0.0523 -0.7394
  585MOL0     C77129   2.515   9.018   2.018 -0.8383 -0.5550 -0.2133
  585MOL0     C77130   2.585   8.891   1.982  0.0218 -0.3900 -1.1936
  585MOL0     C77131   2.568   8.871   1.836 -0.8222  0.6301  0.6790
  585MOL0    Cl77132   2.661   8.732   1.782  0.0624  0.0134  0.2134
  585MOL0     C77133   3.036   9.439   1.973  0.9612 -0.2584 -0.0602
  585MOL0     C77134   3.148   9.456   1.895  0.1734 -0.2267 -0.5866
  585MOL0     O77135   3.395   9.260   1.844 -0.2133  0.1157  0.4090
  585MOL0     C77136   3.515   9.477   1.589  0.8903 -0.7516  0.0194
  585MOL0     C77137   3.637   9.502   1.526  0.1184 -0.3427 -0.9721
  585MOL0     N77138   4.430   9.289   1.170  0.1230  0.4672 -0.3026
  585MOL0     N77139   4.522   9.197   1.200 -0.1679 -0.5262  0.0229
  585MOL0     C77140   5.750   9.049   1.113  0.2205  0.2368  0.6133
  585MOL0     C77141   5.883   9.051   1.091 -0.0751 -0.1832 -0.3552
  585MOL0     C77142   6.303   8.964   0.939  0.2009 -0.4976 -0.7138
  585MOL0     C77143   6.380   9.003   0.829 -0.0084  0.0424 -0.5455
  585MOL0     C77144   6.518   8.987   0.833 -0.9032 -0.6480 -0.1423
  585MOL0     C77145   6.587   8.951   0.951 -0.3822  0.7369 -0.2483
  585MOL0     O77146   6.723   8.932   0.966 -0.1400 -0.6380  0.2027
  585MOL0     C77147   6.792   8.944   0.845  0.7549  0.6440  0.4842
  585MOL0     C77148   6.932   8.905   0.855 -0.0683 -0.8588  1.2263
  585MOL0     C77149   6.953   8.777   0.935 -0.6057  0.2284  0.7522
  585MOL0     C77150   7.100   8.749   0.939 -0.7249 -0.1349  0.2091
  585MOL0     C77151   7.175   8.732   0.814 -0.3624  0.6776 -0.3790
  585MOL0     C77152   7.236   8.726   0.706  0.1115 -1.6477  0.3248
  585MOL0     C77153   6.511   8.915   1.066 -0.5958  0.8130  0.7675
  585MOL0     C77154   6.367   8.919   1.056 -0.0165  0.8561 -0.4343
  585MOL0     H77155   5.946   8.736   1.024  0.2464 -1.1236  2.0105
  585MOL0     H77156   5.703   8.712   1.056  2.1191  0.0840  0.2846
  585MOL0     H77157   5.518   9.085   1.269 -2.0753  3.3634 -0.6458
  585MOL0     H77158   5.393   8.961   1.245  0.8057 -2.0849 -1.1878
  585MOL0     H77159   5.346   9.049   1.014 -0.9725 -0.8139  2.3246
  585MOL0     H77160   5.481   9.158   1.031 -1.1826  1.3072 -0.4741
  585MOL0     H77161   5.267   9.282   1.078 -1.1232  0.4396  0.9678
  585MOL0     H77162   5.389   9.286   1.200  1.2078  0.0740 -1.1720
  585MOL0     H77163   5.198   9.059   1.253  0.0791  0.3736  1.5300
  585MOL0     H77164   5.249   9.193   1.339  2.2038 -1.4430 -0.1499
  585MOL0     H77165   5.040   9.183   1.099  1.0603  0.0862 -0.3863
  585MOL0     H77166   5.080   9.327   1.192  2.0039 -0.4273 -1.8211
  585MOL0     H77167   5.012   9.228   1.399  2.0008 -0.9525 -0.4646
  585MOL0     H77168   4.972   9.067   1.326 -0.5810 -0.6891 -1.2433
  585MOL0     H77169   4.831   9.337   1.285 -0.9377 -0.0231 -1.4379
  585MOL0     H77170   4.795   9.199   1.184  0.6540  1.7795 -0.7629
  585MOL0     H77171   4.718   9.184   1.483 -3.9748 -0.1399 -0.7237
  585MOL0     H77172   4.700   9.076   1.352 -2.1007 -0.2027  1.9772
  585MOL0     H77173   4.531   9.398   1.458  0.8272  1.8005 -1.1415
  585MOL0     H77174   4.271   9.490   1.184 -0.2939 -0.0560 -0.5874
  585MOL0     H77175   4.327   9.562   1.343  0.6924 -1.1692 -0.5581
  585MOL0     H77176   4.236   9.342   1.442 -1.8491 -2.2408 -0.0980
  585MOL0     H77177   4.167   9.307   1.280 -2.1821  2.6867 -1.6381
  585MOL0     H77178   4.092   9.573   1.399  0.5916 -0.2983  0.9872
  585MOL0     H77179   4.006   9.487   1.283  0.0349  1.4074  0.7789
  585MOL0     H77180   4.028   9.398   1.566 -1.7370  2.8522  2.0273
  585MOL0     H77181   3.944   9.305   1.433  1.0117  0.7766 -0.2082
  585MOL0     H77182   3.839   9.272   1.683  0.3154  0.5199  0.6256
  585MOL0     H77183   3.634   9.220   1.777  0.7589  0.0917  0.0906
  585MOL0     H77184   3.097   9.239   1.636  1.8827  1.0140 -0.4409
  585MOL0     H77185   2.882   9.209   1.774  1.3439 -3.0358  2.1204
  585MOL0     H77186   2.809   9.467   2.166  0.2219  1.0374 -3.1613
  585MOL0     H77187   2.912   9.327   2.187  0.6895  2.0609  2.1203
  585MOL0     H77188   2.611   9.299   2.150  2.1308  0.0443 -2.0843
  585MOL0     H77189   2.687   9.299   2.305 -0.6128 -1.2667  0.2290
  585MOL0     H77190   2.832   9.109   2.233 -1.4939  1.4169  0.5217
  585MOL0     H77191   2.751   9.109   2.075  1.4705 -0.3534 -0.4215
  585MOL0     H77192   2.697   8.939   2.248 -0.6567 -0.0453 -1.5867
  585MOL0     H77193   2.621   9.058   2.347 -0.6093  2.7756 -1.0374
  585MOL0     H77194   2.443   9.111   2.189 -2.6086 -1.6807 -2.0746
  585MOL0     H77195   2.444   8.941   2.210  2.4995  0.1114  3.0646
  585MOL0     H77196   2.556   9.115   1.987  4.7232 -0.9393  4.3347
  585MOL0     H77197   2.410   9.016   1.990 -0.9281  1.2487 -0.0905
  585MOL0     H77198   2.690   8.895   2.013 -0.5593  3.6588  1.0071
  585MOL0     H77199   2.531   8.813   2.036 -0.6702  0.8599 -0.0232
  585MOL0     H77200   2.608   8.958   1.783  0.2924 -1.0847 -1.4801
  585MOL0     H77201   2.461   8.872   1.818 -0.3801 -0.1329 -2.7489
  585MOL0     H77202   3.029   9.486   2.070 -3.4111  0.0985 -0.3674
  585MOL0     H77203   3.223   9.517   1.944 -2.0837  2.3574 -0.0916
  585MOL0     H77204   3.424   9.534   1.569  2.0176  1.9632  1.9755
  585MOL0     H77205   3.624   9.571   1.443 -0.3861  1.5100  0.5781
  585MOL0     H77206   5.688   9.136   1.135 -0.2058 -0.0729  0.6422
  585MOL0     H77207   5.947   9.138   1.104 -0.0632 -0.4358  1.6249
  585MOL0     H77208   6.336   9.060   0.748  1.2717 -0.0630 -1.3532
  585MOL0     H77209   6.577   9.014   0.745 -0.8288 -0.0751  0.0767
  585MOL0     H77210   6.796   9.050   0.818 -1.6372  0.3256 -1.4999
  585MOL0     H77211   6.752   8.886   0.761  1.4718 -1.7635  1.7125
  585MOL0     H77212   6.972   8.896   0.754  0.8693 -3.5912  1.7545
  585MOL0     H77213   6.978   8.989   0.908 -2.7303  1.2605  0.3672
  585MOL0     H77214   6.908   8.697   0.877 -1.0112  0.5502  0.6225
  585MOL0     H77215   6.913   8.781   1.037  0.3379  2.9880  1.0847
  585MOL0     H77216   7.142   8.836   0.990 -0.6736  1.1637 -1.9569
  585MOL0     H77217   7.120   8.656   0.993  0.1125  0.1881  0.4775
  585MOL0     H77218   7.294   8.720   0.616 -1.2329 -0.9650 -0.6201
  585MOL0     H77219   6.569   8.900   1.156 -1.0683 -0.0262  0.9388
  585MOL0     H77220   6.305   8.896   1.142  0.2869  0.3355 -0.3500
  586MOL0     O77221   2.810   9.724   6.286 -0.2247  0.5119  0.0801
  586MOL0     C77222   2.835   9.709   6.163 -0.1089 -0.5371 -0.6332
  586MOL0     O77223   2.793   9.787   6.061 -0.3985  0.3984  0.9169
  586MOL0     C77224   2.703   9.886   6.082  0.2346 -0.1778 -0.3320
  586MOL0     C77225   2.592   9.893   6.001 -0.0849 -0.8016 -0.6878
  586MOL0     C77226   2.494   9.992   6.015 -0.7105 -0.3135 -0.0889
  586MOL0     C77227   2.504  10.092   6.116  0.7157  0.4082 -0.1326
  586MOL0     O77228   2.400  10.180   6.114 -0.1435 -0.1422 -0.0493
  586MOL0     C77229   2.399  10.287   6.206 -0.2389 -0.5593  0.2887
  586MOL0     C77230   2.316  10.259   6.322 -0.1598  0.0597  0.4105
  586MOL0     C77231   2.170  10.287   6.291 -1.3285 -0.3152 -0.0163
  586MOL0     C77232   2.141  10.442   6.291  0.2168 -0.2504  0.1087
  586MOL0     C77233   1.997  10.451   6.271 -0.7109  0.5139 -0.3189
  586MOL0     C77234   1.959  10.600   6.236  0.0468 -0.0165  0.0820
  586MOL0     C77235   1.812  10.615   6.182  0.1351 -0.2393 -0.2696
  586MOL0     C77236   1.708  10.610   6.295 -0.4738  0.0430 -0.4660
  586MOL0     N77237   1.570  10.637   6.252  0.4456 -0.0171 -0.1787
  586MOL0     C77238   1.468  10.605   6.344  0.5566 -0.7888 -0.8924
  586MOL0     C77239   1.352  10.635   6.271  0.3896  0.1718  0.6738
  586MOL0     C77240   1.214  10.632   6.334  0.4707  0.4418 -0.3233
  586MOL0     C77241   1.114  10.589   6.221  0.9128  0.2231 -0.5479
  586MOL0     C77242   0.994  10.525   6.296  0.2342 -0.0519  0.2547
  586MOL0     C77243   0.887  10.497   6.190 -0.2118  0.4282  0.8444
  586MOL0     O77244   0.761  10.462   6.254  0.3922  1.1046 -0.3543
  586MOL0     C77245   0.652  10.436   6.177  0.0790 -0.3667 -0.3285
  586MOL0     C77246   0.527  10.465   6.232 -0.2362  0.0118  0.3102
  586MOL0     C77247   0.411  10.436   6.162 -0.3498 -0.6764  0.2362
  586MOL0     C77248   0.415  10.377   6.033 -0.6250 -0.9575  0.1627
  586MOL0     C77249   0.288  10.333   5.964  0.3042  0.8844  0.4765
  586MOL0     O77250   0.166  10.331   6.038 -0.2815 -0.3125  0.1035
  586MOL0     C77251   0.053  10.298   5.978 -0.0235  0.5832  0.0036
  586MOL0     C77252  -0.047  10.391   5.967  0.7872  0.6789 -0.1404
  586MOL0     C77253  -0.177  10.365   5.925 -0.0421  0.2695  0.2464
  586MOL0     C77254  -0.212  10.236   5.890  0.0838 -0.2154 -0.3323
  586MOL0     O77255  -0.350  10.204   5.869  0.5619  0.4293  0.6831
  586MOL0     C77256  -0.377  10.137   5.740 -0.7145  0.2170 -0.0628
  586MOL0     C77257  -0.522  10.102   5.726 -0.7329 -0.4407  0.5513
  586MOL0     C77258  -0.545   9.967   5.663  0.2738  0.7506 -0.4761
  586MOL0     C77259  -0.690   9.953   5.628  0.2552  0.1887 -0.0411
  586MOL0     C77260  -0.738   9.806   5.605 -0.3231 -1.3614  0.1211
  586MOL0     C77261  -0.884   9.787   5.561  0.2904 -0.2263 -1.1328
  586MOL0     C77262  -0.969   9.840   5.674  0.7409  0.0527  0.8695
  586MOL0     C77263  -1.090   9.752   5.703 -0.3353  0.1457 -1.1419
  586MOL0    Cl77264  -1.225   9.755   5.585 -0.0134  0.0958 -0.0898
  586MOL0     C77265  -0.111  10.135   5.891  0.5603  0.1787 -0.6815
  586MOL0     C77266   0.023  10.165   5.926  0.6992 -0.5820  0.0935
  586MOL0     O77267   0.297  10.289   5.847  0.3846 -0.3123 -0.3633
  586MOL0     C77268   0.540  10.349   5.975 -0.6962  0.4424  0.2808
  586MOL0     C77269   0.655  10.392   6.045 -0.2981 -0.7499 -1.2410
  586MOL0     N77270   1.398  10.686   6.146 -0.8547  0.7964  0.7973
  586MOL0     N77271   1.529  10.690   6.131  0.4468 -0.4307  0.0247
  586MOL0     C77272   2.617  10.081   6.199  0.7183 -0.6105  0.0426
  586MOL0     C77273   2.713   9.985   6.179  0.2113  0.7716 -0.1164
  586MOL0     C77274   2.924   9.598   6.132  0.0875 -0.0641  0.1816
  586MOL0     C77275   3.045   9.577   6.207 -0.1032  0.0171 -0.3247
  586MOL0     C77276   3.126   9.466   6.189 -0.0290  0.1601  0.0501
  586MOL0     C77277   3.098   9.372   6.084 -0.6841  0.9417 -0.0345
  586MOL0     O77278   3.169   9.261   6.057  0.3275  0.0449  0.0398
  586MOL0     C77279   3.272   9.223   6.146 -0.8353  0.1451  0.4793
  586MOL0     C77280   3.409   9.285   6.116  0.5582 -0.2185  0.3943
  586MOL0     C77281   3.521   9.228   6.201 -0.5297  0.7648 -0.7482
  586MOL0     C77282   3.589   9.101   6.132  0.4967 -0.0980 -0.4059
  586MOL0     C77283   3.514   8.981   6.132  0.9219  0.6330  0.2578
  586MOL0     C77284   3.456   8.873   6.140  0.2787  0.5783  0.1601
  586MOL0     C77285   2.983   9.396   6.012  0.5106 -0.1771  0.2437
  586MOL0     C77286   2.899   9.505   6.035 -0.1248 -0.2552 -0.0485
  586MOL0     H77287   2.581   9.824   5.918 -1.5326 -2.5046  0.8337
  586MOL0     H77288   2.410  10.004   5.948 -0.7063 -1.8297 -0.4029
  586MOL0     H77289   2.364  10.376   6.153  1.2912 -0.4323 -0.5648
  586MOL0     H77290   2.500  10.315   6.237 -0.5445 -1.0166  1.7869
  586MOL0     H77291   2.348  10.329   6.400  1.7879  1.3721 -1.4567
  586MOL0     H77292   2.324  10.154   6.352 -0.6565 -0.3789 -0.9188
  586MOL0     H77293   2.114  10.238   6.371  2.5948 -1.5472  2.2812
  586MOL0     H77294   2.151  10.236   6.196  1.2418 -0.7124 -0.3983
  586MOL0     H77295   2.166  10.476   6.392 -3.0517  0.9216  0.6517
  586MOL0     H77296   2.196  10.499   6.217 -1.9679 -1.2848 -2.4786
  586MOL0     H77297   1.951  10.421   6.366  1.7748  0.1392  0.8334
  586MOL0     H77298   1.966  10.382   6.192  2.4449 -1.0701 -0.3058
  586MOL0     H77299   2.041  10.634   6.173  0.1940  1.6590  1.1167
  586MOL0     H77300   1.968  10.656   6.329  4.8370 -2.3712  1.3683
  586MOL0     H77301   1.808  10.715   6.137  4.1437 -0.7145 -2.1357
  586MOL0     H77302   1.786  10.538   6.108 -1.6938  0.6144 -0.5639
  586MOL0     H77303   1.740  10.673   6.378  2.0879  0.3240 -1.5749
  586MOL0     H77304   1.707  10.507   6.332 -0.0285  0.4431  0.7371
  586MOL0     H77305   1.465  10.573   6.448 -2.8615  0.2760 -0.5203
  586MOL0     H77306   1.178  10.729   6.370 -0.6543  0.7309 -2.1276
  586MOL0     H77307   1.211  10.560   6.416 -2.9613  0.7903 -0.0263
  586MOL0     H77308   1.139  10.528   6.133 -0.6046 -0.3332 -0.6107
  586MOL0     H77309   1.078  10.686   6.187  3.6882  1.1649 -1.1081
  586MOL0     H77310   1.033  10.435   6.342  5.6251  0.5573 -2.3735
  586MOL0     H77311   0.944  10.597   6.362 -2.8351 -0.8062 -1.0735
  586MOL0     H77312   0.927  10.414   6.130 -0.3774  0.7633  0.2630
  586MOL0     H77313   0.865  10.593   6.143  0.3394  1.0684  1.8559
  586MOL0     H77314   0.527  10.516   6.328  2.3075 -0.9942  0.9053
  586MOL0     H77315   0.317  10.458   6.212  0.3050 -1.4424  1.8907
  586MOL0     H77316  -0.017  10.492   5.992  1.9096 -0.0239  1.4990
  586MOL0     H77317  -0.258  10.437   5.919  0.4322  0.7260 -1.3252
  586MOL0     H77318  -0.327  10.039   5.744  0.1331  0.2965 -4.3263
  586MOL0     H77319  -0.334  10.187   5.653 -1.1504 -2.5285 -1.9944
  586MOL0     H77320  -0.569  10.180   5.667  0.7423 -0.3930 -0.6209
  586MOL0     H77321  -0.568  10.098   5.826  2.0219 -1.1313  1.8949
  586MOL0     H77322  -0.507   9.887   5.727 -1.9447  2.1404  2.8212
  586MOL0     H77323  -0.500   9.942   5.566  0.9621 -2.5117  0.5675
  586MOL0     H77324  -0.759   9.995   5.702  0.1109 -1.3168  0.7064
  586MOL0     H77325  -0.703  10.003   5.531 -0.1155 -1.2357 -0.7496
  586MOL0     H77326  -0.714   9.752   5.697  1.2138  0.6544  0.9706
  586MOL0     H77327  -0.673   9.751   5.536 -1.5056 -0.8191 -1.4773
  586MOL0     H77328  -0.905   9.680   5.557  0.2999 -0.4522  1.9025
  586MOL0     H77329  -0.909   9.847   5.474  0.1263  1.7639  0.2145
  586MOL0     H77330  -0.923   9.859   5.771 -2.6349 -0.4735  2.7399
  586MOL0     H77331  -1.007   9.935   5.636 -3.0839 -1.8666 -0.6726
  586MOL0     H77332  -1.139   9.785   5.796  0.0060 -1.9001 -0.1793
  586MOL0     H77333  -1.060   9.649   5.724 -2.3908  0.1447  2.8475
  586MOL0     H77334  -0.139  10.037   5.855 -0.1260  0.1891 -0.2091
  586MOL0     H77335   0.102  10.091   5.920 -0.3649 -1.7055 -0.5418
  586MOL0     H77336   0.557  10.305   5.877  1.5451  2.7995 -0.4999
  586MOL0     H77337   0.757  10.383   6.008  2.1846  2.5068  3.5363
  586MOL0     H77338   2.621  10.150   6.282  1.8894 -0.4204 -0.1503
  586MOL0     H77339   2.791   9.988   6.255  0.2448  1.9348 -0.1801
  586MOL0     H77340   3.067   9.646   6.288  1.2628 -2.3503  1.4882
  586MOL0     H77341   3.217   9.443   6.244  0.8363  1.1940 -0.9042
  586MOL0     H77342   3.284   9.115   6.133 -0.4903  0.3728 -1.4640
  586MOL0     H77343   3.250   9.234   6.252 -0.5953 -3.4296  1.0443
  586MOL0     H77344   3.414   9.278   6.007 -0.0001  1.3641  0.2418
  586MOL0     H77345   3.400   9.394   6.123  0.6590  0.5383 -5.5213
  586MOL0     H77346   3.485   9.179   6.292 -0.0115 -1.1958 -1.5449
  586MOL0     H77347   3.595   9.302   6.233  0.1142  0.8096 -2.2656
  586MOL0     H77348   3.606   9.120   6.025 -0.2099 -1.0724 -0.7017
  586MOL0     H77349   3.683   9.082   6.185 -1.6954 -0.6171  3.6682
  586MOL0     H77350   3.416   8.773   6.135  0.5053  0.5368 -2.4958
  586MOL0     H77351   2.957   9.326   5.933 -3.9223  0.1442  1.1717
  586MOL0     H77352   2.816   9.518   5.966  0.0488 -0.7729 -0.3633
  587MOL0     O77353   7.938   3.725   0.824  0.5830 -0.0758  0.1724
  587MOL0     C77354   7.927   3.670   0.714  0.1222 -1.2495  0.2851
  587MOL0     O77355   7.816   3.656   0.648 -0.1457 -0.1640 -0.0476
  587MOL0     C77356   7.702   3.696   0.703  1.2594 -0.1010  0.7739
  587MOL0     C77357   7.600   3.594   0.697 -0.2343  0.0154  0.1059
  587MOL0     C77358   7.467   3.622   0.733 -0.2184  0.1794 -0.8315
  587MOL0     C77359   7.432   3.749   0.776  0.0066 -0.4806 -0.5112
  587MOL0     O77360   7.295   3.775   0.812  0.1083  0.0860  0.5307
  587MOL0     C77361   7.241   3.886   0.883  0.8415 -0.5278  0.3525
  587MOL0     C77362   7.158   3.829   1.004 -0.5558  0.2391 -0.2279
  587MOL0     C77363   7.265   3.786   1.112 -0.2204  0.0589 -0.5067
  587MOL0     C77364   7.197   3.719   1.229 -0.6447  0.0674  1.2013
  587MOL0     C77365   7.290   3.672   1.333  0.3508 -0.3786  0.4710
  587MOL0     C77366   7.224   3.632   1.466  0.6955 -0.3055  0.1083
  587MOL0     C77367   7.321   3.626   1.579  0.0913 -0.6236 -0.0770
  587MOL0     C77368   7.248   3.552   1.694  0.5406  0.2195 -0.6139
  587MOL0     N77369   7.103   3.588   1.715  0.1728  1.0664  0.6756
  587MOL0     C77370   7.073   3.712   1.757 -0.0565 -0.5049 -0.2490
  587MOL0     C77371   6.939   3.729   1.722 -1.2337  0.4452 -1.1492
  587MOL0     C77372   6.865   3.835   1.786 -0.6720 -0.6399  0.2758
  587MOL0     C77373   6.710   3.850   1.767 -0.1041 -0.0049  0.3242
  587MOL0     C77374   6.654   3.993   1.787  0.7008  0.3555  1.0351
  587MOL0     C77375   6.636   4.028   1.937  0.4260 -0.2670  0.0800
  587MOL0     O77376   6.576   4.162   1.939  0.0206 -0.3260 -0.7136
  587MOL0     C77377   6.449   4.185   1.919 -0.0367  0.4468 -0.2910
  587MOL0     C77378   6.353   4.082   1.907 -0.2864 -0.2499 -0.0987
  587MOL0     C77379   6.223   4.122   1.872  1.4043 -1.0215  1.0596
  587MOL0     C77380   6.185   4.256   1.866  0.4937  0.2252  0.2305
  587MOL0     C77381   6.037   4.275   1.828 -0.1774  0.5420 -0.1832
  587MOL0     O77382   5.967   4.173   1.768 -0.5406  0.2934  0.4353
  587MOL0     C77383   5.831   4.197   1.762 -0.7494 -0.6486  1.5181
  587MOL0     C77384   5.776   4.290   1.673 -0.6226 -0.0732 -0.1243
  587MOL0     C77385   5.642   4.330   1.697 -0.3295  0.1133  0.1062
  587MOL0     C77386   5.559   4.278   1.793 -0.2359  0.0625 -0.0314
  587MOL0     O77387   5.423   4.308   1.819 -0.3479  0.3351 -0.0034
  587MOL0     C77388   5.349   4.343   1.702 -0.0931  0.0760 -1.0014
  587MOL0     C77389   5.209   4.380   1.757 -0.3834  0.0218  0.6142
  587MOL0     C77390   5.113   4.403   1.634  0.0763  0.3058 -0.6294
  587MOL0     C77391   4.987   4.466   1.692  0.1429 -0.8924 -1.0097
  587MOL0     C77392   4.862   4.458   1.603 -0.1337 -0.2990 -0.1795
  587MOL0     C77393   4.734   4.513   1.658 -0.2608  0.1585  0.2104
  587MOL0     C77394   4.623   4.529   1.549 -0.5934  0.6964  0.1185
  587MOL0     C77395   4.483   4.571   1.614  1.1177  0.0818 -0.3818
  587MOL0    Cl77396   4.407   4.437   1.701 -0.0478 -0.0469 -0.6580
  587MOL0     C77397   5.609   4.176   1.873 -0.5768 -0.1453 -0.6426
  587MOL0     C77398   5.748   4.142   1.864  0.4800  0.2876  1.1866
  587MOL0     O77399   5.993   4.385   1.861 -0.4904 -0.1165  0.5942
  587MOL0     C77400   6.279   4.361   1.885  0.2908  0.3152 -0.4018
  587MOL0     C77401   6.413   4.316   1.910  0.7195 -0.6188 -0.2844
  587MOL0     N77402   6.896   3.615   1.651 -0.1843 -0.5938 -0.5640
  587MOL0     N77403   6.996   3.527   1.646 -0.3449 -0.3028 -1.1728
  587MOL0     C77404   7.527   3.853   0.767  0.5685  0.5726  0.8841
  587MOL0     C77405   7.659   3.827   0.733  0.2891 -0.8697 -0.0097
  587MOL0     C77406   8.050   3.627   0.650  0.1744 -0.3851 -0.7547
  587MOL0     C77407   8.067   3.582   0.521 -0.5596  0.5659 -0.4589
  587MOL0     C77408   8.190   3.529   0.485 -0.3242  0.5972  0.0142
  587MOL0     C77409   8.308   3.538   0.562 -0.3752 -0.4715  0.1471
  587MOL0     O77410   8.436   3.488   0.534 -0.8162 -0.4424 -0.3444
  587MOL0     C77411   8.452   3.434   0.400 -0.5689  0.2617 -0.5213
  587MOL0     C77412   8.598   3.438   0.372 -0.3173  0.6506  1.0069
  587MOL0     C77413   8.621   3.448   0.214 -0.7537  0.4915  0.2530
  587MOL0     C77414   8.569   3.580   0.155 -0.2241  0.3547  0.2088
  587MOL0     C77415   8.652   3.700   0.202  0.6286  0.3627 -0.0302
  587MOL0     C77416   8.721   3.790   0.251 -0.4017 -0.0383  0.3257
  587MOL0     C77417   8.293   3.588   0.691 -0.3166 -0.3167  0.9433
  587MOL0     C77418   8.167   3.633   0.733 -0.2575  0.1172 -0.2276
  587MOL0     H77419   7.634   3.494   0.672  1.7935  0.5317  0.5604
  587MOL0     H77420   7.392   3.545   0.746 -0.8240  0.9221  0.2079
  587MOL0     H77421   7.165   3.928   0.816  0.2185  0.7243  1.7835
  587MOL0     H77422   7.317   3.958   0.915 -0.4918 -0.2275  3.1715
  587MOL0     H77423   7.098   3.743   0.972 -1.7885  1.5705 -1.6742
  587MOL0     H77424   7.096   3.903   1.054  2.6293  1.9414  1.4614
  587MOL0     H77425   7.323   3.870   1.150  1.3357 -0.3184 -1.9232
  587MOL0     H77426   7.342   3.722   1.069  1.1036  0.5115  1.0946
  587MOL0     H77427   7.125   3.793   1.266 -2.4235  0.7803 -3.1403
  587MOL0     H77428   7.141   3.631   1.196 -2.3042 -0.5204  4.9415
  587MOL0     H77429   7.361   3.751   1.360 -1.7848  1.9530 -0.3208
  587MOL0     H77430   7.354   3.599   1.283  0.8017  0.2883  0.0541
  587MOL0     H77431   7.158   3.544   1.464  0.8256 -0.4984  2.2984
  587MOL0     H77432   7.165   3.719   1.496  2.7030 -0.1847  4.4310
  587MOL0     H77433   7.411   3.575   1.546 -0.0470 -0.8662 -0.0863
  587MOL0     H77434   7.345   3.726   1.614  0.9707 -0.9769  0.3646
  587MOL0     H77435   7.304   3.572   1.786 -1.7791  0.8713  0.7391
  587MOL0     H77436   7.259   3.445   1.674  2.2805  0.3824 -0.7155
  587MOL0     H77437   7.146   3.783   1.795  0.4270 -0.0455 -1.9427
  587MOL0     H77438   6.911   3.926   1.746  1.7058 -1.5097  0.8818
  587MOL0     H77439   6.894   3.837   1.891 -1.2779 -0.0960  0.4454
  587MOL0     H77440   6.649   3.771   1.812  2.1303 -1.8371  0.3156
  587MOL0     H77441   6.699   3.834   1.660  2.0338  1.6966 -0.2238
  587MOL0     H77442   6.722   4.075   1.760 -0.0232  1.4095  2.2397
  587MOL0     H77443   6.559   3.998   1.734  0.8094  2.1484  0.9199
  587MOL0     H77444   6.729   4.035   1.994 -0.4085 -0.4010  1.5097
  587MOL0     H77445   6.577   3.952   1.989  0.2733  0.7395  1.4426
  587MOL0     H77446   6.374   3.976   1.913 -0.9619 -0.3075  2.6345
  587MOL0     H77447   6.160   4.037   1.847  1.0318  0.2552 -3.1118
  587MOL0     H77448   5.834   4.330   1.590  0.3229 -1.5660 -0.2160
  587MOL0     H77449   5.588   4.408   1.644 -0.8056  1.8934  2.9884
  587MOL0     H77450   5.348   4.252   1.641  1.8772 -1.8591  1.6405
  587MOL0     H77451   5.390   4.427   1.645 -0.1402  0.6427 -0.2220
  587MOL0     H77452   5.223   4.469   1.820  2.8463 -1.1964  1.8064
  587MOL0     H77453   5.163   4.301   1.816 -0.9846 -2.4871 -2.8724
  587MOL0     H77454   5.084   4.307   1.589  3.9278 -1.6633  0.6054
  587MOL0     H77455   5.149   4.471   1.556 -0.3273  0.0731 -1.0272
  587MOL0     H77456   4.962   4.430   1.793 -3.5033  2.6577 -0.4139
  587MOL0     H77457   5.009   4.572   1.708  1.5823 -1.2890 -0.1815
  587MOL0     H77458   4.838   4.353   1.581 -2.9108  0.2719 -0.1056
  587MOL0     H77459   4.866   4.515   1.509 -2.4815 -0.7643 -0.6178
  587MOL0     H77460   4.745   4.615   1.695 -2.5197  0.3222  0.6131
  587MOL0     H77461   4.698   4.443   1.734 -0.5246  0.7037  0.5939
  587MOL0     H77462   4.652   4.612   1.485 -0.6097  0.5930 -0.0214
  587MOL0     H77463   4.613   4.441   1.485  1.5884  0.9958 -0.6998
  587MOL0     H77464   4.422   4.619   1.536  0.7629  2.4601  1.2470
  587MOL0     H77465   4.487   4.648   1.692 -2.5304  0.9326 -0.8468
  587MOL0     H77466   5.537   4.133   1.942  0.3657 -2.0399 -0.7573
  587MOL0     H77467   5.793   4.076   1.937  0.9026  1.6152  2.1622
  587MOL0     H77468   6.246   4.464   1.880  0.6221  0.4790  0.6209
  587MOL0     H77469   6.494   4.387   1.927  1.7444 -1.8125 -0.1029
  587MOL0     H77470   7.495   3.955   0.786 -1.0064  0.4379 -0.7410
  587MOL0     H77471   7.720   3.917   0.726 -1.1870  0.3532  1.8494
  587MOL0     H77472   7.975   3.572   0.464 -0.1157  0.1608 -1.1137
  587MOL0     H77473   8.196   3.488   0.384  0.6961 -2.4589  1.1984
  587MOL0     H77474   8.397   3.496   0.329 -1.9077  2.4957  2.2246
  587MOL0     H77475   8.422   3.330   0.390 -3.3225  0.8522  0.6194
  587MOL0     H77476   8.649   3.523   0.418  3.4233  0.1203 -1.6467
  587MOL0     H77477   8.650   3.354   0.419  0.8042  1.5154  1.3691
  587MOL0     H77478   8.576   3.373   0.148  2.6402  0.4333 -2.2678
  587MOL0     H77479   8.729   3.453   0.196 -1.2076 -1.1734 -4.2342
  587MOL0     H77480   8.564   3.576   0.046 -0.6252  2.3855  0.1157
  587MOL0     H77481   8.467   3.609   0.181 -0.7908 -1.0268 -0.4095
  587MOL0     H77482   8.780   3.870   0.291 -1.5395  2.9672 -3.3738
  587MOL0     H77483   8.377   3.588   0.759  0.3517  1.7273  0.2263
  587MOL0     H77484   8.169   3.671   0.834 -1.4351  0.4700 -0.3257
  588MOL0     O77485   7.481   3.982   3.702  0.0805 -0.1409  1.2723
  588MOL0     C77486   7.502   3.980   3.583  0.6313  0.1005  0.3065
  588MOL0     O77487   7.403   3.999   3.486 -0.0425  0.5986 -0.2269
  588MOL0     C77488   7.275   4.017   3.529  0.0146  0.0791 -0.1353
  588MOL0     C77489   7.217   4.138   3.496 -0.5377  0.6874 -0.2476
  588MOL0     C77490   7.084   4.164   3.526 -0.9812  0.7433  0.3011
  588MOL0     C77491   7.001   4.068   3.600 -0.0822  1.4073 -0.7780
  588MOL0     O77492   6.874   4.087   3.653 -0.6502 -0.4479 -0.6016
  588MOL0     C77493   6.803   4.200   3.608 -1.0199 -0.5704  0.4315
  588MOL0     C77494   6.662   4.201   3.665  0.6587 -0.9699  0.1531
  588MOL0     C77495   6.574   4.321   3.606  0.2707  0.1115  0.2350
  588MOL0     C77496   6.431   4.347   3.664 -0.0912  0.7338  0.9014
  588MOL0     C77497   6.369   4.482   3.619  0.1043 -0.1282  0.6696
  588MOL0     C77498   6.215   4.484   3.629  1.0775 -0.0840 -0.3969
  588MOL0     C77499   6.168   4.469   3.778 -0.0157  0.4001 -0.3747
  588MOL0     C77500   6.195   4.593   3.869 -0.6922 -0.6705  0.5385
  588MOL0     N77501   6.241   4.554   4.002 -0.2770  0.2828 -0.3006
  588MOL0     C77502   6.157   4.541   4.109 -0.2266 -0.4222 -0.4906
  588MOL0     C77503   6.232   4.493   4.211  1.0220 -0.5215  0.0248
  588MOL0     C77504   6.157   4.448   4.333  0.1968 -0.4074 -0.3872
  588MOL0     C77505   6.094   4.309   4.331  0.1933  0.0899  0.4922
  588MOL0     C77506   6.009   4.274   4.456  0.9953  0.1302 -0.3407
  588MOL0     C77507   5.862   4.300   4.443 -0.4826  0.1369  0.0625
  588MOL0     O77508   5.837   4.436   4.441  0.2467  0.1603  0.3148
  588MOL0     C77509   5.810   4.511   4.558  0.6213  0.6690  0.6559
  588MOL0     C77510   5.876   4.629   4.575 -0.0066 -0.0362  0.4937
  588MOL0     C77511   5.843   4.717   4.678  0.7993  0.0113  0.1661
  588MOL0     C77512   5.735   4.692   4.770  0.9685  0.1266  0.7017
  588MOL0     C77513   5.686   4.797   4.855 -0.4798  0.4035  0.6404
  588MOL0     O77514   5.559   4.790   4.895 -0.2011 -0.1200 -0.2587
  588MOL0     C77515   5.493   4.887   4.973  0.3142  0.2761  0.9710
  588MOL0     C77516   5.373   4.848   5.037  0.8643 -0.2023 -0.4666
  588MOL0     C77517   5.292   4.938   5.109  0.8384 -0.1191 -0.4022
  588MOL0     C77518   5.330   5.065   5.124  1.0522  0.1979  0.0944
  588MOL0     O77519   5.239   5.148   5.196  0.3471 -0.1878  0.8567
  588MOL0     C77520   5.254   5.294   5.199 -0.5159  0.2651  0.5506
  588MOL0     C77521   5.169   5.352   5.311 -0.8331  0.3201  0.5468
  588MOL0     C77522   5.156   5.502   5.309  0.0892 -0.1070  0.0413
  588MOL0     C77523   5.033   5.537   5.400 -0.1294  0.8294  0.2186
  588MOL0     C77524   5.030   5.680   5.429  0.8846 -1.6613  0.0014
  588MOL0     C77525   4.894   5.711   5.505  1.1283 -0.1437 -0.0016
  588MOL0     C77526   4.870   5.855   5.537 -0.1405  0.3419 -0.2688
  588MOL0     C77527   4.840   5.952   5.429 -0.5003  0.1168 -0.1822
  588MOL0    Cl77528   4.892   6.119   5.471 -0.3060  0.2692 -0.3100
  588MOL0     C77529   5.456   5.103   5.075  0.0316 -0.3272  0.7845
  588MOL0     C77530   5.533   5.017   5.002  0.2637 -0.2787  0.6588
  588MOL0     O77531   5.775   4.867   4.902 -0.0052 -0.3082  0.0760
  588MOL0     C77532   5.664   4.573   4.750  0.4886  0.9019  0.0724
  588MOL0     C77533   5.699   4.486   4.648  0.1261  0.3274 -0.5506
  588MOL0     N77534   6.356   4.461   4.159  0.5868  0.6757  0.3645
  588MOL0     N77535   6.360   4.492   4.032  0.0126 -0.0026  0.5171
  588MOL0     C77536   7.065   3.940   3.624  0.5450 -0.3706  1.1391
  588MOL0     C77537   7.199   3.912   3.590 -0.1069 -1.1500 -0.4822
  588MOL0     C77538   7.637   3.953   3.536  0.6535  0.0115 -0.4647
  588MOL0     C77539   7.742   3.975   3.614 -0.5642 -0.4455  1.4677
  588MOL0     C77540   7.870   3.964   3.564  0.8803  0.5008  0.3681
  588MOL0     C77541   7.901   3.918   3.436  0.0828 -0.2957 -0.3389
  588MOL0     O77542   8.029   3.898   3.398  0.5507 -0.1320  0.5335
  588MOL0     C77543   8.128   3.877   3.495 -0.1615  0.2564  0.2515
  588MOL0     C77544   8.249   3.826   3.423 -0.2849 -0.2182  0.7092
  588MOL0     C77545   8.376   3.826   3.507 -0.1260  0.0481  0.0339
  588MOL0     C77546   8.505   3.811   3.434 -0.6367 -0.3265  0.0510
  588MOL0     C77547   8.540   3.935   3.364 -0.0086 -1.0412  0.7371
  588MOL0     C77548   8.571   4.044   3.318 -0.7255 -0.5085  0.0372
  588MOL0     C77549   7.790   3.897   3.350 -0.8564  0.3598 -0.1688
  588MOL0     C77550   7.659   3.915   3.402  0.8244  0.7374 -0.4214
  588MOL0     H77551   7.285   4.211   3.452 -1.3467  0.6932 -1.5277
  588MOL0     H77552   7.057   4.267   3.505 -2.9857  0.2920  0.4467
  588MOL0     H77553   6.792   4.206   3.500 -0.7963  0.0346  0.4365
  588MOL0     H77554   6.862   4.288   3.638 -1.5676  0.2655 -0.8682
  588MOL0     H77555   6.670   4.204   3.774  1.2632 -2.0471  0.1526
  588MOL0     H77556   6.605   4.112   3.634 -0.4398  1.0713 -4.6904
  588MOL0     H77557   6.575   4.318   3.497 -2.2458  0.3861  0.1549
  588MOL0     H77558   6.607   4.424   3.628 -3.2513  1.0594  1.7901
  588MOL0     H77559   6.369   4.263   3.632  1.1101  0.2114 -0.1421
  588MOL0     H77560   6.438   4.330   3.771  1.0149 -0.3705  0.6871
  588MOL0     H77561   6.393   4.516   3.518 -0.3841 -2.6865 -0.3877
  588MOL0     H77562   6.419   4.549   3.689  1.5003 -0.6167  0.1648
  588MOL0     H77563   6.176   4.404   3.565  1.4585  0.8533 -1.8300
  588MOL0     H77564   6.163   4.572   3.592 -0.3605 -0.8720 -0.3259
  588MOL0     H77565   6.062   4.441   3.789  0.4251 -0.3608  3.5829
  588MOL0     H77566   6.213   4.379   3.819  1.0721  0.2633 -1.8075
  588MOL0     H77567   6.097   4.642   3.876  0.2193  1.3805 -0.2566
  588MOL0     H77568   6.262   4.660   3.814 -1.2900 -2.3128 -2.3986
  588MOL0     H77569   6.050   4.561   4.112  0.1814  1.9089 -0.0267
  588MOL0     H77570   6.084   4.526   4.356 -1.7555 -1.8467 -1.3575
  588MOL0     H77571   6.229   4.456   4.415 -2.4713 -1.0141  2.1956
  588MOL0     H77572   6.179   4.240   4.323 -0.2838 -0.5091  0.5438
  588MOL0     H77573   6.029   4.304   4.242 -0.0924 -1.4340  0.7632
  588MOL0     H77574   6.020   4.166   4.452 -0.9268 -0.0685 -3.2801
  588MOL0     H77575   6.051   4.308   4.551  2.1602 -2.4665  0.1363
  588MOL0     H77576   5.814   4.258   4.532 -0.9137  0.5567  0.0359
  588MOL0     H77577   5.839   4.252   4.347  0.0436 -1.1215  0.5438
  588MOL0     H77578   5.965   4.647   4.515 -1.5762 -0.1914 -2.0506
  588MOL0     H77579   5.898   4.811   4.687 -0.7880  0.9452  0.4214
  588MOL0     H77580   5.338   4.745   5.033 -0.8353  0.3724 -1.2232
  588MOL0     H77581   5.198   4.912   5.158 -0.0649  2.1378 -0.7805
  588MOL0     H77582   5.236   5.339   5.101  0.6091  1.0415  0.6766
  588MOL0     H77583   5.359   5.317   5.218 -0.5122 -0.3382  1.3393
  588MOL0     H77584   5.208   5.325   5.409 -2.0429  2.1238  1.5733
  588MOL0     H77585   5.068   5.312   5.298 -0.8176  0.8851 -1.7408
  588MOL0     H77586   5.133   5.536   5.208 -0.6235 -1.3537 -0.2314
  588MOL0     H77587   5.250   5.548   5.342  0.4508 -0.3470 -0.6498
  588MOL0     H77588   4.942   5.485   5.368 -0.6319  0.9516  1.3874
  588MOL0     H77589   5.059   5.500   5.500 -0.6045  1.8872  0.7557
  588MOL0     H77590   5.033   5.730   5.332  1.1844 -2.0957 -0.2160
  588MOL0     H77591   5.119   5.699   5.491  0.5216 -1.3368  0.4300
  588MOL0     H77592   4.893   5.655   5.599 -1.7559  0.8688  0.6680
  588MOL0     H77593   4.814   5.663   5.448  2.7472 -2.5157 -0.3926
  588MOL0     H77594   4.773   5.861   5.587 -1.6778  1.3474 -3.1502
  588MOL0     H77595   4.955   5.878   5.602 -0.4200 -0.3288  0.3453
  588MOL0     H77596   4.732   5.951   5.410 -0.5045  0.1526 -0.1604
  588MOL0     H77597   4.895   5.923   5.339  1.6548  1.2081  0.7053
  588MOL0     H77598   5.480   5.208   5.090 -1.0880 -0.2211  2.0835
  588MOL0     H77599   5.627   5.056   4.963 -0.2361 -1.9464 -2.5782
  588MOL0     H77600   5.576   4.535   4.799  1.5043 -1.1595  0.3810
  588MOL0     H77601   5.626   4.407   4.636 -0.9463  0.7855  2.3016
  588MOL0     H77602   7.013   3.852   3.659 -1.6910  0.1406 -0.7037
  588MOL0     H77603   7.247   3.819   3.616 -0.0947 -1.2388 -0.8265
  588MOL0     H77604   7.722   4.004   3.716  2.5800  1.8108  1.5661
  588MOL0     H77605   7.947   3.989   3.637 -0.2707  0.9395  1.4803
  588MOL0     H77606   8.103   3.804   3.573  0.0023  0.9127  0.9250
  588MOL0     H77607   8.144   3.970   3.550 -2.5564  0.7312  0.2409
  588MOL0     H77608   8.229   3.727   3.379  1.3540  0.2527 -1.2391
  588MOL0     H77609   8.276   3.892   3.340  0.1422 -2.4638 -1.0377
  588MOL0     H77610   8.371   3.738   3.572 -1.1730  1.1286  1.4976
  588MOL0     H77611   8.375   3.913   3.574  2.4933  0.2324 -0.0849
  588MOL0     H77612   8.585   3.795   3.506 -2.1564  0.5027  2.0250
  588MOL0     H77613   8.498   3.734   3.357 -0.3886 -0.7925  0.4905
  588MOL0     H77614   8.609   4.136   3.278  1.7069 -1.6549 -0.4915
  588MOL0     H77615   7.811   3.864   3.248  4.4665  1.3172  0.3576
  588MOL0     H77616   7.569   3.901   3.343  0.6852  0.7062 -0.2039
  589MOL0     O77617   9.141   4.256   2.802  0.8236 -0.1349  0.5437
  589MOL0     C77618   9.176   4.223   2.692 -0.1781  0.1536  0.1512
  589MOL0     O77619   9.102   4.167   2.588 -0.1709  0.8383  0.3314
  589MOL0     C77620   8.965   4.143   2.592 -0.9002 -0.7567  0.6303
  589MOL0     C77621   8.873   4.226   2.650  0.1173 -0.4954 -0.3375
  589MOL0     C77622   8.733   4.206   2.641  1.0363 -0.0542  1.1245
  589MOL0     C77623   8.679   4.107   2.557 -0.2138  0.6189  0.2971
  589MOL0     O77624   8.544   4.096   2.527 -0.6017  0.0850 -0.0264
  589MOL0     C77625   8.487   3.968   2.506 -0.2110 -0.0948 -0.8831
  589MOL0     C77626   8.336   3.979   2.486 -0.2284 -0.3486 -0.4457
  589MOL0     C77627   8.292   4.051   2.364  0.1837  0.2437 -0.6711
  589MOL0     C77628   8.148   4.047   2.340  0.3840  0.0497  0.8199
  589MOL0     C77629   8.095   4.071   2.199 -0.7592 -0.4398  0.5849
  589MOL0     C77630   7.943   4.062   2.206  1.1377 -1.3536 -0.6868
  589MOL0     C77631   7.893   4.151   2.077 -0.1170  0.2182 -0.0764
  589MOL0     C77632   7.742   4.147   2.063  0.1055 -0.7011  0.2032
  589MOL0     N77633   7.676   4.193   2.192 -0.5208 -0.2479  0.3350
  589MOL0     C77634   7.645   4.321   2.223 -0.0214 -0.3682 -0.3249
  589MOL0     C77635   7.564   4.315   2.330  0.1122  0.5262 -0.3272
  589MOL0     C77636   7.515   4.434   2.415 -0.5355 -0.0293 -0.3264
  589MOL0     C77637   7.424   4.401   2.530 -0.4158  0.4263 -0.4802
  589MOL0     C77638   7.400   4.521   2.624  0.3848 -0.3100  0.3669
  589MOL0     C77639   7.285   4.486   2.720 -0.3689  1.0958  1.2244
  589MOL0     O77640   7.269   4.595   2.810 -0.3613  0.4392 -0.2849
  589MOL0     C77641   7.146   4.617   2.859 -0.4910 -0.4509  0.7953
  589MOL0     C77642   7.061   4.509   2.904  0.1323  0.2029 -0.3501
  589MOL0     C77643   6.950   4.533   2.978 -0.3052  0.6630  0.7600
  589MOL0     C77644   6.908   4.664   3.009 -0.2987 -0.0542  0.1187
  589MOL0     C77645   6.785   4.697   3.085  0.1871 -0.1356 -0.1198
  589MOL0     O77646   6.771   4.829   3.128 -0.2146 -0.0662 -0.2586
  589MOL0     C77647   6.659   4.862   3.209 -0.4284 -0.0523  0.0326
  589MOL0     C77648   6.534   4.797   3.215  0.0162 -0.3491  0.4513
  589MOL0     C77649   6.427   4.844   3.286  0.0125  1.3970  0.8777
  589MOL0     C77650   6.438   4.962   3.353 -0.4551 -0.3767 -0.5066
  589MOL0     O77651   6.335   5.008   3.429 -0.2749 -0.5900 -0.1771
  589MOL0     C77652   6.323   5.151   3.461 -0.2548 -0.1790 -0.6331
  589MOL0     C77653   6.202   5.187   3.535  0.6071  0.2564 -0.6653
  589MOL0     C77654   6.068   5.204   3.454  0.6597  0.6986  0.0167
  589MOL0     C77655   5.955   5.240   3.547  0.3795 -0.9721  1.0515
  589MOL0     C77656   5.852   5.312   3.463 -0.1240  0.0795  0.5283
  589MOL0     C77657   5.783   5.227   3.356  0.1286  0.2773  0.8423
  589MOL0     C77658   5.656   5.304   3.316  0.1519 -0.2755 -0.4142
  589MOL0     C77659   5.598   5.254   3.189 -0.5479  0.6702  0.8095
  589MOL0    Cl77660   5.571   5.078   3.211  0.5671  0.2353  0.6006
  589MOL0     C77661   6.555   5.037   3.343  0.5214 -0.3494 -0.3279
  589MOL0     C77662   6.657   4.988   3.261 -0.2609  0.1533  0.1506
  589MOL0     O77663   6.705   4.602   3.095  0.0813  0.6306 -0.4330
  589MOL0     C77664   6.993   4.769   2.974 -0.4370 -0.6976 -0.2799
  589MOL0     C77665   7.115   4.748   2.903  0.5656  0.1406  0.3759
  589MOL0     N77666   7.538   4.178   2.357 -0.4025 -0.6429  0.4607
  589MOL0     N77667   7.603   4.112   2.270 -0.5947  0.6127  0.2517
  589MOL0     C77668   8.776   4.020   2.494  0.5686 -0.1589  0.6215
  589MOL0     C77669   8.913   4.046   2.511  0.0087 -0.8109 -0.3967
  589MOL0     C77670   9.318   4.229   2.655 -1.1126 -0.4937  0.2136
  589MOL0     C77671   9.369   4.171   2.539 -0.4642  0.1165 -0.6911
  589MOL0     C77672   9.502   4.199   2.512  0.2303  0.3795 -0.7592
  589MOL0     C77673   9.594   4.275   2.586  0.5528  0.3218  0.0969
  589MOL0     O77674   9.720   4.296   2.534 -0.2439 -0.0296  0.0875
  589MOL0     C77675   9.822   4.346   2.621  0.3706  0.3387  0.6982
  589MOL0     C77676   9.934   4.392   2.531  0.2397  0.1445  0.1400
  589MOL0     C77677   9.994   4.280   2.445  0.8826  1.0440  0.9902
  589MOL0     C77678  10.112   4.332   2.363 -0.0632  0.0843  0.9985
  589MOL0     C77679  10.158   4.238   2.254  0.5426  0.5488  0.0449
  589MOL0     C77680  10.214   4.180   2.166 -0.0451 -0.5334  0.6886
  589MOL0     C77681   9.536   4.331   2.705  0.3639  1.8196 -0.0137
  589MOL0     C77682   9.404   4.299   2.736  0.6328  0.0719  0.5175
  589MOL0     H77683   8.909   4.318   2.694 -1.2904 -0.0168 -0.1283
  589MOL0     H77684   8.657   4.276   2.676 -0.0381  0.0418 -1.1859
  589MOL0     H77685   8.508   3.902   2.591 -3.1869  0.4219  0.3865
  589MOL0     H77686   8.532   3.922   2.418 -1.0638 -0.6828 -1.0328
  589MOL0     H77687   8.295   4.021   2.579 -1.6290  1.4975 -1.8135
  589MOL0     H77688   8.290   3.880   2.482 -1.8568  0.3682 -0.2249
  589MOL0     H77689   8.336   3.999   2.278  1.4268  0.5377 -0.2304
  589MOL0     H77690   8.328   4.154   2.352  1.6900 -0.1371  0.2658
  589MOL0     H77691   8.103   3.955   2.378 -0.3741  0.0758  0.0359
  589MOL0     H77692   8.115   4.135   2.395  1.9425 -0.0260  1.9287
  589MOL0     H77693   8.143   3.995   2.136 -1.1566  0.2231 -0.5341
  589MOL0     H77694   8.124   4.167   2.154 -1.6046 -1.1732 -1.6799
  589MOL0     H77695   7.895   4.094   2.299 -0.0007 -1.9187 -1.0609
  589MOL0     H77696   7.907   3.960   2.190 -2.2967 -0.1191 -1.5439
  589MOL0     H77697   7.915   4.257   2.093 -0.6161  0.3455 -0.1951
  589MOL0     H77698   7.951   4.138   1.985  1.3367  0.2841  0.8170
  589MOL0     H77699   7.712   4.044   2.040 -0.0256 -0.4641 -0.7585
  589MOL0     H77700   7.716   4.214   1.980 -1.1824 -2.4887 -0.9182
  589MOL0     H77701   7.682   4.413   2.180  0.0283 -0.5178 -0.6037
  589MOL0     H77702   7.479   4.517   2.354  1.9102  2.3513  1.2198
  589MOL0     H77703   7.605   4.482   2.455  0.8578 -0.0864 -3.1303
  589MOL0     H77704   7.467   4.319   2.588 -1.7602 -0.3833 -0.5862
  589MOL0     H77705   7.329   4.369   2.485 -1.6747 -0.2255  2.3677
  589MOL0     H77706   7.498   4.532   2.673  1.6330  0.2838 -2.0821
  589MOL0     H77707   7.374   4.612   2.569 -4.1738 -0.3521  2.0813
  589MOL0     H77708   7.305   4.393   2.774 -1.4738 -1.3933 -2.3001
  589MOL0     H77709   7.191   4.464   2.668  0.3809  1.7086 -0.4750
  589MOL0     H77710   7.090   4.406   2.888  0.6202  0.0122  1.4791
  589MOL0     H77711   6.891   4.446   3.005 -1.2977 -0.5963 -4.3637
  589MOL0     H77712   6.503   4.720   3.145 -4.3459  1.3564  0.2128
  589MOL0     H77713   6.345   4.773   3.279  0.9184  0.4183 -0.3859
  589MOL0     H77714   6.322   5.205   3.366  2.3783  1.0048 -0.0674
  589MOL0     H77715   6.407   5.180   3.524 -0.4891 -0.3768 -0.2312
  589MOL0     H77716   6.219   5.282   3.586  1.5732  0.5375 -1.4826
  589MOL0     H77717   6.173   5.118   3.615  4.0767  1.9457  2.3648
  589MOL0     H77718   6.044   5.116   3.393 -0.0815 -1.8181  3.5768
  589MOL0     H77719   6.086   5.288   3.386  0.1736  1.6638  1.0520
  589MOL0     H77720   5.914   5.160   3.608 -2.1880  0.9449  2.0444
  589MOL0     H77721   5.991   5.314   3.619  1.1023 -0.5588  0.2964
  589MOL0     H77722   5.903   5.394   3.411  2.8022 -1.7116  0.4026
  589MOL0     H77723   5.772   5.348   3.529 -1.1497 -1.1085 -0.0484
  589MOL0     H77724   5.765   5.128   3.398 -0.2701 -1.3742 -2.8962
  589MOL0     H77725   5.844   5.219   3.266 -0.4796 -0.2649  0.4733
  589MOL0     H77726   5.575   5.284   3.387  0.4417  0.4989  0.1437
  589MOL0     H77727   5.665   5.413   3.315 -0.9991 -0.1555 -2.1792
  589MOL0     H77728   5.663   5.282   3.105 -0.5184 -0.6520  0.3609
  589MOL0     H77729   5.501   5.304   3.176 -0.3779  0.9847  0.7574
  589MOL0     H77730   6.558   5.138   3.384 -2.5038  0.0176 -0.7849
  589MOL0     H77731   6.747   5.047   3.246 -0.6063  0.6499  0.0240
  589MOL0     H77732   6.969   4.871   3.001 -0.7160 -0.1498 -2.4141
  589MOL0     H77733   7.173   4.828   2.860 -0.9660 -0.5604 -3.3632
  589MOL0     H77734   8.744   3.942   2.426  0.6901  1.2232 -1.0770
  589MOL0     H77735   8.974   3.981   2.448  0.6955 -0.6103  0.0445
  589MOL0     H77736   9.316   4.117   2.461 -0.5477 -2.8920  1.3154
  589MOL0     H77737   9.548   4.158   2.422 -2.2436  1.9917 -2.8951
  589MOL0     H77738   9.851   4.262   2.684  0.4453 -0.5468 -0.4777
  589MOL0     H77739   9.804   4.430   2.689 -1.5758 -0.3636  1.0858
  589MOL0     H77740   9.904   4.481   2.475  1.2143  1.3266  1.4323
  589MOL0     H77741  10.017   4.424   2.595 -0.2241  1.4421  0.1175
  589MOL0     H77742   9.917   4.254   2.372  1.7556  1.3694 -0.0728
  589MOL0     H77743  10.009   4.185   2.497 -1.4978  0.5761  0.9407
  589MOL0     H77744  10.104   4.434   2.324 -0.1358 -0.5928 -0.8295
  589MOL0     H77745  10.192   4.342   2.437  0.2493  1.0939  0.5407
  589MOL0     H77746  10.252   4.123   2.083 -0.4335  0.2944 -0.0700
  589MOL0     H77747   9.594   4.389   2.776 -2.1232  0.7436  3.1451
  589MOL0     H77748   9.366   4.340   2.829 -1.5466  0.6652 -0.5508
  590MOL0     O77749   7.814   3.677   6.978  0.4308  0.2804 -0.2408
  590MOL0     C77750   7.778   3.736   7.080  0.0222  1.0310  0.5676
  590MOL0     O77751   7.647   3.755   7.131 -0.4993  0.7868  0.1440
  590MOL0     C77752   7.530   3.692   7.091 -0.0048  0.7996 -1.0156
  590MOL0     C77753   7.427   3.718   7.176  0.0890  0.9426  0.1549
  590MOL0     C77754   7.300   3.660   7.158 -0.6743  0.8047  0.5300
  590MOL0     C77755   7.281   3.566   7.058 -0.8436  0.4444  1.4470
  590MOL0     O77756   7.161   3.509   7.047  0.3967 -0.2716 -0.4448
  590MOL0     C77757   7.107   3.480   6.912 -0.6618  0.1578 -0.5160
  590MOL0     C77758   6.993   3.375   6.931 -0.0284  0.2705 -0.2559
  590MOL0     C77759   6.861   3.439   6.972 -0.1291 -0.8518  0.6556
  590MOL0     C77760   6.742   3.345   6.962 -0.5656  0.0970 -0.1820
  590MOL0     C77761   6.616   3.431   6.955  0.3002  0.3091  0.2164
  590MOL0     C77762   6.488   3.348   6.971 -0.7076  0.7530  0.2087
  590MOL0     C77763   6.357   3.418   6.950  0.1323 -0.3826 -0.1190
  590MOL0     C77764   6.332   3.548   7.019  0.7720 -0.2712 -0.4443
  590MOL0     N77765   6.192   3.596   6.993  0.0488  0.0651  0.5526
  590MOL0     C77766   6.149   3.665   6.879 -1.1294  0.7547  0.1864
  590MOL0     C77767   6.015   3.669   6.884 -0.1701  0.0835 -0.5746
  590MOL0     C77768   5.924   3.718   6.780 -0.9304  0.3089 -1.0640
  590MOL0     C77769   5.866   3.616   6.685  0.0111 -0.0630  0.2246
  590MOL0     C77770   5.749   3.666   6.586 -0.8649 -0.4063  0.0785
  590MOL0     C77771   5.633   3.739   6.650  1.0751 -0.6405  0.2979
  590MOL0     O77772   5.585   3.652   6.753  0.5747 -0.1796 -0.0994
  590MOL0     C77773   5.476   3.690   6.820  0.2650  0.2829  0.5685
  590MOL0     C77774   5.447   3.619   6.933 -0.5476 -0.0099 -0.6721
  590MOL0     C77775   5.345   3.654   7.011  0.4453 -0.0002  0.2536
  590MOL0     C77776   5.261   3.766   6.987 -0.4803  0.8450 -0.3568
  590MOL0     C77777   5.149   3.803   7.071  0.6971 -0.2155  0.5757
  590MOL0     O77778   5.092   3.703   7.142  0.5709 -0.2307  0.2989
  590MOL0     C77779   4.964   3.735   7.188 -0.4939  0.1953  0.0822
  590MOL0     C77780   4.852   3.661   7.152  0.4598  0.5159  0.2138
  590MOL0     C77781   4.722   3.692   7.206  0.1238  0.5396  0.6142
  590MOL0     C77782   4.707   3.807   7.290 -0.2741  1.4649 -0.0169
  590MOL0     O77783   4.580   3.821   7.335  0.9523 -0.1691  0.2489
  590MOL0     C77784   4.552   3.944   7.416 -0.1292  0.9758  0.0911
  590MOL0     C77785   4.615   3.959   7.555 -0.9841  0.1246 -0.4368
  590MOL0     C77786   4.520   3.907   7.663 -0.6323  0.2745  1.3673
  590MOL0     C77787   4.600   3.888   7.794 -0.9711  0.7102 -0.5961
  590MOL0     C77788   4.513   3.831   7.911 -0.9513  0.6372 -0.1209
  590MOL0     C77789   4.457   3.688   7.898 -0.1639  1.3658 -0.6513
  590MOL0     C77790   4.366   3.643   8.020 -0.6219 -0.2114 -0.9374
  590MOL0     C77791   4.312   3.502   8.019 -0.1181 -0.2517 -0.1536
  590MOL0    Cl77792   4.230   3.446   7.862  0.3799  0.1388 -0.4051
  590MOL0     C77793   4.828   3.876   7.329  0.5467  0.5307 -0.1135
  590MOL0     C77794   4.957   3.840   7.277  0.9746  0.4988 -0.5034
  590MOL0     O77795   5.110   3.920   7.052 -0.5838 -0.1726  0.0689
  590MOL0     C77796   5.293   3.842   6.875  0.3753  0.4678  0.6388
  590MOL0     C77797   5.399   3.807   6.790 -0.0794 -0.1699 -0.3214
  590MOL0     N77798   5.976   3.596   7.002 -0.0916 -0.0753  0.1379
  590MOL0     N77799   6.081   3.554   7.060  0.5721 -0.6762 -0.5816
  590MOL0     C77800   7.386   3.549   6.964 -0.0661  0.3231 -0.2161
  590MOL0     C77801   7.510   3.602   6.989 -0.6165 -0.0878  0.0877
  590MOL0     C77802   7.891   3.802   7.152 -0.0765 -0.5267 -0.3939
  590MOL0     C77803   7.855   3.877   7.270  0.4595  0.4882  0.5347
  590MOL0     C77804   7.956   3.956   7.332  0.3959 -0.1652  0.6514
  590MOL0     C77805   8.089   3.960   7.280 -0.2364  0.0580 -0.1340
  590MOL0     O77806   8.185   4.048   7.323 -0.4230  0.4900  0.8410
  590MOL0     C77807   8.146   4.162   7.400  0.2649 -0.0535  0.0654
  590MOL0     C77808   8.278   4.239   7.430 -0.0118  0.5097  0.7444
  590MOL0     C77809   8.263   4.347   7.541 -0.5127 -0.1058 -0.4267
  590MOL0     C77810   8.319   4.314   7.677 -0.5651  0.4850 -0.3589
  590MOL0     C77811   8.207   4.246   7.743  0.3533 -0.3934 -0.4174
  590MOL0     C77812   8.113   4.186   7.797 -0.4677 -0.4452  0.2935
  590MOL0     C77813   8.111   3.893   7.163  1.0151 -0.1732  1.1473
  590MOL0     C77814   8.017   3.818   7.090  0.0604 -0.5398 -0.1383
  590MOL0     H77815   7.444   3.775   7.266 -0.2931 -0.6601  1.2849
  590MOL0     H77816   7.217   3.688   7.221 -0.1808 -2.1115  2.6724
  590MOL0     H77817   7.184   3.447   6.843  1.0785 -1.5499  2.0423
  590MOL0     H77818   7.059   3.568   6.868 -1.5362 -0.3852 -0.6684
  590MOL0     H77819   7.026   3.301   7.005 -0.2447  0.3016 -0.1266
  590MOL0     H77820   6.984   3.322   6.836  2.3540 -1.2629  0.2702
  590MOL0     H77821   6.851   3.510   6.890  2.7073 -0.5800  0.4652
  590MOL0     H77822   6.859   3.484   7.072 -0.8840 -1.6721  1.0287
  590MOL0     H77823   6.756   3.280   6.876  1.5109  0.0547  0.1498
  590MOL0     H77824   6.736   3.278   7.049 -3.4371  0.0237 -0.3455
  590MOL0     H77825   6.612   3.502   6.872 -1.1597  0.1084  0.0816
  590MOL0     H77826   6.616   3.498   7.042 -1.5172 -0.6264  1.0078
  590MOL0     H77827   6.503   3.304   7.071 -0.6683 -0.0752 -0.1494
  590MOL0     H77828   6.490   3.260   6.906  2.8390  1.3275 -0.6772
  590MOL0     H77829   6.346   3.429   6.841  1.7776 -1.2555 -0.4078
  590MOL0     H77830   6.277   3.348   6.973 -0.7481  0.4206 -0.6954
  590MOL0     H77831   6.394   3.631   6.984  0.0224  0.6249  0.2911
  590MOL0     H77832   6.350   3.535   7.126 -0.8568  1.3255  0.0691
  590MOL0     H77833   6.208   3.699   6.795  0.6823 -3.0275 -0.3102
  590MOL0     H77834   5.973   3.807   6.739 -1.0341  0.5894 -0.5910
  590MOL0     H77835   5.845   3.766   6.840  0.0871  1.0270 -0.2413
  590MOL0     H77836   5.831   3.526   6.736 -0.4402  0.8514  1.6169
  590MOL0     H77837   5.954   3.597   6.624  1.2648  3.0517  0.8465
  590MOL0     H77838   5.799   3.732   6.515  0.0065 -2.5006 -1.3452
  590MOL0     H77839   5.706   3.575   6.543 -0.5386 -1.8602  2.5973
  590MOL0     H77840   5.562   3.754   6.567  0.9786 -0.3045  0.4425
  590MOL0     H77841   5.663   3.832   6.699  0.4712 -0.3529  0.1277
  590MOL0     H77842   5.519   3.542   6.961 -0.8377  0.7490  2.5677
  590MOL0     H77843   5.322   3.591   7.096 -1.8440 -0.3370 -0.5381
  590MOL0     H77844   4.865   3.574   7.088  0.4047  0.6482  0.0230
  590MOL0     H77845   4.654   3.616   7.171  1.4100 -1.4064  2.1048
  590MOL0     H77846   4.443   3.957   7.420 -0.3729 -0.6837 -0.0693
  590MOL0     H77847   4.579   4.030   7.356  1.3234 -1.8752 -3.7399
  590MOL0     H77848   4.653   4.060   7.573  2.8273 -1.4926  1.9153
  590MOL0     H77849   4.697   3.887   7.560 -0.4758  0.6779 -0.6990
  590MOL0     H77850   4.465   3.817   7.633  2.1458 -0.6565 -1.4089
  590MOL0     H77851   4.441   3.979   7.687 -0.7854 -0.3066  2.7443
  590MOL0     H77852   4.685   3.824   7.770 -1.0826  1.1502 -2.2511
  590MOL0     H77853   4.648   3.980   7.828  1.8276 -1.0548  0.6042
  590MOL0     H77854   4.432   3.904   7.919 -1.4160 -0.0468  1.9664
  590MOL0     H77855   4.564   3.821   8.007  1.8447  1.9433 -1.3502
  590MOL0     H77856   4.539   3.616   7.890 -1.7789 -0.9124  1.6004
  590MOL0     H77857   4.401   3.686   7.804  0.8634  0.3347 -1.2696
  590MOL0     H77858   4.412   3.663   8.117 -0.8038  2.3275 -1.2992
  590MOL0     H77859   4.275   3.703   8.016 -1.7258 -1.9016 -2.0110
  590MOL0     H77860   4.242   3.489   8.102 -0.4956  0.3785 -0.3725
  590MOL0     H77861   4.396   3.431   8.030 -0.5152 -0.9032 -1.1583
  590MOL0     H77862   4.814   3.972   7.378 -0.0540  0.7715 -0.7424
  590MOL0     H77863   5.046   3.895   7.309  0.2822  1.0739  0.4971
  590MOL0     H77864   5.241   3.935   6.856  0.1143  0.4858  1.4217
  590MOL0     H77865   5.413   3.859   6.695 -2.0331  1.2528  0.0951
  590MOL0     H77866   7.368   3.493   6.872 -1.0683 -0.4011  0.3979
  590MOL0     H77867   7.598   3.581   6.929 -0.2400  1.2627  0.1294
  590MOL0     H77868   7.756   3.875   7.315  0.0054  1.4675 -0.3604
  590MOL0     H77869   7.934   4.004   7.427 -3.2264 -0.7893  0.2794
  590MOL0     H77870   8.106   4.138   7.499  2.8623 -1.1067  0.9282
  590MOL0     H77871   8.078   4.228   7.346  0.6226  0.3627  0.1231
  590MOL0     H77872   8.353   4.170   7.470  1.5007  2.3137  1.1758
  590MOL0     H77873   8.326   4.279   7.340 -1.7694  3.3576  0.9327
  590MOL0     H77874   8.158   4.378   7.540 -0.7071 -0.6264  1.1390
  590MOL0     H77875   8.316   4.439   7.516 -0.2150 -0.0579  0.3470
  590MOL0     H77876   8.405   4.246   7.675 -0.9767 -0.0509 -0.3989
  590MOL0     H77877   8.344   4.406   7.730 -1.0427  1.2748 -1.4555
  590MOL0     H77878   8.029   4.131   7.836 -0.4731  0.5496  1.7952
  590MOL0     H77879   8.207   3.920   7.120 -0.3666 -0.9418 -2.7979
  590MOL0     H77880   8.041   3.779   6.992  0.1909  3.3218 -1.8256
  591MOL0     O77881   4.388  10.509   1.992  0.4798 -0.0563 -0.4690
  591MOL0     C77882   4.262  10.482   1.966 -0.3390  0.0855  0.4437
  591MOL0     O77883   4.192  10.545   1.861  0.2278 -0.7346 -0.2486
  591MOL0     C77884   4.255  10.635   1.780 -0.5790  0.4616 -0.4874
  591MOL0     C77885   4.301  10.760   1.834 -0.6160 -0.2200  0.2852
  591MOL0     C77886   4.363  10.853   1.751  0.0255 -0.0406 -0.1814
  591MOL0     C77887   4.391  10.821   1.618 -0.0128 -0.0450  1.0754
  591MOL0     O77888   4.449  10.910   1.525 -0.3282 -0.3113 -0.9023
  591MOL0     C77889   4.517  11.026   1.583  0.3199  0.6876  0.6157
  591MOL0     C77890   4.574  11.108   1.464 -0.3988  0.4586  0.6760
  591MOL0     C77891   4.662  11.223   1.511  0.3091 -0.5303  0.7975
  591MOL0     C77892   4.703  11.288   1.377  0.0762 -1.2776 -0.4678
  591MOL0     C77893   4.824  11.390   1.420 -0.2237  0.9853  0.5956
  591MOL0     C77894   4.864  11.477   1.299 -0.3254  0.1060 -0.0161
  591MOL0     C77895   4.866  11.397   1.166  0.9695  0.4533 -0.4293
  591MOL0     C77896   4.905  11.484   1.051 -0.5948 -0.1165 -0.0985
  591MOL0     N77897   4.815  11.596   1.016  0.8726 -0.0047 -0.0322
  591MOL0     C77898   4.690  11.578   0.964 -0.4837  0.1120  0.0797
  591MOL0     C77899   4.661  11.692   0.905  0.3258 -0.1787 -0.6034
  591MOL0     C77900   4.538  11.717   0.828  0.1991 -0.0221  0.5854
  591MOL0     C77901   4.415  11.672   0.905  0.0201  0.1806  0.9115
  591MOL0     C77902   4.397  11.735   1.043  0.0785 -0.3389 -0.0823
  591MOL0     C77903   4.375  11.889   1.066 -0.3832  0.2510 -0.0215
  591MOL0     O77904   4.251  11.922   1.014 -0.1918  0.1466 -0.3312
  591MOL0     C77905   4.139  11.932   1.096 -0.2316 -0.1128  0.3052
  591MOL0     C77906   4.115  11.858   1.212 -0.3933 -0.0339 -0.9613
  591MOL0     C77907   3.996  11.866   1.281  0.5360 -0.4625 -0.4873
  591MOL0     C77908   3.907  11.974   1.259 -0.0811  0.9067  0.5124
  591MOL0     C77909   3.786  11.981   1.333  0.0260 -0.2379 -0.5045
  591MOL0     O77910   3.755  11.894   1.437  0.0473 -0.9818 -0.2407
  591MOL0     C77911   3.621  11.879   1.481 -0.4460 -1.2888  0.5982
  591MOL0     C77912   3.551  11.760   1.475  0.0568  0.0474  0.4734
  591MOL0     C77913   3.424  11.747   1.530 -0.4028  0.3169  0.7885
  591MOL0     C77914   3.361  11.854   1.596  0.4328  0.2845  0.3094
  591MOL0     O77915   3.238  11.847   1.657  0.5670 -0.5997 -0.3728
  591MOL0     C77916   3.144  11.748   1.614  1.2006  0.0871  0.0176
  591MOL0     C77917   3.006  11.754   1.680  0.4135  0.5727 -0.5249
  591MOL0     C77918   2.937  11.884   1.657 -0.5385 -0.1104 -0.3945
  591MOL0     C77919   2.789  11.860   1.708  0.3085  0.2515  0.0766
  591MOL0     C77920   2.692  11.976   1.668 -0.3950  0.5187 -0.0227
  591MOL0     C77921   2.549  11.946   1.709  0.6795 -0.5118  0.6394
  591MOL0     C77922   2.465  12.059   1.670 -0.6629 -0.5964  0.5734
  591MOL0     C77923   2.385  12.105   1.784  0.4484  0.0990  0.4321
  591MOL0    Cl77924   2.274  11.984   1.866 -0.2303  0.1376  0.1026
  591MOL0     C77925   3.430  11.968   1.609 -0.4829  0.0275  0.0771
  591MOL0     C77926   3.563  11.983   1.560 -0.0895 -0.0117 -0.0389
  591MOL0     O77927   3.710  12.068   1.289 -0.3103 -0.6802  0.4754
  591MOL0     C77928   3.946  12.066   1.157  0.2219 -0.4439 -0.6232
  591MOL0     C77929   4.052  12.038   1.072 -0.2741 -0.3546 -0.2917
  591MOL0     N77930   4.767  11.785   0.924  0.2605  0.0509 -0.1046
  591MOL0     N77931   4.865  11.718   0.982  0.4928  0.1833 -1.0290
  591MOL0     C77932   4.353  10.698   1.569 -0.1687 -0.5429 -0.4769
  591MOL0     C77933   4.280  10.605   1.650  0.2435 -0.1573 -0.4938
  591MOL0     C77934   4.190  10.390   2.054 -0.3504 -0.1103 -0.5811
  591MOL0     C77935   4.257  10.322   2.157  0.6711  0.4051 -0.0926
  591MOL0     C77936   4.183  10.227   2.242  0.5017 -0.1280  0.7737
  591MOL0     C77937   4.048  10.210   2.219 -0.1006 -0.1147 -0.0808
  591MOL0     O77938   3.990  10.131   2.321  0.2038 -0.6811  0.5240
  591MOL0     C77939   3.846  10.120   2.339 -0.8240  0.8614 -0.0004
  591MOL0     C77940   3.794  10.011   2.247 -0.0624  0.3487 -0.6773
  591MOL0     C77941   3.846   9.869   2.300  0.2135  0.0226 -0.0362
  591MOL0     C77942   3.821   9.752   2.204  0.0794 -0.7987 -0.2655
  591MOL0     C77943   3.874   9.616   2.234  0.4568  0.2131 -0.1730
  591MOL0     C77944   3.906   9.506   2.256 -0.1448  0.2391 -0.9068
  591MOL0     C77945   3.980  10.273   2.112 -0.7260  0.6662 -0.0637
  591MOL0     C77946   4.063  10.356   2.032  1.0521  0.2815 -0.2857
  591MOL0     H77947   4.302  10.779   1.941  1.1531 -2.3357  0.7199
  591MOL0     H77948   4.404  10.944   1.792 -0.3414  1.2045 -2.4273
  591MOL0     H77949   4.589  10.991   1.658 -1.0738 -0.7485  1.3603
  591MOL0     H77950   4.442  11.085   1.637  1.0285  1.3356  0.9055
  591MOL0     H77951   4.491  11.132   1.397 -0.2798  0.1224  0.4022
  591MOL0     H77952   4.622  11.047   1.387 -2.1286  2.6031 -2.3530
  591MOL0     H77953   4.751  11.192   1.567  2.1216  1.9732 -0.4850
  591MOL0     H77954   4.612  11.297   1.574  1.4237  1.5528 -0.6234
  591MOL0     H77955   4.741  11.206   1.316  0.4183 -0.5903 -1.1883
  591MOL0     H77956   4.618  11.340   1.332  1.6971  2.2699  0.2239
  591MOL0     H77957   4.901  11.316   1.445 -0.1601  1.5204  2.0819
  591MOL0     H77958   4.801  11.434   1.517 -1.1040  1.8414  0.0199
  591MOL0     H77959   4.962  11.521   1.320 -0.3941  0.0327  0.4735
  591MOL0     H77960   4.788  11.556   1.293  0.4157  0.8672  0.5511
  591MOL0     H77961   4.936  11.314   1.174 -1.0610 -1.4999 -1.7901
  591MOL0     H77962   4.770  11.351   1.143  1.3389 -0.5974  0.0595
  591MOL0     H77963   4.909  11.422   0.961 -0.1592 -1.4055  0.7865
  591MOL0     H77964   5.009  11.510   1.071  0.1516 -3.6293  1.3063
  591MOL0     H77965   4.644  11.479   0.962  0.9192 -0.5538 -1.8524
  591MOL0     H77966   4.554  11.670   0.731 -0.6926  1.1567 -0.1660
  591MOL0     H77967   4.524  11.823   0.803  3.3872  0.3000 -0.2696
  591MOL0     H77968   4.424  11.563   0.910  0.5788  0.2377  1.2673
  591MOL0     H77969   4.328  11.689   0.841  2.3390 -0.2570 -2.6750
  591MOL0     H77970   4.302  11.693   1.079 -0.1946  0.1724 -0.2039
  591MOL0     H77971   4.477  11.695   1.107  1.2403  1.8568 -0.0779
  591MOL0     H77972   4.461  11.939   1.019 -0.3734 -2.3163 -3.0973
  591MOL0     H77973   4.380  11.898   1.175 -0.2433 -0.6255  0.0527
  591MOL0     H77974   4.181  11.779   1.248  3.4837  3.0119 -0.7329
  591MOL0     H77975   3.963  11.791   1.352 -0.9298  0.9387  0.3780
  591MOL0     H77976   3.590  11.681   1.411  0.6296  0.3593  0.4328
  591MOL0     H77977   3.380  11.650   1.508  0.2213  0.0203  0.8171
  591MOL0     H77978   3.179  11.645   1.623  1.3859  0.2277  1.0464
  591MOL0     H77979   3.127  11.763   1.507  0.1172 -1.4098 -0.0462
  591MOL0     H77980   3.008  11.746   1.789  1.8182  2.9686 -0.3134
  591MOL0     H77981   2.952  11.674   1.629 -0.0463  3.4356 -5.0783
  591MOL0     H77982   2.924  11.907   1.551 -3.0517 -0.6929 -0.2861
  591MOL0     H77983   2.976  11.970   1.713  0.5611 -0.2633 -0.9029
  591MOL0     H77984   2.758  11.764   1.668 -1.1181  0.5606  0.3961
  591MOL0     H77985   2.791  11.851   1.817 -1.7594  2.9398  0.4469
  591MOL0     H77986   2.695  11.974   1.559  2.0166 -2.1237 -0.0225
  591MOL0     H77987   2.726  12.067   1.718  0.5488  0.2264 -0.1285
  591MOL0     H77988   2.546  11.911   1.813 -0.6618 -0.9044  0.4769
  591MOL0     H77989   2.510  11.867   1.645  0.1865  1.2241 -1.3134
  591MOL0     H77990   2.516  12.149   1.633  1.2313 -1.2772  1.3690
  591MOL0     H77991   2.404  12.033   1.583 -1.4266 -1.5904  1.3833
  591MOL0     H77992   2.322  12.185   1.744  1.9396  0.1784 -1.9034
  591MOL0     H77993   2.444  12.151   1.864 -0.6108  1.4643  0.4560
  591MOL0     H77994   3.379  12.037   1.676 -0.4452  0.7557 -0.6260
  591MOL0     H77995   3.617  12.074   1.583  1.3035 -1.4752  3.0091
  591MOL0     H77996   3.899  12.163   1.151  1.6864  0.2899 -0.7097
  591MOL0     H77997   4.074  12.104   0.988  0.0836 -0.5055 -0.3209
  591MOL0     H77998   4.369  10.675   1.465 -2.1730 -0.0440 -0.9415
  591MOL0     H77999   4.251  10.505   1.619 -1.9496  0.2819 -0.0482
  591MOL0     H78000   4.359  10.353   2.178  1.0844 -0.5974 -0.5588
  591MOL0     H78001   4.243  10.178   2.318  0.4959 -1.8228 -0.2758
  591MOL0     H78002   3.798  10.214   2.311  1.4043  1.3494 -2.5227
  591MOL0     H78003   3.815  10.085   2.438 -1.4338  1.7879  0.1463
  591MOL0     H78004   3.685  10.012   2.241 -0.1000 -0.3939 -0.1590
  591MOL0     H78005   3.832  10.019   2.145  2.4446  0.6338  0.2085
  591MOL0     H78006   3.803   9.842   2.397 -0.7858 -2.2243 -1.0365
  591MOL0     H78007   3.951   9.881   2.327 -0.1845  1.5259  0.9794
  591MOL0     H78008   3.716   9.743   2.176  0.3276  1.8168 -2.5041
  591MOL0     H78009   3.862   9.779   2.106 -0.2452 -1.3276 -0.5490
  591MOL0     H78010   3.943   9.409   2.283 -2.3213 -0.3332  0.2434
  591MOL0     H78011   3.876  10.249   2.093 -1.3004  0.0417  3.1559
  591MOL0     H78012   4.009  10.396   1.946  0.1689  1.0810  0.6204
  592MOL0     O78013   0.276   6.021   8.185 -0.7740  0.2013 -0.4162
  592MOL0     C78014   0.322   6.062   8.083 -0.5266  0.0522 -0.1833
  592MOL0     O78015   0.248   6.101   7.969 -0.1961 -0.0098  0.1001
  592MOL0     C78016   0.111   6.100   7.967  0.1784  0.3271  0.1159
  592MOL0     C78017   0.041   6.186   7.877 -0.2186 -0.0805 -0.2885
  592MOL0     C78018  -0.103   6.186   7.880 -0.6074 -0.2275  0.6883
  592MOL0     C78019  -0.173   6.095   7.962  0.2088 -1.1117 -0.2893
  592MOL0     O78020  -0.311   6.090   7.957 -0.3557 -0.4776 -0.1710
  592MOL0     C78021  -0.367   5.968   7.916  0.9980 -0.0826  0.3084
  592MOL0     C78022  -0.460   5.983   7.800 -0.3655 -0.8338  0.2915
  592MOL0     C78023  -0.596   6.049   7.846  0.1664 -0.3705 -0.1769
  592MOL0     C78024  -0.696   6.099   7.737 -0.7877  0.7992  0.2540
  592MOL0     C78025  -0.772   5.973   7.691  0.0382 -0.6594 -0.2455
  592MOL0     C78026  -0.873   6.004   7.575  0.1338 -0.1106  0.1350
  592MOL0     C78027  -0.967   5.876   7.538 -0.4406 -1.4452 -0.1485
  592MOL0     C78028  -0.885   5.793   7.440  0.1837 -0.6726  0.6872
  592MOL0     N78029  -0.968   5.686   7.377 -0.2690 -0.8507 -0.5948
  592MOL0     C78030  -1.056   5.702   7.276  0.2851  0.1788  0.2682
  592MOL0     C78031  -1.137   5.593   7.284  0.6226  0.5135 -0.5852
  592MOL0     C78032  -1.241   5.555   7.183  0.0069  1.0508 -0.9833
  592MOL0     C78033  -1.379   5.540   7.268 -0.8833  0.7035  0.7985
  592MOL0     C78034  -1.489   5.464   7.185 -0.0966  0.2031 -0.7048
  592MOL0     C78035  -1.619   5.455   7.269  0.1755 -0.6750 -0.0686
  592MOL0     O78036  -1.707   5.379   7.191 -0.1792  0.2224  0.1205
  592MOL0     C78037  -1.834   5.351   7.241 -0.1677  0.2441 -0.4148
  592MOL0     C78038  -1.887   5.401   7.357 -0.1756 -0.5878  0.4002
  592MOL0     C78039  -2.016   5.392   7.393  0.4384 -0.0338  0.2596
  592MOL0     C78040  -2.108   5.333   7.303 -0.5004  0.1936 -0.7167
  592MOL0     C78041  -2.251   5.319   7.345  0.5403 -0.2506  0.5917
  592MOL0     O78042  -2.294   5.352   7.470 -0.0467  0.0683 -0.6145
  592MOL0     C78043  -2.416   5.323   7.521  0.1182  0.0214 -0.0797
  592MOL0     C78044  -2.532   5.345   7.444  0.4846  0.1028  0.1199
  592MOL0     C78045  -2.659   5.303   7.488 -1.1445  0.1483  0.4743
  592MOL0     C78046  -2.672   5.240   7.610 -0.1291  0.5328  0.0437
  592MOL0     O78047  -2.793   5.185   7.660  0.7622  0.4135 -0.3568
  592MOL0     C78048  -2.911   5.224   7.578 -0.1180  0.1770  0.2848
  592MOL0     C78049  -3.023   5.188   7.677  0.1653  1.1781 -1.2317
  592MOL0     C78050  -3.164   5.200   7.616 -0.7448 -0.4317 -0.3669
  592MOL0     C78051  -3.276   5.125   7.689 -0.1300 -0.6120  0.5099
  592MOL0     C78052  -3.404   5.163   7.616 -0.4391  0.4038 -1.3934
  592MOL0     C78053  -3.534   5.080   7.659 -0.5026 -1.1309  0.5662
  592MOL0     C78054  -3.601   5.132   7.791  0.2876  0.0791  0.1587
  592MOL0     C78055  -3.720   5.047   7.830  0.0675  0.7549 -1.0819
  592MOL0    Cl78056  -3.779   5.092   7.995 -0.4643 -0.0761  0.1823
  592MOL0     C78057  -2.562   5.230   7.690 -0.3543 -1.0279 -0.7669
  592MOL0     C78058  -2.435   5.274   7.655  0.3747 -0.1066 -0.8121
  592MOL0     O78059  -2.323   5.277   7.254  0.0967  0.2225  0.0587
  592MOL0     C78060  -2.056   5.272   7.187 -0.2352 -0.2804  0.0012
  592MOL0     C78061  -1.923   5.274   7.164  0.0893 -0.7674 -0.0968
  592MOL0     N78062  -1.090   5.512   7.384 -0.2919  0.8579 -0.2045
  592MOL0     N78063  -1.010   5.582   7.450  0.0864  0.2351  0.0466
  592MOL0     C78064  -0.103   5.996   8.034  0.5293 -0.5366 -1.1335
  592MOL0     C78065   0.036   6.008   8.040  0.0929  0.0577 -0.0932
  592MOL0     C78066   0.473   6.074   8.072 -0.0146  0.4678 -0.1488
  592MOL0     C78067   0.555   6.049   8.178 -0.4992  0.0665  0.1765
  592MOL0     C78068   0.696   6.071   8.175 -1.0220  0.0265 -0.4015
  592MOL0     C78069   0.758   6.143   8.075 -0.3146  0.0986 -0.0065
  592MOL0     O78070   0.881   6.188   8.082 -1.0644 -0.2367 -0.1509
  592MOL0     C78071   0.943   6.205   8.212  0.2480  0.0937 -0.2052
  592MOL0     C78072   1.052   6.302   8.212 -0.3405 -0.5766 -0.6132
  592MOL0     C78073   1.017   6.422   8.127 -0.9204 -0.4555  0.3714
  592MOL0     C78074   1.104   6.543   8.147 -0.3870 -0.8065 -0.6329
  592MOL0     C78075   1.243   6.522   8.193 -1.0120 -0.0358  0.5948
  592MOL0     C78076   1.355   6.495   8.237 -0.1572  0.3476  0.0239
  592MOL0     C78077   0.679   6.176   7.963  0.1576 -0.6035  0.1821
  592MOL0     C78078   0.540   6.137   7.963 -0.1432 -0.2980  0.2812
  592MOL0     H78079   0.095   6.261   7.820  0.6101  1.0897  1.9195
  592MOL0     H78080  -0.161   6.258   7.823  1.7224  0.9626 -0.2930
  592MOL0     H78081  -0.414   5.914   7.998  2.1193  1.0244  1.7242
  592MOL0     H78082  -0.297   5.904   7.862 -0.6286 -0.0396 -2.0294
  592MOL0     H78083  -0.484   5.888   7.752 -2.3576 -0.9189  1.3493
  592MOL0     H78084  -0.411   6.047   7.726  0.5944  0.0184  1.6024
  592MOL0     H78085  -0.562   6.143   7.891  1.2310  0.0926 -1.8507
  592MOL0     H78086  -0.652   5.985   7.915 -0.5588 -1.9040 -2.1044
  592MOL0     H78087  -0.765   6.171   7.782  1.1774  1.6582  2.0918
  592MOL0     H78088  -0.638   6.135   7.651  1.7318 -2.9251  0.1694
  592MOL0     H78089  -0.826   5.944   7.781 -0.2326  1.6983  0.4095
  592MOL0     H78090  -0.698   5.896   7.667 -1.1742 -1.7322 -0.6315
  592MOL0     H78091  -0.815   6.040   7.489  2.5035  0.3581  1.8265
  592MOL0     H78092  -0.935   6.080   7.623 -1.5107 -0.8911 -0.6676
  592MOL0     H78093  -1.007   5.821   7.624  0.9030 -1.1733  0.6770
  592MOL0     H78094  -1.052   5.920   7.485 -2.1014 -3.8392  0.3171
  592MOL0     H78095  -0.798   5.745   7.486  1.3744  0.8829  0.1353
  592MOL0     H78096  -0.847   5.860   7.362  0.4737 -0.8942  0.6382
  592MOL0     H78097  -1.054   5.779   7.199  3.9290  0.7489  0.7551
  592MOL0     H78098  -1.210   5.465   7.130 -0.2051  1.5902 -2.0604
  592MOL0     H78099  -1.256   5.643   7.120 -3.4326  1.2268 -0.1413
  592MOL0     H78100  -1.407   5.640   7.304  0.3801  1.6596 -0.7116
  592MOL0     H78101  -1.367   5.473   7.353 -3.4647 -0.7264  0.1398
  592MOL0     H78102  -1.520   5.521   7.097 -1.8273  2.8278  1.4108
  592MOL0     H78103  -1.457   5.363   7.158 -1.5268 -0.4496 -0.0951
  592MOL0     H78104  -1.664   5.555   7.280  2.7367  0.5458  0.0385
  592MOL0     H78105  -1.605   5.408   7.366  2.8498 -1.2121 -0.6593
  592MOL0     H78106  -1.813   5.446   7.424 -1.5987  0.2199  1.4857
  592MOL0     H78107  -2.058   5.434   7.484 -0.5380 -1.0595  0.3166
  592MOL0     H78108  -2.525   5.395   7.348  2.0340  1.1832  0.7528
  592MOL0     H78109  -2.749   5.320   7.430  0.4482 -0.6621 -2.4285
  592MOL0     H78110  -2.924   5.167   7.486  0.5042 -0.0801  0.3526
  592MOL0     H78111  -2.907   5.333   7.566  2.4508  0.0374 -0.7633
  592MOL0     H78112  -3.014   5.249   7.767 -0.4930  1.1494 -1.1429
  592MOL0     H78113  -3.012   5.083   7.705  1.0151  1.0378 -2.0267
  592MOL0     H78114  -3.161   5.169   7.511  1.1427  0.5216 -0.6372
  592MOL0     H78115  -3.191   5.304   7.597  0.5286 -0.3331 -1.8531
  592MOL0     H78116  -3.250   5.019   7.698 -0.7228 -0.8529 -0.5011
  592MOL0     H78117  -3.280   5.164   7.792  0.4463 -1.3071  0.8025
  592MOL0     H78118  -3.404   5.170   7.507 -0.5829  1.8743 -1.3321
  592MOL0     H78119  -3.416   5.270   7.636  1.5139  0.3934  0.1980
  592MOL0     H78120  -3.511   4.975   7.677  3.1320 -0.3095  1.5008
  592MOL0     H78121  -3.602   5.087   7.574  0.5295  1.2054 -0.1661
  592MOL0     H78122  -3.527   5.134   7.872  1.0681 -0.6532 -0.5252
  592MOL0     H78123  -3.652   5.227   7.772  1.4671  0.8314  0.6672
  592MOL0     H78124  -3.690   4.941   7.831  1.3088  1.0416  1.9108
  592MOL0     H78125  -3.805   5.055   7.762  0.7454  2.4805 -1.7635
  592MOL0     H78126  -2.579   5.194   7.791 -0.8580 -1.3101 -0.9468
  592MOL0     H78127  -2.357   5.265   7.730  0.5392 -0.8424 -1.0577
  592MOL0     H78128  -2.121   5.216   7.120  1.2456  0.0342 -1.7541
  592MOL0     H78129  -1.877   5.232   7.075  2.9992  0.2518  0.7826
  592MOL0     H78130  -0.153   5.919   8.093  0.2892  1.5563  1.6109
  592MOL0     H78131   0.079   5.936   8.108  4.5681  2.5510  0.1018
  592MOL0     H78132   0.512   6.017   8.272  0.3642  0.1504  0.6077
  592MOL0     H78133   0.752   6.030   8.259  2.1720 -3.7290 -3.9266
  592MOL0     H78134   0.968   6.109   8.258  1.6709  0.2258 -0.6558
  592MOL0     H78135   0.860   6.243   8.272 -0.8040 -1.4883 -0.5945
  592MOL0     H78136   1.074   6.350   8.308 -2.0586  0.3405 -0.6341
  592MOL0     H78137   1.148   6.265   8.177  0.5995  2.0681 -1.1040
  592MOL0     H78138   0.914   6.455   8.144 -1.3883 -1.3155 -0.6426
  592MOL0     H78139   1.020   6.383   8.025  1.3295 -0.6258  0.4616
  592MOL0     H78140   1.101   6.610   8.061 -1.9746  0.3898  0.2991
  592MOL0     H78141   1.049   6.595   8.226  2.5576 -0.0948  1.1250
  592MOL0     H78142   1.448   6.489   8.290  0.1743  2.6309 -0.1750
  592MOL0     H78143   0.733   6.232   7.887  1.7771 -0.3790  1.4428
  592MOL0     H78144   0.469   6.157   7.883  0.4110  0.1607 -0.1054
  593MOL0     O78145   1.782   2.041   2.900 -0.0913 -0.3763  0.5232
  593MOL0     C78146   1.785   2.031   3.028 -0.6511  0.3059  0.3287
  593MOL0     O78147   1.683   2.018   3.112  0.2943 -0.0754 -0.3484
  593MOL0     C78148   1.544   2.022   3.071  1.2257  0.0084 -0.4162
  593MOL0     C78149   1.486   2.002   2.939  0.3558  0.5451 -0.3425
  593MOL0     C78150   1.349   2.016   2.912  0.3342  0.1044 -0.3996
  593MOL0     C78151   1.266   2.047   3.017 -0.1493 -1.4280  1.3616
  593MOL0     O78152   1.130   2.029   3.003 -0.6446 -0.8415  0.0503
  593MOL0     C78153   1.054   2.148   2.985  0.8116  0.4011 -0.0183
  593MOL0     C78154   1.021   2.159   2.838  0.2077  0.0398 -0.6553
  593MOL0     C78155   0.964   2.030   2.776 -0.2186  0.2194 -0.2844
  593MOL0     C78156   0.895   2.067   2.650 -0.0202 -0.5473 -0.0415
  593MOL0     C78157   0.765   2.158   2.661 -0.4383 -0.2917  0.1021
  593MOL0     C78158   0.664   2.128   2.544 -0.5515 -0.8792 -0.0733
  593MOL0     C78159   0.530   2.178   2.581  0.0582 -0.3515 -0.0161
  593MOL0     C78160   0.423   2.144   2.466  0.1810 -0.7409  0.0556
  593MOL0     N78161   0.409   2.001   2.445 -0.4371  0.0024  0.0265
  593MOL0     C78162   0.449   1.933   2.335  0.2428 -0.9292  0.2026
  593MOL0     C78163   0.434   1.807   2.373 -0.6806 -0.4239  0.8475
  593MOL0     C78164   0.494   1.689   2.308 -1.0691 -0.1327  0.7510
  593MOL0     C78165   0.386   1.589   2.266  1.2377  0.6377 -0.5095
  593MOL0     C78166   0.277   1.646   2.167 -0.4326 -0.2798  0.4924
  593MOL0     C78167   0.152   1.549   2.148  0.6386 -0.4539 -0.2428
  593MOL0     O78168   0.200   1.435   2.074  0.3579 -0.2269  0.2846
  593MOL0     C78169   0.110   1.367   1.997  1.1054  0.3279 -0.2449
  593MOL0     C78170   0.150   1.308   1.873 -0.1246 -0.3058 -0.7257
  593MOL0     C78171   0.068   1.216   1.816  0.0108  0.3025 -1.0233
  593MOL0     C78172  -0.054   1.169   1.880  0.0240  0.5515 -0.4462
  593MOL0     C78173  -0.139   1.061   1.821 -0.3074 -0.7231  0.0918
  593MOL0     O78174  -0.079   1.001   1.708 -0.4206 -0.5975  0.4751
  593MOL0     C78175  -0.162   0.936   1.629 -0.8134 -0.8378  0.4909
  593MOL0     C78176  -0.173   0.794   1.620 -0.2357 -0.1116 -0.2681
  593MOL0     C78177  -0.255   0.735   1.530  0.8633  0.3666  0.0031
  593MOL0     C78178  -0.353   0.811   1.454  0.7722  0.0232  0.2263
  593MOL0     O78179  -0.438   0.770   1.353  0.0291  0.2727 -0.2798
  593MOL0     C78180  -0.386   0.662   1.268 -0.0607 -0.1026 -0.2892
  593MOL0     C78181  -0.469   0.639   1.137 -0.2236  0.1636  1.1170
  593MOL0     C78182  -0.605   0.578   1.173 -0.1904 -0.1767 -0.2256
  593MOL0     C78183  -0.696   0.560   1.054 -0.2263  0.4330  0.1190
  593MOL0     C78184  -0.719   0.683   0.968 -0.8768  0.2446 -0.8071
  593MOL0     C78185  -0.809   0.661   0.863  0.1254  0.5898  0.4676
  593MOL0     C78186  -0.866   0.782   0.783 -0.8167 -0.2528 -0.7484
  593MOL0     C78187  -0.993   0.721   0.708  0.8053 -0.5479 -0.0681
  593MOL0    Cl78188  -1.068   0.860   0.618 -0.3340  0.1110  0.2817
  593MOL0     C78189  -0.343   0.946   1.471  1.2396  1.3954  0.8391
  593MOL0     C78190  -0.246   1.009   1.546  0.3505 -0.3661 -0.1908
  593MOL0     O78191  -0.243   1.030   1.873  0.4384  0.0716 -0.6280
  593MOL0     C78192  -0.087   1.232   1.998  0.7448  0.1989  0.0820
  593MOL0     C78193  -0.007   1.328   2.055  0.4115  0.8950 -0.7759
  593MOL0     N78194   0.362   1.801   2.491 -0.9157  0.3975 -0.2086
  593MOL0     N78195   0.344   1.918   2.528 -0.2669  0.9895 -0.2586
  593MOL0     C78196   1.314   2.076   3.148 -0.3228 -1.1030  0.4350
  593MOL0     C78197   1.448   2.064   3.180 -0.5634  0.5071  0.0982
  593MOL0     C78198   1.913   2.020   3.091 -0.1036  0.0470 -0.2235
  593MOL0     C78199   1.933   2.067   3.222  0.1599 -0.1706  0.2855
  593MOL0     C78200   2.063   2.078   3.268  0.1863  0.6498  0.4754
  593MOL0     C78201   2.177   2.029   3.202  0.6045  0.4663  0.3183
  593MOL0     O78202   2.283   2.023   3.282  0.1354 -0.2982  0.4313
  593MOL0     C78203   2.402   1.974   3.224  0.1578 -0.7963 -0.2116
  593MOL0     C78204   2.519   1.999   3.324  0.1379 -0.4565 -0.0210
  593MOL0     C78205   2.651   1.941   3.271 -0.9805 -0.2048  0.2797
  593MOL0     C78206   2.772   1.968   3.360 -0.1963 -0.5616  0.6122
  593MOL0     C78207   2.847   2.075   3.295 -0.0765  0.3416 -0.0482
  593MOL0     C78208   2.899   2.164   3.224  0.3265  0.1379 -1.0946
  593MOL0     C78209   2.163   1.979   3.067 -0.8670 -0.2557 -0.6818
  593MOL0     C78210   2.030   1.978   3.014 -0.0130  0.1059 -0.3973
  593MOL0     H78211   1.549   1.953   2.865 -1.5421 -1.5078 -0.7124
  593MOL0     H78212   1.307   1.988   2.816 -0.0085 -4.4387  0.8552
  593MOL0     H78213   1.107   2.235   3.025  1.6560 -0.5416  0.9663
  593MOL0     H78214   0.957   2.130   3.032  0.5326  0.9909 -0.3656
  593MOL0     H78215   1.109   2.189   2.780 -0.4811 -0.1751 -1.8483
  593MOL0     H78216   0.952   2.241   2.818 -0.4206 -0.6108 -1.2343
  593MOL0     H78217   0.904   1.977   2.852  1.1034  0.3382  0.8875
  593MOL0     H78218   1.048   1.963   2.758  0.6607  1.3023 -0.2943
  593MOL0     H78219   0.964   2.105   2.575  1.0116  0.2456  1.2634
  593MOL0     H78220   0.854   1.977   2.602 -1.7698 -0.1431  0.6028
  593MOL0     H78221   0.792   2.263   2.677 -1.9270  0.3902 -1.4755
  593MOL0     H78222   0.713   2.142   2.756 -3.1042 -1.3116 -1.4063
  593MOL0     H78223   0.655   2.021   2.526  0.4652 -1.2525  1.4872
  593MOL0     H78224   0.707   2.188   2.463 -0.2274  1.7914  1.9198
  593MOL0     H78225   0.494   2.134   2.674  0.5763 -0.7119  0.0242
  593MOL0     H78226   0.549   2.284   2.601  2.2705 -0.8127  0.6604
  593MOL0     H78227   0.456   2.191   2.373  0.2986 -2.8580 -1.0201
  593MOL0     H78228   0.326   2.191   2.486 -0.7242 -1.9088 -1.3528
  593MOL0     H78229   0.497   1.978   2.248  0.4262 -3.1175 -0.9123
  593MOL0     H78230   0.562   1.641   2.379  1.2892  1.2892 -0.4208
  593MOL0     H78231   0.556   1.715   2.222 -2.8949 -0.4033 -0.7369
  593MOL0     H78232   0.331   1.558   2.356  1.9095 -0.5059 -0.4710
  593MOL0     H78233   0.424   1.497   2.222  0.0637  0.0158 -0.2578
  593MOL0     H78234   0.236   1.737   2.212 -3.3734 -1.5075  0.5320
  593MOL0     H78235   0.318   1.681   2.072 -2.0369 -1.4002 -0.6707
  593MOL0     H78236   0.068   1.605   2.107 -0.5585 -0.8997  1.5017
  593MOL0     H78237   0.107   1.522   2.243 -0.7638  1.5792 -0.2727
  593MOL0     H78238   0.245   1.330   1.826 -0.7106  2.8010 -0.6767
  593MOL0     H78239   0.105   1.179   1.721  0.9154  1.3628 -1.0960
  593MOL0     H78240  -0.115   0.739   1.692  0.5067  0.0551 -0.7259
  593MOL0     H78241  -0.264   0.627   1.532 -0.5627  0.3893 -1.9767
  593MOL0     H78242  -0.385   0.566   1.321  0.2598 -0.0405 -0.1784
  593MOL0     H78243  -0.280   0.684   1.254  0.0490  0.9227  1.7264
  593MOL0     H78244  -0.412   0.575   1.068 -0.4242  2.5583 -1.4676
  593MOL0     H78245  -0.469   0.733   1.080  1.3357 -0.0715  0.6908
  593MOL0     H78246  -0.660   0.640   1.245 -1.4314 -1.2888 -0.1694
  593MOL0     H78247  -0.588   0.483   1.225  1.8976  0.3141  0.0974
  593MOL0     H78248  -0.650   0.484   0.990  1.8240 -1.0249  3.1027
  593MOL0     H78249  -0.792   0.520   1.087 -0.6374 -0.3754 -1.8927
  593MOL0     H78250  -0.623   0.720   0.932 -0.8462  0.9755 -0.0004
  593MOL0     H78251  -0.767   0.763   1.024 -2.9271 -0.1833 -1.8156
  593MOL0     H78252  -0.897   0.615   0.909  1.0383 -0.4041  1.2474
  593MOL0     H78253  -0.757   0.591   0.797  1.3028 -1.1914  3.1438
  593MOL0     H78254  -0.895   0.850   0.863  3.8391 -2.0524  2.9570
  593MOL0     H78255  -0.792   0.829   0.716 -0.8630  1.5273  0.3874
  593MOL0     H78256  -1.065   0.677   0.776 -3.0407  1.9714 -2.1321
  593MOL0     H78257  -0.958   0.650   0.632  2.4829 -1.2237  1.2720
  593MOL0     H78258  -0.420   0.997   1.414 -0.4165 -0.6369  1.1380
  593MOL0     H78259  -0.245   1.118   1.546  2.3120 -0.3061  1.4324
  593MOL0     H78260  -0.174   1.196   2.051  1.3694  0.6941  1.4909
  593MOL0     H78261  -0.029   1.351   2.159 -0.0211 -0.1023 -0.6416
  593MOL0     H78262   1.242   2.114   3.221  0.7797  1.5644  0.2630
  593MOL0     H78263   1.490   2.093   3.276  0.1693  2.2821 -0.7136
  593MOL0     H78264   1.853   2.114   3.277  0.7834  0.0080  1.0616
  593MOL0     H78265   2.076   2.121   3.367 -1.5935 -0.4771  1.2529
  593MOL0     H78266   2.418   2.028   3.131 -1.6050 -0.5326 -0.4035
  593MOL0     H78267   2.383   1.869   3.199 -0.0500 -0.9859  0.7102
  593MOL0     H78268   2.524   2.106   3.347  0.3585  0.3222 -3.3037
  593MOL0     H78269   2.496   1.958   3.423  0.1088  2.8611  1.4819
  593MOL0     H78270   2.672   1.977   3.170  0.4911 -0.8951  0.3069
  593MOL0     H78271   2.646   1.832   3.265 -5.4976 -0.2065  0.8520
  593MOL0     H78272   2.739   1.991   3.462  0.6678  0.7276  0.6133
  593MOL0     H78273   2.839   1.882   3.360  0.6821  0.0837 -0.8957
  593MOL0     H78274   2.937   2.250   3.172 -2.5770  0.3023 -3.1878
  593MOL0     H78275   2.254   1.948   3.017 -0.0257 -2.2741  1.8760
  593MOL0     H78276   2.013   1.946   2.912  1.1257  0.0971 -0.6018
  594MOL0     O78277   1.615   8.188   9.577 -0.1975  0.0543 -0.3161
  594MOL0     C78278   1.598   8.270   9.670 -0.9202 -0.0811 -0.2715
  594MOL0     O78279   1.478   8.306   9.729  0.0639 -0.3123 -0.0378
  594MOL0     C78280   1.362   8.265   9.668  0.5456  0.0306  0.6164
  594MOL0     C78281   1.265   8.357   9.625  0.1395 -0.2150  0.5490
  594MOL0     C78282   1.146   8.317   9.555 -0.2954  0.6319  0.4807
  594MOL0     C78283   1.138   8.181   9.509  0.4844  0.5380  0.9586
  594MOL0     O78284   1.031   8.151   9.419  0.1027  0.0207 -0.1954
  594MOL0     C78285   1.045   8.034   9.341 -0.8595 -0.0849  1.1286
  594MOL0     C78286   0.936   8.035   9.229 -0.2748  0.1495 -0.1365
  594MOL0     C78287   0.787   8.017   9.277 -0.2919  0.2975  0.1520
  594MOL0     C78288   0.692   8.006   9.155  0.2228 -0.3250 -0.1522
  594MOL0     C78289   0.553   7.942   9.198  0.4404 -0.0934  0.3170
  594MOL0     C78290   0.454   7.960   9.082  0.2571  0.2848 -0.0197
  594MOL0     C78291   0.304   7.934   9.122 -0.0625 -0.3053 -0.9904
  594MOL0     C78292   0.200   7.940   9.013 -0.2553 -0.5794  0.4805
  594MOL0     N78293   0.071   8.010   9.040  1.1168 -0.4672  0.1538
  594MOL0     C78294   0.058   8.131   9.090 -0.1815 -0.6905 -0.8357
  594MOL0     C78295  -0.075   8.162   9.087  0.1642 -0.0291 -0.3836
  594MOL0     C78296  -0.133   8.285   9.144 -0.4923 -0.0606 -0.0721
  594MOL0     C78297  -0.276   8.305   9.122  0.4674  0.2788 -0.1816
  594MOL0     C78298  -0.363   8.231   9.220 -0.2606 -0.3831  0.1146
  594MOL0     C78299  -0.508   8.286   9.206  1.1508  0.5772 -0.7133
  594MOL0     O78300  -0.589   8.219   9.302  0.9616 -0.3567  0.2384
  594MOL0     C78301  -0.726   8.242   9.301 -0.6941  0.7721  0.8933
  594MOL0     C78302  -0.799   8.327   9.209  0.4329  0.0174  1.1971
  594MOL0     C78303  -0.940   8.340   9.223 -0.7159  0.2093  0.4065
  594MOL0     C78304  -1.013   8.266   9.316  0.2747 -0.0863  0.1790
  594MOL0     C78305  -1.156   8.271   9.320  0.5470 -0.6375  0.2067
  594MOL0     O78306  -1.216   8.359   9.234 -1.0474  0.5391  0.7455
  594MOL0     C78307  -1.347   8.394   9.258  0.2825  0.2933 -0.3408
  594MOL0     C78308  -1.425   8.433   9.145  0.2883  0.4913 -0.0109
  594MOL0     C78309  -1.556   8.470   9.158 -0.1616 -0.8196 -0.0777
  594MOL0     C78310  -1.621   8.464   9.287 -0.6036  0.1598  1.0396
  594MOL0     O78311  -1.750   8.513   9.306  0.8487 -0.1523 -0.5245
  594MOL0     C78312  -1.818   8.575   9.196 -0.0889  0.1003  0.1725
  594MOL0     C78313  -1.935   8.655   9.245 -0.5324 -0.2528  0.4621
  594MOL0     C78314  -2.039   8.561   9.292 -0.5052  0.3908 -0.3292
  594MOL0     C78315  -2.156   8.636   9.363  0.3296 -0.2295  0.1603
  594MOL0     C78316  -2.276   8.534   9.383 -0.2531 -0.1368 -0.0416
  594MOL0     C78317  -2.377   8.588   9.473 -0.0206 -0.1340 -1.0628
  594MOL0     C78318  -2.324   8.587   9.628  0.5514  0.1382 -0.5160
  594MOL0     C78319  -2.438   8.614   9.726  0.8116 -0.4300  0.4055
  594MOL0    Cl78320  -2.547   8.478   9.728  0.0358  0.2039  0.1468
  594MOL0     C78321  -1.547   8.427   9.393 -0.5685 -0.3692 -0.3747
  594MOL0     C78322  -1.413   8.394   9.382 -0.2479  0.3907 -0.0210
  594MOL0     O78323  -1.215   8.201   9.399 -0.7753 -0.5042 -0.6560
  594MOL0     C78324  -0.938   8.189   9.410  0.0169  0.1184  0.1405
  594MOL0     C78325  -0.797   8.179   9.399  0.8142  0.6639 -0.6099
  594MOL0     N78326  -0.137   8.059   9.018 -0.2309  0.3878  0.3628
  594MOL0     N78327  -0.047   7.963   8.993 -0.1376  0.0758 -0.2162
  594MOL0     C78328   1.235   8.086   9.556  0.2734 -0.0209  0.1049
  594MOL0     C78329   1.343   8.127   9.630  0.3051  0.4008  0.2382
  594MOL0     C78330   1.727   8.318   9.728 -0.7473 -0.0677 -0.5686
  594MOL0     C78331   1.843   8.307   9.646  1.2734  0.6963 -0.3735
  594MOL0     C78332   1.970   8.352   9.681 -0.0817  0.1111 -0.3924
  594MOL0     C78333   1.983   8.420   9.806 -0.4634  0.2193 -0.6725
  594MOL0     O78334   2.092   8.487   9.841 -0.3297 -0.7190 -0.1028
  594MOL0     C78335   2.185   8.533   9.738  0.1920 -0.2348 -0.8994
  594MOL0     C78336   2.307   8.584   9.813 -0.5136  0.3577  0.2431
  594MOL0     C78337   2.278   8.691   9.922 -0.4893 -0.3520  0.1134
  594MOL0     C78338   2.412   8.751   9.965 -0.1810  0.5660  0.1263
  594MOL0     C78339   2.379   8.871  10.037  0.6679 -0.8393  0.4062
  594MOL0     C78340   2.334   8.969  10.095  0.2253  0.4706 -0.4501
  594MOL0     C78341   1.879   8.419   9.891 -0.4420  0.5272 -0.1075
  594MOL0     C78342   1.749   8.380   9.855  0.2213  0.3725  0.8730
  594MOL0     H78343   1.277   8.462   9.647  1.7914  0.3744 -2.6964
  594MOL0     H78344   1.076   8.394   9.525  1.4046  2.6262  1.4434
  594MOL0     H78345   1.022   7.939   9.390 -1.8180  0.3366  1.5192
  594MOL0     H78346   1.139   8.025   9.286 -0.0396 -1.6070  2.6679
  594MOL0     H78347   0.950   7.954   9.156 -1.3992 -1.4503  1.3366
  594MOL0     H78348   0.937   8.131   9.176 -1.8222  0.8679  1.0850
  594MOL0     H78349   0.757   8.098   9.345 -0.7736  1.2651 -1.1648
  594MOL0     H78350   0.785   7.931   9.344  0.8166  0.4840  0.4519
  594MOL0     H78351   0.688   8.101   9.100  0.6502  0.0937  0.5376
  594MOL0     H78352   0.740   7.939   9.083  1.0420  0.0918 -0.0041
  594MOL0     H78353   0.513   8.014   9.270  0.4269  1.7649 -1.4722
  594MOL0     H78354   0.559   7.836   9.224  2.3561 -0.7236 -2.3399
  594MOL0     H78355   0.480   7.894   8.998  0.2958  0.2975 -0.0178
  594MOL0     H78356   0.459   8.066   9.054  1.3912  0.3353  0.3177
  594MOL0     H78357   0.308   7.828   9.149 -2.8155 -0.2078  0.0617
  594MOL0     H78358   0.291   7.994   9.212  1.1765  1.7804 -2.1342
  594MOL0     H78359   0.184   7.847   8.957  0.4461 -1.6559  1.9874
  594MOL0     H78360   0.248   8.001   8.936  3.9950 -0.8689  2.6221
  594MOL0     H78361   0.128   8.186   9.152 -0.4576 -1.5536  0.2695
  594MOL0     H78362  -0.075   8.363   9.095 -3.2043  1.4333 -1.1107
  594MOL0     H78363  -0.120   8.291   9.252 -0.1596  1.2243 -0.1766
  594MOL0     H78364  -0.297   8.275   9.019 -3.1185  0.4976  0.3821
  594MOL0     H78365  -0.294   8.411   9.140  0.9504  1.1214 -3.9005
  594MOL0     H78366  -0.366   8.123   9.207 -0.0231 -0.0769 -3.5482
  594MOL0     H78367  -0.340   8.249   9.325 -3.4602 -0.0143  0.8590
  594MOL0     H78368  -0.547   8.259   9.108 -3.0714  3.6320 -0.1621
  594MOL0     H78369  -0.518   8.395   9.216 -0.7986  0.5042 -1.5183
  594MOL0     H78370  -0.746   8.379   9.130 -2.3628  0.1224 -0.7246
  594MOL0     H78371  -0.986   8.407   9.152 -0.8126 -0.3205 -0.0366
  594MOL0     H78372  -1.384   8.411   9.047  2.4252 -0.0590  0.9545
  594MOL0     H78373  -1.627   8.489   9.078 -0.2031 -3.3804 -0.7273
  594MOL0     H78374  -1.859   8.510   9.118 -2.5795  3.2876 -1.3976
  594MOL0     H78375  -1.765   8.654   9.142 -2.5118  0.6689 -1.5504
  594MOL0     H78376  -1.975   8.695   9.152 -2.7387 -3.2245  0.0005
  594MOL0     H78377  -1.909   8.734   9.317  1.2042 -0.3980  0.0556
  594MOL0     H78378  -2.003   8.494   9.371 -1.8247 -0.2480 -0.2425
  594MOL0     H78379  -2.067   8.497   9.208 -1.8716 -2.2571  1.9581
  594MOL0     H78380  -2.113   8.680   9.454  2.9638  0.2258 -1.2074
  594MOL0     H78381  -2.186   8.721   9.300  3.3159  0.9462  0.1538
  594MOL0     H78382  -2.229   8.444   9.424 -1.5861 -0.5203  0.7163
  594MOL0     H78383  -2.325   8.514   9.288  0.1649  1.9463 -0.7411
  594MOL0     H78384  -2.469   8.529   9.473  0.0843 -0.3578 -3.0296
  594MOL0     H78385  -2.412   8.689   9.451 -0.0239  0.6801  2.1340
  594MOL0     H78386  -2.287   8.485   9.646 -1.9547 -0.9866 -1.2284
  594MOL0     H78387  -2.252   8.666   9.652  0.4801 -0.5413  2.3170
  594MOL0     H78388  -2.481   8.705   9.684  3.3520  0.5294 -0.3244
  594MOL0     H78389  -2.411   8.629   9.831  0.5768 -1.5121  0.6355
  594MOL0     H78390  -1.583   8.433   9.495 -0.0610  0.4579 -0.2395
  594MOL0     H78391  -1.368   8.363   9.476 -1.7028  1.8574  1.2186
  594MOL0     H78392  -1.003   8.127   9.472 -0.6693 -0.4956 -1.1331
  594MOL0     H78393  -0.763   8.105   9.471  2.8054  1.7532 -0.3809
  594MOL0     H78394   1.217   7.980   9.538 -1.4176  0.4295 -1.1201
  594MOL0     H78395   1.408   8.052   9.674  1.2288  1.7751  1.2991
  594MOL0     H78396   1.841   8.270   9.544  1.0467 -2.0266  0.5474
  594MOL0     H78397   2.051   8.351   9.608  0.2482  2.1243 -0.1112
  594MOL0     H78398   2.135   8.612   9.682 -1.7370 -0.8787 -0.1980
  594MOL0     H78399   2.218   8.450   9.675  2.4045 -1.2797  1.4475
  594MOL0     H78400   2.364   8.502   9.857 -1.6910 -0.8113 -0.3304
  594MOL0     H78401   2.371   8.627   9.736 -1.6256  0.5310 -0.6159
  594MOL0     H78402   2.228   8.651  10.011 -0.7680 -2.0423 -0.7538
  594MOL0     H78403   2.205   8.761   9.881 -1.3495 -1.8223 -0.9499
  594MOL0     H78404   2.474   8.686  10.028 -0.7332 -0.8330 -0.7490
  594MOL0     H78405   2.470   8.783   9.878  2.3394 -0.5507  1.2759
  594MOL0     H78406   2.282   9.053  10.135  4.0008  2.6700  0.2295
  594MOL0     H78407   1.886   8.473   9.984  0.2538  2.6665 -1.3175
  594MOL0     H78408   1.678   8.394   9.936 -0.0883  3.1504  0.2165
  595MOL0     O78409   8.254   4.794   1.161  0.0352 -0.7699  0.2901
  595MOL0     C78410   8.304   4.769   1.054 -0.0017 -0.4198  0.6043
  595MOL0     O78411   8.237   4.760   0.934  0.0324  0.4693  0.0205
  595MOL0     C78412   8.112   4.805   0.929  0.3211  0.0537  0.5266
  595MOL0     C78413   8.017   4.739   0.851  0.0902 -0.1850  0.2449
  595MOL0     C78414   7.886   4.782   0.838  0.0484 -0.2451 -0.3369
  595MOL0     C78415   7.845   4.894   0.909  0.0981  0.7007 -0.4767
  595MOL0     O78416   7.710   4.926   0.896 -0.1135  0.5410 -0.7296
  595MOL0     C78417   7.661   5.055   0.936  0.2763 -0.4673  0.5781
  595MOL0     C78418   7.514   5.070   0.892 -0.5381 -0.1130 -0.3930
  595MOL0     C78419   7.451   5.211   0.920  0.0115  0.4673  0.5581
  595MOL0     C78420   7.300   5.228   0.892 -0.2777 -0.7748 -0.2972
  595MOL0     C78421   7.259   5.252   0.743 -0.2197 -0.4756 -0.4368
  595MOL0     C78422   7.111   5.257   0.728  0.4712  0.0684 -0.4996
  595MOL0     C78423   7.031   5.378   0.795 -0.3712 -0.6409 -0.5639
  595MOL0     C78424   6.890   5.385   0.726  0.1877  0.9052 -0.1873
  595MOL0     N78425   6.800   5.274   0.761 -0.2953 -0.1023 -0.0841
  595MOL0     C78426   6.700   5.274   0.854 -0.7610 -0.3409  0.5862
  595MOL0     C78427   6.652   5.147   0.851  0.1589  0.6173  0.1711
  595MOL0     C78428   6.532   5.084   0.917  0.2529 -0.4298 -0.2600
  595MOL0     C78429   6.397   5.134   0.868 -0.1455  0.4297  0.2630
  595MOL0     C78430   6.277   5.086   0.953  0.0692  0.0275 -0.2219
  595MOL0     C78431   6.146   5.138   0.891  0.3024 -0.6231  0.0205
  595MOL0     O78432   6.035   5.152   0.986  0.1591 -0.1664 -0.3479
  595MOL0     C78433   5.926   5.218   0.944  0.5829 -0.8796  0.4216
  595MOL0     C78434   5.923   5.332   0.864  0.7533 -0.9617  0.4129
  595MOL0     C78435   5.799   5.391   0.827 -0.1204  0.5222  0.6982
  595MOL0     C78436   5.676   5.351   0.885  0.0296  0.2757  0.5915
  595MOL0     C78437   5.548   5.413   0.844  0.2651  0.3206 -0.0438
  595MOL0     O78438   5.556   5.527   0.764 -0.2179 -0.3103 -0.2181
  595MOL0     C78439   5.444   5.596   0.720  0.7052 -0.4276  0.5186
  595MOL0     C78440   5.454   5.729   0.688  0.4739  0.3056  0.0448
  595MOL0     C78441   5.348   5.796   0.630  0.3476 -0.1559  0.9835
  595MOL0     C78442   5.237   5.733   0.583  0.4860  0.0341  0.0808
  595MOL0     O78443   5.149   5.816   0.520 -0.4182  1.1000  0.7293
  595MOL0     C78444   5.022   5.762   0.495  0.7050 -0.7192 -0.1247
  595MOL0     C78445   4.926   5.875   0.468 -0.0583 -0.7877 -0.1602
  595MOL0     C78446   4.790   5.829   0.446  0.3498 -0.5507  0.0864
  595MOL0     C78447   4.739   5.929   0.342  0.3478 -0.0297  0.8144
  595MOL0     C78448   4.589   5.926   0.333 -0.6637  0.5918 -0.4541
  595MOL0     C78449   4.516   6.003   0.448 -0.5502  1.1247  0.4876
  595MOL0     C78450   4.368   6.005   0.425 -0.2166 -0.1047  0.7539
  595MOL0     C78451   4.292   5.868   0.439 -1.1780  1.0807 -0.9311
  595MOL0    Cl78452   4.260   5.852   0.616  0.4410 -0.0927 -0.2596
  595MOL0     C78453   5.222   5.596   0.607  0.6042 -0.5956 -0.3970
  595MOL0     C78454   5.320   5.527   0.675  0.2341 -0.6082  0.1868
  595MOL0     O78455   5.447   5.357   0.881 -0.2577  0.0770  0.3840
  595MOL0     C78456   5.680   5.243   0.964 -0.0592  0.3948 -0.1212
  595MOL0     C78457   5.803   5.184   1.002  0.0400 -0.2939 -0.0349
  595MOL0     N78458   6.726   5.070   0.768 -0.2320  0.3241  0.4851
  595MOL0     N78459   6.820   5.144   0.723 -0.6274  0.4791  0.2456
  595MOL0     C78460   7.946   4.961   0.986  0.6992  0.4259  0.1981
  595MOL0     C78461   8.078   4.925   0.990  0.4987  0.2293 -0.4841
  595MOL0     C78462   8.444   4.736   1.047 -0.1684 -0.6476  0.3705
  595MOL0     C78463   8.490   4.657   0.942  0.0241 -0.2826  0.6361
  595MOL0     C78464   8.626   4.630   0.936 -0.9436 -0.4572  0.1140
  595MOL0     C78465   8.719   4.679   1.029  0.5343 -0.4016 -0.2950
  595MOL0     O78466   8.850   4.656   1.020 -0.7575 -0.6418  1.2013
  595MOL0     C78467   8.908   4.610   0.891  0.8277 -0.0817 -0.6598
  595MOL0     C78468   9.060   4.625   0.891 -0.2136  0.1120  0.0168
  595MOL0     C78469   9.113   4.773   0.884 -1.1875  0.5583 -0.2727
  595MOL0     C78470   9.264   4.800   0.921  0.7111  0.1018 -0.2046
  595MOL0     C78471   9.348   4.697   0.867 -0.1449  0.4534  0.2633
  595MOL0     C78472   9.417   4.611   0.808  0.7559  0.3220  0.4088
  595MOL0     C78473   8.667   4.749   1.132  0.8674 -0.3585 -0.4061
  595MOL0     C78474   8.532   4.779   1.142 -0.6725 -0.4044  0.2091
  595MOL0     H78475   8.046   4.656   0.786 -0.7883 -2.1014  2.1751
  595MOL0     H78476   7.809   4.735   0.779 -3.3227 -0.6624  3.9106
  595MOL0     H78477   7.717   5.128   0.876 -1.5254  0.1193 -0.4725
  595MOL0     H78478   7.678   5.068   1.043 -1.0636  0.8821  0.6637
  595MOL0     H78479   7.450   4.993   0.938  2.6836 -1.4675  2.2173
  595MOL0     H78480   7.515   5.058   0.783 -1.1711 -2.0354 -0.2275
  595MOL0     H78481   7.499   5.288   0.860  0.4932 -0.6897 -0.5723
  595MOL0     H78482   7.467   5.229   1.027 -0.1756 -1.6881  1.0003
  595MOL0     H78483   7.245   5.140   0.927 -1.5475  0.2611  0.4151
  595MOL0     H78484   7.259   5.314   0.946 -1.6411 -2.5497  1.6661
  595MOL0     H78485   7.305   5.173   0.683 -0.8096 -0.6226 -0.7109
  595MOL0     H78486   7.295   5.349   0.709 -1.4773 -0.9816 -3.5147
  595MOL0     H78487   7.071   5.165   0.772 -3.1242  1.7806  0.1403
  595MOL0     H78488   7.085   5.265   0.622 -3.1955 -2.3645  0.0090
  595MOL0     H78489   7.004   5.362   0.900 -0.9829  0.7253 -0.4840
  595MOL0     H78490   7.091   5.469   0.790 -0.9480 -0.2609 -0.7066
  595MOL0     H78491   6.904   5.395   0.618  1.6330  3.1434  0.1611
  595MOL0     H78492   6.831   5.473   0.752 -0.1536  0.9788 -1.1882
  595MOL0     H78493   6.669   5.361   0.911  1.2009 -0.4456  1.8919
  595MOL0     H78494   6.536   5.102   1.025 -0.4726  1.4944 -0.5276
  595MOL0     H78495   6.525   4.975   0.905 -1.8299 -0.3804  0.2478
  595MOL0     H78496   6.377   5.092   0.769 -1.3980 -1.9710  1.4347
  595MOL0     H78497   6.403   5.243   0.861 -3.0036  0.6115 -0.8198
  595MOL0     H78498   6.271   4.977   0.958  1.8993 -0.1656 -1.1940
  595MOL0     H78499   6.285   5.121   1.056 -1.7644 -1.8578  0.6266
  595MOL0     H78500   6.107   5.079   0.807 -2.9734  3.2273 -1.5086
  595MOL0     H78501   6.162   5.232   0.836 -2.8372  0.2101  0.3654
  595MOL0     H78502   6.018   5.374   0.831 -1.0394  1.8754 -1.6733
  595MOL0     H78503   5.797   5.479   0.764 -0.6192 -0.3270 -0.4959
  595MOL0     H78504   5.548   5.778   0.714  0.6740 -0.2593  0.3926
  595MOL0     H78505   5.352   5.902   0.609  1.0448 -0.2838  0.4145
  595MOL0     H78506   4.989   5.707   0.585  2.9702 -0.2218  1.0760
  595MOL0     H78507   5.024   5.701   0.404  1.2730 -0.5672 -0.2135
  595MOL0     H78508   4.967   5.924   0.379  0.1340  1.9844  1.3640
  595MOL0     H78509   4.920   5.951   0.546  0.5338  0.1927 -1.0365
  595MOL0     H78510   4.734   5.834   0.540  0.6091 -2.8114  0.3988
  595MOL0     H78511   4.791   5.726   0.409  1.3574 -0.6927  0.4973
  595MOL0     H78512   4.763   6.036   0.350 -1.8494  0.6647 -0.9288
  595MOL0     H78513   4.777   5.892   0.247 -1.8390 -0.5889  0.1127
  595MOL0     H78514   4.568   5.818   0.336  1.7544  0.0478  2.5390
  595MOL0     H78515   4.558   5.972   0.239  1.6725  0.3495 -1.4143
  595MOL0     H78516   4.544   6.107   0.466 -2.5858  1.5467  1.5554
  595MOL0     H78517   4.530   5.952   0.544  3.6368  1.7508  0.3797
  595MOL0     H78518   4.319   6.084   0.484 -0.5529  0.6684 -0.5210
  595MOL0     H78519   4.361   6.035   0.320  2.4962 -1.6090  0.0523
  595MOL0     H78520   4.349   5.786   0.396 -1.5183  1.0588 -1.3462
  595MOL0     H78521   4.203   5.870   0.376  0.2621  1.9034 -3.0683
  595MOL0     H78522   5.143   5.529   0.573  0.8841 -0.6411 -0.9519
  595MOL0     H78523   5.297   5.422   0.683 -0.2133 -0.6390 -1.2301
  595MOL0     H78524   5.587   5.193   0.989  1.2910 -0.8075  3.1755
  595MOL0     H78525   5.815   5.098   1.067  2.0946  0.1669  0.2660
  595MOL0     H78526   7.926   5.051   1.043  0.6651 -0.5903  1.8409
  595MOL0     H78527   8.158   4.979   1.039 -0.5895  1.8734 -0.4228
  595MOL0     H78528   8.423   4.615   0.868  0.6182 -0.9370  0.4653
  595MOL0     H78529   8.660   4.555   0.865  0.7300  0.5025 -0.1451
  595MOL0     H78530   8.858   4.660   0.807  0.0823  2.0000  0.9371
  595MOL0     H78531   8.885   4.503   0.887  1.0439 -0.0999 -1.8360
  595MOL0     H78532   9.096   4.587   0.987 -2.4463 -2.4130 -0.0364
  595MOL0     H78533   9.103   4.562   0.813 -2.3888 -0.6203 -0.6664
  595MOL0     H78534   9.043   4.836   0.940 -1.5201 -0.3486  0.3747
  595MOL0     H78535   9.103   4.803   0.779 -3.3466 -0.1007 -0.3140
  595MOL0     H78536   9.297   4.897   0.880 -1.7769  0.1253 -2.4096
  595MOL0     H78537   9.282   4.802   1.029 -2.0669 -0.6153  0.3409
  595MOL0     H78538   9.482   4.527   0.789  0.7166  0.4702 -0.4404
  595MOL0     H78539   8.740   4.775   1.209 -0.2569 -2.5279  1.4986
  595MOL0     H78540   8.498   4.851   1.216  2.2414  0.3096  0.9948
  596MOL0     O78541   7.901  10.664   5.022  0.8156  0.0881 -0.0425
  596MOL0     C78542   7.904  10.772   4.965 -0.7062  0.8332  0.7449
  596MOL0     O78543   7.792  10.849   4.932  0.0576  0.8849 -0.1881
  596MOL0     C78544   7.669  10.793   4.956 -0.3880 -0.1199 -0.6950
  596MOL0     C78545   7.612  10.680   4.897  0.0061  0.7078 -0.1931
  596MOL0     C78546   7.482  10.619   4.926 -0.3226 -0.4650  0.1858
  596MOL0     C78547   7.417  10.689   5.024  0.2436 -0.3209 -1.0419
  596MOL0     O78548   7.293  10.649   5.058  0.7853 -0.1092 -0.2151
  596MOL0     C78549   7.232  10.538   4.995  0.1155  0.1417  0.9195
  596MOL0     C78550   7.085  10.526   5.044 -1.0761  0.6371 -0.0055
  596MOL0     C78551   7.069  10.520   5.195  0.1365  0.7152  0.2613
  596MOL0     C78552   7.119  10.389   5.260  0.4213 -0.3607  0.4987
  596MOL0     C78553   7.035  10.370   5.386  0.2114 -0.3583 -0.6279
  596MOL0     C78554   7.088  10.241   5.454  0.4864  0.1968  0.5790
  596MOL0     C78555   6.996  10.196   5.573 -0.1778  0.0955  0.7192
  596MOL0     C78556   7.050  10.068   5.641 -0.5266 -0.2779  0.8671
  596MOL0     N78557   6.975  10.021   5.760  0.4487  0.2287 -0.5455
  596MOL0     C78558   6.953  10.097   5.868  0.0009  0.0227  0.0756
  596MOL0     C78559   6.879  10.014   5.947  0.5214  0.5747  0.1119
  596MOL0     C78560   6.800  10.061   6.061 -0.0678 -0.5150  0.0402
  596MOL0     C78561   6.729   9.946   6.141  0.2044  0.0274 -0.0852
  596MOL0     C78562   6.638   9.993   6.259  0.2890  0.1188  0.2800
  596MOL0     C78563   6.492  10.009   6.218  0.3717 -0.1566 -0.6411
  596MOL0     O78564   6.413  10.029   6.337  0.8812  0.3930  0.5120
  596MOL0     C78565   6.275   9.999   6.327 -0.2621 -0.7833  0.1989
  596MOL0     C78566   6.201  10.036   6.437  0.2479 -0.1558 -0.8545
  596MOL0     C78567   6.073   9.981   6.461  0.1459  0.3058  0.0476
  596MOL0     C78568   6.019   9.886   6.378  0.4633 -0.0245  0.0040
  596MOL0     C78569   5.894   9.816   6.403  0.2308  0.4120 -0.8485
  596MOL0     O78570   5.861   9.702   6.339 -0.0203 -0.4584  0.6208
  596MOL0     C78571   5.768   9.622   6.402  0.4717 -0.0184  0.1720
  596MOL0     C78572   5.634   9.653   6.426 -0.0187 -0.4518  0.2301
  596MOL0     C78573   5.546   9.560   6.473 -0.1707  0.3594 -0.0709
  596MOL0     C78574   5.602   9.442   6.536 -0.0444  0.2690  0.5067
  596MOL0     O78575   5.518   9.361   6.606  0.0680  0.5910  0.8283
  596MOL0     C78576   5.535   9.218   6.605 -1.0565 -0.5129  0.9427
  596MOL0     C78577   5.425   9.145   6.685  0.0131 -0.7850 -0.0793
  596MOL0     C78578   5.288   9.166   6.641  0.4273 -0.0958  0.0875
  596MOL0     C78579   5.180   9.087   6.734 -0.4737  0.4176 -0.1348
  596MOL0     C78580   5.043   9.111   6.668  0.7084 -0.3202  0.0279
  596MOL0     C78581   4.947   9.020   6.735  0.4553 -0.3353 -0.8186
  596MOL0     C78582   4.802   9.009   6.676  0.2492 -1.3664 -0.0920
  596MOL0     C78583   4.717   8.966   6.788  0.1298  0.2787 -0.3544
  596MOL0    Cl78584   4.550   8.941   6.729 -0.6908 -0.2797  0.3986
  596MOL0     C78585   5.741   9.407   6.515  0.0751  0.0435 -0.5255
  596MOL0     C78586   5.815   9.498   6.443 -0.1005 -0.3098 -0.4909
  596MOL0     O78587   5.830   9.860   6.493  0.0543 -0.0099 -1.2306
  596MOL0     C78588   6.095   9.853   6.264 -0.1969  0.3158  0.0734
  596MOL0     C78589   6.221   9.906   6.238  0.2928  0.0003  0.5491
  596MOL0     N78590   6.865   9.884   5.891 -0.1634 -0.0526  0.6024
  596MOL0     N78591   6.923   9.898   5.780  0.0841  0.4362  0.3190
  596MOL0     C78592   7.462  10.813   5.073  0.6989 -0.3902 -0.2891
  596MOL0     C78593   7.586  10.866   5.048 -0.2700 -0.2309  0.7599
  596MOL0     C78594   8.038  10.833   4.950  0.1339 -0.6965 -0.2263
  596MOL0     C78595   8.053  10.967   4.917  0.6965 -0.2872  0.5582
  596MOL0     C78596   8.177  11.026   4.891 -0.1129 -0.0511  0.1658
  596MOL0     C78597   8.287  10.951   4.909 -0.4684  0.5449 -0.3286
  596MOL0     O78598   8.397  11.030   4.901 -0.1773 -0.6299  0.3695
  596MOL0     C78599   8.519  10.976   4.952  0.0473 -1.1203 -0.8332
  596MOL0     C78600   8.631  11.077   4.950 -1.0485 -0.3224  0.3744
  596MOL0     C78601   8.644  11.154   4.818  0.0298 -1.0056 -0.9273
  596MOL0     C78602   8.735  11.279   4.831 -0.6364  0.0880 -0.6549
  596MOL0     C78603   8.641  11.398   4.847 -0.0837 -0.5748 -0.4868
  596MOL0     C78604   8.565  11.491   4.860 -0.0955  0.0232  0.9808
  596MOL0     C78605   8.287  10.818   4.942  0.3565  1.5455 -0.2499
  596MOL0     C78606   8.162  10.759   4.962  0.6608 -0.9574  0.0167
  596MOL0     H78607   7.675  10.637   4.820 -0.2161  1.8812 -1.0716
  596MOL0     H78608   7.448  10.531   4.872 -1.3751  0.9371 -1.5364
  596MOL0     H78609   7.291  10.449   5.019 -1.2520 -0.8906  0.5895
  596MOL0     H78610   7.228  10.538   4.885  1.0011  0.3870  0.8815
  596MOL0     H78611   7.036  10.438   5.000 -1.9893  2.3036 -2.5764
  596MOL0     H78612   7.025  10.615   5.020  0.5747  2.4258  2.0979
  596MOL0     H78613   6.962  10.530   5.217  0.0180 -1.9122  1.2771
  596MOL0     H78614   7.122  10.602   5.244  0.8163  0.6991 -0.4444
  596MOL0     H78615   7.106  10.307   5.190  0.8340  1.7127 -2.1563
  596MOL0     H78616   7.223  10.400   5.291  1.2939  1.7262 -2.6955
  596MOL0     H78617   6.929  10.361   5.360  0.1180  1.4898 -1.0426
  596MOL0     H78618   7.048  10.461   5.445  1.0450 -0.2439 -0.9804
  596MOL0     H78619   7.183  10.256   5.506 -0.1987 -0.0873  1.9600
  596MOL0     H78620   7.088  10.158   5.383 -2.9199  0.2950  0.2864
  596MOL0     H78621   7.005  10.270   5.653 -0.0990 -0.6949  1.4569
  596MOL0     H78622   6.895  10.181   5.532 -1.4128  0.6941  3.3062
  596MOL0     H78623   7.154  10.098   5.656 -0.1859 -0.8205 -0.3083
  596MOL0     H78624   7.049   9.992   5.563  1.1079  0.3713  0.1525
  596MOL0     H78625   6.971  10.202   5.886  0.6578 -0.1155  0.2458
  596MOL0     H78626   6.720  10.129   6.030  0.8559  0.1460 -1.0277
  596MOL0     H78627   6.863  10.116   6.132  1.3584  0.0838 -1.6126
  596MOL0     H78628   6.809   9.876   6.165  1.9439  1.2068 -2.0914
  596MOL0     H78629   6.663   9.889   6.075  0.3458 -1.1482  0.7663
  596MOL0     H78630   6.638   9.916   6.338 -0.8484 -1.5068 -1.2183
  596MOL0     H78631   6.675  10.081   6.312  0.5141 -1.4758  2.9542
  596MOL0     H78632   6.470   9.911   6.175 -1.3663 -1.4053  2.7524
  596MOL0     H78633   6.482  10.096   6.152  1.2166  0.1998 -0.3179
  596MOL0     H78634   6.242  10.110   6.505 -2.2976  2.3320 -1.8080
  596MOL0     H78635   6.022  10.007   6.553 -2.8959 -1.5143 -0.9629
  596MOL0     H78636   5.605   9.749   6.385 -1.5992 -1.5640 -1.4176
  596MOL0     H78637   5.439   9.573   6.484 -0.3336 -0.3162 -0.7676
  596MOL0     H78638   5.631   9.192   6.650  0.4814 -0.8927 -2.2493
  596MOL0     H78639   5.544   9.184   6.502  2.9929 -0.3831  1.0595
  596MOL0     H78640   5.431   9.169   6.791  1.2137 -1.1578 -0.0416
  596MOL0     H78641   5.444   9.037   6.687  2.2699 -0.4958  3.8940
  596MOL0     H78642   5.274   9.117   6.545 -3.5367  0.1942  0.3487
  596MOL0     H78643   5.265   9.272   6.632 -0.3396 -0.4478 -3.0261
  596MOL0     H78644   5.201   8.981   6.718 -0.8525  0.6217 -2.3845
  596MOL0     H78645   5.179   9.116   6.839  0.3818 -0.4925  0.1436
  596MOL0     H78646   5.046   9.098   6.559  1.6786  1.6845 -0.2378
  596MOL0     H78647   5.010   9.214   6.680 -1.2499 -0.9747  0.5960
  596MOL0     H78648   4.938   9.024   6.844 -0.6181 -1.2739 -0.8515
  596MOL0     H78649   4.998   8.927   6.708  3.8203  1.1926 -0.2512
  596MOL0     H78650   4.768   9.109   6.648  1.9947 -1.2167 -1.8368
  596MOL0     H78651   4.799   8.945   6.587  1.6106  1.8710 -2.6704
  596MOL0     H78652   4.715   9.043   6.866  1.1280  1.6951 -1.6800
  596MOL0     H78653   4.738   8.865   6.825 -2.1549 -2.1028 -4.7403
  596MOL0     H78654   5.786   9.313   6.546  1.7507  0.0094 -2.7182
  596MOL0     H78655   5.922   9.484   6.432  0.0222  1.2137 -1.5483
  596MOL0     H78656   6.052   9.785   6.191  1.9243  1.5900 -2.5177
  596MOL0     H78657   6.273   9.884   6.145 -2.6078  2.4002 -1.8578
  596MOL0     H78658   7.388  10.857   5.138 -0.8835 -2.0232 -0.8975
  596MOL0     H78659   7.611  10.962   5.092  0.0560 -0.5610  1.3029
  596MOL0     H78660   7.962  11.026   4.911  0.7360 -0.3324 -0.9654
  596MOL0     H78661   8.188  11.129   4.858 -2.6881  0.6048  1.1612
  596MOL0     H78662   8.547  10.881   4.906  0.6937 -0.2101 -2.3973
  596MOL0     H78663   8.503  10.951   5.058 -1.7188 -1.6539 -1.2097
  596MOL0     H78664   8.612  11.150   5.029  0.6085  0.2157  0.3212
  596MOL0     H78665   8.726  11.024   4.962 -2.1130 -2.1433  1.1447
  596MOL0     H78666   8.546  11.183   4.780  0.6823  2.7796 -0.1208
  596MOL0     H78667   8.690  11.099   4.736 -0.7153 -0.6813 -1.5759
  596MOL0     H78668   8.812  11.275   4.909  0.6423  0.0266 -1.8694
  596MOL0     H78669   8.783  11.287   4.732  1.1043 -0.0717  0.1365
  596MOL0     H78670   8.509  11.574   4.896  0.8153 -0.6795  4.4456
  596MOL0     H78671   8.376  10.761   4.966 -0.7415 -0.3778 -0.5932
  596MOL0     H78672   8.146  10.657   4.996 -1.0390 -0.1594  1.8260
  597MOL0     O78673   5.292   2.885   2.032  0.3764 -0.1124  0.1627
  597MOL0     C78674   5.321   2.986   1.972  0.4130  0.6356  0.4924
  597MOL0     O78675   5.232   3.089   1.943 -0.2558  0.2071  0.3130
  597MOL0     C78676   5.089   3.080   1.954 -0.4825 -0.2883  0.4922
  597MOL0     C78677   5.022   2.967   1.913  0.2854 -0.3798 -0.0268
  597MOL0     C78678   4.878   2.972   1.901 -0.4748 -1.0100 -0.7170
  597MOL0     C78679   4.809   3.091   1.935  0.1066 -1.0465  0.6203
  597MOL0     O78680   4.674   3.110   1.927 -0.2039 -0.4093  0.1759
  597MOL0     C78681   4.591   3.014   1.865  0.5811  0.1467  0.1182
  597MOL0     C78682   4.450   3.073   1.870 -0.0584 -0.2244  0.6469
  597MOL0     C78683   4.395   3.103   2.015  0.2079 -0.2108 -0.0417
  597MOL0     C78684   4.239   3.149   2.018 -0.0703  0.8690 -1.3882
  597MOL0     C78685   4.187   3.155   2.165  0.6457  0.4355 -0.0713
  597MOL0     C78686   4.028   3.171   2.163 -0.0918 -0.0773 -0.0557
  597MOL0     C78687   3.964   3.190   2.296  0.2521  0.2677 -0.2409
  597MOL0     C78688   3.950   3.058   2.374  0.1429 -0.4719  0.0739
  597MOL0     N78689   3.861   2.956   2.324 -0.3783  0.1151 -0.0765
  597MOL0     C78690   3.728   2.976   2.312  0.3490 -0.2178  0.0327
  597MOL0     C78691   3.675   2.857   2.262  0.0080  0.4436  0.5644
  597MOL0     C78692   3.533   2.842   2.215  0.7265  0.1136  0.0391
  597MOL0     C78693   3.443   2.824   2.339 -0.1921 -0.3053  0.2604
  597MOL0     C78694   3.318   2.748   2.304  0.0841 -0.1691 -0.1896
  597MOL0     C78695   3.185   2.780   2.378 -0.9657  0.8077  0.9086
  597MOL0     O78696   3.178   2.749   2.519  0.3359  0.1696 -0.1544
  597MOL0     C78697   3.061   2.778   2.587 -0.4504 -0.0944 -0.0863
  597MOL0     C78698   3.074   2.783   2.730  0.4046  0.3694  0.8093
  597MOL0     C78699   2.960   2.827   2.808  0.1228  0.2722 -0.5354
  597MOL0     C78700   2.836   2.846   2.742  1.0560  0.0518 -0.7788
  597MOL0     C78701   2.713   2.888   2.822 -0.0815 -0.1456 -0.5701
  597MOL0     O78702   2.600   2.888   2.753  0.1729  0.0573  0.3167
  597MOL0     C78703   2.482   2.926   2.813 -0.6850 -0.5804 -0.7557
  597MOL0     C78704   2.381   2.834   2.817  0.3681  0.2901 -0.0100
  597MOL0     C78705   2.251   2.868   2.857  0.4838 -0.6649  0.5456
  597MOL0     C78706   2.222   2.998   2.900 -0.0552 -0.7703 -1.3933
  597MOL0     O78707   2.091   3.033   2.936  0.1895  0.4316  0.3258
  597MOL0     C78708   2.063   3.156   3.001 -0.0226 -0.0848 -0.4143
  597MOL0     C78709   1.933   3.140   3.082  0.1130 -0.5438 -0.4127
  597MOL0     C78710   1.823   3.110   2.981 -0.9471  0.3942 -0.3342
  597MOL0     C78711   1.692   3.111   3.053 -0.0646  0.4255 -0.0791
  597MOL0     C78712   1.566   3.071   2.971 -0.0252 -0.6763 -0.2914
  597MOL0     C78713   1.520   3.191   2.888  0.3868 -0.2293  0.3631
  597MOL0     C78714   1.385   3.169   2.814  0.0835 -0.1083 -0.3171
  597MOL0     C78715   1.263   3.233   2.882  0.3811 -0.4304  0.0833
  597MOL0    Cl78716   1.263   3.418   2.875 -0.0241  0.2965 -0.4411
  597MOL0     C78717   2.327   3.097   2.896  0.3056  0.4677 -0.8721
  597MOL0     C78718   2.467   3.056   2.871  0.1023  0.1642  0.5592
  597MOL0     O78719   2.722   2.909   2.944  0.2342  0.0711  0.4303
  597MOL0     C78720   2.822   2.830   2.602  0.0401  0.1579  0.4722
  597MOL0     C78721   2.938   2.786   2.531  0.5321 -0.7292  0.1159
  597MOL0     N78722   3.782   2.771   2.250 -0.3023 -0.3051  0.4886
  597MOL0     N78723   3.882   2.829   2.289  0.0480  0.9950  0.0935
  597MOL0     C78724   4.875   3.199   1.983 -0.1661  0.0456  0.2204
  597MOL0     C78725   5.015   3.195   1.993  0.5887 -0.4236  0.2495
  597MOL0     C78726   5.472   3.011   1.958  0.1094  0.6233 -0.5681
  597MOL0     C78727   5.520   3.145   1.934 -0.2842  0.2549  0.1550
  597MOL0     C78728   5.657   3.169   1.939  0.2128  0.7325 -0.3877
  597MOL0     C78729   5.745   3.066   1.979 -0.9551  0.4238 -0.2176
  597MOL0     O78730   5.873   3.111   1.999 -0.6891  0.3432 -0.4024
  597MOL0     C78731   5.963   3.034   2.079  0.0280 -0.0237  0.3246
  597MOL0     C78732   6.098   3.092   2.080 -0.4625 -0.1651 -0.1572
  597MOL0     C78733   6.202   2.992   2.142  0.2087 -0.2488  0.1972
  597MOL0     C78734   6.343   3.057   2.139  0.3746 -0.1351 -0.5222
  597MOL0     C78735   6.421   3.044   2.023 -0.7075 -0.6975  0.0733
  597MOL0     C78736   6.515   3.038   1.937 -0.4227  0.0863 -0.4753
  597MOL0     C78737   5.700   2.944   2.011  0.0732  0.6638  0.1562
  597MOL0     C78738   5.564   2.910   1.991 -0.4622 -0.3657 -0.1628
  597MOL0     H78739   5.076   2.875   1.896  0.7387  0.2084 -2.0602
  597MOL0     H78740   4.822   2.886   1.865 -1.0458 -1.4896  1.1839
  597MOL0     H78741   4.596   2.913   1.907  0.1281 -0.3737 -1.0646
  597MOL0     H78742   4.610   3.015   1.758 -1.0389 -0.1874 -0.1994
  597MOL0     H78743   4.381   3.000   1.826 -0.5480  0.0962  0.8639
  597MOL0     H78744   4.441   3.158   1.802 -2.1919 -1.2797 -0.4891
  597MOL0     H78745   4.449   3.185   2.063 -1.8800  0.6707  0.8990
  597MOL0     H78746   4.408   3.012   2.073 -2.2233  0.1114  1.1154
  597MOL0     H78747   4.216   3.243   1.967  1.2002  1.2020 -1.3684
  597MOL0     H78748   4.172   3.073   1.978 -0.3319  0.6921 -0.6236
  597MOL0     H78749   4.234   3.240   2.216  1.1677  1.2695 -1.8418
  597MOL0     H78750   4.225   3.073   2.227 -1.0243 -0.0245  0.3830
  597MOL0     H78751   3.978   3.092   2.106  0.4853 -1.8535  1.7986
  597MOL0     H78752   4.002   3.260   2.104 -0.2570  0.0785  0.2433
  597MOL0     H78753   4.036   3.257   2.344 -0.1108  1.4720 -1.2980
  597MOL0     H78754   3.867   3.242   2.291 -0.6179 -0.5764  3.9535
  597MOL0     H78755   3.918   3.082   2.476  2.6891 -1.0133  1.0800
  597MOL0     H78756   4.046   3.006   2.380  0.1892 -0.7070 -1.9961
  597MOL0     H78757   3.672   3.067   2.327 -1.3115 -1.2349  0.3171
  597MOL0     H78758   3.524   2.757   2.147 -0.6339 -1.3564  1.9562
  597MOL0     H78759   3.499   2.925   2.151  1.4451 -0.6979 -1.4514
  597MOL0     H78760   3.412   2.922   2.376  0.3628 -0.0738  0.1176
  597MOL0     H78761   3.500   2.777   2.419 -0.9445  0.2799  1.1662
  597MOL0     H78762   3.303   2.751   2.195  2.0273  0.2429 -0.4863
  597MOL0     H78763   3.348   2.645   2.325  0.5853  0.0070 -0.0242
  597MOL0     H78764   3.110   2.719   2.327  0.4113 -0.8684  0.7966
  597MOL0     H78765   3.153   2.884   2.369 -2.4720  0.3235  0.3429
  597MOL0     H78766   3.174   2.771   2.769  0.4699 -2.0316  0.0331
  597MOL0     H78767   2.973   2.829   2.916 -1.0309 -1.5434 -0.3273
  597MOL0     H78768   2.399   2.733   2.783  0.0693  0.0619  0.4896
  597MOL0     H78769   2.177   2.790   2.844 -1.3498  0.7292  2.0049
  597MOL0     H78770   2.050   3.248   2.944 -0.5811  0.9357  1.2700
  597MOL0     H78771   2.141   3.178   3.075  1.6680 -0.5861 -1.9581
  597MOL0     H78772   1.907   3.230   3.139 -0.5521 -0.8452 -0.2277
  597MOL0     H78773   1.939   3.058   3.153 -1.6473 -0.1835  0.2051
  597MOL0     H78774   1.840   3.015   2.929 -0.9033  0.4337 -0.3917
  597MOL0     H78775   1.826   3.188   2.904  0.9699  0.3387 -0.3662
  597MOL0     H78776   1.698   3.031   3.127 -0.2029 -1.1575 -1.7238
  597MOL0     H78777   1.673   3.203   3.110 -0.3197  2.0917 -2.7093
  597MOL0     H78778   1.492   3.038   3.045  0.1033  1.4699  0.8837
  597MOL0     H78779   1.581   2.983   2.908 -2.0773 -3.0520  2.3035
  597MOL0     H78780   1.601   3.199   2.815  0.1506  0.3076  0.1559
  597MOL0     H78781   1.530   3.284   2.945 -0.5157  1.0861 -1.5042
  597MOL0     H78782   1.387   3.221   2.717  0.8800  1.9308  0.7292
  597MOL0     H78783   1.362   3.063   2.800 -0.6317 -0.1604  1.1271
  597MOL0     H78784   1.256   3.194   2.984  0.9603 -0.9936 -0.0829
  597MOL0     H78785   1.180   3.199   2.820  1.3829  0.3723 -1.7796
  597MOL0     H78786   2.308   3.198   2.930 -0.0773 -0.6877  2.7191
  597MOL0     H78787   2.548   3.124   2.847 -0.1314  0.1134 -0.4237
  597MOL0     H78788   2.732   2.839   2.542 -1.1444 -2.1554  1.7582
  597MOL0     H78789   2.928   2.778   2.423 -1.1795 -0.9656  0.2617
  597MOL0     H78790   4.823   3.289   2.013  0.8500 -0.4468  3.9858
  597MOL0     H78791   5.065   3.287   2.020  1.6002 -1.0428  0.5341
  597MOL0     H78792   5.454   3.229   1.917  0.7652  1.0325 -0.1764
  597MOL0     H78793   5.692   3.271   1.928  0.9527  0.4559 -0.6751
  597MOL0     H78794   5.973   2.929   2.050 -1.3804  0.5468 -2.6359
  597MOL0     H78795   5.942   3.031   2.186  4.7379 -1.0783  1.4667
  597MOL0     H78796   6.134   3.092   1.976  0.2554  0.1237  0.0839
  597MOL0     H78797   6.096   3.188   2.132  1.6178 -0.1336 -0.0448
  597MOL0     H78798   6.199   2.893   2.095 -1.0754  0.7971 -2.1052
  597MOL0     H78799   6.170   2.983   2.246  1.8372 -0.2346  0.7264
  597MOL0     H78800   6.318   3.163   2.149  0.2861 -0.1835 -0.2284
  597MOL0     H78801   6.392   3.024   2.231  1.4800 -0.9199 -1.3701
  597MOL0     H78802   6.601   3.029   1.873 -1.8180 -0.7512 -2.3022
  597MOL0     H78803   5.771   2.870   2.048  2.4951  2.6871 -0.2179
  597MOL0     H78804   5.532   2.807   2.003  1.2219 -0.5660  4.4867
  598MOL0     O78805  10.640   6.260   8.825  0.1036  0.1004 -0.6302
  598MOL0     C78806  10.658   6.142   8.797  0.2717 -0.7855  0.5109
  598MOL0     O78807  10.757   6.066   8.843 -0.0472  0.4526  0.5322
  598MOL0     C78808  10.858   6.107   8.911  0.1409  0.0478 -0.6652
  598MOL0     C78809  10.896   6.034   9.015 -0.1347  0.2956 -0.0554
  598MOL0     C78810  11.000   6.069   9.099 -0.1247 -0.6022  0.2933
  598MOL0     C78811  11.084   6.168   9.055  0.4399 -0.0771  0.4138
  598MOL0     O78812  11.190   6.196   9.135  0.0801  0.1980 -1.1365
  598MOL0     C78813  11.274   6.083   9.172  0.1448 -0.2552 -0.4165
  598MOL0     C78814  11.411   6.147   9.225  0.0127  1.0064 -0.9425
  598MOL0     C78815  11.393   6.198   9.377  0.0694 -0.1084 -0.4373
  598MOL0     C78816  11.310   6.315   9.386 -0.2224 -0.0635  0.6475
  598MOL0     C78817  11.321   6.383   9.522 -0.2130 -0.2159  0.2385
  598MOL0     C78818  11.251   6.517   9.519 -0.7589  0.4636  0.3170
  598MOL0     C78819  11.326   6.641   9.562 -0.2761  0.8737 -0.4419
  598MOL0     C78820  11.441   6.675   9.471 -0.4302  0.4567  0.4045
  598MOL0     N78821  11.406   6.729   9.344 -0.3101 -0.3932 -0.2561
  598MOL0     C78822  11.397   6.671   9.222 -0.2884 -0.1199 -0.8189
  598MOL0     C78823  11.341   6.771   9.153 -0.1481 -1.0347  0.0973
  598MOL0     C78824  11.312   6.762   9.000  0.7297 -0.5332  0.2366
  598MOL0     C78825  11.163   6.745   8.961  0.3757 -0.0020  0.7945
  598MOL0     C78826  11.112   6.602   9.005 -0.5507 -0.6992  0.7764
  598MOL0     C78827  10.969   6.586   8.961 -0.1828 -0.1866 -0.0456
  598MOL0     O78828  10.889   6.696   9.002  0.3564  0.0712 -0.4399
  598MOL0     C78829  10.760   6.700   8.943 -0.5332  0.3556  0.0207
  598MOL0     C78830  10.702   6.597   8.864 -0.2140  0.7335 -0.4637
  598MOL0     C78831  10.573   6.608   8.816  0.4122  0.3736  0.7912
  598MOL0     C78832  10.491   6.721   8.846  0.4529  0.4371 -0.1527
  598MOL0     C78833  10.356   6.742   8.793 -0.3019 -0.0224  0.1312
  598MOL0     O78834  10.308   6.866   8.797  0.1001 -0.2200  0.2343
  598MOL0     C78835  10.169   6.902   8.775 -0.4075  0.5681 -0.4513
  598MOL0     C78836  10.144   7.035   8.741 -0.4846  0.6177  0.4577
  598MOL0     C78837  10.008   7.078   8.730 -0.9062 -0.2411  0.2526
  598MOL0     C78838   9.907   6.993   8.758  0.6937  0.2309 -0.5648
  598MOL0     O78839   9.771   7.032   8.746 -0.5566 -0.0566 -0.0539
  598MOL0     C78840   9.731   7.133   8.660  0.6446 -0.5503  0.4259
  598MOL0     C78841   9.580   7.136   8.676  0.0979  0.5151 -0.0574
  598MOL0     C78842   9.511   7.239   8.588  0.1851 -0.7882 -0.1292
  598MOL0     C78843   9.358   7.236   8.609  0.6273 -0.4122 -0.5886
  598MOL0     C78844   9.268   7.280   8.481  0.2128  0.3250 -0.5425
  598MOL0     C78845   9.317   7.418   8.436 -0.4612 -0.0474  0.0276
  598MOL0     C78846   9.193   7.511   8.420 -0.0932 -0.8942  0.5741
  598MOL0     C78847   9.244   7.629   8.323 -0.3711 -0.1141  0.0461
  598MOL0    Cl78848   9.266   7.583   8.148  0.0833 -0.3078 -0.4963
  598MOL0     C78849   9.939   6.858   8.786  0.1837 -0.0419  0.3804
  598MOL0     C78850  10.070   6.813   8.791 -0.0851 -0.2787  0.1608
  598MOL0     O78851  10.308   6.649   8.730  0.3074 -0.1687 -0.0861
  598MOL0     C78852  10.541   6.820   8.935 -0.8028  0.1062  0.6419
  598MOL0     C78853  10.679   6.814   8.973  0.8716 -0.3281 -0.4147
  598MOL0     N78854  11.334   6.889   9.222 -1.6172 -0.2415  0.2923
  598MOL0     N78855  11.378   6.863   9.336 -0.3362  0.4598 -0.2358
  598MOL0     C78856  11.060   6.240   8.937 -0.5308  0.4216  0.2981
  598MOL0     C78857  10.942   6.208   8.873 -0.2062 -0.1257 -0.1438
  598MOL0     C78858  10.549   6.078   8.718  0.0458 -0.1678 -0.2769
  598MOL0     C78859  10.440   6.154   8.675 -0.4348 -0.0267  1.0399
  598MOL0     C78860  10.345   6.094   8.585 -0.2484 -0.6143 -0.2995
  598MOL0     C78861  10.353   5.967   8.547  0.1373 -0.3306  0.3700
  598MOL0     O78862  10.255   5.921   8.460 -0.3317 -0.5761  0.4826
  598MOL0     C78863  10.263   5.791   8.399  0.1319 -0.0046  0.1651
  598MOL0     C78864  10.182   5.789   8.271  0.9682 -0.8083  0.0936
  598MOL0     C78865  10.167   5.642   8.230  0.2630  0.3588 -0.4609
  598MOL0     C78866  10.103   5.616   8.094 -0.0384 -0.3566  0.6054
  598MOL0     C78867   9.959   5.672   8.097  0.9465 -0.5043  0.0825
  598MOL0     C78868   9.849   5.729   8.120 -0.7537  0.5082 -0.0862
  598MOL0     C78869  10.450   5.883   8.604 -1.0219  0.3198 -0.1324
  598MOL0     C78870  10.552   5.942   8.683 -0.9582 -0.4427 -0.1696
  598MOL0     H78871  10.833   5.949   9.039 -0.7610  0.4534 -1.0862
  598MOL0     H78872  11.004   6.024   9.198 -0.5121 -0.8914  0.1777
  598MOL0     H78873  11.293   6.028   9.079 -1.8954  0.8461 -1.5557
  598MOL0     H78874  11.233   6.017   9.248  1.3267 -4.1977 -2.8785
  598MOL0     H78875  11.441   6.235   9.168  0.5396  0.7256 -1.1052
  598MOL0     H78876  11.491   6.072   9.223 -2.0619 -1.4265  1.0010
  598MOL0     H78877  11.493   6.225   9.413 -0.6703  1.8968  0.2406
  598MOL0     H78878  11.355   6.115   9.437  0.9320  0.5622  1.0840
  598MOL0     H78879  11.320   6.387   9.304 -0.0634  1.4859  1.9740
  598MOL0     H78880  11.208   6.282   9.365 -0.0782  0.1767 -0.5059
  598MOL0     H78881  11.424   6.397   9.556 -1.0656  1.4986  2.3232
  598MOL0     H78882  11.273   6.328   9.603 -0.0876 -0.1381  0.3673
  598MOL0     H78883  11.172   6.505   9.594 -1.2222 -3.0336 -0.5408
  598MOL0     H78884  11.205   6.540   9.422 -1.9813  1.4373  1.0974
  598MOL0     H78885  11.255   6.724   9.568 -1.6085 -0.2307 -0.4145
  598MOL0     H78886  11.362   6.622   9.664  0.9391  0.3289 -0.9580
  598MOL0     H78887  11.496   6.582   9.452 -0.1900  0.4553  1.0868
  598MOL0     H78888  11.498   6.757   9.515 -0.6549  1.5116 -1.1610
  598MOL0     H78889  11.422   6.568   9.203 -0.0478 -0.1999 -0.1211
  598MOL0     H78890  11.362   6.672   8.964  0.2597 -0.8146  0.2816
  598MOL0     H78891  11.353   6.847   8.945 -0.9330  0.4027  0.3523
  598MOL0     H78892  11.143   6.758   8.855  0.5434  2.2467  0.9868
  598MOL0     H78893  11.104   6.823   9.012 -0.9242 -0.7774  0.5258
  598MOL0     H78894  11.183   6.533   8.959  0.3661  1.1099 -0.6489
  598MOL0     H78895  11.131   6.587   9.112  0.1135 -1.7849  0.5177
  598MOL0     H78896  10.922   6.503   9.014  0.2617 -1.5569 -1.7281
  598MOL0     H78897  10.965   6.580   8.852  1.0649  3.7296 -0.4711
  598MOL0     H78898  10.760   6.509   8.836  0.5089  1.2885 -0.7303
  598MOL0     H78899  10.526   6.525   8.765 -1.0071  0.1048  2.4511
  598MOL0     H78900  10.230   7.099   8.726 -0.4971  0.4878 -0.2044
  598MOL0     H78901  10.002   7.180   8.692  3.5772  0.2629  0.3537
  598MOL0     H78902   9.756   7.106   8.557 -0.8829 -0.7550  0.0920
  598MOL0     H78903   9.776   7.228   8.690 -1.0650  0.6566 -0.6304
  598MOL0     H78904   9.541   7.146   8.778  1.7271  0.5755  0.5951
  598MOL0     H78905   9.561   7.032   8.646  0.1590 -0.4195  2.8316
  598MOL0     H78906   9.537   7.211   8.485 -3.0878  1.3961 -1.7145
  598MOL0     H78907   9.554   7.337   8.608 -2.2656  0.4396 -0.4269
  598MOL0     H78908   9.345   7.132   8.641 -0.7103 -0.2880 -0.6959
  598MOL0     H78909   9.327   7.308   8.685 -0.0735  0.6080 -1.8126
  598MOL0     H78910   9.160   7.263   8.493  0.6712 -1.1636  2.5489
  598MOL0     H78911   9.285   7.204   8.405 -1.7297 -4.5057  3.2644
  598MOL0     H78912   9.370   7.399   8.342 -1.4818 -0.9028 -0.3958
  598MOL0     H78913   9.381   7.467   8.511  0.7051 -1.4110 -0.0449
  598MOL0     H78914   9.120   7.458   8.358  0.1486 -2.8871  1.8996
  598MOL0     H78915   9.160   7.548   8.518  0.3579  0.6842  0.1642
  598MOL0     H78916   9.338   7.669   8.361 -1.0676  0.7557  0.8997
  598MOL0     H78917   9.177   7.715   8.325  0.8121  0.8612 -1.0014
  598MOL0     H78918   9.857   6.788   8.801 -0.8587  1.2445  0.9161
  598MOL0     H78919  10.100   6.709   8.801 -0.1189 -0.2749  0.3050
  598MOL0     H78920  10.483   6.903   8.974 -0.2767  2.6417 -3.4111
  598MOL0     H78921  10.722   6.891   9.036  0.1644 -0.4034  0.1804
  598MOL0     H78922  11.126   6.321   8.906 -1.8767  1.3532 -0.2495
  598MOL0     H78923  10.917   6.254   8.779 -0.5991  0.3927  0.2146
  598MOL0     H78924  10.448   6.262   8.683 -1.5682  0.8420 -4.6342
  598MOL0     H78925  10.266   6.157   8.544 -0.1083 -0.9393 -1.0953
  598MOL0     H78926  10.213   5.725   8.470  1.1000 -0.1365  0.7373
  598MOL0     H78927  10.363   5.753   8.379  1.1092  2.4190  0.0732
  598MOL0     H78928  10.087   5.838   8.295  0.1545 -3.4498  2.8461
  598MOL0     H78929  10.232   5.847   8.192 -0.4961 -2.6016 -2.3061
  598MOL0     H78930  10.115   5.590   8.311  1.3583 -1.5248 -0.9003
  598MOL0     H78931  10.265   5.594   8.234 -0.7654 -1.9950 -1.4820
  598MOL0     H78932  10.155   5.665   8.011 -0.0344 -0.0241  0.8023
  598MOL0     H78933  10.105   5.508   8.076  0.6214 -0.3865  0.8642
  598MOL0     H78934   9.770   5.784   8.168  0.0490 -0.4452  2.5023
  598MOL0     H78935  10.450   5.776   8.587  2.5720  0.2540 -0.4817
  598MOL0     H78936  10.628   5.884   8.734  1.8209 -0.5498 -3.9919
  599MOL0     O78937   9.527   9.324   3.504 -0.2245  0.6217  0.4350
  599MOL0     C78938   9.553   9.298   3.387 -0.0005  0.2113 -0.4291
  599MOL0     O78939   9.458   9.268   3.293  0.2166  0.2359  0.2378
  599MOL0     C78940   9.334   9.224   3.341 -0.1667 -0.2620 -0.3730
  599MOL0     C78941   9.311   9.135   3.448 -1.0535  0.3463 -0.2395
  599MOL0     C78942   9.183   9.090   3.476 -0.3296 -0.8381 -0.2543
  599MOL0     C78943   9.075   9.124   3.402  0.6208  0.1255  0.8052
  599MOL0     O78944   8.944   9.088   3.425  0.3731 -0.2695  0.6786
  599MOL0     C78945   8.913   9.017   3.548 -0.6058 -0.0961  0.0955
  599MOL0     C78946   8.767   8.976   3.545 -0.3733  0.6614 -0.6045
  599MOL0     C78947   8.674   9.095   3.516 -0.0223 -0.2918 -0.1506
  599MOL0     C78948   8.533   9.078   3.576 -0.6460 -0.9005  0.0060
  599MOL0     C78949   8.466   9.217   3.552 -0.3454  1.2916 -0.1527
  599MOL0     C78950   8.339   9.203   3.628 -0.0330 -0.3658  0.6911
  599MOL0     C78951   8.250   9.328   3.609 -0.1165 -0.1758 -0.4019
  599MOL0     C78952   8.285   9.418   3.726 -0.8938 -0.7398 -0.4649
  599MOL0     N78953   8.204   9.528   3.742  0.0547  0.0757 -0.2283
  599MOL0     C78954   8.179   9.627   3.642  0.6380  0.1160  0.2249
  599MOL0     C78955   8.060   9.680   3.677  0.5450 -0.3468  0.3964
  599MOL0     C78956   8.005   9.802   3.599 -0.6444 -0.1722 -0.2520
  599MOL0     C78957   7.871   9.860   3.640  0.6684  0.1869  0.8391
  599MOL0     C78958   7.841   9.990   3.560 -0.2966 -0.5692 -0.4978
  599MOL0     C78959   7.701  10.042   3.587  0.3749 -0.2225 -0.3380
  599MOL0     O78960   7.600   9.945   3.533 -0.0602 -0.3086  0.1239
  599MOL0     C78961   7.473   9.957   3.576 -0.3417 -0.8120 -1.0746
  599MOL0     C78962   7.439  10.062   3.660  0.1299  0.4271 -0.6690
  599MOL0     C78963   7.303  10.088   3.692  0.4016  0.4071  0.6565
  599MOL0     C78964   7.197  10.000   3.652 -0.1065 -0.2509  0.0543
  599MOL0     C78965   7.057  10.032   3.682 -1.0208 -0.3011  0.7561
  599MOL0     O78966   6.960   9.939   3.670  1.0686  0.6265 -0.1895
  599MOL0     C78967   6.832   9.974   3.682  0.6813  0.0295 -0.2079
  599MOL0     C78968   6.784  10.039   3.802  0.3238  0.2309 -0.2472
  599MOL0     C78969   6.651  10.058   3.821 -0.7137  0.1753  0.3959
  599MOL0     C78970   6.552  10.010   3.739  0.2010  0.6337 -0.0389
  599MOL0     O78971   6.422  10.030   3.778 -0.4138 -0.0587 -0.4526
  599MOL0     C78972   6.321   9.974   3.693  0.6281  0.0721 -0.0473
  599MOL0     C78973   6.184  10.029   3.751  0.2988 -0.4127 -0.9907
  599MOL0     C78974   6.190  10.173   3.802  0.7750 -0.3773  0.0851
  599MOL0     C78975   6.046  10.206   3.857 -0.8651  0.5925  0.6658
  599MOL0     C78976   6.056  10.346   3.910  0.2740 -0.0997  0.1304
  599MOL0     C78977   5.924  10.366   3.986 -0.1367  0.4476  0.0958
  599MOL0     C78978   5.941  10.488   4.084  0.1485  0.4276  0.3787
  599MOL0     C78979   5.800  10.516   4.147  0.1049 -0.0695  0.2563
  599MOL0    Cl78980   5.670  10.580   4.037 -0.4660 -0.1805 -0.2312
  599MOL0     C78981   6.596   9.938   3.620 -0.4841  0.0967 -0.4435
  599MOL0     C78982   6.732   9.928   3.590 -0.1802  0.2334 -0.8378
  599MOL0     O78983   7.041  10.152   3.704 -0.0491 -0.2199  0.4541
  599MOL0     C78984   7.234   9.895   3.574 -0.4711  0.6032 -0.2003
  599MOL0     C78985   7.367   9.876   3.534 -0.3024 -0.8303 -0.3517
  599MOL0     N78986   8.015   9.612   3.787 -0.2956  0.4012 -0.1451
  599MOL0     N78987   8.091   9.512   3.821 -0.1188  0.1905  1.0580
  599MOL0     C78988   9.097   9.211   3.294  0.3154 -0.8374  1.0955
  599MOL0     C78989   9.221   9.268   3.268  0.1180 -0.3993  0.3213
  599MOL0     C78990   9.692   9.311   3.343 -0.6713 -0.0485  0.2874
  599MOL0     C78991   9.792   9.316   3.450  0.3435 -0.2670 -0.0646
  599MOL0     C78992   9.929   9.309   3.424 -1.3533  0.1853  0.2582
  599MOL0     C78993   9.968   9.309   3.290  1.3766 -0.8780  0.1083
  599MOL0     O78994  10.099   9.281   3.254  0.7590 -0.7694  1.3082
  599MOL0     C78995  10.205   9.337   3.332  1.1830 -1.1188  0.3802
  599MOL0     C78996  10.320   9.367   3.241  0.4505 -0.1111  0.0020
  599MOL0     C78997  10.440   9.425   3.321  0.0084  0.2972  0.3887
  599MOL0     C78998  10.561   9.426   3.230 -0.2677  0.8820 -0.1219
  599MOL0     C78999  10.690   9.434   3.293 -0.8008  0.3173  0.0862
  599MOL0     C79000  10.795   9.418   3.355  0.3008 -0.9290 -0.1824
  599MOL0     C79001   9.877   9.324   3.185 -0.3831  0.2405  0.7186
  599MOL0     C79002   9.741   9.324   3.210 -0.2271  0.2413 -0.2122
  599MOL0     H79003   9.397   9.113   3.511 -2.9942  1.7528  3.1563
  599MOL0     H79004   9.175   9.026   3.563 -0.4078  1.3634  1.4301
  599MOL0     H79005   8.930   9.075   3.640 -2.8287  0.1365  0.4252
  599MOL0     H79006   8.983   8.934   3.549  2.8853  2.5645 -1.5753
  599MOL0     H79007   8.755   8.945   3.649  1.9201  2.2133  0.2104
  599MOL0     H79008   8.742   8.898   3.472  0.5758  1.5808 -1.9555
  599MOL0     H79009   8.664   9.107   3.408 -1.6564  0.0036  0.0139
  599MOL0     H79010   8.731   9.179   3.557  2.0401  0.1079 -3.4457
  599MOL0     H79011   8.488   8.993   3.523  4.4579 -2.7811 -1.9219
  599MOL0     H79012   8.537   9.049   3.681 -0.2755 -0.9105 -0.0090
  599MOL0     H79013   8.438   9.225   3.447  2.1376  3.3834 -0.7614
  599MOL0     H79014   8.528   9.303   3.580  1.8116  0.0369 -0.7941
  599MOL0     H79015   8.364   9.186   3.733  3.3352 -0.5955 -0.0375
  599MOL0     H79016   8.276   9.120   3.594  0.7475 -1.2856  1.4220
  599MOL0     H79017   8.263   9.383   3.515 -0.3720  1.3550  0.4231
  599MOL0     H79018   8.144   9.302   3.617 -0.3383  1.0870  1.2608
  599MOL0     H79019   8.388   9.454   3.719 -0.1271 -3.0072 -2.3768
  599MOL0     H79020   8.281   9.357   3.817  1.5904  0.0380  0.2394
  599MOL0     H79021   8.236   9.653   3.553 -2.8565  5.0260 -0.9570
  599MOL0     H79022   8.003   9.798   3.490 -0.6271 -0.0139 -0.2581
  599MOL0     H79023   8.078   9.880   3.621  0.3544 -0.5174 -2.1012
  599MOL0     H79024   7.856   9.879   3.746 -0.4849  2.1676  0.3766
  599MOL0     H79025   7.794   9.787   3.611 -0.6523  1.2349  1.5994
  599MOL0     H79026   7.918  10.063   3.588 -0.9364  0.2740 -0.8649
  599MOL0     H79027   7.861   9.971   3.454 -3.0621  0.4766 -1.2949
  599MOL0     H79028   7.699  10.145   3.551 -1.0332 -0.4609 -0.9957
  599MOL0     H79029   7.685  10.051   3.695 -1.5020  0.8568 -0.6635
  599MOL0     H79030   7.505  10.140   3.696  1.9586 -2.0319  1.6995
  599MOL0     H79031   7.274  10.180   3.742  2.6805  0.4886  1.9799
  599MOL0     H79032   6.847  10.091   3.873 -1.6260  0.5385  1.3547
  599MOL0     H79033   6.617  10.087   3.919 -0.0957  0.4051  0.5490
  599MOL0     H79034   6.327   9.865   3.703  2.4110  0.3342  3.0941
  599MOL0     H79035   6.330  10.018   3.593  1.1736  1.2875  0.5151
  599MOL0     H79036   6.143   9.963   3.828  1.5616  0.7190  0.7176
  599MOL0     H79037   6.113  10.027   3.667 -0.6516 -0.5011 -0.2061
  599MOL0     H79038   6.210  10.238   3.716  1.6529  0.8900  1.2067
  599MOL0     H79039   6.259  10.183   3.886  2.9785  2.2787 -1.8324
  599MOL0     H79040   5.964  10.187   3.787 -1.7697  0.7187  1.6628
  599MOL0     H79041   6.025  10.137   3.939  1.7971  1.5854  2.3513
  599MOL0     H79042   6.070  10.421   3.832  0.9257  1.3025  1.5282
  599MOL0     H79043   6.143  10.358   3.975 -1.1597 -0.4189  2.2091
  599MOL0     H79044   5.893  10.273   4.035  1.7507 -0.4236 -0.2660
  599MOL0     H79045   5.848  10.377   3.909  4.3769  1.9045 -4.6783
  599MOL0     H79046   6.017  10.466   4.159  0.2705  1.6673  0.6405
  599MOL0     H79047   5.978  10.580   4.038 -0.3698  0.8955  0.8858
  599MOL0     H79048   5.819  10.576   4.237  3.4532 -1.1539  0.4045
  599MOL0     H79049   5.764  10.420   4.185 -1.2834 -0.0397 -0.8823
  599MOL0     H79050   6.530   9.897   3.545 -1.6483 -0.6359  0.9357
  599MOL0     H79051   6.762   9.866   3.506 -2.4044 -1.2548 -0.6467
  599MOL0     H79052   7.169   9.816   3.537  2.6177 -1.7544 -1.0505
  599MOL0     H79053   7.392   9.787   3.478  1.8185 -1.6840  1.7363
  599MOL0     H79054   9.016   9.239   3.227  1.0366  1.4495  1.1039
  599MOL0     H79055   9.227   9.344   3.191 -0.7716  0.4270  1.0492
  599MOL0     H79056   9.762   9.311   3.554 -1.0175 -0.3551 -0.4292
  599MOL0     H79057  10.002   9.298   3.503  1.2524  1.4230 -1.8610
  599MOL0     H79058  10.233   9.270   3.414 -0.7603  0.0653  2.1191
  599MOL0     H79059  10.174   9.434   3.372 -0.6193 -2.0183  1.3000
  599MOL0     H79060  10.337   9.274   3.186 -0.8900  0.4729 -1.4925
  599MOL0     H79061  10.269   9.439   3.176 -1.2031 -0.1154  1.2138
  599MOL0     H79062  10.458   9.372   3.415  0.9617  2.3018  1.3943
  599MOL0     H79063  10.406   9.527   3.344 -1.6893 -0.1898  0.1867
  599MOL0     H79064  10.562   9.335   3.170  1.4770  0.1811  0.9122
  599MOL0     H79065  10.545   9.502   3.152 -2.5455 -1.2833 -1.9287
  599MOL0     H79066  10.885   9.401   3.410 -1.0110  0.4667  2.6246
  599MOL0     H79067   9.906   9.318   3.080  1.0796 -0.4845  1.1466
  599MOL0     H79068   9.672   9.320   3.126 -0.5719 -2.3095  0.1029
  600MOL0     O79069   9.466  11.030   8.633 -0.2924  0.1215 -0.1757
  600MOL0     C79070   9.517  11.142   8.619  0.5071 -0.2904 -0.4148
  600MOL0     O79071   9.457  11.263   8.630  0.1730 -0.5893  0.2865
  600MOL0     C79072   9.323  11.268   8.673 -0.0028  0.9981  0.7045
  600MOL0     C79073   9.230  11.167   8.646  0.3276  0.3419 -0.6094
  600MOL0     C79074   9.093  11.193   8.675 -0.3756  1.0669 -0.2931
  600MOL0     C79075   9.044  11.312   8.726  0.2689  0.0102  0.2494
  600MOL0     O79076   8.910  11.337   8.739 -0.1804  0.4675 -0.2626
  600MOL0     C79077   8.850  11.360   8.870 -0.6567  0.3549  0.0325
  600MOL0     C79078   8.735  11.455   8.857  0.1936 -0.0283  0.2676
  600MOL0     C79079   8.661  11.473   8.991  0.2909 -0.5392  0.6157
  600MOL0     C79080   8.518  11.546   8.968  0.7566 -0.7028 -0.1678
  600MOL0     C79081   8.464  11.620   9.092  0.0904  0.3678 -0.6503
  600MOL0     C79082   8.337  11.698   9.063  0.1231 -0.5506 -0.4679
  600MOL0     C79083   8.320  11.834   9.135 -0.8172 -0.3926 -0.2316
  600MOL0     C79084   8.318  11.815   9.280  0.2110 -0.0079 -0.5496
  600MOL0     N79085   8.306  11.946   9.347  0.0470 -0.3895  0.3517
  600MOL0     C79086   8.190  12.001   9.385 -0.3455  0.1221 -0.2421
  600MOL0     C79087   8.223  12.104   9.467  0.2821  0.2059 -0.0001
  600MOL0     C79088   8.132  12.180   9.553  0.2490  0.3373  0.8940
  600MOL0     C79089   7.993  12.212   9.492 -0.5966  0.1112 -0.3488
  600MOL0     C79090   7.913  12.314   9.580  0.3801 -0.2775 -0.1977
  600MOL0     C79091   7.775  12.335   9.519  0.4351 -0.5156 -0.3875
  600MOL0     O79092   7.704  12.411   9.617  0.3016  0.1430 -0.0477
  600MOL0     C79093   7.565  12.404   9.626 -1.2699 -0.1219  0.1534
  600MOL0     C79094   7.510  12.435   9.746 -0.1649  0.5296  0.3014
  600MOL0     C79095   7.372  12.427   9.757 -0.7941  0.5421  0.4519
  600MOL0     C79096   7.284  12.389   9.653 -0.2675 -0.5248  0.6766
  600MOL0     C79097   7.146  12.380   9.676  0.2439 -0.4719 -0.2421
  600MOL0     O79098   7.101  12.444   9.786 -0.1426 -0.1977 -0.1055
  600MOL0     C79099   6.965  12.434   9.804 -0.0379 -0.9048 -0.0920
  600MOL0     C79100   6.915  12.334   9.877 -0.1762 -0.3619 -0.7965
  600MOL0     C79101   6.781  12.310   9.903  0.2604 -0.2933  0.0887
  600MOL0     C79102   6.686  12.404   9.845 -0.8231  0.3704  0.5517
  600MOL0     O79103   6.549  12.382   9.850 -0.1997 -0.4828  0.0878
  600MOL0     C79104   6.496  12.314   9.965  0.8461 -0.0636  0.0092
  600MOL0     C79105   6.343  12.311   9.961 -0.4737 -0.2356  0.1459
  600MOL0     C79106   6.282  12.213   9.853 -0.4139  0.0354 -0.2479
  600MOL0     C79107   6.131  12.246   9.859  0.1139  0.7533 -0.3582
  600MOL0     C79108   6.055  12.174   9.748  0.4376 -0.4998 -0.4166
  600MOL0     C79109   5.905  12.165   9.778  0.4449  1.4264 -0.0933
  600MOL0     C79110   5.834  12.096   9.666 -0.7188 -0.8412  0.1775
  600MOL0     C79111   5.695  12.088   9.704 -0.2023 -0.4891 -0.6327
  600MOL0    Cl79112   5.602  11.994   9.591 -0.1239 -0.3341  0.0587
  600MOL0     C79113   6.735  12.514   9.771  0.3619 -0.6929  0.1841
  600MOL0     C79114   6.874  12.527   9.749 -0.6593 -0.4444  1.3173
  600MOL0     O79115   7.079  12.317   9.595  0.2550  0.0943  0.6710
  600MOL0     C79116   7.346  12.366   9.521  0.0643  0.4293 -0.4487
  600MOL0     C79117   7.485  12.368   9.513  0.3723 -0.8000 -0.2036
  600MOL0     N79118   8.359  12.116   9.467  0.0833  0.2081 -0.2087
  600MOL0     N79119   8.407  12.021   9.393  0.2367  1.2000 -0.3679
  600MOL0     C79120   9.138  11.406   8.751  0.3574  0.1071  0.4362
  600MOL0     C79121   9.273  11.388   8.736 -0.4798 -0.4506  0.3064
  600MOL0     C79122   9.663  11.129   8.592  0.2653  1.1237 -0.0562
  600MOL0     C79123   9.739  11.244   8.569  0.3643  0.0499  0.4581
  600MOL0     C79124   9.875  11.234   8.533  1.1169 -1.3955 -0.3001
  600MOL0     C79125   9.940  11.118   8.524 -1.5729  0.4606 -0.2522
  600MOL0     O79126  10.072  11.129   8.508 -0.1807  0.1833 -0.2066
  600MOL0     C79127  10.146  11.007   8.530 -0.2343 -0.0395 -0.0556
  600MOL0     C79128  10.299  11.034   8.528  0.4620 -0.7859 -0.2291
  600MOL0     C79129  10.348  11.159   8.600  0.8560  0.0067  0.3101
  600MOL0     C79130  10.498  11.166   8.644 -0.4710  0.8679 -0.7962
  600MOL0     C79131  10.589  11.143   8.523  0.9690  0.5300 -0.8009
  600MOL0     C79132  10.659  11.133   8.424  0.5878  0.1669 -0.5043
  600MOL0     C79133   9.870  11.000   8.557  0.7103  0.2075 -0.2704
  600MOL0     C79134   9.732  11.004   8.592 -0.6058  0.9646  0.6484
  600MOL0     H79135   9.246  11.073   8.594 -0.9982  0.4381 -1.2323
  600MOL0     H79136   9.016  11.120   8.651 -0.8490  2.1510 -2.3064
  600MOL0     H79137   8.926  11.404   8.936  1.1380 -1.5388 -0.6644
  600MOL0     H79138   8.816  11.263   8.906  1.6219 -0.6960 -0.4716
  600MOL0     H79139   8.661  11.423   8.782  0.7409  0.0667 -0.3176
  600MOL0     H79140   8.766  11.552   8.820  0.5657 -0.4782 -0.6200
  600MOL0     H79141   8.722  11.517   9.070  2.4074 -1.7268 -0.2838
  600MOL0     H79142   8.631  11.379   9.037 -0.4484 -0.3662  0.4995
  600MOL0     H79143   8.543  11.624   8.895 -0.5353 -0.2719 -0.1700
  600MOL0     H79144   8.435  11.480   8.944  0.2953 -1.0009  2.0095
  600MOL0     H79145   8.531  11.688   9.145  0.2784 -0.3301  0.0294
  600MOL0     H79146   8.438  11.542   9.165  1.7778  0.0958 -0.3006
  600MOL0     H79147   8.253  11.630   9.073 -0.0899 -0.3820 -1.0362
  600MOL0     H79148   8.330  11.729   8.958  3.0224  0.9265 -0.3532
  600MOL0     H79149   8.405  11.895   9.101  0.3066 -0.6715  1.9251
  600MOL0     H79150   8.228  11.880   9.097 -0.5990 -1.6043 -2.4157
  600MOL0     H79151   8.405  11.764   9.321 -1.1138 -0.0458  2.5437
  600MOL0     H79152   8.232  11.755   9.310  0.7429 -1.1199 -1.1928
  600MOL0     H79153   8.091  11.960   9.368 -0.6644 -0.1479  1.9461
  600MOL0     H79154   8.186  12.275   9.563  1.4035 -0.3436  1.5153
  600MOL0     H79155   8.128  12.123   9.647  1.0062 -0.2797  0.5625
  600MOL0     H79156   7.935  12.121   9.476 -2.3744  1.2298 -0.5525
  600MOL0     H79157   8.023  12.256   9.397  0.6168  0.7219  0.2992
  600MOL0     H79158   7.905  12.275   9.682  4.7184  3.4286  1.9689
  600MOL0     H79159   7.964  12.411   9.582 -1.2286  0.6214 -1.0069
  600MOL0     H79160   7.718  12.242   9.504 -2.8167  0.9191  1.8260
  600MOL0     H79161   7.778  12.393   9.427 -2.2140 -1.5573 -1.2269
  600MOL0     H79162   7.581  12.456   9.825 -0.1262 -0.0998  0.4389
  600MOL0     H79163   7.337  12.437   9.860  1.9044  5.4393  1.2151
  600MOL0     H79164   6.991  12.257   9.890  0.2111  0.1290 -0.0529
  600MOL0     H79165   6.760  12.217   9.956 -1.3519  0.5103  0.9271
  600MOL0     H79166   6.522  12.375  10.053 -0.1159 -0.2754  0.4482
  600MOL0     H79167   6.538  12.213   9.967  0.4441 -0.2336 -0.0816
  600MOL0     H79168   6.303  12.409   9.933 -1.6395 -0.4466  0.9803
  600MOL0     H79169   6.306  12.280  10.059 -1.8595 -2.0945 -0.8912
  600MOL0     H79170   6.302  12.106   9.867 -3.4800 -0.7394 -1.0636
  600MOL0     H79171   6.317  12.245   9.755 -2.0026 -0.4845 -1.0258
  600MOL0     H79172   6.081  12.216   9.952  0.9261 -2.0551 -0.7078
  600MOL0     H79173   6.112  12.352   9.844  3.6603  1.0702 -4.3392
  600MOL0     H79174   6.096  12.073   9.735 -3.0211 -2.1052 -0.0227
  600MOL0     H79175   6.063  12.238   9.660  3.9189  2.1772  1.5885
  600MOL0     H79176   5.870  12.269   9.780 -1.3132  1.0028 -3.1130
  600MOL0     H79177   5.888  12.123   9.878  0.4533  3.0465  0.6152
  600MOL0     H79178   5.841  12.149   9.570 -0.8995  0.3847  0.8227
  600MOL0     H79179   5.876  11.997   9.646  1.5765  0.2437 -0.6764
  600MOL0     H79180   5.642  12.182   9.719 -1.2038 -1.0581 -0.5489
  600MOL0     H79181   5.688  12.036   9.800 -0.9183  0.0568 -0.3802
  600MOL0     H79182   6.666  12.583   9.724 -0.7627 -0.6783  1.7777
  600MOL0     H79183   6.900  12.601   9.673  0.0369 -1.6812  0.3134
  600MOL0     H79184   7.284  12.344   9.434  0.8456 -1.5362 -0.5735
  600MOL0     H79185   7.516  12.351   9.410  1.2107 -0.1596 -0.0689
  600MOL0     H79186   9.095  11.498   8.788 -4.2601 -1.5293 -0.1709
  600MOL0     H79187   9.335  11.475   8.751 -1.7433  0.7046 -0.8910
  600MOL0     H79188   9.689  11.340   8.574 -0.9652 -0.5081 -1.1779
  600MOL0     H79189   9.914  11.335   8.527 -1.2336 -0.0329  3.6316
  600MOL0     H79190  10.115  10.928   8.462 -2.8491  1.7962 -1.1773
  600MOL0     H79191  10.121  10.970   8.630 -1.8747  0.1111 -0.3825
  600MOL0     H79192  10.352  10.950   8.572 -1.6084 -0.4360  3.2885
  600MOL0     H79193  10.322  11.047   8.422  1.2542  0.1156  0.0438
  600MOL0     H79194  10.299  11.167   8.698  2.3300  0.0705  1.0698
  600MOL0     H79195  10.324  11.247   8.540  1.4122 -1.2215 -1.8161
  600MOL0     H79196  10.525  11.262   8.688 -2.5270  1.3640 -0.5110
  600MOL0     H79197  10.522  11.093   8.721 -1.0340 -0.2167 -1.6089
  600MOL0     H79198  10.707  11.122   8.329  1.0319  1.1035 -0.4081
  600MOL0     H79199   9.914  10.901   8.552 -1.8138 -1.0125 -0.0360
  600MOL0     H79200   9.682  10.911   8.613  1.6080 -0.9137 -1.6710
  601MOL0     O79201  11.020   9.763   0.300  0.7509  0.6708 -0.4437
  601MOL0     C79202  11.054   9.644   0.289  0.6918  0.0810  0.1928
  601MOL0     O79203  10.975   9.539   0.299  0.3130  0.6737 -0.5098
  601MOL0     C79204  10.843   9.562   0.302  0.3459  0.4595 -0.4349
  601MOL0     C79205  10.785   9.582   0.429 -0.2291  0.0411  0.5968
  601MOL0     C79206  10.646   9.596   0.431  0.1989 -0.2494 -0.5072
  601MOL0     C79207  10.569   9.591   0.324  0.5404 -0.1394  0.1533
  601MOL0     O79208  10.431   9.578   0.352  0.1249  0.1577 -0.5083
  601MOL0     C79209  10.339   9.574   0.245 -0.0054 -0.4385  0.2184
  601MOL0     C79210  10.217   9.652   0.282 -0.0660 -0.9443 -0.3121
  601MOL0     C79211  10.133   9.664   0.149 -0.1135  0.1288 -0.4279
  601MOL0     C79212   9.985   9.641   0.178 -0.5675 -0.1074 -0.3681
  601MOL0     C79213   9.971   9.480   0.195  0.3368  0.2473 -0.3551
  601MOL0     C79214   9.854   9.456   0.287  0.4218  0.3273 -0.4493
  601MOL0     C79215   9.718   9.488   0.228 -0.1588 -0.1567 -0.5123
  601MOL0     C79216   9.606   9.467   0.331  0.4141  1.0326 -0.9603
  601MOL0     N79217   9.594   9.319   0.361  0.8418  0.3228  0.3522
  601MOL0     C79218   9.537   9.221   0.276  0.5339 -0.6258 -0.3006
  601MOL0     C79219   9.551   9.106   0.331  0.5410 -0.3177  0.4880
  601MOL0     C79220   9.489   8.970   0.287 -0.8781  0.2389 -1.0887
  601MOL0     C79221   9.378   8.987   0.192 -0.5175  0.4113  0.1289
  601MOL0     C79222   9.248   9.030   0.263 -0.1829  0.4436 -0.6610
  601MOL0     C79223   9.120   8.981   0.185 -0.2498  0.0114 -0.1731
  601MOL0     O79224   9.006   9.017   0.259 -0.0215  0.6911  0.0284
  601MOL0     C79225   8.890   8.993   0.189  0.3027 -0.6061  0.0303
  601MOL0     C79226   8.832   9.089   0.112 -0.4485  1.1578  0.0750
  601MOL0     C79227   8.707   9.066   0.045  0.3691 -1.1259 -0.2052
  601MOL0     C79228   8.630   8.957   0.077  0.1315 -0.2992 -0.6955
  601MOL0     C79229   8.486   8.943   0.031 -0.1292  0.7143 -0.2446
  601MOL0     O79230   8.418   9.046  -0.034  0.0961  0.5219 -0.6982
  601MOL0     C79231   8.283   9.044  -0.024  0.0167 -0.7523  0.2728
  601MOL0     C79232   8.205   9.068   0.090 -0.1047 -0.2254 -0.3377
  601MOL0     C79233   8.070   9.083   0.093 -0.2576 -1.1871  0.4894
  601MOL0     C79234   7.998   9.062  -0.022  0.5375  0.1875  0.1460
  601MOL0     O79235   7.866   9.059  -0.013  0.7145  0.4432 -0.2778
  601MOL0     C79236   7.809   8.927  -0.040  0.4184 -0.0132  0.0459
  601MOL0     C79237   7.795   8.860   0.098 -0.3007  0.3485 -0.2183
  601MOL0     C79238   7.698   8.746   0.097 -0.5397  0.0934  0.9517
  601MOL0     C79239   7.556   8.797   0.104 -0.5781  0.1301  0.0096
  601MOL0     C79240   7.528   8.874   0.230  0.0108 -1.1135  0.5299
  601MOL0     C79241   7.378   8.871   0.252 -0.4904 -0.4047  0.3129
  601MOL0     C79242   7.323   8.941   0.385  0.0788  0.1219  0.2418
  601MOL0     C79243   7.171   8.916   0.405 -0.4694 -0.1892 -0.1204
  601MOL0    Cl79244   7.072   8.962   0.262  0.2299 -0.0177  0.0640
  601MOL0     C79245   8.069   9.028  -0.138 -0.0172 -0.4952  0.1371
  601MOL0     C79246   8.210   9.019  -0.138 -0.4322  0.3966  0.0863
  601MOL0     O79247   8.436   8.823   0.030  0.0197  0.4392  0.1076
  601MOL0     C79248   8.696   8.862   0.156  0.2419 -0.1762 -0.3889
  601MOL0     C79249   8.825   8.876   0.207 -0.1422 -0.0969  0.1353
  601MOL0     N79250   9.619   9.129   0.452  0.0707 -0.4295  0.4862
  601MOL0     N79251   9.642   9.255   0.466 -0.1880  0.2998 -0.4057
  601MOL0     C79252  10.633   9.583   0.192  0.9152 -0.4547 -0.4126
  601MOL0     C79253  10.770   9.569   0.190 -0.0935  0.7995  0.0529
  601MOL0     C79254  11.203   9.615   0.277 -0.2407  0.6757 -0.2699
  601MOL0     C79255  11.252   9.499   0.219  0.1252  0.7513  0.5943
  601MOL0     C79256  11.390   9.468   0.212  0.9582 -0.9370  0.3109
  601MOL0     C79257  11.486   9.561   0.247 -0.4000 -0.4125 -0.4738
  601MOL0     O79258  11.622   9.546   0.235  0.0890  0.1172 -0.4955
  601MOL0     C79259  11.672   9.416   0.206  0.5082  0.5377  0.4576
  601MOL0     C79260  11.818   9.407   0.253  0.3982  0.6240  0.5247
  601MOL0     C79261  11.896   9.532   0.215 -0.7067  0.1760  0.2985
  601MOL0     C79262  12.011   9.543   0.310  0.4378  0.5034 -0.7011
  601MOL0     C79263  12.112   9.643   0.274  0.6139  0.0409 -0.6639
  601MOL0     C79264  12.196   9.725   0.245  0.8371 -0.3383 -0.0693
  601MOL0     C79265  11.439   9.682   0.290  0.3021  1.4544 -0.1640
  601MOL0     C79266  11.300   9.704   0.313  0.2068 -0.0398  0.5346
  601MOL0     H79267  10.850   9.582   0.516 -0.7053 -1.6710  0.9717
  601MOL0     H79268  10.603   9.593   0.531  0.7953  0.2900 -0.2253
  601MOL0     H79269  10.308   9.470   0.229 -1.0371  0.0781 -1.3463
  601MOL0     H79270  10.377   9.611   0.149  2.5796 -1.5808  0.7109
  601MOL0     H79271  10.252   9.751   0.315  0.5812 -0.9476 -0.9615
  601MOL0     H79272  10.160   9.598   0.358 -0.1671 -1.9062 -1.0427
  601MOL0     H79273  10.177   9.597   0.074 -1.0183 -2.3810  1.1838
  601MOL0     H79274  10.149   9.767   0.114  1.8095  1.0249  2.6368
  601MOL0     H79275   9.957   9.691   0.271  0.4979 -1.8774  0.9612
  601MOL0     H79276   9.921   9.685   0.101  0.8342  2.2386 -0.2843
  601MOL0     H79277  10.056   9.428   0.239 -0.7694 -1.6847 -0.3937
  601MOL0     H79278   9.955   9.438   0.095  1.7099  2.8953 -1.7988
  601MOL0     H79279   9.868   9.517   0.376 -1.6711 -0.7433  0.7135
  601MOL0     H79280   9.867   9.352   0.317  0.7494  0.7792  1.0613
  601MOL0     H79281   9.736   9.592   0.197 -2.1216  0.0075 -1.2514
  601MOL0     H79282   9.706   9.428   0.137 -0.2459 -0.9318  0.0038
  601MOL0     H79283   9.512   9.505   0.290  0.0753  0.7223 -0.4845
  601MOL0     H79284   9.617   9.529   0.420 -3.0244  0.6331 -0.1399
  601MOL0     H79285   9.499   9.236   0.175  1.8155  1.3490 -0.5303
  601MOL0     H79286   9.451   8.918   0.375 -2.4663 -0.3079 -2.0584
  601MOL0     H79287   9.568   8.911   0.240  2.4864  0.4130  3.5301
  601MOL0     H79288   9.355   8.889   0.148  0.0618  0.2405  0.1929
  601MOL0     H79289   9.399   9.050   0.105 -0.9199 -0.6841 -0.7892
  601MOL0     H79290   9.233   9.006   0.369  1.4936 -0.1584 -0.5356
  601MOL0     H79291   9.248   9.139   0.255 -0.8993  0.5191  0.2290
  601MOL0     H79292   9.129   8.872   0.177 -1.2233 -0.2505  1.6823
  601MOL0     H79293   9.119   9.028   0.086  2.8422 -2.0077 -1.3293
  601MOL0     H79294   8.892   9.178   0.094  2.1208 -0.1752  1.6311
  601MOL0     H79295   8.668   9.145  -0.018  2.1462  2.0264  2.3085
  601MOL0     H79296   8.258   9.094   0.181 -3.0650 -0.6923  1.6647
  601MOL0     H79297   8.019   9.097   0.187  3.9871  2.6257  2.6095
  601MOL0     H79298   7.867   8.869  -0.112  2.4325 -1.3008  2.5163
  601MOL0     H79299   7.709   8.932  -0.084  0.8674 -1.4927 -1.2407
  601MOL0     H79300   7.760   8.928   0.176 -0.7064 -0.5958  0.4301
  601MOL0     H79301   7.896   8.833   0.132 -0.0563  0.9509 -0.4399
  601MOL0     H79302   7.723   8.688   0.187  1.4012  1.7591  1.5485
  601MOL0     H79303   7.718   8.686   0.008  0.1992  0.9586  0.5161
  601MOL0     H79304   7.523   8.854   0.016 -1.6922 -2.0893 -1.1070
  601MOL0     H79305   7.499   8.703   0.114  1.5659 -0.9829  3.4472
  601MOL0     H79306   7.561   8.978   0.222  0.7656 -1.4538 -1.4035
  601MOL0     H79307   7.583   8.830   0.313  0.2051  1.4409  1.8693
  601MOL0     H79308   7.344   8.768   0.252 -1.9139  0.0441 -0.1717
  601MOL0     H79309   7.340   8.918   0.161  1.4629 -2.8874 -1.9383
  601MOL0     H79310   7.376   8.904   0.473  1.1486 -1.2590 -0.9343
  601MOL0     H79311   7.345   9.047   0.375 -1.1131  0.2211 -1.9705
  601MOL0     H79312   7.143   8.978   0.491  0.9581 -0.5254  0.6237
  601MOL0     H79313   7.156   8.813   0.438  2.7429 -0.8550 -0.4888
  601MOL0     H79314   8.011   9.019  -0.229 -0.6070  1.4136  0.2820
  601MOL0     H79315   8.259   8.993  -0.231  0.5985 -1.3692  1.0535
  601MOL0     H79316   8.652   8.764   0.170  0.0564 -0.1525 -0.7810
  601MOL0     H79317   8.878   8.798   0.261  1.3585  0.5242 -0.3909
  601MOL0     H79318  10.573   9.575   0.102  0.3286 -1.4812  0.0495
  601MOL0     H79319  10.820   9.574   0.094 -2.5493 -3.7168 -1.7469
  601MOL0     H79320  11.181   9.422   0.188  1.2620  0.1476 -0.5980
  601MOL0     H79321  11.431   9.376   0.172  3.8933  1.5145 -2.9354
  601MOL0     H79322  11.660   9.390   0.100 -0.9705  0.3518  0.6516
  601MOL0     H79323  11.619   9.333   0.253 -2.1727  0.8625 -1.6906
  601MOL0     H79324  11.816   9.374   0.357  1.6793 -0.0199  0.3724
  601MOL0     H79325  11.868   9.322   0.205 -0.3588  1.3497 -1.7063
  601MOL0     H79326  11.844   9.628   0.228  0.2528  0.5623  1.4935
  601MOL0     H79327  11.931   9.508   0.115 -0.0822 -3.0491  1.1898
  601MOL0     H79328  11.979   9.566   0.412  0.5754 -1.3411 -0.1993
  601MOL0     H79329  12.056   9.445   0.329 -1.3810 -0.1679  0.4066
  601MOL0     H79330  12.259   9.810   0.223 -0.3561  0.2603 -1.3610
  601MOL0     H79331  11.511   9.754   0.329  3.4671 -0.8640 -1.2824
  601MOL0     H79332  11.258   9.795   0.355  0.3119  0.5521 -0.6027
  602MOL0     O79333   3.352   2.219  10.199  0.1195 -1.0047 -0.3869
  602MOL0     C79334   3.364   2.131  10.283  0.5544 -0.7336 -0.3101
  602MOL0     O79335   3.477   2.058  10.299 -0.1154 -0.3206  0.1894
  602MOL0     C79336   3.595   2.111  10.256  0.0520 -0.3634 -0.5295
  602MOL0     C79337   3.658   2.212  10.335  0.1166 -0.2341  0.6257
  602MOL0     C79338   3.787   2.251  10.314 -0.3198 -0.0066 -0.2892
  602MOL0     C79339   3.862   2.189  10.213  0.3961 -0.2857 -0.0172
  602MOL0     O79340   3.996   2.218  10.185  0.3640  0.4708  1.0085
  602MOL0     C79341   4.052   2.344  10.227 -0.2672 -0.2266  0.6980
  602MOL0     C79342   4.192   2.352  10.169  0.4093  0.2669 -0.5373
  602MOL0     C79343   4.297   2.313  10.278  0.3066 -0.0956  0.1136
  602MOL0     C79344   4.436   2.273  10.225 -1.0482  0.7179 -0.5402
  602MOL0     C79345   4.522   2.237  10.341 -0.2333 -0.1729 -0.4257
  602MOL0     C79346   4.591   2.361  10.397 -0.8615  0.5295 -0.1737
  602MOL0     C79347   4.704   2.330  10.491  0.3447 -0.5057  0.2241
  602MOL0     C79348   4.650   2.273  10.622 -0.1961  0.7871  0.3462
  602MOL0     N79349   4.646   2.384  10.714 -0.0832  0.2049 -0.1885
  602MOL0     C79350   4.529   2.438  10.766  0.5679  0.0734  0.7990
  602MOL0     C79351   4.568   2.535  10.850 -0.1193 -0.0587 -0.1384
  602MOL0     C79352   4.484   2.627  10.932  0.2928 -0.3834  0.2219
  602MOL0     C79353   4.451   2.770  10.874 -0.0217 -0.3803 -0.2102
  602MOL0     C79354   4.389   2.857  10.979  0.3919  0.6036 -0.4776
  602MOL0     C79355   4.257   2.817  11.033 -0.7835  0.5844 -0.3972
  602MOL0     O79356   4.168   2.815  10.929 -0.0826  0.3482  0.2837
  602MOL0     C79357   4.029   2.817  10.949 -0.6661 -0.2560 -0.6891
  602MOL0     C79358   3.946   2.843  10.837 -0.5791  0.4702 -0.2786
  602MOL0     C79359   3.805   2.844  10.848 -0.6562  0.4669 -0.3540
  602MOL0     C79360   3.739   2.838  10.966  0.0710  0.7488  0.7526
  602MOL0     C79361   3.592   2.830  10.977 -0.5477 -0.5875 -0.9554
  602MOL0     O79362   3.541   2.805  11.102  0.1047  0.1229  1.0627
  602MOL0     C79363   3.406   2.799  11.108 -0.2822  0.8023  0.2178
  602MOL0     C79364   3.327   2.912  11.084  0.3741 -0.9725 -0.0049
  602MOL0     C79365   3.182   2.906  11.092  0.1707 -0.0952  0.8537
  602MOL0     C79366   3.115   2.786  11.109 -0.1665  0.7263 -0.5722
  602MOL0     O79367   2.978   2.781  11.113  0.0405 -0.1782 -0.5731
  602MOL0     C79368   2.913   2.660  11.134 -0.6442  0.1896 -0.2922
  602MOL0     C79369   2.762   2.687  11.136  0.4706 -0.1589  0.4019
  602MOL0     C79370   2.668   2.557  11.155 -0.5220  0.0783  0.2766
  602MOL0     C79371   2.522   2.577  11.123  0.8912 -0.4212 -0.5230
  602MOL0     C79372   2.434   2.658  11.223  0.7149 -0.6213 -0.5657
  602MOL0     C79373   2.305   2.721  11.162 -0.6192 -0.0840 -0.1402
  602MOL0     C79374   2.223   2.801  11.268  0.0662  0.3109 -0.4882
  602MOL0     C79375   2.156   2.721  11.376 -0.1928  0.1131  0.2552
  602MOL0    Cl79376   2.013   2.611  11.320 -0.2233  0.2920 -0.2474
  602MOL0     C79377   3.196   2.670  11.137  0.0677  0.3961  0.4247
  602MOL0     C79378   3.338   2.674  11.129  0.0204  0.2004 -0.0199
  602MOL0     O79379   3.530   2.845  10.876  0.8936  0.2645  0.8464
  602MOL0     C79380   3.823   2.810  11.079 -0.1801  0.0807  0.6342
  602MOL0     C79381   3.964   2.798  11.071  0.9309  0.1861 -0.3087
  602MOL0     N79382   4.707   2.529  10.859 -0.7419 -0.6729 -0.3689
  602MOL0     N79383   4.754   2.440  10.780 -0.0716  0.6136 -0.0790
  602MOL0     C79384   3.800   2.085  10.138 -0.3063  0.7270  0.0112
  602MOL0     C79385   3.672   2.035  10.167 -0.7567 -0.2019  0.7163
  602MOL0     C79386   3.251   2.097  10.378 -0.2478 -0.6292 -0.1047
  602MOL0     C79387   3.130   2.161  10.361  0.1477  0.2878  0.2845
  602MOL0     C79388   3.028   2.122  10.447  0.4081  0.1415  0.0089
  602MOL0     C79389   3.045   2.030  10.547  0.0173 -0.0816 -0.3568
  602MOL0     O79390   2.949   2.020  10.642  0.1112  0.2643  0.0961
  602MOL0     C79391   2.922   1.891  10.687 -0.3317  0.2511  0.0621
  602MOL0     C79392   2.787   1.905  10.767  0.0110 -0.1764 -0.3723
  602MOL0     C79393   2.673   1.945  10.683  0.0561 -0.5191 -0.4643
  602MOL0     C79394   2.533   1.931  10.748 -0.0204 -0.2458  0.1947
  602MOL0     C79395   2.480   1.798  10.746  0.3881 -0.5104 -0.5613
  602MOL0     C79396   2.451   1.682  10.727  0.3486 -0.7172  0.5708
  602MOL0     C79397   3.168   1.969  10.568  0.3777 -0.3226  0.0664
  602MOL0     C79398   3.272   2.000  10.478  0.2381 -0.3422 -0.8173
  602MOL0     H79399   3.587   2.255  10.405 -1.9929  1.7027 -2.4588
  602MOL0     H79400   3.835   2.314  10.390 -0.4724 -1.1275  0.7693
  602MOL0     H79401   4.050   2.352  10.336 -1.5711  0.1071  0.6660
  602MOL0     H79402   4.004   2.433  10.185 -2.7864 -1.1107  1.5226
  602MOL0     H79403   4.215   2.447  10.121 -0.6527  0.2387 -1.1254
  602MOL0     H79404   4.202   2.273  10.093  0.2266  0.7149 -1.0337
  602MOL0     H79405   4.253   2.230  10.334  4.0341 -0.5791  2.6905
  602MOL0     H79406   4.310   2.393  10.352  2.0308  1.8463 -2.1540
  602MOL0     H79407   4.431   2.186  10.158  0.2625  0.1289  0.0938
  602MOL0     H79408   4.482   2.356  10.173 -3.5959  1.7663 -1.2815
  602MOL0     H79409   4.600   2.169  10.305  0.9244  0.7150  0.3528
  602MOL0     H79410   4.467   2.188  10.422 -2.9671  1.9560 -0.8732
  602MOL0     H79411   4.513   2.413  10.454 -0.7327 -1.9824  2.5088
  602MOL0     H79412   4.629   2.426  10.318 -0.7011  1.1205  0.3807
  602MOL0     H79413   4.780   2.265  10.445  1.2185 -0.9613  2.1920
  602MOL0     H79414   4.764   2.419  10.511 -1.7616  0.5673  2.1934
  602MOL0     H79415   4.717   2.195  10.660  1.5602  0.8064 -2.4098
  602MOL0     H79416   4.556   2.217  10.614  0.7138 -1.2244  2.5142
  602MOL0     H79417   4.424   2.419  10.751  0.6955  0.4299 -0.6337
  602MOL0     H79418   4.534   2.651  11.027  0.8940  1.7105 -0.5701
  602MOL0     H79419   4.392   2.574  10.959  0.8291 -1.7110 -0.4597
  602MOL0     H79420   4.391   2.754  10.784 -0.6644 -1.0772  0.3272
  602MOL0     H79421   4.540   2.822  10.838  0.7259 -0.1628  1.8391
  602MOL0     H79422   4.465   2.870  11.057 -1.1975  0.2259  1.2060
  602MOL0     H79423   4.374   2.955  10.934  0.1664  0.8269  0.0688
  602MOL0     H79424   4.227   2.895  11.103  0.6171  1.8307 -1.1434
  602MOL0     H79425   4.266   2.719  11.081 -0.1417  0.8262 -0.0044
  602MOL0     H79426   3.992   2.859  10.740 -0.7264 -1.4781 -0.7159
  602MOL0     H79427   3.748   2.854  10.756 -0.5707  1.7578 -0.2782
  602MOL0     H79428   3.366   3.010  11.059  0.2007 -0.7659  0.5244
  602MOL0     H79429   3.128   2.995  11.061 -1.3293 -0.6599  1.7278
  602MOL0     H79430   2.940   2.620  11.232 -2.1725 -0.6519 -0.1797
  602MOL0     H79431   2.929   2.593  11.048  0.4301  2.5803 -2.0620
  602MOL0     H79432   2.736   2.738  11.042 -3.5970 -1.3229  0.7433
  602MOL0     H79433   2.738   2.764  11.210  1.4845 -0.0360  0.6257
  602MOL0     H79434   2.683   2.521  11.258 -0.9447 -0.7247  0.0666
  602MOL0     H79435   2.698   2.480  11.083 -3.6221  1.9895 -3.3857
  602MOL0     H79436   2.506   2.627  11.027  2.0409 -0.0091 -0.5054
  602MOL0     H79437   2.479   2.477  11.110  2.5473 -1.3544  0.8362
  602MOL0     H79438   2.492   2.739  11.268 -3.1270  1.4383  1.1737
  602MOL0     H79439   2.414   2.583  11.300  0.4374 -1.0447 -1.0403
  602MOL0     H79440   2.237   2.650  11.114 -2.0883  0.2436  1.3624
  602MOL0     H79441   2.342   2.796  11.090 -1.8570  1.5584  0.8530
  602MOL0     H79442   2.285   2.872  11.323  0.9819 -1.3240  0.6960
  602MOL0     H79443   2.146   2.851  11.209 -1.1478 -0.1341  0.6593
  602MOL0     H79444   2.107   2.796  11.440  1.6942  1.4564  0.2296
  602MOL0     H79445   2.231   2.669  11.436 -0.1976  0.4419  0.5520
  602MOL0     H79446   3.162   2.567  11.130  0.9241  0.2075 -3.2598
  602MOL0     H79447   3.379   2.576  11.153 -4.1188 -1.3854  1.3344
  602MOL0     H79448   3.784   2.802  11.179 -2.5739 -1.1869 -0.3245
  602MOL0     H79449   4.015   2.774  11.164 -1.2030 -0.0429  0.8631
  602MOL0     H79450   3.850   2.030  10.059 -2.8165 -0.7169 -0.6817
  602MOL0     H79451   3.634   1.945  10.120  1.7602 -0.9697  0.0119
  602MOL0     H79452   3.123   2.247  10.295 -0.9535  0.4250  0.5487
  602MOL0     H79453   2.932   2.173  10.442  1.2611  1.8401  0.2829
  602MOL0     H79454   2.998   1.863  10.761 -0.3679 -3.2916 -1.0396
  602MOL0     H79455   2.916   1.825  10.600 -0.9614  0.9801 -0.4616
  602MOL0     H79456   2.761   1.809  10.813  0.2737 -0.3823 -0.6522
  602MOL0     H79457   2.803   1.973  10.851 -0.0497 -0.0700 -0.4466
  602MOL0     H79458   2.670   1.893  10.587  0.0484 -1.2383 -0.0840
  602MOL0     H79459   2.689   2.052  10.671 -2.3004  0.6141  4.1809
  602MOL0     H79460   2.527   1.966  10.851  1.1487 -1.0725  0.5563
  602MOL0     H79461   2.466   1.985  10.681 -0.4213 -1.0090 -0.0277
  602MOL0     H79462   2.419   1.587  10.691 -0.2720 -0.6617  0.9682
  602MOL0     H79463   3.188   1.890  10.640 -0.5481  1.0191  1.8922
  602MOL0     H79464   3.362   1.942  10.497  0.2028  0.5427  2.9458
  603MOL0     O79465   8.741   6.751   1.867  0.4308 -0.1616  0.6513
  603MOL0     C79466   8.785   6.727   1.982 -0.0223 -0.0484  0.3037
  603MOL0     O79467   8.715   6.690   2.097  0.5209  0.2253 -0.1844
  603MOL0     C79468   8.570   6.685   2.096 -0.0873  0.9062  0.6214
  603MOL0     C79469   8.494   6.728   2.206  0.6619 -0.0549  0.3028
  603MOL0     C79470   8.354   6.710   2.217  0.1573 -0.2825 -0.5525
  603MOL0     C79471   8.282   6.660   2.113 -0.1976  0.5026 -1.0754
  603MOL0     O79472   8.148   6.644   2.132  0.2717 -0.3700 -0.0261
  603MOL0     C79473   8.082   6.577   2.025 -0.1927 -0.4406  0.5816
  603MOL0     C79474   7.933   6.570   2.052  1.3584  0.1173 -0.1644
  603MOL0     C79475   7.872   6.704   2.083  0.0405 -0.5376 -0.3431
  603MOL0     C79476   7.720   6.688   2.082 -0.0574  0.3963 -0.5162
  603MOL0     C79477   7.647   6.806   2.139  0.5429  0.3730 -0.2884
  603MOL0     C79478   7.499   6.789   2.147 -0.2127 -0.0128  0.1601
  603MOL0     C79479   7.439   6.923   2.177  0.1545  0.1255  0.0477
  603MOL0     C79480   7.307   6.894   2.255  0.1726 -0.3913 -0.0109
  603MOL0     N79481   7.197   6.838   2.166 -1.0756  0.3823 -0.1736
  603MOL0     C79482   7.169   6.705   2.138  0.2381  0.5485 -0.3438
  603MOL0     C79483   7.047   6.704   2.079 -0.0204  0.0241 -0.5093
  603MOL0     C79484   6.992   6.577   2.023  0.1196  0.1327 -0.5395
  603MOL0     C79485   6.862   6.528   2.097 -0.7806 -0.2837 -0.3833
  603MOL0     C79486   6.734   6.590   2.050  0.2878 -0.9572  0.6099
  603MOL0     C79487   6.623   6.562   2.143  0.4306  0.3857 -1.1956
  603MOL0     O79488   6.520   6.664   2.147  0.9571 -0.0434 -0.2677
  603MOL0     C79489   6.403   6.636   2.206 -0.3733  0.2888 -0.2456
  603MOL0     C79490   6.369   6.512   2.270  0.2640  0.1903  0.0481
  603MOL0     C79491   6.249   6.511   2.350 -0.2735 -0.4623  0.5345
  603MOL0     C79492   6.157   6.617   2.356 -0.5640  0.3856 -0.2144
  603MOL0     C79493   6.033   6.604   2.442 -0.4683 -0.8245  0.0284
  603MOL0     O79494   5.952   6.713   2.441  0.0443 -0.3940 -0.3241
  603MOL0     C79495   5.820   6.714   2.485  0.5027  0.3223 -0.1025
  603MOL0     C79496   5.734   6.604   2.468  0.2411  0.7591  0.2495
  603MOL0     C79497   5.597   6.615   2.500 -0.1378 -0.3659 -0.1133
  603MOL0     C79498   5.539   6.722   2.568 -0.6825  0.2912  0.7043
  603MOL0     O79499   5.411   6.732   2.607 -0.8069 -0.3039 -0.8490
  603MOL0     C79500   5.331   6.616   2.609  0.4049 -0.0332 -0.3854
  603MOL0     C79501   5.191   6.663   2.652  0.2359 -0.5492  0.4554
  603MOL0     C79502   5.148   6.606   2.794 -0.4919  0.2685  0.6106
  603MOL0     C79503   4.999   6.602   2.795 -0.2589 -0.0979 -0.1915
  603MOL0     C79504   4.942   6.529   2.919 -0.5083 -0.1171 -0.6198
  603MOL0     C79505   4.980   6.601   3.043  0.0925  0.1787  0.0397
  603MOL0     C79506   4.900   6.570   3.166 -0.0325  0.1522 -0.6718
  603MOL0     C79507   4.929   6.659   3.294 -0.7496  0.5762 -0.4251
  603MOL0    Cl79508   5.100   6.647   3.351  0.1427  0.1324 -0.1882
  603MOL0     C79509   5.632   6.835   2.586  0.3014  0.0792 -0.5481
  603MOL0     C79510   5.768   6.834   2.546  0.0022 -0.1053 -0.1602
  603MOL0     O79511   6.009   6.504   2.513 -0.2372 -0.6618  0.5863
  603MOL0     C79512   6.196   6.740   2.286 -0.4078  0.2765 -0.4077
  603MOL0     C79513   6.321   6.748   2.214  0.0549 -0.0597  0.1228
  603MOL0     N79514   6.998   6.833   2.081 -0.8167  0.0524 -0.1162
  603MOL0     N79515   7.089   6.911   2.124  0.2788  0.3512  0.3209
  603MOL0     C79516   8.352   6.634   1.994  0.2399 -0.0966  0.5679
  603MOL0     C79517   8.493   6.645   1.983 -0.1813 -0.1900 -0.1546
  603MOL0     C79518   8.926   6.731   2.012 -0.5111 -0.1346 -0.3828
  603MOL0     C79519   9.031   6.727   1.911  0.3166  0.3232  0.1780
  603MOL0     C79520   9.167   6.728   1.939  0.8115  0.0613  0.7320
  603MOL0     C79521   9.209   6.714   2.068  0.1875 -0.1128  0.2734
  603MOL0     O79522   9.340   6.721   2.112  0.4879  0.1560 -0.3173
  603MOL0     C79523   9.434   6.745   2.006 -0.1948 -0.4373  0.0579
  603MOL0     C79524   9.572   6.753   2.050 -0.8709 -0.8184  0.5607
  603MOL0     C79525   9.665   6.757   1.923  0.1698 -0.0500  0.1645
  603MOL0     C79526   9.814   6.735   1.954 -0.2025 -0.0050 -0.1437
  603MOL0     C79527   9.891   6.701   1.837 -0.4270 -0.4806  0.1685
  603MOL0     C79528   9.966   6.669   1.743 -0.1976  0.4959 -0.4635
  603MOL0     C79529   9.117   6.705   2.168 -0.5954  1.4672 -0.4053
  603MOL0     C79530   8.975   6.707   2.141  0.6177 -0.2185  0.2655
  603MOL0     H79531   8.549   6.767   2.290  0.0397  0.6163  0.4109
  603MOL0     H79532   8.300   6.738   2.306  0.0582  1.2978 -1.0654
  603MOL0     H79533   8.117   6.474   2.014 -0.8102 -0.5464 -0.5660
  603MOL0     H79534   8.092   6.631   1.930 -3.1109 -0.8204 -0.0295
  603MOL0     H79535   7.921   6.499   2.134 -2.8127  1.7025  0.8360
  603MOL0     H79536   7.877   6.539   1.963 -2.0555 -1.1038  2.2231
  603MOL0     H79537   7.887   6.783   2.009 -1.7737  1.0462  0.8749
  603MOL0     H79538   7.911   6.737   2.180 -0.3156  0.2147 -0.4492
  603MOL0     H79539   7.683   6.669   1.981 -0.1659  1.0908 -0.6074
  603MOL0     H79540   7.689   6.614   2.156 -0.4543  1.0854  0.0144
  603MOL0     H79541   7.670   6.901   2.090 -1.3802 -0.0215 -2.1458
  603MOL0     H79542   7.686   6.811   2.241 -0.7487 -0.2750  0.2561
  603MOL0     H79543   7.475   6.723   2.231 -3.9640 -0.6199 -1.1809
  603MOL0     H79544   7.460   6.755   2.051 -0.9152  2.3888 -0.4609
  603MOL0     H79545   7.505   6.984   2.239 -0.6944  1.0020  0.1055
  603MOL0     H79546   7.426   6.976   2.082  0.7546 -0.9128 -0.6472
  603MOL0     H79547   7.268   6.980   2.309 -3.0331 -1.9004  0.3007
  603MOL0     H79548   7.330   6.818   2.330  1.8005 -3.0445 -2.9031
  603MOL0     H79549   7.236   6.623   2.159  0.6971  1.2525  1.0893
  603MOL0     H79550   7.065   6.496   2.014 -0.7129 -0.5106 -1.7661
  603MOL0     H79551   6.962   6.597   1.919  1.1107  0.6311 -0.7391
  603MOL0     H79552   6.882   6.538   2.205  0.1311  0.1490 -0.5809
  603MOL0     H79553   6.860   6.420   2.083  2.5210 -0.5056  0.1028
  603MOL0     H79554   6.753   6.696   2.031  0.6773 -1.2076 -0.4731
  603MOL0     H79555   6.708   6.538   1.957  1.9688 -1.6331  0.4823
  603MOL0     H79556   6.664   6.567   2.244  0.3197 -0.8315 -1.0765
  603MOL0     H79557   6.580   6.464   2.124  0.5971  0.2361 -0.8003
  603MOL0     H79558   6.429   6.421   2.260 -0.8562 -0.7648  1.5335
  603MOL0     H79559   6.230   6.418   2.403 -0.4752 -0.0456  1.2038
  603MOL0     H79560   5.762   6.519   2.408  0.5931  1.1194 -0.1014
  603MOL0     H79561   5.528   6.532   2.487 -1.4877  0.8489 -1.0513
  603MOL0     H79562   5.360   6.534   2.674 -1.6272 -1.4527 -1.1680
  603MOL0     H79563   5.312   6.579   2.508  0.1146  3.3160 -1.7121
  603MOL0     H79564   5.120   6.627   2.577 -0.9188  2.4197 -0.0474
  603MOL0     H79565   5.184   6.772   2.649  1.0782 -0.3007 -5.6577
  603MOL0     H79566   5.191   6.669   2.872  0.5083 -1.5850  1.6508
  603MOL0     H79567   5.193   6.507   2.813 -1.6773 -0.4261 -0.0729
  603MOL0     H79568   4.948   6.698   2.783 -1.1530 -0.7485 -1.9675
  603MOL0     H79569   4.973   6.544   2.707  3.6029 -2.7226  0.1766
  603MOL0     H79570   4.970   6.424   2.929  1.5419  0.2123 -2.1133
  603MOL0     H79571   4.834   6.526   2.900 -0.9452  0.0909  1.6029
  603MOL0     H79572   4.972   6.709   3.028 -0.0337  0.1750  0.0750
  603MOL0     H79573   5.086   6.574   3.054 -0.1902 -1.2774 -0.5911
  603MOL0     H79574   4.793   6.576   3.144 -0.0916 -0.0676 -0.4480
  603MOL0     H79575   4.923   6.468   3.198  3.4243  1.0771  0.1228
  603MOL0     H79576   4.865   6.633   3.379  0.8214 -0.9514  0.3680
  603MOL0     H79577   4.916   6.764   3.268  0.0830  0.9126  0.4732
  603MOL0     H79578   5.591   6.921   2.638 -0.2776 -1.6997  2.0826
  603MOL0     H79579   5.841   6.913   2.557  0.6231 -0.7065  0.0689
  603MOL0     H79580   6.135   6.830   2.289 -2.2239 -0.9301 -0.3233
  603MOL0     H79581   6.355   6.841   2.168  0.3316 -0.3796 -0.3225
  603MOL0     H79582   8.303   6.593   1.906  1.3474 -0.1893 -0.0348
  603MOL0     H79583   8.547   6.621   1.892 -0.8061 -0.7905 -0.3718
  603MOL0     H79584   8.989   6.713   1.812 -2.0020 -1.8230  1.3700
  603MOL0     H79585   9.235   6.739   1.855  1.1625 -1.4308  0.8045
  603MOL0     H79586   9.418   6.832   1.941 -1.6455 -0.8132 -0.1361
  603MOL0     H79587   9.430   6.652   1.947 -0.6011 -1.1761  1.2193
  603MOL0     H79588   9.579   6.843   2.111 -1.4278 -0.2403 -0.2168
  603MOL0     H79589   9.594   6.667   2.115  0.5810 -2.3764 -1.8200
  603MOL0     H79590   9.653   6.857   1.881 -1.3984  0.5449  1.8898
  603MOL0     H79591   9.637   6.671   1.861 -0.9216 -0.9299  1.8150
  603MOL0     H79592   9.861   6.821   2.002  0.1024 -1.7817  2.9623
  603MOL0     H79593   9.831   6.658   2.029  4.8555  0.6111 -0.3278
  603MOL0     H79594  10.041   6.644   1.672  1.1448 -0.1388  1.0994
  603MOL0     H79595   9.145   6.692   2.273  1.1292  0.1447 -0.9831
  603MOL0     H79596   8.909   6.703   2.227 -0.2269  0.7987 -0.3140
  604MOL0     O79597   4.195   1.263   0.162  0.0439 -0.2969  0.0044
  604MOL0     C79598   4.164   1.375   0.126 -0.4615 -0.6910 -0.5754
  604MOL0     O79599   4.050   1.436   0.135  0.1793  0.0695  0.4090
  604MOL0     C79600   3.944   1.387   0.213 -0.8580  0.1596  1.1280
  604MOL0     C79601   3.809   1.414   0.185  0.1987  0.3895 -0.3645
  604MOL0     C79602   3.702   1.372   0.253 -0.0645  0.1215 -0.3014
  604MOL0     C79603   3.725   1.282   0.358 -0.2408  0.7855  0.0607
  604MOL0     O79604   3.614   1.228   0.416 -0.1116 -0.8476 -0.2318
  604MOL0     C79605   3.601   1.104   0.479  0.1508 -0.2799  1.1285
  604MOL0     C79606   3.592   0.992   0.372  0.6436  0.2531 -0.2247
  604MOL0     C79607   3.721   0.944   0.298  0.2891 -0.1759 -0.8375
  604MOL0     C79608   3.800   0.834   0.370 -0.1570  0.0041  0.2143
  604MOL0     C79609   3.899   0.770   0.268 -0.0014  0.0080  0.2777
  604MOL0     C79610   4.008   0.858   0.227 -0.8003  0.1278 -0.1297
  604MOL0     C79611   4.129   0.780   0.180 -0.7120  0.6502 -0.8957
  604MOL0     C79612   4.223   0.868   0.100  0.3371 -0.5023  0.2181
  604MOL0     N79613   4.361   0.831   0.119  0.2306  0.0456 -0.0643
  604MOL0     C79614   4.414   0.706   0.129 -0.7497  0.0801 -1.2301
  604MOL0     C79615   4.545   0.728   0.164 -0.3017  0.0705 -0.0542
  604MOL0     C79616   4.637   0.613   0.173  0.0327 -0.0451 -0.3183
  604MOL0     C79617   4.665   0.563   0.316 -0.0409  0.4143 -0.4872
  604MOL0     C79618   4.732   0.425   0.299 -0.5706 -0.9857 -0.1175
  604MOL0     C79619   4.755   0.366   0.445  0.7622  0.0693  0.6150
  604MOL0     O79620   4.873   0.438   0.490  0.1807  0.6084 -0.1564
  604MOL0     C79621   4.962   0.358   0.554 -0.1755  0.3861  0.3204
  604MOL0     C79622   5.051   0.269   0.485 -0.3429 -0.3894  0.2573
  604MOL0     C79623   5.142   0.187   0.559 -0.2614  0.5739 -0.4797
  604MOL0     C79624   5.149   0.201   0.694 -0.4850 -0.0317 -0.3799
  604MOL0     C79625   5.225   0.107   0.773 -0.4311  0.3109 -0.3933
  604MOL0     O79626   5.209   0.114   0.914 -0.0865  0.2357 -0.1982
  604MOL0     C79627   5.233  -0.005   0.985  0.2167 -0.0017 -0.3359
  604MOL0     C79628   5.364  -0.033   1.028 -0.5547 -0.4286 -0.0141
  604MOL0     C79629   5.393  -0.154   1.091 -0.1272  0.0486 -0.4971
  604MOL0     C79630   5.295  -0.247   1.114 -0.0759  0.4108  0.0560
  604MOL0     O79631   5.312  -0.373   1.145  0.2945  0.3853 -0.4142
  604MOL0     C79632   5.428  -0.407   1.224  0.3031  0.8959  0.8128
  604MOL0     C79633   5.418  -0.547   1.273  0.1166  0.6306  0.6648
  604MOL0     C79634   5.271  -0.593   1.323  0.2240 -0.2389  0.3918
  604MOL0     C79635   5.282  -0.733   1.374 -0.3235 -0.3163  0.3014
  604MOL0     C79636   5.156  -0.777   1.451  0.0036  0.0168 -0.0935
  604MOL0     C79637   5.175  -0.913   1.512 -0.0291  0.2870 -0.1927
  604MOL0     C79638   5.058  -0.964   1.597  0.1832 -0.0592 -0.3891
  604MOL0     C79639   5.093  -1.091   1.666 -1.1846 -0.1911 -0.7043
  604MOL0    Cl79640   5.095  -1.230   1.550  0.2536  0.0004 -0.0021
  604MOL0     C79641   5.163  -0.213   1.083 -0.3197 -0.1602  0.8242
  604MOL0     C79642   5.133  -0.088   1.027 -0.6125  0.4973  0.5197
  604MOL0     O79643   5.269   0.006   0.717  0.5530 -0.1814 -0.6492
  604MOL0     C79644   5.080   0.304   0.764  0.1497 -0.7625 -0.3537
  604MOL0     C79645   4.982   0.382   0.693  0.4691 -0.0121  0.4634
  604MOL0     N79646   4.572   0.860   0.165 -0.3073  0.5281 -0.0683
  604MOL0     N79647   4.461   0.918   0.138 -0.1912  0.5842  0.0056
  604MOL0     C79648   3.860   1.252   0.393  0.1399  0.3306  0.5635
  604MOL0     C79649   3.964   1.308   0.327  0.2472  0.0216 -0.4828
  604MOL0     C79650   4.273   1.453   0.062  0.9596 -0.2041  0.1644
  604MOL0     C79651   4.251   1.574  -0.008 -0.3997  0.3310 -0.8923
  604MOL0     C79652   4.357   1.634  -0.066 -0.3854  0.8683 -0.2654
  604MOL0     C79653   4.484   1.584  -0.064 -0.1066 -0.2303  0.3498
  604MOL0     O79654   4.588   1.664  -0.117  0.3393  0.5551  0.5757
  604MOL0     C79655   4.721   1.606  -0.126  0.9716  0.6044  0.0716
  604MOL0     C79656   4.735   1.527  -0.253  0.1462  0.0641 -0.8681
  604MOL0     C79657   4.874   1.475  -0.263 -0.1084 -0.3321 -0.4122
  604MOL0     C79658   4.916   1.375  -0.151 -0.7756  0.2113  0.4042
  604MOL0     C79659   4.996   1.452  -0.057  0.5893 -0.3852 -0.2206
  604MOL0     C79660   5.055   1.523   0.016  0.9240 -0.0500 -0.6704
  604MOL0     C79661   4.508   1.468   0.013  0.3581  0.5185 -0.6812
  604MOL0     C79662   4.402   1.402   0.072 -0.2907 -0.3654  0.2847
  604MOL0     H79663   3.790   1.475   0.097 -1.0297 -0.7776 -0.9520
  604MOL0     H79664   3.601   1.398   0.222 -1.4902 -2.2440  1.9700
  604MOL0     H79665   3.516   1.119   0.545 -1.1518  1.3110 -0.7880
  604MOL0     H79666   3.693   1.091   0.537  1.2173 -2.1456 -0.8349
  604MOL0     H79667   3.518   1.016   0.295  0.2220  0.4475  0.2340
  604MOL0     H79668   3.554   0.909   0.432  0.6883  1.8768  2.2051
  604MOL0     H79669   3.787   1.028   0.277 -1.0025  0.5519 -2.2097
  604MOL0     H79670   3.684   0.905   0.202  1.9925 -0.5585 -1.3597
  604MOL0     H79671   3.861   0.883   0.446  3.5893  1.4807 -3.4167
  604MOL0     H79672   3.726   0.759   0.402 -0.6394  0.8225  1.0489
  604MOL0     H79673   3.846   0.742   0.177  2.9297  1.8991 -2.2121
  604MOL0     H79674   3.945   0.684   0.319 -3.8129 -2.5100 -0.1206
  604MOL0     H79675   4.028   0.938   0.300 -1.9748  1.9398 -1.7083
  604MOL0     H79676   3.959   0.909   0.144 -0.4428 -1.8318 -1.6078
  604MOL0     H79677   4.177   0.729   0.264 -4.5152 -2.2654 -0.2204
  604MOL0     H79678   4.096   0.694   0.120  0.1458 -0.5486  0.2897
  604MOL0     H79679   4.212   0.976   0.108  1.4461 -0.3723  0.0745
  604MOL0     H79680   4.205   0.852  -0.007  1.3625  1.2210 -0.2484
  604MOL0     H79681   4.350   0.619   0.114  3.2375 -4.0043  2.2769
  604MOL0     H79682   4.723   0.633   0.108  0.0905  1.6776  0.2259
  604MOL0     H79683   4.582   0.535   0.120  0.4887 -0.9883  0.5478
  604MOL0     H79684   4.576   0.554   0.379  0.7096 -1.9529  0.3509
  604MOL0     H79685   4.733   0.632   0.367 -0.4749  2.0335 -2.0341
  604MOL0     H79686   4.665   0.359   0.244 -0.5359 -1.0901 -0.0350
  604MOL0     H79687   4.828   0.442   0.249  0.4963  0.4730  2.2593
  604MOL0     H79688   4.780   0.259   0.450 -0.8206 -0.3616  0.1961
  604MOL0     H79689   4.674   0.394   0.513 -0.6856 -0.1692 -0.9321
  604MOL0     H79690   5.046   0.268   0.377  0.4961  3.0463  0.0576
  604MOL0     H79691   5.200   0.111   0.508  4.4365  2.9350  0.6702
  604MOL0     H79692   5.443   0.040   1.013  0.5101 -1.7530 -1.0470
  604MOL0     H79693   5.499  -0.173   1.105 -0.4343 -1.2843  0.1087
  604MOL0     H79694   5.439  -0.348   1.316 -0.4347  0.2305  1.3400
  604MOL0     H79695   5.515  -0.401   1.158 -0.8017 -2.2150 -1.1166
  604MOL0     H79696   5.476  -0.553   1.365 -2.1054  0.8637  2.1367
  604MOL0     H79697   5.460  -0.615   1.198 -3.8307 -2.2648  0.8130
  604MOL0     H79698   5.195  -0.577   1.247 -1.4689 -0.2021  2.0199
  604MOL0     H79699   5.231  -0.532   1.405  0.2994  2.1017 -1.2201
  604MOL0     H79700   5.295  -0.805   1.293 -1.2858  1.2966 -1.3525
  604MOL0     H79701   5.365  -0.736   1.445 -1.2116  1.2789  1.4549
  604MOL0     H79702   5.064  -0.775   1.391 -1.7043  3.3390  2.2896
  604MOL0     H79703   5.140  -0.700   1.527  2.5903  3.5598 -2.7329
  604MOL0     H79704   5.271  -0.907   1.565 -0.0751 -0.0800 -0.0680
  604MOL0     H79705   5.188  -0.981   1.427  0.5505 -0.5262  0.5220
  604MOL0     H79706   5.043  -0.885   1.670 -1.7337 -0.5615 -0.1691
  604MOL0     H79707   4.965  -0.987   1.543 -0.3459 -0.3645  0.6279
  604MOL0     H79708   5.019  -1.117   1.742  0.9184  2.8401  2.7078
  604MOL0     H79709   5.192  -1.077   1.709 -2.0370 -0.8720  1.6229
  604MOL0     H79710   5.089  -0.289   1.105 -0.3897  0.0393  1.2886
  604MOL0     H79711   5.035  -0.065   0.987  0.2637 -0.5422 -2.4814
  604MOL0     H79712   5.091   0.316   0.872  0.8523 -0.1332 -0.4861
  604MOL0     H79713   4.923   0.459   0.743 -0.4236 -0.7484  0.5702
  604MOL0     H79714   3.882   1.195   0.483  0.6258 -3.1067 -1.5562
  604MOL0     H79715   4.061   1.287   0.370 -0.2339  1.0288  1.1402
  604MOL0     H79716   4.157   1.626  -0.025 -2.5592 -2.7679  0.4716
  604MOL0     H79717   4.340   1.729  -0.115 -4.5274  0.6602  0.3786
  604MOL0     H79718   4.744   1.537  -0.044 -0.6623 -1.3030 -0.9993
  604MOL0     H79719   4.793   1.689  -0.124  1.5948  0.1391 -1.6904
  604MOL0     H79720   4.667   1.441  -0.257 -4.0309  3.0488 -0.6052
  604MOL0     H79721   4.702   1.587  -0.339 -3.3214 -0.7341 -0.2639
  604MOL0     H79722   4.936   1.562  -0.287  0.3129 -0.9693 -1.7297
  604MOL0     H79723   4.884   1.411  -0.351 -1.9946  0.2722 -1.1028
  604MOL0     H79724   4.828   1.348  -0.091 -0.8498  2.0283  1.1676
  604MOL0     H79725   4.973   1.295  -0.198  2.0309  2.4732 -0.3191
  604MOL0     H79726   5.100   1.603   0.071 -2.0853  0.5855  1.1232
  604MOL0     H79727   4.605   1.421   0.028  0.0783 -0.2542 -1.2890
  604MOL0     H79728   4.419   1.308   0.124  0.9662 -0.1556  0.2939
  605MOL0     O79729   1.029   5.249   4.569  0.2581 -0.0735 -0.0060
  605MOL0     C79730   1.028   5.370   4.599  0.5511  0.5173  0.2608
  605MOL0     O79731   0.910   5.450   4.597 -0.6049  0.1029 -0.5517
  605MOL0     C79732   0.803   5.398   4.524  0.3700  0.7322  0.4115
  605MOL0     C79733   0.806   5.387   4.381 -0.1575 -0.1091 -1.2801
  605MOL0     C79734   0.701   5.327   4.313  0.2550 -0.5183 -0.0159
  605MOL0     C79735   0.583   5.281   4.383  0.9093  0.1536 -0.2025
  605MOL0     O79736   0.485   5.229   4.293 -0.0252  0.0278 -0.4411
  605MOL0     C79737   0.349   5.241   4.346  0.3808  0.2983 -1.0401
  605MOL0     C79738   0.311   5.104   4.391 -0.2930  0.2704  0.6776
  605MOL0     C79739   0.162   5.094   4.404  0.2645  0.5617 -0.0797
  605MOL0     C79740   0.125   4.952   4.438 -0.4253  0.1264 -0.2003
  605MOL0     C79741  -0.019   4.913   4.464 -0.3129 -1.0383 -0.8743
  605MOL0     C79742  -0.038   4.764   4.501 -0.0474 -0.1057 -0.1277
  605MOL0     C79743  -0.194   4.737   4.518 -0.5111 -0.5689  0.2454
  605MOL0     C79744  -0.232   4.597   4.480  0.1856 -0.0397 -0.5443
  605MOL0     N79745  -0.374   4.562   4.442  0.1162 -0.0313  0.4850
  605MOL0     C79746  -0.423   4.444   4.398  0.4167 -0.0449  0.0206
  605MOL0     C79747  -0.551   4.459   4.407  0.2072  0.2660  0.7437
  605MOL0     C79748  -0.649   4.344   4.366  1.3157 -0.4643 -0.4768
  605MOL0     C79749  -0.726   4.296   4.483  0.6028  0.5526  0.0274
  605MOL0     C79750  -0.844   4.196   4.452 -0.3700 -0.6733  0.0594
  605MOL0     C79751  -0.970   4.281   4.424  0.0273 -0.5522 -0.9559
  605MOL0     O79752  -1.077   4.192   4.408  0.1248  0.3164  0.6801
  605MOL0     C79753  -1.210   4.246   4.403 -0.3999 -0.6148 -0.7505
  605MOL0     C79754  -1.321   4.160   4.371  0.0789  0.5093 -0.6115
  605MOL0     C79755  -1.456   4.205   4.367 -0.6097 -0.5878  0.3321
  605MOL0     C79756  -1.486   4.340   4.409  0.2354 -0.7158 -0.1711
  605MOL0     C79757  -1.632   4.388   4.417 -0.7000  0.0479  0.2204
  605MOL0     O79758  -1.727   4.306   4.357  0.6670 -0.3907 -0.1088
  605MOL0     C79759  -1.845   4.360   4.329 -0.1597  0.5294  1.1475
  605MOL0     C79760  -1.854   4.477   4.242  0.3754 -0.8094 -0.0595
  605MOL0     C79761  -1.978   4.518   4.181 -0.5887  0.8110 -0.5708
  605MOL0     C79762  -2.091   4.436   4.192  0.5253 -1.5650 -0.8781
  605MOL0     O79763  -2.204   4.476   4.126 -0.0004 -0.1082  0.6862
  605MOL0     C79764  -2.259   4.381   4.030 -0.8876 -0.2365  0.3683
  605MOL0     C79765  -2.406   4.415   3.991  0.3719  0.5188  0.4736
  605MOL0     C79766  -2.487   4.432   4.120  0.8853  0.0158  0.5246
  605MOL0     C79767  -2.636   4.441   4.083  0.1093 -0.4147 -0.2715
  605MOL0     C79768  -2.725   4.503   4.201  0.8816  0.4628  0.7137
  605MOL0     C79769  -2.770   4.411   4.326 -0.0732  0.0668  0.7367
  605MOL0     C79770  -2.814   4.266   4.285 -0.5830 -0.0717  0.2488
  605MOL0     C79771  -2.936   4.259   4.198  0.0232  0.1132  0.0164
  605MOL0    Cl79772  -2.980   4.098   4.144  0.4017 -0.8830  0.3322
  605MOL0     C79773  -2.081   4.322   4.275  0.4259  0.5656 -0.0128
  605MOL0     C79774  -1.960   4.289   4.347  0.3087 -0.0166  0.8590
  605MOL0     O79775  -1.652   4.501   4.457 -0.2115 -0.2111 -0.0450
  605MOL0     C79776  -1.377   4.422   4.443  0.3774 -0.4283  0.4305
  605MOL0     C79777  -1.242   4.377   4.442  0.8256 -0.8326 -0.1483
  605MOL0     N79778  -0.586   4.584   4.456 -1.0766 -0.0508  0.5543
  605MOL0     N79779  -0.475   4.637   4.488 -0.0008  0.3254 -0.1438
  605MOL0     C79780   0.573   5.300   4.518  0.4292 -0.3379  0.0318
  605MOL0     C79781   0.682   5.356   4.591 -0.3404  1.0487 -0.4684
  605MOL0     C79782   1.159   5.428   4.649  0.1819  0.1110  0.1103
  605MOL0     C79783   1.178   5.563   4.679 -0.6593 -0.0567  0.2258
  605MOL0     C79784   1.303   5.610   4.720  0.3816  0.1534 -0.4442
  605MOL0     C79785   1.415   5.527   4.720 -0.1557 -0.4609 -0.4083
  605MOL0     O79786   1.541   5.578   4.760 -0.0846  0.4194  0.6544
  605MOL0     C79787   1.635   5.481   4.792  0.2943  0.2509 -0.6307
  605MOL0     C79788   1.758   5.533   4.865  0.4146 -0.3227 -0.1409
  605MOL0     C79789   1.854   5.409   4.881 -0.1360  0.9336 -0.3879
  605MOL0     C79790   1.992   5.448   4.930  0.5097 -0.3488  0.3269
  605MOL0     C79791   2.064   5.330   4.972  0.6320  0.4349  0.7803
  605MOL0     C79792   2.136   5.241   5.016 -0.3518  1.3141 -0.3452
  605MOL0     C79793   1.396   5.392   4.684  0.0468  0.3602  0.0250
  605MOL0     C79794   1.274   5.345   4.642 -0.1455  0.7510  0.3199
  605MOL0     H79795   0.890   5.425   4.324  1.9812 -2.3767  0.1400
  605MOL0     H79796   0.704   5.323   4.205  1.2530 -0.1010 -0.0116
  605MOL0     H79797   0.283   5.273   4.265 -0.3657  1.3786 -0.0432
  605MOL0     H79798   0.341   5.319   4.423 -1.5397 -1.3307  0.5147
  605MOL0     H79799   0.363   5.071   4.481 -1.7859 -1.3373  1.0077
  605MOL0     H79800   0.350   5.037   4.313 -0.0060  1.2711 -0.0600
  605MOL0     H79801   0.104   5.116   4.314 -1.3700  0.2402  0.8557
  605MOL0     H79802   0.125   5.167   4.476 -1.4677 -0.9337  0.6392
  605MOL0     H79803   0.164   4.903   4.348  2.1914  2.1658 -0.2842
  605MOL0     H79804   0.188   4.915   4.519  1.6202  1.5114 -1.0682
  605MOL0     H79805  -0.084   4.948   4.384 -1.2457 -1.8430 -0.4738
  605MOL0     H79806  -0.056   4.967   4.552 -0.9402 -3.4135  0.4106
  605MOL0     H79807   0.025   4.745   4.589 -0.7301 -0.2456  0.3345
  605MOL0     H79808   0.001   4.705   4.417  1.1537  1.0715 -0.4347
  605MOL0     H79809  -0.223   4.758   4.621 -1.5943  1.5260 -0.4232
  605MOL0     H79810  -0.247   4.803   4.449  1.7578  1.0143 -0.0786
  605MOL0     H79811  -0.194   4.541   4.566  0.0589  1.3019  0.4246
  605MOL0     H79812  -0.168   4.566   4.396  0.4227 -1.5712  0.1709
  605MOL0     H79813  -0.373   4.359   4.352 -1.9516 -0.5638 -1.7545
  605MOL0     H79814  -0.596   4.252   4.341  1.7749 -0.3702  0.1321
  605MOL0     H79815  -0.714   4.379   4.285  0.3725  0.7707  0.7414
  605MOL0     H79816  -0.764   4.385   4.534  3.3474  0.7411  2.0125
  605MOL0     H79817  -0.653   4.249   4.551  0.3258 -0.4412 -0.3536
  605MOL0     H79818  -0.821   4.121   4.376  1.7814 -1.2623  1.1897
  605MOL0     H79819  -0.853   4.139   4.546  3.1991 -0.8524  0.4330
  605MOL0     H79820  -0.958   4.327   4.325 -0.9080  1.7908 -0.0614
  605MOL0     H79821  -0.983   4.354   4.505  0.4700  0.9150 -2.1625
  605MOL0     H79822  -1.280   4.061   4.351  2.3970  1.3050 -0.1418
  605MOL0     H79823  -1.534   4.137   4.334 -1.7286  0.5930  0.4848
  605MOL0     H79824  -1.762   4.534   4.237  0.2808 -0.5228  1.0732
  605MOL0     H79825  -1.974   4.609   4.122  1.1419  0.7144 -0.6618
  605MOL0     H79826  -2.258   4.278   4.067  0.6612 -0.0968  0.8285
  605MOL0     H79827  -2.194   4.380   3.942  1.1934 -2.7389  1.8051
  605MOL0     H79828  -2.447   4.332   3.934 -0.4995  1.3211 -0.0973
  605MOL0     H79829  -2.400   4.507   3.931 -1.2877  0.6897  0.5462
  605MOL0     H79830  -2.448   4.518   4.176  2.9647 -1.8649  2.1856
  605MOL0     H79831  -2.479   4.345   4.186  0.0820 -0.2917  0.2303
  605MOL0     H79832  -2.648   4.505   3.995 -4.1878 -0.4233  0.0831
  605MOL0     H79833  -2.673   4.343   4.049  0.2427 -0.1309 -1.2570
  605MOL0     H79834  -2.821   4.533   4.158  1.0807 -0.1472 -0.1971
  605MOL0     H79835  -2.685   4.597   4.240 -2.0025  1.4099  1.6722
  605MOL0     H79836  -2.849   4.468   4.376  0.0675  0.4995  0.4721
  605MOL0     H79837  -2.687   4.403   4.395 -0.3245  1.1151  1.1814
  605MOL0     H79838  -2.734   4.215   4.232 -1.4199 -0.8610 -0.2911
  605MOL0     H79839  -2.833   4.209   4.377  0.9377 -0.6049  0.2480
  605MOL0     H79840  -2.913   4.315   4.107 -0.5368 -1.0811 -0.8853
  605MOL0     H79841  -3.019   4.309   4.248 -0.7456 -0.4575 -0.6782
  605MOL0     H79842  -2.167   4.257   4.293  1.2984 -0.6483 -0.1056
  605MOL0     H79843  -1.970   4.205   4.416 -1.9474  1.1228  2.0440
  605MOL0     H79844  -1.392   4.521   4.484 -1.4703  0.5230 -2.3166
  605MOL0     H79845  -1.164   4.443   4.481  0.8487 -1.1094  0.2772
  605MOL0     H79846   0.481   5.277   4.569 -0.2279  0.3698 -0.7897
  605MOL0     H79847   0.678   5.377   4.697  4.1884 -1.0461  0.3475
  605MOL0     H79848   1.086   5.619   4.683  0.7105  2.2796  3.0477
  605MOL0     H79849   1.333   5.713   4.737  2.7493 -0.0649 -2.6895
  605MOL0     H79850   1.665   5.421   4.706 -1.6420 -0.3695 -0.9301
  605MOL0     H79851   1.591   5.412   4.864 -0.2925  0.7482 -0.4990
  605MOL0     H79852   1.808   5.604   4.799 -0.0372 -2.5979 -3.0909
  605MOL0     H79853   1.739   5.589   4.958 -1.3103  1.3574 -1.4035
  605MOL0     H79854   1.876   5.361   4.785 -1.4762 -0.9446  0.2030
  605MOL0     H79855   1.804   5.342   4.950 -0.3331 -0.9468 -2.2516
  605MOL0     H79856   2.053   5.492   4.851  0.6213 -0.3183  0.4298
  605MOL0     H79857   1.974   5.523   5.008  0.4826 -0.9651  0.9276
  605MOL0     H79858   2.199   5.165   5.057 -0.4023 -0.4130 -3.2643
  605MOL0     H79859   1.478   5.322   4.685  1.9409  2.4719 -0.4447
  605MOL0     H79860   1.266   5.238   4.624 -2.5291  0.8965  0.1560
  606MOL0     O79861   2.916   2.742   1.436  0.3336 -0.0475  0.2793
  606MOL0     C79862   2.889   2.691   1.545 -0.9877  0.1859 -0.4351
  606MOL0     O79863   2.770   2.648   1.585 -0.4970 -0.0782 -0.3582
  606MOL0     C79864   2.662   2.685   1.508 -0.2293  0.9857 -0.5052
  606MOL0     C79865   2.570   2.589   1.471  0.4332 -0.7123 -0.3871
  606MOL0     C79866   2.458   2.623   1.394  0.3293 -0.4173  0.5713
  606MOL0     C79867   2.436   2.755   1.353 -0.5409 -0.3232  0.0159
  606MOL0     O79868   2.326   2.784   1.279  0.4355 -1.0719  0.4433
  606MOL0     C79869   2.262   2.920   1.270 -0.4942  0.8412 -0.8418
  606MOL0     C79870   2.203   2.963   1.409 -0.5645 -0.3946  0.2408
  606MOL0     C79871   2.086   2.887   1.457 -0.1768 -0.3168 -0.1524
  606MOL0     C79872   2.036   2.946   1.586  0.8488 -0.0594  0.2949
  606MOL0     C79873   1.904   2.887   1.643  1.0017 -0.4553  0.7136
  606MOL0     C79874   1.785   2.923   1.553  0.7748 -0.1431 -0.0334
  606MOL0     C79875   1.649   2.883   1.621  0.4888  0.0506  0.1708
  606MOL0     C79876   1.586   3.007   1.688 -0.1272  0.9048  0.6515
  606MOL0     N79877   1.445   2.981   1.718 -0.0100 -1.2823 -0.1273
  606MOL0     C79878   1.352   3.083   1.727 -0.9534 -0.2437 -0.2036
  606MOL0     C79879   1.239   3.026   1.755  0.4403 -0.0242 -0.8270
  606MOL0     C79880   1.097   3.098   1.758  0.5154  0.4331 -0.1572
  606MOL0     C79881   1.038   3.114   1.613 -0.2477  0.0313  0.0890
  606MOL0     C79882   0.914   3.205   1.592 -0.2912 -0.2399 -0.4256
  606MOL0     C79883   0.790   3.166   1.667  0.0363  0.0490  0.0597
  606MOL0     O79884   0.677   3.237   1.632  0.7114 -0.6159 -0.5526
  606MOL0     C79885   0.648   3.350   1.710  0.7330 -0.2850  0.2653
  606MOL0     C79886   0.530   3.420   1.672 -0.3637  0.3111 -0.5320
  606MOL0     C79887   0.490   3.539   1.743 -0.8642 -0.0006 -0.4208
  606MOL0     C79888   0.571   3.580   1.849  0.4412  0.3406 -0.3660
  606MOL0     C79889   0.512   3.684   1.926  0.6423 -0.2856  0.0310
  606MOL0     O79890   0.392   3.731   1.886 -0.2789 -0.0247  0.0175
  606MOL0     C79891   0.316   3.809   1.977 -0.0614  0.5993 -0.3454
  606MOL0     C79892   0.242   3.747   2.083  0.7811 -0.4266  0.0997
  606MOL0     C79893   0.149   3.824   2.154 -0.7444  0.2734  0.0659
  606MOL0     C79894   0.117   3.960   2.119  0.5630 -0.0789  0.0330
  606MOL0     O79895   0.005   4.016   2.178  0.4637  1.3912 -0.3925
  606MOL0     C79896  -0.053   4.126   2.107 -0.0210 -0.8237 -0.2822
  606MOL0     C79897  -0.123   4.080   1.986  0.1563 -0.9357  0.7180
  606MOL0     C79898  -0.238   4.173   1.937  0.2230 -0.5289 -0.5493
  606MOL0     C79899  -0.184   4.314   1.913 -0.0954  0.2232 -0.4552
  606MOL0     C79900  -0.301   4.407   1.869 -0.1226 -0.0791 -0.4074
  606MOL0     C79901  -0.252   4.549   1.874 -0.3729 -0.2229 -0.8484
  606MOL0     C79902  -0.140   4.572   1.777 -0.4714 -1.0043 -0.3334
  606MOL0     C79903  -0.091   4.719   1.799 -0.2761  0.3140 -0.8751
  606MOL0    Cl79904   0.052   4.758   1.692  0.0587  0.0212  0.1151
  606MOL0     C79905   0.181   4.015   2.004 -0.4075  0.5402 -0.6588
  606MOL0     C79906   0.289   3.940   1.949 -0.1921 -0.3882  0.4745
  606MOL0     O79907   0.577   3.726   2.026 -0.6677 -0.6990  1.0537
  606MOL0     C79908   0.691   3.520   1.890 -0.0627  0.5935 -0.3663
  606MOL0     C79909   0.728   3.406   1.817  0.2046  0.7058 -0.9147
  606MOL0     N79910   1.263   2.887   1.772  0.7390 -0.2970  0.0285
  606MOL0     N79911   1.388   2.864   1.751 -0.3903  0.2146 -0.2708
  606MOL0     C79912   2.533   2.851   1.393 -0.0209 -0.4631 -0.0342
  606MOL0     C79913   2.641   2.820   1.466 -0.8001  0.4864  0.0852
  606MOL0     C79914   3.007   2.653   1.632  0.4716 -0.4077  0.3413
  606MOL0     C79915   3.127   2.700   1.601 -0.4888 -0.0268  0.2179
  606MOL0     C79916   3.239   2.674   1.677 -0.5550  0.6802 -0.3859
  606MOL0     C79917   3.232   2.600   1.791 -0.0550 -0.3121 -0.3711
  606MOL0     O79918   3.334   2.573   1.881 -0.1627  0.4452 -0.0442
  606MOL0     C79919   3.461   2.617   1.838 -0.1723 -0.3181 -0.0913
  606MOL0     C79920   3.520   2.506   1.751 -0.6022 -0.4978 -0.5742
  606MOL0     C79921   3.668   2.503   1.725  0.1321 -1.2544  0.4403
  606MOL0     C79922   3.708   2.363   1.663  0.5109 -0.4039 -0.0817
  606MOL0     C79923   3.851   2.345   1.655 -0.2042  0.6756  0.1468
  606MOL0     C79924   3.971   2.333   1.655 -0.1426  0.6554 -0.5211
  606MOL0     C79925   3.102   2.552   1.823  0.3413 -0.5967 -0.2679
  606MOL0     C79926   2.991   2.571   1.739 -0.8161  0.7129 -1.0135
  606MOL0     H79927   2.586   2.491   1.515 -1.0955  0.0373  2.0337
  606MOL0     H79928   2.381   2.553   1.364 -1.1108  1.6227 -0.7054
  606MOL0     H79929   2.180   2.918   1.198 -1.3164  2.8736 -0.0472
  606MOL0     H79930   2.335   2.992   1.231 -1.1489  0.4589 -2.9129
  606MOL0     H79931   2.174   3.067   1.393 -1.2341 -0.9505 -2.8058
  606MOL0     H79932   2.283   2.954   1.482  0.4125 -0.4913 -0.8086
  606MOL0     H79933   2.115   2.783   1.474 -1.4962 -0.8557 -0.9847
  606MOL0     H79934   2.002   2.890   1.386 -1.8988  0.8410  1.8152
  606MOL0     H79935   2.114   2.917   1.657 -0.5023 -2.9914  0.7157
  606MOL0     H79936   2.018   3.054   1.578 -1.8457 -0.4770 -0.2442
  606MOL0     H79937   1.902   2.921   1.747 -1.1074 -2.2394  1.3298
  606MOL0     H79938   1.924   2.780   1.648  1.2981 -0.5071 -1.1315
  606MOL0     H79939   1.784   2.869   1.457  1.0799  2.1864 -1.4407
  606MOL0     H79940   1.790   3.030   1.528  2.5902 -0.4031 -0.9209
  606MOL0     H79941   1.586   2.844   1.541  0.3433 -0.0424  0.3297
  606MOL0     H79942   1.674   2.812   1.700  0.4935  0.2572  0.3574
  606MOL0     H79943   1.596   3.090   1.617  0.4698 -0.4758 -0.9431
  606MOL0     H79944   1.627   3.036   1.785  0.1171  2.1619  0.1936
  606MOL0     H79945   1.379   3.186   1.708  0.4993 -1.1256 -3.7875
  606MOL0     H79946   1.112   3.193   1.809  0.0484 -0.9590  2.7570
  606MOL0     H79947   1.024   3.043   1.819  0.0202  0.8529 -0.3591
  606MOL0     H79948   1.014   3.015   1.574  2.2225 -0.5938 -0.0216
  606MOL0     H79949   1.107   3.164   1.544 -0.9660 -0.7369 -1.2306
  606MOL0     H79950   0.943   3.305   1.623 -0.6626 -0.5915  1.1541
  606MOL0     H79951   0.885   3.197   1.487  4.3091  1.3177 -2.0817
  606MOL0     H79952   0.808   3.160   1.775 -0.4398 -0.4007  0.1237
  606MOL0     H79953   0.786   3.061   1.636  1.3716 -0.2929  0.9724
  606MOL0     H79954   0.467   3.376   1.595 -0.5531  0.9301 -0.7376
  606MOL0     H79955   0.395   3.582   1.713 -0.7907  0.3271 -0.1919
  606MOL0     H79956   0.262   3.646   2.118  0.5417 -0.3331  0.5125
  606MOL0     H79957   0.077   3.783   2.224  0.9601 -0.2969  1.5666
  606MOL0     H79958   0.016   4.209   2.089 -0.3262 -0.5804 -0.3331
  606MOL0     H79959  -0.135   4.157   2.172 -0.1382 -3.8279  1.1914
  606MOL0     H79960  -0.170   3.981   1.992 -2.1905 -0.1560 -2.1179
  606MOL0     H79961  -0.060   4.065   1.898 -0.9644 -1.1520 -0.0833
  606MOL0     H79962  -0.319   4.182   2.010 -0.5968  0.5272 -1.5406
  606MOL0     H79963  -0.284   4.136   1.845 -0.4338  0.9102 -0.8281
  606MOL0     H79964  -0.136   4.352   2.003 -1.0107  0.5435 -0.0976
  606MOL0     H79965  -0.102   4.304   1.840  1.6933 -2.2466  1.7118
  606MOL0     H79966  -0.385   4.400   1.939  0.1665 -2.0139 -0.2138
  606MOL0     H79967  -0.317   4.378   1.765  1.0642 -4.0883  0.3462
  606MOL0     H79968  -0.224   4.578   1.976 -0.3662 -1.3258 -0.5206
  606MOL0     H79969  -0.335   4.617   1.850  0.7411  1.1507 -0.9450
  606MOL0     H79970  -0.051   4.514   1.801  0.3267  0.2198 -0.2383
  606MOL0     H79971  -0.171   4.552   1.674  0.0806 -1.2667 -0.4539
  606MOL0     H79972  -0.059   4.727   1.904 -0.2957  1.4671 -0.9552
  606MOL0     H79973  -0.173   4.790   1.798 -1.8242 -1.2165  2.1324
  606MOL0     H79974   0.159   4.119   1.982  0.7185  1.6499  2.7003
  606MOL0     H79975   0.344   3.977   1.863 -2.3164 -0.0040 -0.7843
  606MOL0     H79976   0.754   3.557   1.970  0.7094  3.2448 -2.1081
  606MOL0     H79977   0.817   3.353   1.851 -1.6287 -1.7564  0.3150
  606MOL0     H79978   2.520   2.954   1.360  3.1165 -0.0811 -0.3621
  606MOL0     H79979   2.713   2.890   1.507 -0.5674  1.1798 -1.4416
  606MOL0     H79980   3.135   2.769   1.518 -0.5592 -0.1790  0.0855
  606MOL0     H79981   3.335   2.718   1.651  0.9292 -2.6713 -1.0652
  606MOL0     H79982   3.521   2.629   1.928  1.4693  1.8436 -1.4045
  606MOL0     H79983   3.468   2.714   1.789 -1.9175 -0.9007 -1.6189
  606MOL0     H79984   3.493   2.414   1.804 -4.3531 -0.0596 -1.4213
  606MOL0     H79985   3.462   2.510   1.659 -1.7889  0.9363  0.1728
  606MOL0     H79986   3.726   2.512   1.817  1.0204 -3.3876  0.1603
  606MOL0     H79987   3.694   2.582   1.654 -1.5822 -2.9094 -2.1940
  606MOL0     H79988   3.672   2.276   1.717  0.5868  0.1471  0.8740
  606MOL0     H79989   3.675   2.352   1.559  1.2638  0.4634 -0.4344
  606MOL0     H79990   4.078   2.329   1.656 -0.1568  0.0480  1.0921
  606MOL0     H79991   3.098   2.473   1.898 -2.8128 -1.0202 -0.7529
  606MOL0     H79992   2.896   2.533   1.773 -0.8674  2.6168  1.2213
  607MOL0     O79993   0.827   8.279   1.963  0.6205  0.5437  0.4950
  607MOL0     C79994   0.932   8.336   1.939  0.2960 -0.3174  1.0099
  607MOL0     O79995   0.943   8.469   1.927  0.3083  0.3423 -0.2662
  607MOL0     C79996   0.827   8.543   1.957  0.7261 -0.4518 -0.2369
  607MOL0     C79997   0.812   8.591   2.087  0.2462  0.7665  0.4607
  607MOL0     C79998   0.700   8.660   2.126  0.0505  0.4968 -0.2462
  607MOL0     C79999   0.589   8.669   2.045  0.7195  0.2880  1.2302
  607MOL0     O80000   0.472   8.730   2.076  0.0257  0.1346 -0.4428
  607MOL0     C80001   0.464   8.848   2.147 -0.7465 -0.2589 -0.9209
  607MOL0     C80002   0.324   8.896   2.125  0.0360  0.6621 -0.3356
  607MOL0     C80003   0.302   9.038   2.171 -0.6347 -0.1444  0.2815
  607MOL0     C80004   0.165   9.085   2.124  0.6032 -0.4133  0.5052
  607MOL0     C80005   0.138   9.238   2.151 -0.2705  0.4684  0.8983
  607MOL0     C80006  -0.008   9.279   2.151 -0.0580  0.1660  0.5208
  607MOL0     C80007  -0.005   9.428   2.154  0.0885  0.1423  0.0778
  607MOL0     C80008  -0.140   9.501   2.151  0.4005  0.6563 -0.1399
  607MOL0     N80009  -0.202   9.488   2.284  0.2051 -0.5792 -0.2162
  607MOL0     C80010  -0.295   9.393   2.320  1.1443  0.2767  0.3098
  607MOL0     C80011  -0.359   9.437   2.433 -0.0673 -0.4318  0.7331
  607MOL0     C80012  -0.474   9.377   2.511 -0.4215 -0.3076 -0.1921
  607MOL0     C80013  -0.626   9.397   2.463 -0.7090  0.9930 -0.6450
  607MOL0     C80014  -0.661   9.551   2.458  0.0525 -0.4505  0.2332
  607MOL0     C80015  -0.806   9.571   2.467  0.5777  0.6650  0.3246
  607MOL0     O80016  -0.862   9.506   2.348 -0.1555 -0.4858  0.3425
  607MOL0     C80017  -0.997   9.505   2.348 -0.3614 -1.6898 -0.3744
  607MOL0     C80018  -1.072   9.617   2.385  0.3938  0.6446 -0.0606
  607MOL0     C80019  -1.212   9.626   2.376  0.3167  0.4100  1.1023
  607MOL0     C80020  -1.290   9.510   2.333 -0.6740 -0.3695 -0.9142
  607MOL0     C80021  -1.443   9.502   2.340  0.3273 -0.1003 -0.6704
  607MOL0     O80022  -1.526   9.405   2.285  0.2288 -0.6751  0.5843
  607MOL0     C80023  -1.663   9.430   2.275 -0.9438  0.1115 -0.7405
  607MOL0     C80024  -1.715   9.462   2.149 -0.1691  1.2577  0.2626
  607MOL0     C80025  -1.855   9.489   2.133  0.2884 -0.0563 -0.0719
  607MOL0     C80026  -1.939   9.490   2.250 -0.4348  0.3661 -0.6702
  607MOL0     O80027  -2.071   9.520   2.220  1.1088  0.8705  0.3498
  607MOL0     C80028  -2.170   9.412   2.235 -0.0278 -0.0077  0.4592
  607MOL0     C80029  -2.258   9.421   2.121 -0.5995 -0.6336  0.2949
  607MOL0     C80030  -2.365   9.317   2.134  0.1936  0.5427 -0.1496
  607MOL0     C80031  -2.465   9.312   2.007  0.0886 -0.6171 -0.3553
  607MOL0     C80032  -2.585   9.215   2.043  0.6610 -0.1346  0.5086
  607MOL0     C80033  -2.699   9.236   1.935 -0.6856  0.2304 -0.1345
  607MOL0     C80034  -2.696   9.149   1.819 -0.3727  0.3450 -0.4578
  607MOL0     C80035  -2.843   9.108   1.782  0.2833 -0.0353  0.1876
  607MOL0    Cl80036  -2.840   9.030   1.629 -0.3563 -0.0733 -0.7022
  607MOL0     C80037  -1.882   9.447   2.374  0.0065  0.5215 -0.4393
  607MOL0     C80038  -1.743   9.423   2.388 -0.4424  0.3502 -0.2096
  607MOL0     O80039  -1.488   9.607   2.392  0.3466 -0.1029  0.4102
  607MOL0     C80040  -1.206   9.396   2.296  0.5490  0.9879  0.7473
  607MOL0     C80041  -1.067   9.390   2.296 -0.4571 -0.9101  0.1402
  607MOL0     N80042  -0.286   9.554   2.468  0.7225  0.3676  1.0324
  607MOL0     N80043  -0.199   9.592   2.374 -0.6546  0.5459  0.1254
  607MOL0     C80044   0.602   8.625   1.907  0.0930 -0.3524  0.6813
  607MOL0     C80045   0.723   8.568   1.865  0.0721 -0.4065 -1.1063
  607MOL0     C80046   1.064   8.260   1.929  1.1171 -1.6081  0.2056
  607MOL0     C80047   1.184   8.335   1.918 -1.2584 -0.0908 -0.0785
  607MOL0     C80048   1.299   8.260   1.893  0.5659  0.4142 -0.7345
  607MOL0     C80049   1.300   8.118   1.887  0.5979 -0.1469  0.4828
  607MOL0     O80050   1.420   8.071   1.855 -0.1178  0.1255  0.0493
  607MOL0     C80051   1.446   7.925   1.837  0.0750 -0.8794  1.0304
  607MOL0     C80052   1.583   7.883   1.782 -0.6153  0.7005 -0.4128
  607MOL0     C80053   1.586   7.737   1.730  0.2954  0.6708 -0.5086
  607MOL0     C80054   1.723   7.671   1.704  0.2370 -1.2484 -0.2867
  607MOL0     C80055   1.801   7.662   1.829 -0.7247 -0.4776 -0.0386
  607MOL0     C80056   1.881   7.669   1.924  0.2991 -0.2553 -1.1691
  607MOL0     C80057   1.184   8.051   1.901  0.4571 -0.1158 -0.0597
  607MOL0     C80058   1.068   8.116   1.931  0.8388  0.3396  0.2570
  607MOL0     H80059   0.900   8.575   2.147  1.6520  0.9926 -1.4528
  607MOL0     H80060   0.690   8.694   2.229  3.6385 -0.9554  0.7357
  607MOL0     H80061   0.533   8.923   2.108  0.2096  0.2701  1.6187
  607MOL0     H80062   0.484   8.838   2.254 -0.7870 -0.0829 -0.8965
  607MOL0     H80063   0.258   8.831   2.182  1.4150  1.6015  2.4990
  607MOL0     H80064   0.297   8.893   2.019 -2.9016 -0.0144  0.3478
  607MOL0     H80065   0.381   9.101   2.129 -0.8917 -0.6884 -1.0558
  607MOL0     H80066   0.304   9.047   2.280 -0.2634  1.6805  0.1637
  607MOL0     H80067   0.149   9.066   2.018 -0.1513  2.5285 -0.0057
  607MOL0     H80068   0.087   9.035   2.182 -2.3498  3.8483  0.7038
  607MOL0     H80069   0.198   9.298   2.081 -1.9251  1.0454 -0.0938
  607MOL0     H80070   0.174   9.267   2.250 -0.6046  0.4994  1.0117
  607MOL0     H80071  -0.058   9.233   2.237  1.8783  0.6257  1.9668
  607MOL0     H80072  -0.062   9.246   2.062 -1.7985 -0.5158  1.7613
  607MOL0     H80073   0.042   9.459   2.248 -2.9984  1.4306  1.3328
  607MOL0     H80074   0.038   9.462   2.059 -1.7241  0.8492 -0.5470
  607MOL0     H80075  -0.201   9.463   2.069 -0.7204  0.6301  0.6922
  607MOL0     H80076  -0.115   9.606   2.132 -0.2987  1.1845  1.6463
  607MOL0     H80077  -0.336   9.304   2.273 -1.2318  1.3642  0.1361
  607MOL0     H80078  -0.461   9.410   2.614 -0.4373 -1.8846  0.3539
  607MOL0     H80079  -0.453   9.269   2.510  1.7582  0.0858 -0.5103
  607MOL0     H80080  -0.680   9.339   2.539  0.6309 -0.3770 -0.6950
  607MOL0     H80081  -0.637   9.354   2.363 -1.9707  1.6577 -0.8093
  607MOL0     H80082  -0.615   9.590   2.549 -1.3618  0.6057  0.5260
  607MOL0     H80083  -0.609   9.604   2.378 -0.4718  0.6490  0.6062
  607MOL0     H80084  -0.823   9.679   2.477  0.5506  0.6505  0.4360
  607MOL0     H80085  -0.853   9.517   2.550  0.6373 -1.7759 -1.1378
  607MOL0     H80086  -1.019   9.707   2.414  2.7749 -1.2488  1.8582
  607MOL0     H80087  -1.261   9.716   2.413  3.2590  1.4532  2.8065
  607MOL0     H80088  -1.647   9.468   2.065  1.0077 -2.1835  0.8252
  607MOL0     H80089  -1.898   9.499   2.034 -1.3816  0.3950  0.6634
  607MOL0     H80090  -2.228   9.414   2.328 -1.6686  0.0692 -0.5237
  607MOL0     H80091  -2.110   9.320   2.239  0.1276  0.0133 -1.0146
  607MOL0     H80092  -2.205   9.420   2.025  0.9410  0.3284  1.0816
  607MOL0     H80093  -2.299   9.522   2.122 -0.1816 -0.4101 -1.7013
  607MOL0     H80094  -2.418   9.326   2.230  1.5311  2.2123  0.4753
  607MOL0     H80095  -2.311   9.222   2.139  4.0106  2.4372 -1.5101
  607MOL0     H80096  -2.520   9.407   2.003 -0.5034 -0.9277  0.1366
  607MOL0     H80097  -2.427   9.279   1.910 -1.6998 -1.4295 -0.8221
  607MOL0     H80098  -2.618   9.238   2.145 -2.2430  0.2744 -0.4308
  607MOL0     H80099  -2.549   9.112   2.048 -3.0027 -1.5405  1.7773
  607MOL0     H80100  -2.707   9.340   1.902 -2.0810  0.5770  1.1978
  607MOL0     H80101  -2.791   9.220   1.990  1.0363 -0.6743  2.6865
  607MOL0     H80102  -2.649   9.200   1.735 -0.2068  1.9919  0.5939
  607MOL0     H80103  -2.641   9.056   1.838  0.9949  1.3048  0.4364
  607MOL0     H80104  -2.900   9.197   1.754 -0.6859 -0.6455  0.2141
  607MOL0     H80105  -2.889   9.058   1.867  1.8046  0.9649  1.6825
  607MOL0     H80106  -1.938   9.439   2.466  0.8439  0.6682  0.0855
  607MOL0     H80107  -1.699   9.389   2.481 -2.8167  2.0310  1.6542
  607MOL0     H80108  -1.249   9.302   2.262  2.5601  0.2464  0.0964
  607MOL0     H80109  -1.017   9.298   2.266 -0.4782  0.0850 -3.4187
  607MOL0     H80110   0.517   8.624   1.839  1.4731  0.6497 -1.1384
  607MOL0     H80111   0.735   8.526   1.766  0.0152  1.0823 -1.7799
  607MOL0     H80112   1.183   8.444   1.914 -1.0688 -0.0841  0.0494
  607MOL0     H80113   1.383   8.328   1.882  1.0096 -0.0407 -0.2336
  607MOL0     H80114   1.370   7.882   1.771  1.5908  2.6179 -3.5785
  607MOL0     H80115   1.424   7.878   1.933 -0.4534 -1.1798  0.7595
  607MOL0     H80116   1.614   7.948   1.699  2.6647  0.3085  0.3624
  607MOL0     H80117   1.667   7.904   1.848 -1.1287 -0.5589  0.6730
  607MOL0     H80118   1.525   7.718   1.641  0.8514 -1.8529 -0.4238
  607MOL0     H80119   1.538   7.672   1.804  0.6516  0.0311 -0.8330
  607MOL0     H80120   1.699   7.569   1.671  1.8368 -1.3086 -1.4311
  607MOL0     H80121   1.791   7.711   1.627  1.0165 -0.3445  0.8388
  607MOL0     H80122   1.940   7.678   2.013  0.0383  2.9778 -1.2167
  607MOL0     H80123   1.180   7.943   1.899  0.4636 -0.1171 -0.0134
  607MOL0     H80124   0.982   8.050   1.941  2.4145 -2.0593 -0.9656
  608MOL0     O80125   1.442   2.840   5.820 -0.3972  0.0908 -0.3595
  608MOL0     C80126   1.529   2.755   5.799 -0.1264  0.5664  0.5459
  608MOL0     O80127   1.513   2.618   5.806  1.1223 -1.1692 -0.4340
  608MOL0     C80128   1.380   2.587   5.815  0.9333  0.0621  0.8324
  608MOL0     C80129   1.320   2.596   5.938  0.1473  0.1380  0.4631
  608MOL0     C80130   1.189   2.554   5.956 -0.1808  0.4591 -0.0841
  608MOL0     C80131   1.112   2.524   5.843  0.2030 -0.0441 -0.4159
  608MOL0     O80132   0.979   2.496   5.864 -0.1769 -0.6652 -0.0382
  608MOL0     C80133   0.936   2.361   5.887 -0.8803 -0.4271 -0.2292
  608MOL0     C80134   0.781   2.370   5.889  0.0837 -0.1276  0.0585
  608MOL0     C80135   0.720   2.427   6.022  0.2760  0.1602  0.1652
  608MOL0     C80136   0.573   2.474   6.005 -0.9413 -0.0081 -0.2464
  608MOL0     C80137   0.517   2.516   6.139 -0.7816 -0.6150 -0.3651
  608MOL0     C80138   0.365   2.556   6.132 -0.0305  0.2948 -0.6477
  608MOL0     C80139   0.311   2.550   6.277  0.4096 -0.7517  0.1988
  608MOL0     C80140   0.169   2.610   6.282 -0.0975 -0.0001  0.0709
  608MOL0     N80141   0.072   2.541   6.200  0.6222 -0.0973  0.2287
  608MOL0     C80142   0.008   2.598   6.093 -0.4843 -0.8613 -1.0297
  608MOL0     C80143  -0.099   2.517   6.076 -0.6254 -0.1505  0.0754
  608MOL0     C80144  -0.203   2.554   5.992  0.2215 -0.0705  0.2217
  608MOL0     C80145  -0.213   2.461   5.860  0.7763 -0.7065  0.0577
  608MOL0     C80146  -0.089   2.474   5.766 -0.4648  0.4567 -0.8698
  608MOL0     C80147  -0.066   2.610   5.700 -0.3301  0.2009 -0.5640
  608MOL0     O80148  -0.094   2.606   5.562 -0.5248 -0.0319  0.2452
  608MOL0     C80149  -0.225   2.604   5.518  0.8498 -0.5651 -0.4353
  608MOL0     C80150  -0.253   2.527   5.407 -0.1895 -0.0914 -0.2726
  608MOL0     C80151  -0.385   2.520   5.349 -0.5084 -0.2641  0.6086
  608MOL0     C80152  -0.487   2.595   5.403  0.4423 -0.1159 -1.1383
  608MOL0     C80153  -0.626   2.589   5.340 -0.5239 -0.7754  0.1036
  608MOL0     O80154  -0.719   2.665   5.396  0.0996 -0.3588  0.2969
  608MOL0     C80155  -0.845   2.673   5.344 -0.0549 -0.3964  0.4420
  608MOL0     C80156  -0.924   2.580   5.270  0.0325  0.0609  0.2868
  608MOL0     C80157  -1.060   2.600   5.232 -0.1870 -0.1689  0.1229
  608MOL0     C80158  -1.119   2.722   5.269 -0.7019  0.5909  0.4198
  608MOL0     O80159  -1.240   2.760   5.234  0.8121 -0.0668  0.0169
  608MOL0     C80160  -1.307   2.680   5.124 -0.2798 -0.6367 -0.0538
  608MOL0     C80161  -1.439   2.749   5.082 -0.5683  0.0541  0.0249
  608MOL0     C80162  -1.404   2.881   5.011 -0.3196 -0.0410 -0.5232
  608MOL0     C80163  -1.521   2.959   4.949  0.5247  0.3339 -0.5696
  608MOL0     C80164  -1.626   3.003   5.059  0.4354  0.0527 -0.2410
  608MOL0     C80165  -1.740   3.094   5.006 -0.2093 -0.9638  0.8546
  608MOL0     C80166  -1.845   3.092   5.117 -0.3225 -0.1008  0.5651
  608MOL0     C80167  -1.960   3.186   5.085 -0.5330 -0.5943  0.0213
  608MOL0    Cl80168  -2.069   3.127   4.944  0.6075  0.0758 -0.5094
  608MOL0     C80169  -1.041   2.816   5.349  0.0089  0.3649  0.0701
  608MOL0     C80170  -0.902   2.791   5.380  0.1471  0.8693 -0.2949
  608MOL0     O80171  -0.636   2.512   5.242 -0.4567  0.0326 -0.2952
  608MOL0     C80172  -0.466   2.671   5.521  0.2541  0.4820  0.3265
  608MOL0     C80173  -0.339   2.674   5.577  0.6526  0.9439  0.6453
  608MOL0     N80174  -0.095   2.401   6.153  0.1847 -0.2437 -0.1490
  608MOL0     N80175   0.011   2.421   6.229 -0.7017 -0.2778  0.1924
  608MOL0     C80176   1.181   2.515   5.718 -0.0047  0.2891  0.2429
  608MOL0     C80177   1.315   2.549   5.702  1.0260  0.4516 -0.3754
  608MOL0     C80178   1.667   2.809   5.762  0.6698  0.6101 -0.1507
  608MOL0     C80179   1.767   2.715   5.715  0.4681  0.1870 -0.5478
  608MOL0     C80180   1.892   2.758   5.681  0.1465  0.2665  0.6947
  608MOL0     C80181   1.936   2.892   5.716  0.1132  1.5118 -0.4478
  608MOL0     O80182   2.063   2.937   5.690  0.0162  0.3940  0.3827
  608MOL0     C80183   2.152   2.870   5.594  0.3821  0.0792 -0.4227
  608MOL0     C80184   2.281   2.937   5.616 -0.0363 -0.3093  0.1072
  608MOL0     C80185   2.287   3.078   5.548 -0.3007  1.7266 -0.0561
  608MOL0     C80186   2.419   3.153   5.581  0.9431  0.1324  0.5326
  608MOL0     C80187   2.540   3.081   5.536 -0.1717  0.4127  0.9985
  608MOL0     C80188   2.646   3.030   5.502 -0.2487 -0.2073 -0.0345
  608MOL0     C80189   1.841   2.974   5.775 -0.4435 -0.5514  0.8693
  608MOL0     C80190   1.709   2.935   5.794  0.1660 -0.2906 -0.4036
  608MOL0     H80191   1.377   2.636   6.020 -0.1267  3.4258 -0.7978
  608MOL0     H80192   1.139   2.564   6.051  0.7671 -0.8034  0.5769
  608MOL0     H80193   0.981   2.317   5.976  0.9131 -0.3518 -1.0396
  608MOL0     H80194   0.966   2.298   5.803  0.4643 -0.6995  0.4289
  608MOL0     H80195   0.743   2.270   5.866  0.6886 -0.4533  0.4539
  608MOL0     H80196   0.756   2.440   5.808 -1.2880  1.1467  1.5253
  608MOL0     H80197   0.784   2.511   6.050 -0.1425  1.1471 -1.6411
  608MOL0     H80198   0.736   2.349   6.096 -0.6296  0.5923  0.8370
  608MOL0     H80199   0.575   2.563   5.942 -0.3040  1.5444  1.8497
  608MOL0     H80200   0.512   2.394   5.962 -1.7141  1.1143 -1.3409
  608MOL0     H80201   0.561   2.601   6.193  0.4075 -1.3314 -0.1618
  608MOL0     H80202   0.521   2.430   6.207  1.5691 -0.5316 -0.2939
  608MOL0     H80203   0.315   2.478   6.075 -0.2718 -0.9860  1.2020
  608MOL0     H80204   0.347   2.657   6.095 -0.0519  2.2177  3.9369
  608MOL0     H80205   0.307   2.448   6.316  0.5239 -0.2173  1.6919
  608MOL0     H80206   0.370   2.610   6.347 -0.9298  1.9787 -0.8370
  608MOL0     H80207   0.161   2.717   6.260  3.3655  0.9932  2.6665
  608MOL0     H80208   0.147   2.612   6.389 -0.2925  4.0196  0.1065
  608MOL0     H80209   0.020   2.693   6.041 -1.0145 -1.0492 -1.5054
  608MOL0     H80210  -0.207   2.659   5.964 -0.2140 -0.3895 -0.9497
  608MOL0     H80211  -0.295   2.530   6.047 -0.6350  2.5285  0.0451
  608MOL0     H80212  -0.308   2.473   5.808  0.7622 -0.4000  0.1487
  608MOL0     H80213  -0.217   2.356   5.891 -0.3362 -0.6392  0.1666
  608MOL0     H80214   0.006   2.447   5.813 -0.0321  2.3612 -0.5798
  608MOL0     H80215  -0.102   2.398   5.687  1.3918 -1.3894  0.4935
  608MOL0     H80216   0.042   2.627   5.703  0.0021 -0.9540 -3.2347
  608MOL0     H80217  -0.121   2.689   5.752 -1.2969 -0.8087 -0.0235
  608MOL0     H80218  -0.169   2.476   5.360 -2.0495 -2.3039 -1.4189
  608MOL0     H80219  -0.393   2.470   5.252  0.7422  1.2954 -0.3510
  608MOL0     H80220  -0.884   2.484   5.241  0.7808  0.1805  0.8849
  608MOL0     H80221  -1.112   2.528   5.170  1.3521 -0.5189 -0.8373
  608MOL0     H80222  -1.316   2.574   5.149  0.5774 -0.6028  0.4537
  608MOL0     H80223  -1.247   2.681   5.033  0.8596  1.7812  0.6298
  608MOL0     H80224  -1.513   2.749   5.163 -2.2978 -0.0966 -1.4984
  608MOL0     H80225  -1.488   2.692   5.002  0.5992  0.0241 -0.6954
  608MOL0     H80226  -1.332   2.856   4.932 -2.2964 -1.0612 -2.1151
  608MOL0     H80227  -1.351   2.939   5.087  2.1849 -2.7995 -0.0229
  608MOL0     H80228  -1.470   3.042   4.900 -0.1815  1.6335  0.8073
  608MOL0     H80229  -1.572   2.896   4.876 -2.1319  1.4639  0.1941
  608MOL0     H80230  -1.573   3.058   5.137 -1.1717 -0.0147  0.9522
  608MOL0     H80231  -1.676   2.913   5.098 -1.2175  1.6366  1.4635
  608MOL0     H80232  -1.781   3.061   4.910  2.2712  0.5286 -0.8466
  608MOL0     H80233  -1.699   3.195   4.998  2.1219 -1.7475  1.9801
  608MOL0     H80234  -1.882   2.992   5.139 -0.3098  0.0802  1.4311
  608MOL0     H80235  -1.786   3.126   5.202  0.4629  4.8671 -1.5934
  608MOL0     H80236  -1.922   3.286   5.057 -1.8461 -0.3113 -0.8185
  608MOL0     H80237  -2.028   3.197   5.170 -3.0738  0.4514 -1.9982
  608MOL0     H80238  -1.087   2.911   5.374  0.1285  0.3513  0.3392
  608MOL0     H80239  -0.861   2.866   5.447 -0.4093  1.6948 -0.8568
  608MOL0     H80240  -0.548   2.735   5.552  1.7740  2.5229  0.3714
  608MOL0     H80241  -0.317   2.733   5.665 -0.5317 -2.7269  3.7037
  608MOL0     H80242   1.121   2.471   5.639 -0.9009  3.4871 -1.0141
  608MOL0     H80243   1.362   2.562   5.605 -0.0561  2.2111 -0.7117
  608MOL0     H80244   1.733   2.613   5.701 -1.8949  0.2124  3.5057
  608MOL0     H80245   1.962   2.690   5.633 -0.1013  0.8897 -0.5808
  608MOL0     H80246   2.114   2.863   5.492  1.9891 -1.6716 -0.9432
  608MOL0     H80247   2.162   2.765   5.620 -1.9655  0.2629  1.6376
  608MOL0     H80248   2.311   2.934   5.722  3.1690 -0.1288 -0.6948
  608MOL0     H80249   2.356   2.884   5.557  1.5555  1.3632  0.5345
  608MOL0     H80250   2.202   3.138   5.581 -1.4054 -0.6837  1.7672
  608MOL0     H80251   2.293   3.062   5.440  0.8214  3.4463 -0.2960
  608MOL0     H80252   2.406   3.256   5.545 -4.3237  0.7585  3.2722
  608MOL0     H80253   2.420   3.146   5.690 -1.3106  1.0425  0.6462
  608MOL0     H80254   2.747   2.997   5.489 -0.3753 -0.4940 -0.3125
  608MOL0     H80255   1.870   3.073   5.810 -0.8044  0.4589 -1.4987
  608MOL0     H80256   1.642   2.999   5.850  0.4951 -2.3298  2.5656
  609MOL0     O80257   9.163   8.765   7.554  0.5646 -0.2290  0.4497
  609MOL0     C80258   9.130   8.653   7.590  0.2830  0.4324  0.4654
  609MOL0     O80259   9.163   8.591   7.705  0.6354 -0.5986  0.1301
  609MOL0     C80260   9.286   8.623   7.767 -0.1800  0.1166  0.6605
  609MOL0     C80261   9.400   8.677   7.693  0.7617 -0.2947  0.1555
  609MOL0     C80262   9.520   8.690   7.755  0.1384  0.2797 -0.2796
  609MOL0     C80263   9.532   8.686   7.889  0.8104 -1.0990  1.1109
  609MOL0     O80264   9.643   8.716   7.961 -0.5150 -1.2271 -0.5682
  609MOL0     C80265   9.769   8.681   7.900  0.7670  0.0313 -0.5745
  609MOL0     C80266   9.882   8.694   8.002  0.5091 -0.5034 -0.1459
  609MOL0     C80267  10.027   8.656   7.957 -0.0577  0.2324  0.3763
  609MOL0     C80268  10.125   8.661   8.078 -0.0073 -0.5534 -0.4807
  609MOL0     C80269  10.270   8.711   8.049  0.2474  0.1880  0.5142
  609MOL0     C80270  10.377   8.634   8.119  0.2795  0.4477 -0.0403
  609MOL0     C80271  10.402   8.488   8.071  0.1752  0.0049  0.4851
  609MOL0     C80272  10.449   8.486   7.928  0.6348  0.5502  0.8944
  609MOL0     N80273  10.451   8.345   7.872  0.0671  0.0901 -0.3563
  609MOL0     C80274  10.352   8.257   7.852 -0.1419  0.1018 -0.2105
  609MOL0     C80275  10.403   8.143   7.804  1.2229 -0.3179  0.1524
  609MOL0     C80276  10.308   8.024   7.760 -0.0292 -0.4560 -0.1509
  609MOL0     C80277  10.374   7.913   7.673  0.2349 -0.1389 -0.1012
  609MOL0     C80278  10.279   7.796   7.653 -0.4343 -0.1728  0.0860
  609MOL0     C80279  10.359   7.688   7.569 -0.5010 -0.9300  0.0444
  609MOL0     O80280  10.312   7.552   7.587  0.3595  0.6866  0.0163
  609MOL0     C80281  10.201   7.508   7.516  0.5192 -0.8529 -0.1089
  609MOL0     C80282  10.125   7.573   7.411  0.3086  0.5834  0.0343
  609MOL0     C80283  10.003   7.520   7.360 -0.4127  0.2559 -0.5708
  609MOL0     C80284   9.953   7.406   7.410 -0.0400 -0.1793 -0.8740
  609MOL0     C80285   9.827   7.339   7.360  0.4226 -1.0914  0.3989
  609MOL0     O80286   9.765   7.252   7.443  0.2988  0.0308 -0.3246
  609MOL0     C80287   9.645   7.184   7.425  0.3001  0.2768 -0.6300
  609MOL0     C80288   9.589   7.150   7.298  0.9809  0.0052 -0.0689
  609MOL0     C80289   9.474   7.079   7.286 -0.3839 -0.0206  0.2421
  609MOL0     C80290   9.417   7.022   7.400 -0.2704 -0.2750  0.4781
  609MOL0     O80291   9.307   6.942   7.376 -0.6263 -0.0710 -0.0976
  609MOL0     C80292   9.227   6.896   7.483  0.6747  0.6644 -1.1603
  609MOL0     C80293   9.086   6.838   7.440  0.7382  0.4220  0.2165
  609MOL0     C80294   9.084   6.686   7.417 -0.1287  0.3531  0.5811
  609MOL0     C80295   8.931   6.648   7.401 -0.6656 -0.2592 -0.2795
  609MOL0     C80296   8.929   6.504   7.350  0.2005 -0.5270  0.3422
  609MOL0     C80297   8.794   6.473   7.284  0.6126  0.3634 -0.4140
  609MOL0     C80298   8.798   6.343   7.210  0.6515  0.4023 -0.8611
  609MOL0     C80299   8.657   6.285   7.196  0.1410 -0.1887  1.0599
  609MOL0    Cl80300   8.547   6.400   7.107  0.3329 -0.2864  0.2178
  609MOL0     C80301   9.474   7.049   7.529 -0.4154 -1.1460 -0.7860
  609MOL0     C80302   9.591   7.124   7.541  0.4286  0.0048  0.0121
  609MOL0     O80303   9.784   7.370   7.247  0.1784 -0.0047 -0.8014
  609MOL0     C80304  10.021   7.339   7.514  0.2052  0.4731  0.0530
  609MOL0     C80305  10.145   7.387   7.557 -0.0197  0.0376  0.0499
  609MOL0     N80306  10.542   8.157   7.794 -0.0994  0.7020  0.2214
  609MOL0     N80307  10.562   8.280   7.833  0.4487  0.7288  0.7785
  609MOL0     C80308   9.421   8.638   7.968 -0.4915 -0.4194 -0.0634
  609MOL0     C80309   9.299   8.609   7.904  0.0012 -0.3035  0.4871
  609MOL0     C80310   9.032   8.584   7.498 -0.2798  0.5806 -0.1359
  609MOL0     C80311   8.999   8.655   7.382 -0.0115 -0.0873 -0.0772
  609MOL0     C80312   8.913   8.612   7.280 -0.4105 -0.7234  0.7168
  609MOL0     C80313   8.856   8.488   7.306  0.0224  1.0636  0.0969
  609MOL0     O80314   8.783   8.416   7.216  0.6674  0.1551  0.4868
  609MOL0     C80315   8.771   8.466   7.080  0.2950  0.4390  0.3280
  609MOL0     C80316   8.668   8.383   7.002  1.1815 -0.3318 -0.1623
  609MOL0     C80317   8.522   8.400   7.059 -0.5479 -0.6866 -0.0474
  609MOL0     C80318   8.425   8.486   6.960 -0.2649  1.0715  0.3858
  609MOL0     C80319   8.287   8.456   6.996  0.6901  1.2628  0.7237
  609MOL0     C80320   8.177   8.412   7.030  0.2813 -0.2729  0.3789
  609MOL0     C80321   8.878   8.423   7.429 -0.5986  0.8010 -0.0498
  609MOL0     C80322   8.965   8.472   7.531 -0.2179 -0.0286  0.2796
  609MOL0     H80323   9.386   8.678   7.585 -0.4031  0.3029  0.2897
  609MOL0     H80324   9.606   8.722   7.697  0.8877  2.7222  1.9813
  609MOL0     H80325   9.771   8.736   7.806  0.5590  2.1757  0.5957
  609MOL0     H80326   9.759   8.574   7.881  2.4096 -0.5493  1.3895
  609MOL0     H80327   9.852   8.646   8.096  2.7129  1.2609  1.6068
  609MOL0     H80328   9.890   8.802   8.021  0.6307  0.3173 -4.0867
  609MOL0     H80329  10.067   8.726   7.883  2.1152 -0.2209  1.0502
  609MOL0     H80330  10.029   8.557   7.911 -0.9054  0.9664 -1.2926
  609MOL0     H80331  10.082   8.735   8.146 -0.9126  0.5178 -2.1469
  609MOL0     H80332  10.119   8.563   8.126 -1.3299 -0.3858 -0.2607
  609MOL0     H80333  10.271   8.814   8.086 -1.9765  0.2309  0.6118
  609MOL0     H80334  10.289   8.714   7.942 -0.3478  1.9523  0.4231
  609MOL0     H80335  10.363   8.645   8.227  0.1857 -1.0913  0.1278
  609MOL0     H80336  10.465   8.690   8.089 -0.0660 -1.0916 -4.8111
  609MOL0     H80337  10.480   8.443   8.134 -0.0497  1.1478  1.6092
  609MOL0     H80338  10.314   8.426   8.086 -1.3727  2.4637  2.3036
  609MOL0     H80339  10.547   8.532   7.911  0.4992  0.3672 -0.5658
  609MOL0     H80340  10.381   8.533   7.856  0.6809 -0.3326  0.2499
  609MOL0     H80341  10.247   8.272   7.875 -0.8492 -1.6140 -2.0385
  609MOL0     H80342  10.229   8.071   7.701  1.2976  1.0171 -0.8585
  609MOL0     H80343  10.267   7.982   7.852 -0.1860 -3.3322 -1.4341
  609MOL0     H80344  10.468   7.882   7.718 -0.0836  0.5987  1.1113
  609MOL0     H80345  10.402   7.942   7.572  2.8448 -2.9118 -0.3217
  609MOL0     H80346  10.257   7.759   7.754 -1.4099  1.6843  0.5976
  609MOL0     H80347  10.184   7.819   7.605  0.7696  3.9360 -0.6562
  609MOL0     H80348  10.465   7.684   7.595 -0.6548  1.6951  1.3659
  609MOL0     H80349  10.354   7.721   7.465 -2.3128 -0.3160  0.2985
  609MOL0     H80350  10.158   7.671   7.375 -1.2348  0.7897 -0.9083
  609MOL0     H80351   9.951   7.573   7.281  0.4717  1.3311 -0.4547
  609MOL0     H80352   9.619   7.203   7.208 -2.1191  2.5846  0.2419
  609MOL0     H80353   9.438   7.064   7.185 -0.4830 -1.5849  0.4822
  609MOL0     H80354   9.201   6.976   7.553 -4.6193 -2.2750  0.8581
  609MOL0     H80355   9.285   6.825   7.542 -1.3731 -0.5294 -0.4720
  609MOL0     H80356   9.043   6.892   7.355  1.0906 -0.3480 -0.4653
  609MOL0     H80357   9.024   6.864   7.527 -1.7611  1.3352 -1.7157
  609MOL0     H80358   9.129   6.635   7.502 -2.1484  0.7898  1.9882
  609MOL0     H80359   9.142   6.666   7.326 -2.3976 -1.4406 -0.5924
  609MOL0     H80360   8.879   6.650   7.497 -1.6422  0.3041 -0.8047
  609MOL0     H80361   8.881   6.716   7.332  1.5472  0.6053 -1.1141
  609MOL0     H80362   8.926   6.433   7.433 -2.3426 -3.4336 -2.0202
  609MOL0     H80363   9.014   6.481   7.285 -0.7778 -1.1757 -0.7401
  609MOL0     H80364   8.756   6.547   7.213 -1.8920 -1.5806 -1.2581
  609MOL0     H80365   8.720   6.456   7.362 -0.7982  0.4269 -1.6901
  609MOL0     H80366   8.846   6.371   7.115  3.0074  0.3737  0.2456
  609MOL0     H80367   8.867   6.273   7.259  1.8676  0.4460 -2.4356
  609MOL0     H80368   8.610   6.247   7.287  0.5276 -1.4883  0.7405
  609MOL0     H80369   8.676   6.196   7.136  2.9197  0.3131  1.0458
  609MOL0     H80370   9.443   6.993   7.616  1.0396 -1.5686 -0.5171
  609MOL0     H80371   9.648   7.142   7.632  1.6633  0.2752 -0.7871
  609MOL0     H80372   9.985   7.248   7.561  1.7451  1.5170  3.5870
  609MOL0     H80373  10.199   7.335   7.635 -0.5907 -2.6500 -1.2387
  609MOL0     H80374   9.426   8.622   8.075  0.2551 -3.1743 -0.4524
  609MOL0     H80375   9.217   8.581   7.968 -0.1742  1.2751  0.9891
  609MOL0     H80376   9.042   8.753   7.363 -0.0066 -0.2612 -1.0228
  609MOL0     H80377   8.911   8.660   7.183  3.1667  0.3852  1.0443
  609MOL0     H80378   8.869   8.460   7.033  0.8302  0.0064  1.4804
  609MOL0     H80379   8.739   8.571   7.080  1.8901  0.9667 -0.9465
  609MOL0     H80380   8.675   8.414   6.898  0.5242  1.1124  0.1941
  609MOL0     H80381   8.689   8.276   7.001  1.0438 -0.3582 -0.2519
  609MOL0     H80382   8.520   8.461   7.149 -0.9159  0.5356 -0.8565
  609MOL0     H80383   8.479   8.301   7.077 -0.2625 -0.5282  1.6250
  609MOL0     H80384   8.441   8.593   6.973  1.7792  1.1326 -1.9333
  609MOL0     H80385   8.441   8.445   6.860 -1.5597 -0.5264  0.7979
  609MOL0     H80386   8.082   8.387   7.072  1.1518 -0.1962  2.5346
  609MOL0     H80387   8.822   8.336   7.462 -1.1228  1.1045 -0.1259
  609MOL0     H80388   8.977   8.426   7.629 -3.0132  0.2708  0.8573
  610MOL0     O80389   6.392   1.149   6.127 -1.1137  0.0032 -0.0059
  610MOL0     C80390   6.426   1.033   6.101 -0.1009  0.1174  0.7938
  610MOL0     O80391   6.340   0.924   6.080 -0.1610  0.3582  0.2747
  610MOL0     C80392   6.200   0.936   6.051 -0.2900  0.2303 -1.1823
  610MOL0     C80393   6.124   0.820   6.067 -0.0092  0.2055  0.1152
  610MOL0     C80394   5.987   0.824   6.050 -0.2041 -0.7732  0.0774
  610MOL0     C80395   5.923   0.944   6.010  0.0381 -0.1192 -0.3964
  610MOL0     O80396   5.784   0.943   6.008  0.4164  0.0698 -0.2422
  610MOL0     C80397   5.718   1.023   6.111 -0.5462 -0.6448  0.3823
  610MOL0     C80398   5.632   0.941   6.196  0.2234 -0.0923 -0.4925
  610MOL0     C80399   5.558   1.027   6.292 -0.4711  0.3953  0.7063
  610MOL0     C80400   5.444   0.946   6.356 -0.8686 -0.6396 -0.1313
  610MOL0     C80401   5.493   0.850   6.462  0.2760  0.8914  0.7621
  610MOL0     C80402   5.441   0.697   6.439  0.0278 -0.7271  0.1957
  610MOL0     C80403   5.287   0.695   6.453  0.1759 -0.1835 -0.5173
  610MOL0     C80404   5.237   0.557   6.436  0.3613  0.1979 -0.5941
  610MOL0     N80405   5.093   0.557   6.470 -0.0056  0.0810 -0.2877
  610MOL0     C80406   5.000   0.625   6.389 -0.6298 -0.5279 -0.7488
  610MOL0     C80407   4.882   0.598   6.438  0.4039  1.6197  0.0657
  610MOL0     C80408   4.750   0.646   6.384 -0.4952 -0.5572 -0.0167
  610MOL0     C80409   4.668   0.712   6.491  0.1958  0.7037 -0.3855
  610MOL0     C80410   4.516   0.722   6.451 -1.3537  0.3281  1.0420
  610MOL0     C80411   4.432   0.782   6.562  0.1596 -0.3480 -0.0930
  610MOL0     O80412   4.293   0.793   6.529 -0.5643  0.3554  0.2938
  610MOL0     C80413   4.190   0.785   6.612 -0.0358  0.4342 -0.3892
  610MOL0     C80414   4.069   0.829   6.557  0.2878  0.5767  0.2313
  610MOL0     C80415   3.953   0.833   6.636  1.0912 -1.2211 -0.4485
  610MOL0     C80416   3.956   0.791   6.770 -0.2577 -0.1409  0.6678
  610MOL0     C80417   3.843   0.820   6.855  0.8571  0.0793 -0.3727
  610MOL0     O80418   3.837   0.771   6.981 -0.3702  0.3336  0.5945
  610MOL0     C80419   3.722   0.791   7.051 -0.3179  0.1366 -0.0985
  610MOL0     C80420   3.720   0.872   7.171 -0.0398 -0.4087 -0.1381
  610MOL0     C80421   3.618   0.869   7.262  0.7365  1.4383 -0.2201
  610MOL0     C80422   3.501   0.792   7.234 -0.4643 -1.0030 -0.5127
  610MOL0     O80423   3.396   0.785   7.321  0.1352  0.9921  0.3023
  610MOL0     C80424   3.381   0.878   7.426  0.1641 -0.5285 -0.0799
  610MOL0     C80425   3.237   0.886   7.466  0.2405 -0.5802  0.0924
  610MOL0     C80426   3.203   0.778   7.575 -0.6235 -0.0352  0.4870
  610MOL0     C80427   3.065   0.797   7.639  0.4646  0.1025  0.7532
  610MOL0     C80428   3.023   0.690   7.737 -0.3121  0.2234 -0.0145
  610MOL0     C80429   3.107   0.703   7.871  0.1344  0.0593 -0.1386
  610MOL0     C80430   3.013   0.662   7.988 -0.0393  0.0041 -0.8040
  610MOL0     C80431   2.989   0.515   7.992  0.7232  0.3024 -0.0860
  610MOL0    Cl80432   2.833   0.475   7.902 -0.1936  0.3459 -0.6394
  610MOL0     C80433   3.499   0.718   7.123 -0.9237  0.1123 -0.0181
  610MOL0     C80434   3.612   0.700   7.033 -0.4231  0.2623  0.1597
  610MOL0     O80435   3.750   0.885   6.806  0.6689  0.3312 -0.3070
  610MOL0     C80436   4.084   0.748   6.827  0.1054 -0.5007  0.3109
  610MOL0     C80437   4.194   0.744   6.747 -0.6877  0.6205 -0.1153
  610MOL0     N80438   4.903   0.514   6.539  0.7978 -0.0103 -0.5582
  610MOL0     N80439   5.029   0.492   6.569  0.2251 -0.6612  0.1916
  610MOL0     C80440   6.001   1.057   5.995 -0.1309  0.5479 -0.6610
  610MOL0     C80441   6.138   1.061   6.008  0.2566  0.2458  0.0846
  610MOL0     C80442   6.571   1.002   6.099 -0.5112  0.3554 -0.1846
  610MOL0     C80443   6.666   1.102   6.142 -1.1576 -0.4577  0.7445
  610MOL0     C80444   6.802   1.074   6.166  0.9433 -0.7756  0.7990
  610MOL0     C80445   6.843   0.938   6.150  0.3189 -0.5048 -0.0153
  610MOL0     O80446   6.965   0.873   6.167  0.2322 -0.1630 -0.0890
  610MOL0     C80447   7.079   0.945   6.215  0.1418 -0.1319  0.8514
  610MOL0     C80448   7.065   0.957   6.364  0.1590  0.7780 -0.7114
  610MOL0     C80449   7.201   1.005   6.432  0.2650 -0.6996 -0.3170
  610MOL0     C80450   7.205   1.020   6.590 -0.9498 -0.1053 -0.8743
  610MOL0     C80451   7.188   0.888   6.653 -0.2703  0.1017  0.5485
  610MOL0     C80452   7.179   0.768   6.678  0.3551  0.2209  0.0689
  610MOL0     C80453   6.748   0.846   6.102  0.1075 -0.4343  0.3491
  610MOL0     C80454   6.610   0.869   6.080 -0.1967 -0.4657 -0.1084
  610MOL0     H80455   6.183   0.736   6.103  1.9715  0.8189 -1.5022
  610MOL0     H80456   5.936   0.728   6.055  1.5530 -1.6977  0.9176
  610MOL0     H80457   5.657   1.102   6.067  0.2643 -0.9860 -1.4382
  610MOL0     H80458   5.797   1.074   6.167 -0.6635  1.1544 -0.9993
  610MOL0     H80459   5.688   0.858   6.240 -0.9707  0.3871  2.1805
  610MOL0     H80460   5.558   0.892   6.132  0.5264 -0.2430 -0.7261
  610MOL0     H80461   5.525   1.111   6.231  2.1437  0.3071 -0.9612
  610MOL0     H80462   5.625   1.068   6.369  0.0330  2.4643 -0.7575
  610MOL0     H80463   5.375   1.019   6.399 -1.2039  0.0291 -1.7206
  610MOL0     H80464   5.385   0.890   6.282 -0.6705 -0.8320 -0.1446
  610MOL0     H80465   5.459   0.886   6.560  0.0214 -2.5143  2.0578
  610MOL0     H80466   5.603   0.845   6.467  0.1991 -0.6928  1.8493
  610MOL0     H80467   5.500   0.640   6.511 -2.0116  1.0145  3.4512
  610MOL0     H80468   5.471   0.662   6.339  1.7502 -2.6068  1.3096
  610MOL0     H80469   5.260   0.733   6.552  1.9741  1.4356 -0.5704
  610MOL0     H80470   5.230   0.759   6.385 -3.0491 -0.3103  1.8323
  610MOL0     H80471   5.304   0.494   6.495 -1.2616 -3.1985 -2.0857
  610MOL0     H80472   5.244   0.534   6.330  0.5093  2.0273 -1.0238
  610MOL0     H80473   5.023   0.689   6.304 -2.5689  0.5575 -0.5151
  610MOL0     H80474   4.690   0.564   6.344 -1.8926 -0.1903  1.2265
  610MOL0     H80475   4.758   0.732   6.315 -0.1903  0.0173  0.7232
  610MOL0     H80476   4.710   0.811   6.508 -0.5347  1.2023 -1.4380
  610MOL0     H80477   4.666   0.653   6.584  0.5697  2.6115  0.8994
  610MOL0     H80478   4.507   0.786   6.362  2.0243 -1.2423 -0.6212
  610MOL0     H80479   4.471   0.625   6.430  2.8631 -1.3675 -1.3582
  610MOL0     H80480   4.479   0.877   6.587  1.7579 -0.5879 -1.9382
  610MOL0     H80481   4.449   0.712   6.644  1.3423 -1.1274 -0.9584
  610MOL0     H80482   4.072   0.856   6.452 -0.4531 -0.9848 -0.2183
  610MOL0     H80483   3.858   0.867   6.598  2.4256  2.2094 -1.0378
  610MOL0     H80484   3.801   0.940   7.195 -1.5467  1.0104  1.1911
  610MOL0     H80485   3.614   0.916   7.359 -2.9763  0.0562  0.4858
  610MOL0     H80486   3.419   0.977   7.402 -1.9266  0.5892  1.0231
  610MOL0     H80487   3.439   0.842   7.512 -1.6409 -1.6010  0.7651
  610MOL0     H80488   3.168   0.866   7.383  1.5424  2.5992 -1.9360
  610MOL0     H80489   3.213   0.988   7.498 -1.5867 -0.1739 -2.3182
  610MOL0     H80490   3.280   0.770   7.652 -0.7924  0.8484  0.7613
  610MOL0     H80491   3.202   0.681   7.525 -1.1971 -0.8397  2.0007
  610MOL0     H80492   3.068   0.892   7.694  1.9883  0.7012 -0.2926
  610MOL0     H80493   2.990   0.808   7.561  1.3502 -0.5429 -0.2098
  610MOL0     H80494   3.040   0.591   7.695  3.1503  0.1971  1.1429
  610MOL0     H80495   2.916   0.699   7.756  0.0954 -1.0797  3.5467
  610MOL0     H80496   3.151   0.799   7.898  0.5711 -0.0257 -0.5496
  610MOL0     H80497   3.196   0.640   7.873  2.2413  2.8411  1.9262
  610MOL0     H80498   3.043   0.700   8.086  0.4641  1.8577 -1.6489
  610MOL0     H80499   2.913   0.700   7.967  0.7889  1.3716 -2.4279
  610MOL0     H80500   2.961   0.478   8.091 -0.0690 -0.2048 -0.4848
  610MOL0     H80501   3.079   0.463   7.956  0.0185 -1.0032 -0.0197
  610MOL0     H80502   3.415   0.650   7.111 -1.0971  0.3245 -0.0063
  610MOL0     H80503   3.617   0.634   6.947 -1.4762 -0.1256  0.3755
  610MOL0     H80504   4.112   0.728   6.929  0.3901  0.1223  0.3574
  610MOL0     H80505   4.284   0.713   6.799 -0.5230  0.3885 -0.5305
  610MOL0     H80506   5.945   1.146   5.968 -0.0464  0.5936 -0.6846
  610MOL0     H80507   6.185   1.158   5.999 -1.2390  1.3778  3.0461
  610MOL0     H80508   6.631   1.205   6.151  1.3004  0.7500 -2.0290
  610MOL0     H80509   6.874   1.148   6.201  0.5869  0.1427 -0.3359
  610MOL0     H80510   7.082   1.043   6.166 -0.6926 -0.2015  0.6411
  610MOL0     H80511   7.174   0.896   6.195 -0.6832 -2.1456  1.5751
  610MOL0     H80512   6.988   1.029   6.394  0.9156  1.1545  0.3891
  610MOL0     H80513   7.043   0.858   6.404  1.8921 -0.3480 -2.3748
  610MOL0     H80514   7.234   1.106   6.407  0.9767 -0.6248  0.8247
  610MOL0     H80515   7.283   0.941   6.399  0.4579  0.4256 -2.1303
  610MOL0     H80516   7.299   1.071   6.614 -1.9201  1.6182 -0.5485
  610MOL0     H80517   7.127   1.089   6.624 -1.4227 -1.5094  1.0656
  610MOL0     H80518   7.174   0.663   6.700  0.2806  0.6697  2.4538
  610MOL0     H80519   6.783   0.750   6.065  1.9956  0.3195  0.1055
  610MOL0     H80520   6.547   0.787   6.045  1.9542 -1.3409 -2.2794
  611MOL0     O80521   6.124   0.563   6.307 -0.6821 -0.2001  0.3113
  611MOL0     C80522   6.203   0.583   6.406  0.7059  0.6202  0.5954
  611MOL0     O80523   6.218   0.690   6.473 -0.4359 -0.1970 -0.0138
  611MOL0     C80524   6.149   0.803   6.452  0.4569  0.9141 -0.3237
  611MOL0     C80525   6.214   0.921   6.426  0.1807 -0.4592 -0.0559
  611MOL0     C80526   6.139   1.037   6.407  0.0408 -0.7981 -0.1227
  611MOL0     C80527   5.999   1.035   6.395  0.4958  0.6542 -0.4500
  611MOL0     O80528   5.920   1.144   6.359  0.5941 -0.1557 -0.2442
  611MOL0     C80529   5.958   1.272   6.411 -0.4373 -0.0868  0.0159
  611MOL0     C80530   5.844   1.373   6.391 -0.5408 -0.1189  1.8179
  611MOL0     C80531   5.806   1.384   6.240  0.8126  0.7855 -0.4660
  611MOL0     C80532   5.711   1.498   6.212 -0.2161 -0.3559  0.6751
  611MOL0     C80533   5.603   1.466   6.106  0.4151 -0.0832 -0.5992
  611MOL0     C80534   5.537   1.586   6.042 -0.4588 -0.2730  0.3275
  611MOL0     C80535   5.474   1.675   6.142  0.6893 -0.4268  0.0058
  611MOL0     C80536   5.378   1.782   6.077  0.3793 -0.1571 -0.1798
  611MOL0     N80537   5.283   1.833   6.186 -0.3421 -0.2553 -0.6327
  611MOL0     C80538   5.163   1.783   6.232  0.1085 -0.1046  0.3136
  611MOL0     C80539   5.118   1.873   6.326 -0.4634 -0.1857 -0.4585
  611MOL0     C80540   4.990   1.851   6.407 -0.5454 -0.2150  0.8178
  611MOL0     C80541   4.878   1.948   6.359 -0.4026  0.2608  0.0856
  611MOL0     C80542   4.806   2.026   6.468 -0.0686  0.1530  0.3383
  611MOL0     C80543   4.715   2.136   6.421  0.3436  0.0079  0.1524
  611MOL0     O80544   4.725   2.247   6.505  1.3354  0.6500  0.1530
  611MOL0     C80545   4.639   2.351   6.490 -0.8220  0.5060  1.6271
  611MOL0     C80546   4.550   2.358   6.379 -0.9891  0.4622 -0.0208
  611MOL0     C80547   4.482   2.471   6.357 -0.1439 -1.0984  0.3621
  611MOL0     C80548   4.501   2.583   6.442 -0.2968  0.4591  0.0391
  611MOL0     C80549   4.427   2.703   6.424 -0.2199 -0.2055 -0.5412
  611MOL0     O80550   4.434   2.790   6.518  0.1703  0.5159  0.0233
  611MOL0     C80551   4.371   2.909   6.502  0.1861  1.0884 -0.7021
  611MOL0     C80552   4.394   3.001   6.399 -0.5838  0.1775 -0.0836
  611MOL0     C80553   4.335   3.124   6.402  0.2682  0.4611  0.8634
  611MOL0     C80554   4.250   3.162   6.510 -0.1570 -0.7996 -0.1306
  611MOL0     O80555   4.190   3.286   6.525 -0.1090  0.3288  0.4926
  611MOL0     C80556   4.237   3.402   6.461  0.2175 -0.7417  0.0757
  611MOL0     C80557   4.181   3.521   6.548  0.2398 -0.0728 -0.2998
  611MOL0     C80558   4.237   3.666   6.529  0.3697 -0.0345  0.8273
  611MOL0     C80559   4.172   3.751   6.644  0.0281  0.2377  1.5167
  611MOL0     C80560   4.251   3.876   6.672 -0.3753 -1.3175 -1.1316
  611MOL0     C80561   4.252   3.977   6.555  0.1975  0.4380  0.8956
  611MOL0     C80562   4.310   4.116   6.607  1.1331  0.1543  0.0366
  611MOL0     C80563   4.252   4.228   6.523 -0.2621 -0.6773 -0.6289
  611MOL0    Cl80564   4.319   4.369   6.596  0.1660 -0.0170  0.0971
  611MOL0     C80565   4.227   3.073   6.612  0.4574  0.4815 -0.2858
  611MOL0     C80566   4.296   2.948   6.617 -0.0183 -0.3105  0.2523
  611MOL0     O80567   4.369   2.711   6.321 -0.7351 -0.2872 -0.1266
  611MOL0     C80568   4.600   2.575   6.545  0.9219 -0.0020  0.1127
  611MOL0     C80569   4.664   2.458   6.575 -0.4234 -0.2086 -0.2752
  611MOL0     N80570   5.214   1.975   6.341 -0.1782  0.4730  0.1060
  611MOL0     N80571   5.311   1.955   6.256  0.1989 -0.0731 -0.2022
  611MOL0     C80572   5.934   0.916   6.435  0.0858 -0.3978  0.4961
  611MOL0     C80573   6.009   0.803   6.461 -0.3473  0.3723 -0.3715
  611MOL0     C80574   6.283   0.468   6.445  0.1419  1.0279 -0.1451
  611MOL0     C80575   6.267   0.338   6.387  0.0585  0.2383 -0.6504
  611MOL0     C80576   6.350   0.227   6.421  0.0630 -0.6754 -0.1380
  611MOL0     C80577   6.454   0.253   6.510  1.2778  0.2814 -0.1059
  611MOL0     O80578   6.552   0.159   6.519 -0.0737 -0.4282 -0.1142
  611MOL0     C80579   6.642   0.175   6.631  0.1859  0.5249 -0.5023
  611MOL0     C80580   6.733   0.049   6.639 -0.1679 -0.3922 -0.1470
  611MOL0     C80581   6.826   0.041   6.520  0.1926 -0.7585  0.0177
  611MOL0     C80582   6.930  -0.062   6.551  0.5316  0.0811 -0.7067
  611MOL0     C80583   7.024  -0.052   6.444 -0.5872 -0.9482  0.2663
  611MOL0     C80584   7.115  -0.056   6.363  0.0756  0.1870  1.3352
  611MOL0     C80585   6.469   0.374   6.581  0.4002  0.6375  0.1912
  611MOL0     C80586   6.386   0.481   6.546 -0.7673  0.0004  0.5986
  611MOL0     H80587   6.322   0.921   6.421  0.2326  1.7524  0.0953
  611MOL0     H80588   6.203   1.124   6.393  0.3763 -0.8414  1.0108
  611MOL0     H80589   6.044   1.303   6.351  0.0226  1.2067  1.2911
  611MOL0     H80590   5.985   1.254   6.516 -0.4646  0.0882  0.0524
  611MOL0     H80591   5.869   1.475   6.420 -0.5772  2.0660 -4.4118
  611MOL0     H80592   5.753   1.352   6.448  0.3115  1.6062  3.9339
  611MOL0     H80593   5.768   1.290   6.197  3.3932 -0.6016  0.0582
  611MOL0     H80594   5.899   1.399   6.184  3.1380 -4.4399  1.3595
  611MOL0     H80595   5.653   1.516   6.303  0.1661 -0.6788  0.9908
  611MOL0     H80596   5.778   1.576   6.175 -1.7988 -0.3877 -2.5421
  611MOL0     H80597   5.527   1.401   6.150  0.6040  0.5709  0.7483
  611MOL0     H80598   5.656   1.413   6.027  0.0600 -0.7314 -0.4128
  611MOL0     H80599   5.473   1.564   5.956  0.1329  0.3990 -0.2880
  611MOL0     H80600   5.613   1.639   5.986  0.5457 -2.6331 -0.6745
  611MOL0     H80601   5.421   1.618   6.219  0.9154  0.2442  0.6784
  611MOL0     H80602   5.559   1.720   6.196 -2.0974  2.2508  2.5524
  611MOL0     H80603   5.323   1.736   5.995  2.8303 -0.7092 -1.6084
  611MOL0     H80604   5.435   1.863   6.031  0.1553 -1.0713 -2.1402
  611MOL0     H80605   5.114   1.700   6.183  1.9348  0.8755 -3.5389
  611MOL0     H80606   5.023   1.850   6.511  0.2456 -1.0484  0.5707
  611MOL0     H80607   4.952   1.749   6.398  2.5452 -1.3971 -0.0657
  611MOL0     H80608   4.804   1.899   6.295  0.5698  0.2717 -1.0739
  611MOL0     H80609   4.921   2.019   6.288  0.5902 -1.2857 -0.9182
  611MOL0     H80610   4.746   1.946   6.513  1.9993 -1.5305  0.2846
  611MOL0     H80611   4.876   2.063   6.543 -1.6673  2.5336  0.7510
  611MOL0     H80612   4.615   2.091   6.415  1.7697 -3.2810 -2.2024
  611MOL0     H80613   4.745   2.175   6.323 -0.2882  3.0457  1.0627
  611MOL0     H80614   4.541   2.269   6.317  1.0760  0.0700  0.1876
  611MOL0     H80615   4.410   2.472   6.276 -0.4301  1.0257  0.5750
  611MOL0     H80616   4.456   2.990   6.310 -0.4912  4.6667 -0.8332
  611MOL0     H80617   4.367   3.186   6.319  3.0708 -1.3927  0.4393
  611MOL0     H80618   4.210   3.412   6.355 -1.5364 -0.9685  0.4776
  611MOL0     H80619   4.346   3.410   6.462  0.2916 -0.0179 -2.8951
  611MOL0     H80620   4.197   3.496   6.653 -1.7722  0.4057  0.1600
  611MOL0     H80621   4.075   3.521   6.523  0.5492 -0.4741 -1.6984
  611MOL0     H80622   4.207   3.706   6.432 -1.0562 -1.2145  0.7598
  611MOL0     H80623   4.345   3.668   6.542  0.8421 -3.9990 -1.2382
  611MOL0     H80624   4.072   3.774   6.607  0.2025 -0.5105  0.5277
  611MOL0     H80625   4.164   3.700   6.740  0.0783 -0.7053  1.0349
  611MOL0     H80626   4.353   3.847   6.698 -0.8277 -1.0773  1.1557
  611MOL0     H80627   4.220   3.929   6.763  1.1606 -0.1926 -1.2130
  611MOL0     H80628   4.152   3.999   6.516  0.3477 -0.2852  0.0960
  611MOL0     H80629   4.302   3.935   6.468  0.2014  0.3136  0.9581
  611MOL0     H80630   4.283   4.132   6.712 -1.1632 -2.4412 -0.0338
  611MOL0     H80631   4.418   4.112   6.591  0.9735 -2.2742 -0.8317
  611MOL0     H80632   4.144   4.245   6.531  0.1217  1.9604  0.1321
  611MOL0     H80633   4.286   4.221   6.419  0.4752 -2.3134 -0.3025
  611MOL0     H80634   4.156   3.095   6.691  0.2777 -2.0667  0.3489
  611MOL0     H80635   4.280   2.878   6.698  0.8279 -0.1863  0.5389
  611MOL0     H80636   4.610   2.664   6.607  1.4065 -0.1832  0.2926
  611MOL0     H80637   4.738   2.448   6.653  0.0520 -0.2899 -0.7265
  611MOL0     H80638   5.826   0.912   6.424  0.2489 -0.4691 -1.7171
  611MOL0     H80639   5.963   0.705   6.472  0.2198  0.0815 -0.4921
  611MOL0     H80640   6.191   0.322   6.311 -1.4986 -1.6104  1.1687
  611MOL0     H80641   6.354   0.138   6.359  0.5073 -1.0535  0.4280
  611MOL0     H80642   6.582   0.187   6.722 -3.2003 -0.3647 -2.4402
  611MOL0     H80643   6.709   0.260   6.617  1.0388  0.1754  1.1525
  611MOL0     H80644   6.792   0.048   6.731 -0.0079 -2.5658 -0.2137
  611MOL0     H80645   6.662  -0.033   6.644  0.4838 -1.0242 -0.8752
  611MOL0     H80646   6.873   0.138   6.501  0.6727 -1.1230 -0.6683
  611MOL0     H80647   6.774   0.011   6.428  0.4615 -0.1139 -0.3531
  611MOL0     H80648   6.983  -0.035   6.643  1.3722  1.0803 -1.4436
  611MOL0     H80649   6.891  -0.164   6.552  2.2459 -0.6122 -0.0628
  611MOL0     H80650   7.191  -0.050   6.289 -2.5529  2.5656 -1.4348
  611MOL0     H80651   6.553   0.403   6.644  2.0195 -1.1015 -1.0756
  611MOL0     H80652   6.402   0.579   6.589  1.8199 -0.5291  0.9861
  612MOL0     O80653   6.219   5.752   6.268 -0.7077 -0.3579  0.2256
  612MOL0     C80654   6.201   5.799   6.154  1.0844 -0.0877 -0.0475
  612MOL0     O80655   6.115   5.903   6.123 -0.4759 -0.3018  0.0922
  612MOL0     C80656   6.018   5.949   6.208 -0.2847 -0.9248  0.1845
  612MOL0     C80657   5.975   5.889   6.329 -0.2969 -0.4444  0.7746
  612MOL0     C80658   5.863   5.936   6.388 -0.3354 -0.2982 -0.1025
  612MOL0     C80659   5.790   6.042   6.332  0.4107 -0.4891  0.6252
  612MOL0     O80660   5.681   6.097   6.396 -0.1450 -0.0708 -0.0363
  612MOL0     C80661   5.701   6.103   6.539 -0.3639 -0.4556  0.9100
  612MOL0     C80662   5.607   6.213   6.598  1.2105 -0.3604 -0.7284
  612MOL0     C80663   5.464   6.220   6.555  0.1869  0.0495  0.3953
  612MOL0     C80664   5.381   6.335   6.610  0.3864 -0.8510  0.3424
  612MOL0     C80665   5.236   6.320   6.554  0.0404 -0.3446  0.6278
  612MOL0     C80666   5.148   6.444   6.605 -0.0321  0.3092 -0.3377
  612MOL0     C80667   5.006   6.436   6.566  0.8292  0.5473 -0.5286
  612MOL0     C80668   4.962   6.416   6.423 -0.8075 -0.2329  0.3106
  612MOL0     N80669   4.814   6.423   6.415 -0.5937 -0.6449 -0.7307
  612MOL0     C80670   4.731   6.539   6.413  0.8412  0.2539  0.1362
  612MOL0     C80671   4.605   6.483   6.410 -0.9726 -0.6078 -0.5473
  612MOL0     C80672   4.473   6.566   6.398  0.2509  0.8264  0.0600
  612MOL0     C80673   4.372   6.519   6.299  1.2741  0.5083 -0.4433
  612MOL0     C80674   4.274   6.627   6.236  0.1314  0.0404  0.0074
  612MOL0     C80675   4.184   6.699   6.339 -0.8090  0.2857  0.7202
  612MOL0     O80676   4.114   6.805   6.272  0.0008  0.0520  0.1804
  612MOL0     C80677   3.982   6.781   6.228  0.5609  0.4453 -0.4505
  612MOL0     C80678   3.942   6.652   6.188  0.1328  0.1611  0.5719
  612MOL0     C80679   3.810   6.618   6.150 -0.3829 -0.3536 -0.4417
  612MOL0     C80680   3.709   6.716   6.155  0.2453  0.0778  0.1885
  612MOL0     C80681   3.570   6.687   6.116  0.3190  0.4018  0.1372
  612MOL0     O80682   3.530   6.552   6.114  0.6452 -0.3197  0.1026
  612MOL0     C80683   3.392   6.538   6.103  0.4776 -0.3626  0.0648
  612MOL0     C80684   3.308   6.593   6.189 -0.3304 -0.0441 -0.5892
  612MOL0     C80685   3.175   6.578   6.176  0.4689 -0.1235 -0.0169
  612MOL0     C80686   3.120   6.512   6.076  0.0396  0.5085  0.3120
  612MOL0     O80687   2.982   6.482   6.069 -0.4998 -0.2375  0.3385
  612MOL0     C80688   2.920   6.501   5.939 -0.0238 -0.1666 -0.7142
  612MOL0     C80689   2.768   6.491   5.933 -0.0618  1.2545 -0.1271
  612MOL0     C80690   2.715   6.352   5.983 -0.1277 -0.3830  0.2050
  612MOL0     C80691   2.571   6.342   5.942 -0.0821 -0.4985  0.4570
  612MOL0     C80692   2.524   6.199   5.956 -0.2611  0.3220 -0.5453
  612MOL0     C80693   2.389   6.187   5.883  0.5014  0.4161 -0.1198
  612MOL0     C80694   2.365   6.050   5.823  0.2871  0.7074 -0.3729
  612MOL0     C80695   2.319   5.941   5.934 -0.1696 -0.1791  1.0588
  612MOL0    Cl80696   2.167   6.005   5.994  0.0701 -0.1043  0.0171
  612MOL0     C80697   3.203   6.449   5.983 -1.2936 -0.9525  0.7911
  612MOL0     C80698   3.339   6.460   5.997 -0.0921  0.4307 -0.0038
  612MOL0     O80699   3.502   6.783   6.076 -0.1275 -0.4648  1.1644
  612MOL0     C80700   3.741   6.846   6.193  0.3667 -0.8783  0.5490
  612MOL0     C80701   3.875   6.873   6.236  0.2249  0.5258  0.3298
  612MOL0     N80702   4.618   6.349   6.425  0.0344  0.4706  0.9337
  612MOL0     N80703   4.739   6.316   6.418 -0.4379 -0.3287 -0.5679
  612MOL0     C80704   5.825   6.096   6.213 -0.2735  0.4101  0.2491
  612MOL0     C80705   5.946   6.048   6.152 -0.0460 -0.2902 -0.0690
  612MOL0     C80706   6.292   5.767   6.048  0.3395  0.2966 -0.1334
  612MOL0     C80707   6.387   5.671   6.069 -0.5950  0.2826  0.2481
  612MOL0     C80708   6.469   5.629   5.973 -0.3007  0.4460  0.0965
  612MOL0     C80709   6.478   5.706   5.852  0.2310  0.0003 -0.0073
  612MOL0     O80710   6.581   5.683   5.757  0.1781 -0.6405 -0.4136
  612MOL0     C80711   6.551   5.558   5.679 -0.0416  0.5304  0.2934
  612MOL0     C80712   6.680   5.502   5.620  0.3298 -0.6298  0.3895
  612MOL0     C80713   6.819   5.563   5.670  0.4706 -0.1058  0.6965
  612MOL0     C80714   6.931   5.480   5.617 -0.3459  0.1026 -0.4749
  612MOL0     C80715   7.064   5.512   5.666  0.6984 -0.2268  0.7441
  612MOL0     C80716   7.179   5.531   5.699  0.4830  0.1281  0.3516
  612MOL0     C80717   6.390   5.805   5.825  0.2773 -0.1078  0.4963
  612MOL0     C80718   6.286   5.830   5.920 -0.5339  0.5103  0.6865
  612MOL0     H80719   6.016   5.798   6.371  1.1106  0.5757  1.7177
  612MOL0     H80720   5.837   5.890   6.483 -0.3036  3.8821  2.1813
  612MOL0     H80721   5.802   6.139   6.562  0.2442 -0.7029 -1.1609
  612MOL0     H80722   5.674   6.010   6.589  0.1784 -1.7034 -1.0123
  612MOL0     H80723   5.663   6.306   6.588  1.4272 -0.2965  0.8662
  612MOL0     H80724   5.602   6.198   6.706  0.0132  2.7494 -0.2625
  612MOL0     H80725   5.407   6.129   6.576  1.6428 -0.2539  3.4809
  612MOL0     H80726   5.466   6.213   6.445 -0.1613 -3.3603  0.4970
  612MOL0     H80727   5.374   6.319   6.718 -1.3174 -1.4376  0.1778
  612MOL0     H80728   5.430   6.425   6.572 -2.9087  1.0405  0.2265
  612MOL0     H80729   5.198   6.221   6.582 -1.0377  0.0727  0.6853
  612MOL0     H80730   5.247   6.307   6.446  3.9690 -4.3560  1.2335
  612MOL0     H80731   5.203   6.529   6.564 -0.7725  0.3963 -1.1892
  612MOL0     H80732   5.149   6.457   6.714  1.9753 -1.2964 -0.0907
  612MOL0     H80733   4.980   6.351   6.629 -0.1159  2.5685  2.0311
  612MOL0     H80734   4.947   6.519   6.608  0.3731 -0.3467  0.6630
  612MOL0     H80735   5.002   6.318   6.394  3.7874  0.9578  1.7508
  612MOL0     H80736   5.010   6.488   6.356 -0.8117 -0.2149  0.3272
  612MOL0     H80737   4.751   6.644   6.395  0.6492  0.4293  0.9232
  612MOL0     H80738   4.505   6.670   6.389 -0.4705  1.3984  3.0261
  612MOL0     H80739   4.421   6.558   6.494 -1.2511 -0.3850 -0.8067
  612MOL0     H80740   4.317   6.436   6.344  3.7328 -1.6773 -1.2131
  612MOL0     H80741   4.428   6.477   6.214 -0.3249 -0.2448 -1.1610
  612MOL0     H80742   4.336   6.708   6.197  2.2514 -0.8289  1.4302
  612MOL0     H80743   4.205   6.586   6.161 -0.6288  0.5618  0.4174
  612MOL0     H80744   4.248   6.744   6.415 -1.9320 -2.6659  3.6377
  612MOL0     H80745   4.113   6.636   6.392  1.7571 -1.5949  2.1459
  612MOL0     H80746   4.013   6.569   6.189 -0.9548 -0.8477 -1.2294
  612MOL0     H80747   3.777   6.519   6.120 -0.6813  0.0393 -1.4474
  612MOL0     H80748   3.351   6.636   6.278 -1.3181 -1.5637  0.6744
  612MOL0     H80749   3.103   6.600   6.254 -0.8101 -4.1769  0.1812
  612MOL0     H80750   2.959   6.439   5.857 -0.9164 -0.0639 -1.2352
  612MOL0     H80751   2.946   6.602   5.907  1.8282  0.4458  2.3752
  612MOL0     H80752   2.742   6.490   5.827  0.6324 -1.8002 -0.3773
  612MOL0     H80753   2.725   6.566   6.000  0.8571 -0.7388  2.9124
  612MOL0     H80754   2.722   6.335   6.091 -0.0830 -2.5958 -0.0943
  612MOL0     H80755   2.763   6.276   5.920 -0.1584  0.5356 -0.9530
  612MOL0     H80756   2.507   6.407   6.002  1.1252  1.3079 -0.1114
  612MOL0     H80757   2.567   6.383   5.840  1.6684  0.0700  0.5923
  612MOL0     H80758   2.519   6.178   6.063  2.3180  0.4849 -0.3278
  612MOL0     H80759   2.598   6.132   5.910  0.4665  1.6115 -1.2939
  612MOL0     H80760   2.390   6.252   5.795  1.7879  0.7857  0.1518
  612MOL0     H80761   2.303   6.211   5.947  1.4192 -1.0219  1.7694
  612MOL0     H80762   2.283   6.055   5.751  1.0578 -1.0828 -1.4436
  612MOL0     H80763   2.447   6.003   5.768 -2.7649 -2.3351 -2.7831
  612MOL0     H80764   2.402   5.939   6.005  1.1928  0.5652 -0.4365
  612MOL0     H80765   2.308   5.848   5.877 -0.2034  0.3026  0.2665
  612MOL0     H80766   3.168   6.400   5.892 -0.2774 -0.0725 -0.1065
  612MOL0     H80767   3.406   6.418   5.923  1.4119 -1.3147  2.2172
  612MOL0     H80768   3.676   6.932   6.181 -0.3303 -0.9766  2.9805
  612MOL0     H80769   3.887   6.972   6.280 -0.6286  0.7858 -0.0036
  612MOL0     H80770   5.767   6.176   6.168 -0.0459  0.8775  0.7804
  612MOL0     H80771   5.986   6.094   6.062 -2.5622 -2.7784 -2.6637
  612MOL0     H80772   6.380   5.616   6.162 -1.4251 -0.6842 -0.3644
  612MOL0     H80773   6.532   5.543   5.990  0.1839  0.8362  0.2815
  612MOL0     H80774   6.476   5.566   5.600  0.9895 -0.9581 -0.9063
  612MOL0     H80775   6.504   5.476   5.733 -1.0235 -0.7075 -2.2680
  612MOL0     H80776   6.678   5.396   5.647 -1.8844 -0.6736  0.2498
  612MOL0     H80777   6.667   5.510   5.511  1.6176  0.5723  0.2980
  612MOL0     H80778   6.824   5.556   5.779  1.3314 -0.9974  0.6143
  612MOL0     H80779   6.840   5.665   5.636 -1.5893  0.6266  1.4027
  612MOL0     H80780   6.904   5.377   5.645 -1.2933  0.4863  0.0597
  612MOL0     H80781   6.923   5.473   5.509 -1.8784 -0.3907 -0.3481
  612MOL0     H80782   7.269   5.562   5.748  0.7110 -0.5990  0.4080
  612MOL0     H80783   6.390   5.843   5.723 -0.9080 -0.7771  0.2316
  612MOL0     H80784   6.220   5.915   5.904  0.7569  1.6391  1.2266
  613MOL0     O80785   7.478   0.213   7.416 -0.3911 -0.0278 -0.2668
  613MOL0     C80786   7.501   0.121   7.342  1.0330  0.5783 -0.4494
  613MOL0     O80787   7.411   0.023   7.309  0.8376 -0.1269  0.8155
  613MOL0     C80788   7.295   0.022   7.390  0.2631  0.1326  0.4958
  613MOL0     C80789   7.304   0.012   7.529 -0.0302  0.5388  0.6432
  613MOL0     C80790   7.185   0.019   7.600  0.2626  0.6097 -0.5368
  613MOL0     C80791   7.064   0.047   7.538 -0.2560 -0.9611 -0.5654
  613MOL0     O80792   6.944   0.076   7.595  0.5651  0.4535  0.1530
  613MOL0     C80793   6.942   0.079   7.742 -0.7580  0.8870  0.1966
  613MOL0     C80794   6.800   0.124   7.791 -0.1488 -0.2703  1.0767
  613MOL0     C80795   6.682   0.030   7.754 -0.1894  0.0266  0.9915
  613MOL0     C80796   6.545   0.090   7.779 -0.2370 -0.1280  1.2859
  613MOL0     C80797   6.442   0.018   7.682 -0.1161 -0.3726  0.6994
  613MOL0     C80798   6.305   0.083   7.695  0.0784 -0.5381 -0.6336
  613MOL0     C80799   6.216   0.047   7.578  0.5949 -0.3840 -0.3635
  613MOL0     C80800   6.074   0.099   7.600  0.6000 -0.0969  0.3870
  613MOL0     N80801   5.995   0.064   7.476 -0.3350 -0.3184 -0.7151
  613MOL0     C80802   5.970   0.154   7.369 -0.0160 -0.5716  0.2214
  613MOL0     C80803   5.886   0.085   7.289 -0.1356  0.1759  1.3183
  613MOL0     C80804   5.867   0.133   7.141  0.2093  0.4477  0.2362
  613MOL0     C80805   5.776   0.251   7.117 -0.1946 -0.2307  0.0783
  613MOL0     C80806   5.637   0.242   7.183  0.2577 -0.2820 -0.1170
  613MOL0     C80807   5.555   0.366   7.142 -0.1217  0.0392 -0.0875
  613MOL0     O80808   5.593   0.465   7.234 -0.1080 -0.8163  0.8318
  613MOL0     C80809   5.508   0.504   7.334  0.0895 -0.3020 -0.0244
  613MOL0     C80810   5.410   0.419   7.390  0.0134  0.6296  0.5563
  613MOL0     C80811   5.317   0.467   7.491 -0.5543  0.4170  0.8923
  613MOL0     C80812   5.323   0.598   7.528 -0.3612 -0.0276 -0.0783
  613MOL0     C80813   5.219   0.657   7.617 -0.7247  0.4132  0.0544
  613MOL0     O80814   5.207   0.795   7.610 -0.2089 -0.3778 -0.4837
  613MOL0     C80815   5.103   0.847   7.690 -0.2337  0.2101  0.1003
  613MOL0     C80816   5.110   0.841   7.830  0.3322  0.0715  0.2704
  613MOL0     C80817   5.004   0.896   7.900 -0.2319  0.1492 -0.5318
  613MOL0     C80818   4.900   0.959   7.834  0.9907 -0.0025 -0.6851
  613MOL0     O80819   4.810   1.016   7.920  0.2884  0.7518 -0.7546
  613MOL0     C80820   4.710   1.112   7.870  0.4091  0.8184 -0.5714
  613MOL0     C80821   4.580   1.023   7.847  0.5740  0.0778  0.7628
  613MOL0     C80822   4.529   0.928   7.961 -0.4109  0.4466  0.2249
  613MOL0     C80823   4.405   0.861   7.913 -1.2856 -0.5575 -0.6194
  613MOL0     C80824   4.317   0.810   8.025 -0.0087 -0.9397 -0.1422
  613MOL0     C80825   4.250   0.677   7.995 -0.1018  0.4316 -0.0966
  613MOL0     C80826   4.130   0.660   8.091 -0.2998  0.2101  0.4799
  613MOL0     C80827   4.036   0.542   8.057  0.4503  0.5044 -0.1328
  613MOL0    Cl80828   3.874   0.554   8.129 -0.6225  0.1445 -0.2689
  613MOL0     C80829   4.885   0.960   7.696 -1.2991  0.2600 -0.2187
  613MOL0     C80830   4.997   0.906   7.628 -0.0519 -0.1334  1.0699
  613MOL0     O80831   5.160   0.584   7.694  0.2806 -0.0202  0.1797
  613MOL0     C80832   5.427   0.677   7.480 -0.4804 -0.0640  0.2995
  613MOL0     C80833   5.520   0.629   7.387 -0.7565  0.3721  0.9086
  613MOL0     N80834   5.847  -0.030   7.357  0.3017  0.0458  0.3587
  613MOL0     N80835   5.909  -0.040   7.473  1.0156 -0.3040 -0.7679
  613MOL0     C80836   7.062   0.058   7.399 -0.2135 -0.7586  0.0533
  613MOL0     C80837   7.176   0.048   7.323  0.4840 -0.0990  0.4429
  613MOL0     C80838   7.632   0.123   7.274 -0.5542 -0.2059  0.3548
  613MOL0     C80839   7.716   0.243   7.277 -0.8852  0.2436  0.7512
  613MOL0     C80840   7.839   0.237   7.214 -0.3319 -0.7653 -0.8612
  613MOL0     C80841   7.880   0.124   7.145  0.9739  0.5177  0.9153
  613MOL0     O80842   7.997   0.115   7.076 -0.5899  0.2406  0.8860
  613MOL0     C80843   8.102   0.202   7.109 -0.7726  1.0137  0.2521
  613MOL0     C80844   8.206   0.190   6.994  0.3244  0.5967 -0.3438
  613MOL0     C80845   8.255   0.044   6.971 -0.0501  0.3834  0.4553
  613MOL0     C80846   8.321   0.033   6.834 -0.4962  0.5232  0.4794
  613MOL0     C80847   8.380  -0.105   6.824 -0.2111 -0.4491 -0.4281
  613MOL0     C80848   8.454  -0.202   6.814 -0.3684 -0.1597 -0.6026
  613MOL0     C80849   7.795   0.016   7.125  0.2675 -0.2482 -0.6594
  613MOL0     C80850   7.672   0.013   7.197 -0.0374  0.1920  0.6097
  613MOL0     H80851   7.405   0.007   7.568  0.4625  1.4044 -0.4758
  613MOL0     H80852   7.195  -0.003   7.706 -2.6422  2.4057  0.2063
  613MOL0     H80853   7.007   0.158   7.782 -0.3616  1.3161 -1.2228
  613MOL0     H80854   6.976  -0.016   7.784  0.8494  1.5539  0.5106
  613MOL0     H80855   6.776   0.224   7.753 -0.4493  0.1895  2.4268
  613MOL0     H80856   6.801   0.137   7.900 -0.5051 -1.0089  1.1766
  613MOL0     H80857   6.690  -0.059   7.817  2.6613 -0.9585 -0.5847
  613MOL0     H80858   6.686  -0.003   7.650  1.6751 -1.9874  1.6375
  613MOL0     H80859   6.514   0.085   7.884  1.5319  0.4769  1.8721
  613MOL0     H80860   6.545   0.190   7.735 -1.6193 -1.2524 -1.5628
  613MOL0     H80861   6.439  -0.085   7.718 -0.1797 -0.5974  0.0601
  613MOL0     H80862   6.473   0.012   7.577 -0.7810  2.1486  0.3115
  613MOL0     H80863   6.312   0.192   7.687  1.0721 -0.3392  1.9273
  613MOL0     H80864   6.258   0.052   7.788  0.8579 -2.8271 -0.9235
  613MOL0     H80865   6.251   0.090   7.484  0.5603 -1.4478 -0.8720
  613MOL0     H80866   6.209  -0.062   7.569 -3.0338 -0.2650 -0.5602
  613MOL0     H80867   6.072   0.206   7.623 -1.4527 -0.0138  0.0285
  613MOL0     H80868   6.027   0.049   7.685 -0.6105  0.6138  0.1537
  613MOL0     H80869   6.027   0.239   7.333  1.7202 -2.4999 -1.9068
  613MOL0     H80870   5.828   0.055   7.075 -2.6743  1.9233  0.0021
  613MOL0     H80871   5.970   0.153   7.113  0.3549 -1.4852 -0.8016
  613MOL0     H80872   5.764   0.253   7.008  0.3347 -3.2438 -0.1215
  613MOL0     H80873   5.822   0.342   7.158 -0.3858  0.5977 -1.4569
  613MOL0     H80874   5.580   0.155   7.149  0.7413 -1.0353  0.9390
  613MOL0     H80875   5.639   0.235   7.292  0.2340  0.3768 -0.0698
  613MOL0     H80876   5.449   0.340   7.146 -0.6123  2.0115  1.9233
  613MOL0     H80877   5.578   0.400   7.041 -2.5084  1.8867 -0.0943
  613MOL0     H80878   5.404   0.317   7.354  0.6458  0.4139  1.0492
  613MOL0     H80879   5.237   0.403   7.527  0.1236 -0.7164  0.4384
  613MOL0     H80880   5.190   0.791   7.883  0.8748  0.1448 -0.4612
  613MOL0     H80881   5.020   0.882   8.007  0.5563 -2.2371 -0.8943
  613MOL0     H80882   4.739   1.153   7.772  0.3148  0.4609 -0.7516
  613MOL0     H80883   4.702   1.190   7.946  1.4614 -0.3283  0.7730
  613MOL0     H80884   4.601   0.965   7.757  0.4858  0.3634  0.5534
  613MOL0     H80885   4.504   1.099   7.824 -0.1557 -0.8884 -0.1781
  613MOL0     H80886   4.503   0.992   8.046  1.5771 -0.0170  1.2349
  613MOL0     H80887   4.602   0.856   7.998  1.9535  2.0109 -1.1273
  613MOL0     H80888   4.348   0.911   7.834 -2.1222 -2.8927 -1.5847
  613MOL0     H80889   4.439   0.772   7.859  1.1072  1.3112 -2.4318
  613MOL0     H80890   4.253   0.898   8.041 -0.0497 -0.8011 -1.0228
  613MOL0     H80891   4.367   0.789   8.120 -0.7353 -1.9270  0.0375
  613MOL0     H80892   4.321   0.597   8.018  0.7355  1.4529  0.9676
  613MOL0     H80893   4.209   0.679   7.893  0.1808  2.3344 -0.2139
  613MOL0     H80894   4.166   0.627   8.189  2.2456  0.5644 -0.2691
  613MOL0     H80895   4.074   0.755   8.093 -0.7820  0.1563 -3.3257
  613MOL0     H80896   4.081   0.449   8.093 -2.4000 -1.0365 -0.2288
  613MOL0     H80897   4.020   0.538   7.949 -5.0342  0.7871  0.3679
  613MOL0     H80898   4.801   0.999   7.639 -1.6519 -0.9548 -0.5432
  613MOL0     H80899   4.987   0.913   7.520 -3.3141  0.2160  1.2740
  613MOL0     H80900   5.455   0.778   7.509  2.2298 -0.7185  0.1828
  613MOL0     H80901   5.596   0.701   7.358 -2.3097  0.7696 -2.7074
  613MOL0     H80902   6.972   0.069   7.340  0.0644 -0.8302 -0.3861
  613MOL0     H80903   7.179   0.057   7.215 -2.3884  1.3390  0.3829
  613MOL0     H80904   7.682   0.340   7.313  0.5971  1.5505 -1.1653
  613MOL0     H80905   7.903   0.325   7.215 -2.5091  0.9254  0.8629
  613MOL0     H80906   8.139   0.185   7.211 -1.2605  3.0210  0.7977
  613MOL0     H80907   8.073   0.307   7.114  2.4267  1.9490  2.4401
  613MOL0     H80908   8.151   0.213   6.902  0.1745  2.6656  0.2100
  613MOL0     H80909   8.294   0.255   6.998  0.0967  1.0451 -1.9575
  613MOL0     H80910   8.175  -0.030   6.984  0.9708 -0.6421  1.1739
  613MOL0     H80911   8.320  -0.001   7.048 -0.0158  0.0190  0.2143
  613MOL0     H80912   8.248   0.045   6.754 -1.2682  0.6664  1.1856
  613MOL0     H80913   8.395   0.114   6.829 -0.3141  0.5866  2.8499
  613MOL0     H80914   8.521  -0.285   6.825  1.1181  1.3215  3.1794
  613MOL0     H80915   7.828  -0.067   7.064 -1.7015 -0.7432 -1.1135
  613MOL0     H80916   7.622  -0.083   7.206 -1.1540  0.2131 -3.6163
  614MOL0     O80917   6.083   8.999   7.733  0.4929 -0.8311 -0.4653
  614MOL0     C80918   6.091   9.102   7.668  0.7879 -0.2422  0.5638
  614MOL0     O80919   6.010   9.201   7.667 -0.8615  0.0958  0.0754
  614MOL0     C80920   5.889   9.226   7.731 -0.6760 -0.6253  0.0192
  614MOL0     C80921   5.847   9.351   7.731 -0.1648  0.2869 -0.1618
  614MOL0     C80922   5.725   9.385   7.790 -0.2478  0.0384  0.0079
  614MOL0     C80923   5.651   9.290   7.860 -0.0529  0.6952  1.1231
  614MOL0     O80924   5.530   9.322   7.928 -0.2424  0.6302  0.3434
  614MOL0     C80925   5.520   9.453   7.983 -1.1308  0.3767 -0.1852
  614MOL0     C80926   5.418   9.528   7.901 -0.7117  0.1883  0.0414
  614MOL0     C80927   5.421   9.674   7.938 -0.2145  0.0508  0.0454
  614MOL0     C80928   5.306   9.743   7.867  0.0732 -0.7506 -0.4110
  614MOL0     C80929   5.284   9.882   7.930  0.3916 -0.1486 -0.1576
  614MOL0     C80930   5.397   9.985   7.923 -0.2607 -0.0360  0.1454
  614MOL0     C80931   5.336  10.125   7.965  1.2468  0.2618 -0.0840
  614MOL0     C80932   5.265  10.207   7.855  0.4511 -0.5176  0.1357
  614MOL0     N80933   5.226  10.345   7.900  0.8102  0.2446 -0.4143
  614MOL0     C80934   5.096  10.381   7.948 -0.7329  0.5003  0.2329
  614MOL0     C80935   5.092  10.516   7.963 -0.2671  0.1615  0.7793
  614MOL0     C80936   4.980  10.591   8.013  0.4393 -0.7118 -0.4946
  614MOL0     C80937   4.870  10.621   7.907  0.7581 -0.1488 -0.2243
  614MOL0     C80938   4.768  10.516   7.878  0.1904  0.5674  0.6467
  614MOL0     C80939   4.669  10.577   7.774 -0.7204  0.4504  0.4540
  614MOL0     O80940   4.566  10.488   7.746 -0.3229 -0.2884 -0.2051
  614MOL0     C80941   4.456  10.535   7.679  0.4443  0.5877  0.3011
  614MOL0     C80942   4.360  10.439   7.640  0.0206 -0.7917  0.2892
  614MOL0     C80943   4.248  10.490   7.564 -0.6367 -0.0583  0.2327
  614MOL0     C80944   4.232  10.621   7.528  0.1620 -0.3283  0.1021
  614MOL0     C80945   4.111  10.664   7.443 -0.0307  0.3459 -0.5893
  614MOL0     O80946   4.006  10.581   7.424  0.4008 -0.0989 -0.5050
  614MOL0     C80947   3.883  10.632   7.379  0.5538  0.9529  0.6680
  614MOL0     C80948   3.860  10.742   7.296 -0.2082 -0.3342  0.2338
  614MOL0     C80949   3.729  10.777   7.261 -1.1442 -0.1979 -0.1870
  614MOL0     C80950   3.618  10.705   7.301  0.0185 -0.8227 -0.4412
  614MOL0     O80951   3.493  10.762   7.291  0.7008  0.1458  0.0812
  614MOL0     C80952   3.378  10.679   7.299  0.6707 -0.0672  0.4888
  614MOL0     C80953   3.246  10.761   7.280 -0.9159 -0.2758 -0.0071
  614MOL0     C80954   3.132  10.681   7.218 -0.2370 -0.1295 -0.0535
  614MOL0     C80955   3.113  10.546   7.298  0.3106 -0.4688  0.0731
  614MOL0     C80956   2.968  10.491   7.295  0.0581  0.3198 -0.3237
  614MOL0     C80957   2.940  10.454   7.150  0.3236 -0.2733  0.0267
  614MOL0     C80958   2.795  10.435   7.108  0.2907 -0.1182 -0.1199
  614MOL0     C80959   2.777  10.435   6.957  0.1240  0.3245 -0.3485
  614MOL0    Cl80960   2.606  10.452   6.931  0.1922  0.0668 -0.0959
  614MOL0     C80961   3.637  10.590   7.378 -0.5114  0.0915  0.5698
  614MOL0     C80962   3.773  10.557   7.411  0.4785 -0.6705  0.0970
  614MOL0     O80963   4.123  10.773   7.395  0.1825  0.0230  0.1120
  614MOL0     C80964   4.326  10.715   7.568  0.3557 -0.0079  0.2515
  614MOL0     C80965   4.435  10.670   7.639 -0.8836 -0.5277  0.3254
  614MOL0     N80966   5.219  10.565   7.917 -0.3187  0.1910  0.8211
  614MOL0     N80967   5.293  10.458   7.881  0.4726  0.3569 -0.3639
  614MOL0     C80968   5.703   9.168   7.879  0.0297 -0.4641 -0.2451
  614MOL0     C80969   5.823   9.137   7.811  0.2160 -0.3271  0.8410
  614MOL0     C80970   6.212   9.101   7.577 -0.3107 -0.1299 -0.2547
  614MOL0     C80971   6.229   9.208   7.492 -0.1043 -0.6186 -0.6810
  614MOL0     C80972   6.325   9.210   7.388 -0.0721 -0.0546  0.3564
  614MOL0     C80973   6.426   9.108   7.387  0.3808 -0.5419 -0.4917
  614MOL0     O80974   6.529   9.123   7.294  0.2017  0.3102  0.2530
  614MOL0     C80975   6.607   9.010   7.249  0.7647  0.6696  0.2552
  614MOL0     C80976   6.730   9.043   7.170  0.2946 -0.6756 -0.3168
  614MOL0     C80977   6.809   9.123   7.269  0.3919 -0.5353 -0.2952
  614MOL0     C80978   6.935   9.178   7.201  0.1251  0.0892  0.3802
  614MOL0     C80979   7.043   9.077   7.194  0.0982  0.1747 -0.1460
  614MOL0     C80980   7.144   9.003   7.198  0.4438  0.7839 -1.1284
  614MOL0     C80981   6.427   9.009   7.489 -0.1988  0.2740 -0.1049
  614MOL0     C80982   6.318   9.004   7.577  0.6305 -0.3902  0.7948
  614MOL0     H80983   5.906   9.424   7.676  2.5618 -0.3833  1.6735
  614MOL0     H80984   5.691   9.487   7.779 -0.1815  0.1666  0.9236
  614MOL0     H80985   5.617   9.502   7.992 -0.9255 -0.3020  1.8802
  614MOL0     H80986   5.486   9.438   8.086  1.0156 -0.7440  0.4052
  614MOL0     H80987   5.319   9.485   7.916 -0.4767 -0.2153  0.4754
  614MOL0     H80988   5.440   9.516   7.795  0.3600  0.5105  0.2182
  614MOL0     H80989   5.517   9.721   7.915  0.6541 -1.1060  1.1390
  614MOL0     H80990   5.416   9.680   8.047  1.0918 -0.9151  0.1922
  614MOL0     H80991   5.326   9.765   7.762  1.7198 -0.1255  0.0049
  614MOL0     H80992   5.211   9.689   7.874  0.0022 -0.4300  3.8370
  614MOL0     H80993   5.262   9.867   8.037 -1.2283 -0.2363 -0.4749
  614MOL0     H80994   5.201   9.924   7.872  0.7893  1.8047  0.6389
  614MOL0     H80995   5.434   9.994   7.821 -0.5735  1.4927  0.1414
  614MOL0     H80996   5.483   9.956   7.984 -0.2595 -1.1099 -0.3535
  614MOL0     H80997   5.256  10.120   8.040 -0.2879  1.0792 -1.5968
  614MOL0     H80998   5.418  10.182   8.009  1.1594 -1.5159  2.6401
  614MOL0     H80999   5.174  10.150   7.835  1.2807 -1.6053 -0.6124
  614MOL0     H81000   5.320  10.205   7.761 -1.6612  1.5859 -1.2569
  614MOL0     H81001   5.015  10.312   7.971  0.3848 -0.6594  0.7705
  614MOL0     H81002   5.011  10.690   8.048 -2.8329  0.7609 -1.3508
  614MOL0     H81003   4.941  10.532   8.096 -0.7588  0.9355  0.1656
  614MOL0     H81004   4.918  10.643   7.811  0.8007  1.3096  0.1104
  614MOL0     H81005   4.819  10.712   7.941 -1.7048 -2.5865  3.3342
  614MOL0     H81006   4.814  10.423   7.843 -0.5434 -0.0227  1.2138
  614MOL0     H81007   4.707  10.500   7.968  0.5582  0.8216  0.9431
  614MOL0     H81008   4.726  10.597   7.683  0.9921  0.7475  1.5391
  614MOL0     H81009   4.641  10.676   7.812  0.5729  0.7658  0.6197
  614MOL0     H81010   4.380  10.334   7.660  0.7276 -0.3272  2.3044
  614MOL0     H81011   4.172  10.417   7.539  0.5507 -0.6557 -1.9103
  614MOL0     H81012   3.938  10.812   7.267 -1.2376  1.9809  2.5942
  614MOL0     H81013   3.715  10.873   7.211  0.2641  0.3332  0.3771
  614MOL0     H81014   3.373  10.636   7.399 -2.2419 -0.9992  0.0582
  614MOL0     H81015   3.373  10.597   7.227 -0.1369 -1.6944  2.3054
  614MOL0     H81016   3.267  10.845   7.214  1.4439  0.8094  1.9296
  614MOL0     H81017   3.215  10.800   7.378  4.1402 -0.6520  2.0698
  614MOL0     H81018   3.161  10.650   7.117  0.7395 -2.3741  0.8526
  614MOL0     H81019   3.042  10.743   7.214 -0.5386 -0.5754 -3.7393
  614MOL0     H81020   3.189  10.472   7.268 -0.0020 -0.8969  0.3201
  614MOL0     H81021   3.138  10.562   7.403 -0.1968  0.7267  0.0219
  614MOL0     H81022   2.895  10.567   7.325 -0.9814 -0.2359 -1.3315
  614MOL0     H81023   2.955  10.404   7.359 -1.6346  0.3785 -0.5401
  614MOL0     H81024   2.993  10.361   7.128  4.5392  2.5315 -3.4383
  614MOL0     H81025   2.995  10.519   7.082 -0.5865  1.0688  0.5228
  614MOL0     H81026   2.762  10.342   7.155  0.8241 -0.0789  0.3474
  614MOL0     H81027   2.736  10.516   7.151  0.9110 -0.1290  0.7822
  614MOL0     H81028   2.818  10.340   6.921  0.2711  0.3622 -0.2803
  614MOL0     H81029   2.843  10.508   6.908  0.7369  0.7096  1.0092
  614MOL0     H81030   3.560  10.528   7.423 -3.1920  0.7646 -2.7195
  614MOL0     H81031   3.788  10.465   7.466 -2.2017 -1.8859 -1.0067
  614MOL0     H81032   4.312  10.821   7.546 -0.1667 -0.2539 -0.6472
  614MOL0     H81033   4.507  10.750   7.656 -1.2134 -0.1881  0.1398
  614MOL0     H81034   5.665   9.089   7.943  1.1519 -0.6963  0.1725
  614MOL0     H81035   5.857   9.035   7.816  0.7430 -0.2069 -0.0172
  614MOL0     H81036   6.145   9.277   7.484 -0.4668 -1.0715 -0.8371
  614MOL0     H81037   6.319   9.282   7.308  0.7905  0.4817  0.7595
  614MOL0     H81038   6.546   8.948   7.182 -0.5380  0.2567  1.7767
  614MOL0     H81039   6.628   8.952   7.339  4.4701  1.0870 -0.1718
  614MOL0     H81040   6.777   8.949   7.139  1.9308  0.5061 -1.5947
  614MOL0     H81041   6.695   9.098   7.083  0.5844 -2.9648 -1.9806
  614MOL0     H81042   6.829   9.058   7.356 -1.1995 -1.4202 -0.5555
  614MOL0     H81043   6.764   9.220   7.291  2.2883  0.1259  0.9205
  614MOL0     H81044   6.905   9.216   7.104  1.1214 -2.7844 -1.1638
  614MOL0     H81045   6.968   9.261   7.264 -1.5376  0.6521  0.5564
  614MOL0     H81046   7.235   8.947   7.200  1.2097  2.0302 -0.4346
  614MOL0     H81047   6.498   8.930   7.508 -1.8808 -1.1585  0.4840
  614MOL0     H81048   6.313   8.927   7.653  0.8323 -3.1730 -1.8264
  615MOL0     O81049   4.314   3.204   3.013 -0.3513  0.0154  0.2511
  615MOL0     C81050   4.344   3.236   3.124  1.0582 -0.9665 -0.2173
  615MOL0     O81051   4.299   3.353   3.182  0.1427 -0.6800 -0.5514
  615MOL0     C81052   4.241   3.450   3.100 -0.2596 -0.1080  0.0965
  615MOL0     C81053   4.106   3.488   3.118 -0.2600  0.4487 -0.0418
  615MOL0     C81054   4.047   3.571   3.024  0.1283  0.3108 -0.9996
  615MOL0     C81055   4.128   3.640   2.926  0.5766  0.8886  0.7177
  615MOL0     O81056   4.075   3.721   2.831  0.0598 -0.2371  0.6047
  615MOL0     C81057   3.937   3.768   2.837 -0.3510 -0.2075  0.6459
  615MOL0     C81058   3.928   3.861   2.712  0.5285  0.5638 -0.5069
  615MOL0     C81059   3.782   3.914   2.697  0.0386  0.2509  0.8312
  615MOL0     C81060   3.784   4.005   2.574  0.5231  0.3268 -0.6734
  615MOL0     C81061   3.639   4.071   2.558 -0.1999 -0.2334  0.1625
  615MOL0     C81062   3.653   4.167   2.446 -0.7743  0.4350  0.7965
  615MOL0     C81063   3.519   4.233   2.418  0.2195 -0.1509  0.5625
  615MOL0     C81064   3.521   4.301   2.281  0.7173  0.2265  0.2176
  615MOL0     N81065   3.383   4.362   2.254  0.4174  0.8973 -0.3555
  615MOL0     C81066   3.282   4.283   2.210 -0.0001  0.7613  0.7167
  615MOL0     C81067   3.169   4.353   2.222 -0.0821 -0.1220  0.0673
  615MOL0     C81068   3.030   4.323   2.173  0.4140  0.3689 -0.3991
  615MOL0     C81069   2.931   4.340   2.282 -0.0049  0.6051 -0.0049
  615MOL0     C81070   2.798   4.265   2.240  0.0667  0.2105 -0.1432
  615MOL0     C81071   2.695   4.249   2.360 -0.0451  0.3752  0.4391
  615MOL0     O81072   2.594   4.350   2.351 -0.5530 -0.9525  0.0777
  615MOL0     C81073   2.482   4.328   2.430  0.5480 -0.1408 -0.0069
  615MOL0     C81074   2.475   4.250   2.555 -0.7048  0.3198  0.3142
  615MOL0     C81075   2.355   4.247   2.624 -1.5352 -0.4005 -0.9324
  615MOL0     C81076   2.247   4.328   2.596  0.2800  0.3975  0.2985
  615MOL0     C81077   2.134   4.319   2.693 -0.1869 -0.5129 -0.1038
  615MOL0     O81078   2.011   4.358   2.659 -0.0682  0.2678 -0.2423
  615MOL0     C81079   1.903   4.334   2.745 -0.0396  0.3263  0.8680
  615MOL0     C81080   1.812   4.441   2.765  0.0488  0.1886  0.0023
  615MOL0     C81081   1.698   4.427   2.848  0.7986  0.1353 -0.2965
  615MOL0     C81082   1.671   4.305   2.912 -0.9221 -0.4958 -0.4099
  615MOL0     O81083   1.573   4.316   3.010  0.4367  0.2419  0.3833
  615MOL0     C81084   1.467   4.215   2.996  0.0424  0.1411 -1.0186
  615MOL0     C81085   1.495   4.119   3.109  0.8712  0.3885 -0.0403
  615MOL0     C81086   1.382   4.022   3.141  0.5059  0.2712  0.1717
  615MOL0     C81087   1.401   3.940   3.268  0.5112 -0.0846 -0.3182
  615MOL0     C81088   1.268   3.897   3.340 -0.2797 -1.4837  0.8952
  615MOL0     C81089   1.169   3.826   3.250 -0.5124 -0.1352  0.3487
  615MOL0     C81090   1.064   3.747   3.325  0.6210  0.5313 -0.0418
  615MOL0     C81091   1.003   3.644   3.228 -0.1666  0.4387  0.1262
  615MOL0    Cl81092   1.121   3.507   3.230 -0.0112 -0.0644 -0.3502
  615MOL0     C81093   1.762   4.197   2.894 -0.6014 -0.3152 -0.4492
  615MOL0     C81094   1.877   4.214   2.811  0.3575 -0.1800  0.7167
  615MOL0     O81095   2.163   4.268   2.803  0.3787 -0.0926 -0.3240
  615MOL0     C81096   2.251   4.401   2.474 -0.3273  0.3530  0.2390
  615MOL0     C81097   2.367   4.394   2.389 -0.3586 -0.2515  1.1554
  615MOL0     N81098   3.205   4.482   2.274 -0.1260 -0.7527 -0.8922
  615MOL0     N81099   3.336   4.480   2.299 -0.0876  0.0500 -0.5950
  615MOL0     C81100   4.263   3.609   2.921 -0.3482  0.3002  0.7580
  615MOL0     C81101   4.317   3.513   3.004  0.3357 -0.0605 -0.0875
  615MOL0     C81102   4.427   3.153   3.215 -0.5023  0.1214 -0.2241
  615MOL0     C81103   4.447   3.012   3.185 -0.5555  0.0037 -0.5926
  615MOL0     C81104   4.513   2.933   3.275  0.9184  0.4189  0.8612
  615MOL0     C81105   4.554   2.976   3.395 -0.3924 -0.0653 -0.7495
  615MOL0     O81106   4.607   2.879   3.479 -0.3482  0.6306 -0.4580
  615MOL0     C81107   4.660   2.922   3.605 -0.3134  0.5571  0.3834
  615MOL0     C81108   4.726   2.810   3.690 -0.3814 -0.2628  0.0310
  615MOL0     C81109   4.626   2.717   3.755 -0.7495  0.2713 -0.1045
  615MOL0     C81110   4.664   2.562   3.737  0.4606 -0.0986  0.2160
  615MOL0     C81111   4.551   2.468   3.775 -0.0165 -0.4545 -0.0324
  615MOL0     C81112   4.459   2.387   3.791  0.4143  0.0587 -0.7215
  615MOL0     C81113   4.547   3.111   3.419 -0.7949 -0.5455 -0.4125
  615MOL0     C81114   4.489   3.197   3.336 -0.6595 -0.4896  0.3698
  615MOL0     H81115   4.048   3.438   3.195  1.4147 -0.8268  0.4445
  615MOL0     H81116   3.941   3.594   3.024  0.1288  0.3329 -0.2483
  615MOL0     H81117   3.915   3.823   2.929 -1.0274  1.1615 -0.2998
  615MOL0     H81118   3.868   3.684   2.828  0.5248 -0.8476 -0.2656
  615MOL0     H81119   3.954   3.802   2.624  2.8566  0.7942 -0.0338
  615MOL0     H81120   4.001   3.943   2.714 -1.3767  2.3615  1.7172
  615MOL0     H81121   3.738   3.963   2.784 -0.1215 -1.7166  1.9110
  615MOL0     H81122   3.716   3.828   2.683  2.1181 -1.0914 -1.5540
  615MOL0     H81123   3.867   4.076   2.578  0.2995  0.5270  0.9446
  615MOL0     H81124   3.801   3.946   2.484  0.2950 -1.2818  0.3072
  615MOL0     H81125   3.603   4.129   2.644 -0.5327  0.0067 -0.1393
  615MOL0     H81126   3.561   4.000   2.531 -0.9490  0.2476  0.9976
  615MOL0     H81127   3.693   4.120   2.356 -0.1811 -0.4560  1.5006
  615MOL0     H81128   3.727   4.240   2.478  2.6237 -2.5817  0.3906
  615MOL0     H81129   3.440   4.157   2.412 -0.2193  0.2983  0.5495
  615MOL0     H81130   3.495   4.304   2.498  0.6849  1.3664 -0.6009
  615MOL0     H81131   3.535   4.226   2.202 -1.3710  0.5556 -0.5123
  615MOL0     H81132   3.601   4.376   2.272  2.1702 -1.1560  1.0904
  615MOL0     H81133   3.295   4.186   2.164 -1.8014  1.8439 -2.4220
  615MOL0     H81134   3.038   4.224   2.128  1.2117 -0.1702  0.8583
  615MOL0     H81135   2.996   4.394   2.097 -0.3650  1.4437  0.8893
  615MOL0     H81136   2.925   4.449   2.292 -2.2286  0.6440 -1.1804
  615MOL0     H81137   2.971   4.305   2.378  0.7379  0.1591 -0.4641
  615MOL0     H81138   2.757   4.318   2.154 -2.1645  0.5517  1.0584
  615MOL0     H81139   2.829   4.162   2.218 -1.0584 -0.0418 -0.6155
  615MOL0     H81140   2.754   4.254   2.452 -0.0199 -2.4702  0.6678
  615MOL0     H81141   2.646   4.152   2.360  0.2538  0.2191 -0.3971
  615MOL0     H81142   2.561   4.199   2.596 -0.9724  0.8212  1.5396
  615MOL0     H81143   2.358   4.188   2.715  1.0163  1.7927  0.5453
  615MOL0     H81144   1.833   4.539   2.723 -1.2493  1.1930  1.5583
  615MOL0     H81145   1.628   4.509   2.854  0.0456 -0.5629  1.0110
  615MOL0     H81146   1.473   4.161   2.902 -1.9824 -1.2262 -0.4135
  615MOL0     H81147   1.370   4.263   3.014 -0.6799 -1.3778 -0.7578
  615MOL0     H81148   1.511   4.181   3.197  1.9022 -1.2228  0.9576
  615MOL0     H81149   1.592   4.075   3.084 -0.1143 -1.3207 -1.1375
  615MOL0     H81150   1.370   3.950   3.060 -2.1650 -0.0828  0.8018
  615MOL0     H81151   1.284   4.069   3.154 -0.7624 -2.1846  0.0887
  615MOL0     H81152   1.458   3.851   3.241 -0.1281  0.0655 -2.3497
  615MOL0     H81153   1.473   3.986   3.336  0.8937 -0.1777 -0.6549
  615MOL0     H81154   1.223   3.976   3.399 -1.7546 -3.1394  2.1061
  615MOL0     H81155   1.297   3.822   3.414  0.9565 -1.1430  0.7726
  615MOL0     H81156   1.228   3.758   3.189  2.3444  2.2268  0.3002
  615MOL0     H81157   1.116   3.892   3.181 -0.7288 -2.3191 -1.7148
  615MOL0     H81158   1.087   3.694   3.417 -1.8029 -0.8187 -0.1379
  615MOL0     H81159   0.990   3.825   3.347  3.2773  3.5519 -0.9161
  615MOL0     H81160   1.004   3.679   3.125  2.8961 -1.0985 -0.5039
  615MOL0     H81161   0.907   3.596   3.250  0.1992 -0.1202  0.5400
  615MOL0     H81162   1.749   4.107   2.953  1.6982 -0.3772  0.0809
  615MOL0     H81163   1.945   4.130   2.799  2.3276  1.3446  0.7530
  615MOL0     H81164   2.170   4.466   2.444  0.3461  0.6566 -1.0239
  615MOL0     H81165   2.373   4.455   2.299  1.6227  0.1732  1.5312
  615MOL0     H81166   4.335   3.638   2.844 -3.8721  0.9219 -2.6087
  615MOL0     H81167   4.419   3.481   2.990  0.4974  1.4298 -3.2471
  615MOL0     H81168   4.401   2.961   3.101 -2.0440  2.4296 -1.3467
  615MOL0     H81169   4.524   2.826   3.257  0.3432  0.2362  1.5312
  615MOL0     H81170   4.583   2.979   3.658 -1.3150  0.4511 -0.9228
  615MOL0     H81171   4.746   2.986   3.582 -1.1232  0.4229 -3.7724
  615MOL0     H81172   4.785   2.755   3.616 -1.3979  0.6678 -1.5345
  615MOL0     H81173   4.792   2.865   3.758  0.5032  3.4225 -3.3960
  615MOL0     H81174   4.527   2.734   3.713 -0.4016  0.6353 -0.7908
  615MOL0     H81175   4.607   2.738   3.861 -2.3549  1.3566 -0.5804
  615MOL0     H81176   4.700   2.542   3.636  1.8507 -0.6024  0.7848
  615MOL0     H81177   4.745   2.550   3.810  0.0097  1.5798  1.0601
  615MOL0     H81178   4.368   2.331   3.785  0.8551 -0.5063 -2.5454
  615MOL0     H81179   4.584   3.159   3.509 -0.8043  0.8946 -1.1569
  615MOL0     H81180   4.483   3.294   3.383 -0.5723  0.1321 -0.8538
  616MOL0     O81181   0.525   7.454   1.846 -0.4782  0.3583 -0.0761
  616MOL0     C81182   0.528   7.341   1.890  0.4670  0.2732 -0.5088
  616MOL0     O81183   0.424   7.283   1.956  0.7295  0.1214  0.4173
  616MOL0     C81184   0.305   7.351   1.972 -0.1174  0.7230 -0.9712
  616MOL0     C81185   0.201   7.352   1.873 -0.9676  1.0988 -0.6016
  616MOL0     C81186   0.079   7.404   1.894 -0.3232  0.3001 -0.7966
  616MOL0     C81187   0.046   7.448   2.023 -0.1220  0.5512  0.2880
  616MOL0     O81188  -0.072   7.499   2.067  0.9317 -0.2292 -0.5461
  616MOL0     C81189  -0.172   7.534   1.968 -1.3474  0.1613  0.5271
  616MOL0     C81190  -0.290   7.604   2.026  0.7696  0.1342 -0.5541
  616MOL0     C81191  -0.402   7.598   1.927  0.5260  0.0699  0.8179
  616MOL0     C81192  -0.531   7.655   1.983 -0.1018  0.2213  0.1484
  616MOL0     C81193  -0.641   7.691   1.876  0.3459  0.3839 -0.8697
  616MOL0     C81194  -0.716   7.563   1.838  1.0954  0.1778  0.8341
  616MOL0     C81195  -0.850   7.591   1.761 -1.0983  0.5785 -0.3663
  616MOL0     C81196  -0.909   7.456   1.709  0.2354 -0.1414  0.0909
  616MOL0     N81197  -1.037   7.469   1.638  0.2520  0.0548  0.3289
  616MOL0     C81198  -1.128   7.563   1.672  0.6382 -0.6270  0.3155
  616MOL0     C81199  -1.235   7.532   1.602  0.0578 -0.0446  0.1398
  616MOL0     C81200  -1.360   7.609   1.607 -0.0602  0.5171 -0.3588
  616MOL0     C81201  -1.476   7.522   1.646  0.3096 -0.2654 -1.0024
  616MOL0     C81202  -1.586   7.614   1.693 -0.1371 -0.6557 -0.4050
  616MOL0     C81203  -1.727   7.549   1.703  0.6359  0.2212 -0.4319
  616MOL0     O81204  -1.831   7.646   1.669 -0.9845  0.3463  0.2314
  616MOL0     C81205  -1.959   7.617   1.692  0.5789  1.1482 -0.0844
  616MOL0     C81206  -2.013   7.503   1.757 -0.8710  0.4299 -0.2972
  616MOL0     C81207  -2.151   7.496   1.783  0.1547  0.3341  0.2136
  616MOL0     C81208  -2.238   7.599   1.742 -0.0960  0.6105 -0.2871
  616MOL0     C81209  -2.382   7.576   1.761  1.1954 -0.3026  0.3919
  616MOL0     O81210  -2.467   7.616   1.663  0.5759 -0.3458 -0.1936
  616MOL0     C81211  -2.598   7.633   1.699  0.5731 -0.4174  0.2332
  616MOL0     C81212  -2.699   7.529   1.682  0.3480 -0.3199 -0.3648
  616MOL0     C81213  -2.836   7.563   1.691  0.0017  0.6106  0.1921
  616MOL0     C81214  -2.869   7.691   1.740  0.0647  0.2162 -0.1878
  616MOL0     O81215  -3.002   7.691   1.783  0.6312  0.2890 -0.1133
  616MOL0     C81216  -3.062   7.820   1.830 -0.6798  0.2370  0.0567
  616MOL0     C81217  -3.209   7.815   1.864  0.1214  0.4344 -0.7157
  616MOL0     C81218  -3.290   7.770   1.746 -0.3094  0.2007  0.1517
  616MOL0     C81219  -3.436   7.811   1.747 -0.1272 -0.0042  0.2304
  616MOL0     C81220  -3.518   7.725   1.839  0.1091  0.4235 -0.3552
  616MOL0     C81221  -3.648   7.788   1.888 -0.2212  0.5331  0.5588
  616MOL0     C81222  -3.728   7.688   1.973 -0.2048  0.0839 -0.2463
  616MOL0     C81223  -3.859   7.744   2.041  0.3844  0.3876  0.3951
  616MOL0    Cl81224  -3.964   7.842   1.940 -0.0185 -0.1200  0.1756
  616MOL0     C81225  -2.771   7.789   1.754  0.4061  0.0542 -0.2124
  616MOL0     C81226  -2.638   7.765   1.730 -0.2650 -0.4239 -0.3840
  616MOL0     O81227  -2.417   7.519   1.863  0.6264 -0.2991  0.0819
  616MOL0     C81228  -2.185   7.709   1.671 -0.0492 -0.3287 -0.2805
  616MOL0     C81229  -2.051   7.719   1.649 -1.3322  0.3980 -0.6967
  616MOL0     N81230  -1.215   7.427   1.518  0.1568 -0.6649  0.1703
  616MOL0     N81231  -1.094   7.380   1.545  0.6152  0.0638  0.3949
  616MOL0     C81232   0.137   7.440   2.123  0.2447 -0.5253 -0.0066
  616MOL0     C81233   0.274   7.403   2.098 -0.5792  0.4555  0.0305
  616MOL0     C81234   0.654   7.260   1.882 -0.8642  0.1241  0.7503
  616MOL0     C81235   0.670   7.122   1.923  0.9987  0.0284  0.3337
  616MOL0     C81236   0.790   7.062   1.923  0.2154 -0.0392 -0.6567
  616MOL0     C81237   0.905   7.129   1.872 -0.7901  0.3902  0.4592
  616MOL0     O81238   1.025   7.059   1.882 -0.4085  0.4285  0.0009
  616MOL0     C81239   1.152   7.117   1.840  0.9355 -0.2672 -0.8007
  616MOL0     C81240   1.282   7.036   1.870 -0.2220 -0.1745 -0.2017
  616MOL0     C81241   1.403   7.072   1.774  0.0510 -0.3799 -0.1176
  616MOL0     C81242   1.529   6.998   1.823  0.5263 -0.2669 -0.0062
  616MOL0     C81243   1.624   6.972   1.716 -0.2331  0.4200 -0.1715
  616MOL0     C81244   1.697   6.933   1.630  0.0362 -0.2674 -0.7552
  616MOL0     C81245   0.894   7.252   1.813  0.3981 -0.2370 -0.3219
  616MOL0     C81246   0.772   7.324   1.826 -0.1296 -1.0790  0.0677
  616MOL0     H81247   0.225   7.294   1.784  1.5338 -1.0541  1.2973
  616MOL0     H81248   0.003   7.380   1.820  1.9425 -1.6181 -2.6832
  616MOL0     H81249  -0.197   7.445   1.909  1.2497  0.7971 -1.7832
  616MOL0     H81250  -0.128   7.604   1.896 -1.6764  1.7853  1.8434
  616MOL0     H81251  -0.271   7.700   2.074 -0.2418 -0.2806  0.7180
  616MOL0     H81252  -0.331   7.540   2.105  0.3898 -3.1958 -3.2256
  616MOL0     H81253  -0.419   7.495   1.896 -0.0641  0.3242  0.2821
  616MOL0     H81254  -0.373   7.659   1.841 -2.8186  2.5677  1.2499
  616MOL0     H81255  -0.578   7.596   2.063 -0.8059  1.7940  0.9502
  616MOL0     H81256  -0.519   7.751   2.035 -2.2467  0.5586  0.1201
  616MOL0     H81257  -0.593   7.733   1.787 -2.4856  2.1334 -1.7311
  616MOL0     H81258  -0.717   7.758   1.920  1.2789  0.3572  0.8897
  616MOL0     H81259  -0.751   7.504   1.924  0.7005 -0.9570 -0.0776
  616MOL0     H81260  -0.647   7.501   1.781  0.7396 -0.2042  0.8091
  616MOL0     H81261  -0.908   7.636   1.842  0.7506  0.6394  0.9752
  616MOL0     H81262  -0.826   7.656   1.676  3.8747  0.1326  0.4054
  616MOL0     H81263  -0.940   7.394   1.794 -3.4169 -0.6940 -1.4577
  616MOL0     H81264  -0.847   7.392   1.644 -2.0641 -2.8560  0.3712
  616MOL0     H81265  -1.124   7.644   1.744 -3.4270 -0.6504  0.7848
  616MOL0     H81266  -1.369   7.661   1.511  1.8852 -0.5904 -1.2016
  616MOL0     H81267  -1.354   7.686   1.684 -1.8790  2.0402 -1.6655
  616MOL0     H81268  -1.450   7.454   1.728 -3.6728 -0.7441  0.0734
  616MOL0     H81269  -1.505   7.466   1.557  0.0432 -0.4157 -0.8206
  616MOL0     H81270  -1.563   7.661   1.789 -0.4867 -0.8550 -0.2205
  616MOL0     H81271  -1.592   7.695   1.619 -0.2436 -0.8144 -0.5702
  616MOL0     H81272  -1.739   7.521   1.808 -1.3156  1.5282 -0.2600
  616MOL0     H81273  -1.734   7.462   1.637  2.9050  0.4017 -1.0037
  616MOL0     H81274  -1.944   7.429   1.796  0.8387  1.3872 -1.3898
  616MOL0     H81275  -2.185   7.409   1.838  0.1371  0.4499  0.3870
  616MOL0     H81276  -2.677   7.426   1.658  0.0178 -0.5624  0.3617
  616MOL0     H81277  -2.906   7.480   1.686  3.1462 -2.2390  0.0590
  616MOL0     H81278  -3.058   7.892   1.747  2.5510  0.4200  0.2335
  616MOL0     H81279  -3.008   7.850   1.920  1.4055  1.8525 -1.6038
  616MOL0     H81280  -3.246   7.916   1.884 -2.3469 -0.7697  1.3983
  616MOL0     H81281  -3.213   7.755   1.955  1.8247 -0.2023 -1.0224
  616MOL0     H81282  -3.288   7.661   1.737  0.8864  0.3705 -2.9402
  616MOL0     H81283  -3.240   7.801   1.654 -1.3446  1.3050 -0.0565
  616MOL0     H81284  -3.450   7.914   1.781  0.0564 -0.2822  1.1704
  616MOL0     H81285  -3.477   7.817   1.645 -2.1681  1.8750  1.0762
  616MOL0     H81286  -3.467   7.712   1.936 -3.3807 -3.8998  1.2631
  616MOL0     H81287  -3.530   7.625   1.797 -4.0349  0.9920 -0.8856
  616MOL0     H81288  -3.701   7.825   1.801 -0.0164  0.1822  0.2826
  616MOL0     H81289  -3.620   7.873   1.952 -1.8826  0.8531  0.9022
  616MOL0     H81290  -3.759   7.604   1.910 -0.8440  0.5635 -0.5859
  616MOL0     H81291  -3.660   7.649   2.049 -0.0937 -0.0162 -0.3959
  616MOL0     H81292  -3.847   7.804   2.132 -4.5018  1.0104  0.8786
  616MOL0     H81293  -3.918   7.658   2.072  0.4369  0.7329  1.4838
  616MOL0     H81294  -2.798   7.877   1.811  0.3865 -1.4543  2.2531
  616MOL0     H81295  -2.566   7.846   1.729 -3.6362  2.8725  1.2922
  616MOL0     H81296  -2.254   7.784   1.634 -0.1594 -0.4090 -0.2382
  616MOL0     H81297  -2.009   7.801   1.593  2.0741  0.5525  1.7764
  616MOL0     H81298   0.106   7.479   2.220  2.4165  0.8352  0.2120
  616MOL0     H81299   0.338   7.393   2.186 -0.6670 -4.4995 -0.1739
  616MOL0     H81300   0.591   7.073   1.978  1.9855 -2.6405 -0.4514
  616MOL0     H81301   0.802   6.962   1.963 -0.8777 -0.4064 -1.1885
  616MOL0     H81302   1.169   7.215   1.886  3.9422 -0.4927 -1.2246
  616MOL0     H81303   1.145   7.133   1.732  0.5475  2.0128 -0.4913
  616MOL0     H81304   1.309   7.052   1.975 -1.4589 -0.4264  0.1680
  616MOL0     H81305   1.256   6.931   1.854 -2.5889 -0.1146  2.4786
  616MOL0     H81306   1.418   7.179   1.758  2.4973 -0.3262  1.9665
  616MOL0     H81307   1.371   7.027   1.679  1.2634  0.2609 -0.8525
  616MOL0     H81308   1.574   7.055   1.905 -1.1339  0.0442  0.7113
  616MOL0     H81309   1.497   6.901   1.862  0.1103  0.0228  0.3818
  616MOL0     H81310   1.754   6.893   1.549  0.3256 -1.7252  0.1274
  616MOL0     H81311   0.992   7.294   1.789  0.6829  0.5286  1.9316
  616MOL0     H81312   0.769   7.428   1.794 -0.1945 -0.8098  0.9059
  617MOL0     O81313   5.493   4.270   2.239  0.2793 -0.8381 -0.5193
  617MOL0     C81314   5.456   4.385   2.260  0.9327 -0.3159 -0.3308
  617MOL0     O81315   5.530   4.493   2.310 -0.2742 -0.2514  0.1366
  617MOL0     C81316   5.663   4.467   2.339  0.1036  0.6323  0.6819
  617MOL0     C81317   5.742   4.411   2.241  0.0554 -0.6191 -1.4856
  617MOL0     C81318   5.884   4.403   2.259  0.0449 -0.5169 -0.2936
  617MOL0     C81319   5.943   4.427   2.381 -0.2929 -0.1716  0.4080
  617MOL0     O81320   6.080   4.420   2.407 -0.1583  0.5522  0.1829
  617MOL0     C81321   6.156   4.494   2.313  0.3892 -0.6402  0.2132
  617MOL0     C81322   6.254   4.408   2.242 -0.2972 -0.1795 -0.3045
  617MOL0     C81323   6.364   4.385   2.351 -0.1716 -0.0759  0.0105
  617MOL0     C81324   6.468   4.289   2.287  0.3581  0.3231 -0.3107
  617MOL0     C81325   6.565   4.239   2.391  1.3467  0.3225 -0.2395
  617MOL0     C81326   6.655   4.132   2.330  0.2581 -0.5502 -0.0051
  617MOL0     C81327   6.771   4.110   2.433  0.5177 -0.7479 -0.2483
  617MOL0     C81328   6.884   4.025   2.366  0.3800  0.0874 -0.2398
  617MOL0     N81329   6.840   3.892   2.316  0.1926  1.0577  0.2298
  617MOL0     C81330   6.865   3.772   2.380  0.1451 -0.4897 -0.1318
  617MOL0     C81331   6.775   3.687   2.329 -0.1072  0.1343 -0.9828
  617MOL0     C81332   6.741   3.543   2.374  0.5170 -0.6785  0.8451
  617MOL0     C81333   6.603   3.529   2.430 -0.5461  0.0340 -0.2567
  617MOL0     C81334   6.567   3.378   2.459 -0.4037 -0.8082  0.1310
  617MOL0     C81335   6.422   3.372   2.495 -0.5581 -0.4663 -0.6862
  617MOL0     O81336   6.340   3.386   2.378  0.9807 -0.7029  0.3687
  617MOL0     C81337   6.206   3.404   2.407 -0.2364  0.0545  0.4887
  617MOL0     C81338   6.112   3.309   2.386  0.4470 -0.6394  0.7538
  617MOL0     C81339   5.976   3.339   2.379  0.5534 -0.0193 -0.8486
  617MOL0     C81340   5.922   3.464   2.415 -0.1278  0.5258  0.8425
  617MOL0     C81341   5.764   3.475   2.424  0.7919  1.0750  1.0440
  617MOL0     O81342   5.691   3.370   2.370  0.1963 -0.3669  0.1247
  617MOL0     C81343   5.553   3.383   2.361  0.0194  0.4782  0.0629
  617MOL0     C81344   5.496   3.365   2.232  0.1299  1.4665  0.1037
  617MOL0     C81345   5.352   3.372   2.217 -0.0629 -0.2617 -0.7451
  617MOL0     C81346   5.271   3.379   2.329 -0.7276  0.1916 -0.4678
  617MOL0     O81347   5.135   3.376   2.300 -0.3196 -0.4855  0.3243
  617MOL0     C81348   5.051   3.346   2.411 -0.7243  0.0821 -0.1385
  617MOL0     C81349   4.913   3.317   2.354 -0.2680 -0.2102  1.1621
  617MOL0     C81350   4.855   3.417   2.261  0.5633 -0.2210  0.8839
  617MOL0     C81351   4.707   3.398   2.249  1.1257  0.5080 -1.2759
  617MOL0     C81352   4.644   3.497   2.160  0.0747 -0.1829 -0.1716
  617MOL0     C81353   4.498   3.505   2.184  0.7370 -0.9269 -0.2835
  617MOL0     C81354   4.438   3.630   2.115  0.6432 -0.3352  0.6431
  617MOL0     C81355   4.297   3.631   2.152  0.1501  0.0939  0.3031
  617MOL0    Cl81356   4.206   3.480   2.122 -0.0294 -0.1497  0.1296
  617MOL0     C81357   5.325   3.380   2.464 -0.1871  0.3459 -0.8565
  617MOL0     C81358   5.466   3.384   2.473 -0.1365  0.3528  0.0096
  617MOL0     O81359   5.716   3.578   2.477 -0.5035  0.3908 -0.0087
  617MOL0     C81360   6.012   3.566   2.431 -0.0676  0.4407 -0.3380
  617MOL0     C81361   6.154   3.534   2.429  0.3309 -0.9254  0.5350
  617MOL0     N81362   6.724   3.747   2.219  0.0762 -0.5467 -0.1660
  617MOL0     N81363   6.751   3.877   2.220  0.7978 -0.3592  0.1874
  617MOL0     C81364   5.860   4.455   2.494 -0.1819  0.1872  0.1871
  617MOL0     C81365   5.722   4.488   2.467 -0.3037  0.5016  0.3067
  617MOL0     C81366   5.305   4.404   2.241 -0.4387 -0.7393  0.3967
  617MOL0     C81367   5.230   4.310   2.168  0.3125  0.1712  0.3327
  617MOL0     C81368   5.095   4.330   2.152  0.3038  0.0567  0.1935
  617MOL0     C81369   5.032   4.446   2.197  0.2277  0.8526 -0.4784
  617MOL0     O81370   4.903   4.471   2.184 -0.6246  0.3681  0.6965
  617MOL0     C81371   4.822   4.402   2.088 -0.9842  0.9286 -0.0394
  617MOL0     C81372   4.702   4.481   2.041 -0.0631  0.2398 -0.1416
  617MOL0     C81373   4.665   4.584   2.152  0.1155  0.2664 -0.5270
  617MOL0     C81374   4.529   4.646   2.127 -0.7614  0.3014 -0.3925
  617MOL0     C81375   4.423   4.541   2.139 -0.0406  0.2222  0.2076
  617MOL0     C81376   4.354   4.443   2.116 -0.7686 -0.8240 -0.7190
  617MOL0     C81377   5.105   4.543   2.268 -0.0453  0.3878  0.2004
  617MOL0     C81378   5.241   4.522   2.294  1.1990 -0.6246 -0.1969
  617MOL0     H81379   5.711   4.379   2.142  1.5348 -2.7758 -1.3130
  617MOL0     H81380   5.935   4.380   2.167 -1.1716 -0.4147 -1.0205
  617MOL0     H81381   6.209   4.578   2.359  2.0828  0.7545 -3.7866
  617MOL0     H81382   6.090   4.543   2.241 -0.1773 -0.5910  0.7675
  617MOL0     H81383   6.296   4.458   2.155 -1.0768 -0.6011 -0.9321
  617MOL0     H81384   6.195   4.319   2.215 -1.9388  0.9119 -0.4836
  617MOL0     H81385   6.322   4.332   2.436 -4.6465  1.5939 -0.9020
  617MOL0     H81386   6.411   4.479   2.383 -0.6767 -0.3281  1.5369
  617MOL0     H81387   6.409   4.205   2.248 -2.7669  1.5434  1.4480
  617MOL0     H81388   6.528   4.335   2.208 -0.4284  1.1911 -0.4096
  617MOL0     H81389   6.504   4.189   2.467 -0.0126  0.0250 -1.4796
  617MOL0     H81390   6.623   4.328   2.419  0.9103  0.4768  0.1993
  617MOL0     H81391   6.700   4.161   2.235  0.5033  2.8511  1.0066
  617MOL0     H81392   6.590   4.045   2.318 -1.0185  0.6145 -2.2446
  617MOL0     H81393   6.810   4.207   2.465 -0.7666 -0.1950 -0.2873
  617MOL0     H81394   6.736   4.057   2.522 -3.1107  0.6391 -0.6659
  617MOL0     H81395   6.963   4.031   2.441  0.5053  0.0709 -0.3693
  617MOL0     H81396   6.911   4.082   2.276 -3.5307 -0.7902 -2.2019
  617MOL0     H81397   6.920   3.759   2.472 -2.4406 -1.3966  1.3982
  617MOL0     H81398   6.820   3.511   2.443  0.5517  0.1188  1.1888
  617MOL0     H81399   6.747   3.483   2.283  0.8247  2.4998 -1.4091
  617MOL0     H81400   6.533   3.579   2.363 -0.0121  1.9329  0.5130
  617MOL0     H81401   6.599   3.576   2.529  0.3960 -0.2029 -0.0973
  617MOL0     H81402   6.581   3.318   2.368 -2.5557 -2.7549  0.9885
  617MOL0     H81403   6.627   3.334   2.539 -0.1573  2.9258  2.2083
  617MOL0     H81404   6.409   3.454   2.567  0.8893 -2.1044  1.5653
  617MOL0     H81405   6.400   3.277   2.543 -0.0332  0.5681  1.7604
  617MOL0     H81406   6.153   3.212   2.360  0.2155 -0.1672 -1.6138
  617MOL0     H81407   5.910   3.254   2.362 -0.3300  0.4343  0.1695
  617MOL0     H81408   5.560   3.346   2.147 -0.8258  3.3194 -1.0941
  617MOL0     H81409   5.307   3.359   2.119  0.0775 -2.7404 -0.5401
  617MOL0     H81410   5.046   3.433   2.476  1.4163 -0.0815  0.3291
  617MOL0     H81411   5.081   3.256   2.466  0.9758 -0.8914 -2.4690
  617MOL0     H81412   4.847   3.298   2.439  0.8268  1.2327  2.3976
  617MOL0     H81413   4.927   3.226   2.294  1.6626  1.2779 -0.8434
  617MOL0     H81414   4.913   3.438   2.170  2.6063 -2.4116  1.5524
  617MOL0     H81415   4.871   3.511   2.314 -1.0594  0.6664 -0.0951
  617MOL0     H81416   4.684   3.296   2.216  1.7830  0.5686 -1.9642
  617MOL0     H81417   4.668   3.408   2.350 -0.9289 -1.1194 -1.8583
  617MOL0     H81418   4.653   3.458   2.058 -1.6535  0.4325 -0.6027
  617MOL0     H81419   4.697   3.592   2.172 -0.1240 -0.1085  0.1284
  617MOL0     H81420   4.478   3.524   2.290 -1.9880  1.7954 -1.1387
  617MOL0     H81421   4.442   3.416   2.156  0.7983 -1.0435 -0.0333
  617MOL0     H81422   4.481   3.720   2.160  4.1538 -2.0244  0.9798
  617MOL0     H81423   4.449   3.618   2.007 -0.5853 -0.2092  0.4824
  617MOL0     H81424   4.237   3.700   2.092 -0.9003 -0.4520  0.6995
  617MOL0     H81425   4.282   3.666   2.254  1.1043 -1.0883  0.8673
  617MOL0     H81426   5.265   3.393   2.554  1.4487 -0.8297  0.4509
  617MOL0     H81427   5.503   3.393   2.575 -2.8800 -2.3209  1.4200
  617MOL0     H81428   5.981   3.666   2.458  3.1235  0.9142  2.1919
  617MOL0     H81429   6.227   3.608   2.460  0.1899  0.2265 -1.6487
  617MOL0     H81430   5.886   4.488   2.594 -0.6892  0.2306  0.3115
  617MOL0     H81431   5.649   4.523   2.539  1.3956  2.9467  0.9669
  617MOL0     H81432   5.281   4.221   2.131  1.7440  1.8347 -1.9544
  617MOL0     H81433   5.029   4.254   2.111  0.0767  1.3958 -2.0680
  617MOL0     H81434   4.786   4.306   2.127  0.8617  0.7479  1.4036
  617MOL0     H81435   4.880   4.382   1.997 -1.1123  0.0515  0.0652
  617MOL0     H81436   4.722   4.535   1.948  2.5831  1.1253  0.8469
  617MOL0     H81437   4.623   4.410   2.014 -1.4179  2.1411 -1.3527
  617MOL0     H81438   4.734   4.668   2.161 -1.7825  2.3332 -3.4532
  617MOL0     H81439   4.662   4.530   2.247  2.4050 -0.1229 -0.6309
  617MOL0     H81440   4.523   4.725   2.202  2.4587 -1.5615  2.0857
  617MOL0     H81441   4.529   4.709   2.037  0.2421  3.7623  1.8144
  617MOL0     H81442   4.283   4.366   2.092 -2.0713  0.5214 -1.3272
  617MOL0     H81443   5.046   4.630   2.296 -0.9945  0.4238 -1.7361
  617MOL0     H81444   5.303   4.593   2.348 -0.9074  0.0908  1.4329
  618MOL0     O81445   9.466   1.930   5.704  0.3520 -0.4619  0.0747
  618MOL0     C81446   9.543   1.958   5.614 -0.6951  0.6102 -0.8989
  618MOL0     O81447   9.508   1.967   5.478 -0.0642 -0.1790  0.2275
  618MOL0     C81448   9.376   1.955   5.440  0.1160  0.5921 -0.4434
  618MOL0     C81449   9.310   1.836   5.473  0.0731 -0.2401  0.1924
  618MOL0     C81450   9.177   1.819   5.428  0.3503  0.5298 -0.2537
  618MOL0     C81451   9.109   1.925   5.373  0.1820  0.3978  0.2314
  618MOL0     O81452   8.976   1.922   5.326 -0.1171  0.2209 -0.2912
  618MOL0     C81453   8.929   1.804   5.265 -0.0565 -0.0885 -0.1724
  618MOL0     C81454   8.785   1.844   5.230 -0.1978 -0.8287 -0.7413
  618MOL0     C81455   8.704   1.740   5.152 -0.3484  0.5887 -0.2092
  618MOL0     C81456   8.711   1.594   5.217 -0.6669 -0.8428 -0.1137
  618MOL0     C81457   8.604   1.495   5.173  0.1592  0.5654  0.0985
  618MOL0     C81458   8.465   1.540   5.209  0.1920 -0.5447  0.0126
  618MOL0     C81459   8.356   1.429   5.178 -1.1179  0.1165  0.0185
  618MOL0     C81460   8.226   1.453   5.255 -0.6493  0.2652  0.4523
  618MOL0     N81461   8.148   1.552   5.179  0.4862  0.5405  0.2521
  618MOL0     C81462   8.095   1.526   5.056 -0.2126  0.1242 -0.1114
  618MOL0     C81463   8.033   1.638   5.017 -0.1223 -0.0670  0.3790
  618MOL0     C81464   7.957   1.659   4.894  0.1005 -0.8941  0.7138
  618MOL0     C81465   7.859   1.534   4.874  0.3029  0.1378 -0.6909
  618MOL0     C81466   7.732   1.575   4.789  0.1781 -1.0084 -0.0628
  618MOL0     C81467   7.644   1.455   4.774  0.6039  0.4024  1.0267
  618MOL0     O81468   7.526   1.496   4.707  0.0220  0.8734 -0.9233
  618MOL0     C81469   7.444   1.393   4.665 -0.1426 -0.0677  0.5078
  618MOL0     C81470   7.478   1.278   4.584 -0.4280  0.5107  0.0600
  618MOL0     C81471   7.401   1.164   4.575  0.6265  0.4835  0.3233
  618MOL0     C81472   7.268   1.164   4.632 -0.6401  0.4992  0.0517
  618MOL0     C81473   7.163   1.056   4.615 -0.4188  0.0590  0.3697
  618MOL0     O81474   7.052   1.057   4.693 -0.4252  0.5030 -0.1971
  618MOL0     C81475   6.959   0.950   4.685 -0.1870  0.5753 -0.5935
  618MOL0     C81476   6.919   0.872   4.568 -0.2649 -0.0078 -0.3651
  618MOL0     C81477   6.832   0.762   4.580 -0.6777 -0.8323 -0.3869
  618MOL0     C81478   6.773   0.739   4.705  0.0073  0.0056  0.4125
  618MOL0     O81479   6.673   0.644   4.734 -0.2293 -0.0409  0.0336
  618MOL0     C81480   6.555   0.663   4.657  0.8863  0.4051 -0.3178
  618MOL0     C81481   6.436   0.573   4.698 -0.0266 -0.0138 -0.6539
  618MOL0     C81482   6.301   0.617   4.629 -0.7335 -0.1474  0.0828
  618MOL0     C81483   6.192   0.524   4.681  0.6194  0.8402 -0.5875
  618MOL0     C81484   6.050   0.545   4.630  0.1888 -0.1415 -0.7379
  618MOL0     C81485   5.931   0.496   4.716 -0.1279 -0.8292 -0.0373
  618MOL0     C81486   5.803   0.493   4.630 -0.5451 -0.3788 -0.4203
  618MOL0     C81487   5.683   0.427   4.696 -0.0680 -0.0580 -0.1186
  618MOL0    Cl81488   5.723   0.256   4.753 -0.0501  0.0373  0.4990
  618MOL0     C81489   6.818   0.806   4.817 -0.1525 -0.2642 -0.2519
  618MOL0     C81490   6.908   0.911   4.811  0.1329  0.1830 -0.3200
  618MOL0     O81491   7.194   0.963   4.536 -0.1380 -0.3774  0.4509
  618MOL0     C81492   7.241   1.264   4.720  0.4606 -0.4883  0.4238
  618MOL0     C81493   7.329   1.375   4.730  0.2992  0.4934 -0.4974
  618MOL0     N81494   8.071   1.737   5.108  0.1055  0.1352 -0.0949
  618MOL0     N81495   8.140   1.684   5.212  0.5359  0.7010 -0.0825
  618MOL0     C81496   9.174   2.040   5.334 -0.4584 -0.2841 -0.2183
  618MOL0     C81497   9.311   2.059   5.374 -0.5318  0.2306 -0.1520
  618MOL0     C81498   9.683   1.985   5.650 -0.0727 -0.0550  0.6703
  618MOL0     C81499   9.759   2.063   5.563  0.5547 -0.6536 -0.3593
  618MOL0     C81500   9.889   2.097   5.603  0.2483  0.2828 -0.9891
  618MOL0     C81501   9.950   2.043   5.719 -0.0591 -0.0733  1.1417
  618MOL0     O81502  10.071   2.073   5.766  0.4728  0.2903 -0.0610
  618MOL0     C81503  10.165   2.150   5.699  0.7187  0.4120  0.2653
  618MOL0     C81504  10.141   2.297   5.698 -0.1849  0.1253  0.3201
  618MOL0     C81505  10.221   2.378   5.597  0.0302 -0.3457 -0.1912
  618MOL0     C81506  10.373   2.357   5.602  0.4398 -0.9817  0.1188
  618MOL0     C81507  10.432   2.432   5.723 -0.1045  0.7669  0.2710
  618MOL0     C81508  10.488   2.506   5.802 -0.1934 -0.2560 -0.1297
  618MOL0     C81509   9.873   1.960   5.803 -0.3764  0.1725 -0.3136
  618MOL0     C81510   9.737   1.939   5.776 -0.9611  0.7286  0.0127
  618MOL0     H81511   9.354   1.752   5.526 -1.0936 -1.1969 -0.3013
  618MOL0     H81512   9.112   1.735   5.455  1.2375  0.0891  0.5800
  618MOL0     H81513   8.934   1.725   5.341  1.7109  1.0653  0.9703
  618MOL0     H81514   8.990   1.763   5.184  2.8714  1.7047  0.9952
  618MOL0     H81515   8.790   1.940   5.178  1.4233 -0.1635  0.5356
  618MOL0     H81516   8.736   1.863   5.326  1.2483  3.1816 -0.6205
  618MOL0     H81517   8.746   1.738   5.051  0.1711 -1.8914 -0.0226
  618MOL0     H81518   8.599   1.768   5.143 -0.1266  1.5493  0.0610
  618MOL0     H81519   8.809   1.547   5.205 -1.1744 -1.9583 -0.0258
  618MOL0     H81520   8.705   1.599   5.326  1.1811 -1.3727  0.0537
  618MOL0     H81521   8.628   1.394   5.208 -1.0283  1.2031  3.0191
  618MOL0     H81522   8.613   1.483   5.064  0.3496  2.1777 -0.0791
  618MOL0     H81523   8.431   1.624   5.147 -0.1619 -0.1769  0.6928
  618MOL0     H81524   8.457   1.562   5.315 -2.7239  2.9667 -0.7397
  618MOL0     H81525   8.346   1.427   5.069 -0.9208  0.3197 -0.0046
  618MOL0     H81526   8.395   1.330   5.200 -0.7837  0.7787  2.7812
  618MOL0     H81527   8.255   1.500   5.349 -2.2007 -0.2822  1.2502
  618MOL0     H81528   8.173   1.360   5.277 -0.2364 -0.4894 -1.4969
  618MOL0     H81529   8.097   1.431   5.003  0.7048 -0.0911  0.2903
  618MOL0     H81530   8.023   1.667   4.807  0.6873  0.2739  1.2464
  618MOL0     H81531   7.892   1.746   4.896  0.1454 -0.7497 -1.7034
  618MOL0     H81532   7.816   1.504   4.970 -1.7849 -0.9026 -1.8763
  618MOL0     H81533   7.908   1.445   4.833 -0.0854 -1.7721  2.6423
  618MOL0     H81534   7.678   1.662   4.828  0.6428 -0.9176  0.3826
  618MOL0     H81535   7.779   1.600   4.694  0.1582 -0.9780 -0.0643
  618MOL0     H81536   7.627   1.400   4.867  2.3064  1.5939  2.1020
  618MOL0     H81537   7.693   1.387   4.704  0.0509 -1.7217  2.6164
  618MOL0     H81538   7.573   1.273   4.532  0.9700  0.6101  2.4719
  618MOL0     H81539   7.439   1.087   4.510 -0.7931 -0.1694  0.2232
  618MOL0     H81540   6.965   0.901   4.474  1.2538 -2.2968 -0.4084
  618MOL0     H81541   6.796   0.708   4.493 -2.5592  1.6805 -1.2735
  618MOL0     H81542   6.584   0.642   4.553 -1.0561 -2.9756 -0.3365
  618MOL0     H81543   6.522   0.766   4.669  1.7581  0.6192  0.3769
  618MOL0     H81544   6.435   0.568   4.808  1.6460  0.4158 -0.5848
  618MOL0     H81545   6.466   0.471   4.669  1.3008  0.5999 -1.5589
  618MOL0     H81546   6.303   0.616   4.520  0.0142  1.0420  0.0644
  618MOL0     H81547   6.280   0.720   4.661  0.8568  0.0497  0.5872
  618MOL0     H81548   6.230   0.424   4.658 -1.6867  0.3723 -2.9150
  618MOL0     H81549   6.183   0.522   4.790  1.7302 -1.0292 -0.4908
  618MOL0     H81550   6.051   0.487   4.537  1.1667  2.0432 -2.1835
  618MOL0     H81551   6.043   0.654   4.620  0.8411  0.2504  2.1762
  618MOL0     H81552   5.934   0.565   4.801  1.3861 -1.3766  0.3882
  618MOL0     H81553   5.960   0.397   4.751 -0.5922 -0.1978  2.2613
  618MOL0     H81554   5.766   0.592   4.604 -0.9747 -0.7617 -1.3329
  618MOL0     H81555   5.824   0.434   4.540  0.5689  1.0668 -1.1359
  618MOL0     H81556   5.603   0.413   4.623 -0.3285  0.5403  0.0421
  618MOL0     H81557   5.643   0.479   4.784  0.8157 -0.8551  0.7646
  618MOL0     H81558   6.775   0.779   4.912 -2.2192 -0.5911 -1.2153
  618MOL0     H81559   6.937   0.965   4.900  1.1671 -0.7153 -0.0939
  618MOL0     H81560   7.160   1.241   4.789 -0.7311 -0.9088 -1.0604
  618MOL0     H81561   7.308   1.465   4.786 -0.0407  0.5499 -0.7102
  618MOL0     H81562   9.112   2.100   5.269 -0.0583 -0.9570 -1.2317
  618MOL0     H81563   9.367   2.148   5.348  0.4274  0.4446  2.4036
  618MOL0     H81564   9.720   2.120   5.480  0.7279 -1.8250 -1.2840
  618MOL0     H81565   9.937   2.165   5.534 -1.6282  2.2252 -0.4910
  618MOL0     H81566  10.164   2.118   5.594 -0.4564 -0.7654  0.6077
  618MOL0     H81567  10.264   2.143   5.746  0.6940  3.5348  0.9961
  618MOL0     H81568  10.036   2.322   5.685 -0.5084 -0.8937  0.8361
  618MOL0     H81569  10.166   2.330   5.799 -2.9743 -0.9310  1.4487
  618MOL0     H81570  10.201   2.484   5.613  2.9753  0.0166  1.7645
  618MOL0     H81571  10.189   2.353   5.495 -1.5248  3.0828 -0.6617
  618MOL0     H81572  10.404   2.252   5.595 -1.9741 -1.7284 -0.5335
  618MOL0     H81573  10.401   2.404   5.507  0.7280 -1.2860  0.0484
  618MOL0     H81574  10.537   2.566   5.876 -1.8087  0.1462  0.6733
  618MOL0     H81575   9.903   1.940   5.906  0.4215 -1.8020 -0.8795
  618MOL0     H81576   9.670   1.890   5.846 -1.4925 -0.6674 -1.4240
  619MOL0     O81577   0.849   4.936  11.191  0.6100 -0.1174  0.1842
  619MOL0     C81578   0.877   4.833  11.255  0.2821 -0.5850 -0.2900
  619MOL0     O81579   0.795   4.738  11.303  0.3380  0.3229  0.6719
  619MOL0     C81580   0.662   4.762  11.307 -0.2851 -0.7104  0.0496
  619MOL0     C81581   0.590   4.738  11.427  0.8881 -0.1835  0.8520
  619MOL0     C81582   0.447   4.756  11.432  0.4076  1.2840  0.5370
  619MOL0     C81583   0.381   4.806  11.318  0.2944 -0.3977  0.4744
  619MOL0     O81584   0.249   4.844  11.320 -0.5546 -0.0741  0.6754
  619MOL0     C81585   0.179   4.844  11.449  0.4560 -0.4144 -0.4542
  619MOL0     C81586   0.046   4.902  11.415 -0.0820 -1.0484  0.5265
  619MOL0     C81587  -0.049   4.792  11.348 -0.4152 -0.3693 -0.1219
  619MOL0     C81588  -0.184   4.844  11.313  0.6733  0.3184 -0.8196
  619MOL0     C81589  -0.264   4.753  11.210  0.8027  0.2701  0.3012
  619MOL0     C81590  -0.403   4.808  11.180 -0.2148  1.1192  0.3588
  619MOL0     C81591  -0.495   4.820  11.297  0.2572 -0.1310  0.2317
  619MOL0     C81592  -0.519   4.688  11.381  0.3516  0.2830 -0.7752
  619MOL0     N81593  -0.653   4.687  11.448  0.0242 -0.0267 -0.1500
  619MOL0     C81594  -0.665   4.739  11.573 -0.1975  0.6680 -0.0146
  619MOL0     C81595  -0.795   4.739  11.597 -0.2967 -0.0200  0.0239
  619MOL0     C81596  -0.861   4.788  11.725 -0.2157 -0.5186 -0.1742
  619MOL0     C81597  -1.006   4.841  11.733  0.7238  0.4427  0.1912
  619MOL0     C81598  -1.114   4.734  11.716  0.4478 -0.1203 -0.8443
  619MOL0     C81599  -1.239   4.782  11.788  0.3452  0.4658 -0.1018
  619MOL0     O81600  -1.283   4.898  11.716 -0.1323 -0.3474 -0.0844
  619MOL0     C81601  -1.417   4.919  11.706  0.3506  0.2282  0.8357
  619MOL0     C81602  -1.452   5.028  11.630  0.6308 -0.2767 -0.1156
  619MOL0     C81603  -1.582   5.048  11.589  0.6935  0.0496 -0.0191
  619MOL0     C81604  -1.684   4.956  11.627 -0.0546  0.7882  0.6024
  619MOL0     C81605  -1.825   4.976  11.592  0.2415  0.2184  0.0724
  619MOL0     O81606  -1.847   5.063  11.490  0.1345  0.5289 -0.4733
  619MOL0     C81607  -1.976   5.077  11.445 -0.4536 -0.0514 -0.2453
  619MOL0     C81608  -2.058   4.978  11.401  0.3391  0.3731 -1.0500
  619MOL0     C81609  -2.183   5.015  11.350  0.1195 -0.3673  0.2431
  619MOL0     C81610  -2.229   5.149  11.357  0.7517  1.1985  0.0157
  619MOL0     O81611  -2.360   5.171  11.309 -0.4771  0.1519 -0.5401
  619MOL0     C81612  -2.415   5.296  11.358 -0.2422  0.1473  0.1672
  619MOL0     C81613  -2.563   5.276  11.394  0.2326  0.1233 -0.0701
  619MOL0     C81614  -2.597   5.200  11.522  0.1311  0.6266  0.4572
  619MOL0     C81615  -2.743   5.217  11.548  0.2897 -0.0740 -0.4690
  619MOL0     C81616  -2.850   5.163  11.452  0.2110 -0.2873  0.7185
  619MOL0     C81617  -2.988   5.214  11.498 -0.0703  0.3083 -0.4908
  619MOL0     C81618  -3.105   5.148  11.429 -0.4966 -0.0049 -0.0202
  619MOL0     C81619  -3.232   5.202  11.484 -0.0564 -0.5228 -1.1232
  619MOL0    Cl81620  -3.246   5.375  11.427 -0.3408  0.3598  0.0185
  619MOL0     C81621  -2.139   5.245  11.399 -0.3632 -0.3888 -0.4759
  619MOL0     C81622  -2.012   5.207  11.446  0.8128 -0.7256 -0.2649
  619MOL0     O81623  -1.909   4.905  11.644 -0.1970 -0.1415  0.2640
  619MOL0     C81624  -1.648   4.848  11.713  0.0498  0.4666 -0.3622
  619MOL0     C81625  -1.521   4.826  11.753  0.4524 -0.0317  0.0153
  619MOL0     N81626  -0.860   4.711  11.476  0.2159 -0.3253  0.6280
  619MOL0     N81627  -0.774   4.675  11.385 -0.5114  0.4797  0.0824
  619MOL0     C81628   0.459   4.821  11.198 -0.3027  0.3962 -0.1219
  619MOL0     C81629   0.592   4.794  11.191 -0.1944  0.1965 -0.8998
  619MOL0     C81630   1.017   4.807  11.268 -0.2756 -0.1643 -0.7594
  619MOL0     C81631   1.107   4.915  11.263  0.4901  0.9999 -0.4289
  619MOL0     C81632   1.241   4.898  11.273 -0.5285  1.0635  0.0013
  619MOL0     C81633   1.301   4.772  11.299  0.5243  0.2818  0.3978
  619MOL0     O81634   1.432   4.740  11.325 -0.0850 -0.5193 -0.5825
  619MOL0     C81635   1.530   4.832  11.320 -0.9612 -0.8198 -0.4476
  619MOL0     C81636   1.545   4.936  11.437  0.9523  0.5018  0.4104
  619MOL0     C81637   1.654   5.032  11.425  0.5776 -0.9622 -0.0930
  619MOL0     C81638   1.770   4.990  11.522  0.7465 -0.4487 -0.6504
  619MOL0     C81639   1.876   5.086  11.508  0.5192 -0.3496 -0.6930
  619MOL0     C81640   1.970   5.152  11.478  0.2149 -0.1656 -0.3752
  619MOL0     C81641   1.213   4.662  11.297 -0.5114  0.6197 -0.6984
  619MOL0     C81642   1.074   4.679  11.290  0.0310 -0.1025 -0.8044
  619MOL0     H81643   0.642   4.719  11.521 -1.1461 -0.2343  2.0194
  619MOL0     H81644   0.406   4.745  11.532  0.8189 -2.5637  0.4075
  619MOL0     H81645   0.229   4.906  11.523  0.8510  0.4040 -1.3876
  619MOL0     H81646   0.179   4.742  11.489 -0.5704  0.6901  2.6785
  619MOL0     H81647   0.059   4.991  11.353  0.9828 -1.4839  0.1078
  619MOL0     H81648  -0.014   4.932  11.501 -2.1829 -3.1813 -0.0859
  619MOL0     H81649  -0.064   4.704  11.411 -0.8913  1.1338  1.9475
  619MOL0     H81650   0.001   4.769  11.253 -0.2929  2.4500 -0.8354
  619MOL0     H81651  -0.246   4.850  11.403  0.9749  0.6737 -0.6332
  619MOL0     H81652  -0.193   4.946  11.275 -2.9212  0.6373  0.5053
  619MOL0     H81653  -0.275   4.651  11.246  1.0882 -0.2222 -0.9554
  619MOL0     H81654  -0.205   4.746  11.118 -0.9607 -0.9920 -0.7708
  619MOL0     H81655  -0.458   4.746  11.109 -1.1878  2.8627 -0.4901
  619MOL0     H81656  -0.396   4.909  11.139 -0.2861  1.3738  0.9661
  619MOL0     H81657  -0.463   4.898  11.367 -0.4350 -0.6498  1.1485
  619MOL0     H81658  -0.591   4.859  11.262  1.3738  2.4690 -0.2319
  619MOL0     H81659  -0.439   4.660  11.450 -0.7159  0.5309  0.6037
  619MOL0     H81660  -0.532   4.612  11.303 -1.8664 -0.5124  0.2749
  619MOL0     H81661  -0.584   4.759  11.641 -1.5762  1.7029  1.3900
  619MOL0     H81662  -0.800   4.869  11.764 -0.5492 -0.2339 -0.2425
  619MOL0     H81663  -0.852   4.709  11.801  0.4935  0.7215  1.0638
  619MOL0     H81664  -1.015   4.923  11.662 -1.0203  0.8440  0.8093
  619MOL0     H81665  -1.008   4.879  11.836  0.6111 -1.2604  0.8431
  619MOL0     H81666  -1.127   4.697  11.614  2.2694 -3.7141  0.0422
  619MOL0     H81667  -1.084   4.652  11.782  1.7816  0.0204 -1.2392
  619MOL0     H81668  -1.227   4.796  11.896  1.4313  0.3331 -0.1963
  619MOL0     H81669  -1.306   4.696  11.778  2.1573 -1.2352  1.6682
  619MOL0     H81670  -1.372   5.088  11.588 -0.6332  1.2126 -0.4928
  619MOL0     H81671  -1.605   5.142  11.541 -3.6603 -0.6822  0.2845
  619MOL0     H81672  -2.028   4.875  11.391 -0.4561  0.0971 -0.6823
  619MOL0     H81673  -2.238   4.931  11.311 -2.9345  1.9225 -0.8150
  619MOL0     H81674  -2.406   5.363  11.272 -1.0588  1.0288  0.7391
  619MOL0     H81675  -2.369   5.338  11.448 -1.2152  2.3901 -0.3070
  619MOL0     H81676  -2.609   5.219  11.313 -0.9476  0.0058  0.6609
  619MOL0     H81677  -2.615   5.372  11.400 -0.2875 -0.1983  0.7041
  619MOL0     H81678  -2.541   5.244  11.605 -0.4858  2.9394 -0.2636
  619MOL0     H81679  -2.574   5.094  11.514  0.6846  0.5873  2.1642
  619MOL0     H81680  -2.763   5.171  11.646  1.8137  0.1240 -0.0256
  619MOL0     H81681  -2.756   5.325  11.564 -0.9007 -0.4515  1.4927
  619MOL0     H81682  -2.844   5.054  11.444  1.8058 -0.0996 -1.9445
  619MOL0     H81683  -2.848   5.194  11.347  0.2513 -1.8691  0.2125
  619MOL0     H81684  -2.996   5.322  11.482 -1.9348  0.1466 -0.8977
  619MOL0     H81685  -2.991   5.189  11.604  0.5851  1.2683 -0.2289
  619MOL0     H81686  -3.098   5.159  11.320 -0.1244 -1.4738 -0.1732
  619MOL0     H81687  -3.107   5.040  11.449 -1.0026  0.1848  1.0270
  619MOL0     H81688  -3.241   5.195  11.593  1.5426  3.2415 -0.5914
  619MOL0     H81689  -3.314   5.146  11.438 -1.5627 -0.6997  1.5398
  619MOL0     H81690  -2.170   5.349  11.402 -1.5038 -0.7323  0.3146
  619MOL0     H81691  -1.941   5.279  11.485  1.1620  0.2149 -2.4769
  619MOL0     H81692  -1.721   4.773  11.744 -0.4298  1.2535  0.4466
  619MOL0     H81693  -1.507   4.735  11.810  0.9831  1.8161  3.0962
  619MOL0     H81694   0.411   4.857  11.108 -0.7678 -1.5012 -0.6660
  619MOL0     H81695   0.650   4.809  11.101  0.9928 -0.7749 -0.3334
  619MOL0     H81696   1.071   5.015  11.243 -1.6287 -0.0833 -2.5186
  619MOL0     H81697   1.311   4.978  11.251  3.1885 -2.1275 -0.8720
  619MOL0     H81698   1.525   4.890  11.227 -0.3099  2.8486  1.6276
  619MOL0     H81699   1.622   4.772  11.317 -1.3711 -1.5483  0.8335
  619MOL0     H81700   1.448   4.986  11.444 -0.4327 -2.1160  1.3645
  619MOL0     H81701   1.546   4.873  11.527 -1.6105  0.4081  0.4603
  619MOL0     H81702   1.626   5.134  11.451 -1.5740 -1.8376  1.3581
  619MOL0     H81703   1.697   5.033  11.324  1.4830 -1.3333  0.2799
  619MOL0     H81704   1.741   4.977  11.627  1.3499 -0.8519 -0.5258
  619MOL0     H81705   1.810   4.895  11.484 -0.0806 -0.3460 -1.8342
  619MOL0     H81706   2.051   5.217  11.450 -0.4364  1.6209  1.6114
  619MOL0     H81707   1.264   4.567  11.310 -0.9402  0.1956 -1.9846
  619MOL0     H81708   1.011   4.591  11.287  0.2448 -0.3205  0.7504
  620MOL0     O81709   0.539   3.777   4.657  0.4805 -0.3167 -0.3785
  620MOL0     C81710   0.463   3.679   4.641  0.3234 -0.0000 -1.0521
  620MOL0     O81711   0.332   3.672   4.682  0.1539 -0.1341 -0.2606
  620MOL0     C81712   0.261   3.770   4.750  0.5945 -0.8678 -0.5667
  620MOL0     C81713   0.324   3.855   4.843 -0.2449  0.4918  0.0530
  620MOL0     C81714   0.253   3.960   4.909  0.9516  0.3739  0.2349
  620MOL0     C81715   0.122   3.981   4.875  0.1848  0.2297 -0.8216
  620MOL0     O81716   0.044   4.088   4.924 -0.1030  0.0551  0.0658
  620MOL0     C81717   0.034   4.112   5.067 -0.1529  0.8375  0.2793
  620MOL0     C81718  -0.081   4.207   5.096  0.9582 -0.4108 -0.1321
  620MOL0     C81719  -0.216   4.146   5.123 -0.2745 -0.0571  0.5528
  620MOL0     C81720  -0.263   4.066   5.000 -0.8053 -0.8135  0.3285
  620MOL0     C81721  -0.415   4.025   5.013 -0.4396 -0.1005  0.6975
  620MOL0     C81722  -0.457   3.960   4.883  0.6937  0.3411  0.0694
  620MOL0     C81723  -0.604   3.892   4.896 -0.2008 -0.4946 -0.0609
  620MOL0     C81724  -0.705   4.011   4.874 -0.5558 -0.8477 -0.9496
  620MOL0     N81725  -0.840   3.970   4.913 -0.4740  0.6189  0.5485
  620MOL0     C81726  -0.893   3.951   5.040  0.5182  0.0337  0.8444
  620MOL0     C81727  -1.030   3.949   5.018  0.3593  0.1927 -0.4785
  620MOL0     C81728  -1.121   3.907   5.125  0.5220 -0.0012 -0.3957
  620MOL0     C81729  -1.273   3.938   5.084 -0.3927 -0.4218  0.4051
  620MOL0     C81730  -1.366   3.901   5.200  0.0057  0.2339  0.0327
  620MOL0     C81731  -1.505   3.955   5.183  0.8688  1.2982  0.3814
  620MOL0     O81732  -1.555   3.889   5.067 -0.2100  0.2915  0.5063
  620MOL0     C81733  -1.692   3.897   5.039 -0.3570 -0.0959 -0.4943
  620MOL0     C81734  -1.738   3.831   4.925 -0.3629  0.2730 -0.5256
  620MOL0     C81735  -1.875   3.831   4.883 -1.0070  0.5518 -0.7583
  620MOL0     C81736  -1.973   3.899   4.961 -0.0465  0.5345 -0.2651
  620MOL0     C81737  -2.116   3.876   4.925 -0.6417 -0.2632  0.1935
  620MOL0     O81738  -2.143   3.828   4.794 -0.1907  0.4560  0.4317
  620MOL0     C81739  -2.275   3.804   4.758  0.3026  0.2148 -1.1073
  620MOL0     C81740  -2.385   3.890   4.797  0.3488 -0.3167  0.0424
  620MOL0     C81741  -2.519   3.856   4.767 -0.4487 -0.1563  0.2126
  620MOL0     C81742  -2.547   3.743   4.698  0.6095 -0.4153  0.3341
  620MOL0     O81743  -2.683   3.728   4.686  0.7865  0.9199 -0.0484
  620MOL0     C81744  -2.727   3.593   4.667 -0.6698 -0.5082  0.4667
  620MOL0     C81745  -2.736   3.508   4.793  1.3215 -0.3106 -0.2597
  620MOL0     C81746  -2.881   3.519   4.855  0.3563 -0.7736 -0.1337
  620MOL0     C81747  -2.901   3.448   4.991  0.2062 -0.1398  0.6206
  620MOL0     C81748  -3.046   3.476   5.041 -0.0679 -0.1000 -0.8598
  620MOL0     C81749  -3.050   3.599   5.139  0.3054  0.0470 -0.9115
  620MOL0     C81750  -3.192   3.646   5.155  0.1760  1.0106  0.2916
  620MOL0     C81751  -3.277   3.555   5.238 -0.1715  0.0264 -0.2744
  620MOL0    Cl81752  -3.194   3.478   5.382 -0.2952 -0.1337 -0.1148
  620MOL0     C81753  -2.445   3.655   4.665  0.2703 -0.8814  0.2460
  620MOL0     C81754  -2.309   3.685   4.686 -0.2990 -0.9274  0.3186
  620MOL0     O81755  -2.196   3.908   5.010  0.0135 -0.1748 -0.3275
  620MOL0     C81756  -1.925   3.972   5.074  0.3682  0.1204 -0.3837
  620MOL0     C81757  -1.785   3.978   5.108 -0.2482  0.0233  0.0717
  620MOL0     N81758  -1.057   3.979   4.885  0.4733  0.1225  0.3429
  620MOL0     N81759  -0.940   3.997   4.828  0.8087  0.5026 -0.5910
  620MOL0     C81760   0.057   3.895   4.783  0.0042  0.1045  0.1949
  620MOL0     C81761   0.123   3.786   4.730 -0.2233  0.2258  0.7962
  620MOL0     C81762   0.520   3.574   4.564  0.4953  0.2339  0.6926
  620MOL0     C81763   0.458   3.448   4.559 -0.2893 -0.2748 -0.2083
  620MOL0     C81764   0.506   3.344   4.479  0.6885  0.7083  0.9536
  620MOL0     C81765   0.620   3.358   4.404 -0.3672  0.4660 -0.4384
  620MOL0     O81766   0.686   3.260   4.333  0.1150  0.6976 -0.7158
  620MOL0     C81767   0.629   3.133   4.330 -0.4788  0.7066  0.1214
  620MOL0     C81768   0.720   3.030   4.266  0.0339  0.3143  0.1037
  620MOL0     C81769   0.680   2.882   4.293 -0.2191  0.5337  0.5313
  620MOL0     C81770   0.529   2.857   4.284  0.1616 -0.9975  0.8251
  620MOL0     C81771   0.460   2.891   4.160 -1.5638  0.5840 -0.2677
  620MOL0     C81772   0.396   2.889   4.057 -0.2564 -0.1144 -0.2657
  620MOL0     C81773   0.682   3.488   4.402  0.0420 -0.0301  0.0050
  620MOL0     C81774   0.630   3.595   4.472 -0.8303 -1.0575  0.2494
  620MOL0     H81775   0.428   3.847   4.870 -0.3452  3.0590  1.5198
  620MOL0     H81776   0.300   4.017   4.989  0.8221  0.6168  0.1371
  620MOL0     H81777   0.134   4.140   5.100  0.7702 -0.4724 -1.2578
  620MOL0     H81778   0.003   4.020   5.117 -0.8228  0.9193  0.0278
  620MOL0     H81779  -0.085   4.281   5.016 -0.9357 -1.4942 -1.1151
  620MOL0     H81780  -0.053   4.267   5.183 -1.8900  0.1035  0.5144
  620MOL0     H81781  -0.291   4.225   5.137  1.6761  1.6272  1.9284
  620MOL0     H81782  -0.219   4.081   5.211  0.7211 -2.5604 -1.1382
  620MOL0     H81783  -0.246   4.129   4.912  0.7703 -0.5976  0.7564
  620MOL0     H81784  -0.200   3.977   5.003  1.1230  0.4958  1.5768
  620MOL0     H81785  -0.486   4.105   5.036 -0.5604  0.0231 -0.0672
  620MOL0     H81786  -0.412   3.950   5.091  2.1047 -1.8241 -0.9271
  620MOL0     H81787  -0.385   3.879   4.867 -0.6631 -0.7521 -0.6767
  620MOL0     H81788  -0.455   4.021   4.792  0.3302 -1.0798 -0.9217
  620MOL0     H81789  -0.598   3.818   4.816 -1.5150  0.3576 -0.9723
  620MOL0     H81790  -0.621   3.843   4.992  1.8028 -2.1945 -0.4890
  620MOL0     H81791  -0.694   4.040   4.769  0.0269  0.7135 -0.4870
  620MOL0     H81792  -0.671   4.097   4.933  1.5401  0.1239 -3.3417
  620MOL0     H81793  -0.850   3.924   5.136 -0.7204 -0.3535  1.3060
  620MOL0     H81794  -1.101   3.964   5.216 -1.9842  2.3618 -1.1922
  620MOL0     H81795  -1.116   3.799   5.142 -1.9570  0.2740  3.1810
  620MOL0     H81796  -1.292   3.884   4.991 -0.5577  1.2335 -0.5548
  620MOL0     H81797  -1.275   4.046   5.066  1.9664 -0.0277  2.0780
  620MOL0     H81798  -1.373   3.792   5.205  0.1281  0.2805  1.6455
  620MOL0     H81799  -1.331   3.949   5.292 -1.6230  0.3593  0.6150
  620MOL0     H81800  -1.507   4.064   5.181  1.6931  1.3385 -2.4293
  620MOL0     H81801  -1.560   3.926   5.272  0.3849  2.7663  0.5868
  620MOL0     H81802  -1.657   3.784   4.870  0.0366 -0.6251  0.7689
  620MOL0     H81803  -1.891   3.763   4.799  0.9471 -1.3758  0.3323
  620MOL0     H81804  -2.371   3.977   4.860  0.3288 -0.8129  0.7463
  620MOL0     H81805  -2.604   3.921   4.781 -0.2856  0.5912 -1.8996
  620MOL0     H81806  -2.661   3.547   4.593  0.7054 -0.3995  1.5861
  620MOL0     H81807  -2.823   3.603   4.616 -0.0483 -0.1574 -0.6736
  620MOL0     H81808  -2.664   3.527   4.873  1.9518  0.1124 -0.9236
  620MOL0     H81809  -2.721   3.407   4.753 -0.9017 -0.0247 -2.0226
  620MOL0     H81810  -2.959   3.479   4.790 -0.9516 -2.3158  2.2517
  620MOL0     H81811  -2.895   3.627   4.867  2.6011 -0.3374 -0.7584
  620MOL0     H81812  -2.890   3.339   4.984 -1.2655 -0.2085 -1.9739
  620MOL0     H81813  -2.833   3.484   5.069 -1.4327 -0.6126  2.3382
  620MOL0     H81814  -3.091   3.385   5.079  0.7591  0.8350  2.8215
  620MOL0     H81815  -3.108   3.516   4.960 -2.5423 -1.0029  0.5228
  620MOL0     H81816  -2.976   3.674   5.109  4.3392 -1.4931  3.7210
  620MOL0     H81817  -3.022   3.564   5.239 -4.2660 -0.6209  0.3585
  620MOL0     H81818  -3.192   3.747   5.196 -0.2283  1.1172  0.0261
  620MOL0     H81819  -3.240   3.652   5.057 -1.5465 -1.6544  0.8772
  620MOL0     H81820  -3.310   3.474   5.172 -0.4726 -0.2200  0.1703
  620MOL0     H81821  -3.366   3.611   5.266  0.0989 -0.6558  2.2201
  620MOL0     H81822  -2.470   3.566   4.607 -3.7435  1.4986 -2.1372
  620MOL0     H81823  -2.230   3.620   4.652  0.6650  0.1428  0.4270
  620MOL0     H81824  -1.994   4.023   5.141 -0.3636 -1.7253  0.3311
  620MOL0     H81825  -1.749   4.026   5.198  0.8427 -0.9755  0.1927
  620MOL0     H81826  -0.050   3.899   4.769 -0.2369  0.6373  1.9282
  620MOL0     H81827   0.073   3.721   4.658  2.8934 -0.4988 -0.9447
  620MOL0     H81828   0.372   3.424   4.621 -0.6778 -0.0376 -0.6512
  620MOL0     H81829   0.455   3.249   4.488  0.2745  0.8726  0.4023
  620MOL0     H81830   0.534   3.140   4.276 -0.7507  2.1493  0.7415
  620MOL0     H81831   0.607   3.094   4.430  3.0048 -1.9810  0.0410
  620MOL0     H81832   0.715   3.051   4.159  1.1079  0.5388  0.0853
  620MOL0     H81833   0.825   3.039   4.296  0.3317 -0.9220 -0.5082
  620MOL0     H81834   0.727   2.841   4.383 -1.1191  1.6368  1.5461
  620MOL0     H81835   0.726   2.830   4.209 -2.4183  2.4433 -2.0415
  620MOL0     H81836   0.506   2.751   4.300 -1.9896 -0.8241 -0.6393
  620MOL0     H81837   0.476   2.907   4.365 -0.5131  1.3116 -0.9219
  620MOL0     H81838   0.346   2.902   3.963 -2.0063  3.5028  0.9657
  620MOL0     H81839   0.774   3.502   4.346 -0.0581 -0.6559 -0.3243
  620MOL0     H81840   0.675   3.693   4.461  0.0342 -0.7701  4.3891
  621MOL0     O81841  10.110  10.051   9.320 -0.8078  0.1419  0.6507
  621MOL0     C81842  10.128  10.139   9.235 -0.1949  0.0381 -0.0404
  621MOL0     O81843  10.035  10.203   9.167  0.0111  0.1502  0.6041
  621MOL0     C81844   9.904  10.164   9.181 -0.3396  0.3511  0.4758
  621MOL0     C81845   9.847  10.086   9.076 -0.8010 -0.9096  0.7855
  621MOL0     C81846   9.710  10.036   9.089  0.5330 -0.8830  0.8679
  621MOL0     C81847   9.631  10.060   9.198 -0.0635 -0.7698 -0.4722
  621MOL0     O81848   9.502  10.024   9.222 -0.0091  0.6739  0.1787
  621MOL0     C81849   9.425   9.976   9.112 -0.2740  0.1451 -0.3271
  621MOL0     C81850   9.287   9.923   9.154  0.0774 -0.1153 -0.0355
  621MOL0     C81851   9.207  10.022   9.238  0.6632  0.4655  1.1318
  621MOL0     C81852   9.062  10.000   9.260 -0.3153  0.1775  0.1764
  621MOL0     C81853   8.961  10.123   9.257  0.9219  0.5351  0.1616
  621MOL0     C81854   8.976  10.214   9.135 -0.3497  0.5363 -0.3484
  621MOL0     C81855   8.846  10.300   9.102  0.4337 -0.3274  0.2495
  621MOL0     C81856   8.741  10.251   9.002  0.2189  0.0018  0.0625
  621MOL0     N81857   8.652  10.352   8.939  0.1673 -0.7621  0.0349
  621MOL0     C81858   8.593  10.325   8.821  0.2681 -0.1360  0.2165
  621MOL0     C81859   8.523  10.434   8.788 -0.4764 -0.7718 -0.1046
  621MOL0     C81860   8.447  10.463   8.664  0.0730 -0.1233  0.1239
  621MOL0     C81861   8.352  10.582   8.689 -0.5374 -0.5398 -0.3584
  621MOL0     C81862   8.258  10.596   8.567  0.8811 -0.4499  0.2843
  621MOL0     C81863   8.146  10.702   8.593 -0.1903 -0.1058 -0.1189
  621MOL0     O81864   8.019  10.675   8.534  0.7625 -0.5593 -0.5637
  621MOL0     C81865   7.913  10.758   8.562 -0.4768  0.4207  0.1768
  621MOL0     C81866   7.904  10.860   8.657  0.1073 -0.7503 -0.7159
  621MOL0     C81867   7.790  10.933   8.671  0.4882  0.0937  0.3776
  621MOL0     C81868   7.682  10.898   8.590  0.4968 -0.8791  0.7708
  621MOL0     C81869   7.559  10.985   8.592 -0.3081 -0.2347 -0.0734
  621MOL0     O81870   7.441  10.932   8.556  0.3569 -0.2322  0.4047
  621MOL0     C81871   7.336  11.015   8.547 -1.1851 -0.3278  0.2932
  621MOL0     C81872   7.269  11.000   8.429  0.1281 -0.5419  1.0474
  621MOL0     C81873   7.153  11.073   8.399  0.2893 -0.1875 -0.1350
  621MOL0     C81874   7.097  11.144   8.506  0.6043 -0.3421  0.3726
  621MOL0     O81875   6.980  11.219   8.474  0.4371  0.1957 -0.1093
  621MOL0     C81876   6.919  11.305   8.575  0.5623 -0.1586 -0.3939
  621MOL0     C81877   6.800  11.367   8.511 -0.8415 -0.0020 -0.2839
  621MOL0     C81878   6.718  11.454   8.609 -0.6488  0.3894 -0.3051
  621MOL0     C81879   6.629  11.370   8.701 -0.0673  0.0405  0.6485
  621MOL0     C81880   6.549  11.460   8.805  0.1255  0.0989  0.5910
  621MOL0     C81881   6.402  11.487   8.759 -0.9425 -0.5517 -0.3033
  621MOL0     C81882   6.330  11.592   8.849  0.2385  0.2732  0.2089
  621MOL0     C81883   6.187  11.608   8.786 -0.0946 -0.2908 -0.0215
  621MOL0    Cl81884   6.082  11.459   8.784  0.1893  0.2870 -0.3571
  621MOL0     C81885   7.172  11.171   8.628  1.2860 -0.0201  0.1441
  621MOL0     C81886   7.291  11.096   8.649  0.1044  0.0540 -0.1093
  621MOL0     O81887   7.574  11.100   8.619 -0.3369 -0.3692 -0.1550
  621MOL0     C81888   7.687  10.790   8.503 -0.4599 -0.2391 -0.4944
  621MOL0     C81889   7.802  10.722   8.488 -0.6701 -0.3099  0.0272
  621MOL0     N81890   8.524  10.517   8.898 -0.4016  0.0377  0.6022
  621MOL0     N81891   8.601  10.471   8.994  0.4558  0.1740 -0.4635
  621MOL0     C81892   9.694  10.130   9.296 -0.5880 -0.4678 -0.0749
  621MOL0     C81893   9.827  10.185   9.289  0.3780 -0.8316 -0.5550
  621MOL0     C81894  10.273  10.190   9.233 -0.9386  0.2971  0.6161
  621MOL0     C81895  10.377  10.131   9.313 -0.2169 -1.1429 -0.2464
  621MOL0     C81896  10.509  10.185   9.308  0.4528  0.4309 -0.5753
  621MOL0     C81897  10.539  10.288   9.222 -1.1546 -0.0602  0.0809
  621MOL0     O81898  10.669  10.334   9.217  0.0926 -0.2206  0.2005
  621MOL0     C81899  10.695  10.467   9.168 -1.3692 -0.7232  0.1922
  621MOL0     C81900  10.839  10.512   9.218  0.7417  0.0322  0.7669
  621MOL0     C81901  10.853  10.661   9.157 -0.9287  0.2051 -0.0916
  621MOL0     C81902  10.906  10.662   9.003 -0.0594  0.3484  0.0169
  621MOL0     C81903  11.039  10.603   8.994  0.8273 -0.0468  0.5326
  621MOL0     C81904  11.158  10.566   8.992  0.2093  0.3660 -0.1112
  621MOL0     C81905  10.432  10.346   9.147 -1.0807  0.1142 -0.1657
  621MOL0     C81906  10.310  10.294   9.154  0.6792  0.9333  0.9609
  621MOL0     H81907   9.913  10.049   8.998 -2.0804  1.2299 -1.4387
  621MOL0     H81908   9.683   9.973   9.005  2.1003  2.2388 -2.2027
  621MOL0     H81909   9.479   9.893   9.066 -0.6047 -2.4595  3.5450
  621MOL0     H81910   9.413  10.055   9.036  0.4520  0.3603 -0.2235
  621MOL0     H81911   9.305   9.828   9.205 -1.5928 -0.7431 -0.5410
  621MOL0     H81912   9.226   9.900   9.066  0.2448 -2.7179  0.4564
  621MOL0     H81913   9.209  10.117   9.183  0.9859 -0.2722 -0.1991
  621MOL0     H81914   9.266  10.028   9.330 -1.0072 -0.7405  2.3391
  621MOL0     H81915   9.032   9.932   9.180  2.3585  0.8243 -1.5185
  621MOL0     H81916   9.055   9.945   9.354 -0.5288 -2.4498 -1.2884
  621MOL0     H81917   8.985  10.195   9.336 -1.4437 -0.3354  1.8029
  621MOL0     H81918   8.862  10.080   9.275  1.0444 -1.2086 -2.7129
  621MOL0     H81919   8.996  10.163   9.041 -0.6032 -0.5639  0.1775
  621MOL0     H81920   9.058  10.285   9.150  0.9614 -0.0709 -3.8683
  621MOL0     H81921   8.789  10.319   9.194 -0.3781 -1.4515 -0.0027
  621MOL0     H81922   8.876  10.395   9.056  0.5572 -0.2632  0.4628
  621MOL0     H81923   8.675  10.185   9.058 -2.4884  1.0098 -1.7035
  621MOL0     H81924   8.797  10.190   8.930 -1.0482 -1.5431  0.3344
  621MOL0     H81925   8.598  10.233   8.764  0.3776 -0.9438  1.5187
  621MOL0     H81926   8.388  10.378   8.630  1.3755 -1.0066 -0.0170
  621MOL0     H81927   8.517  10.487   8.583 -2.4408  0.4937 -2.0036
  621MOL0     H81928   8.419  10.668   8.691  0.1751 -1.0487 -1.5067
  621MOL0     H81929   8.303  10.569   8.786 -1.4839 -1.5839 -0.9545
  621MOL0     H81930   8.325  10.613   8.482  1.8869 -4.4227  0.0875
  621MOL0     H81931   8.206  10.504   8.539 -2.4355  1.0511  0.9330
  621MOL0     H81932   8.178  10.793   8.542 -2.2848  0.9360  0.3086
  621MOL0     H81933   8.134  10.720   8.700 -2.4786 -1.5696 -0.0671
  621MOL0     H81934   7.985  10.872   8.729  0.0762  0.6966 -0.8788
  621MOL0     H81935   7.799  10.998   8.757 -0.1637 -1.3856  1.6037
  621MOL0     H81936   7.306  10.934   8.351 -0.4778 -0.8382  1.0100
  621MOL0     H81937   7.109  11.073   8.300  0.1018  2.3775 -0.1167
  621MOL0     H81938   6.987  11.377   8.621  1.4294  0.9108 -3.1333
  621MOL0     H81939   6.875  11.235   8.647  2.3031 -1.7755 -0.8340
  621MOL0     H81940   6.727  11.294   8.475 -0.7654 -0.4865  0.5058
  621MOL0     H81941   6.836  11.435   8.434 -0.9520  1.0163  0.5497
  621MOL0     H81942   6.662  11.518   8.541  1.0099 -1.9592 -4.2425
  621MOL0     H81943   6.793  11.503   8.672 -1.8899  2.8960 -0.6729
  621MOL0     H81944   6.560  11.309   8.641  2.8638 -1.8182 -1.0634
  621MOL0     H81945   6.683  11.295   8.759 -0.3074 -0.4674  0.2330
  621MOL0     H81946   6.588  11.562   8.814 -1.4917  0.6019  2.5757
  621MOL0     H81947   6.547  11.416   8.905  0.8493 -0.7017  0.2631
  621MOL0     H81948   6.361  11.386   8.756  2.6531 -2.1389 -0.5891
  621MOL0     H81949   6.418  11.535   8.662  3.4796  0.0165  0.4888
  621MOL0     H81950   6.331  11.548   8.949 -0.1549 -1.0860 -0.3727
  621MOL0     H81951   6.388  11.685   8.848  0.3839  0.2773  2.7081
  621MOL0     H81952   6.199  11.643   8.683 -1.9781 -1.7449 -0.8092
  621MOL0     H81953   6.132  11.686   8.838 -2.2262 -1.8596  0.2162
  621MOL0     H81954   7.130  11.230   8.708 -2.5667 -0.5277 -1.2682
  621MOL0     H81955   7.333  11.104   8.749 -1.2393  0.3698  0.4553
  621MOL0     H81956   7.599  10.762   8.446 -0.0541  0.5227 -1.5430
  621MOL0     H81957   7.789  10.631   8.430 -0.0487 -2.0287  2.4330
  621MOL0     H81958   9.634  10.170   9.377 -0.3188 -1.1066  0.4448
  621MOL0     H81959   9.867  10.248   9.367  1.0453  0.1450 -1.6455
  621MOL0     H81960  10.348  10.056   9.386  0.3111  0.7920  2.0866
  621MOL0     H81961  10.583  10.149   9.377 -1.3529 -0.1560  1.1364
  621MOL0     H81962  10.618  10.533   9.209  0.0745 -1.5826  4.8135
  621MOL0     H81963  10.699  10.474   9.059  0.1086 -0.4754  0.2493
  621MOL0     H81964  10.843  10.515   9.327  1.0514  1.6444  0.7468
  621MOL0     H81965  10.918  10.446   9.181 -1.6593 -2.3358 -0.4556
  621MOL0     H81966  10.925  10.717   9.218 -0.1056  1.7615 -2.3568
  621MOL0     H81967  10.758  10.715   9.160  0.9978  3.8682  0.9406
  621MOL0     H81968  10.838  10.608   8.937 -1.0483 -0.5665  1.7169
  621MOL0     H81969  10.916  10.765   8.967  1.0525  0.7765  1.4646
  621MOL0     H81970  11.265  10.556   8.988  0.4887  2.4476  0.6033
  621MOL0     H81971  10.457  10.434   9.088 -0.6466 -0.5478 -0.9923
  621MOL0     H81972  10.229  10.343   9.101 -0.3145 -0.5863  0.9898
  622MOL0     O81973   5.891   0.091   5.400 -0.4782  0.5615  0.2577
  622MOL0     C81974   5.822   0.013   5.460 -0.3569 -0.6924  0.6434
  622MOL0     O81975   5.864  -0.089   5.544  0.2428 -0.4560 -0.1900
  622MOL0     C81976   6.000  -0.123   5.560  0.3354 -0.1417 -0.4956
  622MOL0     C81977   6.057  -0.122   5.685 -0.2210  0.6680 -0.7308
  622MOL0     C81978   6.190  -0.152   5.704 -0.2666 -0.0820 -0.1981
  622MOL0     C81979   6.276  -0.181   5.589 -0.2632 -0.1218  0.1960
  622MOL0     O81980   6.404  -0.226   5.615 -0.7616  0.1026  0.0392
  622MOL0     C81981   6.485  -0.272   5.503 -0.1062 -0.2972 -0.6568
  622MOL0     C81982   6.621  -0.298   5.569  0.4806 -0.0496 -0.3637
  622MOL0     C81983   6.729  -0.280   5.463 -0.3734  0.5510  0.2294
  622MOL0     C81984   6.817  -0.404   5.455 -0.6488 -0.1231 -0.1006
  622MOL0     C81985   6.940  -0.408   5.361 -0.5161  0.7161  0.5311
  622MOL0     C81986   7.026  -0.281   5.385 -0.1489  0.3762 -0.2409
  622MOL0     C81987   7.170  -0.291   5.327  0.0309  0.0506 -0.0046
  622MOL0     C81988   7.278  -0.232   5.410  0.4907  0.7235 -0.3635
  622MOL0     N81989   7.261  -0.093   5.462  0.4355  0.4682  0.2418
  622MOL0     C81990   7.362  -0.003   5.454  0.2525 -0.0958  0.2329
  622MOL0     C81991   7.337   0.098   5.533  0.7838  0.1763 -0.5187
  622MOL0     C81992   7.431   0.203   5.593  0.2897  0.3272  1.1578
  622MOL0     C81993   7.412   0.236   5.745 -0.7199  1.1350  0.5303
  622MOL0     C81994   7.292   0.325   5.771  0.1899  0.2572 -0.4388
  622MOL0     C81995   7.294   0.475   5.736  0.0513  0.5237  0.6159
  622MOL0     O81996   7.207   0.541   5.831  0.6222 -0.5912  1.3751
  622MOL0     C81997   7.167   0.667   5.803  0.1334 -0.1527 -0.4869
  622MOL0     C81998   7.077   0.724   5.885  0.3448 -0.6374  0.2667
  622MOL0     C81999   7.020   0.844   5.845 -1.1233  0.3023  0.2017
  622MOL0     C82000   7.058   0.917   5.723 -0.2242 -0.0169 -0.9013
  622MOL0     C82001   6.990   1.043   5.690 -0.3457 -0.4250 -0.3857
  622MOL0     O82002   7.018   1.091   5.560  1.1963 -0.4041  0.8850
  622MOL0     C82003   6.913   1.168   5.519  0.7212 -0.5231  0.2399
  622MOL0     C82004   6.788   1.107   5.485  0.3243  0.2755  0.1832
  622MOL0     C82005   6.683   1.187   5.431  0.9200  0.3801 -0.9679
  622MOL0     C82006   6.706   1.325   5.406  0.8163  0.0423 -0.2624
  622MOL0     O82007   6.619   1.408   5.346 -0.7288 -0.1751  0.3034
  622MOL0     C82008   6.508   1.352   5.270  1.5275  0.0560  0.0983
  622MOL0     C82009   6.387   1.299   5.353 -0.0604  1.0357 -0.3679
  622MOL0     C82010   6.288   1.402   5.365  0.6307 -0.0466 -0.1419
  622MOL0     C82011   6.353   1.539   5.417 -0.7416  0.2230  0.2110
  622MOL0     C82012   6.244   1.634   5.438 -0.3283  0.0930 -0.3570
  622MOL0     C82013   6.284   1.736   5.545  0.5780  0.1621 -0.4419
  622MOL0     C82014   6.169   1.830   5.578 -0.6622  0.4675  0.0634
  622MOL0     C82015   6.175   1.958   5.499 -0.6276  0.6235 -0.0617
  622MOL0    Cl82016   6.132   1.952   5.323  0.2307  0.0137  0.1772
  622MOL0     C82017   6.831   1.381   5.431  0.1406  0.7390 -1.2024
  622MOL0     C82018   6.930   1.307   5.502  0.2285 -0.1242  0.0237
  622MOL0     O82019   6.917   1.108   5.774  0.1288  0.1606  0.3002
  622MOL0     C82020   7.161   0.864   5.648  0.2098 -0.4028  0.1365
  622MOL0     C82021   7.214   0.742   5.693 -0.0585  0.0090  0.3091
  622MOL0     N82022   7.212   0.077   5.575  0.0897  0.4925 -0.4465
  622MOL0     N82023   7.176  -0.044   5.547 -0.8384 -0.1399 -0.0094
  622MOL0     C82024   6.223  -0.177   5.463  0.6621 -0.1000  0.3252
  622MOL0     C82025   6.085  -0.156   5.452 -0.7992  0.5209  0.2063
  622MOL0     C82026   5.679   0.029   5.434  0.2524  0.2394  0.6449
  622MOL0     C82027   5.597  -0.059   5.515  0.0701 -0.6679 -1.1019
  622MOL0     C82028   5.460  -0.032   5.506  0.1512  0.3911  0.8409
  622MOL0     C82029   5.412   0.066   5.423  0.8328 -0.5193  0.2199
  622MOL0     O82030   5.276   0.065   5.416 -0.4755  0.6329  0.5520
  622MOL0     C82031   5.209   0.162   5.332  0.8671 -0.0538  0.6126
  622MOL0     C82032   5.062   0.166   5.383  0.2937  0.3008 -0.6479
  622MOL0     C82033   4.975   0.281   5.338  0.4214  0.1624  0.8403
  622MOL0     C82034   4.901   0.252   5.200  0.4726 -0.9435 -0.0352
  622MOL0     C82035   4.821   0.129   5.186 -0.0856 -0.3928 -0.3732
  622MOL0     C82036   4.753   0.028   5.176 -0.2927  0.3921 -0.1777
  622MOL0     C82037   5.493   0.153   5.349 -1.4012  0.1897  0.0069
  622MOL0     C82038   5.631   0.140   5.359 -0.4386 -0.1784 -0.3538
  622MOL0     H82039   6.001  -0.089   5.771  1.8842 -1.1511  1.4680
  622MOL0     H82040   6.245  -0.154   5.797 -0.4141  0.5260 -0.0986
  622MOL0     H82041   6.485  -0.198   5.423  0.5058 -1.3804 -1.6789
  622MOL0     H82042   6.451  -0.371   5.472  0.0242 -0.1307 -1.3395
  622MOL0     H82043   6.627  -0.397   5.616  0.3701  0.2926  0.3967
  622MOL0     H82044   6.637  -0.229   5.652 -0.6614  1.1642 -1.1155
  622MOL0     H82045   6.784  -0.188   5.486  0.7661 -0.2611  0.8482
  622MOL0     H82046   6.692  -0.266   5.362  1.7740 -1.6530 -0.9668
  622MOL0     H82047   6.866  -0.428   5.550 -2.4899 -1.2119  0.6155
  622MOL0     H82048   6.753  -0.489   5.431 -1.4910 -0.6501  3.4030
  622MOL0     H82049   6.899  -0.413   5.260  1.8166  1.9212 -0.5507
  622MOL0     H82050   6.994  -0.501   5.378 -2.5213 -0.5551  0.2270
  622MOL0     H82051   7.030  -0.273   5.494 -1.7523  0.2471 -0.1551
  622MOL0     H82052   6.977  -0.191   5.346 -0.3077  2.0378  3.4132
  622MOL0     H82053   7.194  -0.396   5.314  0.8850  0.4310 -1.9215
  622MOL0     H82054   7.175  -0.251   5.225  3.6503 -1.6338 -0.6321
  622MOL0     H82055   7.364  -0.235   5.343 -0.5062  0.8898 -1.6857
  622MOL0     H82056   7.296  -0.294   5.498  0.7692 -0.3513 -1.1579
  622MOL0     H82057   7.451  -0.000   5.393  0.3243  2.2645  0.3580
  622MOL0     H82058   7.417   0.297   5.538  1.0285 -0.2596 -0.0529
  622MOL0     H82059   7.534   0.172   5.575  0.8314  1.0280  2.7966
  622MOL0     H82060   7.507   0.274   5.782 -0.1306 -0.6949  1.0177
  622MOL0     H82061   7.391   0.136   5.784  0.1291 -1.9851 -5.6678
  622MOL0     H82062   7.201   0.278   5.731 -0.4181  0.3137  0.8448
  622MOL0     H82063   7.272   0.329   5.878 -2.8760 -0.5080 -0.8978
  622MOL0     H82064   7.271   0.490   5.630 -0.9819 -1.1601  0.5545
  622MOL0     H82065   7.398   0.505   5.753  0.6520 -1.9865  1.8396
  622MOL0     H82066   7.046   0.667   5.972 -0.4036 -2.3559 -1.0872
  622MOL0     H82067   6.947   0.887   5.912  0.2861 -1.7666  3.2834
  622MOL0     H82068   6.758   1.003   5.497 -1.1596  0.5427 -0.8577
  622MOL0     H82069   6.586   1.141   5.419 -0.9282  3.5403  0.5172
  622MOL0     H82070   6.536   1.261   5.216  1.0380  0.6838 -1.2464
  622MOL0     H82071   6.480   1.424   5.193  0.8673 -1.9463 -1.6098
  622MOL0     H82072   6.415   1.282   5.457 -2.6094  0.1915  0.2457
  622MOL0     H82073   6.351   1.204   5.311 -0.6296  1.6396 -1.2819
  622MOL0     H82074   6.208   1.358   5.426  0.6486  0.2936  0.1282
  622MOL0     H82075   6.243   1.421   5.267 -1.3754  0.7419  0.8671
  622MOL0     H82076   6.407   1.526   5.511 -0.0809  0.7837 -0.0849
  622MOL0     H82077   6.424   1.580   5.345 -0.5765  1.7027  1.1637
  622MOL0     H82078   6.152   1.582   5.467  0.3376 -0.8112  0.1811
  622MOL0     H82079   6.217   1.685   5.345  0.8581 -0.2233 -0.8894
  622MOL0     H82080   6.375   1.790   5.517  0.1799  0.9451 -0.2550
  622MOL0     H82081   6.311   1.687   5.639 -0.0928  0.4609 -0.0864
  622MOL0     H82082   6.072   1.784   5.554 -0.8896  0.6398  0.6336
  622MOL0     H82083   6.167   1.846   5.686 -2.2784  1.0488 -0.0193
  622MOL0     H82084   6.274   2.006   5.502  0.3758 -1.2821 -0.9424
  622MOL0     H82085   6.109   2.030   5.549 -0.6444 -1.2465  2.8410
  622MOL0     H82086   6.840   1.488   5.422  0.8998  0.6259 -1.8057
  622MOL0     H82087   7.019   1.353   5.543  0.1341 -1.4909  1.9028
  622MOL0     H82088   7.188   0.906   5.552 -1.7907 -0.8809 -0.6906
  622MOL0     H82089   7.286   0.697   5.625 -0.6747  0.1615 -0.4670
  622MOL0     H82090   6.277  -0.196   5.370  0.4113 -0.6867  0.2943
  622MOL0     H82091   6.032  -0.171   5.359  2.1742 -0.0816 -1.5082
  622MOL0     H82092   5.626  -0.138   5.583 -0.8190 -0.6076 -0.6428
  622MOL0     H82093   5.399  -0.107   5.555 -0.9626  1.8528  1.7570
  622MOL0     H82094   5.214   0.137   5.226 -2.1137 -1.0833  0.5993
  622MOL0     H82095   5.242   0.266   5.337 -0.2648  0.4459 -1.3587
  622MOL0     H82096   5.013   0.077   5.343 -0.2853  0.5026 -0.3925
  622MOL0     H82097   5.068   0.167   5.492 -1.1086 -2.6364 -0.4512
  622MOL0     H82098   5.041   0.365   5.315  2.6279 -2.0958 -1.8851
  622MOL0     H82099   4.906   0.316   5.415  1.0481  2.2131  0.5328
  622MOL0     H82100   4.844   0.341   5.173  2.1144  0.3966  0.7593
  622MOL0     H82101   4.974   0.241   5.120 -0.6091 -0.4244 -1.1361
  622MOL0     H82102   4.681  -0.052   5.172 -2.9066  2.5726  0.0426
  622MOL0     H82103   5.459   0.237   5.288  0.5477  0.4840 -0.7363
  622MOL0     H82104   5.691   0.205   5.296  1.1746  0.3627  1.6561
  623MOL0     O82105   3.934   2.697   1.184 -0.7955  0.3415 -0.4514
  623MOL0     C82106   3.974   2.637   1.283  0.0749  1.5834  0.8169
  623MOL0     O82107   3.904   2.608   1.397  0.1406 -0.0421 -0.1193
  623MOL0     C82108   3.774   2.653   1.406 -0.1139 -0.6267 -0.4965
  623MOL0     C82109   3.735   2.775   1.461 -0.4026 -0.8708 -0.8893
  623MOL0     C82110   3.607   2.819   1.464 -1.0817  0.1576  0.1885
  623MOL0     C82111   3.507   2.735   1.409  0.5047 -0.2215 -0.3540
  623MOL0     O82112   3.382   2.787   1.399 -0.2319  0.5864  0.4404
  623MOL0     C82113   3.384   2.873   1.284 -0.3742 -0.0787 -0.2071
  623MOL0     C82114   3.235   2.899   1.260  0.2244 -0.1346  0.4657
  623MOL0     C82115   3.156   2.770   1.215  0.2553 -0.0351 -0.1383
  623MOL0     C82116   3.160   2.753   1.063 -0.5677  0.3748 -0.2996
  623MOL0     C82117   3.093   2.614   1.027  0.2501  0.0159 -0.0252
  623MOL0     C82118   2.960   2.579   1.093  0.4238 -0.5952  0.0319
  623MOL0     C82119   2.843   2.668   1.049  0.2375 -0.2488 -0.3922
  623MOL0     C82120   2.704   2.630   1.113  0.0143  0.1934 -0.1512
  623MOL0     N82121   2.686   2.481   1.118  0.2172 -0.7085 -0.5602
  623MOL0     C82122   2.704   2.397   1.226  0.2369 -0.2459  0.4773
  623MOL0     C82123   2.622   2.298   1.205 -0.5800  0.1057 -0.9139
  623MOL0     C82124   2.621   2.172   1.297  0.0873  0.3097 -0.5230
  623MOL0     C82125   2.532   2.058   1.240 -0.2520  0.4304  0.2869
  623MOL0     C82126   2.545   1.922   1.317 -0.5755 -0.0709  0.0656
  623MOL0     C82127   2.435   1.815   1.290 -0.1991 -0.4000 -0.2514
  623MOL0     O82128   2.318   1.888   1.261  0.7395 -0.0276  0.1011
  623MOL0     C82129   2.198   1.816   1.246 -0.4348  0.1798  0.3490
  623MOL0     C82130   2.200   1.672   1.229 -0.1575 -0.8231 -0.7446
  623MOL0     C82131   2.084   1.601   1.217 -0.8655 -1.0168 -0.3360
  623MOL0     C82132   1.962   1.674   1.221  0.2534  0.5101 -0.3663
  623MOL0     C82133   1.829   1.605   1.216  0.1156  0.3148 -0.0227
  623MOL0     O82134   1.717   1.675   1.250  0.6476 -0.5445  0.0869
  623MOL0     C82135   1.591   1.618   1.271 -0.3769 -0.5665 -0.3609
  623MOL0     C82136   1.480   1.707   1.274 -0.0908  0.4618 -0.7431
  623MOL0     C82137   1.353   1.654   1.297  0.0498  0.6281  0.0718
  623MOL0     C82138   1.326   1.520   1.311  0.2298  0.0769 -0.9079
  623MOL0     O82139   1.198   1.483   1.339 -0.2526 -0.4287  0.0830
  623MOL0     C82140   1.134   1.375   1.268 -0.8836  0.9426  0.5363
  623MOL0     C82141   0.979   1.396   1.265  0.1245 -0.6478 -0.2281
  623MOL0     C82142   0.935   1.467   1.136 -0.2536 -0.6826 -0.0608
  623MOL0     C82143   0.794   1.503   1.132  0.2001 -0.1841 -0.0715
  623MOL0     C82144   0.710   1.384   1.085 -0.0712  0.4212 -0.3419
  623MOL0     C82145   0.570   1.419   1.081 -0.6109  0.6183 -0.2394
  623MOL0     C82146   0.472   1.299   1.090  0.4696  0.2183  1.0455
  623MOL0     C82147   0.321   1.339   1.067 -0.1874 -0.3477  0.1540
  623MOL0    Cl82148   0.220   1.184   1.117 -0.0837 -0.0177 -0.5586
  623MOL0     C82149   1.437   1.429   1.296 -0.1464  0.4704 -0.2014
  623MOL0     C82150   1.567   1.481   1.287  0.7119  0.4662  0.2148
  623MOL0     O82151   1.837   1.484   1.188  0.4609  0.5308 -0.7301
  623MOL0     C82152   1.955   1.816   1.222 -0.4768  0.3722 -0.5603
  623MOL0     C82153   2.078   1.883   1.248 -0.4495 -0.5502  0.4183
  623MOL0     N82154   2.563   2.306   1.084  0.0451 -0.0177  0.0037
  623MOL0     N82155   2.609   2.413   1.027  0.6206  0.0845  0.2652
  623MOL0     C82156   3.535   2.614   1.360 -0.9041  0.0190 -0.4810
  623MOL0     C82157   3.671   2.572   1.360  0.0512  0.0729  0.1200
  623MOL0     C82158   4.104   2.567   1.261  0.3020 -0.1498  0.5970
  623MOL0     C82159   4.153   2.473   1.350  0.6242  0.4826 -0.1911
  623MOL0     C82160   4.287   2.437   1.354  0.5185 -0.0427  0.7111
  623MOL0     C82161   4.376   2.485   1.256  0.0693  0.1142 -0.3812
  623MOL0     O82162   4.502   2.436   1.259 -0.0635  0.8388 -0.2268
  623MOL0     C82163   4.574   2.449   1.136 -0.2058  0.5217  0.0190
  623MOL0     C82164   4.694   2.377   1.159  0.3784 -0.1077 -0.0216
  623MOL0     C82165   4.795   2.384   1.043 -0.1236  0.4332  0.1386
  623MOL0     C82166   4.930   2.311   1.062 -1.4915 -0.1335 -0.7262
  623MOL0     C82167   5.000   2.323   1.195 -0.7987  0.1274 -0.4656
  623MOL0     C82168   5.066   2.339   1.296  0.8529  0.1304 -0.0853
  623MOL0     C82169   4.326   2.573   1.169 -0.2715  0.5190 -0.1484
  623MOL0     C82170   4.199   2.617   1.167  1.3890 -0.4171 -0.1507
  623MOL0     H82171   3.809   2.835   1.513 -2.4873  1.0908  0.0012
  623MOL0     H82172   3.583   2.914   1.509  4.9474  2.0993  0.2328
  623MOL0     H82173   3.426   2.822   1.197  0.3410 -2.8520  1.6164
  623MOL0     H82174   3.447   2.962   1.298  1.3872 -1.2107 -0.5194
  623MOL0     H82175   3.232   2.973   1.180  1.2440 -1.0234 -0.4357
  623MOL0     H82176   3.183   2.936   1.349  0.9019  0.9965  0.3984
  623MOL0     H82177   3.050   2.790   1.236 -0.1811 -2.2401  0.0597
  623MOL0     H82178   3.181   2.682   1.275  0.9436  1.5424  2.0279
  623MOL0     H82179   3.100   2.830   1.013 -0.9030 -0.1362 -0.6843
  623MOL0     H82180   3.263   2.754   1.026  0.6093  1.4479  2.6467
  623MOL0     H82181   3.157   2.536   1.069 -0.0814  1.2093  3.0146
  623MOL0     H82182   3.090   2.605   0.919  1.1722  1.1545 -0.1707
  623MOL0     H82183   2.966   2.581   1.203  2.1706  0.5121 -0.0364
  623MOL0     H82184   2.932   2.479   1.062  2.2379 -0.5773 -1.8563
  623MOL0     H82185   2.859   2.770   1.086 -0.3122 -0.6159  0.8850
  623MOL0     H82186   2.832   2.672   0.940 -2.0015  3.1554 -0.1839
  623MOL0     H82187   2.616   2.669   1.060 -0.1396 -0.9955 -0.8191
  623MOL0     H82188   2.702   2.678   1.211  0.1929  3.4204 -1.5986
  623MOL0     H82189   2.764   2.418   1.315  1.3375  1.0962 -0.5243
  623MOL0     H82190   2.579   2.214   1.389 -1.2333  1.2450 -1.5115
  623MOL0     H82191   2.726   2.147   1.312  0.6199  3.3000  1.5728
  623MOL0     H82192   2.565   2.041   1.137  3.0003  3.0811  0.7161
  623MOL0     H82193   2.429   2.092   1.234 -0.3221  0.4613  1.4891
  623MOL0     H82194   2.637   1.872   1.283  1.1579  2.9479 -0.0243
  623MOL0     H82195   2.557   1.943   1.423 -0.4643 -0.3231  0.1045
  623MOL0     H82196   2.422   1.755   1.381 -4.5197  1.7021  0.8178
  623MOL0     H82197   2.472   1.770   1.198 -0.9876 -1.8330  0.1118
  623MOL0     H82198   2.294   1.618   1.228 -0.4048 -1.2869  0.0064
  623MOL0     H82199   2.090   1.494   1.205  0.3088 -0.9686 -0.2466
  623MOL0     H82200   1.499   1.810   1.247 -0.1141  1.0427  1.2690
  623MOL0     H82201   1.268   1.720   1.293  0.1776  0.8551  0.9421
  623MOL0     H82202   1.150   1.276   1.311 -0.8648  1.1506  1.0155
  623MOL0     H82203   1.171   1.377   1.165 -0.3671  2.3067  0.7339
  623MOL0     H82204   0.955   1.458   1.352 -1.0942 -3.5290  1.6149
  623MOL0     H82205   0.922   1.303   1.272 -3.5235  1.4723  1.3489
  623MOL0     H82206   0.955   1.400   1.052  0.8425 -2.1757  1.3089
  623MOL0     H82207   0.994   1.559   1.129  0.7167 -1.3093 -0.2482
  623MOL0     H82208   0.761   1.532   1.233  1.5051 -1.2573  0.6942
  623MOL0     H82209   0.777   1.588   1.065 -0.0980  0.5048  0.8391
  623MOL0     H82210   0.720   1.306   1.161 -0.9699  0.3221 -0.3086
  623MOL0     H82211   0.748   1.352   0.988 -0.3449  1.1194 -0.6854
  623MOL0     H82212   0.541   1.484   0.998  0.1604  0.4582 -0.6419
  623MOL0     H82213   0.551   1.486   1.166 -0.1207 -0.8149  1.0546
  623MOL0     H82214   0.499   1.230   1.010  0.3372  1.2101  0.1285
  623MOL0     H82215   0.485   1.251   1.188  0.9448 -2.9783 -0.4647
  623MOL0     H82216   0.305   1.356   0.960  1.3187 -0.9827 -0.2098
  623MOL0     H82217   0.297   1.432   1.119  0.2430  0.5175 -1.1304
  623MOL0     H82218   1.418   1.323   1.306  0.6577  0.3325 -0.0617
  623MOL0     H82219   1.645   1.406   1.297  0.7605  0.2661 -1.4587
  623MOL0     H82220   1.868   1.881   1.217  0.7468  2.5215  2.8993
  623MOL0     H82221   2.088   1.991   1.251  0.1622 -0.4639 -2.0575
  623MOL0     H82222   3.462   2.543   1.322 -0.8902 -0.3084  0.0897
  623MOL0     H82223   3.682   2.469   1.328 -1.7845  0.3544 -1.6976
  623MOL0     H82224   4.085   2.423   1.418 -1.3504  1.2229 -1.4987
  623MOL0     H82225   4.321   2.370   1.432 -2.2662 -0.3206  1.7669
  623MOL0     H82226   4.594   2.554   1.111 -1.4270  0.5637 -0.8189
  623MOL0     H82227   4.514   2.407   1.055  1.0273 -0.8937 -0.1997
  623MOL0     H82228   4.740   2.417   1.249 -1.5956  2.4437 -0.0366
  623MOL0     H82229   4.670   2.272   1.179  2.3927 -0.1653  2.5353
  623MOL0     H82230   4.821   2.485   1.011 -0.4148 -0.1660 -2.1936
  623MOL0     H82231   4.740   2.339   0.960 -1.1966  2.4149 -0.3011
  623MOL0     H82232   4.921   2.203   1.054  0.9366 -0.8990  3.5236
  623MOL0     H82233   4.994   2.347   0.980 -0.3824 -2.6036 -1.0405
  623MOL0     H82234   5.118   2.364   1.387  2.2004  1.4803 -1.1649
  623MOL0     H82235   4.394   2.622   1.099 -1.3163 -0.8137 -2.1934
  623MOL0     H82236   4.165   2.694   1.098 -0.4134 -2.5398 -1.7584
  624MOL0     O82237   2.307   0.786   8.909 -0.0523 -0.5423 -0.5369
  624MOL0     C82238   2.365   0.883   8.859 -0.2285 -0.5553  0.3629
  624MOL0     O82239   2.329   0.964   8.758  0.2073 -1.0124  0.2355
  624MOL0     C82240   2.219   0.920   8.690 -0.3594  0.6775  0.0687
  624MOL0     C82241   2.234   0.837   8.574 -0.5795  0.2095 -1.0234
  624MOL0     C82242   2.126   0.786   8.499 -0.4019 -0.0544 -0.8670
  624MOL0     C82243   2.001   0.804   8.546 -0.2742  0.7842 -0.4832
  624MOL0     O82244   1.895   0.746   8.481  0.3428  0.2791 -0.1824
  624MOL0     C82245   1.866   0.610   8.529  0.2242 -0.4868  0.3325
  624MOL0     C82246   1.735   0.570   8.467  0.2643 -0.0361  0.0810
  624MOL0     C82247   1.613   0.641   8.523  0.4419  0.0459 -0.2748
  624MOL0     C82248   1.612   0.627   8.677 -0.3098 -0.8311  0.4828
  624MOL0     C82249   1.492   0.682   8.743 -0.0847 -0.3461  1.0294
  624MOL0     C82250   1.374   0.593   8.743  0.3949  1.0426  0.8320
  624MOL0     C82251   1.240   0.662   8.798 -0.7845  0.4974 -0.4297
  624MOL0     C82252   1.133   0.570   8.826 -0.6238  0.9492 -0.0636
  624MOL0     N82253   1.021   0.635   8.887 -0.4306  0.1458 -0.2512
  624MOL0     C82254   0.915   0.563   8.931  0.6668  0.6067  0.0409
  624MOL0     C82255   0.848   0.654   9.008 -0.2807  0.6882 -0.5035
  624MOL0     C82256   0.733   0.608   9.097  0.2665 -0.2319 -0.6974
  624MOL0     C82257   0.605   0.660   9.051 -1.0110  0.7182  0.4647
  624MOL0     C82258   0.486   0.628   9.139 -0.3302  0.5937 -0.6225
  624MOL0     C82259   0.501   0.665   9.288  0.3108 -0.0057  0.3753
  624MOL0     O82260   0.512   0.808   9.279 -0.3017  0.6911  0.2762
  624MOL0     C82261   0.477   0.863   9.398  0.4582 -0.2075 -0.5773
  624MOL0     C82262   0.556   0.835   9.504  0.0072  0.2965 -0.4894
  624MOL0     C82263   0.521   0.879   9.630 -0.2424  0.4680 -0.1548
  624MOL0     C82264   0.402   0.959   9.652 -1.2768 -0.4268 -0.4509
  624MOL0     C82265   0.362   1.000   9.789 -0.0619  0.1463  0.4072
  624MOL0     O82266   0.227   0.995   9.811 -0.3293 -0.1434 -0.2844
  624MOL0     C82267   0.197   1.032   9.936  0.3344  0.8740 -0.4589
  624MOL0     C82268   0.188   1.161   9.979  0.1295 -0.5935  0.0224
  624MOL0     C82269   0.170   1.194  10.115  0.8210  0.3090 -0.0307
  624MOL0     C82270   0.153   1.085  10.207  0.0298 -0.0149 -0.3625
  624MOL0     O82271   0.119   1.089  10.339 -0.5307 -0.6963  1.5252
  624MOL0     C82272   0.008   1.172  10.371 -0.0295 -0.5434  0.7784
  624MOL0     C82273  -0.046   1.143  10.521 -0.8977 -0.0838 -0.7590
  624MOL0     C82274  -0.161   1.242  10.558  0.0619  0.3275 -0.3138
  624MOL0     C82275  -0.183   1.234  10.709 -0.5079 -0.5914  0.0122
  624MOL0     C82276  -0.289   1.323  10.749  0.7826  0.2741 -0.4238
  624MOL0     C82277  -0.260   1.476  10.739  0.3007 -0.2163  0.3853
  624MOL0     C82278  -0.176   1.511  10.860  0.0210  0.5190 -0.9051
  624MOL0     C82279  -0.212   1.658  10.909  0.5868  0.0417 -0.1763
  624MOL0    Cl82280  -0.382   1.689  10.960  0.0234 -0.3310  0.2119
  624MOL0     C82281   0.143   0.960  10.159 -0.4188 -0.0974  0.2938
  624MOL0     C82282   0.169   0.935  10.030 -0.1367  0.3540  0.1637
  624MOL0     O82283   0.450   1.018   9.873 -0.5724  0.6942  0.2054
  624MOL0     C82284   0.323   0.984   9.540 -1.0139 -0.5287  0.6290
  624MOL0     C82285   0.361   0.940   9.413  0.2784  0.6752  0.0601
  624MOL0     N82286   0.906   0.779   9.000 -0.6105 -0.1249  0.7618
  624MOL0     N82287   1.009   0.770   8.919 -0.0630 -0.0003 -0.0047
  624MOL0     C82288   1.984   0.893   8.642 -0.2610 -0.1979 -0.5262
  624MOL0     C82289   2.087   0.950   8.719 -1.1579 -0.7999  0.4144
  624MOL0     C82290   2.486   0.928   8.937 -0.1712 -0.0294  0.3152
  624MOL0     C82291   2.564   1.031   8.896  0.0375  0.4263 -0.8648
  624MOL0     C82292   2.680   1.072   8.962  0.4061  0.0555 -0.1649
  624MOL0     C82293   2.722   1.007   9.077  0.6642 -0.1660 -0.4002
  624MOL0     O82294   2.820   1.053   9.156 -0.2247  0.0612 -0.3139
  624MOL0     C82295   2.942   1.097   9.099  0.0482 -0.0222  0.1309
  624MOL0     C82296   3.024   1.163   9.215  0.2486  0.2785  0.1038
  624MOL0     C82297   3.169   1.198   9.187 -0.1180  0.3032  0.5315
  624MOL0     C82298   3.252   1.073   9.139 -0.2784  0.4729  0.4285
  624MOL0     C82299   3.405   1.088   9.155  0.8211  0.8376 -0.0765
  624MOL0     C82300   3.521   1.103   9.155 -0.0099  0.2057  0.4430
  624MOL0     C82301   2.639   0.910   9.127  0.1123 -0.4267 -0.7988
  624MOL0     C82302   2.526   0.870   9.060  0.1500 -0.0306 -0.9431
  624MOL0     H82303   2.338   0.812   8.553  0.2839  2.6965 -0.1148
  624MOL0     H82304   2.136   0.721   8.412  0.7545  0.4802 -1.1591
  624MOL0     H82305   1.864   0.618   8.639  1.6217  0.4806  0.3052
  624MOL0     H82306   1.943   0.546   8.486  0.4404  1.0508 -1.7062
  624MOL0     H82307   1.722   0.462   8.482 -2.2964  0.1498 -0.2292
  624MOL0     H82308   1.740   0.591   8.360  1.6589 -0.1903  0.0957
  624MOL0     H82309   1.531   0.595   8.468  1.8514  0.5268 -2.9254
  624MOL0     H82310   1.608   0.746   8.492 -0.5485 -0.4425 -1.8788
  624MOL0     H82311   1.618   0.519   8.694 -2.0338 -1.6159 -2.9488
  624MOL0     H82312   1.691   0.684   8.725 -0.8137  0.6697 -0.3956
  624MOL0     H82313   1.471   0.771   8.683 -0.0673 -1.1361 -0.2054
  624MOL0     H82314   1.521   0.708   8.845  1.6716  2.6686 -0.1052
  624MOL0     H82315   1.396   0.508   8.808  2.5192  1.3950  0.6453
  624MOL0     H82316   1.377   0.554   8.641  1.7874 -1.2056  1.6319
  624MOL0     H82317   1.261   0.716   8.891  0.8398 -0.2923 -0.3060
  624MOL0     H82318   1.205   0.727   8.717 -0.4854 -2.9027 -3.5739
  624MOL0     H82319   1.164   0.484   8.887 -1.7617  0.8243  0.3644
  624MOL0     H82320   1.103   0.534   8.728 -1.5124 -0.1143  0.5751
  624MOL0     H82321   0.903   0.457   8.912 -1.6159  0.9428 -0.8070
  624MOL0     H82322   0.745   0.639   9.201 -2.0965 -2.2651  0.2835
  624MOL0     H82323   0.726   0.499   9.109  2.5696 -0.1414  3.2492
  624MOL0     H82324   0.586   0.615   8.954  2.8000 -0.3619  0.0626
  624MOL0     H82325   0.613   0.768   9.031 -0.2008  0.9527  1.9020
  624MOL0     H82326   0.404   0.689   9.098 -0.1108  0.5871 -1.0765
  624MOL0     H82327   0.451   0.525   9.124 -2.0680  0.6211  2.3995
  624MOL0     H82328   0.583   0.619   9.344  1.2111  1.3237  0.1860
  624MOL0     H82329   0.410   0.637   9.342 -0.0517 -1.5697 -0.9773
  624MOL0     H82330   0.649   0.780   9.488  0.6035  1.4952 -1.2871
  624MOL0     H82331   0.581   0.843   9.713 -2.0056 -1.5198  0.3486
  624MOL0     H82332   0.207   1.240   9.907  1.0713  1.2579  2.1965
  624MOL0     H82333   0.181   1.296  10.150 -0.2322  0.5424 -0.3326
  624MOL0     H82334  -0.081   1.163  10.308 -0.6352  1.5030  1.2789
  624MOL0     H82335   0.031   1.277  10.355 -2.4804 -0.2187 -1.1641
  624MOL0     H82336   0.044   1.158  10.582 -2.1315 -2.1031  1.7219
  624MOL0     H82337  -0.086   1.044  10.542 -3.3374  1.2679  1.6174
  624MOL0     H82338  -0.254   1.213  10.509 -0.2399  3.1881 -1.6332
  624MOL0     H82339  -0.123   1.343  10.539  2.5622  0.2702  3.3809
  624MOL0     H82340  -0.214   1.131  10.731 -1.7174 -0.2020  0.1841
  624MOL0     H82341  -0.097   1.258  10.772 -1.4808  2.6478  0.2578
  624MOL0     H82342  -0.332   1.301  10.847 -0.7715 -3.5614 -1.8050
  624MOL0     H82343  -0.373   1.296  10.684 -1.1387 -0.1225  2.0607
  624MOL0     H82344  -0.354   1.531  10.742 -0.5432 -1.6434  1.8053
  624MOL0     H82345  -0.215   1.506  10.644  1.4456 -0.4908  0.8154
  624MOL0     H82346  -0.184   1.436  10.940  1.3062  0.9586 -0.3266
  624MOL0     H82347  -0.069   1.515  10.837  0.9404  2.2066  2.8160
  624MOL0     H82348  -0.188   1.731  10.832 -1.5958 -0.1819 -1.1428
  624MOL0     H82349  -0.158   1.694  10.998 -0.0184  1.2456 -0.2734
  624MOL0     H82350   0.132   0.866  10.211 -2.1040 -0.6266 -0.9214
  624MOL0     H82351   0.186   0.835   9.992  1.2943  0.3734  0.6936
  624MOL0     H82352   0.239   1.053   9.542 -1.6925 -1.2738 -0.5934
  624MOL0     H82353   0.309   0.969   9.322  1.1509 -3.0017 -1.8211
  624MOL0     H82354   1.879   0.911   8.662  0.1215  1.5462  0.0178
  624MOL0     H82355   2.070   1.010   8.808  0.8546 -1.7280  1.5050
  624MOL0     H82356   2.552   1.073   8.797  1.8774 -3.7225 -3.1183
  624MOL0     H82357   2.734   1.158   8.922 -1.0803  0.5849 -1.1194
  624MOL0     H82358   2.917   1.176   9.027 -1.5367  0.4398  1.1130
  624MOL0     H82359   2.990   1.015   9.046  1.6195  2.4414 -2.5938
  624MOL0     H82360   2.970   1.254   9.242  0.1651  0.3173 -0.1905
  624MOL0     H82361   3.019   1.102   9.305  0.0148  0.5691  0.2926
  624MOL0     H82362   3.213   1.236   9.280  2.8354  0.8777 -0.9572
  624MOL0     H82363   3.175   1.277   9.112 -3.3357 -0.0633 -0.2497
  624MOL0     H82364   3.216   0.990   9.200 -1.3171  0.4064 -0.2475
  624MOL0     H82365   3.232   1.051   9.034  0.5323  1.0682  0.1383
  624MOL0     H82366   3.626   1.092   9.171  0.3478  1.6031 -0.7922
  624MOL0     H82367   2.642   0.893   9.234 -4.0899  0.2098 -0.3961
  624MOL0     H82368   2.473   0.788   9.108  3.5446 -2.3474 -0.8039
  625MOL0     O82369   9.293   4.968   6.857  0.3006  0.3334  0.1184
  625MOL0     C82370   9.346   4.901   6.952  0.8454 -1.0125  0.1979
  625MOL0     O82371   9.486   4.897   6.985  0.4734 -0.1227 -0.0825
  625MOL0     C82372   9.558   4.991   6.918 -0.8010  0.2546 -0.3543
  625MOL0     C82373   9.584   4.973   6.784 -0.1768 -0.2370  0.3193
  625MOL0     C82374   9.677   5.048   6.710  0.3915 -0.0996 -0.3472
  625MOL0     C82375   9.721   5.168   6.773 -0.4012  0.0140  0.1595
  625MOL0     O82376   9.809   5.248   6.703 -0.1414  0.7162  0.0513
  625MOL0     C82377   9.928   5.174   6.663 -0.0808  0.4931 -0.0538
  625MOL0     C82378  10.044   5.268   6.627  0.4470  0.7060 -0.4864
  625MOL0     C82379  10.111   5.321   6.747  0.7780 -0.1563  0.6318
  625MOL0     C82380  10.208   5.434   6.705  0.7461 -0.5439 -0.2376
  625MOL0     C82381  10.314   5.469   6.801  0.3619 -0.8429 -0.0854
  625MOL0     C82382  10.408   5.562   6.740  0.8473 -0.2113 -0.1900
  625MOL0     C82383  10.509   5.627   6.839 -0.8320 -0.8659  0.5370
  625MOL0     C82384  10.448   5.724   6.938 -0.2084 -0.2830 -0.3040
  625MOL0     N82385  10.553   5.769   7.033  0.4148 -0.8376 -0.2459
  625MOL0     C82386  10.596   5.692   7.140 -0.7233 -0.6779 -0.0329
  625MOL0     C82387  10.662   5.776   7.219  0.1131 -0.6491 -0.0976
  625MOL0     C82388  10.707   5.749   7.359 -0.9861  0.3697 -0.0855
  625MOL0     C82389  10.856   5.781   7.381  1.0950 -0.6155 -0.5879
  625MOL0     C82390  10.880   5.933   7.387 -0.5633 -0.4274 -0.2217
  625MOL0     C82391  10.998   5.966   7.475  0.0548 -0.0862  0.0816
  625MOL0     O82392  11.110   5.886   7.428  0.0715  0.0831 -0.0424
  625MOL0     C82393  11.236   5.927   7.468  0.9419 -0.0181 -0.1835
  625MOL0     C82394  11.336   5.888   7.379 -0.0832 -1.1012  0.2477
  625MOL0     C82395  11.464   5.918   7.402  0.0179 -0.6199 -0.3791
  625MOL0     C82396  11.505   5.999   7.515  0.7742  0.5312  0.9674
  625MOL0     C82397  11.642   6.042   7.537 -0.5995  0.0456  0.2658
  625MOL0     O82398  11.728   6.017   7.439  0.0541  0.1409  0.1798
  625MOL0     C82399  11.863   6.008   7.453 -0.0891  1.1157 -0.1602
  625MOL0     C82400  11.941   6.017   7.340 -0.3650 -0.0459  0.5017
  625MOL0     C82401  12.084   6.015   7.338 -0.1185  0.1034 -0.2959
  625MOL0     C82402  12.145   5.996   7.463  0.3032  0.0485 -0.5435
  625MOL0     O82403  12.277   6.014   7.494 -0.1087 -0.4920 -0.1530
  625MOL0     C82404  12.365   6.019   7.387 -0.3576 -0.2573  0.7578
  625MOL0     C82405  12.509   6.030   7.444  1.1516  0.4184 -0.8197
  625MOL0     C82406  12.607   6.005   7.332 -0.3692  0.2978  0.0657
  625MOL0     C82407  12.735   5.943   7.385 -0.1623  0.4476 -0.1844
  625MOL0     C82408  12.849   5.942   7.279  0.2845  0.0660 -1.3255
  625MOL0     C82409  12.988   5.927   7.346 -1.3890 -0.2832  0.2209
  625MOL0     C82410  13.106   5.952   7.248 -0.4600 -0.0837 -0.4258
  625MOL0     C82411  13.238   5.927   7.316  0.1870 -0.0806  0.1759
  625MOL0    Cl82412  13.378   5.926   7.214 -0.2518  0.5343  0.3003
  625MOL0     C82413  12.068   5.972   7.581  0.6614 -0.5601 -0.0837
  625MOL0     C82414  11.928   5.968   7.573  0.0206 -0.4705  0.2679
  625MOL0     O82415  11.670   6.083   7.650  0.2342  0.0634 -0.5340
  625MOL0     C82416  11.400   6.055   7.590  1.0846 -0.4270  0.3252
  625MOL0     C82417  11.266   6.016   7.571 -0.5100 -0.9896 -0.1165
  625MOL0     N82418  10.655   5.907   7.164 -0.4291  1.1079  0.0338
  625MOL0     N82419  10.578   5.895   7.061 -0.1245 -0.1233  0.4322
  625MOL0     C82420   9.683   5.195   6.905  0.6834 -0.7830 -1.2389
  625MOL0     C82421   9.604   5.110   6.989  0.0980  0.3859 -0.1895
  625MOL0     C82422   9.251   4.807   7.023  0.1750  0.3045  0.0345
  625MOL0     C82423   9.108   4.812   6.996 -0.2673  1.2598 -1.0991
  625MOL0     C82424   9.023   4.714   7.045  0.1620  0.2976  0.0695
  625MOL0     C82425   9.077   4.620   7.143  0.5661  0.1943 -0.1494
  625MOL0     O82426   8.996   4.525   7.210  0.4052  0.1220  0.1696
  625MOL0     C82427   8.851   4.528   7.199 -0.4633 -0.3931 -0.0678
  625MOL0     C82428   8.807   4.397   7.270 -0.0227 -1.0278  0.4074
  625MOL0     C82429   8.876   4.266   7.225 -0.0932  0.0995 -0.1084
  625MOL0     C82430   8.820   4.137   7.297 -0.7254  0.4642  0.3890
  625MOL0     C82431   8.678   4.127   7.260 -0.3940 -0.5906  0.5824
  625MOL0     C82432   8.565   4.133   7.236 -0.5806  0.4047  0.8273
  625MOL0     C82433   9.215   4.621   7.173 -0.7770  0.0262  0.5744
  625MOL0     C82434   9.301   4.711   7.109 -0.4948  0.0282  0.0486
  625MOL0     H82435   9.544   4.879   6.747 -1.1635  0.2103  0.2211
  625MOL0     H82436   9.717   5.008   6.617  2.7009 -2.1298  1.3920
  625MOL0     H82437   9.911   5.111   6.575  0.8558  1.7304 -1.1718
  625MOL0     H82438   9.968   5.116   6.746  0.0226  0.9888  0.2479
  625MOL0     H82439   9.994   5.343   6.566 -0.7788 -1.2073 -1.9428
  625MOL0     H82440  10.117   5.202   6.580 -0.9361 -1.9545  0.8710
  625MOL0     H82441  10.164   5.232   6.785  1.2313  0.5172  1.6147
  625MOL0     H82442  10.046   5.362   6.825 -0.5083 -2.0953  0.6459
  625MOL0     H82443  10.248   5.401   6.608  0.2357  0.3862 -0.7833
  625MOL0     H82444  10.151   5.527   6.693 -2.6431 -2.3404  0.8578
  625MOL0     H82445  10.367   5.382   6.843 -1.0134 -1.3529  0.6307
  625MOL0     H82446  10.260   5.506   6.888  2.8518  1.6583  0.5215
  625MOL0     H82447  10.362   5.656   6.708  2.8695  0.1417 -2.3324
  625MOL0     H82448  10.471   5.522   6.660  0.5842 -0.7894 -0.1113
  625MOL0     H82449  10.574   5.550   6.880  0.9955  0.0549 -0.4730
  625MOL0     H82450  10.568   5.696   6.778 -1.2030  0.2725  1.4245
  625MOL0     H82451  10.365   5.687   6.999 -2.5900  1.1001 -2.5314
  625MOL0     H82452  10.401   5.807   6.885  1.9481  0.1864 -1.6284
  625MOL0     H82453  10.577   5.588   7.166 -2.5114 -0.8634 -1.8558
  625MOL0     H82454  10.691   5.646   7.393 -0.5237  0.0197 -0.9055
  625MOL0     H82455  10.641   5.810   7.421 -2.2213  0.1728 -1.1848
  625MOL0     H82456  10.909   5.739   7.294 -0.6356  1.1320 -2.5980
  625MOL0     H82457  10.893   5.732   7.471 -0.8592  1.7566  1.6291
  625MOL0     H82458  10.898   5.953   7.281  1.1591 -2.1717 -0.3210
  625MOL0     H82459  10.791   5.991   7.415 -0.9844 -0.5690 -1.2083
  625MOL0     H82460  10.968   5.938   7.577 -1.3247  0.0896 -0.2513
  625MOL0     H82461  11.017   6.072   7.461 -0.9760  0.1470  0.3139
  625MOL0     H82462  11.318   5.830   7.289  1.1450  1.3064 -1.6897
  625MOL0     H82463  11.530   5.888   7.321  1.0207  0.2967  0.0611
  625MOL0     H82464  11.907   6.044   7.240 -0.2487  1.2056  0.7891
  625MOL0     H82465  12.142   6.045   7.251  0.1224  1.4362  0.2872
  625MOL0     H82466  12.341   6.100   7.318  1.0002  2.5621  3.3724
  625MOL0     H82467  12.368   5.920   7.339 -2.3012 -0.4948  1.0400
  625MOL0     H82468  12.521   5.957   7.525 -3.3743  0.3095  0.0395
  625MOL0     H82469  12.517   6.131   7.483  0.1955  0.9783 -2.0117
  625MOL0     H82470  12.628   6.100   7.280  0.6207  0.6023  0.9793
  625MOL0     H82471  12.571   5.936   7.255 -0.2655  1.0451 -0.6757
  625MOL0     H82472  12.769   6.011   7.464 -0.9629  0.4406  0.1754
  625MOL0     H82473  12.724   5.842   7.425 -2.1160  1.4620  2.1219
  625MOL0     H82474  12.851   6.026   7.210 -0.0036  0.9602 -0.2657
  625MOL0     H82475  12.836   5.860   7.207  1.8923 -0.7565 -0.7239
  625MOL0     H82476  13.000   5.828   7.391  0.3300  0.3491  1.2687
  625MOL0     H82477  13.002   5.990   7.434 -1.5707 -0.7789  0.6122
  625MOL0     H82478  13.109   5.878   7.168 -0.9895 -1.1230  0.4804
  625MOL0     H82479  13.093   6.052   7.205  1.8240 -0.1106 -1.3207
  625MOL0     H82480  13.234   5.835   7.375  1.2548 -0.5128 -0.3943
  625MOL0     H82481  13.255   6.010   7.385  3.5163 -0.7475  0.3247
  625MOL0     H82482  12.120   5.948   7.673  1.9416 -1.6154 -1.0552
  625MOL0     H82483  11.888   5.957   7.674  2.7557 -0.9972  1.3783
  625MOL0     H82484  11.417   6.120   7.675 -0.3077 -2.1400  2.0336
  625MOL0     H82485  11.188   6.061   7.631 -1.5600 -0.1185 -2.0481
  625MOL0     H82486   9.712   5.295   6.937  0.6996 -1.4392  0.9802
  625MOL0     H82487   9.579   5.118   7.094  2.0071 -0.2359  0.3607
  625MOL0     H82488   9.068   4.884   6.926  0.2136  1.7671 -0.8595
  625MOL0     H82489   8.917   4.733   7.036  0.0893  0.7501  1.5465
  625MOL0     H82490   8.822   4.514   7.094  0.7610 -1.4071 -0.3090
  625MOL0     H82491   8.804   4.617   7.241  1.6135  0.7558 -0.0159
  625MOL0     H82492   8.831   4.416   7.375  3.7748  1.6097 -0.7051
  625MOL0     H82493   8.699   4.389   7.253 -0.0189  0.4752 -0.5775
  625MOL0     H82494   8.978   4.273   7.265  0.3690  2.5477 -1.5041
  625MOL0     H82495   8.881   4.251   7.117  0.3264  2.5158 -0.4877
  625MOL0     H82496   8.874   4.049   7.263  0.7072  2.3015 -2.4558
  625MOL0     H82497   8.827   4.135   7.406 -0.4054  1.7847  0.4080
  625MOL0     H82498   8.462   4.134   7.207 -0.3764  0.9347  0.1036
  625MOL0     H82499   9.246   4.539   7.237  0.1428  0.9403  1.3341
  625MOL0     H82500   9.406   4.691   7.127 -0.8795  0.4441  3.3496
  626MOL0     O82501   5.154   5.326  10.630 -0.0107 -0.1486  0.3208
  626MOL0     C82502   5.256   5.376  10.591  0.6725  0.2905  0.7254
  626MOL0     O82503   5.265   5.477  10.491  0.0364 -0.2084 -0.4274
  626MOL0     C82504   5.147   5.517  10.441  0.1985 -0.3033  1.0664
  626MOL0     C82505   5.075   5.448  10.330  0.5497  0.1194 -0.2504
  626MOL0     C82506   4.967   5.509  10.270 -0.6593  0.0756  0.9767
  626MOL0     C82507   4.920   5.627  10.322  0.6073  0.1546 -0.1949
  626MOL0     O82508   4.826   5.696  10.242  0.0123 -0.0892 -0.0498
  626MOL0     C82509   4.848   5.837  10.241  0.2196 -1.2648  0.4552
  626MOL0     C82510   4.778   5.895  10.111 -0.2183 -1.1407  0.1250
  626MOL0     C82511   4.619   5.878  10.114 -1.0741 -0.6838 -0.7144
  626MOL0     C82512   4.554   5.946  10.004 -0.4596  0.0922  1.1789
  626MOL0     C82513   4.414   5.895   9.979  0.0649 -0.1023 -1.9004
  626MOL0     C82514   4.317   6.001   9.910 -0.6384 -0.0285 -1.0427
  626MOL0     C82515   4.205   5.929   9.829  0.9248  0.1212 -0.1044
  626MOL0     C82516   4.112   5.839   9.906 -0.3669 -0.5806 -0.1972
  626MOL0     N82517   4.036   5.744   9.812 -0.0659 -0.5286 -0.6296
  626MOL0     C82518   4.102   5.646   9.746  1.2745  0.1529 -0.4357
  626MOL0     C82519   4.002   5.604   9.662  0.4397  0.2802  0.7530
  626MOL0     C82520   4.002   5.506   9.555  0.5554 -0.2517  0.3270
  626MOL0     C82521   4.079   5.380   9.574  0.2657 -0.0485  0.9171
  626MOL0     C82522   4.067   5.282   9.453  0.1563  0.7534 -0.5548
  626MOL0     C82523   3.952   5.187   9.483  0.4341 -0.4620  0.5461
  626MOL0     O82524   3.964   5.100   9.596 -0.6152  0.6605  0.2696
  626MOL0     C82525   4.038   4.981   9.595 -0.1495 -0.6591 -0.7118
  626MOL0     C82526   4.013   4.902   9.708  0.1895 -0.7474 -0.7865
  626MOL0     C82527   4.077   4.779   9.727 -0.0383 -0.1870 -0.2758
  626MOL0     C82528   4.166   4.733   9.634 -0.1575  0.9291  0.0825
  626MOL0     C82529   4.241   4.600   9.664  0.0119  0.1141 -0.4693
  626MOL0     O82530   4.349   4.582   9.580  0.1297  0.6109 -0.0685
  626MOL0     C82531   4.430   4.480   9.604 -0.0367 -0.2839  0.3156
  626MOL0     C82532   4.397   4.349   9.643 -0.6273  0.5624  0.1777
  626MOL0     C82533   4.503   4.257   9.652 -0.5463  0.1296 -0.2027
  626MOL0     C82534   4.641   4.286   9.641  0.0549 -0.7058 -0.2351
  626MOL0     O82535   4.741   4.194   9.651  0.4867  0.0887 -0.3855
  626MOL0     C82536   4.736   4.095   9.759  0.4986 -0.5165 -0.1213
  626MOL0     C82537   4.867   4.033   9.796 -0.5959 -0.7767  0.3315
  626MOL0     C82538   4.963   4.140   9.854 -0.7733 -0.0769  0.4069
  626MOL0     C82539   4.924   4.227   9.979 -0.7806 -0.2572  0.2767
  626MOL0     C82540   5.046   4.312  10.019 -0.3911  0.2886 -0.5780
  626MOL0     C82541   5.159   4.215  10.071 -0.3872  0.8912  0.1054
  626MOL0     C82542   5.259   4.290  10.162  0.1776 -1.3489 -0.2894
  626MOL0     C82543   5.374   4.185  10.203 -0.0717  0.2436 -1.3817
  626MOL0    Cl82544   5.484   4.257  10.325  0.0495 -0.2860 -0.1988
  626MOL0     C82545   4.675   4.420   9.610 -0.2984 -0.0641 -0.4578
  626MOL0     C82546   4.572   4.514   9.590 -0.6123 -0.0677  0.1346
  626MOL0     O82547   4.213   4.535   9.763 -0.3751  0.4641 -0.7512
  626MOL0     C82548   4.191   4.813   9.522 -0.0383 -0.4772 -0.1879
  626MOL0     C82549   4.127   4.937   9.502 -0.2026  0.0458  0.7744
  626MOL0     N82550   3.879   5.676   9.679 -0.0484  0.3328 -0.1117
  626MOL0     N82551   3.901   5.767   9.768 -0.9143  0.7458 -0.0507
  626MOL0     C82552   4.978   5.685  10.432 -1.0077 -0.3892  0.6872
  626MOL0     C82553   5.094   5.637  10.492 -0.3473 -0.2188 -0.1922
  626MOL0     C82554   5.378   5.325  10.658  0.3346  0.1731  0.1031
  626MOL0     C82555   5.511   5.374  10.636 -0.0116 -0.6926 -0.6158
  626MOL0     C82556   5.619   5.316  10.705 -0.0747 -0.2487 -0.0235
  626MOL0     C82557   5.610   5.211  10.797 -0.7519 -0.3616  1.3622
  626MOL0     O82558   5.705   5.139  10.859 -0.0714 -0.0673 -0.0039
  626MOL0     C82559   5.840   5.128  10.799 -0.3047  0.5103 -0.6879
  626MOL0     C82560   5.914   5.007  10.864 -0.4252 -0.2231 -0.3223
  626MOL0     C82561   6.057   4.986  10.822 -0.1043 -0.3940  0.5114
  626MOL0     C82562   6.116   4.858  10.866  0.6537  0.0846  0.6576
  626MOL0     C82563   6.249   4.841  10.800  0.6325 -1.4034  0.0295
  626MOL0     C82564   6.348   4.825  10.724 -0.6630  0.8746 -0.5609
  626MOL0     C82565   5.478   5.168  10.825  0.7858 -0.7830  0.5860
  626MOL0     C82566   5.364   5.221  10.758  0.6407 -0.1619  0.0390
  626MOL0     H82567   5.111   5.354  10.290  0.5429 -1.2646  2.7101
  626MOL0     H82568   4.911   5.471  10.185 -0.7394  3.5449 -0.7093
  626MOL0     H82569   4.954   5.864  10.231 -0.1586  0.1650  0.1014
  626MOL0     H82570   4.799   5.880  10.328  1.0574  0.3879  0.1537
  626MOL0     H82571   4.821   5.834  10.031  1.1953  0.3058 -0.2643
  626MOL0     H82572   4.792   5.999  10.080 -2.1872 -1.5462 -2.4883
  626MOL0     H82573   4.581   5.900  10.214  0.5409  1.3715 -0.4917
  626MOL0     H82574   4.607   5.770  10.102 -0.3685 -0.8354 -0.0920
  626MOL0     H82575   4.555   6.052  10.028 -0.5679  0.1873  0.7652
  626MOL0     H82576   4.610   5.934   9.911 -1.8125 -0.2457  0.3835
  626MOL0     H82577   4.359   5.877  10.072 -0.7154  2.9208 -1.6799
  626MOL0     H82578   4.423   5.811   9.909  3.0968 -0.5725 -1.0944
  626MOL0     H82579   4.371   6.065   9.840  0.6722 -0.7370 -0.7156
  626MOL0     H82580   4.268   6.068   9.980 -1.6148  0.0014 -1.7240
  626MOL0     H82581   4.147   5.999   9.768 -0.5620 -2.1914 -1.5104
  626MOL0     H82582   4.258   5.876   9.750  0.5597  0.7728 -0.8011
  626MOL0     H82583   4.035   5.901   9.953 -0.0336  0.4446 -0.9897
  626MOL0     H82584   4.159   5.781   9.986 -1.9719 -3.7910 -1.3678
  626MOL0     H82585   4.204   5.608   9.744  0.6702 -1.5862 -2.5627
  626MOL0     H82586   4.044   5.555   9.466  0.6642 -1.1851 -0.1451
  626MOL0     H82587   3.894   5.503   9.536 -0.0811 -0.5402  3.5061
  626MOL0     H82588   4.038   5.341   9.668  0.0300  1.0907  1.3035
  626MOL0     H82589   4.185   5.403   9.587  1.1684 -3.3025  0.2374
  626MOL0     H82590   4.040   5.326   9.356 -0.6393 -1.6885 -1.5265
  626MOL0     H82591   4.161   5.226   9.452 -0.1380  0.2535 -0.7597
  626MOL0     H82592   3.923   5.126   9.396 -2.3887 -0.4798  1.3924
  626MOL0     H82593   3.859   5.241   9.503  0.0431 -1.1948  0.7439
  626MOL0     H82594   3.942   4.935   9.784  0.5715 -0.9552 -0.3345
  626MOL0     H82595   4.063   4.728   9.822  0.7881 -0.9859 -0.5699
  626MOL0     H82596   4.295   4.313   9.657  0.2368 -2.7292 -0.9791
  626MOL0     H82597   4.479   4.153   9.670  1.4808 -0.3865 -0.2386
  626MOL0     H82598   4.661   4.019   9.733  2.7541 -2.3444 -1.7040
  626MOL0     H82599   4.698   4.147   9.848 -0.7100 -0.8645 -0.4102
  626MOL0     H82600   4.914   3.986   9.709  0.1322 -1.5234  1.1131
  626MOL0     H82601   4.845   3.954   9.869  2.6564  0.2694  2.6358
  626MOL0     H82602   4.991   4.205   9.770  3.1203 -3.6903 -1.4364
  626MOL0     H82603   5.045   4.071   9.874 -0.8776 -0.5961 -0.8412
  626MOL0     H82604   4.853   4.305   9.951  0.1517  1.1890  1.7185
  626MOL0     H82605   4.886   4.164  10.060 -1.0926 -1.1073 -0.5188
  626MOL0     H82606   5.013   4.383  10.095  1.1060 -2.2338  2.7071
  626MOL0     H82607   5.078   4.374   9.935 -0.4297  1.2293  0.0974
  626MOL0     H82608   5.212   4.171   9.986  0.2101  3.4730 -0.9476
  626MOL0     H82609   5.110   4.139  10.134 -1.8387  1.8576  0.1894
  626MOL0     H82610   5.291   4.383  10.113  0.1711 -1.1652  0.0541
  626MOL0     H82611   5.201   4.311  10.252  1.6668 -0.6433  0.5469
  626MOL0     H82612   5.438   4.165  10.117  1.7189  0.3089 -0.0999
  626MOL0     H82613   5.330   4.091  10.239  0.6540  0.4256  0.0452
  626MOL0     H82614   4.780   4.445   9.598 -0.0355  0.2464  2.0053
  626MOL0     H82615   4.598   4.618   9.573  1.3064 -0.3281  1.2277
  626MOL0     H82616   4.278   4.784   9.464  0.7934 -1.1060  1.3256
  626MOL0     H82617   4.151   4.997   9.415  0.1941  0.9882  1.5184
  626MOL0     H82618   4.963   5.788  10.462  3.6676  0.4387  0.9186
  626MOL0     H82619   5.141   5.696  10.570  0.7036  2.4545 -2.6522
  626MOL0     H82620   5.515   5.446  10.556 -2.6957 -0.2731 -0.4617
  626MOL0     H82621   5.720   5.351  10.685 -0.6897  1.4353 -0.2983
  626MOL0     H82622   5.893   5.222  10.818 -4.0849  2.5836  0.6195
  626MOL0     H82623   5.833   5.107  10.692  1.1352  1.0701 -0.9245
  626MOL0     H82624   5.915   5.027  10.971  0.0236  2.2653 -0.7488
  626MOL0     H82625   5.860   4.913  10.846  2.3079 -1.4016 -3.3352
  626MOL0     H82626   6.111   5.073  10.862  0.1485 -0.1615 -0.3164
  626MOL0     H82627   6.068   4.985  10.713 -2.8410 -3.8885  0.1036
  626MOL0     H82628   6.139   4.864  10.973  1.0751 -1.2677  0.6524
  626MOL0     H82629   6.050   4.774  10.845 -0.9234  1.5180 -0.3478
  626MOL0     H82630   6.427   4.804  10.655 -1.6175 -0.2621 -1.3689
  626MOL0     H82631   5.464   5.088  10.897 -3.3532 -0.1694  0.6666
  626MOL0     H82632   5.265   5.181  10.778 -0.7937  2.4416 -1.3441
  627MOL0     O82633  11.183   8.625   5.066 -0.5007 -0.1597 -0.2299
  627MOL0     C82634  11.291   8.665   5.034 -0.2120 -0.3337 -0.3363
  627MOL0     O82635  11.332   8.657   4.903  0.1457 -0.2927  0.0082
  627MOL0     C82636  11.243   8.632   4.810  0.6571  0.0612 -0.0917
  627MOL0     C82637  11.163   8.510   4.809 -0.1357  0.0397  0.6364
  627MOL0     C82638  11.050   8.497   4.722  0.1112 -0.0006 -0.0316
  627MOL0     C82639  11.029   8.586   4.613  0.1875 -0.3346  0.0120
  627MOL0     O82640  10.924   8.558   4.530  0.2438 -0.5814  0.1423
  627MOL0     C82641  10.904   8.648   4.419 -0.0747  0.1977 -0.0664
  627MOL0     C82642  10.812   8.562   4.327  0.1260 -0.8377  0.7094
  627MOL0     C82643  10.675   8.531   4.394 -0.3662 -0.6919  0.6965
  627MOL0     C82644  10.564   8.475   4.304 -0.0870  0.8619  0.0758
  627MOL0     C82645  10.425   8.500   4.363 -0.2183  0.4980 -0.1617
  627MOL0     C82646  10.314   8.413   4.296 -0.3292 -0.2475  0.1736
  627MOL0     C82647  10.198   8.433   4.385  0.0512  0.1680  0.5755
  627MOL0     C82648  10.148   8.568   4.427 -0.1298 -0.9254 -1.3653
  627MOL0     N82649  10.018   8.570   4.489  0.2739  0.2578  0.3303
  627MOL0     C82650   9.912   8.619   4.422 -0.1856  0.8446 -0.0011
  627MOL0     C82651   9.811   8.615   4.509  0.3969  0.2913  0.1522
  627MOL0     C82652   9.669   8.653   4.497 -0.0911  0.1157  0.7103
  627MOL0     C82653   9.593   8.527   4.450  0.2062  0.7025  0.4386
  627MOL0     C82654   9.441   8.556   4.427 -0.4288 -0.1332 -0.0109
  627MOL0     C82655   9.358   8.442   4.371 -0.0689  0.9449 -0.2014
  627MOL0     O82656   9.238   8.487   4.315  0.4416 -0.6615  0.8030
  627MOL0     C82657   9.122   8.472   4.381  0.8302  0.2914 -0.2756
  627MOL0     C82658   9.017   8.415   4.311  0.8421 -0.1536  0.5939
  627MOL0     C82659   8.890   8.406   4.384 -0.6597 -0.2030 -0.3297
  627MOL0     C82660   8.882   8.459   4.515  0.7148  0.7813 -0.2692
  627MOL0     C82661   8.750   8.446   4.596 -0.4815  0.3933 -0.9528
  627MOL0     O82662   8.638   8.393   4.524  0.6214  0.2259 -0.0091
  627MOL0     C82663   8.519   8.357   4.583 -1.3388 -0.2485  0.6553
  627MOL0     C82664   8.409   8.328   4.508 -0.2591 -0.3511  0.2960
  627MOL0     C82665   8.291   8.281   4.567 -0.4259  0.0157  0.1732
  627MOL0     C82666   8.281   8.262   4.702  0.0145 -0.6307 -0.5153
  627MOL0     O82667   8.171   8.210   4.767 -0.5082  0.3501  0.0538
  627MOL0     C82668   8.065   8.150   4.687  0.5198  0.1252 -0.0240
  627MOL0     C82669   7.968   8.085   4.795  0.7211 -0.0406 -0.1783
  627MOL0     C82670   7.834   8.048   4.738  0.1411 -0.4801 -0.0843
  627MOL0     C82671   7.723   8.035   4.844  0.4620  0.7603  0.2191
  627MOL0     C82672   7.577   8.024   4.788 -0.2745  1.4019  0.3066
  627MOL0     C82673   7.550   7.917   4.680  0.4550  0.6116 -0.1294
  627MOL0     C82674   7.408   7.915   4.629 -0.2289 -0.4179  0.0365
  627MOL0     C82675   7.372   7.794   4.554 -0.1900  0.0083 -0.6796
  627MOL0    Cl82676   7.466   7.767   4.401 -0.6904  0.0681 -0.4930
  627MOL0     C82677   8.385   8.297   4.779  0.7105  0.1693 -0.4202
  627MOL0     C82678   8.506   8.332   4.725  0.2383 -0.3280  0.6704
  627MOL0     O82679   8.750   8.482   4.715  0.0664  0.0243  1.0086
  627MOL0     C82680   8.993   8.512   4.579  0.3130 -0.2382  0.3962
  627MOL0     C82681   9.116   8.510   4.514  0.3172 -0.7094  0.2173
  627MOL0     N82682   9.868   8.571   4.623  0.5252 -0.6524 -0.4501
  627MOL0     N82683   9.994   8.551   4.620 -0.2817  0.3322  0.4595
  627MOL0     C82684  11.112   8.699   4.614  0.0411  0.0318 -0.1218
  627MOL0     C82685  11.222   8.720   4.704  0.2955  0.1567 -1.0509
  627MOL0     C82686  11.394   8.707   5.138  0.1899  0.2545  0.3098
  627MOL0     C82687  11.361   8.742   5.272 -0.3605 -0.1306  1.3995
  627MOL0     C82688  11.458   8.780   5.369  0.3503 -0.7970  0.0385
  627MOL0     C82689  11.589   8.792   5.339  0.0581 -0.2128 -0.4308
  627MOL0     O82690  11.683   8.838   5.424  0.1183  0.1132  0.2015
  627MOL0     C82691  11.653   8.966   5.485 -0.3796 -0.1980 -0.3779
  627MOL0     C82692  11.762   9.026   5.571  0.3618 -0.6242  0.3812
  627MOL0     C82693  11.872   9.091   5.491  0.0105 -0.1519 -0.3923
  627MOL0     C82694  11.954   9.188   5.584  0.6428  0.1757  0.4030
  627MOL0     C82695  12.062   9.229   5.490  0.0959  0.3147  0.1871
  627MOL0     C82696  12.147   9.259   5.412  0.4176 -0.5335  0.5636
  627MOL0     C82697  11.623   8.774   5.213  1.0378  0.0378  0.8410
  627MOL0     C82698  11.534   8.724   5.110 -0.9172 -0.2113  0.3838
  627MOL0     H82699  11.188   8.434   4.882  1.0310  0.0954  0.3178
  627MOL0     H82700  10.982   8.413   4.719 -1.1012  0.9692 -1.1935
  627MOL0     H82701  10.997   8.674   4.369  0.4339 -1.2364  0.0825
  627MOL0     H82702  10.862   8.745   4.449  1.7015  1.4523 -1.3909
  627MOL0     H82703  10.875   8.478   4.298  1.4372  0.1934  0.4910
  627MOL0     H82704  10.792   8.623   4.238  0.0318 -0.9273  0.6689
  627MOL0     H82705  10.635   8.622   4.438 -0.3778  0.0077 -0.7043
  627MOL0     H82706  10.694   8.468   4.481 -2.0683  0.4439  1.9388
  627MOL0     H82707  10.581   8.509   4.201  0.3805 -0.3686 -0.2780
  627MOL0     H82708  10.596   8.374   4.278  2.1344  1.9438 -1.7978
  627MOL0     H82709  10.406   8.607   4.353  0.2163  0.6504  0.5294
  627MOL0     H82710  10.418   8.487   4.472 -2.4668  1.9524 -0.0607
  627MOL0     H82711  10.355   8.311   4.290  1.9539  0.6014  0.4116
  627MOL0     H82712  10.309   8.464   4.200  1.7622  0.9276  0.6258
  627MOL0     H82713  10.110   8.402   4.328 -0.1933 -2.0392  2.0209
  627MOL0     H82714  10.206   8.362   4.468  1.2875  0.6258  0.8703
  627MOL0     H82715  10.156   8.638   4.343 -0.7187  1.0800  0.1773
  627MOL0     H82716  10.204   8.611   4.510 -1.7729 -2.7393  0.7905
  627MOL0     H82717   9.909   8.649   4.318 -3.9127 -0.9954 -0.6093
  627MOL0     H82718   9.655   8.734   4.425 -0.6603 -0.8501 -0.2992
  627MOL0     H82719   9.623   8.689   4.590 -2.4747  0.1894 -0.4336
  627MOL0     H82720   9.603   8.444   4.521  1.5874  1.8454  1.6382
  627MOL0     H82721   9.638   8.497   4.355 -2.4039  3.1015 -1.7135
  627MOL0     H82722   9.411   8.577   4.530  1.0030 -3.1661  1.1370
  627MOL0     H82723   9.421   8.643   4.364  0.2106  0.2104  0.2467
  627MOL0     H82724   9.347   8.362   4.444  2.5836  0.1782 -0.5359
  627MOL0     H82725   9.409   8.386   4.292 -1.3064 -1.0697  0.3514
  627MOL0     H82726   9.018   8.386   4.207 -0.6533 -0.0391  0.5229
  627MOL0     H82727   8.813   8.342   4.340  2.4366 -1.4217 -4.6967
  627MOL0     H82728   8.409   8.344   4.401  0.1883 -3.6049 -0.2906
  627MOL0     H82729   8.195   8.270   4.518 -0.0503  0.9128 -0.8018
  627MOL0     H82730   8.094   8.080   4.607 -0.3468  0.7454 -0.9096
  627MOL0     H82731   8.021   8.236   4.637  0.2781  1.9006  3.0234
  627MOL0     H82732   7.958   8.171   4.861  0.7668  0.6266 -1.0186
  627MOL0     H82733   8.003   7.998   4.851  0.5532  2.4387  4.2105
  627MOL0     H82734   7.825   7.953   4.684 -2.8641 -2.0746  2.8151
  627MOL0     H82735   7.812   8.125   4.663  2.4502  0.2127 -0.0987
  627MOL0     H82736   7.743   7.947   4.906 -0.4547  0.6450  0.3644
  627MOL0     H82737   7.727   8.118   4.915  1.7319  2.1371 -1.3820
  627MOL0     H82738   7.545   8.120   4.747 -2.7446  0.9457  1.0220
  627MOL0     H82739   7.518   8.002   4.878  1.6613 -0.3381  1.2482
  627MOL0     H82740   7.581   7.815   4.704 -0.6149  0.1430 -0.6702
  627MOL0     H82741   7.618   7.942   4.598  2.1214  1.1787  1.3583
  627MOL0     H82742   7.336   7.925   4.711  0.5509 -2.7151  1.0847
  627MOL0     H82743   7.387   7.995   4.557  0.2026 -0.4039 -0.0727
  627MOL0     H82744   7.265   7.797   4.529 -0.4342 -2.9872 -0.3404
  627MOL0     H82745   7.383   7.718   4.631  0.9305  0.6520 -0.1788
  627MOL0     H82746   8.374   8.278   4.885  0.6211  2.1703 -0.0340
  627MOL0     H82747   8.591   8.342   4.792 -0.4439  2.0071  1.3097
  627MOL0     H82748   8.984   8.544   4.682 -0.0595 -1.2693  0.7012
  627MOL0     H82749   9.201   8.550   4.569 -0.3381  2.3268 -0.7419
  627MOL0     H82750  11.079   8.780   4.549 -0.1639  0.8125  0.9298
  627MOL0     H82751  11.285   8.808   4.711  1.9116 -1.0630  0.9365
  627MOL0     H82752  11.258   8.727   5.303 -0.0357 -1.8420  1.7185
  627MOL0     H82753  11.431   8.796   5.473  0.1247  1.9220 -0.3668
  627MOL0     H82754  11.562   8.965   5.545 -0.3137  0.2438 -0.2670
  627MOL0     H82755  11.626   9.036   5.405  0.4189  1.0668  0.4404
  627MOL0     H82756  11.724   9.114   5.623  0.5803 -0.9615  1.1257
  627MOL0     H82757  11.800   8.951   5.642  1.7547  1.6055  2.1077
  627MOL0     H82758  11.831   9.142   5.404 -3.6712 -0.4787  0.9804
  627MOL0     H82759  11.934   9.012   5.447  1.1169 -0.0883  0.9917
  627MOL0     H82760  11.903   9.279   5.616  0.3648  0.6654 -1.3578
  627MOL0     H82761  12.002   9.146   5.673  0.4397  2.1092  1.4914
  627MOL0     H82762  12.222   9.281   5.338  0.7957  1.2870  1.4508
  627MOL0     H82763  11.727   8.792   5.188  1.1873 -0.6167  0.9662
  627MOL0     H82764  11.579   8.710   5.012  0.0188 -1.5055  0.9668
  628MOL0     O82765   9.246   8.623   6.372 -0.2226 -0.1805 -0.8709
  628MOL0     C82766   9.290   8.715   6.311 -1.0074  0.6060  0.0990
  628MOL0     O82767   9.221   8.795   6.222 -0.6951 -0.2461  0.4029
  628MOL0     C82768   9.082   8.776   6.198 -0.1489 -0.6814  0.7280
  628MOL0     C82769   9.009   8.887   6.162  0.2250  0.0457  0.2917
  628MOL0     C82770   8.870   8.879   6.136  0.1905  0.2092  0.1748
  628MOL0     C82771   8.800   8.759   6.152 -0.3897  0.1385 -0.7142
  628MOL0     O82772   8.670   8.758   6.112  0.0216 -0.0463 -0.6250
  628MOL0     C82773   8.596   8.643   6.143  0.4908 -0.0144  0.2452
  628MOL0     C82774   8.452   8.672   6.092  0.4155  0.3755 -0.0384
  628MOL0     C82775   8.353   8.549   6.068 -0.3226  0.1724 -0.5423
  628MOL0     C82776   8.258   8.527   6.186 -0.2681  0.0066  0.4913
  628MOL0     C82777   8.184   8.392   6.158 -0.1923  0.0407  0.7140
  628MOL0     C82778   8.082   8.377   6.272  0.0544  1.0505  0.0768
  628MOL0     C82779   7.996   8.245   6.261  0.4609 -0.1994 -0.0859
  628MOL0     C82780   7.893   8.243   6.367 -1.0676 -0.3463  0.1010
  628MOL0     N82781   7.800   8.133   6.355  0.3469  0.9978  0.7150
  628MOL0     C82782   7.796   8.014   6.434 -0.0937  0.0531 -1.1958
  628MOL0     C82783   7.705   7.939   6.376  0.5062 -0.5985 -0.0417
  628MOL0     C82784   7.659   7.804   6.421  0.3088  0.6220  0.8229
  628MOL0     C82785   7.627   7.801   6.572 -0.7969 -0.6214  0.7336
  628MOL0     C82786   7.508   7.896   6.592 -0.1961  0.0935 -0.6036
  628MOL0     C82787   7.408   7.855   6.703 -0.3311 -0.9122  0.4250
  628MOL0     O82788   7.328   7.741   6.651 -0.0316 -0.2824 -0.0534
  628MOL0     C82789   7.215   7.718   6.723 -0.1258  0.3308 -0.1298
  628MOL0     C82790   7.206   7.592   6.800  0.6115  0.0548  0.1170
  628MOL0     C82791   7.108   7.581   6.893 -0.8848  0.0064 -0.2712
  628MOL0     C82792   7.020   7.694   6.924 -0.2171  0.1143  0.4684
  628MOL0     C82793   6.929   7.676   7.034 -0.5479 -0.0487  0.1259
  628MOL0     O82794   6.839   7.781   7.065  0.1670  0.1149 -0.7811
  628MOL0     C82795   6.741   7.768   7.158  0.6576 -0.0882 -0.0281
  628MOL0     C82796   6.768   7.716   7.282  0.3716  1.2876 -0.0482
  628MOL0     C82797   6.690   7.743   7.394 -0.8037  0.4495 -0.0701
  628MOL0     C82798   6.576   7.819   7.379 -0.0416 -0.1402 -0.0647
  628MOL0     O82799   6.475   7.853   7.468 -0.2037  0.1520  0.3244
  628MOL0     C82800   6.493   7.827   7.610  0.6830 -0.0578  0.2489
  628MOL0     C82801   6.351   7.849   7.674  0.0043 -0.6307 -0.2533
  628MOL0     C82802   6.292   8.000   7.670  0.8184  0.2665  0.3716
  628MOL0     C82803   6.149   7.993   7.734 -0.2914  0.6221 -0.5490
  628MOL0     C82804   6.105   8.134   7.718 -0.0404 -0.2200 -0.0253
  628MOL0     C82805   5.966   8.139   7.789  0.2149 -0.0643 -0.6620
  628MOL0     C82806   5.913   8.281   7.782 -0.0124 -0.7141  0.1409
  628MOL0     C82807   5.773   8.290   7.837  0.1740 -0.0448 -0.9182
  628MOL0    Cl82808   5.711   8.454   7.844  0.4409 -0.0295  0.1939
  628MOL0     C82809   6.543   7.856   7.243  0.4433  0.7564  0.8862
  628MOL0     C82810   6.624   7.829   7.138 -0.3296 -0.3017 -0.1249
  628MOL0     O82811   6.927   7.569   7.092  0.1316  0.5518  0.6638
  628MOL0     C82812   7.025   7.805   6.839  0.4920 -0.4201 -0.5010
  628MOL0     C82813   7.126   7.823   6.750  0.2620  0.5762 -0.3427
  628MOL0     N82814   7.651   8.009   6.268 -0.1601 -0.1452 -0.7483
  628MOL0     N82815   7.717   8.116   6.249  0.6700 -0.5147 -0.0767
  628MOL0     C82816   8.873   8.651   6.198  0.1826 -0.1137 -0.5324
  628MOL0     C82817   9.011   8.660   6.215 -0.5375  0.2213  0.0730
  628MOL0     C82818   9.428   8.763   6.344 -0.1694  0.7126  0.3568
  628MOL0     C82819   9.522   8.666   6.398 -0.4827 -0.1949  0.3970
  628MOL0     C82820   9.656   8.696   6.433  0.0155 -0.5599 -0.2013
  628MOL0     C82821   9.696   8.828   6.419 -1.1305  0.2508 -0.2209
  628MOL0     O82822   9.827   8.857   6.456  0.0513  0.1815  0.8350
  628MOL0     C82823   9.923   8.799   6.362 -0.5355 -0.3869  0.0122
  628MOL0     C82824  10.070   8.808   6.404 -0.2400  0.0342 -0.2261
  628MOL0     C82825  10.101   8.725   6.531  0.2258 -0.3107  0.4212
  628MOL0     C82826  10.122   8.575   6.500 -0.0455  1.1173  0.7876
  628MOL0     C82827  10.236   8.547   6.408 -0.5499 -0.3710  0.6964
  628MOL0     C82828  10.305   8.534   6.309 -0.1037  0.0196  0.1189
  628MOL0     C82829   9.610   8.922   6.362  0.3346 -0.7014 -0.6163
  628MOL0     C82830   9.475   8.891   6.331  0.1532  1.0180 -0.0914
  628MOL0     H82831   9.065   8.980   6.161  1.3365 -0.5852 -2.0660
  628MOL0     H82832   8.819   8.974   6.127 -1.4245 -0.6810 -0.6205
  628MOL0     H82833   8.605   8.614   6.248 -1.1882 -1.6304  0.0018
  628MOL0     H82834   8.631   8.551   6.093 -0.9176  0.8604 -2.5636
  628MOL0     H82835   8.460   8.714   5.992 -1.3244  0.6709 -0.0805
  628MOL0     H82836   8.408   8.756   6.147  2.2733  1.1889  0.2783
  628MOL0     H82837   8.412   8.457   6.071 -0.2778  0.2185  0.2549
  628MOL0     H82838   8.314   8.554   5.966 -1.9519 -3.1132 -0.2295
  628MOL0     H82839   8.316   8.518   6.278  0.0995 -3.1424  0.0494
  628MOL0     H82840   8.199   8.619   6.195 -0.3727 -0.1892  2.1207
  628MOL0     H82841   8.256   8.310   6.151 -1.9319 -1.4394 -1.0869
  628MOL0     H82842   8.143   8.393   6.057 -0.7403 -0.2200  0.9264
  628MOL0     H82843   8.011   8.460   6.265  0.5018  1.3231 -2.2138
  628MOL0     H82844   8.129   8.378   6.370  0.3949 -1.6372  0.0303
  628MOL0     H82845   7.940   8.239   6.168  0.4926 -2.4946 -0.0304
  628MOL0     H82846   8.056   8.153   6.264 -1.1861 -1.3350 -0.2265
  628MOL0     H82847   7.836   8.337   6.356 -0.4257  0.0143 -0.2288
  628MOL0     H82848   7.945   8.232   6.462  0.4069 -0.8434 -0.7192
  628MOL0     H82849   7.858   8.002   6.522  1.4971  0.5526 -2.2146
  628MOL0     H82850   7.746   7.739   6.408  0.5384  1.2928 -1.4253
  628MOL0     H82851   7.585   7.756   6.356  2.6358 -0.5042 -1.1498
  628MOL0     H82852   7.716   7.833   6.626 -1.1988 -1.5308  1.9654
  628MOL0     H82853   7.606   7.702   6.613  2.4596 -1.2538  1.1334
  628MOL0     H82854   7.557   7.986   6.631  1.5739 -1.6928  1.5554
  628MOL0     H82855   7.461   7.922   6.497 -4.2792 -0.3453  1.1075
  628MOL0     H82856   7.340   7.938   6.724  1.4988  0.3863  1.5467
  628MOL0     H82857   7.465   7.835   6.794  1.3438  1.1954 -0.0814
  628MOL0     H82858   7.280   7.512   6.793 -2.9245 -3.5914  0.4550
  628MOL0     H82859   7.097   7.492   6.954 -1.6274 -0.1331 -0.5888
  628MOL0     H82860   6.851   7.649   7.302 -0.0943  0.0617 -1.9305
  628MOL0     H82861   6.715   7.695   7.488 -0.5632  2.6865  1.0761
  628MOL0     H82862   6.560   7.892   7.667 -0.3921  0.0200  1.4901
  628MOL0     H82863   6.522   7.723   7.622 -1.2881 -0.6845 -0.0084
  628MOL0     H82864   6.352   7.813   7.778 -2.8825  0.6235  0.3036
  628MOL0     H82865   6.292   7.775   7.619  2.0875 -0.6780 -2.5814
  628MOL0     H82866   6.297   8.030   7.564  1.3557 -0.2112  0.2613
  628MOL0     H82867   6.355   8.065   7.731 -0.5385  0.6273  1.4523
  628MOL0     H82868   6.076   7.925   7.688 -1.3006  1.3675 -0.0763
  628MOL0     H82869   6.154   7.962   7.838 -1.0514  1.5566 -0.2185
  628MOL0     H82870   6.103   8.159   7.611 -0.2030 -1.0659 -0.2265
  628MOL0     H82871   6.174   8.208   7.759 -0.1165  0.6835 -1.4579
  628MOL0     H82872   5.991   8.111   7.892  1.7597 -1.9495 -1.4843
  628MOL0     H82873   5.893   8.070   7.746 -1.4918 -0.1924  2.2019
  628MOL0     H82874   5.980   8.342   7.844 -1.6755  0.7394  0.5770
  628MOL0     H82875   5.905   8.327   7.683  0.7339 -0.4201  0.2039
  628MOL0     H82876   5.760   8.244   7.936  0.4749 -0.7246 -1.1841
  628MOL0     H82877   5.708   8.227   7.775 -2.9244  1.8909  0.1076
  628MOL0     H82878   6.449   7.904   7.220  0.4735 -0.1056 -1.2282
  628MOL0     H82879   6.610   7.858   7.035  0.3521  1.4496  0.2491
  628MOL0     H82880   6.948   7.880   6.854  1.8621  0.7968  0.6992
  628MOL0     H82881   7.131   7.903   6.677  0.7277  1.7070  0.9089
  628MOL0     H82882   8.835   8.551   6.216 -0.1771  0.3908  1.8822
  628MOL0     H82883   9.048   8.561   6.241 -2.5673 -1.2701 -2.3220
  628MOL0     H82884   9.487   8.565   6.415 -0.7450 -0.7915 -3.0253
  628MOL0     H82885   9.725   8.624   6.477  1.0445  0.4614 -0.0704
  628MOL0     H82886   9.921   8.849   6.265  1.1265  2.4417  1.3161
  628MOL0     H82887   9.902   8.693   6.345  1.2484 -0.5765 -1.2915
  628MOL0     H82888  10.145   8.798   6.325  2.7299  0.2527  2.3755
  628MOL0     H82889  10.072   8.913   6.437  1.9387  0.3431 -1.1701
  628MOL0     H82890  10.023   8.750   6.603  0.6189  3.4822 -0.2349
  628MOL0     H82891  10.195   8.765   6.571  0.2970  0.8846 -0.8426
  628MOL0     H82892  10.138   8.524   6.595 -1.2137  2.2449  1.6048
  628MOL0     H82893  10.033   8.526   6.459  0.7121  1.8064 -1.9357
  628MOL0     H82894  10.352   8.511   6.216  0.9395 -2.1182  1.0969
  628MOL0     H82895   9.638   9.026   6.349 -2.3017  0.2091  0.4567
  628MOL0     H82896   9.419   8.971   6.284 -2.9552  0.2462  1.9703
  629MOL0     O82897   6.892   0.176   0.057 -0.8976 -0.6014  0.7457
  629MOL0     C82898   6.901   0.087   0.139  0.0928  0.4452 -0.2726
  629MOL0     O82899   6.828   0.065   0.254 -0.3469  0.0016 -0.2056
  629MOL0     C82900   6.716   0.137   0.277 -0.1933  1.3316  1.5420
  629MOL0     C82901   6.726   0.274   0.308  0.5011 -0.9285 -0.3956
  629MOL0     C82902   6.607   0.341   0.340 -0.3642 -0.0852 -0.8103
  629MOL0     C82903   6.480   0.280   0.331 -0.1901 -0.7497  0.2804
  629MOL0     O82904   6.351   0.329   0.365 -0.4510 -1.5853  0.1552
  629MOL0     C82905   6.346   0.468   0.417 -0.4701  0.0334 -0.1071
  629MOL0     C82906   6.206   0.497   0.448  0.7481 -0.4632  0.1922
  629MOL0     C82907   6.169   0.643   0.418  0.2034  0.2018 -0.6044
  629MOL0     C82908   6.028   0.682   0.450 -0.3935  0.0073  0.5939
  629MOL0     C82909   5.985   0.799   0.372  0.5130 -0.7782  0.3041
  629MOL0     C82910   5.838   0.827   0.399  0.1126 -0.4908 -0.2937
  629MOL0     C82911   5.784   0.958   0.323 -0.1150  0.9685 -0.9035
  629MOL0     C82912   5.842   1.090   0.382  0.0570  0.3043 -0.1598
  629MOL0     N82913   5.761   1.201   0.343  0.0836 -0.9265 -0.9034
  629MOL0     C82914   5.626   1.222   0.360  1.0205  0.4572 -0.0746
  629MOL0     C82915   5.595   1.338   0.310 -0.5389  0.1578  1.2634
  629MOL0     C82916   5.452   1.399   0.303 -0.2125 -0.3605  1.3596
  629MOL0     C82917   5.356   1.356   0.411  0.0475  0.9098  0.2157
  629MOL0     C82918   5.231   1.452   0.413  0.2683 -0.5924 -0.0753
  629MOL0     C82919   5.107   1.388   0.480  0.2014  0.3359 -0.4387
  629MOL0     O82920   5.125   1.342   0.615 -0.1041 -0.1147  0.2909
  629MOL0     C82921   5.008   1.317   0.691 -0.0213  0.5805  0.9010
  629MOL0     C82922   5.016   1.335   0.828 -0.2443  0.4971  0.0135
  629MOL0     C82923   4.909   1.312   0.915  0.0716 -0.4218 -0.5675
  629MOL0     C82924   4.785   1.272   0.860 -0.4412  0.1502  0.3098
  629MOL0     C82925   4.669   1.262   0.945  0.3779  0.6132  0.0689
  629MOL0     O82926   4.556   1.227   0.873 -0.1796  0.0178  0.0979
  629MOL0     C82927   4.440   1.216   0.941  0.5780 -0.3042 -0.9352
  629MOL0     C82928   4.351   1.322   0.957 -0.5296 -1.1213 -0.3644
  629MOL0     C82929   4.233   1.317   1.038  0.2053 -0.7536  0.9735
  629MOL0     C82930   4.212   1.201   1.111 -0.0143 -0.1202 -0.1259
  629MOL0     O82931   4.113   1.184   1.202  0.2790  0.4366 -0.0332
  629MOL0     C82932   3.981   1.227   1.153 -0.2242  0.0499  0.0168
  629MOL0     C82933   3.879   1.225   1.267 -0.8107 -0.0343 -0.6794
  629MOL0     C82934   3.745   1.249   1.214 -0.5516 -0.0679 -0.3784
  629MOL0     C82935   3.642   1.257   1.334 -0.1341  0.2226 -0.6095
  629MOL0     C82936   3.497   1.288   1.293  0.0973 -0.0123 -0.3743
  629MOL0     C82937   3.411   1.347   1.414  0.2431 -0.0210  0.4307
  629MOL0     C82938   3.281   1.378   1.347  0.3376  0.8699  0.0077
  629MOL0     C82939   3.191   1.458   1.435 -0.0167 -0.0472  0.2468
  629MOL0    Cl82940   3.039   1.469   1.346 -0.0881 -0.2035  0.2183
  629MOL0     C82941   4.297   1.090   1.094  0.1622  0.7319  0.4444
  629MOL0     C82942   4.407   1.092   1.006  0.6948 -0.2789  0.2595
  629MOL0     O82943   4.673   1.288   1.062 -0.1842 -0.0770 -0.7728
  629MOL0     C82944   4.781   1.248   0.723  0.4298  0.9450  0.1771
  629MOL0     C82945   4.891   1.263   0.640  0.1910  1.1483 -0.9794
  629MOL0     N82946   5.715   1.395   0.266 -1.1015  0.9359 -0.5038
  629MOL0     N82947   5.811   1.310   0.286 -0.0517 -0.3696 -0.6244
  629MOL0     C82948   6.475   0.153   0.277  0.0252 -0.2207 -0.7594
  629MOL0     C82949   6.591   0.076   0.262  0.9247  0.8217  0.1685
  629MOL0     C82950   6.991  -0.027   0.093  0.0754  0.8393  0.9044
  629MOL0     C82951   7.002  -0.143   0.171  0.2182  0.4132 -0.7661
  629MOL0     C82952   7.094  -0.247   0.139  0.0757  0.2121  0.5981
  629MOL0     C82953   7.175  -0.243   0.023  0.1313 -0.4767 -1.0007
  629MOL0     O82954   7.251  -0.349  -0.010 -0.1178  0.4515 -0.4897
  629MOL0     C82955   7.312  -0.366  -0.146  0.1726  0.4417 -0.7345
  629MOL0     C82956   7.207  -0.383  -0.249 -0.8940 -0.2945 -0.1928
  629MOL0     C82957   7.136  -0.519  -0.231 -0.1653 -0.4717  0.3682
  629MOL0     C82958   7.014  -0.529  -0.318  0.3676  0.5227 -0.1701
  629MOL0     C82959   7.037  -0.590  -0.450 -0.5748 -0.3729  0.8385
  629MOL0     C82960   7.059  -0.653  -0.556 -0.7872 -0.2719 -0.4299
  629MOL0     C82961   7.166  -0.125  -0.050 -0.6385 -0.4652 -0.2995
  629MOL0     C82962   7.070  -0.024  -0.024  0.6548 -0.4479  0.8291
  629MOL0     H82963   6.816   0.333   0.325 -0.9677  1.4416 -0.3377
  629MOL0     H82964   6.616   0.446   0.366  1.9580 -0.1517 -1.2180
  629MOL0     H82965   6.381   0.529   0.334  1.8972 -1.7117 -0.4908
  629MOL0     H82966   6.417   0.469   0.500  1.7181 -2.3577 -1.7878
  629MOL0     H82967   6.191   0.487   0.556 -1.6112  0.7092  0.0547
  629MOL0     H82968   6.138   0.429   0.396  2.6872 -2.6162  0.3032
  629MOL0     H82969   6.194   0.648   0.312 -1.8081 -1.5827 -1.2498
  629MOL0     H82970   6.230   0.711   0.478  1.2674 -1.1509 -0.1112
  629MOL0     H82971   5.964   0.594   0.437 -0.7938 -0.5771  4.9844
  629MOL0     H82972   6.028   0.699   0.558  0.3759  0.6412  0.5048
  629MOL0     H82973   6.010   0.771   0.269  2.2510 -0.9286  0.7311
  629MOL0     H82974   6.047   0.887   0.393 -1.4539  0.8615 -0.4514
  629MOL0     H82975   5.809   0.852   0.502 -0.8816  0.8763 -0.8632
  629MOL0     H82976   5.782   0.737   0.372 -1.8384  0.5486  0.0492
  629MOL0     H82977   5.808   0.952   0.216 -0.7997 -0.6122 -1.0070
  629MOL0     H82978   5.675   0.966   0.329  0.0792  3.7563 -0.0062
  629MOL0     H82979   5.939   1.110   0.337 -0.5313  0.1753 -1.5181
  629MOL0     H82980   5.841   1.075   0.491 -0.7786  1.5193  0.0107
  629MOL0     H82981   5.555   1.152   0.404  1.3407  0.5413  0.5883
  629MOL0     H82982   5.421   1.386   0.199  1.0900 -1.7971  1.1123
  629MOL0     H82983   5.472   1.505   0.320  4.6730 -0.5948 -0.9583
  629MOL0     H82984   5.406   1.355   0.508  1.0998  0.6946 -0.3199
  629MOL0     H82985   5.310   1.260   0.389  0.9556  0.8051 -1.4409
  629MOL0     H82986   5.257   1.547   0.461 -0.5730  0.5576 -1.7812
  629MOL0     H82987   5.201   1.474   0.310 -1.0045  0.0517  0.4152
  629MOL0     H82988   5.077   1.306   0.414 -0.3503  0.8455 -0.8334
  629MOL0     H82989   5.024   1.459   0.482 -0.7625 -0.7608 -0.1884
  629MOL0     H82990   5.115   1.365   0.860 -0.0105 -0.8687  0.6022
  629MOL0     H82991   4.909   1.338   1.020 -0.0735 -0.3214 -0.5913
  629MOL0     H82992   4.376   1.412   0.903  0.6957 -0.8495  0.6133
  629MOL0     H82993   4.155   1.392   1.043  1.8179  1.1813 -1.1233
  629MOL0     H82994   3.947   1.158   1.075  0.3363  0.1513 -0.3228
  629MOL0     H82995   3.981   1.328   1.110  2.5656  0.1525  0.0619
  629MOL0     H82996   3.906   1.303   1.339  1.9533 -2.5063  1.1746
  629MOL0     H82997   3.882   1.128   1.316 -3.8939  0.1351  0.0406
  629MOL0     H82998   3.718   1.163   1.153  2.1243  1.0643 -3.4413
  629MOL0     H82999   3.730   1.341   1.156 -3.7243  0.5123  1.1362
  629MOL0     H83000   3.658   1.165   1.392  0.7344 -0.7623 -2.3241
  629MOL0     H83001   3.673   1.342   1.394 -1.4812  0.1174  0.2793
  629MOL0     H83002   3.457   1.189   1.266 -2.1042  0.2426  1.5667
  629MOL0     H83003   3.506   1.359   1.210  1.8087 -1.3279 -1.3747
  629MOL0     H83004   3.460   1.437   1.451  3.3920 -0.8739 -1.2629
  629MOL0     H83005   3.409   1.267   1.489 -0.1484 -1.5053 -1.1074
  629MOL0     H83006   3.289   1.446   1.261 -0.9869 -0.5747 -1.3279
  629MOL0     H83007   3.230   1.289   1.308 -0.0853 -0.1028  2.6046
  629MOL0     H83008   3.231   1.556   1.461 -0.2746  0.5751 -1.5624
  629MOL0     H83009   3.175   1.403   1.528 -2.0310 -1.4854 -0.8580
  629MOL0     H83010   4.254   1.002   1.141  2.1823 -0.8178 -0.5018
  629MOL0     H83011   4.476   1.010   0.989  1.3661  0.3930 -0.2951
  629MOL0     H83012   4.689   1.205   0.686  1.7420 -2.1606  0.1576
  629MOL0     H83013   4.879   1.223   0.539  1.5122 -0.2754 -0.6176
  629MOL0     H83014   6.375   0.111   0.268  0.8774 -2.4730 -0.5927
  629MOL0     H83015   6.590  -0.031   0.243  1.0829  1.2264 -2.5942
  629MOL0     H83016   6.938  -0.165   0.256 -0.1360 -0.5564 -1.2772
  629MOL0     H83017   7.103  -0.342   0.190 -0.8416 -1.4323 -2.0821
  629MOL0     H83018   7.373  -0.456  -0.141  0.1690  0.4785  2.4159
  629MOL0     H83019   7.376  -0.282  -0.176  1.9522 -0.6996 -0.2797
  629MOL0     H83020   7.139  -0.298  -0.236 -0.5988 -0.3175  1.8253
  629MOL0     H83021   7.256  -0.373  -0.347 -0.4188  4.2290  0.2846
  629MOL0     H83022   7.105  -0.520  -0.126 -0.4530  1.1754  0.3189
  629MOL0     H83023   7.200  -0.606  -0.247  1.5628  0.2706  2.6582
  629MOL0     H83024   6.941  -0.587  -0.260  1.0905 -1.4492 -1.1430
  629MOL0     H83025   6.964  -0.433  -0.329 -0.8283 -0.0262  0.3000
  629MOL0     H83026   7.066  -0.711  -0.646  0.0899  0.5662 -0.9230
  629MOL0     H83027   7.234  -0.110  -0.132  1.0360  0.9103  1.2504
  629MOL0     H83028   7.074   0.069  -0.080  2.4104 -0.5214  0.7973
  630MOL0     O83029   7.112   7.614   0.562 -0.4012  0.4898  0.5970
  630MOL0     C83030   7.111   7.628   0.437 -0.2109 -0.2247 -0.2616
  630MOL0     O83031   6.994   7.633   0.368  0.3957 -0.6398  0.4728
  630MOL0     C83032   6.872   7.611   0.426  0.5341  0.5367  0.3049
  630MOL0     C83033   6.821   7.701   0.522  0.6194 -0.1100  0.3791
  630MOL0     C83034   6.699   7.661   0.591 -0.6282  0.0978  0.2401
  630MOL0     C83035   6.637   7.540   0.557  0.3146 -0.5735  0.4749
  630MOL0     O83036   6.527   7.499   0.627  0.4872 -0.0386 -0.0394
  630MOL0     C83037   6.415   7.576   0.648  1.0135  0.3668  0.4159
  630MOL0     C83038   6.411   7.620   0.793 -0.4139 -0.1526 -0.4422
  630MOL0     C83039   6.278   7.695   0.824  0.4468  0.1059 -0.3491
  630MOL0     C83040   6.283   7.775   0.953 -0.1127  0.5813 -0.2925
  630MOL0     C83041   6.184   7.891   0.962  0.7764 -0.2386  0.0836
  630MOL0     C83042   6.175   7.966   1.101  0.1129  0.0835 -0.5933
  630MOL0     C83043   6.085   8.090   1.094  0.1167  0.3120 -0.5844
  630MOL0     C83044   5.942   8.058   1.044  0.2560  0.6118  0.4350
  630MOL0     N83045   5.868   7.943   1.112 -0.7024 -1.2317  0.2307
  630MOL0     C83046   5.834   7.833   1.044 -1.1524 -0.7166  0.7498
  630MOL0     C83047   5.770   7.761   1.141  0.1025 -0.2602  0.0469
  630MOL0     C83048   5.691   7.633   1.135  0.4530 -0.1514 -0.4567
  630MOL0     C83049   5.758   7.508   1.074 -0.0910 -0.7306  1.1828
  630MOL0     C83050   5.881   7.462   1.155  0.6248  0.4350 -0.0247
  630MOL0     C83051   5.880   7.308   1.186 -0.0737  1.0370 -0.0399
  630MOL0     O83052   5.979   7.282   1.294 -0.5973  0.0619 -0.2967
  630MOL0     C83053   6.104   7.261   1.255 -0.5148 -0.0408 -0.2227
  630MOL0     C83054   6.192   7.206   1.345  0.3869  0.0870 -0.2554
  630MOL0     C83055   6.325   7.170   1.314 -0.3449  0.0329 -0.5471
  630MOL0     C83056   6.374   7.201   1.188 -0.5826  0.5022 -0.3327
  630MOL0     C83057   6.512   7.174   1.156  0.2854  0.5887  0.4514
  630MOL0     O83058   6.569   7.071   1.231 -0.9266  0.4772 -0.2950
  630MOL0     C83059   6.693   7.023   1.193 -0.8546  0.5126  0.4261
  630MOL0     C83060   6.699   6.901   1.113  0.0957 -0.1688 -0.4227
  630MOL0     C83061   6.820   6.852   1.073 -0.7081 -0.4284 -0.7584
  630MOL0     C83062   6.942   6.909   1.100 -1.0631 -0.3452  0.0533
  630MOL0     O83063   7.049   6.851   1.046  0.9745  0.5265  0.2751
  630MOL0     C83064   7.154   6.831   1.136  0.3564 -0.2354 -0.3011
  630MOL0     C83065   7.275   6.824   1.050 -0.1458 -0.0132  0.6847
  630MOL0     C83066   7.410   6.798   1.126  0.3456  0.1049 -1.2590
  630MOL0     C83067   7.505   6.724   1.031  0.2279  0.5803  0.4580
  630MOL0     C83068   7.617   6.656   1.110 -0.2735 -0.2980 -0.6187
  630MOL0     C83069   7.702   6.756   1.191 -0.5597 -0.2870  0.2217
  630MOL0     C83070   7.773   6.858   1.099  0.0865 -0.8029  0.7687
  630MOL0     C83071   7.836   6.967   1.176 -0.6472  0.3243 -0.2212
  630MOL0    Cl83072   7.732   7.100   1.239 -0.1871 -0.1590  0.2626
  630MOL0     C83073   6.941   7.031   1.169  1.1040  0.4874  0.6687
  630MOL0     C83074   6.816   7.088   1.219  0.5798 -0.1361 -0.1823
  630MOL0     O83075   6.570   7.234   1.065 -0.0202 -0.9164  0.5710
  630MOL0     C83076   6.294   7.257   1.095 -0.0974  0.6080  0.2455
  630MOL0     C83077   6.160   7.283   1.129  0.5997  0.2255  0.6509
  630MOL0     N83078   5.764   7.836   1.255  0.2258  0.4698 -0.4501
  630MOL0     N83079   5.825   7.946   1.239 -0.2762  0.3009  0.6345
  630MOL0     C83080   6.685   7.459   0.455  0.0782 -0.0378  0.7623
  630MOL0     C83081   6.796   7.503   0.379  0.5827  1.0576 -0.7656
  630MOL0     C83082   7.237   7.609   0.359 -0.3862 -0.1489 -0.1998
  630MOL0     C83083   7.359   7.613   0.431  0.6501  0.1469  1.1470
  630MOL0     C83084   7.484   7.606   0.365  0.6029  0.2193  0.2757
  630MOL0     C83085   7.482   7.577   0.227 -0.1886 -0.5579  0.6492
  630MOL0     O83086   7.598   7.566   0.160 -0.0304  0.4505  0.4467
  630MOL0     C83087   7.661   7.439   0.150  0.0518 -0.4613 -0.0420
  630MOL0     C83088   7.775   7.439   0.249  0.4839  0.7361 -0.1979
  630MOL0     C83089   7.842   7.303   0.246  0.2345  0.1404 -1.2482
  630MOL0     C83090   7.954   7.279   0.336 -0.3740 -0.1619 -0.0728
  630MOL0     C83091   8.083   7.345   0.301 -0.2597 -0.2616 -0.0535
  630MOL0     C83092   8.189   7.395   0.278  0.0715 -0.2652  0.0082
  630MOL0     C83093   7.359   7.581   0.158 -0.1183  0.1081  0.7104
  630MOL0     C83094   7.240   7.594   0.223 -0.2173 -0.2412 -0.5180
  630MOL0     H83095   6.862   7.799   0.543  1.6834 -0.2050 -1.1313
  630MOL0     H83096   6.660   7.712   0.678 -1.0726 -0.7623  0.5571
  630MOL0     H83097   6.329   7.509   0.646  2.9666 -2.3068  0.3613
  630MOL0     H83098   6.405   7.659   0.578  2.9548 -0.2731 -0.7007
  630MOL0     H83099   6.497   7.685   0.810 -3.3536  3.9019  0.3382
  630MOL0     H83100   6.427   7.537   0.862  1.0095 -0.0301 -0.5888
  630MOL0     H83101   6.199   7.620   0.818  1.8759 -1.4448 -0.5693
  630MOL0     H83102   6.267   7.773   0.748  0.4661 -1.9152 -2.5207
  630MOL0     H83103   6.279   7.717   1.045  0.0587 -0.6978 -1.0748
  630MOL0     H83104   6.380   7.825   0.949  0.5135 -0.6617 -2.6172
  630MOL0     H83105   6.090   7.849   0.926  0.8748 -1.8174  1.5338
  630MOL0     H83106   6.215   7.957   0.880 -0.7794 -2.3739 -2.3827
  630MOL0     H83107   6.271   8.003   1.140  0.4956 -1.9820  0.5635
  630MOL0     H83108   6.137   7.897   1.177 -1.5519 -0.1026 -1.5473
  630MOL0     H83109   6.062   8.124   1.196 -1.5549 -0.6863 -0.5944
  630MOL0     H83110   6.130   8.166   1.030 -2.9994  2.7166 -0.1455
  630MOL0     H83111   5.942   8.040   0.936  1.8345  0.6351  0.4123
  630MOL0     H83112   5.885   8.150   1.062 -0.7447  0.1629 -0.3435
  630MOL0     H83113   5.848   7.814   0.938 -2.4341  1.2941  0.1677
  630MOL0     H83114   5.607   7.654   1.068  2.7658  1.9927 -2.9631
  630MOL0     H83115   5.664   7.606   1.237 -0.9919  1.6732 -0.3103
  630MOL0     H83116   5.795   7.534   0.975  0.0090  0.3892  1.4922
  630MOL0     H83117   5.689   7.424   1.061  2.3557 -2.5634 -0.9759
  630MOL0     H83118   5.969   7.506   1.107 -0.6271  1.4190 -1.5546
  630MOL0     H83119   5.873   7.525   1.245  2.6689  1.8284 -0.7505
  630MOL0     H83120   5.915   7.255   1.097 -1.0217  1.1568 -0.4967
  630MOL0     H83121   5.779   7.276   1.215  0.9291 -2.5868 -0.1569
  630MOL0     H83122   6.167   7.176   1.447  5.9178 -1.0699  1.1393
  630MOL0     H83123   6.384   7.114   1.387 -0.4566  0.1603 -0.3568
  630MOL0     H83124   6.604   6.857   1.084  0.2802 -1.5362  0.9098
  630MOL0     H83125   6.821   6.768   1.005  0.8511 -0.9511 -0.1518
  630MOL0     H83126   7.132   6.741   1.193 -2.3698  1.1447  1.0041
  630MOL0     H83127   7.161   6.916   1.204  0.0163  0.2735 -0.8933
  630MOL0     H83128   7.292   6.911   0.987  0.8159  1.8736  3.3583
  630MOL0     H83129   7.253   6.737   0.988 -2.9016  0.7780  0.4152
  630MOL0     H83130   7.398   6.736   1.216  0.7166  1.5054 -0.1931
  630MOL0     H83131   7.443   6.898   1.156 -1.1875  0.6683 -1.3454
  630MOL0     H83132   7.455   6.641   0.980  1.1227  0.2285  0.1385
  630MOL0     H83133   7.543   6.800   0.962 -0.3693  1.3289  0.9326
  630MOL0     H83134   7.677   6.606   1.033  0.8153  1.4317 -0.9468
  630MOL0     H83135   7.563   6.593   1.180 -1.5780 -0.0507 -1.3703
  630MOL0     H83136   7.780   6.697   1.238  0.9822  0.1736 -1.6345
  630MOL0     H83137   7.632   6.803   1.260  0.0456 -0.8559  1.2418
  630MOL0     H83138   7.851   6.814   1.037 -0.8940  0.4086 -1.4378
  630MOL0     H83139   7.706   6.901   1.024  0.5841 -3.4092 -1.3220
  630MOL0     H83140   7.914   7.010   1.112 -0.5739  2.0573  0.9586
  630MOL0     H83141   7.891   6.927   1.262 -2.7906 -0.7379  0.7347
  630MOL0     H83142   7.026   7.098   1.178  2.2424 -0.3878 -2.3963
  630MOL0     H83143   6.818   7.182   1.273  5.6360  0.9796 -1.7686
  630MOL0     H83144   6.334   7.296   1.002  2.8463  3.7531  2.5862
  630MOL0     H83145   6.104   7.317   1.043 -1.2078 -1.0069  1.2860
  630MOL0     H83146   6.629   7.370   0.428 -4.8865  2.7435  0.7381
  630MOL0     H83147   6.838   7.454   0.291  2.9008  0.8183  0.3952
  630MOL0     H83148   7.364   7.623   0.539  1.2166  0.6234  1.0811
  630MOL0     H83149   7.577   7.611   0.422 -0.7670  1.1715  2.5772
  630MOL0     H83150   7.694   7.416   0.048 -2.6895 -0.4410 -1.0104
  630MOL0     H83151   7.586   7.365   0.181 -0.0662 -0.0802  0.5982
  630MOL0     H83152   7.849   7.513   0.218  0.5365  0.7620 -0.0115
  630MOL0     H83153   7.734   7.457   0.349  0.4553 -1.0341  0.1325
  630MOL0     H83154   7.872   7.287   0.142 -0.5263  0.3893 -1.5135
  630MOL0     H83155   7.776   7.220   0.272  0.4638  0.8588  2.0369
  630MOL0     H83156   7.923   7.321   0.433 -1.5736 -2.8134  0.7966
  630MOL0     H83157   7.977   7.172   0.341  1.2336  0.2145  1.2451
  630MOL0     H83158   8.287   7.430   0.253 -0.4051 -0.5198 -2.4636
  630MOL0     H83159   7.363   7.568   0.051  1.8350  4.0260  0.1143
  630MOL0     H83160   7.144   7.589   0.174 -1.1400 -0.3782  1.2150
  631MOL0     O83161   1.215   1.733   9.620 -0.9613  0.0332  0.1705
  631MOL0     C83162   1.332   1.711   9.654  0.0833  0.4868  0.6237
  631MOL0     O83163   1.376   1.666   9.780 -0.8017 -1.0070  0.1702
  631MOL0     C83164   1.280   1.661   9.879  0.1167 -0.3041  0.7751
  631MOL0     C83165   1.202   1.548   9.886 -0.2864  0.5421  0.5403
  631MOL0     C83166   1.104   1.538   9.977  0.6575  0.1389 -0.3463
  631MOL0     C83167   1.069   1.644  10.053  0.5062  0.2914  0.1581
  631MOL0     O83168   0.960   1.641  10.135 -0.1535 -0.5050 -0.8081
  631MOL0     C83169   0.836   1.623  10.066  0.6218 -0.3325 -0.6748
  631MOL0     C83170   0.727   1.623  10.172  0.3348  0.3799  0.2780
  631MOL0     C83171   0.697   1.760  10.236 -0.2646  0.0784  0.6089
  631MOL0     C83172   0.620   1.751  10.364 -0.4160 -0.6176  0.5076
  631MOL0     C83173   0.523   1.865  10.384  0.5322 -0.5819 -0.4192
  631MOL0     C83174   0.476   1.876  10.530 -0.3744  0.0001  0.2252
  631MOL0     C83175   0.386   1.761  10.567 -0.4784  0.6681  0.7509
  631MOL0     C83176   0.331   1.793  10.709  0.5121  0.0510 -0.6383
  631MOL0     N83177   0.226   1.901  10.705 -0.2159  0.0768 -0.0816
  631MOL0     C83178   0.100   1.902  10.651 -0.1115  0.0158  0.1120
  631MOL0     C83179   0.044   2.016  10.693 -0.2165 -0.0685  0.5619
  631MOL0     C83180  -0.094   2.069  10.663 -0.1573 -0.2423  0.8320
  631MOL0     C83181  -0.205   2.055  10.767  0.1296  0.8694  0.3761
  631MOL0     C83182  -0.159   2.095  10.902 -0.8406  0.1119 -0.6684
  631MOL0     C83183  -0.278   2.152  10.981 -0.6130  0.3922  0.2377
  631MOL0     O83184  -0.334   2.262  10.919  0.2852  0.5301  0.1018
  631MOL0     C83185  -0.467   2.294  10.945  0.4738 -0.0373  0.8062
  631MOL0     C83186  -0.533   2.280  11.060  0.3959  0.0298 -0.1721
  631MOL0     C83187  -0.653   2.353  11.089 -0.2176 -0.1192 -0.6077
  631MOL0     C83188  -0.708   2.431  10.990  0.5604  0.9892  0.4346
  631MOL0     C83189  -0.823   2.511  11.012  1.0822  0.0340  0.2014
  631MOL0     O83190  -0.896   2.468  11.119 -0.4823  0.5721 -0.5877
  631MOL0     C83191  -1.011   2.525  11.167 -0.4992  0.0998  0.4332
  631MOL0     C83192  -1.030   2.505  11.303 -0.0459  0.3188 -0.2292
  631MOL0     C83193  -1.138   2.552  11.373  0.3269 -0.3105  0.2422
  631MOL0     C83194  -1.233   2.627  11.313 -0.4687 -0.3155  0.0685
  631MOL0     O83195  -1.335   2.674  11.377  0.0707  0.2091 -0.5671
  631MOL0     C83196  -1.462   2.675  11.319  0.0771 -0.5623 -0.1044
  631MOL0     C83197  -1.569   2.723  11.419 -0.1198  0.4907  0.2869
  631MOL0     C83198  -1.712   2.741  11.364  0.6267  0.4257 -0.5564
  631MOL0     C83199  -1.798   2.786  11.480 -0.7754 -0.6266  0.4054
  631MOL0     C83200  -1.945   2.801  11.440 -0.2920  0.5011 -0.4653
  631MOL0     C83201  -2.027   2.839  11.563 -0.5177  0.0462  0.0237
  631MOL0     C83202  -2.184   2.808  11.541  0.2434  0.2743 -0.4525
  631MOL0     C83203  -2.250   2.791  11.680  0.5896  0.3693 -0.0649
  631MOL0    Cl83204  -2.234   2.941  11.780  0.3537  0.1559  0.1838
  631MOL0     C83205  -1.207   2.654  11.182  0.8050 -0.2177 -0.1345
  631MOL0     C83206  -1.094   2.613  11.108  1.0000 -0.4350  0.1876
  631MOL0     O83207  -0.848   2.613  10.943 -0.0206 -0.3220 -0.2004
  631MOL0     C83208  -0.643   2.440  10.870  0.2683  0.0438  0.3274
  631MOL0     C83209  -0.519   2.384  10.850  0.1063  0.7943 -0.2036
  631MOL0     N83210   0.140   2.089  10.774 -0.6544  0.0094 -0.9121
  631MOL0     N83211   0.249   2.018  10.766  0.2589  0.4076  0.0856
  631MOL0     C83212   1.150   1.758  10.059 -0.0484 -0.7949 -1.2508
  631MOL0     C83213   1.258   1.762   9.967 -0.1155 -0.3778 -0.1255
  631MOL0     C83214   1.431   1.736   9.553 -1.0792 -0.2687  0.2315
  631MOL0     C83215   1.566   1.698   9.572 -0.5797 -0.2188 -0.3505
  631MOL0     C83216   1.667   1.722   9.479  0.0952  0.6531 -0.1443
  631MOL0     C83217   1.638   1.785   9.362  0.2234 -0.0635 -0.9995
  631MOL0     O83218   1.739   1.819   9.274  0.3723  0.3052  0.0099
  631MOL0     C83219   1.878   1.841   9.308 -0.0976 -0.4123  0.3917
  631MOL0     C83220   1.961   1.717   9.251 -0.2336 -0.8278 -0.4183
  631MOL0     C83221   2.101   1.703   9.310  0.1683 -0.3777 -0.1778
  631MOL0     C83222   2.171   1.840   9.340 -1.1737 -0.2604  0.8099
  631MOL0     C83223   2.313   1.818   9.342  0.7950  0.0745 -0.1093
  631MOL0     C83224   2.433   1.793   9.344  0.2904 -0.1028  0.6886
  631MOL0     C83225   1.506   1.827   9.332  0.0472  0.0272  0.5758
  631MOL0     C83226   1.404   1.788   9.423 -0.0635  0.0625 -0.1580
  631MOL0     H83227   1.220   1.461   9.824  0.5645  0.3255  1.0742
  631MOL0     H83228   1.065   1.437   9.980 -0.8547  0.7078  1.8188
  631MOL0     H83229   0.844   1.525  10.017  0.5002 -0.7379  0.1016
  631MOL0     H83230   0.816   1.707   9.998  1.2148  2.4833  2.3755
  631MOL0     H83231   0.749   1.557  10.256 -0.9004  1.5342  1.5717
  631MOL0     H83232   0.632   1.595  10.126  0.9336 -1.2833 -0.0239
  631MOL0     H83233   0.637   1.804  10.156 -2.4493  1.2299  2.7364
  631MOL0     H83234   0.789   1.818  10.251 -0.1170 -0.0656  0.2668
  631MOL0     H83235   0.562   1.658  10.372 -1.2742 -0.2370 -0.9805
  631MOL0     H83236   0.700   1.745  10.439 -0.1028 -0.9215  0.1561
  631MOL0     H83237   0.431   1.850  10.326  0.3310  0.6368 -0.4440
  631MOL0     H83238   0.560   1.963  10.351 -1.5802  0.2294 -0.5796
  631MOL0     H83239   0.420   1.970  10.530  0.4805  0.5245  0.7748
  631MOL0     H83240   0.553   1.902  10.603  0.8084 -0.4961 -0.8048
  631MOL0     H83241   0.310   1.753  10.490  0.8729 -0.1414 -0.5479
  631MOL0     H83242   0.439   1.665  10.577  0.7099  1.4337  2.4696
  631MOL0     H83243   0.409   1.836  10.772  0.6650  3.5083 -2.8980
  631MOL0     H83244   0.273   1.712  10.753  0.2236  0.1138 -0.8977
  631MOL0     H83245   0.045   1.826  10.598 -0.7676 -0.4673  1.4415
  631MOL0     H83246  -0.125   2.026  10.567 -1.0711  5.5792 -1.9741
  631MOL0     H83247  -0.093   2.176  10.640  0.3762 -0.3950  0.0943
  631MOL0     H83248  -0.236   1.950  10.771 -0.2138  0.7448 -3.1312
  631MOL0     H83249  -0.290   2.116  10.738  0.0771  0.9356  0.6635
  631MOL0     H83250  -0.124   2.016  10.970 -0.5205  1.7623  1.1761
  631MOL0     H83251  -0.078   2.168  10.897  0.1743 -0.9716 -0.5977
  631MOL0     H83252  -0.236   2.171  11.081  1.0049  1.6382 -0.6307
  631MOL0     H83253  -0.353   2.073  10.990 -0.0531 -0.2704 -0.7316
  631MOL0     H83254  -0.486   2.228  11.143 -0.9300 -1.3350 -0.2366
  631MOL0     H83255  -0.686   2.357  11.192  3.9577  0.2937  0.9299
  631MOL0     H83256  -0.954   2.439  11.343  0.5391  1.0026 -0.1895
  631MOL0     H83257  -1.157   2.523  11.476  2.1669 -0.1414  0.6602
  631MOL0     H83258  -1.487   2.573  11.289 -0.5876 -0.5043  0.2572
  631MOL0     H83259  -1.462   2.745  11.234  1.5731  0.2721  0.5359
  631MOL0     H83260  -1.528   2.817  11.457 -0.0932  0.3176  0.6855
  631MOL0     H83261  -1.575   2.653  11.503 -0.2973  0.4388  0.2310
  631MOL0     H83262  -1.743   2.641  11.333  3.9782 -0.3838 -1.6308
  631MOL0     H83263  -1.718   2.809  11.278  0.6728  0.5353 -0.4741
  631MOL0     H83264  -1.801   2.716  11.564  0.2881  1.2107  2.0542
  631MOL0     H83265  -1.760   2.882  11.516 -2.7295  0.7357 -0.9420
  631MOL0     H83266  -1.977   2.703  11.402  0.6080 -0.9555  2.2496
  631MOL0     H83267  -1.963   2.882  11.369 -2.8797  1.3817  1.0299
  631MOL0     H83268  -2.013   2.947  11.572  0.5586 -0.0900  0.1255
  631MOL0     H83269  -1.993   2.784  11.650  0.8104  0.9626  0.1131
  631MOL0     H83270  -2.229   2.881  11.473 -0.6660 -1.1788 -1.4804
  631MOL0     H83271  -2.214   2.727  11.474 -2.3949  2.1714 -1.7584
  631MOL0     H83272  -2.205   2.697  11.712  0.6942 -0.2868 -1.9974
  631MOL0     H83273  -2.358   2.776  11.673  0.8476 -0.9011 -2.2051
  631MOL0     H83274  -1.276   2.719  11.129 -0.3068  0.2219  1.7514
  631MOL0     H83275  -1.086   2.656  11.009  0.9906 -0.7061  0.0686
  631MOL0     H83276  -0.670   2.518  10.799  0.3677 -0.2489 -0.0399
  631MOL0     H83277  -0.473   2.395  10.753 -0.3449 -1.5035 -0.7417
  631MOL0     H83278   1.132   1.839  10.128  3.3944 -0.6101 -0.3833
  631MOL0     H83279   1.323   1.849   9.962 -0.7075  0.1586  1.0788
  631MOL0     H83280   1.601   1.668   9.670  1.0055  0.9155 -0.5117
  631MOL0     H83281   1.770   1.702   9.508 -0.8024 -2.3449  1.3295
  631MOL0     H83282   1.886   1.843   9.417 -1.9506 -1.5221  0.5903
  631MOL0     H83283   1.921   1.933   9.267 -1.9879  0.8063  1.0545
  631MOL0     H83284   1.904   1.625   9.269 -1.2706 -0.0259  0.5330
  631MOL0     H83285   1.974   1.733   9.144  0.3061 -3.7316 -0.8797
  631MOL0     H83286   2.158   1.637   9.243  1.0421 -1.2461  1.3716
  631MOL0     H83287   2.100   1.652   9.407  4.2417 -1.8705 -0.7396
  631MOL0     H83288   2.143   1.908   9.258  0.4406 -0.4471  0.0560
  631MOL0     H83289   2.140   1.886   9.434  1.6590  0.0620  1.6582
  631MOL0     H83290   2.540   1.782   9.348  0.1581 -1.6263  0.3288
  631MOL0     H83291   1.494   1.878   9.237  2.7515 -0.4507 -0.1100
  631MOL0     H83292   1.302   1.813   9.394 -0.1165  1.9864  1.4187
  632MOL0     O83293   3.552   9.527   5.052 -0.0307 -0.0845 -0.3875
  632MOL0     C83294   3.506   9.412   5.063 -0.1111 -0.4121  0.5066
  632MOL0     O83295   3.547   9.304   4.993 -0.3766 -0.9425 -0.3607
  632MOL0     C83296   3.640   9.319   4.887  0.3401 -0.2777  0.9414
  632MOL0     C83297   3.615   9.256   4.767  0.2517  0.0366  0.3110
  632MOL0     C83298   3.703   9.276   4.653  0.2293 -1.0268  0.1857
  632MOL0     C83299   3.822   9.347   4.670 -1.7037  0.1140 -0.3987
  632MOL0     O83300   3.902   9.369   4.557 -0.0384  1.1157  0.3578
  632MOL0     C83301   4.032   9.318   4.561  0.3363  0.2000 -0.5128
  632MOL0     C83302   4.086   9.309   4.412  0.3591  0.4844 -1.0834
  632MOL0     C83303   4.236   9.277   4.406  0.6590  0.3332 -0.2259
  632MOL0     C83304   4.304   9.319   4.280  0.0116  0.5039  0.2448
  632MOL0     C83305   4.300   9.213   4.172 -0.3917 -0.2680 -0.8040
  632MOL0     C83306   4.423   9.242   4.077  0.0302  0.2513  0.4431
  632MOL0     C83307   4.409   9.151   3.956  0.1079  0.1540  0.1220
  632MOL0     C83308   4.337   9.218   3.840 -0.0644 -0.6801  0.7373
  632MOL0     N83309   4.381   9.154   3.715 -0.7357 -0.4543 -0.0821
  632MOL0     C83310   4.332   9.041   3.652 -0.7497 -0.5120  0.4763
  632MOL0     C83311   4.411   9.030   3.545 -0.5256 -0.2122  0.2597
  632MOL0     C83312   4.418   8.903   3.477  0.0766 -0.9117 -0.0225
  632MOL0     C83313   4.293   8.865   3.400  0.4909 -0.5861 -0.1579
  632MOL0     C83314   4.271   8.946   3.272  0.6334 -1.2441 -0.1146
  632MOL0     C83315   4.131   8.923   3.215  0.7653  0.6517 -0.3970
  632MOL0     O83316   4.101   9.008   3.105  0.3271 -0.3794  0.0216
  632MOL0     C83317   4.004   9.100   3.146  0.8457 -0.1354  0.0648
  632MOL0     C83318   3.880   9.087   3.094 -0.3640  0.5338  0.8121
  632MOL0     C83319   3.783   9.169   3.136  0.1929  0.1821  0.8420
  632MOL0     C83320   3.805   9.292   3.199 -0.5077  1.5442 -0.7760
  632MOL0     C83321   3.700   9.394   3.213 -0.1765  0.0553 -0.6915
  632MOL0     O83322   3.735   9.514   3.267  0.4995 -0.0135  0.1105
  632MOL0     C83323   3.643   9.615   3.292  0.7091 -0.0655 -0.5878
  632MOL0     C83324   3.520   9.589   3.360  0.7522 -0.0735 -0.4786
  632MOL0     C83325   3.435   9.698   3.391  0.2107  0.8287 -0.3888
  632MOL0     C83326   3.461   9.829   3.344  0.5554 -0.1677 -0.0174
  632MOL0     O83327   3.382   9.940   3.374  0.6084  0.2508  0.0752
  632MOL0     C83328   3.248   9.923   3.362  0.3984 -0.0579  0.6402
  632MOL0     C83329   3.189   9.991   3.486 -0.6402 -0.3051 -0.5713
  632MOL0     C83330   3.043  10.041   3.458 -0.1179  0.2145 -0.0980
  632MOL0     C83331   2.978  10.091   3.595 -0.2569 -0.0134  0.0884
  632MOL0     C83332   2.828  10.119   3.593  1.1448 -0.8541 -0.9735
  632MOL0     C83333   2.772  10.182   3.725  0.3258  0.0239 -0.2591
  632MOL0     C83334   2.626  10.223   3.715 -0.4173  0.1571  0.7905
  632MOL0     C83335   2.585  10.306   3.831  0.1646  0.3161 -0.1384
  632MOL0    Cl83336   2.577  10.205   3.983 -0.1616 -0.2926 -0.0706
  632MOL0     C83337   3.587   9.856   3.283 -0.3037  1.0341  0.8066
  632MOL0     C83338   3.671   9.743   3.256  0.1211 -1.1405 -0.4132
  632MOL0     O83339   3.587   9.355   3.194  0.0549  0.8699 -0.3303
  632MOL0     C83340   3.934   9.306   3.252 -0.0244  0.1769  0.0174
  632MOL0     C83341   4.033   9.205   3.235  0.4814  0.4276 -1.1944
  632MOL0     N83342   4.501   9.136   3.544  0.4622 -0.7911  0.5126
  632MOL0     N83343   4.479   9.212   3.645  0.8862 -0.0629 -1.3741
  632MOL0     C83344   3.851   9.401   4.797  0.4712 -0.0064 -0.1784
  632MOL0     C83345   3.759   9.384   4.904 -0.5313  0.1837  0.0932
  632MOL0     C83346   3.409   9.392   5.176  0.2171  0.3163  0.0938
  632MOL0     C83347   3.330   9.492   5.221 -0.1262 -0.1549  0.5254
  632MOL0     C83348   3.244   9.485   5.333  0.2533  0.3010 -0.4120
  632MOL0     C83349   3.226   9.363   5.400  0.9300  0.9265 -0.9778
  632MOL0     O83350   3.143   9.346   5.513  0.8484  0.0207  0.2222
  632MOL0     C83351   3.198   9.373   5.641  0.1997  0.5085  0.0223
  632MOL0     C83352   3.204   9.520   5.677 -0.3747  0.0462  0.0747
  632MOL0     C83353   3.068   9.573   5.689  0.4934  0.0417  0.5574
  632MOL0     C83354   3.061   9.718   5.739  0.5195 -0.1618 -0.0630
  632MOL0     C83355   2.926   9.768   5.715 -0.6963 -0.0597  0.5556
  632MOL0     C83356   2.822   9.816   5.697 -0.3259 -0.8093  0.2765
  632MOL0     C83357   3.300   9.255   5.355 -0.5031 -1.0731 -0.3627
  632MOL0     C83358   3.393   9.272   5.247  0.1619  0.3763 -0.0481
  632MOL0     H83359   3.537   9.180   4.764  0.9051 -0.5973 -1.5080
  632MOL0     H83360   3.672   9.222   4.564 -2.4850  0.8192 -0.1311
  632MOL0     H83361   4.028   9.221   4.612 -2.8372  0.5950  0.1466
  632MOL0     H83362   4.093   9.395   4.609 -1.2672  2.0275 -1.3210
  632MOL0     H83363   4.058   9.401   4.361 -0.6367  1.0634  0.4237
  632MOL0     H83364   4.035   9.224   4.365  0.9626  0.2430 -1.3140
  632MOL0     H83365   4.247   9.169   4.419  0.6598  0.2993 -0.5003
  632MOL0     H83366   4.291   9.318   4.491  3.2407 -1.3095 -0.9687
  632MOL0     H83367   4.263   9.411   4.240 -0.1419 -0.2087 -1.3018
  632MOL0     H83368   4.409   9.340   4.306  0.5923 -2.4276  0.6283
  632MOL0     H83369   4.202   9.225   4.123  0.6180 -0.0937 -2.8966
  632MOL0     H83370   4.312   9.113   4.213  0.2652  0.4700  0.8795
  632MOL0     H83371   4.516   9.214   4.128  1.0511 -0.1509 -1.5205
  632MOL0     H83372   4.445   9.348   4.056 -1.6144  0.9550  1.9920
  632MOL0     H83373   4.508   9.125   3.917 -0.6962  1.3941 -3.0472
  632MOL0     H83374   4.368   9.054   3.985 -1.5686  0.7858  0.0137
  632MOL0     H83375   4.355   9.326   3.835 -0.7141 -0.6092 -3.2349
  632MOL0     H83376   4.230   9.199   3.849 -0.1570 -0.4519  0.1740
  632MOL0     H83377   4.255   8.972   3.684 -2.2342  0.7480 -0.2329
  632MOL0     H83378   4.452   8.824   3.544  2.8588  1.4220  1.5471
  632MOL0     H83379   4.499   8.923   3.406 -2.4273  0.4551 -2.7604
  632MOL0     H83380   4.196   8.866   3.451  0.0885  0.3743 -0.9137
  632MOL0     H83381   4.311   8.761   3.373  1.0613 -0.4354 -0.3621
  632MOL0     H83382   4.296   9.051   3.292 -1.0074 -0.7851 -0.2786
  632MOL0     H83383   4.346   8.908   3.202  1.5250 -0.3806  0.3405
  632MOL0     H83384   4.056   8.932   3.294  0.8329 -0.2476 -0.2237
  632MOL0     H83385   4.140   8.822   3.175 -2.7240 -0.2209  0.6705
  632MOL0     H83386   3.860   8.998   3.035  1.3464  1.1241 -0.7527
  632MOL0     H83387   3.684   9.139   3.100 -0.1066  1.9152  0.1256
  632MOL0     H83388   3.483   9.490   3.385 -4.0659  1.1685 -1.7247
  632MOL0     H83389   3.346   9.668   3.444  0.0092  0.8649 -0.7065
  632MOL0     H83390   3.209   9.821   3.352 -1.3934  0.4517  1.8613
  632MOL0     H83391   3.213   9.976   3.273 -1.0354  0.2231  1.3352
  632MOL0     H83392   3.247  10.080   3.514 -0.9831  0.4648 -2.1832
  632MOL0     H83393   3.198   9.926   3.574 -2.8563  1.5989  1.2087
  632MOL0     H83394   2.982   9.964   3.410  1.3668 -1.1710  0.1770
  632MOL0     H83395   3.063  10.128   3.394  1.6519  0.6102  0.9161
  632MOL0     H83396   2.988  10.006   3.664  0.7034  0.8769  1.1008
  632MOL0     H83397   3.022  10.180   3.642  0.0060  0.5684 -1.2201
  632MOL0     H83398   2.775  10.025   3.572  2.7752 -2.3696  1.2398
  632MOL0     H83399   2.802  10.195   3.518 -0.3407 -1.0055 -0.6553
  632MOL0     H83400   2.841  10.264   3.748  0.0998  0.1362  0.0217
  632MOL0     H83401   2.791  10.110   3.805 -0.1901  0.9269  0.7172
  632MOL0     H83402   2.619  10.289   3.628 -0.1673  2.4241  2.3907
  632MOL0     H83403   2.563  10.134   3.710 -1.5784  0.8841  1.7430
  632MOL0     H83404   2.491  10.360   3.820  1.2134  1.8774 -2.2672
  632MOL0     H83405   2.660  10.385   3.844  0.3671  0.3172 -1.1721
  632MOL0     H83406   3.623   9.957   3.267  0.9871  0.3919 -0.5871
  632MOL0     H83407   3.774   9.764   3.227  0.1549 -0.8699 -0.1085
  632MOL0     H83408   3.955   9.401   3.301  2.2547  0.2031 -0.8840
  632MOL0     H83409   4.131   9.221   3.278  1.3110 -0.0990 -2.8014
  632MOL0     H83410   3.940   9.459   4.816  0.1148  0.7462 -0.7263
  632MOL0     H83411   3.781   9.426   5.002 -1.3284  1.8481 -0.3936
  632MOL0     H83412   3.336   9.581   5.160  1.9258 -0.2490  0.5297
  632MOL0     H83413   3.166   9.553   5.364 -0.8970 -0.4050 -1.6202
  632MOL0     H83414   3.297   9.328   5.645 -1.1047 -2.5856  0.1129
  632MOL0     H83415   3.135   9.316   5.710  2.9475 -0.5770  1.8033
  632MOL0     H83416   3.259   9.529   5.771  0.4072 -1.8270 -0.1722
  632MOL0     H83417   3.255   9.574   5.596 -3.3888 -1.3182 -2.9883
  632MOL0     H83418   3.014   9.505   5.755  0.3542 -1.9670 -1.4935
  632MOL0     H83419   3.023   9.563   5.590 -0.8409 -0.1172  1.1607
  632MOL0     H83420   3.070   9.707   5.848  1.6059 -1.1006 -0.2263
  632MOL0     H83421   3.147   9.778   5.706  1.5254 -1.2904  0.4198
  632MOL0     H83422   2.724   9.859   5.692  0.5639  1.8112  2.6672
  632MOL0     H83423   3.285   9.157   5.398 -1.0611 -1.2690 -0.9827
  632MOL0     H83424   3.448   9.181   5.225 -1.9783 -1.1277  0.5030
  633MOL0     O83425   3.700   9.167   6.659 -0.0536 -0.4039  0.0124
  633MOL0     C83426   3.698   9.269   6.590  0.2797  0.0244 -0.5542
  633MOL0     O83427   3.581   9.327   6.542  0.0344  0.6075  0.6828
  633MOL0     C83428   3.456   9.273   6.567  0.1970  1.0019  0.2582
  633MOL0     C83429   3.427   9.139   6.545 -0.5086 -0.3184  0.0738
  633MOL0     C83430   3.299   9.091   6.546 -0.3249  0.3938  0.5647
  633MOL0     C83431   3.200   9.181   6.566 -0.2349 -0.6014 -0.2296
  633MOL0     O83432   3.064   9.152   6.576  0.1463 -0.5089  0.2429
  633MOL0     C83433   3.017   9.020   6.551 -0.4153  0.1631 -1.3472
  633MOL0     C83434   2.872   8.996   6.602 -0.4515  0.3030 -0.5849
  633MOL0     C83435   2.848   8.848   6.620  0.4698 -0.0470  0.8361
  633MOL0     C83436   2.709   8.801   6.657 -0.5177 -0.5313 -0.2712
  633MOL0     C83437   2.703   8.650   6.677  0.0854 -0.3858  0.0242
  633MOL0     C83438   2.558   8.600   6.721 -0.1577 -0.0032  0.0090
  633MOL0     C83439   2.567   8.456   6.777 -0.2642 -0.0496  0.0354
  633MOL0     C83440   2.543   8.345   6.670 -0.1358 -1.0135 -0.3313
  633MOL0     N83441   2.520   8.209   6.729  0.3405 -0.2581 -0.2658
  633MOL0     C83442   2.595   8.160   6.835  0.7545 -0.1434 -0.4352
  633MOL0     C83443   2.550   8.035   6.859  0.4131 -0.0882 -0.2217
  633MOL0     C83444   2.608   7.958   6.975  0.4193 -0.2006  0.2679
  633MOL0     C83445   2.520   7.836   7.020 -0.3364  0.3712  0.0915
  633MOL0     C83446   2.388   7.876   7.060 -1.2510  0.7387 -0.3071
  633MOL0     C83447   2.298   7.752   7.085  0.0552  0.0093  0.6175
  633MOL0     O83448   2.365   7.643   7.145  0.5819 -0.2135 -0.4380
  633MOL0     C83449   2.292   7.531   7.194  0.8106  0.4559 -0.2777
  633MOL0     C83450   2.369   7.462   7.291  0.3579  0.5228  0.1456
  633MOL0     C83451   2.320   7.352   7.367  0.0452  0.0855 -0.1293
  633MOL0     C83452   2.184   7.308   7.332 -0.9137  0.6807 -0.2714
  633MOL0     C83453   2.148   7.173   7.386  0.3485 -0.2941 -0.9645
  633MOL0     O83454   2.219   7.134   7.499  0.5281 -0.1526 -0.2532
  633MOL0     C83455   2.176   7.016   7.556  0.4587  0.0964  0.6967
  633MOL0     C83456   2.257   6.903   7.562 -0.5715  0.0088 -0.1578
  633MOL0     C83457   2.219   6.777   7.616 -0.3423 -0.4472 -1.0983
  633MOL0     C83458   2.092   6.760   7.674  0.0938  0.0318 -0.4572
  633MOL0     O83459   2.035   6.641   7.723  0.4415  0.2174  0.3672
  633MOL0     C83460   2.121   6.526   7.738  0.0943  0.7911  0.3459
  633MOL0     C83461   2.038   6.405   7.795  0.6266  0.6872  0.3679
  633MOL0     C83462   1.924   6.372   7.692  0.5298 -0.2828  0.1326
  633MOL0     C83463   1.851   6.236   7.722  0.0335  0.3920  0.8775
  633MOL0     C83464   1.780   6.255   7.856 -0.2909 -0.6063  0.5320
  633MOL0     C83465   1.684   6.375   7.871 -0.1247 -0.3400  0.0092
  633MOL0     C83466   1.591   6.397   7.746  0.4445  0.5247  0.1680
  633MOL0     C83467   1.533   6.536   7.742 -0.1024  0.0966 -0.1017
  633MOL0    Cl83468   1.436   6.564   7.597  0.5392  0.2626  0.2703
  633MOL0     C83469   2.014   6.877   7.676  0.2560  1.4689  0.2466
  633MOL0     C83470   2.052   6.999   7.623  1.3662  0.0094 -0.7287
  633MOL0     O83471   2.053   7.120   7.338 -0.7624  0.1540 -0.7114
  633MOL0     C83472   2.107   7.386   7.245  0.2161  0.3265 -0.3351
  633MOL0     C83473   2.155   7.500   7.186 -0.1230  0.1656  0.4696
  633MOL0     N83474   2.448   7.999   6.760 -0.1111 -0.6901  0.6233
  633MOL0     N83475   2.429   8.112   6.693  0.3263 -0.2155  0.0069
  633MOL0     C83476   3.223   9.319   6.587 -0.1830 -0.3855 -0.1875
  633MOL0     C83477   3.351   9.363   6.587  0.1232 -0.2049  1.1297
  633MOL0     C83478   3.822   9.335   6.546  0.0894  1.0894 -0.4218
  633MOL0     C83479   3.817   9.457   6.481 -0.5072 -0.1997  0.3878
  633MOL0     C83480   3.934   9.519   6.449 -0.2059 -1.1344  0.6163
  633MOL0     C83481   4.060   9.459   6.453  0.3523  0.2771  0.0961
  633MOL0     O83482   4.176   9.515   6.408  0.3991 -0.0567 -0.2150
  633MOL0     C83483   4.229   9.452   6.288  0.0857  0.1714 -0.3948
  633MOL0     C83484   4.281   9.567   6.202  0.2704 -0.2191 -0.4490
  633MOL0     C83485   4.356   9.519   6.082 -0.3766 -0.1763  0.7791
  633MOL0     C83486   4.416   9.632   5.990 -0.4628  0.6827  0.4530
  633MOL0     C83487   4.498   9.728   6.060 -0.7258 -0.6416 -0.1032
  633MOL0     C83488   4.590   9.790   6.118 -0.4193  0.6553  0.0706
  633MOL0     C83489   4.059   9.331   6.505 -0.4821 -0.4953 -0.0602
  633MOL0     C83490   3.952   9.271   6.564 -0.0937  0.3615  0.4521
  633MOL0     H83491   3.509   9.071   6.523 -2.9405 -4.8671  3.3059
  633MOL0     H83492   3.278   8.988   6.518 -1.0024  0.6013  0.2849
  633MOL0     H83493   3.071   8.949   6.615 -2.4112  0.1296  0.4455
  633MOL0     H83494   3.041   8.979   6.453  0.9610 -0.2291 -0.8741
  633MOL0     H83495   2.803   9.031   6.524 -1.2466 -2.1097 -1.0424
  633MOL0     H83496   2.870   9.050   6.697 -1.9102 -2.2295  0.9491
  633MOL0     H83497   2.912   8.820   6.704 -0.5320  2.2111  2.4647
  633MOL0     H83498   2.871   8.796   6.526  0.5812 -0.0446  0.8615
  633MOL0     H83499   2.693   8.856   6.750 -1.7086  1.6051 -1.6527
  633MOL0     H83500   2.643   8.846   6.581  2.1127 -0.6520 -2.8083
  633MOL0     H83501   2.773   8.622   6.756  2.3474 -0.1614 -1.8110
  633MOL0     H83502   2.731   8.600   6.584 -3.8542  0.3403 -1.7591
  633MOL0     H83503   2.486   8.608   6.639 -1.3518  0.9950  1.1096
  633MOL0     H83504   2.512   8.670   6.791 -1.4896  2.4626 -3.1059
  633MOL0     H83505   2.663   8.440   6.827 -1.0285 -0.6245  1.3848
  633MOL0     H83506   2.483   8.452   6.848 -0.3109  0.5314  0.0183
  633MOL0     H83507   2.627   8.338   6.600 -0.0699  0.6694 -0.4523
  633MOL0     H83508   2.464   8.388   6.608  0.5243  2.8957  1.2579
  633MOL0     H83509   2.674   8.209   6.890 -1.4430  1.4312  1.5270
  633MOL0     H83510   2.623   8.036   7.050 -0.3761 -0.0067  0.2363
  633MOL0     H83511   2.705   7.916   6.949  0.3472 -1.2697  1.5966
  633MOL0     H83512   2.567   7.793   7.108  0.3923 -0.0233 -0.4726
  633MOL0     H83513   2.522   7.761   6.940 -1.6298 -0.3942  0.7479
  633MOL0     H83514   2.410   7.932   7.151  3.3071 -2.5315  0.9775
  633MOL0     H83515   2.339   7.939   6.986 -1.3412  0.2003 -0.7149
  633MOL0     H83516   2.267   7.718   6.986  0.0469  1.3699  0.1324
  633MOL0     H83517   2.206   7.784   7.134 -0.3382  1.0712 -0.7462
  633MOL0     H83518   2.475   7.481   7.302  0.2705  0.3129  1.4931
  633MOL0     H83519   2.383   7.290   7.429 -2.0023 -1.2445  0.7475
  633MOL0     H83520   2.358   6.895   7.522 -0.9366  1.5068 -1.4913
  633MOL0     H83521   2.292   6.697   7.610 -0.2900 -0.3903 -1.2043
  633MOL0     H83522   2.196   6.569   7.805  0.1995  0.1856  0.6215
  633MOL0     H83523   2.168   6.494   7.644 -1.2406 -0.3972  0.0507
  633MOL0     H83524   2.002   6.446   7.890 -2.7773  1.4788 -1.0953
  633MOL0     H83525   2.100   6.317   7.814 -1.1226 -0.4374  1.1201
  633MOL0     H83526   1.968   6.356   7.593  1.7139 -1.5468  0.8330
  633MOL0     H83527   1.861   6.461   7.689 -0.1237 -0.7379 -2.1931
  633MOL0     H83528   1.772   6.222   7.647 -3.2977  0.7343  4.0024
  633MOL0     H83529   1.922   6.154   7.722 -0.7883 -0.3551  1.8366
  633MOL0     H83530   1.852   6.252   7.939  0.0742  0.0963  0.2501
  633MOL0     H83531   1.723   6.163   7.869  0.9646 -1.3310  1.0805
  633MOL0     H83532   1.730   6.473   7.887  1.2096 -0.6846 -1.4783
  633MOL0     H83533   1.626   6.351   7.960 -0.1242 -0.4947 -0.0319
  633MOL0     H83534   1.655   6.398   7.657  1.3795  1.4191  0.8231
  633MOL0     H83535   1.513   6.320   7.750 -1.2915  2.2140  0.1799
  633MOL0     H83536   1.614   6.610   7.742  1.5466 -1.6059 -1.3073
  633MOL0     H83537   1.470   6.553   7.830 -1.3790 -3.3163 -0.2326
  633MOL0     H83538   1.911   6.870   7.712 -0.2674  1.5477 -1.1981
  633MOL0     H83539   1.988   7.086   7.624  0.6163 -0.5341 -0.1852
  633MOL0     H83540   2.002   7.360   7.234  0.1768  0.2066  0.2958
  633MOL0     H83541   2.092   7.561   7.121 -1.1122  2.0297  3.0274
  633MOL0     H83542   3.133   9.378   6.590 -2.6375 -3.8216 -0.5804
  633MOL0     H83543   3.359   9.471   6.588 -2.1516  0.1221 -1.7323
  633MOL0     H83544   3.725   9.511   6.461  0.1513  0.5691 -0.6114
  633MOL0     H83545   3.910   9.617   6.408  1.6795 -0.1869  1.6836
  633MOL0     H83546   4.156   9.392   6.233  0.4868 -0.1932 -0.5378
  633MOL0     H83547   4.309   9.388   6.327  0.9604  1.6460  0.3185
  633MOL0     H83548   4.201   9.633   6.167  0.7106  1.0014  0.7551
  633MOL0     H83549   4.347   9.631   6.262 -1.0849  0.4994  0.3098
  633MOL0     H83550   4.300   9.448   6.020  3.0277 -1.1555 -1.4608
  633MOL0     H83551   4.442   9.458   6.110  0.1510 -0.3282 -1.0675
  633MOL0     H83552   4.472   9.582   5.911  1.8149  1.8205  1.2735
  633MOL0     H83553   4.335   9.692   5.947  1.5214  2.2264 -1.2872
  633MOL0     H83554   4.667   9.849   6.162  2.0388 -0.3381 -2.6122
  633MOL0     H83555   4.157   9.288   6.525  1.1164  3.3517  1.4608
  633MOL0     H83556   3.958   9.180   6.623 -0.0096 -1.2484 -1.9401
  634MOL0     O83557   4.116   0.472  10.600 -0.7106  0.0642  0.1730
  634MOL0     C83558   4.211   0.407  10.550 -0.5885  0.2395 -0.7671
  634MOL0     O83559   4.204   0.298  10.486 -0.0158 -0.6259 -0.3263
  634MOL0     C83560   4.089   0.227  10.476 -1.2462  0.3352 -0.2145
  634MOL0     C83561   4.092   0.091  10.474  0.0420  0.6584 -0.2733
  634MOL0     C83562   3.972   0.012  10.471  0.1017 -1.0732  0.0830
  634MOL0     C83563   3.844   0.069  10.479 -0.1446  0.1705  0.3229
  634MOL0     O83564   3.719   0.016  10.478 -0.7121 -0.4997  0.4889
  634MOL0     C83565   3.708  -0.123  10.452  0.4136 -0.2965  0.3191
  634MOL0     C83566   3.558  -0.172  10.448  0.5620 -0.8262  0.2651
  634MOL0     C83567   3.496  -0.151  10.591  0.1411 -0.5921  0.0705
  634MOL0     C83568   3.344  -0.181  10.601  0.4591  0.8517 -0.0640
  634MOL0     C83569   3.290  -0.316  10.550  0.5796  0.6800  0.1806
  634MOL0     C83570   3.322  -0.440  10.647  0.6164 -0.0372  0.2987
  634MOL0     C83571   3.261  -0.433  10.789  0.2896  0.6215  0.1122
  634MOL0     C83572   3.244  -0.574  10.855 -1.1505  0.3319 -0.3928
  634MOL0     N83573   3.141  -0.549  10.957 -0.6854 -0.0758 -0.5650
  634MOL0     C83574   3.160  -0.533  11.090  0.8046 -0.1765 -0.4725
  634MOL0     C83575   3.029  -0.520  11.139 -0.5162 -0.3634 -0.3258
  634MOL0     C83576   3.001  -0.512  11.281  0.5797 -0.5370  0.0152
  634MOL0     C83577   3.067  -0.383  11.333  0.5326 -0.5272 -0.2646
  634MOL0     C83578   3.071  -0.370  11.482  0.6523  0.1011  0.3600
  634MOL0     C83579   2.929  -0.364  11.546 -0.9280 -0.0682 -0.6655
  634MOL0     O83580   2.866  -0.493  11.565 -0.1880 -0.0004 -0.9001
  634MOL0     C83581   2.759  -0.498  11.656  0.5651  0.1137 -0.5369
  634MOL0     C83582   2.695  -0.388  11.712 -0.0290 -0.3960  0.3528
  634MOL0     C83583   2.588  -0.407  11.806  0.4730  0.2871 -0.0176
  634MOL0     C83584   2.541  -0.535  11.836  0.0098  0.6247  0.9648
  634MOL0     C83585   2.434  -0.558  11.933  0.1244  0.0125  0.1443
  634MOL0     O83586   2.396  -0.459  12.022 -0.2159 -0.0713  0.2987
  634MOL0     C83587   2.300  -0.489  12.108  0.2569 -0.1761 -0.3370
  634MOL0     C83588   2.192  -0.406  12.124  0.4016  0.4981 -0.7566
  634MOL0     C83589   2.097  -0.425  12.219 -0.2066 -0.4263  0.6292
  634MOL0     C83590   2.105  -0.539  12.302 -0.9872 -0.4283  0.0523
  634MOL0     O83591   2.013  -0.550  12.405  0.4404 -0.0704 -0.2882
  634MOL0     C83592   1.889  -0.598  12.351 -0.1797  0.6408  0.4081
  634MOL0     C83593   1.800  -0.655  12.460  0.0693  0.1203  0.3545
  634MOL0     C83594   1.734  -0.542  12.537 -0.5409  0.1166 -0.8742
  634MOL0     C83595   1.621  -0.589  12.628  0.8389  0.6887 -0.2443
  634MOL0     C83596   1.586  -0.482  12.739 -0.1065 -0.2579  0.0107
  634MOL0     C83597   1.475  -0.521  12.845 -0.0701  0.3387  0.4430
  634MOL0     C83598   1.343  -0.568  12.775  0.3053 -0.0933  0.6253
  634MOL0     C83599   1.236  -0.584  12.878 -0.2095 -0.3426 -0.1136
  634MOL0    Cl83600   1.247  -0.744  12.955  0.0765  0.2101  0.4109
  634MOL0     C83601   2.223  -0.614  12.293 -0.1074  0.2613  0.4925
  634MOL0     C83602   2.321  -0.599  12.197  1.0691 -0.9102  0.7322
  634MOL0     O83603   2.384  -0.669  11.928 -0.3760  0.0926  0.8181
  634MOL0     C83604   2.598  -0.643  11.764 -0.5399 -0.5946  0.4660
  634MOL0     C83605   2.705  -0.622  11.681 -0.2843  0.0005 -0.4669
  634MOL0     N83606   2.942  -0.548  11.033  0.5480 -0.5145  0.4514
  634MOL0     N83607   3.012  -0.574  10.934  0.4956  0.1775  0.1517
  634MOL0     C83608   3.839   0.205  10.474 -0.0916  0.0531 -0.2944
  634MOL0     C83609   3.955   0.285  10.464 -0.5575 -0.2798 -0.3582
  634MOL0     C83610   4.342   0.471  10.548  1.0503 -0.0159  0.3004
  634MOL0     C83611   4.448   0.409  10.472 -0.1404 -0.1579 -0.9083
  634MOL0     C83612   4.560   0.494  10.443  0.0416  0.3179 -0.0655
  634MOL0     C83613   4.580   0.623  10.504  0.3577 -0.1045  1.1460
  634MOL0     O83614   4.705   0.688  10.473  0.0560 -0.3948 -1.1417
  634MOL0     C83615   4.754   0.765  10.587 -0.9237  0.9215  0.2563
  634MOL0     C83616   4.907   0.750  10.598 -0.5328  0.2528  0.5279
  634MOL0     C83617   4.978   0.818  10.478  0.2114 -0.3316  0.3868
  634MOL0     C83618   5.123   0.805  10.465 -0.2277  0.2421 -0.3885
  634MOL0     C83619   5.154   0.885  10.347 -0.4138  0.4151  0.1157
  634MOL0     C83620   5.164   0.932  10.241 -0.0344 -0.3086 -0.7412
  634MOL0     C83621   4.474   0.666  10.588 -0.5369 -0.3745 -0.4658
  634MOL0     C83622   4.354   0.597  10.608  0.0031 -0.2118  0.5952
  634MOL0     H83623   4.186   0.038  10.468  0.0369  0.7242 -1.1173
  634MOL0     H83624   3.973  -0.097  10.478  1.0693 -1.0573  0.4208
  634MOL0     H83625   3.753  -0.168  10.541  0.1244 -2.9423 -0.7820
  634MOL0     H83626   3.753  -0.150  10.357 -0.3335 -0.0133 -0.1277
  634MOL0     H83627   3.559  -0.280  10.432  0.4373 -0.7402 -0.3607
  634MOL0     H83628   3.497  -0.121  10.373  1.0908 -3.0917 -1.8444
  634MOL0     H83629   3.514  -0.052  10.634 -1.6420 -0.6725  1.1015
  634MOL0     H83630   3.548  -0.223  10.655  0.2495 -0.6842 -0.1210
  634MOL0     H83631   3.314  -0.167  10.705 -1.2200 -2.2366  0.0021
  634MOL0     H83632   3.297  -0.101  10.544  1.2295 -0.4007 -2.6104
  634MOL0     H83633   3.336  -0.340  10.453 -0.7753  3.1888 -1.1824
  634MOL0     H83634   3.184  -0.315  10.522  1.0795  1.4786 -1.8413
  634MOL0     H83635   3.428  -0.434  10.670  0.1283  2.3112  2.3560
  634MOL0     H83636   3.299  -0.536  10.601 -0.0587  0.2855 -0.0536
  634MOL0     H83637   3.329  -0.380  10.856  1.9280 -1.7623  0.4402
  634MOL0     H83638   3.159  -0.393  10.784 -0.7093 -1.3168  2.4857
  634MOL0     H83639   3.329  -0.616  10.910  1.9095  0.9975 -4.2171
  634MOL0     H83640   3.206  -0.642  10.778 -2.2345 -0.1501  0.5330
  634MOL0     H83641   3.255  -0.529  11.143  0.6220 -1.6006  0.0115
  634MOL0     H83642   3.027  -0.606  11.332  1.9276 -0.5820 -0.7305
  634MOL0     H83643   2.892  -0.504  11.286  0.6204 -0.5686  1.5963
  634MOL0     H83644   3.018  -0.290  11.301  2.7975  2.2467  3.4989
  634MOL0     H83645   3.168  -0.377  11.291  1.5873 -0.3495  2.1324
  634MOL0     H83646   3.122  -0.458  11.521  1.5910 -1.5995 -4.1170
  634MOL0     H83647   3.130  -0.285  11.518  3.3152 -2.2691  1.9654
  634MOL0     H83648   2.873  -0.300  11.477  0.8263 -0.5498 -2.6765
  634MOL0     H83649   2.949  -0.321  11.644 -0.3073  1.0011 -1.2354
  634MOL0     H83650   2.723  -0.287  11.683 -2.3947 -0.2280 -1.6739
  634MOL0     H83651   2.545  -0.326  11.865  3.6051  1.9441  0.2388
  634MOL0     H83652   2.176  -0.315  12.066  1.9051  1.8557  0.8304
  634MOL0     H83653   2.010  -0.359  12.224  1.5715  2.2356 -0.8920
  634MOL0     H83654   1.910  -0.677  12.278  0.4011 -0.7316  1.9806
  634MOL0     H83655   1.832  -0.521  12.298 -2.2047 -0.6375  0.6119
  634MOL0     H83656   1.862  -0.721  12.520  0.6375  0.9155  0.6664
  634MOL0     H83657   1.715  -0.705  12.413  0.8583  1.3947 -2.7080
  634MOL0     H83658   1.689  -0.476  12.462 -1.2887  1.3643  0.5985
  634MOL0     H83659   1.806  -0.490  12.601 -1.5971  0.6866 -0.1030
  634MOL0     H83660   1.531  -0.612  12.570  0.1887 -0.8087  1.2559
  634MOL0     H83661   1.654  -0.687  12.665  1.1751  1.5074  1.7991
  634MOL0     H83662   1.562  -0.388  12.690  1.4188 -0.5540 -1.3926
  634MOL0     H83663   1.670  -0.457  12.805 -0.6517  1.1069  0.2181
  634MOL0     H83664   1.445  -0.445  12.917  1.3184  0.6747  0.6986
  634MOL0     H83665   1.515  -0.599  12.911 -1.5854 -0.2763  0.6648
  634MOL0     H83666   1.310  -0.486  12.711 -0.1819 -0.6375  0.1639
  634MOL0     H83667   1.362  -0.660  12.719  2.0430  0.7080 -0.1879
  634MOL0     H83668   1.139  -0.563  12.832  0.4385  1.9819 -0.5602
  634MOL0     H83669   1.244  -0.504  12.952  0.8302 -0.3489 -0.2134
  634MOL0     H83670   2.227  -0.702  12.357  1.7043 -0.5336 -0.6471
  634MOL0     H83671   2.406  -0.666  12.190  2.1810  0.6104 -2.7630
  634MOL0     H83672   2.555  -0.742  11.767 -0.5789 -0.9121 -4.1238
  634MOL0     H83673   2.754  -0.707  11.635 -2.4675 -1.2931 -0.5618
  634MOL0     H83674   3.743   0.255  10.485  0.2221  0.3275  1.6815
  634MOL0     H83675   3.937   0.392  10.465  1.7894  0.1733  0.8236
  634MOL0     H83676   4.444   0.303  10.451 -1.0059  0.1304 -2.3598
  634MOL0     H83677   4.625   0.451  10.368 -1.3467 -0.6610 -0.7389
  634MOL0     H83678   4.713   0.720  10.677 -2.7609 -2.1625 -1.9348
  634MOL0     H83679   4.716   0.867  10.571 -1.3405  0.4071 -2.6083
  634MOL0     H83680   4.932   0.802  10.691 -4.0859 -0.5103  2.1079
  634MOL0     H83681   4.939   0.648  10.619  1.5442  0.9233  0.8980
  634MOL0     H83682   4.949   0.921  10.500 -0.7290 -0.7263  0.9902
  634MOL0     H83683   4.932   0.796  10.381  1.1785  1.9800 -0.6766
  634MOL0     H83684   5.179   0.834  10.555  0.4419 -2.9477  0.3690
  634MOL0     H83685   5.156   0.701  10.457 -0.8018  0.0718 -0.5570
  634MOL0     H83686   5.174   0.965  10.139  1.0551 -1.5943 -1.0878
  634MOL0     H83687   4.486   0.750  10.655 -2.5874 -1.8839  1.9604
  634MOL0     H83688   4.282   0.626  10.684  1.3853  0.8334  1.5566
  635MOL0     O83689   7.976   1.582   2.013 -0.1937  0.3484 -1.2598
  635MOL0     C83690   7.981   1.703   2.024  0.7379 -0.4270 -0.1682
  635MOL0     O83691   7.884   1.788   1.990 -0.4364 -0.5420 -0.7900
  635MOL0     C83692   7.752   1.750   1.995 -1.1258 -0.1263  0.1545
  635MOL0     C83693   7.713   1.659   2.090 -0.7048 -0.1942 -0.0453
  635MOL0     C83694   7.576   1.623   2.104 -0.6863 -0.8457 -0.0685
  635MOL0     C83695   7.473   1.679   2.022  0.5531  0.0082  0.5666
  635MOL0     O83696   7.345   1.642   2.055 -0.4783  0.2220 -0.4574
  635MOL0     C83697   7.239   1.672   1.960  0.7166  0.3717 -1.4320
  635MOL0     C83698   7.103   1.603   2.002  0.8288 -0.2142  0.4143
  635MOL0     C83699   6.992   1.639   1.903  0.6766 -1.1419  0.2162
  635MOL0     C83700   6.860   1.567   1.937 -0.0810  0.0152 -0.3879
  635MOL0     C83701   6.757   1.605   1.832 -0.6190 -0.2383 -0.2745
  635MOL0     C83702   6.621   1.536   1.865  0.1534  0.4077  0.6802
  635MOL0     C83703   6.530   1.542   1.743  0.4622  0.0163  0.1924
  635MOL0     C83704   6.415   1.458   1.792 -0.1479 -0.1425  0.1073
  635MOL0     N83705   6.283   1.519   1.775 -0.2703 -1.2836  0.1107
  635MOL0     C83706   6.246   1.640   1.833  1.2618  0.6008 -0.6193
  635MOL0     C83707   6.116   1.651   1.802 -0.4728 -0.3803  1.2632
  635MOL0     C83708   6.029   1.768   1.838 -0.9969  0.3157 -0.0186
  635MOL0     C83709   5.889   1.735   1.824  0.8207  0.4854  0.1381
  635MOL0     C83710   5.802   1.849   1.869 -0.1571 -0.2536  0.6454
  635MOL0     C83711   5.653   1.848   1.841 -0.0505  0.1013  0.5184
  635MOL0     O83712   5.596   1.756   1.936  0.2916  0.1962  0.0541
  635MOL0     C83713   5.460   1.773   1.953 -0.0184 -0.2626  0.3005
  635MOL0     C83714   5.378   1.861   1.880 -0.2036 -0.0456 -0.5045
  635MOL0     C83715   5.239   1.874   1.908  0.4366  0.2932 -0.2605
  635MOL0     C83716   5.181   1.797   2.015  0.6221 -0.3745  0.0733
  635MOL0     C83717   5.041   1.820   2.066  0.4591  0.3954  1.1197
  635MOL0     O83718   4.976   1.733   2.150 -0.6577 -0.5162 -0.5780
  635MOL0     C83719   4.842   1.737   2.176 -0.6102 -0.4427 -0.2361
  635MOL0     C83720   4.761   1.768   2.070  0.2906  0.2605  0.8420
  635MOL0     C83721   4.622   1.773   2.091 -0.4660 -0.0264  0.6731
  635MOL0     C83722   4.568   1.756   2.213  0.4356 -0.4895 -0.2776
  635MOL0     O83723   4.437   1.753   2.231 -0.0375  0.5219  0.1097
  635MOL0     C83724   4.367   1.873   2.204 -0.1243  0.4933 -0.1469
  635MOL0     C83725   4.214   1.850   2.222  0.3068 -0.0184  0.3964
  635MOL0     C83726   4.156   1.786   2.092 -0.2236 -0.9178 -0.3764
  635MOL0     C83727   4.000   1.797   2.106  0.3040 -0.7305  0.0664
  635MOL0     C83728   3.925   1.722   2.000 -0.4476  0.6669  0.0597
  635MOL0     C83729   3.802   1.789   1.958  0.0473  0.3433 -0.5658
  635MOL0     C83730   3.705   1.791   2.069 -0.2593  0.3095  0.2620
  635MOL0     C83731   3.574   1.858   2.031  0.0542  0.6308  0.4087
  635MOL0    Cl83732   3.598   2.034   2.030 -0.1928 -0.0005 -0.0698
  635MOL0     C83733   4.652   1.721   2.319  0.0723  0.3570 -1.0206
  635MOL0     C83734   4.791   1.712   2.303  0.3104  0.5733  0.1316
  635MOL0     O83735   4.992   1.921   2.018 -0.5202 -0.4334 -0.3116
  635MOL0     C83736   5.256   1.704   2.078 -0.5161  0.7665  1.0055
  635MOL0     C83737   5.393   1.694   2.046 -0.0152 -0.2600  1.1140
  635MOL0     N83738   6.084   1.562   1.706 -0.6297 -0.2462  0.1196
  635MOL0     N83739   6.187   1.481   1.694  0.4049 -0.4818  0.3984
  635MOL0     C83740   7.518   1.771   1.922 -0.8686  0.0280  0.3325
  635MOL0     C83741   7.657   1.807   1.915 -0.7293  0.6801 -0.1042
  635MOL0     C83742   8.114   1.775   2.047 -0.0767  0.7228  0.0271
  635MOL0     C83743   8.157   1.884   1.976  1.4048  0.1107 -0.3100
  635MOL0     C83744   8.284   1.933   1.997 -0.1554  0.0736 -0.0356
  635MOL0     C83745   8.380   1.864   2.076 -0.0617 -0.5728  0.3720
  635MOL0     O83746   8.501   1.925   2.099 -0.4520  0.1564 -0.3101
  635MOL0     C83747   8.612   1.858   2.156 -0.0581  0.0828 -0.1443
  635MOL0     C83748   8.723   1.957   2.195 -0.2355  0.7239  0.3083
  635MOL0     C83749   8.871   1.906   2.186 -0.2296 -0.1898  0.1450
  635MOL0     C83750   8.958   2.033   2.186 -0.0319 -0.8738 -0.2566
  635MOL0     C83751   9.103   2.009   2.197  0.5393 -0.3771  0.1796
  635MOL0     C83752   9.223   1.986   2.199  0.3936  0.7418 -0.0666
  635MOL0     C83753   8.342   1.745   2.131  0.0962  0.8621  0.6908
  635MOL0     C83754   8.213   1.693   2.120  0.4316 -1.4242 -0.5384
  635MOL0     H83755   7.783   1.617   2.162 -0.4327  1.8854  0.9576
  635MOL0     H83756   7.559   1.552   2.185 -3.9720 -2.3440 -1.8680
  635MOL0     H83757   7.264   1.650   1.856 -0.3128 -4.3709 -0.8870
  635MOL0     H83758   7.234   1.781   1.965  2.8534  0.4909 -0.6937
  635MOL0     H83759   7.069   1.629   2.103 -1.3392  1.4954 -0.6778
  635MOL0     H83760   7.121   1.496   1.988 -1.3428 -0.5018 -0.6473
  635MOL0     H83761   7.023   1.609   1.802  0.9972  1.4400 -0.5192
  635MOL0     H83762   6.964   1.744   1.898 -1.1456 -1.6061 -0.1754
  635MOL0     H83763   6.874   1.459   1.929 -2.2881 -0.4382  0.8446
  635MOL0     H83764   6.821   1.583   2.038  0.7870 -2.3348  0.3800
  635MOL0     H83765   6.793   1.577   1.732 -4.4501 -0.3101 -1.8313
  635MOL0     H83766   6.751   1.714   1.825 -2.4129 -0.3434 -0.7925
  635MOL0     H83767   6.572   1.580   1.952  0.2901  1.5735  0.1848
  635MOL0     H83768   6.641   1.430   1.883 -0.3070  0.0413 -0.8060
  635MOL0     H83769   6.495   1.644   1.720  1.8492  0.6485  0.8089
  635MOL0     H83770   6.579   1.500   1.655 -1.3651 -2.1828  0.1251
  635MOL0     H83771   6.413   1.423   1.896 -6.4465  0.5218  0.6275
  635MOL0     H83772   6.420   1.362   1.740 -1.8839 -0.1070 -0.2098
  635MOL0     H83773   6.287   1.717   1.898  0.0701  1.7117 -1.1433
  635MOL0     H83774   6.071   1.850   1.778  1.6936 -0.9389 -0.0039
  635MOL0     H83775   6.060   1.789   1.941  1.9330 -2.1771 -0.2426
  635MOL0     H83776   5.861   1.646   1.881  0.7196 -0.6814 -1.6707
  635MOL0     H83777   5.862   1.720   1.719  0.8455 -0.1956  0.2286
  635MOL0     H83778   5.819   1.852   1.977  0.8449  3.2236  0.5032
  635MOL0     H83779   5.843   1.940   1.826  1.1281 -1.7280 -1.4550
  635MOL0     H83780   5.630   1.829   1.736  1.6960  1.8308 -0.2341
  635MOL0     H83781   5.623   1.946   1.879  0.1493 -0.4769  2.2378
  635MOL0     H83782   5.417   1.925   1.801  1.9878 -0.5482  0.0877
  635MOL0     H83783   5.181   1.952   1.859  2.1580  1.5287 -0.4284
  635MOL0     H83784   4.806   1.782   1.972 -0.7900 -0.8872  0.1630
  635MOL0     H83785   4.555   1.791   2.008 -3.1437 -3.7970  1.7749
  635MOL0     H83786   4.393   1.909   2.104  1.5630 -3.1829 -1.1935
  635MOL0     H83787   4.394   1.946   2.281  1.3826  0.5736 -0.7043
  635MOL0     H83788   4.162   1.945   2.240 -1.8407 -1.0916  0.1568
  635MOL0     H83789   4.191   1.776   2.299  1.6458 -2.3235 -1.2780
  635MOL0     H83790   4.177   1.679   2.092  2.1887 -0.5911  2.9009
  635MOL0     H83791   4.193   1.828   1.997  1.3833 -2.4891 -0.4907
  635MOL0     H83792   3.965   1.748   2.197  0.4514 -0.3240  0.3462
  635MOL0     H83793   3.969   1.902   2.116 -3.0267 -1.7391  1.8072
  635MOL0     H83794   3.903   1.623   2.041  1.3592 -1.1382 -2.9508
  635MOL0     H83795   3.984   1.708   1.909 -0.0251 -0.7051  0.5148
  635MOL0     H83796   3.760   1.735   1.873 -0.4565  1.2561 -0.9202
  635MOL0     H83797   3.820   1.893   1.927  1.8622  0.0619 -0.5503
  635MOL0     H83798   3.677   1.690   2.098 -0.8327  0.4865  0.3458
  635MOL0     H83799   3.750   1.845   2.153 -0.2231  0.9655 -0.1689
  635MOL0     H83800   3.498   1.829   2.104  1.2191 -0.3284  1.3038
  635MOL0     H83801   3.533   1.818   1.938  2.4463  0.4949 -0.6842
  635MOL0     H83802   4.601   1.691   2.410  1.8310  1.1249  0.2838
  635MOL0     H83803   4.854   1.683   2.387  0.5798 -2.1372 -0.9155
  635MOL0     H83804   5.210   1.637   2.150  0.5483 -2.3134 -0.9563
  635MOL0     H83805   5.453   1.620   2.098  2.1163  1.9507  2.0003
  635MOL0     H83806   7.444   1.819   1.858 -2.2601 -2.6439 -0.1842
  635MOL0     H83807   7.689   1.877   1.838 -0.5737 -1.8114 -2.4407
  635MOL0     H83808   8.081   1.925   1.910 -0.5936  1.2320  2.4825
  635MOL0     H83809   8.309   2.024   1.943 -2.9517  0.2874 -1.1363
  635MOL0     H83810   8.651   1.787   2.083 -0.2538  1.9582 -2.1825
  635MOL0     H83811   8.584   1.799   2.244 -0.5469 -0.1237 -0.4331
  635MOL0     H83812   8.715   2.044   2.129  0.9377  0.7565  0.1816
  635MOL0     H83813   8.708   1.995   2.296 -2.8149  0.6087  0.0151
  635MOL0     H83814   8.905   1.851   2.097 -1.0933 -0.2381 -0.1568
  635MOL0     H83815   8.895   1.839   2.269  0.4988 -0.9559 -0.6588
  635MOL0     H83816   8.947   2.094   2.096  0.0795  0.8322  0.8435
  635MOL0     H83817   8.931   2.092   2.274  1.0659  2.5546 -2.0062
  635MOL0     H83818   9.325   1.954   2.203  0.6556  1.5129 -0.3565
  635MOL0     H83819   8.413   1.680   2.181  0.0102 -0.1667 -0.4875
  635MOL0     H83820   8.173   1.597   2.151  0.1275 -0.9879  0.4497
  636MOL0     O83821   0.291   8.233   3.582 -0.3051  0.2587  0.3613
  636MOL0     C83822   0.276   8.354   3.562 -0.1851 -1.2150  0.1162
  636MOL0     O83823   0.159   8.429   3.591 -0.3219  0.1332 -0.2977
  636MOL0     C83824   0.040   8.368   3.611  0.2248 -0.5897 -0.5486
  636MOL0     C83825   0.021   8.252   3.694 -0.0844  0.7933 -0.4237
  636MOL0     C83826  -0.105   8.207   3.722 -0.1441 -0.3222 -0.2249
  636MOL0     C83827  -0.224   8.280   3.679  0.2260 -0.3218 -0.5063
  636MOL0     O83828  -0.356   8.261   3.720  0.1039  0.1857 -0.0905
  636MOL0     C83829  -0.377   8.160   3.821 -0.1394 -0.2637 -0.5571
  636MOL0     C83830  -0.522   8.122   3.838 -0.2281  0.3278  0.0970
  636MOL0     C83831  -0.618   8.238   3.870 -0.5771  0.2497  0.2318
  636MOL0     C83832  -0.737   8.171   3.940  0.3050 -0.8524  0.1442
  636MOL0     C83833  -0.835   8.272   3.978 -0.1245  0.6625  0.0573
  636MOL0     C83834  -0.879   8.362   3.862 -0.0905  0.1839 -0.4470
  636MOL0     C83835  -1.007   8.450   3.900 -0.9060  0.1950 -0.9110
  636MOL0     C83836  -1.136   8.382   3.879 -0.0509  0.2851  0.3157
  636MOL0     N83837  -1.210   8.362   4.006 -0.4798 -0.6080  0.2112
  636MOL0     C83838  -1.259   8.244   4.055 -0.1047  0.3676  1.1825
  636MOL0     C83839  -1.339   8.282   4.152  0.7685  0.5686  0.4313
  636MOL0     C83840  -1.413   8.186   4.248  0.3512  0.0249  0.1807
  636MOL0     C83841  -1.552   8.137   4.204 -0.3674 -0.3905  0.4704
  636MOL0     C83842  -1.625   8.096   4.339  0.0008  0.0052  0.3717
  636MOL0     C83843  -1.747   8.000   4.313 -0.4223  0.4363  1.4601
  636MOL0     O83844  -1.850   8.083   4.252  0.0280 -0.2522  0.2848
  636MOL0     C83845  -1.971   8.027   4.219 -0.0692  0.1996  0.6602
  636MOL0     C83846  -1.988   7.888   4.201 -0.0224  1.0782 -0.5277
  636MOL0     C83847  -2.118   7.847   4.156 -0.5324 -0.1535 -0.3608
  636MOL0     C83848  -2.229   7.924   4.125 -0.1123 -0.4371  0.0621
  636MOL0     C83849  -2.362   7.864   4.081  0.6693  0.5924 -0.2186
  636MOL0     O83850  -2.468   7.939   4.045 -0.4594 -0.6744 -0.4598
  636MOL0     C83851  -2.579   7.884   3.999  1.0602  0.9008 -0.2206
  636MOL0     C83852  -2.669   7.955   3.909 -0.0330  0.3084 -0.2051
  636MOL0     C83853  -2.790   7.907   3.862 -0.0836  0.0200 -0.6459
  636MOL0     C83854  -2.840   7.787   3.919  0.4776  0.8201 -0.8544
  636MOL0     O83855  -2.972   7.750   3.889  0.6157 -0.3002 -0.4762
  636MOL0     C83856  -3.024   7.793   3.762  0.7907 -0.1270 -0.3279
  636MOL0     C83857  -3.149   7.713   3.724  0.5006 -1.3015  0.1832
  636MOL0     C83858  -3.248   7.689   3.833 -0.4711 -0.0424 -1.3798
  636MOL0     C83859  -3.303   7.825   3.893 -0.1022  1.3367 -0.2690
  636MOL0     C83860  -3.431   7.801   3.983  0.1403  0.5549  0.4846
  636MOL0     C83861  -3.567   7.804   3.907 -0.0330  0.2665 -0.9457
  636MOL0     C83862  -3.678   7.739   3.990  0.2942 -0.4730  0.3584
  636MOL0     C83863  -3.815   7.770   3.930  0.0867  0.2304 -0.1747
  636MOL0    Cl83864  -3.938   7.729   4.046 -0.4364  0.2219 -0.5969
  636MOL0     C83865  -2.764   7.714   4.022 -0.0417  1.2069 -0.4785
  636MOL0     C83866  -2.640   7.765   4.058 -0.0684 -0.3313 -0.6974
  636MOL0     O83867  -2.358   7.739   4.082  0.5388  0.2403  0.0859
  636MOL0     C83868  -2.201   8.062   4.131 -0.7401  0.2681 -0.0793
  636MOL0     C83869  -2.074   8.108   4.183  0.3657  1.0076 -0.3172
  636MOL0     N83870  -1.338   8.421   4.160 -0.2227  0.0994  0.1307
  636MOL0     N83871  -1.266   8.470   4.074 -0.2715 -0.2633  0.7069
  636MOL0     C83872  -0.204   8.391   3.594 -0.5480 -0.2561  0.6590
  636MOL0     C83873  -0.074   8.427   3.558 -0.2933 -0.9741  0.6616
  636MOL0     C83874   0.393   8.435   3.508 -0.3775  0.5674 -0.0944
  636MOL0     C83875   0.523   8.370   3.515  0.0684 -0.2886  0.2661
  636MOL0     C83876   0.640   8.429   3.466  0.1536 -0.5728  0.1856
  636MOL0     C83877   0.638   8.559   3.411  0.1057 -0.7547  0.3815
  636MOL0     O83878   0.750   8.611   3.356 -0.6309 -0.1364  0.1383
  636MOL0     C83879   0.785   8.737   3.411  1.2680 -0.8019  0.1799
  636MOL0     C83880   0.901   8.787   3.336  0.0293 -0.0470 -0.7541
  636MOL0     C83881   0.888   8.804   3.178 -0.1209 -0.1985 -0.3547
  636MOL0     C83882   0.955   8.925   3.120  0.4511  0.8385  0.5511
  636MOL0     C83883   1.097   8.902   3.117  0.3008 -0.4395 -0.4497
  636MOL0     C83884   1.207   8.871   3.102  0.3399  0.6247  1.2487
  636MOL0     C83885   0.507   8.616   3.405  0.3851 -0.7082 -0.1957
  636MOL0     C83886   0.387   8.559   3.450  0.4716  0.3287  0.0003
  636MOL0     H83887   0.100   8.203   3.751 -0.9588  1.6947  1.6579
  636MOL0     H83888  -0.120   8.125   3.792 -0.2013 -1.4437 -1.4881
  636MOL0     H83889  -0.340   8.203   3.914 -3.2737  1.7046 -0.0644
  636MOL0     H83890  -0.315   8.074   3.796  3.0947  2.0520 -1.0244
  636MOL0     H83891  -0.526   8.039   3.908  0.3638  0.5661  0.4170
  636MOL0     H83892  -0.561   8.083   3.743  0.4741  2.6056 -1.2299
  636MOL0     H83893  -0.648   8.278   3.773  3.1148 -1.6852 -1.9377
  636MOL0     H83894  -0.577   8.308   3.944  1.2185 -1.8627  1.3839
  636MOL0     H83895  -0.790   8.099   3.877 -1.8899 -1.0800  2.1284
  636MOL0     H83896  -0.694   8.128   4.031  2.8554  1.2612  0.0641
  636MOL0     H83897  -0.791   8.322   4.065  0.1678 -1.2321  1.0557
  636MOL0     H83898  -0.928   8.228   4.015 -0.0341  1.2577  1.0220
  636MOL0     H83899  -0.896   8.307   3.769  0.2624 -1.3135  0.3239
  636MOL0     H83900  -0.787   8.418   3.844  3.0530 -4.4176 -0.5724
  636MOL0     H83901  -1.003   8.470   4.008 -3.0189 -1.0087 -0.5660
  636MOL0     H83902  -1.008   8.540   3.838 -2.4306  0.8002 -0.0602
  636MOL0     H83903  -1.118   8.286   3.830 -1.0794 -0.0358  0.5624
  636MOL0     H83904  -1.192   8.442   3.806  1.4316 -0.0803 -1.1927
  636MOL0     H83905  -1.242   8.145   4.015  2.7130  1.0235  0.5695
  636MOL0     H83906  -1.421   8.245   4.340 -1.0760 -0.0298  0.1007
  636MOL0     H83907  -1.349   8.099   4.262 -0.1878 -0.5587 -0.8568
  636MOL0     H83908  -1.544   8.049   4.140  2.1952 -1.8386  2.5823
  636MOL0     H83909  -1.611   8.208   4.145  0.9662  0.2565 -0.1385
  636MOL0     H83910  -1.555   8.041   4.402  0.7514 -0.9012 -1.2106
  636MOL0     H83911  -1.661   8.181   4.398  1.6753  2.5202 -2.0189
  636MOL0     H83912  -1.780   7.958   4.409 -0.0271  1.4312  2.0514
  636MOL0     H83913  -1.727   7.917   4.245 -0.0478 -0.4571  2.6214
  636MOL0     H83914  -1.911   7.812   4.196  0.5173  1.5719  0.1760
  636MOL0     H83915  -2.120   7.743   4.124 -0.8405  0.0820 -1.1476
  636MOL0     H83916  -2.634   8.051   3.875 -1.4285  0.8567 -0.1494
  636MOL0     H83917  -2.843   7.978   3.799 -1.6386  0.2805  0.8894
  636MOL0     H83918  -2.946   7.769   3.689  1.1098  0.9128 -0.3413
  636MOL0     H83919  -3.050   7.899   3.756 -0.6746 -0.2963  1.9836
  636MOL0     H83920  -3.107   7.616   3.696  1.9912 -0.9219  0.9855
  636MOL0     H83921  -3.204   7.764   3.644 -1.4430 -0.2884  2.0573
  636MOL0     H83922  -3.206   7.627   3.913 -0.8372  1.0955 -0.2803
  636MOL0     H83923  -3.323   7.626   3.784  0.1323 -1.8275 -0.1457
  636MOL0     H83924  -3.232   7.853   3.972 -1.3757  1.3051  0.9250
  636MOL0     H83925  -3.321   7.904   3.819 -1.2626  0.4396 -0.9695
  636MOL0     H83926  -3.428   7.881   4.057 -1.1167  1.9693 -0.8969
  636MOL0     H83927  -3.423   7.708   4.040  0.1152 -0.2747 -0.8174
  636MOL0     H83928  -3.561   7.745   3.816  0.3430  0.7803 -1.2608
  636MOL0     H83929  -3.582   7.911   3.887  1.7085  2.2363  5.6014
  636MOL0     H83930  -3.650   7.634   4.004 -2.2379 -1.1081  1.1408
  636MOL0     H83931  -3.679   7.782   4.090  2.4415 -0.3062  0.3572
  636MOL0     H83932  -3.824   7.722   3.833  2.5460  0.5987 -0.6624
  636MOL0     H83933  -3.831   7.875   3.904  1.7302  0.1378 -1.7772
  636MOL0     H83934  -2.793   7.630   4.084  0.6542  1.1456 -0.2194
  636MOL0     H83935  -2.589   7.722   4.144 -2.0024 -0.2805  0.5173
  636MOL0     H83936  -2.278   8.134   4.107 -1.3642  0.4714  2.3029
  636MOL0     H83937  -2.060   8.216   4.189 -0.3282  1.0890 -0.0067
  636MOL0     H83938  -0.284   8.442   3.543  2.4592  0.5480 -3.7906
  636MOL0     H83939  -0.055   8.514   3.496 -1.3367 -0.8021  0.5627
  636MOL0     H83940   0.536   8.274   3.564  0.6117 -0.6891 -0.6516
  636MOL0     H83941   0.740   8.386   3.470  2.1439  3.4854 -0.1593
  636MOL0     H83942   0.817   8.716   3.513 -2.2989 -0.1698  1.5651
  636MOL0     H83943   0.699   8.804   3.411  3.3027  1.9861  0.2927
  636MOL0     H83944   0.930   8.878   3.388 -2.6806  1.3744 -1.5374
  636MOL0     H83945   0.984   8.717   3.353 -0.4180 -0.1670  1.1088
  636MOL0     H83946   0.781   8.821   3.162 -0.4395 -0.4091  1.3910
  636MOL0     H83947   0.926   8.710   3.135  0.3057 -1.2683  2.2065
  636MOL0     H83948   0.927   8.935   3.015  3.3558  0.4509 -0.3554
  636MOL0     H83949   0.931   9.017   3.175 -3.0265  0.2589  0.2217
  636MOL0     H83950   1.306   8.834   3.083 -0.5352 -0.6164 -1.3509
  636MOL0     H83951   0.482   8.706   3.349  0.3991 -1.9637 -2.3128
  636MOL0     H83952   0.294   8.612   3.433  1.0358  0.7110 -2.2765
  637MOL0     O83953   7.065   7.139   3.731 -0.1445  0.6788  0.7649
  637MOL0     C83954   7.079   7.195   3.621 -0.3435 -0.0350  0.3806
  637MOL0     O83955   6.991   7.281   3.567 -0.1621  0.6141  0.2267
  637MOL0     C83956   6.878   7.301   3.640 -0.2493 -0.2596  0.0774
  637MOL0     C83957   6.869   7.418   3.723 -0.7544 -0.4340 -0.0759
  637MOL0     C83958   6.747   7.439   3.790 -0.1513  0.1416  0.2006
  637MOL0     C83959   6.645   7.344   3.794 -0.7539 -0.9157 -0.2501
  637MOL0     O83960   6.544   7.374   3.887  0.4874 -0.2118 -0.2425
  637MOL0     C83961   6.423   7.300   3.879  0.5532 -0.0358 -0.5351
  637MOL0     C83962   6.335   7.359   3.994  0.5254  0.2284 -0.4252
  637MOL0     C83963   6.187   7.325   3.971 -0.5022  0.6456 -0.3015
  637MOL0     C83964   6.161   7.167   3.988 -0.7952 -0.2212 -0.0753
  637MOL0     C83965   6.019   7.117   3.960  0.2241  0.0331 -0.6466
  637MOL0     C83966   5.908   7.181   4.045 -0.2962  0.0001 -0.5328
  637MOL0     C83967   5.782   7.101   4.034  0.6001  0.3502 -0.2099
  637MOL0     C83968   5.714   7.118   3.893  0.6673  0.7699  0.0496
  637MOL0     N83969   5.575   7.089   3.932  0.2301 -0.2806  0.2739
  637MOL0     C83970   5.537   6.962   3.983  0.4784 -0.7475  1.1257
  637MOL0     C83971   5.407   6.977   4.012  1.2708 -0.8999 -0.3245
  637MOL0     C83972   5.310   6.867   4.051  0.6684 -0.8953 -0.0657
  637MOL0     C83973   5.302   6.752   3.952  0.5325  0.1375 -0.6958
  637MOL0     C83974   5.228   6.782   3.827 -0.2750  0.2842 -0.4599
  637MOL0     C83975   5.207   6.642   3.757 -0.4423 -0.0540 -0.5454
  637MOL0     O83976   5.107   6.554   3.820  0.2523  0.8360  0.0459
  637MOL0     C83977   4.974   6.578   3.786  0.2899 -0.1303 -0.3120
  637MOL0     C83978   4.924   6.671   3.692  0.2008 -0.4995  0.1986
  637MOL0     C83979   4.783   6.682   3.682  0.0608 -1.4912  0.8120
  637MOL0     C83980   4.698   6.607   3.769 -0.0803  0.1943  0.2083
  637MOL0     C83981   4.551   6.609   3.762 -0.0120 -1.1123 -2.1736
  637MOL0     O83982   4.477   6.552   3.860 -0.0143 -0.3596  0.8267
  637MOL0     C83983   4.341   6.542   3.856  0.3024 -0.0648  0.3359
  637MOL0     C83984   4.281   6.556   3.981 -0.6626 -0.2592  0.0551
  637MOL0     C83985   4.142   6.552   3.993  0.7243 -1.5295  0.4416
  637MOL0     C83986   4.062   6.539   3.881 -0.3231  0.4235  0.0035
  637MOL0     O83987   3.922   6.530   3.893  0.1842 -0.3087  0.1775
  637MOL0     C83988   3.847   6.498   3.776 -0.1363  0.0770 -0.2046
  637MOL0     C83989   3.701   6.465   3.795  0.4026 -0.0339 -0.0327
  637MOL0     C83990   3.633   6.436   3.663  0.3225  0.0437  0.7268
  637MOL0     C83991   3.493   6.397   3.681  0.4189  0.1247  0.1004
  637MOL0     C83992   3.405   6.329   3.567  0.0085 -0.0974 -1.7865
  637MOL0     C83993   3.256   6.346   3.607  0.3265  0.1516 -0.0062
  637MOL0     C83994   3.167   6.279   3.493  0.2272 -0.2852 -0.1776
  637MOL0     C83995   3.017   6.296   3.527  0.5827 -0.6554  0.0930
  637MOL0    Cl83996   2.937   6.233   3.383  0.1751 -0.5261 -0.5903
  637MOL0     C83997   4.119   6.527   3.749 -0.1044 -0.1341 -0.2818
  637MOL0     C83998   4.260   6.520   3.744 -0.1934  0.2664 -0.1465
  637MOL0     O83999   4.505   6.664   3.664  0.3408  0.5573 -0.0400
  637MOL0     C84000   4.755   6.525   3.860  0.0779 -0.1958  0.1281
  637MOL0     C84001   4.889   6.515   3.881 -0.5350 -0.9271  0.8775
  637MOL0     N84002   5.364   7.104   3.988  0.3090  0.3480 -0.2157
  637MOL0     N84003   5.467   7.176   3.937  0.2012  0.5606  0.7380
  637MOL0     C84004   6.655   7.231   3.708  0.0557 -0.8377 -0.1281
  637MOL0     C84005   6.766   7.223   3.626 -1.5116  0.2393 -0.5685
  637MOL0     C84006   7.196   7.169   3.535  1.2966 -0.7037  0.4549
  637MOL0     C84007   7.206   7.218   3.402  0.0014  0.1697  0.9746
  637MOL0     C84008   7.302   7.165   3.310  0.2305  0.7499  0.1040
  637MOL0     C84009   7.406   7.088   3.357  0.1482  0.3915 -0.5578
  637MOL0     O84010   7.512   7.051   3.265 -0.2511 -0.1227 -0.4947
  637MOL0     C84011   7.611   6.946   3.293  0.2817  0.4110 -0.0644
  637MOL0     C84012   7.722   7.004   3.379 -0.4371  0.3760  0.0005
  637MOL0     C84013   7.818   6.891   3.412 -0.1665  0.7533 -0.1985
  637MOL0     C84014   7.774   6.797   3.526 -0.5521 -0.2963  0.1279
  637MOL0     C84015   7.778   6.872   3.651 -0.7288 -0.3813 -0.3110
  637MOL0     C84016   7.761   6.932   3.752 -0.3767  0.1107 -0.4379
  637MOL0     C84017   7.396   7.042   3.489  0.2122 -0.0150 -0.2144
  637MOL0     C84018   7.291   7.081   3.577 -0.4679 -0.2072 -0.4842
  637MOL0     H84019   6.949   7.492   3.720  0.3360 -1.5241  0.8651
  637MOL0     H84020   6.740   7.526   3.855 -2.2217 -0.6269  1.0971
  637MOL0     H84021   6.436   7.195   3.909 -4.8776 -0.8676 -0.0589
  637MOL0     H84022   6.387   7.306   3.776  0.5958 -2.1227 -0.7251
  637MOL0     H84023   6.349   7.467   3.990 -2.4438  0.6858 -3.0002
  637MOL0     H84024   6.367   7.320   4.091  0.3614 -0.9851 -0.8440
  637MOL0     H84025   6.164   7.350   3.867 -0.9175  0.2353 -0.3106
  637MOL0     H84026   6.123   7.376   4.043 -2.0278 -0.9171 -0.4864
  637MOL0     H84027   6.217   7.108   3.915 -0.6642  0.8585 -0.8701
  637MOL0     H84028   6.188   7.132   4.088  0.5084  1.5622  0.2501
  637MOL0     H84029   6.022   7.008   3.972  1.5241 -0.0583 -1.5402
  637MOL0     H84030   6.001   7.146   3.856  3.3108  1.1454 -1.0029
  637MOL0     H84031   5.890   7.284   4.012 -2.6074 -0.2327 -0.1501
  637MOL0     H84032   5.934   7.179   4.151 -2.7586 -2.0646  0.1120
  637MOL0     H84033   5.782   6.995   4.060 -0.0312 -0.2470 -2.4199
  637MOL0     H84034   5.723   7.149   4.113 -0.0455 -0.2152 -0.3406
  637MOL0     H84035   5.753   7.040   3.828  0.9456  0.0190  1.0771
  637MOL0     H84036   5.738   7.218   3.854  3.1497  0.3625  0.3869
  637MOL0     H84037   5.586   6.866   3.973  0.0046 -1.1021  2.1616
  637MOL0     H84038   5.209   6.900   4.074  1.3396  1.3722 -0.1586
  637MOL0     H84039   5.351   6.820   4.141  1.7503 -0.1687 -0.1568
  637MOL0     H84040   5.256   6.667   4.003 -1.7221  1.3022 -0.6744
  637MOL0     H84041   5.403   6.721   3.925  1.6808  1.4160  1.8130
  637MOL0     H84042   5.130   6.822   3.854  0.0165  0.2131  0.7359
  637MOL0     H84043   5.276   6.863   3.770  0.2646  1.6208  1.7690
  637MOL0     H84044   5.305   6.593   3.752  0.0356  0.9630 -1.9216
  637MOL0     H84045   5.181   6.667   3.653 -0.7179  1.9507 -0.0398
  637MOL0     H84046   4.990   6.732   3.631 -0.7831 -0.3001 -0.6855
  637MOL0     H84047   4.742   6.753   3.611 -0.1963 -4.4729 -2.2790
  637MOL0     H84048   4.353   6.570   4.061  1.0402 -1.1718 -1.2575
  637MOL0     H84049   4.117   6.563   4.098  0.6523  3.0472  0.1389
  637MOL0     H84050   3.885   6.408   3.726 -1.9821 -1.4651  1.0255
  637MOL0     H84051   3.859   6.582   3.708 -2.6766  0.0013 -0.8620
  637MOL0     H84052   3.642   6.548   3.835  0.0229 -0.4615  0.3023
  637MOL0     H84053   3.690   6.381   3.863 -6.4786 -1.5233 -2.1955
  637MOL0     H84054   3.684   6.350   3.618 -0.8544  0.2929 -1.2075
  637MOL0     H84055   3.646   6.517   3.591  3.1205  0.8607  2.0216
  637MOL0     H84056   3.485   6.332   3.768 -2.4736  0.2302  0.0287
  637MOL0     H84057   3.456   6.495   3.714 -2.4357 -1.0497  0.7409
  637MOL0     H84058   3.434   6.223   3.563  2.3866  0.4687 -1.1640
  637MOL0     H84059   3.425   6.366   3.466 -2.5644  1.4598 -1.7940
  637MOL0     H84060   3.233   6.452   3.622  1.7981  0.9758 -2.8221
  637MOL0     H84061   3.231   6.293   3.699 -1.2964  0.7023 -0.0907
  637MOL0     H84062   3.182   6.330   3.397 -0.6258  1.1359  0.4011
  637MOL0     H84063   3.203   6.176   3.490 -1.5119 -1.0239  1.7671
  637MOL0     H84064   2.996   6.401   3.549  2.0547 -0.7607  2.4237
  637MOL0     H84065   2.982   6.243   3.616 -0.8265  1.1068  0.6504
  637MOL0     H84066   4.057   6.521   3.660 -1.3484  1.7261  0.3994
  637MOL0     H84067   4.301   6.501   3.645  2.0453 -3.0812  1.2363
  637MOL0     H84068   4.685   6.467   3.919 -0.6018 -0.3071 -0.7575
  637MOL0     H84069   4.933   6.450   3.955  2.9004  1.2473  0.9674
  637MOL0     H84070   6.575   7.157   3.706  0.1434 -1.5387  5.5154
  637MOL0     H84071   6.768   7.142   3.554  0.1837  0.4412 -0.8031
  637MOL0     H84072   7.136   7.286   3.355  0.3436 -0.7733 -1.0220
  637MOL0     H84073   7.304   7.185   3.203  2.5458 -1.5518 -0.3944
  637MOL0     H84074   7.641   6.916   3.192 -0.3340 -0.6850  0.0688
  637MOL0     H84075   7.565   6.855   3.332 -0.6656  1.3802  1.1513
  637MOL0     H84076   7.783   7.083   3.334 -0.2572  2.1233  3.0505
  637MOL0     H84077   7.683   7.048   3.471 -2.3797  0.3869 -0.7789
  637MOL0     H84078   7.917   6.933   3.435  0.2589  1.9311 -3.5503
  637MOL0     H84079   7.837   6.822   3.329  2.8028  0.4715  0.5940
  637MOL0     H84080   7.672   6.761   3.511 -0.9800  1.7065 -2.5822
  637MOL0     H84081   7.845   6.714   3.526  0.0130  0.1783  0.3735
  637MOL0     H84082   7.734   6.975   3.846  1.0403 -0.2689  0.1781
  637MOL0     H84083   7.467   6.969   3.529  0.9711  0.7650 -0.1017
  637MOL0     H84084   7.286   7.032   3.673  1.9313 -0.5309 -0.4582
  638MOL0     O84085   7.239   1.320   1.626 -0.5400  0.4108  0.2775
  638MOL0     C84086   7.273   1.229   1.696  0.1070 -0.0372 -0.3649
  638MOL0     O84087   7.190   1.151   1.759 -0.3195  0.0680 -0.1421
  638MOL0     C84088   7.053   1.161   1.755 -0.2918 -0.6825  0.5632
  638MOL0     C84089   6.983   1.278   1.729 -0.0645  0.0739 -0.0341
  638MOL0     C84090   6.843   1.271   1.720 -0.2493 -0.9268  0.2917
  638MOL0     C84091   6.767   1.154   1.738 -0.2186  0.7766  0.8528
  638MOL0     O84092   6.625   1.154   1.729 -0.7205  0.2641  0.0127
  638MOL0     C84093   6.565   1.024   1.749  0.4543  0.1247 -0.0875
  638MOL0     C84094   6.414   1.044   1.728  0.1357  0.5377  1.0783
  638MOL0     C84095   6.352   1.102   1.860  0.1258  0.1395 -0.4268
  638MOL0     C84096   6.203   1.128   1.844  1.0987  0.3841 -0.2288
  638MOL0     C84097   6.135   1.178   1.967 -0.1742 -0.7531  0.0090
  638MOL0     C84098   5.992   1.220   1.934 -0.2334 -0.2920 -0.4188
  638MOL0     C84099   5.936   1.274   2.065 -0.1470  0.1659 -0.1500
  638MOL0     C84100   5.972   1.424   2.078 -0.4174 -0.1143  0.1972
  638MOL0     N84101   5.893   1.485   2.192  0.2943  0.0673 -0.6395
  638MOL0     C84102   5.808   1.596   2.186 -0.5882 -0.5338 -1.0525
  638MOL0     C84103   5.735   1.581   2.305  1.3316  0.0941 -0.3717
  638MOL0     C84104   5.630   1.688   2.337  0.1004 -0.1305  0.4492
  638MOL0     C84105   5.509   1.622   2.421 -0.0309 -0.1939  0.2091
  638MOL0     C84106   5.398   1.723   2.437 -0.9136  0.0316 -0.9198
  638MOL0     C84107   5.277   1.660   2.498  0.2983 -0.4694 -0.3170
  638MOL0     O84108   5.193   1.773   2.519 -0.7803  0.4921  0.2266
  638MOL0     C84109   5.076   1.762   2.586 -0.1198 -0.3868 -0.2916
  638MOL0     C84110   5.018   1.644   2.631  0.3307 -0.4333 -0.0637
  638MOL0     C84111   4.890   1.640   2.692  0.7982 -0.1965 -1.3042
  638MOL0     C84112   4.819   1.757   2.699  0.4945 -1.0569  0.9465
  638MOL0     C84113   4.685   1.771   2.761  0.2730 -0.2114 -0.7590
  638MOL0     O84114   4.640   1.648   2.805 -0.2100 -0.2550  0.3279
  638MOL0     C84115   4.517   1.652   2.866 -0.3034  0.4434  0.3170
  638MOL0     C84116   4.493   1.734   2.977 -0.0888 -0.0711 -0.1921
  638MOL0     C84117   4.373   1.730   3.045  0.1573 -1.0740 -0.5572
  638MOL0     C84118   4.274   1.647   3.000 -0.5649 -0.6336  0.1174
  638MOL0     O84119   4.140   1.657   3.038 -0.5217 -0.3823 -0.2985
  638MOL0     C84120   4.114   1.751   3.144  0.2167  1.4838  0.4880
  638MOL0     C84121   3.967   1.739   3.170 -0.3531 -0.5690  0.1356
  638MOL0     C84122   3.919   1.843   3.274 -0.4106  0.6237  0.2855
  638MOL0     C84123   3.778   1.811   3.317  0.3730  0.1994  0.0192
  638MOL0     C84124   3.715   1.908   3.417 -0.4017  0.2880 -0.1847
  638MOL0     C84125   3.581   1.880   3.458  0.1493  0.2202 -0.9147
  638MOL0     C84126   3.551   1.745   3.532  0.1523  0.1714 -0.1521
  638MOL0     C84127   3.398   1.729   3.559  0.5230  0.3563 -0.2766
  638MOL0    Cl84128   3.346   1.838   3.686 -0.2194 -0.0318  1.0751
  638MOL0     C84129   4.304   1.558   2.892  0.6854 -1.3240 -0.2556
  638MOL0     C84130   4.421   1.563   2.824  0.3027  0.7226  0.7321
  638MOL0     O84131   4.629   1.878   2.765  0.1469 -0.2332  0.2356
  638MOL0     C84132   4.873   1.875   2.650 -0.2378 -0.1676 -0.3324
  638MOL0     C84133   5.000   1.879   2.598  0.1093 -0.6551  1.0067
  638MOL0     N84134   5.777   1.469   2.377  0.4447  0.0997  0.5775
  638MOL0     N84135   5.871   1.412   2.303  0.1718  0.0273  0.0548
  638MOL0     C84136   6.844   1.038   1.764 -0.5840  0.2240 -0.0477
  638MOL0     C84137   6.987   1.041   1.777 -0.0637 -0.0931  0.6032
  638MOL0     C84138   7.418   1.214   1.715  0.4518  0.1112 -0.7189
  638MOL0     C84139   7.461   1.085   1.747 -0.2302  0.0751 -0.5632
  638MOL0     C84140   7.592   1.067   1.789  0.1405 -0.0852  0.6792
  638MOL0     C84141   7.688   1.174   1.794 -0.3948 -0.1098  0.1390
  638MOL0     O84142   7.809   1.152   1.855 -0.1484 -0.2849  0.6155
  638MOL0     C84143   7.907   1.252   1.843 -0.0447  0.2820 -0.7102
  638MOL0     C84144   8.039   1.192   1.889 -0.5985  0.1060  0.1511
  638MOL0     C84145   8.144   1.306   1.878  1.0010 -0.4864  0.2584
  638MOL0     C84146   8.290   1.256   1.884  0.4357 -0.2521  0.5633
  638MOL0     C84147   8.320   1.167   2.001  0.5227 -0.3452  0.2924
  638MOL0     C84148   8.351   1.093   2.089 -0.2614 -0.3102 -0.1792
  638MOL0     C84149   7.647   1.304   1.764  0.5248  0.1269  0.2308
  638MOL0     C84150   7.513   1.321   1.722  0.6891 -0.3664 -0.2558
  638MOL0     H84151   7.033   1.372   1.710  1.0375 -0.6886 -1.0270
  638MOL0     H84152   6.790   1.366   1.708  1.0837 -0.2493 -0.4639
  638MOL0     H84153   6.579   1.010   1.857  1.4059 -3.0500 -0.4931
  638MOL0     H84154   6.600   0.947   1.680 -0.5485 -0.7871  0.3942
  638MOL0     H84155   6.358   0.951   1.722 -2.2721  1.9935 -0.8082
  638MOL0     H84156   6.400   1.107   1.639  2.3416  1.0012  0.9975
  638MOL0     H84157   6.393   1.194   1.902 -0.4987 -0.6641  2.1151
  638MOL0     H84158   6.371   1.024   1.935 -2.8842 -1.4292 -1.1225
  638MOL0     H84159   6.190   1.197   1.760  0.6189  1.5310  0.7548
  638MOL0     H84160   6.164   1.029   1.819 -1.1351  0.7371  1.5621
  638MOL0     H84161   6.192   1.262   2.008  1.3771 -1.4065 -0.7423
  638MOL0     H84162   6.118   1.094   2.036  2.7170 -1.1004  0.3988
  638MOL0     H84163   5.920   1.138   1.926 -1.4724  0.1175  3.9807
  638MOL0     H84164   5.984   1.289   1.849 -0.0263 -0.4599 -0.5746
  638MOL0     H84165   5.827   1.276   2.054 -0.0436  0.3487 -1.2328
  638MOL0     H84166   5.975   1.213   2.147 -0.1430  0.0782 -0.2175
  638MOL0     H84167   5.944   1.482   1.990 -1.1439 -0.8378 -0.0610
  638MOL0     H84168   6.081   1.430   2.089 -0.5477 -0.0439  1.6096
  638MOL0     H84169   5.810   1.676   2.113 -1.8730  0.3481 -0.1709
  638MOL0     H84170   5.593   1.731   2.244 -1.1829  0.5100  1.2300
  638MOL0     H84171   5.677   1.769   2.395 -0.7355 -0.3456  1.4520
  638MOL0     H84172   5.544   1.571   2.511  1.2187 -0.2107 -0.2599
  638MOL0     H84173   5.459   1.549   2.357 -1.8886  0.9542  0.2834
  638MOL0     H84174   5.423   1.818   2.485 -0.1131 -0.3124 -0.6381
  638MOL0     H84175   5.372   1.747   2.334 -0.0664 -0.2174 -1.1982
  638MOL0     H84176   5.306   1.630   2.599 -1.0172  3.6026  1.4897
  638MOL0     H84177   5.224   1.580   2.445 -1.4004  1.9875 -2.5741
  638MOL0     H84178   5.079   1.557   2.614  1.8141 -0.0075  2.5485
  638MOL0     H84179   4.851   1.551   2.740 -0.1539 -0.8265 -3.1266
  638MOL0     H84180   4.573   1.801   3.006 -0.9791  1.0265 -0.2350
  638MOL0     H84181   4.377   1.796   3.131  1.4778 -1.6474 -0.1553
  638MOL0     H84182   4.133   1.850   3.101  1.5003  1.0585  0.0272
  638MOL0     H84183   4.171   1.733   3.236 -1.1929  2.3595  1.5804
  638MOL0     H84184   3.950   1.640   3.214 -0.7545 -0.6261 -0.1359
  638MOL0     H84185   3.904   1.755   3.081  0.3503 -1.1820 -0.4886
  638MOL0     H84186   3.910   1.936   3.217 -3.6977 -1.3740 -2.8843
  638MOL0     H84187   3.988   1.841   3.359  1.2222 -0.3994 -1.0005
  638MOL0     H84188   3.709   1.823   3.233  0.4500 -0.6508 -0.1739
  638MOL0     H84189   3.774   1.707   3.349 -0.6449 -0.5677 -2.3845
  638MOL0     H84190   3.710   2.004   3.364  1.3766 -1.5676 -4.0825
  638MOL0     H84191   3.793   1.925   3.492 -1.0253 -1.2472  0.8469
  638MOL0     H84192   3.516   1.891   3.370 -0.6370 -0.4823 -0.4348
  638MOL0     H84193   3.539   1.955   3.526  1.1262 -1.0035  1.1202
  638MOL0     H84194   3.576   1.668   3.459 -0.1608  0.6772 -0.8011
  638MOL0     H84195   3.609   1.730   3.624 -0.1328  2.4359  0.4487
  638MOL0     H84196   3.366   1.629   3.593  0.4786  1.0464  1.8831
  638MOL0     H84197   3.335   1.750   3.472 -0.8524 -2.6071 -0.1263
  638MOL0     H84198   4.221   1.503   2.849 -0.8394 -1.4513  2.5769
  638MOL0     H84199   4.450   1.487   2.752 -1.4413 -0.6990  1.4456
  638MOL0     H84200   4.827   1.972   2.659 -0.8319 -0.5283  0.6546
  638MOL0     H84201   5.042   1.973   2.564  0.0563 -0.6099  1.0670
  638MOL0     H84202   6.800   0.940   1.782  3.5770 -1.9476 -0.2541
  638MOL0     H84203   7.058   0.961   1.793  2.7978  2.5704  2.5057
  638MOL0     H84204   7.391   1.003   1.750  0.3716 -0.5810  4.2807
  638MOL0     H84205   7.626   0.966   1.812 -1.5752 -1.1629 -1.1959
  638MOL0     H84206   7.868   1.328   1.910  0.4484  1.6576 -1.9324
  638MOL0     H84207   7.912   1.293   1.742 -0.3494  1.4219 -0.2700
  638MOL0     H84208   8.045   1.138   1.984  1.1000 -0.5594 -0.2852
  638MOL0     H84209   8.071   1.117   1.816  1.3254  0.7147  0.2960
  638MOL0     H84210   8.141   1.389   1.950  1.8038 -2.0757  2.2203
  638MOL0     H84211   8.132   1.362   1.785  1.1880 -0.3113  0.3374
  638MOL0     H84212   8.321   1.207   1.791 -1.3050  0.9017 -0.6752
  638MOL0     H84213   8.343   1.351   1.887 -1.0234  0.5813  0.7485
  638MOL0     H84214   8.387   1.021   2.160 -0.1964 -0.3430 -0.2445
  638MOL0     H84215   7.711   1.391   1.769  0.9558 -0.0554 -1.4892
  638MOL0     H84216   7.476   1.422   1.705 -0.8958 -1.0963 -1.4434
  639MOL0     O84217   1.959   4.753   1.114 -0.2698  0.2349  0.0485
  639MOL0     C84218   1.946   4.872   1.122 -0.6903 -1.1701  0.5788
  639MOL0     O84219   1.829   4.944   1.118 -0.0373  0.2538 -0.3135
  639MOL0     C84220   1.708   4.889   1.128 -1.1508  1.1698 -1.0139
  639MOL0     C84221   1.681   4.753   1.164 -0.0647 -0.0266 -0.4952
  639MOL0     C84222   1.547   4.723   1.189  0.4307 -0.2413 -0.0173
  639MOL0     C84223   1.440   4.812   1.190  0.2966 -0.7723  0.3476
  639MOL0     O84224   1.308   4.779   1.215 -0.1197  0.5985  0.0163
  639MOL0     C84225   1.268   4.638   1.195  0.0062 -0.7468  0.4296
  639MOL0     C84226   1.121   4.643   1.151  0.6709  0.2111  0.0737
  639MOL0     C84227   1.102   4.719   1.018  0.0662  0.1834  0.4039
  639MOL0     C84228   0.947   4.726   0.997  0.2707 -0.0075  0.1299
  639MOL0     C84229   0.910   4.781   0.851 -0.0488 -0.7928 -0.3024
  639MOL0     C84230   0.761   4.751   0.821  0.1418  0.1596 -0.0849
  639MOL0     C84231   0.716   4.791   0.676 -0.3972  0.5075  0.0774
  639MOL0     C84232   0.565   4.783   0.671 -0.5056  0.3143 -0.1953
  639MOL0     N84233   0.503   4.879   0.765  0.3335  0.0536 -0.4869
  639MOL0     C84234   0.507   5.013   0.764  0.2954 -0.2294  0.5777
  639MOL0     C84235   0.455   5.054   0.881  0.1831  0.4893  0.9337
  639MOL0     C84236   0.449   5.197   0.928 -0.6378  0.1645 -1.0266
  639MOL0     C84237   0.523   5.210   1.063 -0.3449 -0.3731  0.1416
  639MOL0     C84238   0.682   5.222   1.051 -0.4207 -0.4486 -0.6447
  639MOL0     C84239   0.742   5.082   1.031 -0.1671 -0.1334  0.3188
  639MOL0     O84240   0.876   5.082   1.084  0.2388  0.0059  0.4791
  639MOL0     C84241   0.903   5.042   1.217 -0.1366  0.3488  0.3748
  639MOL0     C84242   1.036   5.035   1.247 -0.3754  0.2823 -0.3447
  639MOL0     C84243   1.081   5.016   1.383 -0.4762 -0.6491  0.2516
  639MOL0     C84244   0.993   4.984   1.486 -0.3972 -0.1404 -0.1119
  639MOL0     C84245   1.037   4.952   1.629 -0.4620 -0.2518 -0.3854
  639MOL0     O84246   0.946   4.891   1.711 -0.4460  0.0483 -0.9088
  639MOL0     C84247   0.976   4.852   1.841  0.0873  0.3447  0.0747
  639MOL0     C84248   0.995   4.950   1.939  0.3010  0.2700 -0.2286
  639MOL0     C84249   1.008   4.920   2.068 -0.2296  0.0370  0.1564
  639MOL0     C84250   1.005   4.782   2.102 -0.1609  0.2100  0.2666
  639MOL0     O84251   0.998   4.730   2.228 -0.1894  0.5017  0.9486
  639MOL0     C84252   0.982   4.831   2.330 -0.1550  0.0114  0.3371
  639MOL0     C84253   0.979   4.754   2.460 -0.5707  0.5504  0.5312
  639MOL0     C84254   0.980   4.844   2.585  0.1228 -0.2441 -0.0512
  639MOL0     C84255   0.992   4.773   2.721  0.1808  0.4821  1.5968
  639MOL0     C84256   1.128   4.719   2.737 -0.6467 -0.1607  0.6157
  639MOL0     C84257   1.155   4.663   2.884  0.5796  0.5698 -0.6653
  639MOL0     C84258   1.294   4.586   2.893  0.6104 -0.7571 -0.4081
  639MOL0     C84259   1.394   4.674   2.964 -0.8762 -0.2747  0.6554
  639MOL0    Cl84260   1.374   4.665   3.139  0.0965 -0.1920 -0.0906
  639MOL0     C84261   0.994   4.677   2.008 -0.9208 -0.5797  0.9764
  639MOL0     C84262   0.971   4.720   1.878  0.2776  0.2988 -0.6487
  639MOL0     O84263   1.159   4.965   1.650 -0.2195  0.3486  0.2573
  639MOL0     C84264   0.855   4.980   1.445 -0.7465  0.9180 -0.9223
  639MOL0     C84265   0.809   5.003   1.316  0.5073  0.4783  0.6274
  639MOL0     N84266   0.419   4.942   0.949  0.0586  0.1900  0.3467
  639MOL0     N84267   0.445   4.837   0.882 -0.4884 -0.0093  0.5376
  639MOL0     C84268   1.460   4.943   1.151 -0.3944 -0.9080  0.2801
  639MOL0     C84269   1.601   4.979   1.133  0.1093 -0.3364 -0.1718
  639MOL0     C84270   2.066   4.955   1.129  0.1069 -0.7772 -0.3591
  639MOL0     C84271   2.057   5.101   1.123 -0.4244  0.9123  0.0290
  639MOL0     C84272   2.168   5.177   1.113  1.6212  0.3200 -0.0293
  639MOL0     C84273   2.296   5.119   1.122 -0.1980  0.5411 -0.4060
  639MOL0     O84274   2.410   5.200   1.096  0.3519 -0.8192  0.1212
  639MOL0     C84275   2.538   5.147   1.104 -0.4542 -0.7347 -0.9412
  639MOL0     C84276   2.637   5.254   1.154 -0.5733 -0.4679 -0.1576
  639MOL0     C84277   2.782   5.204   1.164 -0.6217 -0.6985 -0.3775
  639MOL0     C84278   2.829   5.121   1.052 -0.3813  0.3631 -0.3759
  639MOL0     C84279   2.969   5.089   1.089 -0.1106 -0.1686 -0.9836
  639MOL0     C84280   3.081   5.059   1.128  0.1931 -0.1196 -0.0682
  639MOL0     C84281   2.306   4.976   1.124  0.4444 -0.1653  0.2506
  639MOL0     C84282   2.191   4.891   1.130 -0.2493 -0.5291  0.3716
  639MOL0     H84283   1.753   4.673   1.173  0.0439  0.1198 -0.0534
  639MOL0     H84284   1.525   4.622   1.222 -1.4275 -0.5489 -2.0257
  639MOL0     H84285   1.292   4.570   1.278 -1.2659 -0.2229  1.2577
  639MOL0     H84286   1.324   4.603   1.108 -3.3773 -0.8342 -1.9488
  639MOL0     H84287   1.057   4.688   1.228  0.0816  0.2115 -0.4108
  639MOL0     H84288   1.090   4.540   1.131  0.2587 -0.1182  2.2002
  639MOL0     H84289   1.149   4.660   0.938 -0.4010 -0.6150  0.7063
  639MOL0     H84290   1.142   4.820   1.027  3.6068 -1.0567  0.0953
  639MOL0     H84291   0.912   4.622   0.997  1.3923 -0.4523 -2.0523
  639MOL0     H84292   0.912   4.785   1.082 -0.6081 -1.0549  0.5204
  639MOL0     H84293   0.974   4.739   0.772  0.9944 -0.8634  0.5526
  639MOL0     H84294   0.934   4.888   0.856 -2.7406 -0.1799  2.5910
  639MOL0     H84295   0.709   4.814   0.894 -1.2085  1.2806 -1.9229
  639MOL0     H84296   0.728   4.649   0.846 -2.0363  0.1285 -2.6292
  639MOL0     H84297   0.749   4.893   0.652 -1.5968  1.4865  2.2238
  639MOL0     H84298   0.773   4.734   0.603  2.1674  0.9203  1.6015
  639MOL0     H84299   0.528   4.681   0.683 -1.7265  0.5994 -1.3635
  639MOL0     H84300   0.527   4.804   0.571 -2.5572 -1.7880  0.0474
  639MOL0     H84301   0.549   5.077   0.688  0.7314  0.5628  1.4697
  639MOL0     H84302   0.342   5.217   0.940 -0.6697 -0.4725 -0.2420
  639MOL0     H84303   0.494   5.269   0.858  1.1320  0.6938  0.5735
  639MOL0     H84304   0.484   5.136   1.133 -1.4754  1.3299  1.4048
  639MOL0     H84305   0.484   5.304   1.103  3.5058  1.2891  0.4216
  639MOL0     H84306   0.714   5.289   0.971 -1.0524  0.3709 -0.2240
  639MOL0     H84307   0.721   5.267   1.143  0.8247 -0.0692 -1.3351
  639MOL0     H84308   0.739   5.068   0.923 -2.7534  1.6319  0.0526
  639MOL0     H84309   0.685   5.000   1.075 -1.5474 -0.9777 -2.7841
  639MOL0     H84310   1.110   5.068   1.174  2.5802  1.3739  2.8536
  639MOL0     H84311   1.188   5.015   1.400 -0.7143 -0.0927  2.0233
  639MOL0     H84312   0.993   5.050   1.897 -0.0108  0.1034 -0.6225
  639MOL0     H84313   1.012   4.991   2.149 -1.4002 -0.7140  0.8981
  639MOL0     H84314   0.883   4.877   2.324 -0.0366  0.0556 -2.3852
  639MOL0     H84315   1.064   4.902   2.322 -0.5818  0.4683 -0.0470
  639MOL0     H84316   1.064   4.687   2.450 -0.2329  0.8567  1.2549
  639MOL0     H84317   0.900   4.678   2.460  0.6788 -0.7887 -0.8812
  639MOL0     H84318   0.890   4.905   2.599 -1.0618 -0.9980 -3.5744
  639MOL0     H84319   1.063   4.914   2.586 -0.2455  0.2019  0.5244
  639MOL0     H84320   0.961   4.839   2.802  0.2064 -0.9937  2.8459
  639MOL0     H84321   0.928   4.685   2.729  4.1209 -2.8032  0.6402
  639MOL0     H84322   1.203   4.788   2.699 -0.4940 -1.5753 -1.8493
  639MOL0     H84323   1.126   4.628   2.677 -1.6294 -0.4246  1.0202
  639MOL0     H84324   1.075   4.595   2.917  1.5262 -0.1097  0.3123
  639MOL0     H84325   1.154   4.737   2.964 -0.2964 -0.1507  0.0070
  639MOL0     H84326   1.286   4.498   2.957  1.0348  0.0403  0.7667
  639MOL0     H84327   1.322   4.557   2.791  1.5735 -0.3820 -0.2546
  639MOL0     H84328   1.396   4.776   2.923 -1.3106  0.1663  1.7107
  639MOL0     H84329   1.493   4.630   2.943 -1.2279 -0.5086 -0.6068
  639MOL0     H84330   1.009   4.572   2.027  1.5252 -0.3825  0.5303
  639MOL0     H84331   0.953   4.639   1.808  0.0876 -1.2525  1.1253
  639MOL0     H84332   0.791   4.945   1.525  1.5094 -1.9411 -0.1944
  639MOL0     H84333   0.702   4.991   1.303  0.4884  0.3865  0.8719
  639MOL0     H84334   1.378   5.014   1.147  0.5922  0.3323  1.1154
  639MOL0     H84335   1.621   5.083   1.111  0.0090 -0.3591 -0.3768
  639MOL0     H84336   1.965   5.157   1.129 -0.9237  0.3038 -1.4529
  639MOL0     H84337   2.165   5.285   1.115  1.4280  0.3268 -0.5962
  639MOL0     H84338   2.578   5.107   1.010  3.5634 -1.0375  0.6986
  639MOL0     H84339   2.550   5.067   1.178  1.3048 -1.5371 -2.0182
  639MOL0     H84340   2.628   5.333   1.080  1.1491 -1.2429 -1.2572
  639MOL0     H84341   2.601   5.300   1.247 -1.5832  2.3079 -1.7968
  639MOL0     H84342   2.775   5.134   1.248  0.0968  0.3266  0.5649
  639MOL0     H84343   2.841   5.287   1.202 -0.7099 -2.3754  3.9816
  639MOL0     H84344   2.764   5.035   1.037  2.5930 -1.9019 -1.3705
  639MOL0     H84345   2.832   5.181   0.961 -1.7006  3.4649  1.4831
  639MOL0     H84346   3.179   5.028   1.158  1.5074  0.4278 -3.3712
  639MOL0     H84347   2.404   4.930   1.111  0.2225  0.1372 -3.6736
  639MOL0     H84348   2.220   4.786   1.127  0.3138 -0.3930  0.8813
  640MOL0     O84349   9.228   6.031   1.319 -0.3527 -0.0575  0.0323
  640MOL0     C84350   9.295   5.931   1.343 -0.0763  0.7134 -0.4569
  640MOL0     O84351   9.248   5.821   1.419 -0.4830  0.2349  0.1097
  640MOL0     C84352   9.119   5.828   1.470 -0.3919 -0.5433  0.4457
  640MOL0     C84353   9.009   5.766   1.399 -0.3870  0.6737  0.0865
  640MOL0     C84354   8.876   5.760   1.456 -0.1292  0.4808  0.1358
  640MOL0     C84355   8.853   5.839   1.568  0.0313  0.5003 -0.0466
  640MOL0     O84356   8.730   5.848   1.630  0.7993  0.0671 -0.0361
  640MOL0     C84357   8.704   5.935   1.741 -0.0985  0.1453 -0.6868
  640MOL0     C84358   8.555   5.965   1.748 -0.8181 -0.3608 -0.2060
  640MOL0     C84359   8.455   5.855   1.795  0.2434  0.4642  0.5454
  640MOL0     C84360   8.312   5.908   1.794  0.3744  0.7440  0.0119
  640MOL0     C84361   8.214   5.803   1.842  0.4008 -0.0575  0.6023
  640MOL0     C84362   8.076   5.872   1.861  0.1574 -0.2587 -0.3239
  640MOL0     C84363   7.953   5.789   1.883  0.2115  0.4087 -0.4288
  640MOL0     C84364   7.911   5.769   2.029 -0.5777  0.5546  0.9153
  640MOL0     N84365   7.772   5.737   2.052  0.7929 -0.0896 -0.3730
  640MOL0     C84366   7.670   5.702   1.963 -0.4474 -0.2257  0.0146
  640MOL0     C84367   7.560   5.714   2.038 -0.2437  0.8204  0.0983
  640MOL0     C84368   7.437   5.692   1.970 -0.3153 -0.5283 -0.3813
  640MOL0     C84369   7.302   5.705   2.049 -0.8172  0.1613  0.1030
  640MOL0     C84370   7.189   5.675   1.949  0.0066  0.3501 -0.3088
  640MOL0     C84371   7.153   5.531   1.951  0.3927  0.4414  0.1826
  640MOL0     O84372   7.064   5.511   2.060  0.4495 -0.2400  0.6711
  640MOL0     C84373   6.927   5.535   2.052 -0.9096 -0.7333  0.3363
  640MOL0     C84374   6.849   5.511   2.166 -0.6812 -0.5850 -0.9232
  640MOL0     C84375   6.716   5.540   2.169 -0.7986  0.3105  0.6588
  640MOL0     C84376   6.652   5.588   2.051  0.7259 -0.6327  0.7679
  640MOL0     C84377   6.508   5.627   2.055 -0.4846  0.0864  0.1366
  640MOL0     O84378   6.453   5.653   2.173  0.8718 -0.9526  0.0416
  640MOL0     C84379   6.316   5.680   2.172  0.2150 -0.7643 -0.3892
  640MOL0     C84380   6.261   5.795   2.107  0.4248 -1.3238 -0.2734
  640MOL0     C84381   6.124   5.822   2.102 -0.2897  0.0162 -0.2882
  640MOL0     C84382   6.038   5.743   2.178 -1.3194  0.3748  0.0180
  640MOL0     O84383   5.909   5.786   2.185  0.9082 -0.3061 -0.5721
  640MOL0     C84384   5.859   5.824   2.312  0.7000  0.4813  0.5278
  640MOL0     C84385   5.713   5.871   2.326  0.1287 -0.3805  0.2005
  640MOL0     C84386   5.698   6.023   2.281 -0.3491 -0.3473 -0.0856
  640MOL0     C84387   5.547   6.066   2.288  0.4700 -0.1657 -0.6688
  640MOL0     C84388   5.536   6.210   2.274 -0.6441  0.3459 -0.3883
  640MOL0     C84389   5.387   6.244   2.238  0.6208  0.2141  0.3122
  640MOL0     C84390   5.369   6.391   2.255  0.0484  0.2084  0.0306
  640MOL0     C84391   5.222   6.423   2.239 -0.3813 -0.8985 -0.7783
  640MOL0    Cl84392   5.190   6.602   2.231  0.1972  0.0996 -0.5025
  640MOL0     C84393   6.093   5.637   2.260 -0.4442 -0.1588 -0.0076
  640MOL0     C84394   6.232   5.606   2.250 -0.5351 -0.6147 -0.2250
  640MOL0     O84395   6.447   5.625   1.945 -0.4205 -0.3032 -0.0436
  640MOL0     C84396   6.726   5.615   1.932 -0.4144 -0.2442  0.5250
  640MOL0     C84397   6.867   5.591   1.938 -0.0355 -0.0823  0.8317
  640MOL0     N84398   7.592   5.763   2.163 -0.5752  0.0343  0.0300
  640MOL0     N84399   7.717   5.780   2.168  0.2372  0.3448  0.5337
  640MOL0     C84400   8.966   5.909   1.626  0.3021 -0.1331 -0.0320
  640MOL0     C84401   9.098   5.893   1.584 -0.1143  0.1311  0.6348
  640MOL0     C84402   9.432   5.935   1.296  0.2736  0.5847 -0.6684
  640MOL0     C84403   9.527   5.844   1.346 -0.6785  0.2700  0.7902
  640MOL0     C84404   9.658   5.869   1.320 -0.1312 -0.5984  0.0813
  640MOL0     C84405   9.702   5.967   1.230  0.1690  0.1916 -0.1356
  640MOL0     O84406   9.834   5.955   1.203 -0.9118 -0.8049 -0.0814
  640MOL0     C84407   9.884   6.051   1.102 -0.0453  0.4629 -0.5564
  640MOL0     C84408  10.026   6.017   1.045 -0.4940 -0.2419  0.2847
  640MOL0     C84409  10.014   5.885   0.961  0.4709 -0.0623  0.6573
  640MOL0     C84410  10.152   5.852   0.902 -0.3007 -0.8037  0.3798
  640MOL0     C84411  10.208   5.956   0.809 -0.0722  0.3866 -0.2461
  640MOL0     C84412  10.271   6.024   0.725 -0.1337  0.2417  1.5078
  640MOL0     C84413   9.606   6.050   1.171 -0.3481  0.5975 -0.1026
  640MOL0     C84414   9.475   6.032   1.211 -0.1536 -0.0625  0.3048
  640MOL0     H84415   9.038   5.698   1.319 -1.8503 -0.8679  0.7884
  640MOL0     H84416   8.792   5.714   1.405  1.4024 -2.7349  0.3191
  640MOL0     H84417   8.754   6.032   1.732  0.7426 -0.2061  0.0660
  640MOL0     H84418   8.750   5.890   1.829  3.0439 -0.0532 -2.2959
  640MOL0     H84419   8.528   5.992   1.645  2.6076 -1.8819 -1.6596
  640MOL0     H84420   8.547   6.051   1.816  0.1649 -0.6296  0.2759
  640MOL0     H84421   8.487   5.819   1.893  0.8506  0.2031  0.2574
  640MOL0     H84422   8.455   5.766   1.730  0.5760  1.3096 -0.6503
  640MOL0     H84423   8.303   5.994   1.861 -0.0892  0.4494  0.3296
  640MOL0     H84424   8.282   5.932   1.691  1.2068 -1.7817 -0.8959
  640MOL0     H84425   8.243   5.761   1.939  0.7310 -1.2240  0.0169
  640MOL0     H84426   8.213   5.728   1.762  2.1264 -2.4683  2.6692
  640MOL0     H84427   8.047   5.930   1.773  0.8434 -2.3131 -1.9977
  640MOL0     H84428   8.086   5.951   1.935 -0.3705 -0.6825  0.2108
  640MOL0     H84429   7.882   5.831   1.811 -0.1298 -1.7508 -1.4305
  640MOL0     H84430   7.979   5.687   1.853 -2.6328  0.3163 -3.1284
  640MOL0     H84431   7.938   5.862   2.079 -0.8865  0.2104  1.7366
  640MOL0     H84432   7.973   5.693   2.077  0.1940  0.8458  0.4040
  640MOL0     H84433   7.669   5.678   1.857  1.6248 -1.4157  0.2157
  640MOL0     H84434   7.444   5.597   1.916  2.4109 -0.0094 -1.0905
  640MOL0     H84435   7.426   5.777   1.902  0.8602  1.4599  1.7442
  640MOL0     H84436   7.285   5.808   2.084  0.7829  0.3552  0.3576
  640MOL0     H84437   7.300   5.639   2.136  2.0988  0.2463  0.3362
  640MOL0     H84438   7.106   5.742   1.975  1.7707  2.0494  1.3583
  640MOL0     H84439   7.222   5.709   1.850  0.1521  1.9321  0.2446
  640MOL0     H84440   7.238   5.466   1.971 -1.4561 -2.2290 -0.1235
  640MOL0     H84441   7.116   5.500   1.852  0.5468 -0.8855  0.5207
  640MOL0     H84442   6.896   5.473   2.256  1.1884 -0.1562 -1.6746
  640MOL0     H84443   6.661   5.536   2.262 -0.4219  2.0943  0.9943
  640MOL0     H84444   6.332   5.851   2.048  0.8464 -0.9167  0.6128
  640MOL0     H84445   6.094   5.913   2.052  2.1002  1.0840  0.0712
  640MOL0     H84446   5.923   5.908   2.341 -1.1685  1.6797  1.3199
  640MOL0     H84447   5.881   5.747   2.387  2.7661  0.9043  0.4407
  640MOL0     H84448   5.689   5.855   2.431  1.3434 -2.8966  0.1847
  640MOL0     H84449   5.651   5.809   2.261  0.8914  1.1960 -2.1459
  640MOL0     H84450   5.741   6.043   2.183 -0.5119  3.4355  0.4873
  640MOL0     H84451   5.756   6.084   2.351  0.8226 -1.8010  0.2677
  640MOL0     H84452   5.498   6.013   2.205  0.4126 -1.2953  0.0693
  640MOL0     H84453   5.498   6.034   2.380 -0.3867  1.2441 -0.6049
  640MOL0     H84454   5.605   6.235   2.192 -0.7911  1.3731 -0.2131
  640MOL0     H84455   5.564   6.252   2.371 -1.2354  0.8773 -0.4458
  640MOL0     H84456   5.320   6.195   2.309 -0.4709  2.3444  0.8454
  640MOL0     H84457   5.365   6.198   2.141  0.3714 -4.1703  2.2010
  640MOL0     H84458   5.409   6.431   2.349  0.0266 -1.8240  0.9467
  640MOL0     H84459   5.429   6.432   2.173  0.0464 -1.4893 -0.8458
  640MOL0     H84460   5.169   6.379   2.324 -0.2005  0.3643  0.0148
  640MOL0     H84461   5.181   6.372   2.152 -0.4735 -2.1364 -0.0292
  640MOL0     H84462   6.040   5.566   2.323  0.8259 -0.9186  0.2542
  640MOL0     H84463   6.280   5.521   2.299 -0.0841 -0.8123 -0.9842
  640MOL0     H84464   6.672   5.651   1.845 -1.4109 -0.4524  1.0450
  640MOL0     H84465   6.928   5.608   1.850 -1.6337 -0.7141 -0.4418
  640MOL0     H84466   8.950   5.958   1.721  1.2455 -1.1004  0.6589
  640MOL0     H84467   9.186   5.936   1.631  0.2537  3.8278 -2.8531
  640MOL0     H84468   9.494   5.763   1.411  0.4891 -2.1256 -1.3873
  640MOL0     H84469   9.732   5.810   1.372  0.0434  0.9831  1.7481
  640MOL0     H84470   9.882   6.152   1.143 -0.5144  0.2782 -0.1244
  640MOL0     H84471   9.811   6.053   1.020 -0.1269 -0.6223 -0.5251
  640MOL0     H84472  10.054   6.097   0.977 -2.1476 -1.9070 -2.5559
  640MOL0     H84473  10.091   6.006   1.132 -0.4412  1.4718  0.4821
  640MOL0     H84474   9.938   5.890   0.882  0.8432 -2.7122  0.0461
  640MOL0     H84475   9.991   5.798   1.023  0.7351 -1.3024 -0.9059
  640MOL0     H84476  10.233   5.839   0.974  0.5180  1.5816  0.0056
  640MOL0     H84477  10.144   5.762   0.841 -1.1617 -1.1002  0.9247
  640MOL0     H84478  10.329   6.080   0.655 -1.9267  0.0488 -0.2319
  640MOL0     H84479   9.628   6.124   1.095  2.4177 -1.3085 -1.3158
  640MOL0     H84480   9.396   6.091   1.166 -1.4418 -1.1870  0.9985
  641MOL0     O84481   7.638  10.252   7.585  0.6691  0.5180  0.0308
  641MOL0     C84482   7.645  10.187   7.692 -0.6966 -0.7551  0.0263
  641MOL0     O84483   7.574  10.210   7.809 -0.4347  0.6202 -0.1475
  641MOL0     C84484   7.478  10.308   7.803  0.0889  0.1005 -0.1866
  641MOL0     C84485   7.360  10.283   7.725 -0.2540 -0.3913 -0.3701
  641MOL0     C84486   7.241  10.356   7.752  0.0827 -0.8938 -0.1935
  641MOL0     C84487   7.240  10.469   7.840  0.2069 -1.1349 -0.6075
  641MOL0     O84488   7.136  10.555   7.871 -0.1625  0.7731 -0.1133
  641MOL0     C84489   7.010  10.534   7.809  0.3526  0.4067  0.2986
  641MOL0     C84490   6.924  10.657   7.857  0.2605  1.2892  0.1336
  641MOL0     C84491   6.798  10.647   7.770 -0.3104  0.9559  0.0183
  641MOL0     C84492   6.694  10.745   7.834 -0.3405  0.2211 -0.1081
  641MOL0     C84493   6.559  10.719   7.768 -0.4793 -0.1192 -0.2919
  641MOL0     C84494   6.439  10.804   7.818 -0.3914  0.4296 -0.8458
  641MOL0     C84495   6.323  10.802   7.721 -0.6927  0.9132 -0.8383
  641MOL0     C84496   6.189  10.859   7.779  0.6336  0.7012  0.3614
  641MOL0     N84497   6.068  10.798   7.717 -0.1484  0.6738  0.9278
  641MOL0     C84498   5.985  10.861   7.620  0.1021  0.7401  0.5606
  641MOL0     C84499   5.881  10.770   7.598 -0.2096  0.3457 -0.6776
  641MOL0     C84500   5.772  10.803   7.495 -0.3168 -0.8631  0.3998
  641MOL0     C84501   5.638  10.737   7.522 -0.4347 -0.0257 -0.1606
  641MOL0     C84502   5.541  10.839   7.573 -0.2645  0.5576 -0.3078
  641MOL0     C84503   5.400  10.785   7.606  1.3348  0.2513  0.7481
  641MOL0     O84504   5.318  10.738   7.493  0.2330 -0.4144  0.5981
  641MOL0     C84505   5.190  10.782   7.490 -0.3233 -0.5360  0.3959
  641MOL0     C84506   5.083  10.685   7.458  0.0294  0.2481  0.2524
  641MOL0     C84507   4.955  10.731   7.424 -0.9508  0.0652  0.0611
  641MOL0     C84508   4.922  10.871   7.430 -0.2348 -1.0689  0.2128
  641MOL0     C84509   4.783  10.914   7.388 -0.1141  0.3101  0.4432
  641MOL0     O84510   4.766  11.043   7.359  0.0220  0.9481 -0.1824
  641MOL0     C84511   4.645  11.087   7.320 -0.9429  0.2627  0.7670
  641MOL0     C84512   4.520  11.034   7.362 -0.9692 -0.2618 -0.2500
  641MOL0     C84513   4.404  11.101   7.322 -0.6632 -1.0419 -0.6885
  641MOL0     C84514   4.412  11.228   7.255  1.0081 -0.4220  1.1344
  641MOL0     O84515   4.296  11.301   7.223  0.2632  1.0662  0.3263
  641MOL0     C84516   4.177  11.224   7.184 -0.4906  0.9000 -0.8165
  641MOL0     C84517   4.061  11.311   7.133  0.2148 -0.0482  0.0884
  641MOL0     C84518   3.940  11.220   7.100 -0.0391 -0.1914 -0.2753
  641MOL0     C84519   3.828  11.291   7.034 -0.6162 -0.3615 -0.3648
  641MOL0     C84520   3.723  11.201   6.961 -0.6590  0.8194  0.3094
  641MOL0     C84521   3.607  11.168   7.050 -0.5387  0.0025 -0.5063
  641MOL0     C84522   3.476  11.111   6.993  0.2636 -0.5478 -0.2328
  641MOL0     C84523   3.361  11.111   7.091  0.7227 -0.8034 -0.3345
  641MOL0    Cl84524   3.203  11.072   7.025 -0.0726  0.1124 -0.2441
  641MOL0     C84525   4.528  11.287   7.232 -0.3551  0.1522 -0.1889
  641MOL0     C84526   4.649  11.210   7.262 -0.1843  0.1534 -0.2666
  641MOL0     O84527   4.704  10.820   7.368 -0.1624 -0.0178  0.5959
  641MOL0     C84528   5.022  10.960   7.483 -0.5656 -0.1872  0.7708
  641MOL0     C84529   5.151  10.912   7.513  0.1612 -0.1977 -0.1141
  641MOL0     N84530   5.905  10.655   7.673  0.2221 -1.0366 -0.3989
  641MOL0     N84531   6.014  10.681   7.744  0.1576  0.6025 -0.2338
  641MOL0     C84532   7.355  10.502   7.908  0.6838  0.5020  0.3761
  641MOL0     C84533   7.471  10.416   7.900  0.7748 -0.1661 -0.8606
  641MOL0     C84534   7.762  10.095   7.704  0.3276  1.4444 -0.2530
  641MOL0     C84535   7.771   9.994   7.802 -0.0660 -0.0370 -0.3068
  641MOL0     C84536   7.880   9.911   7.812 -0.7190  0.1678  0.4192
  641MOL0     C84537   7.992   9.929   7.719 -0.1065  0.1852 -0.1327
  641MOL0     O84538   8.108   9.859   7.727  0.2915 -0.2074 -0.4926
  641MOL0     C84539   8.098   9.722   7.768 -0.1574  0.4484  0.0030
  641MOL0     C84540   8.229   9.666   7.802 -0.4377 -0.1610  0.0738
  641MOL0     C84541   8.251   9.515   7.766 -0.1498 -0.1612 -0.6625
  641MOL0     C84542   8.176   9.429   7.873  0.2373  1.2471 -0.1254
  641MOL0     C84543   8.179   9.294   7.821 -0.1574  0.3590 -0.0222
  641MOL0     C84544   8.185   9.184   7.766 -0.7596 -0.3035  1.0695
  641MOL0     C84545   7.981  10.032   7.624  0.5482 -0.1990  0.0920
  641MOL0     C84546   7.866  10.114   7.613 -0.4860  0.2141 -0.5043
  641MOL0     H84547   7.355  10.198   7.657  0.9338 -0.3050 -0.5947
  641MOL0     H84548   7.146  10.337   7.703  0.1609  1.8915 -1.6392
  641MOL0     H84549   6.949  10.446   7.827  0.5322  0.6251  2.1303
  641MOL0     H84550   7.027  10.542   7.701 -0.7839  0.0796  0.0890
  641MOL0     H84551   6.972  10.754   7.839  1.2055  0.9600  0.7675
  641MOL0     H84552   6.899  10.651   7.963 -0.0363  1.6056  0.0835
  641MOL0     H84553   6.754  10.547   7.767  2.0938 -0.1728 -0.3234
  641MOL0     H84554   6.828  10.674   7.668  3.7616 -1.6128  0.2993
  641MOL0     H84555   6.696  10.731   7.942  3.3462 -1.8847 -0.3091
  641MOL0     H84556   6.727  10.848   7.814 -0.5322  0.5387  1.1082
  641MOL0     H84557   6.541  10.611   7.777  2.4606 -0.5323  2.4790
  641MOL0     H84558   6.577  10.734   7.661 -0.7075 -1.2829 -0.5072
  641MOL0     H84559   6.475  10.906   7.837  0.3036  0.3382 -1.6040
  641MOL0     H84560   6.420  10.764   7.918 -0.0489 -0.7542 -1.2411
  641MOL0     H84561   6.354  10.847   7.626  1.3123  0.9759 -0.2007
  641MOL0     H84562   6.298  10.696   7.706  0.2639  0.4988  0.3033
  641MOL0     H84563   6.178  10.967   7.764 -0.1962  0.6406  0.4622
  641MOL0     H84564   6.190  10.832   7.885 -0.7825  0.9143  0.4498
  641MOL0     H84565   5.986  10.963   7.583  0.1933  0.8975  0.9995
  641MOL0     H84566   5.817  10.778   7.399 -1.5536 -3.7464  0.4555
  641MOL0     H84567   5.749  10.910   7.490  2.0489 -0.3254 -0.4480
  641MOL0     H84568   5.640  10.673   7.611  0.8801  0.7463  0.3940
  641MOL0     H84569   5.607  10.674   7.439  2.5416  1.8816 -2.9363
  641MOL0     H84570   5.582  10.890   7.661 -1.5113 -0.2747  0.7945
  641MOL0     H84571   5.534  10.906   7.487  3.0868 -2.6380 -3.4228
  641MOL0     H84572   5.344  10.862   7.660 -1.6402  0.1006 -1.8484
  641MOL0     H84573   5.421  10.697   7.667 -0.1866 -0.2715  0.5463
  641MOL0     H84574   5.097  10.577   7.461  0.5854  0.3357  2.4727
  641MOL0     H84575   4.889  10.649   7.400 -0.8704  0.2764 -0.9323
  641MOL0     H84576   4.504  10.954   7.434  1.3093 -0.8013 -0.2728
  641MOL0     H84577   4.309  11.058   7.350 -0.6668 -0.3251  0.4362
  641MOL0     H84578   4.139  11.168   7.270  0.9777 -2.4371 -2.1721
  641MOL0     H84579   4.207  11.147   7.112 -0.7779  0.1571 -0.1581
  641MOL0     H84580   4.092  11.360   7.040 -2.1073  0.6574 -0.3720
  641MOL0     H84581   4.031  11.400   7.188 -1.7412  0.3987 -1.5966
  641MOL0     H84582   3.905  11.176   7.193 -0.2149 -0.8330 -0.6395
  641MOL0     H84583   3.982  11.148   7.028  1.5065  2.1848 -1.9094
  641MOL0     H84584   3.776  11.340   7.118  0.3100 -0.6662  0.4020
  641MOL0     H84585   3.853  11.372   6.964 -1.0702 -0.9531 -1.2327
  641MOL0     H84586   3.770  11.106   6.934 -0.8574  0.7392  0.2495
  641MOL0     H84587   3.687  11.250   6.869 -0.8766 -0.1511 -0.1290
  641MOL0     H84588   3.575  11.268   7.082  1.8438  0.3422  1.0899
  641MOL0     H84589   3.634  11.112   7.140 -1.6992 -0.3619 -0.3768
  641MOL0     H84590   3.445  11.181   6.915 -1.6584 -0.3564  0.6425
  641MOL0     H84591   3.481  11.009   6.956 -0.7291 -0.5255 -0.4575
  641MOL0     H84592   3.357  11.215   7.124  5.2712 -0.3107 -0.6626
  641MOL0     H84593   3.381  11.049   7.179 -0.0363 -0.1020  0.3534
  641MOL0     H84594   4.536  11.385   7.187 -1.1713  0.7994  1.0227
  641MOL0     H84595   4.746  11.257   7.245  1.4528 -2.7318  0.4145
  641MOL0     H84596   5.003  11.064   7.510  2.9589 -0.1194  3.5847
  641MOL0     H84597   5.217  10.987   7.555 -0.9192  0.0850  1.1723
  641MOL0     H84598   7.352  10.590   7.972  1.1416  0.0872  0.9841
  641MOL0     H84599   7.545  10.440   7.976  2.2239 -0.1520 -2.2329
  641MOL0     H84600   7.698   9.980   7.881  1.5655 -2.4249  0.9252
  641MOL0     H84601   7.891   9.836   7.890  2.6617  2.2545  2.1712
  641MOL0     H84602   8.048   9.671   7.685 -1.0525  2.1890 -0.5791
  641MOL0     H84603   8.041   9.711   7.861  2.1585  0.9281  1.5727
  641MOL0     H84604   8.311   9.715   7.747 -0.5144 -1.2172 -1.0246
  641MOL0     H84605   8.238   9.679   7.910 -2.4360  0.6066  0.1908
  641MOL0     H84606   8.360   9.505   7.771  0.1373  2.5894  1.7914
  641MOL0     H84607   8.223   9.494   7.662 -0.2019  1.4498 -1.0009
  641MOL0     H84608   8.222   9.415   7.971 -0.9800 -0.2012  0.2679
  641MOL0     H84609   8.074   9.467   7.877 -0.2230  0.0347  0.0098
  641MOL0     H84610   8.174   9.090   7.715 -0.5103 -0.3312  1.0660
  641MOL0     H84611   8.069  10.056   7.565 -0.4206  0.4965 -1.1184
  641MOL0     H84612   7.865  10.190   7.535 -0.0707  1.6005  0.8094
  642MOL0     O84613   0.111   4.491   2.948 -0.0321 -0.4627  0.8841
  642MOL0     C84614   0.037   4.532   2.860  0.3205 -0.5374 -0.3074
  642MOL0     O84615  -0.091   4.515   2.853  0.2153  0.3088 -0.2195
  642MOL0     C84616  -0.165   4.434   2.931  1.2572  0.0722 -0.0250
  642MOL0     C84617  -0.305   4.445   2.914  0.2524 -0.3013 -0.3533
  642MOL0     C84618  -0.391   4.364   2.994  0.9450 -0.0187  0.0286
  642MOL0     C84619  -0.347   4.278   3.093  0.6469  0.0902  0.5795
  642MOL0     O84620  -0.424   4.192   3.162 -0.4851 -0.0304  0.0029
  642MOL0     C84621  -0.562   4.217   3.165  1.0352 -0.5201 -0.3403
  642MOL0     C84622  -0.627   4.136   3.281  0.8534  0.2922  0.7494
  642MOL0     C84623  -0.782   4.108   3.270  0.5568 -0.0069 -0.1622
  642MOL0     C84624  -0.815   4.043   3.139 -1.2663 -0.0363 -0.6351
  642MOL0     C84625  -0.964   3.990   3.144  0.6659  0.7811 -1.1054
  642MOL0     C84626  -1.014   3.911   3.019 -1.4485  0.3581 -0.1862
  642MOL0     C84627  -1.127   3.820   3.057  1.0053 -0.2167 -0.5243
  642MOL0     C84628  -1.213   3.773   2.940 -0.0772  0.0372  0.6507
  642MOL0     N84629  -1.309   3.667   2.970 -0.7114 -0.0773 -0.7799
  642MOL0     C84630  -1.428   3.673   3.037  0.6651  0.3652  0.1841
  642MOL0     C84631  -1.464   3.541   3.050 -0.2955 -0.5734  0.2107
  642MOL0     C84632  -1.596   3.496   3.110 -0.3273 -0.2815  0.5846
  642MOL0     C84633  -1.701   3.450   3.008 -0.3106 -0.2355 -0.4040
  642MOL0     C84634  -1.645   3.340   2.919  0.1765  0.7266 -0.4474
  642MOL0     C84635  -1.758   3.239   2.882  0.0613  0.1377  0.4027
  642MOL0     O84636  -1.835   3.303   2.778 -0.1519 -0.1934 -0.2852
  642MOL0     C84637  -1.951   3.230   2.741  0.7066 -1.0982  0.3532
  642MOL0     C84638  -2.038   3.285   2.634 -0.1564 -0.3160 -0.3610
  642MOL0     C84639  -2.172   3.236   2.621 -0.7465 -0.7861  0.3062
  642MOL0     C84640  -2.205   3.121   2.686 -0.2362  0.0585  0.1176
  642MOL0     C84641  -2.333   3.061   2.653 -0.2282 -0.6203 -0.7196
  642MOL0     O84642  -2.359   2.937   2.706 -0.8162 -0.4564 -0.4905
  642MOL0     C84643  -2.471   2.866   2.671  0.3036 -0.5357 -0.1458
  642MOL0     C84644  -2.595   2.933   2.676  0.1067 -0.1281 -0.6718
  642MOL0     C84645  -2.708   2.859   2.643  1.1122 -0.1131  0.7992
  642MOL0     C84646  -2.701   2.726   2.602 -0.5716 -0.0828  0.1744
  642MOL0     O84647  -2.816   2.654   2.574 -0.0784 -0.4505  0.9132
  642MOL0     C84648  -2.941   2.727   2.565 -0.3736  0.5607  0.3221
  642MOL0     C84649  -3.043   2.636   2.486 -0.7972 -0.6232 -0.4459
  642MOL0     C84650  -3.179   2.711   2.486  0.5912  0.2181 -0.1589
  642MOL0     C84651  -3.296   2.629   2.432 -0.2753 -0.6894  0.1497
  642MOL0     C84652  -3.425   2.719   2.421 -0.9679  0.9387  0.0225
  642MOL0     C84653  -3.531   2.625   2.341 -0.8291 -0.4416  0.8761
  642MOL0     C84654  -3.675   2.689   2.346 -0.4008 -0.0419 -0.3517
  642MOL0     C84655  -3.786   2.598   2.303  0.1850 -0.2199 -0.8389
  642MOL0    Cl84656  -3.745   2.508   2.153  0.1227 -0.0378  0.0214
  642MOL0     C84657  -2.579   2.663   2.592 -0.2540 -0.2350 -0.4831
  642MOL0     C84658  -2.460   2.730   2.630 -0.3956 -0.3889  0.5261
  642MOL0     O84659  -2.403   3.111   2.565  0.0511  0.0298  0.0184
  642MOL0     C84660  -2.125   3.060   2.779 -0.5118  0.8086 -0.2247
  642MOL0     C84661  -1.995   3.114   2.809  0.9587  0.4294  0.3810
  642MOL0     N84662  -1.368   3.463   2.992  0.0042  0.2079  0.1010
  642MOL0     N84663  -1.289   3.542   2.935 -0.4464  0.1586 -0.2488
  642MOL0     C84664  -0.206   4.261   3.103  0.6127  1.0054 -0.1635
  642MOL0     C84665  -0.113   4.339   3.021  0.0284  0.4177 -0.1232
  642MOL0     C84666   0.104   4.610   2.748  0.8452 -0.5870  0.9532
  642MOL0     C84667   0.243   4.612   2.733  0.2698 -0.2412 -0.1885
  642MOL0     C84668   0.309   4.688   2.635  0.1444  0.6419 -0.2649
  642MOL0     C84669   0.233   4.760   2.542  0.5167 -0.7607 -0.2398
  642MOL0     O84670   0.285   4.844   2.448 -0.0430  0.5147  0.7211
  642MOL0     C84671   0.426   4.864   2.437 -0.3552 -0.1171 -0.2934
  642MOL0     C84672   0.472   4.952   2.553 -0.0630  0.1836  0.5911
  642MOL0     C84673   0.621   4.984   2.543  0.1723  0.1858 -0.1270
  642MOL0     C84674   0.661   5.081   2.656 -0.8669 -0.5388  0.3714
  642MOL0     C84675   0.679   5.022   2.791 -0.0105  1.0221 -0.4849
  642MOL0     C84676   0.708   4.971   2.896  1.0567 -0.7981  0.6378
  642MOL0     C84677   0.095   4.755   2.550  0.4831 -0.2855 -0.6504
  642MOL0     C84678   0.036   4.692   2.656  0.5056  0.3137  0.4334
  642MOL0     H84679  -0.341   4.503   2.830  2.0024 -1.4567 -1.9881
  642MOL0     H84680  -0.497   4.358   2.970  0.5679 -2.1245  1.8390
  642MOL0     H84681  -0.604   4.188   3.068 -1.2828  0.3487  0.3398
  642MOL0     H84682  -0.578   4.323   3.185  0.8310 -0.6367  0.1274
  642MOL0     H84683  -0.597   4.197   3.366  1.5828 -1.3117  1.7026
  642MOL0     H84684  -0.572   4.042   3.291  1.3090  0.4344 -0.2692
  642MOL0     H84685  -0.844   4.198   3.271  0.1712 -0.2455 -1.1497
  642MOL0     H84686  -0.816   4.050   3.356 -2.7083  3.0447  0.8542
  642MOL0     H84687  -0.805   4.112   3.055 -1.5125  0.8135  0.0175
  642MOL0     H84688  -0.741   3.964   3.126 -2.0784 -1.6497  3.0655
  642MOL0     H84689  -1.024   4.080   3.160  0.1050  0.1382  0.5241
  642MOL0     H84690  -0.978   3.920   3.227 -1.0071 -1.3127 -3.0040
  642MOL0     H84691  -0.934   3.848   2.978 -0.7809 -0.3037  1.9953
  642MOL0     H84692  -1.048   3.987   2.949 -0.5648  0.4434 -0.5223
  642MOL0     H84693  -1.105   3.733   3.118  1.4354  0.0955 -0.2265
  642MOL0     H84694  -1.188   3.886   3.120  1.6714  2.8844 -2.8395
  642MOL0     H84695  -1.149   3.733   2.860  0.2668 -0.0389  0.9648
  642MOL0     H84696  -1.273   3.854   2.898  0.1516 -0.0695  0.0943
  642MOL0     H84697  -1.495   3.751   3.071 -0.3818  1.5917 -4.0735
  642MOL0     H84698  -1.641   3.584   3.156 -0.8700 -0.7892  1.0500
  642MOL0     H84699  -1.578   3.415   3.181 -1.2479 -1.3012 -0.3079
  642MOL0     H84700  -1.732   3.541   2.954  1.2293 -0.3055 -1.4551
  642MOL0     H84701  -1.787   3.415   3.066 -1.8063  1.3038 -1.5767
  642MOL0     H84702  -1.597   3.368   2.825 -3.3306 -0.8776 -2.9168
  642MOL0     H84703  -1.569   3.290   2.981 -0.1335 -0.3433 -0.9094
  642MOL0     H84704  -1.823   3.223   2.969  0.4467 -2.0524  0.3443
  642MOL0     H84705  -1.705   3.151   2.844  1.4609 -0.0707  2.6635
  642MOL0     H84706  -2.022   3.377   2.580  0.7170  1.2478  2.3940
  642MOL0     H84707  -2.232   3.294   2.552  2.4980  5.4322  1.9306
  642MOL0     H84708  -2.605   3.032   2.721 -0.3168  0.4995 -2.0993
  642MOL0     H84709  -2.802   2.911   2.653 -0.0887 -2.4896  2.6525
  642MOL0     H84710  -2.938   2.825   2.517  2.1824  0.7644  0.7325
  642MOL0     H84711  -2.981   2.741   2.665 -0.2249 -1.0852  0.6369
  642MOL0     H84712  -3.044   2.535   2.530  1.6741 -0.9086 -0.8999
  642MOL0     H84713  -3.016   2.609   2.384  0.7679 -4.0282  0.6913
  642MOL0     H84714  -3.177   2.802   2.426 -1.5170  1.7546  1.8703
  642MOL0     H84715  -3.208   2.740   2.588  0.5239 -0.1528 -0.0705
  642MOL0     H84716  -3.263   2.604   2.331  1.4499  3.0829 -0.3731
  642MOL0     H84717  -3.308   2.536   2.489  1.2568 -0.4049  0.9848
  642MOL0     H84718  -3.403   2.819   2.382  1.7620 -0.5116 -2.5644
  642MOL0     H84719  -3.470   2.727   2.520  0.2014  0.6168  0.5876
  642MOL0     H84720  -3.537   2.526   2.387  1.0159 -2.5053 -2.8271
  642MOL0     H84721  -3.498   2.594   2.242 -0.4070 -3.6081  1.8867
  642MOL0     H84722  -3.692   2.716   2.451  1.4008  1.0479 -0.2932
  642MOL0     H84723  -3.666   2.784   2.292 -4.2235  0.7600  0.1297
  642MOL0     H84724  -3.881   2.647   2.281 -0.1995 -0.9210 -0.7929
  642MOL0     H84725  -3.811   2.527   2.383 -2.7334  1.5473 -0.0506
  642MOL0     H84726  -2.592   2.559   2.562 -3.1606 -0.2685  0.5686
  642MOL0     H84727  -2.362   2.683   2.620  0.8768  2.3509 -1.1800
  642MOL0     H84728  -2.154   2.974   2.840 -1.3241  1.2781  0.0700
  642MOL0     H84729  -1.940   3.079   2.896  0.8094  0.3873  0.4584
  642MOL0     H84730  -0.184   4.190   3.182 -1.3816 -0.8722 -1.2192
  642MOL0     H84731  -0.009   4.324   3.048 -0.7263  0.4306  3.1071
  642MOL0     H84732   0.301   4.553   2.803  1.1394  1.1843  0.3330
  642MOL0     H84733   0.418   4.689   2.633  0.1688  1.8201  0.5631
  642MOL0     H84734   0.447   4.929   2.351  0.0787  0.3605  0.1655
  642MOL0     H84735   0.483   4.771   2.428  0.6604  0.4310  0.2124
  642MOL0     H84736   0.426   5.051   2.539 -1.0652  0.2748  3.6897
  642MOL0     H84737   0.429   4.921   2.649 -4.0418 -2.3566 -1.7707
  642MOL0     H84738   0.646   5.029   2.447  2.9879  0.4726  0.6410
  642MOL0     H84739   0.684   4.894   2.544  3.1214  2.0833 -0.5460
  642MOL0     H84740   0.756   5.129   2.632 -1.4998 -0.2419 -1.7116
  642MOL0     H84741   0.584   5.159   2.650  0.3895  0.7337  0.2841
  642MOL0     H84742   0.727   4.922   2.989  0.4606 -2.2790  0.0191
  642MOL0     H84743   0.033   4.797   2.472  0.4642  0.3249 -0.3134
  642MOL0     H84744  -0.072   4.703   2.651  0.4449  0.1580  1.3344
  643MOL0     O84745   5.795   6.804   3.837  0.5322 -0.4296 -0.8268
  643MOL0     C84746   5.901   6.741   3.828  0.1068 -0.1714  0.3209
  643MOL0     O84747   5.926   6.618   3.887 -0.0035  0.0115  0.3987
  643MOL0     C84748   5.851   6.585   3.998  0.5659 -0.4330  0.1439
  643MOL0     C84749   5.833   6.669   4.110  0.3956  0.3069  0.6427
  643MOL0     C84750   5.729   6.644   4.197  0.2265  0.2438 -0.1198
  643MOL0     C84751   5.631   6.549   4.175 -0.0807  0.5369  0.2985
  643MOL0     O84752   5.524   6.539   4.255 -0.0939 -0.1440 -0.2509
  643MOL0     C84753   5.478   6.408   4.279  0.5998  0.2766  0.1568
  643MOL0     C84754   5.333   6.395   4.213  0.1648  0.4965  0.0122
  643MOL0     C84755   5.233   6.481   4.284 -0.1611 -0.3246 -0.1018
  643MOL0     C84756   5.096   6.455   4.230  0.2357  0.0495  0.6063
  643MOL0     C84757   4.994   6.517   4.327 -0.0882  0.7973 -0.1103
  643MOL0     C84758   4.861   6.443   4.319  0.4618  0.1962  0.9858
  643MOL0     C84759   4.746   6.531   4.359 -0.7246 -0.5695 -0.6297
  643MOL0     C84760   4.711   6.641   4.264  0.0974 -0.4998 -0.0207
  643MOL0     N84761   4.598   6.716   4.306 -0.5309 -0.8062 -0.2240
  643MOL0     C84762   4.473   6.666   4.321  0.5090 -1.4186  0.5710
  643MOL0     C84763   4.409   6.770   4.382 -0.1213 -0.0122 -0.8828
  643MOL0     C84764   4.268   6.752   4.433 -0.2844 -0.7962  0.1243
  643MOL0     C84765   4.175   6.727   4.319 -0.0310  0.2627  0.3204
  643MOL0     C84766   4.123   6.857   4.265  0.3955  0.4844  0.4081
  643MOL0     C84767   3.998   6.838   4.175  0.3227 -0.0110  0.4080
  643MOL0     O84768   3.997   6.944   4.076 -0.1474  0.2786  0.5321
  643MOL0     C84769   3.885   6.970   3.999  0.3059 -0.1776 -0.7143
  643MOL0     C84770   3.789   6.874   3.963 -0.0355  0.9835 -0.6348
  643MOL0     C84771   3.678   6.906   3.886  0.5120 -0.6911 -0.2518
  643MOL0     C84772   3.657   7.041   3.856 -0.3528  0.2701  0.0287
  643MOL0     C84773   3.535   7.090   3.777 -1.4573  0.3372 -0.6637
  643MOL0     O84774   3.473   6.990   3.710  0.3368  0.1219  0.2343
  643MOL0     C84775   3.343   7.018   3.662 -0.6015  0.2028  0.3754
  643MOL0     C84776   3.228   6.996   3.735  0.5223  0.1009 -0.5756
  643MOL0     C84777   3.097   7.027   3.691 -0.5600 -0.1152 -0.1153
  643MOL0     C84778   3.081   7.088   3.566 -0.2110 -0.2767  0.5450
  643MOL0     O84779   2.959   7.130   3.506 -0.0476 -0.8497 -0.0196
  643MOL0     C84780   2.838   7.078   3.551  0.3326 -0.4597 -0.5529
  643MOL0     C84781   2.748   7.072   3.434  0.5068  0.0753  0.2720
  643MOL0     C84782   2.599   7.057   3.489 -0.3485 -0.2458 -0.2662
  643MOL0     C84783   2.513   7.024   3.358  0.4652 -0.0938 -0.6076
  643MOL0     C84784   2.364   7.028   3.375 -0.7660  0.1110 -0.2627
  643MOL0     C84785   2.297   6.894   3.387  0.0704  0.5484  0.1988
  643MOL0     C84786   2.141   6.888   3.402  0.3264  0.3403  0.9793
  643MOL0     C84787   2.104   6.758   3.476  0.1128  0.2112 -0.7139
  643MOL0    Cl84788   1.921   6.741   3.480  0.3183  0.0620 -0.0076
  643MOL0     C84789   3.201   7.115   3.486  1.0438 -0.5595  0.0537
  643MOL0     C84790   3.322   7.086   3.535 -0.1145 -0.3072  0.5836
  643MOL0     O84791   3.493   7.206   3.788 -0.0921  0.4115  0.5181
  643MOL0     C84792   3.743   7.141   3.912 -0.3907  0.4482 -0.1430
  643MOL0     C84793   3.864   7.107   3.970 -0.5734 -0.5050 -0.9072
  643MOL0     N84794   4.493   6.877   4.388  0.1977 -0.2968 -0.2948
  643MOL0     N84795   4.607   6.848   4.339 -0.6197 -0.0262 -0.7729
  643MOL0     C84796   5.641   6.478   4.051  0.0655 -0.1798  0.4189
  643MOL0     C84797   5.758   6.485   3.975 -0.2133 -0.0907  1.3543
  643MOL0     C84798   6.000   6.797   3.732 -0.1363  0.5097 -0.3969
  643MOL0     C84799   5.980   6.909   3.650 -0.1777 -0.4881  0.2947
  643MOL0     C84800   6.084   6.963   3.573 -0.3907 -0.2598 -0.1485
  643MOL0     C84801   6.211   6.901   3.568 -0.3875  0.2796  0.1403
  643MOL0     O84802   6.320   6.959   3.502  0.1797  0.1417  0.0216
  643MOL0     C84803   6.318   7.091   3.444 -0.7483  0.2868  0.0918
  643MOL0     C84804   6.419   7.079   3.335  0.0976 -0.4245  0.2094
  643MOL0     C84805   6.565   7.042   3.372  0.1259 -0.4961  0.0982
  643MOL0     C84806   6.649   7.013   3.240 -0.3378 -0.6979 -0.9071
  643MOL0     C84807   6.791   7.040   3.261 -0.2330 -0.5618  0.7338
  643MOL0     C84808   6.909   7.036   3.283  0.1122  0.2547 -0.7720
  643MOL0     C84809   6.222   6.786   3.637  0.0104 -0.6710 -0.8423
  643MOL0     C84810   6.118   6.725   3.713  0.0929  0.2052 -0.5690
  643MOL0     H84811   5.913   6.740   4.125  4.2635 -3.3464 -0.6360
  643MOL0     H84812   5.710   6.700   4.288  0.4002  2.9168 -1.6295
  643MOL0     H84813   5.449   6.395   4.384  1.2173  3.9966  0.9114
  643MOL0     H84814   5.551   6.332   4.248 -0.9733 -1.6289  0.8915
  643MOL0     H84815   5.294   6.294   4.223 -0.0758  0.7695  2.2073
  643MOL0     H84816   5.326   6.428   4.109  2.4055  0.4111 -0.2202
  643MOL0     H84817   5.250   6.587   4.265 -0.8858 -0.1425  0.2404
  643MOL0     H84818   5.251   6.462   4.390  1.4367  5.2303  0.9048
  643MOL0     H84819   5.081   6.499   4.131  0.6121 -1.1876 -0.0231
  643MOL0     H84820   5.079   6.347   4.235  3.4897 -0.5289  2.3418
  643MOL0     H84821   4.979   6.623   4.305  0.1238  0.9032  0.2578
  643MOL0     H84822   5.031   6.509   4.429 -0.2500 -0.5022 -0.1378
  643MOL0     H84823   4.852   6.359   4.389 -3.9893  2.1519  3.2055
  643MOL0     H84824   4.841   6.403   4.219  2.4522  0.2973  0.5067
  643MOL0     H84825   4.665   6.459   4.375  2.0166 -3.2905  2.4299
  643MOL0     H84826   4.768   6.568   4.459  0.6243  4.0034 -2.3711
  643MOL0     H84827   4.670   6.585   4.179 -0.7185  0.6799 -0.4312
  643MOL0     H84828   4.796   6.704   4.234  0.9491  0.0799  3.2129
  643MOL0     H84829   4.436   6.566   4.298  1.0396 -1.1153 -1.7952
  643MOL0     H84830   4.244   6.846   4.483 -0.9620 -0.7738 -0.2419
  643MOL0     H84831   4.265   6.668   4.502 -1.0861 -0.8531  0.0283
  643MOL0     H84832   4.083   6.672   4.342 -0.3931 -0.2501 -2.1288
  643MOL0     H84833   4.213   6.669   4.234  0.7532  1.7435 -0.3661
  643MOL0     H84834   4.096   6.933   4.339 -2.1693  0.5099 -0.4526
  643MOL0     H84835   4.209   6.893   4.208  0.8022 -0.0488  0.6740
  643MOL0     H84836   3.910   6.847   4.240 -0.7366  2.7226 -1.2525
  643MOL0     H84837   3.995   6.745   4.118  3.4948  2.1696 -3.8470
  643MOL0     H84838   3.807   6.769   3.984  3.0432  1.4133 -0.6597
  643MOL0     H84839   3.602   6.830   3.867 -0.7205  0.4131  0.1415
  643MOL0     H84840   3.247   6.946   3.830  0.6535 -0.7320 -1.0289
  643MOL0     H84841   3.019   7.000   3.761  2.0256  0.2622  3.1280
  643MOL0     H84842   2.794   7.154   3.616 -0.4933  0.0309 -1.6519
  643MOL0     H84843   2.849   6.983   3.604  3.2120  0.6908  1.1350
  643MOL0     H84844   2.766   6.989   3.365  0.8175  2.2329 -2.3897
  643MOL0     H84845   2.748   7.167   3.380 -0.3195  0.0272  0.1641
  643MOL0     H84846   2.569   7.149   3.540 -1.4933 -0.9153  0.3055
  643MOL0     H84847   2.592   6.977   3.563 -1.8022 -0.0987 -0.2064
  643MOL0     H84848   2.540   7.101   3.286  1.9615  0.5214  0.5673
  643MOL0     H84849   2.545   6.931   3.310 -0.7423 -0.3608 -0.9412
  643MOL0     H84850   2.321   7.091   3.296  0.1520 -0.5915 -1.3540
  643MOL0     H84851   2.346   7.078   3.470  4.3554  0.5120  0.7954
  643MOL0     H84852   2.341   6.845   3.474 -1.7508 -0.8618  0.3938
  643MOL0     H84853   2.326   6.839   3.296  1.9785 -2.3769  2.4015
  643MOL0     H84854   2.100   6.977   3.451 -1.2001  0.5989 -0.6791
  643MOL0     H84855   2.094   6.889   3.303 -0.7931 -1.7396  1.4421
  643MOL0     H84856   2.144   6.773   3.577  2.1527 -0.2428 -1.4099
  643MOL0     H84857   2.158   6.680   3.423  1.7401  1.7364 -1.3923
  643MOL0     H84858   3.195   7.163   3.389  0.5575 -0.9568 -0.1160
  643MOL0     H84859   3.410   7.112   3.477 -0.3987 -0.5397  0.0421
  643MOL0     H84860   3.723   7.245   3.889 -0.5365  0.0261 -2.1501
  643MOL0     H84861   3.929   7.187   4.003  0.6293 -1.5463 -0.6972
  643MOL0     H84862   5.559   6.417   4.013 -1.9344  1.1256  2.3495
  643MOL0     H84863   5.757   6.432   3.880 -1.9583  1.4804  0.4191
  643MOL0     H84864   5.886   6.963   3.643  0.8456  1.1514 -2.4766
  643MOL0     H84865   6.067   7.051   3.511 -3.5918 -2.0644 -2.0955
  643MOL0     H84866   6.349   7.170   3.513 -1.2113  2.8986 -2.4904
  643MOL0     H84867   6.221   7.123   3.402  0.1435  0.0445 -2.2921
  643MOL0     H84868   6.378   7.001   3.270 -1.0403  1.2300 -1.1497
  643MOL0     H84869   6.410   7.172   3.278 -1.1924  0.6069  1.9761
  643MOL0     H84870   6.554   6.954   3.435 -0.1490  0.2966  1.1935
  643MOL0     H84871   6.612   7.127   3.423  1.3148 -1.2741  0.3193
  643MOL0     H84872   6.627   6.912   3.203 -3.4157 -0.0575 -1.0984
  643MOL0     H84873   6.611   7.090   3.173  1.4725  1.5870  0.5334
  643MOL0     H84874   7.015   7.017   3.288 -0.0319 -0.2141  1.0199
  643MOL0     H84875   6.315   6.732   3.623 -0.4586 -1.3844 -1.3217
  643MOL0     H84876   6.137   6.625   3.750  0.3818  0.4211 -0.1244
  644MOL0     O84877   2.276   6.561   6.865 -0.3843  1.2152 -0.0205
  644MOL0     C84878   2.253   6.517   6.749  0.3113 -0.6567 -0.5231
  644MOL0     O84879   2.349   6.486   6.660 -0.5725  0.0112  0.5414
  644MOL0     C84880   2.475   6.519   6.699  0.4006  0.5189 -0.2058
  644MOL0     C84881   2.534   6.438   6.799 -0.0693  0.3489  0.2200
  644MOL0     C84882   2.671   6.440   6.835 -0.5766 -0.6614 -0.0406
  644MOL0     C84883   2.748   6.537   6.766  0.3407  0.4048 -0.1270
  644MOL0     O84884   2.883   6.523   6.790 -0.2993  0.0811 -0.1550
  644MOL0     C84885   2.969   6.560   6.684 -0.8469 -0.2811  0.5149
  644MOL0     C84886   3.114   6.489   6.705 -0.1565  0.0057  0.2545
  644MOL0     C84887   3.222   6.569   6.623  0.3432 -0.5396  0.0591
  644MOL0     C84888   3.368   6.520   6.636 -0.3855 -0.4177  0.1979
  644MOL0     C84889   3.452   6.590   6.523 -0.0095  0.1892  0.4333
  644MOL0     C84890   3.572   6.655   6.593  0.9483 -0.1064 -0.2436
  644MOL0     C84891   3.689   6.665   6.497  0.0319  0.4178 -0.3962
  644MOL0     C84892   3.817   6.677   6.582  0.4245 -1.2638  0.3630
  644MOL0     N84893   3.871   6.549   6.618  0.1366 -0.2831 -0.5019
  644MOL0     C84894   3.823   6.487   6.735 -0.0910 -0.0407 -0.3066
  644MOL0     C84895   3.877   6.365   6.727 -0.1196 -0.2074  0.9286
  644MOL0     C84896   3.851   6.241   6.814 -0.5031 -0.6916  0.2539
  644MOL0     C84897   3.724   6.174   6.784  0.6326 -0.1401 -0.3257
  644MOL0     C84898   3.716   6.048   6.873  0.2160 -0.8688  0.7040
  644MOL0     C84899   3.583   5.976   6.861 -0.5931  0.1228 -0.3446
  644MOL0     O84900   3.489   6.052   6.925  0.5930  0.1543  0.1263
  644MOL0     C84901   3.356   6.013   6.906  0.8063 -1.4333  0.3430
  644MOL0     C84902   3.267   6.108   6.863  0.6948  0.1918  0.0245
  644MOL0     C84903   3.138   6.083   6.847 -0.2165  0.1977 -0.1471
  644MOL0     C84904   3.084   5.946   6.874  0.5322 -0.6343 -0.5875
  644MOL0     C84905   2.941   5.919   6.849  0.4757  0.0587 -0.2491
  644MOL0     O84906   2.851   6.020   6.860 -0.4518 -0.2866 -0.5208
  644MOL0     C84907   2.715   5.996   6.841  0.0359 -0.3994 -0.7101
  644MOL0     C84908   2.667   5.921   6.728  0.5191 -0.0996 -0.1047
  644MOL0     C84909   2.530   5.920   6.695  0.1865  0.0884 -0.3471
  644MOL0     C84910   2.440   5.989   6.773 -0.3086 -0.0997  0.0566
  644MOL0     O84911   2.311   5.982   6.732 -0.1685  0.5775  0.0524
  644MOL0     C84912   2.254   6.105   6.716  0.6325  0.0514  0.1079
  644MOL0     C84913   2.158   6.130   6.825  0.4927  0.0396  0.0811
  644MOL0     C84914   2.056   6.031   6.864 -0.8018 -0.2755  0.0862
  644MOL0     C84915   1.981   5.962   6.753  0.5406 -0.0074  0.6140
  644MOL0     C84916   1.889   6.055   6.674  0.1564  0.2207  0.2349
  644MOL0     C84917   1.813   5.990   6.552 -0.2576  0.1913  0.1686
  644MOL0     C84918   1.699   6.087   6.501  0.4450  0.0920 -0.4176
  644MOL0     C84919   1.649   6.049   6.367  0.9699 -0.5424  0.3909
  644MOL0    Cl84920   1.517   6.149   6.325 -0.3654 -0.4773 -0.1271
  644MOL0     C84921   2.486   6.062   6.884  0.6373 -0.2109  0.2391
  644MOL0     C84922   2.626   6.069   6.923 -0.2279 -0.3740  1.0465
  644MOL0     O84923   2.916   5.802   6.826  0.2391 -0.4462 -0.0438
  644MOL0     C84924   3.171   5.845   6.906 -0.4080 -0.6818  1.2970
  644MOL0     C84925   3.313   5.879   6.926  1.1232 -0.0627 -0.0204
  644MOL0     N84926   3.963   6.359   6.615  0.1815 -0.4778 -0.1200
  644MOL0     N84927   3.939   6.466   6.542 -0.5739  0.4419 -0.9459
  644MOL0     C84928   2.691   6.620   6.667 -0.0446 -0.1076 -0.2302
  644MOL0     C84929   2.554   6.614   6.635 -0.3894  0.2061 -0.3584
  644MOL0     C84930   2.115   6.494   6.712  0.1994 -0.7050 -0.4803
  644MOL0     C84931   2.077   6.426   6.595  0.0002 -0.0633  0.0322
  644MOL0     C84932   1.948   6.415   6.551  1.1849  0.0408 -0.6175
  644MOL0     C84933   1.844   6.469   6.626 -0.2939 -0.2311 -0.1288
  644MOL0     O84934   1.714   6.449   6.580 -0.2104  0.6609 -0.3630
  644MOL0     C84935   1.614   6.546   6.625 -0.4607 -0.1341  0.6766
  644MOL0     C84936   1.484   6.532   6.543  0.0786  0.7498  0.1462
  644MOL0     C84937   1.370   6.618   6.600 -0.2990  0.2374 -0.0216
  644MOL0     C84938   1.377   6.768   6.569  0.1090 -0.0593  0.2336
  644MOL0     C84939   1.396   6.804   6.426  0.9347  0.2069 -0.3547
  644MOL0     C84940   1.411   6.805   6.307 -1.1096 -0.7634  0.2306
  644MOL0     C84941   1.870   6.522   6.755  0.6126 -0.5366 -0.7131
  644MOL0     C84942   2.004   6.542   6.788  0.4132  0.5815 -0.2222
  644MOL0     H84943   2.465   6.366   6.842  0.0399  0.4513  0.5610
  644MOL0     H84944   2.725   6.377   6.905 -2.1507 -0.2675  1.5967
  644MOL0     H84945   2.971   6.670   6.687 -1.1230 -0.2486 -0.1117
  644MOL0     H84946   2.924   6.534   6.588  0.0940 -1.7191  0.4399
  644MOL0     H84947   3.115   6.383   6.675  2.7828  0.2990 -1.0556
  644MOL0     H84948   3.143   6.499   6.810  2.7983  2.4954 -0.6414
  644MOL0     H84949   3.219   6.670   6.663  0.8020 -1.1045  1.5838
  644MOL0     H84950   3.192   6.578   6.518 -3.9049  2.6327  1.2962
  644MOL0     H84951   3.396   6.551   6.737  0.0793 -1.7041  0.4802
  644MOL0     H84952   3.386   6.412   6.632  0.2018 -0.3295  0.3698
  644MOL0     H84953   3.392   6.666   6.472 -1.2756 -2.2815 -2.0558
  644MOL0     H84954   3.481   6.517   6.447 -2.0703 -1.0546  0.7561
  644MOL0     H84955   3.607   6.585   6.670  0.1936 -0.5845 -0.3268
  644MOL0     H84956   3.551   6.757   6.625  2.0935 -0.1077  0.6204
  644MOL0     H84957   3.701   6.573   6.439 -0.4921 -0.6508  1.1275
  644MOL0     H84958   3.676   6.752   6.432  1.4709  3.3763  2.9175
  644MOL0     H84959   3.806   6.739   6.672 -1.0060 -1.1600  0.1402
  644MOL0     H84960   3.886   6.722   6.510 -1.6897 -0.5415 -1.2988
  644MOL0     H84961   3.760   6.536   6.809 -1.0893 -0.8443 -0.5946
  644MOL0     H84962   3.861   6.262   6.920  1.6860  0.9212 -0.2048
  644MOL0     H84963   3.940   6.181   6.792 -0.4275  0.0596 -1.7125
  644MOL0     H84964   3.717   6.131   6.684  0.0527 -2.8159  0.7787
  644MOL0     H84965   3.641   6.238   6.815 -0.5634 -2.2743  1.2186
  644MOL0     H84966   3.792   5.973   6.847  1.1568  0.8200 -1.8496
  644MOL0     H84967   3.724   6.079   6.978 -0.1963  0.9130  0.2392
  644MOL0     H84968   3.590   5.875   6.901 -0.8312 -0.2110 -1.1162
  644MOL0     H84969   3.547   5.968   6.757  0.6831 -1.4298 -0.6932
  644MOL0     H84970   3.302   6.210   6.851 -0.7917  0.9198  1.4402
  644MOL0     H84971   3.059   6.156   6.830 -2.1098 -0.7612  3.4150
  644MOL0     H84972   2.742   5.869   6.669  1.9237 -0.1222  1.6057
  644MOL0     H84973   2.504   5.869   6.603  0.5909 -0.3913 -0.2051
  644MOL0     H84974   2.206   6.094   6.619 -1.3449 -1.2312  1.1809
  644MOL0     H84975   2.321   6.192   6.716 -1.5210  1.8086  0.6426
  644MOL0     H84976   2.102   6.220   6.800 -3.4144 -1.6351  1.9278
  644MOL0     H84977   2.221   6.149   6.913  1.0334 -2.4813  0.3096
  644MOL0     H84978   1.984   6.083   6.928 -0.0706  2.9178 -1.5018
  644MOL0     H84979   2.094   5.952   6.930  2.2272 -0.7074 -2.0237
  644MOL0     H84980   2.055   5.916   6.687 -0.3547  2.0592 -2.0576
  644MOL0     H84981   1.919   5.885   6.801 -1.9420  1.2901 -0.2905
  644MOL0     H84982   1.947   6.141   6.639 -0.8385 -0.5992 -3.9998
  644MOL0     H84983   1.821   6.102   6.745 -0.7949 -1.4796  0.5034
  644MOL0     H84984   1.769   5.899   6.594 -0.5405  0.4995  0.5556
  644MOL0     H84985   1.884   5.966   6.472  0.7058 -2.7887  1.7568
  644MOL0     H84986   1.616   6.066   6.570  2.2711 -0.0493  1.8715
  644MOL0     H84987   1.724   6.194   6.504 -0.1467  0.2267 -0.1274
  644MOL0     H84988   1.622   5.943   6.360 -0.0719 -0.1734 -2.9520
  644MOL0     H84989   1.725   6.058   6.288 -1.3926 -1.0542 -2.0956
  644MOL0     H84990   2.412   6.122   6.936 -2.9668 -0.0413 -4.4530
  644MOL0     H84991   2.664   6.119   7.011  1.4596 -3.7704  2.4551
  644MOL0     H84992   3.142   5.740   6.911  1.3297 -1.1822  1.3144
  644MOL0     H84993   3.373   5.797   6.965  1.1499 -0.3588 -0.6677
  644MOL0     H84994   2.754   6.697   6.622  2.0027 -0.9464  1.0480
  644MOL0     H84995   2.514   6.686   6.564 -0.2182  0.7387  0.0822
  644MOL0     H84996   2.159   6.383   6.539  1.3735 -0.5534  2.3217
  644MOL0     H84997   1.923   6.369   6.456  0.0729 -1.4145  0.3452
  644MOL0     H84998   1.660   6.644   6.610 -0.7849 -0.2416 -1.1557
  644MOL0     H84999   1.580   6.531   6.728 -3.5595 -1.0350 -0.3705
  644MOL0     H85000   1.510   6.566   6.442  0.0870  0.7154  0.1370
  644MOL0     H85001   1.449   6.428   6.539 -1.6259  1.3213 -1.1927
  644MOL0     H85002   1.356   6.604   6.707 -2.4987 -1.9541 -0.5078
  644MOL0     H85003   1.276   6.583   6.558 -1.2682  1.7336  0.7969
  644MOL0     H85004   1.281   6.808   6.602  0.3213  0.0273  0.7514
  644MOL0     H85005   1.462   6.806   6.625  0.8096 -2.6925  1.1125
  644MOL0     H85006   1.425   6.820   6.202 -2.1248 -0.6525  0.1049
  644MOL0     H85007   1.787   6.560   6.813  0.3820 -0.4741 -1.0823
  644MOL0     H85008   2.025   6.579   6.888 -1.1080 -3.3953  1.8025
  645MOL0     O85009   2.384   4.351   9.489 -0.1172  0.4372  0.6069
  645MOL0     C85010   2.352   4.457   9.428  0.2191 -0.4045 -0.2638
  645MOL0     O85011   2.229   4.477   9.360  0.1805  0.3341  0.1670
  645MOL0     C85012   2.145   4.369   9.329 -0.6332 -0.5688 -0.5197
  645MOL0     C85013   2.030   4.407   9.260 -0.3239 -0.4572  0.1122
  645MOL0     C85014   1.937   4.317   9.222 -0.5702  0.1559  0.9965
  645MOL0     C85015   1.956   4.181   9.239 -0.0497  0.3391  0.2427
  645MOL0     O85016   1.863   4.083   9.211  0.6507  0.0545 -0.8128
  645MOL0     C85017   1.790   4.104   9.093  0.6854 -0.3890  0.3755
  645MOL0     C85018   1.705   3.985   9.059 -0.5260  0.0972 -0.4755
  645MOL0     C85019   1.551   4.016   9.042 -0.6753 -0.0854  0.4452
  645MOL0     C85020   1.485   3.886   9.013  0.3107  0.0813  0.2146
  645MOL0     C85021   1.333   3.904   8.995 -0.1326  0.0086  0.2560
  645MOL0     C85022   1.250   3.781   8.939 -0.4510  0.0994  0.3088
  645MOL0     C85023   1.245   3.660   9.039  0.2187 -0.0263 -0.2289
  645MOL0     C85024   1.159   3.539   8.981  0.4816  0.1694  0.2223
  645MOL0     N85025   1.009   3.543   9.018 -1.2774 -0.1348  0.1661
  645MOL0     C85026   0.918   3.438   9.001  0.2336 -0.2826 -0.3862
  645MOL0     C85027   0.800   3.499   9.027  0.1251  0.4171  0.1612
  645MOL0     C85028   0.681   3.409   9.017 -0.1226  0.2501  0.1713
  645MOL0     C85029   0.555   3.481   9.017  0.1438  0.5388 -0.1723
  645MOL0     C85030   0.511   3.533   9.154 -0.1544  0.4732  0.0982
  645MOL0     C85031   0.376   3.601   9.167  0.4363  0.0558 -0.7285
  645MOL0     O85032   0.274   3.504   9.166 -0.1230 -0.9419  0.9405
  645MOL0     C85033   0.148   3.548   9.149 -0.1042  0.2502  0.7819
  645MOL0     C85034   0.063   3.453   9.091  0.0676 -0.3335  0.5349
  645MOL0     C85035  -0.073   3.476   9.070 -0.5844 -1.0867 -0.0482
  645MOL0     C85036  -0.133   3.598   9.114 -0.4849 -0.3131  0.3281
  645MOL0     C85037  -0.276   3.641   9.092  0.1373 -0.2968  0.2976
  645MOL0     O85038  -0.363   3.548   9.034 -0.7333  0.0855  0.4589
  645MOL0     C85039  -0.493   3.553   9.042  0.3610  0.4985 -0.0561
  645MOL0     C85040  -0.571   3.665   9.005 -0.5129 -0.5959  0.4659
  645MOL0     C85041  -0.705   3.661   8.992 -0.0610 -0.0360  0.3495
  645MOL0     C85042  -0.779   3.550   9.031  0.8829  0.2690  0.1321
  645MOL0     O85043  -0.918   3.564   9.031  0.0149 -0.0557 -0.2415
  645MOL0     C85044  -1.000   3.456   9.075 -0.2722  0.5116 -0.3805
  645MOL0     C85045  -1.140   3.509   9.115  1.1253 -0.8833  0.0561
  645MOL0     C85046  -1.214   3.557   8.995 -0.1618 -0.2545  0.4420
  645MOL0     C85047  -1.359   3.562   9.020  0.0257 -0.2406  0.3469
  645MOL0     C85048  -1.442   3.617   8.900 -0.7657 -0.7589  0.7501
  645MOL0     C85049  -1.594   3.637   8.926 -0.1577  0.0486 -0.8551
  645MOL0     C85050  -1.673   3.676   8.807 -0.0082  0.4107  0.5944
  645MOL0     C85051  -1.824   3.679   8.823  0.5478 -0.5534  0.1203
  645MOL0    Cl85052  -1.890   3.512   8.836  0.1987  0.4287  0.1313
  645MOL0     C85053  -0.709   3.428   9.067 -0.3278 -0.1866  0.4101
  645MOL0     C85054  -0.568   3.433   9.071  0.3239  0.4504 -0.3158
  645MOL0     O85055  -0.317   3.746   9.152  0.2880  0.7250 -0.0824
  645MOL0     C85056  -0.042   3.686   9.185  0.3891  0.7456  0.6381
  645MOL0     C85057   0.097   3.668   9.197 -0.5392  0.5004  0.5862
  645MOL0     N85058   0.823   3.619   9.082  0.3101 -0.4527 -0.1042
  645MOL0     N85059   0.946   3.652   9.057  0.2700  0.3796  0.0542
  645MOL0     C85060   2.072   4.136   9.301  0.7447  0.1104  0.6643
  645MOL0     C85061   2.170   4.231   9.343  0.8540  0.1096 -0.5433
  645MOL0     C85062   2.445   4.575   9.451  0.4564  0.0343  0.2607
  645MOL0     C85063   2.407   4.703   9.423 -0.8254 -0.5778  0.5513
  645MOL0     C85064   2.500   4.808   9.448 -0.9113 -0.2640 -0.8449
  645MOL0     C85065   2.630   4.788   9.494  0.2733  0.2879 -0.1658
  645MOL0     O85066   2.715   4.893   9.509  0.3316 -0.3841  0.5067
  645MOL0     C85067   2.820   4.904   9.405  0.2565  0.1293  0.2427
  645MOL0     C85068   2.943   4.820   9.428  0.1380 -0.0402 -0.2773
  645MOL0     C85069   3.008   4.850   9.556 -0.4096  0.8279 -0.3850
  645MOL0     C85070   3.087   4.983   9.571  0.3001  0.2165 -0.8977
  645MOL0     C85071   3.194   4.987   9.465  0.1676 -0.3391 -0.2289
  645MOL0     C85072   3.295   4.973   9.384  0.6292 -0.2087  0.1418
  645MOL0     C85073   2.657   4.654   9.527  0.3007 -0.2802  0.2851
  645MOL0     C85074   2.570   4.550   9.505 -0.6640  1.1119 -0.3585
  645MOL0     H85075   2.021   4.511   9.229  0.9521 -1.2218 -3.3385
  645MOL0     H85076   1.848   4.355   9.173 -1.7847 -0.0903  2.8996
  645MOL0     H85077   1.859   4.135   9.013  0.7082  0.5652  0.7419
  645MOL0     H85078   1.714   4.181   9.111 -0.6254 -1.4617 -0.3841
  645MOL0     H85079   1.713   3.906   9.135  1.6582  0.5194 -0.2073
  645MOL0     H85080   1.733   3.945   8.961  2.0662  1.6293 -0.4457
  645MOL0     H85081   1.537   4.092   8.963 -4.1036 -1.0442 -0.0336
  645MOL0     H85082   1.512   4.065   9.131  0.1251  0.4621  0.5104
  645MOL0     H85083   1.518   3.850   8.915 -0.6656 -0.1263 -0.0448
  645MOL0     H85084   1.497   3.816   9.096 -1.1049  0.9942  1.2098
  645MOL0     H85085   1.317   3.980   8.919  2.2556  0.9831  0.6640
  645MOL0     H85086   1.287   3.937   9.089  0.9979  2.3982  0.0314
  645MOL0     H85087   1.287   3.744   8.843 -0.7984 -1.5449  0.7701
  645MOL0     H85088   1.150   3.819   8.919  0.0556  1.6585  0.6081
  645MOL0     H85089   1.346   3.625   9.064  0.2306 -0.7001 -1.1703
  645MOL0     H85090   1.201   3.699   9.132  0.9327 -1.0483  0.5623
  645MOL0     H85091   1.202   3.444   9.012  2.2768 -0.6287 -4.0362
  645MOL0     H85092   1.166   3.538   8.872  3.0478 -1.1807  0.3421
  645MOL0     H85093   0.942   3.344   8.953 -1.3059  0.9852 -3.9847
  645MOL0     H85094   0.692   3.342   9.103  1.3826  0.6220  0.3047
  645MOL0     H85095   0.695   3.343   8.931 -0.4864 -1.6744  1.5217
  645MOL0     H85096   0.482   3.411   8.976 -1.1181 -0.3202  3.2041
  645MOL0     H85097   0.559   3.559   8.940  0.1288 -0.4323 -1.1872
  645MOL0     H85098   0.507   3.446   9.222 -2.9006  1.0542  0.7918
  645MOL0     H85099   0.591   3.595   9.195 -0.6053 -0.6355  2.8934
  645MOL0     H85100   0.360   3.669   9.082 -2.8267 -2.3289 -2.2062
  645MOL0     H85101   0.380   3.667   9.254  2.2587 -1.8483  0.7078
  645MOL0     H85102   0.116   3.362   9.068  2.0119  0.6039  1.0845
  645MOL0     H85103  -0.137   3.394   9.040 -0.1751 -1.4692  0.1198
  645MOL0     H85104  -0.523   3.762   8.992 -0.9198 -0.0995  2.3319
  645MOL0     H85105  -0.754   3.752   8.959 -0.5116 -1.5776 -3.8684
  645MOL0     H85106  -0.973   3.405   9.168  0.1262 -1.5963 -1.5797
  645MOL0     H85107  -1.010   3.383   8.993  0.1364  1.3571 -1.1907
  645MOL0     H85108  -1.135   3.578   9.199 -2.2463 -0.2793 -0.1018
  645MOL0     H85109  -1.209   3.437   9.160 -1.0573  1.2060  0.2337
  645MOL0     H85110  -1.192   3.492   8.909 -1.7885  0.7865 -0.8225
  645MOL0     H85111  -1.178   3.660   8.985 -0.1000 -0.2360  0.8507
  645MOL0     H85112  -1.384   3.456   9.032 -0.6242 -0.6307 -3.3033
  645MOL0     H85113  -1.384   3.613   9.113 -1.3541  0.1031 -0.1837
  645MOL0     H85114  -1.422   3.542   8.823 -0.8163  0.5848 -0.6421
  645MOL0     H85115  -1.402   3.712   8.862 -1.6329  0.3873  2.5758
  645MOL0     H85116  -1.601   3.728   8.986  0.4957  0.2338 -1.0547
  645MOL0     H85117  -1.645   3.553   8.973 -2.4677  0.1922 -2.8718
  645MOL0     H85118  -1.647   3.778   8.779 -0.9978  0.7144  0.7826
  645MOL0     H85119  -1.651   3.600   8.731 -0.6940 -0.7896  1.5574
  645MOL0     H85120  -1.883   3.718   8.740  2.7221 -0.6933 -1.5895
  645MOL0     H85121  -1.865   3.726   8.913  2.5356 -0.8743  1.2560
  645MOL0     H85122  -0.775   3.343   9.083 -2.1917  0.9519 -0.7613
  645MOL0     H85123  -0.518   3.339   9.090 -1.1048 -0.8831 -2.6334
  645MOL0     H85124  -0.085   3.780   9.219 -1.9225  0.0624 -0.1620
  645MOL0     H85125   0.152   3.743   9.253 -1.3476  0.8056  0.9910
  645MOL0     H85126   2.094   4.030   9.310  0.1769 -0.0772 -0.0189
  645MOL0     H85127   2.257   4.181   9.384 -0.4235 -2.0651 -0.3151
  645MOL0     H85128   2.305   4.730   9.395 -0.1569  1.9264  0.2900
  645MOL0     H85129   2.466   4.906   9.415  1.6913  1.0569  0.1212
  645MOL0     H85130   2.855   5.006   9.390 -0.8373  0.6249  0.9629
  645MOL0     H85131   2.781   4.883   9.304 -0.2950 -1.5477  0.7718
  645MOL0     H85132   2.909   4.717   9.429  0.4565 -0.1462  1.4538
  645MOL0     H85133   3.007   4.835   9.340 -1.2298 -1.8998 -1.6724
  645MOL0     H85134   3.082   4.773   9.582 -0.7722  1.3982  2.8353
  645MOL0     H85135   2.946   4.836   9.645  0.4697 -0.8318  0.0155
  645MOL0     H85136   3.016   5.066   9.581 -1.3216 -1.0623 -1.2369
  645MOL0     H85137   3.136   4.977   9.668 -1.0880 -0.4701 -0.2057
  645MOL0     H85138   3.369   4.956   9.308  0.1557  0.2522 -0.4281
  645MOL0     H85139   2.757   4.623   9.557  0.0381  0.7897  2.4808
  645MOL0     H85140   2.606   4.451   9.530 -1.7141  0.4847 -1.2570
  646MOL0     O85141   1.209   2.827   8.995  0.0856  0.0324  0.6474
  646MOL0     C85142   1.268   2.918   9.053 -0.2143  0.0087  0.0767
  646MOL0     O85143   1.215   2.997   9.147 -0.0974  0.1730  0.0315
  646MOL0     C85144   1.099   2.976   9.211 -0.4565  0.6396  0.1164
  646MOL0     C85145   1.035   2.858   9.242 -1.2117  0.2185 -0.8494
  646MOL0     C85146   0.925   2.866   9.327 -0.2073  0.0124  0.7401
  646MOL0     C85147   0.871   2.980   9.381  1.3790  0.5785  1.3391
  646MOL0     O85148   0.762   2.960   9.469 -0.4762  0.4360 -0.2744
  646MOL0     C85149   0.667   3.070   9.479 -0.0067 -0.3643 -0.0473
  646MOL0     C85150   0.603   3.099   9.345 -1.0755  0.4587 -0.2386
  646MOL0     C85151   0.481   3.189   9.346 -0.3479 -0.1492 -0.7136
  646MOL0     C85152   0.368   3.147   9.445 -0.1620  0.0480  0.1905
  646MOL0     C85153   0.249   3.231   9.420 -0.4696  0.0874  0.2613
  646MOL0     C85154   0.138   3.187   9.519 -0.7888  0.6540 -0.1120
  646MOL0     C85155   0.008   3.263   9.499 -0.0691 -0.2250  0.2486
  646MOL0     C85156  -0.101   3.184   9.569  0.5215 -0.2320  0.0431
  646MOL0     N85157  -0.139   3.060   9.494 -0.8111  0.6475 -0.1892
  646MOL0     C85158  -0.220   3.051   9.386  0.0484  0.1809 -0.5317
  646MOL0     C85159  -0.260   2.925   9.380  0.2644  0.7236 -0.1818
  646MOL0     C85160  -0.341   2.858   9.280  0.4450  0.2496 -0.5529
  646MOL0     C85161  -0.269   2.866   9.141  0.0334  0.3848 -0.3167
  646MOL0     C85162  -0.322   2.778   9.032 -0.0727  0.6223 -0.0950
  646MOL0     C85163  -0.474   2.796   9.006 -0.1515 -0.3107 -0.9538
  646MOL0     O85164  -0.489   2.934   8.980 -0.1978 -0.7299  0.4086
  646MOL0     C85165  -0.584   2.984   8.892 -0.1666 -0.0517 -0.1040
  646MOL0     C85166  -0.586   3.129   8.881 -0.1413  0.1018  0.0129
  646MOL0     C85167  -0.688   3.198   8.810 -0.9576  0.3776 -0.0459
  646MOL0     C85168  -0.786   3.121   8.745  0.8263  0.5022 -0.4718
  646MOL0     C85169  -0.898   3.185   8.671 -0.1172  0.1884 -0.7581
  646MOL0     O85170  -1.007   3.107   8.630  0.5718 -0.2381 -0.1980
  646MOL0     C85171  -1.102   3.185   8.569  1.1271  0.4069  0.4533
  646MOL0     C85172  -1.160   3.299   8.630 -0.2848 -0.4014 -0.2209
  646MOL0     C85173  -1.259   3.369   8.557 -0.6893 -0.4178 -0.5399
  646MOL0     C85174  -1.305   3.325   8.432  0.8235  0.3332 -1.7776
  646MOL0     O85175  -1.422   3.372   8.371 -0.5286 -0.6561  0.1412
  646MOL0     C85176  -1.430   3.513   8.361  0.1189 -0.6630 -0.4897
  646MOL0     C85177  -1.546   3.555   8.269  0.1261 -0.2376  1.0163
  646MOL0     C85178  -1.540   3.501   8.126 -0.5696 -0.0352 -0.7911
  646MOL0     C85179  -1.665   3.521   8.040  0.0799  0.7367 -0.0465
  646MOL0     C85180  -1.796   3.493   8.113 -0.6558  0.4730  0.4382
  646MOL0     C85181  -1.913   3.451   8.030 -0.6852  0.0315 -0.1317
  646MOL0     C85182  -2.049   3.470   8.100 -0.1830 -0.1551 -0.5459
  646MOL0     C85183  -2.132   3.591   8.079 -0.0012 -0.9797 -0.4168
  646MOL0    Cl85184  -2.145   3.629   7.903  0.1535 -0.1827 -0.6103
  646MOL0     C85185  -1.259   3.197   8.381  0.0045  1.0081 -0.5215
  646MOL0     C85186  -1.164   3.133   8.451 -0.9485  0.5716 -0.7805
  646MOL0     O85187  -0.882   3.302   8.653 -0.9444 -0.0776  0.0599
  646MOL0     C85188  -0.778   2.982   8.751 -0.4223  0.1616  0.4369
  646MOL0     C85189  -0.683   2.914   8.825  0.4780 -0.2821 -0.9112
  646MOL0     N85190  -0.189   2.850   9.475 -0.1705 -0.1293  0.1040
  646MOL0     N85191  -0.122   2.932   9.537 -0.1908  0.8431 -0.3519
  646MOL0     C85192   0.933   3.098   9.347  1.2272 -0.2029  0.7342
  646MOL0     C85193   1.046   3.093   9.261 -0.1007 -0.3301 -0.2106
  646MOL0     C85194   1.408   2.922   9.021 -0.4694 -0.3099 -0.0609
  646MOL0     C85195   1.476   2.836   8.940 -0.2647  0.2226  0.5345
  646MOL0     C85196   1.617   2.849   8.911 -0.4108  0.2250  0.7382
  646MOL0     C85197   1.688   2.954   8.964 -0.0117 -0.1289 -0.1660
  646MOL0     O85198   1.823   2.969   8.933 -0.5585 -0.1528  0.3986
  646MOL0     C85199   1.861   3.098   8.882  0.1541 -0.5157 -0.0675
  646MOL0     C85200   2.012   3.108   8.896 -0.7963  0.6867 -0.2055
  646MOL0     C85201   2.068   3.243   8.848  0.2001 -0.0192  0.2777
  646MOL0     C85202   2.222   3.249   8.831 -0.1483  0.0337  0.1801
  646MOL0     C85203   2.301   3.222   8.951 -0.0235  0.5029 -0.0502
  646MOL0     C85204   2.364   3.217   9.056  0.1207 -0.0855  0.1830
  646MOL0     C85205   1.622   3.033   9.055 -0.3761 -0.7375  0.7281
  646MOL0     C85206   1.485   3.026   9.081 -0.3029  0.3532 -1.0620
  646MOL0     H85207   1.070   2.764   9.202 -2.5051 -0.5303 -0.2788
  646MOL0     H85208   0.875   2.772   9.349  1.6305 -1.9084 -2.4814
  646MOL0     H85209   0.714   3.163   9.510 -0.4391 -0.1199 -0.1096
  646MOL0     H85210   0.594   3.048   9.558 -0.6735  0.8110 -0.3047
  646MOL0     H85211   0.566   3.001   9.311 -0.4726 -0.7814  2.4235
  646MOL0     H85212   0.677   3.130   9.271  1.0587  1.6728  2.2366
  646MOL0     H85213   0.439   3.205   9.246  0.4092  0.7094 -0.9092
  646MOL0     H85214   0.528   3.280   9.384 -0.2188 -1.3122  2.1050
  646MOL0     H85215   0.335   3.048   9.414 -0.8130  1.0100 -2.4035
  646MOL0     H85216   0.386   3.152   9.553 -3.2731  0.5572  0.7702
  646MOL0     H85217   0.208   3.236   9.319 -1.6489  0.4705  0.7354
  646MOL0     H85218   0.281   3.335   9.437  0.3340 -0.2671  1.0031
  646MOL0     H85219   0.172   3.198   9.622  2.6990  0.4987 -1.1290
  646MOL0     H85220   0.118   3.080   9.506  1.8322  0.1443 -0.4246
  646MOL0     H85221   0.028   3.359   9.548  3.1352 -1.5967  1.8381
  646MOL0     H85222  -0.011   3.263   9.391  3.1626  0.1491 -0.4102
  646MOL0     H85223  -0.182   3.255   9.588  0.4717 -0.2124 -0.2422
  646MOL0     H85224  -0.068   3.156   9.670 -1.4387  0.5883  0.9555
  646MOL0     H85225  -0.277   3.125   9.331 -1.0502  0.6377  1.1375
  646MOL0     H85226  -0.441   2.903   9.276  0.9499  1.9244  2.6443
  646MOL0     H85227  -0.348   2.754   9.313 -1.2393  1.2286  2.6268
  646MOL0     H85228  -0.162   2.849   9.152  0.4327  1.6995 -1.7163
  646MOL0     H85229  -0.267   2.971   9.110  0.7775  0.6207  0.4991
  646MOL0     H85230  -0.262   2.796   8.943 -1.0789  0.8393 -0.7564
  646MOL0     H85231  -0.321   2.677   9.073 -3.1188 -0.3067 -1.8909
  646MOL0     H85232  -0.530   2.769   9.096  1.3257 -0.8643 -0.1785
  646MOL0     H85233  -0.508   2.726   8.929  0.1186 -1.9801  0.3844
  646MOL0     H85234  -0.499   3.180   8.921  1.6348 -1.2741 -1.8845
  646MOL0     H85235  -0.682   3.306   8.808 -0.9650  0.4168  1.3004
  646MOL0     H85236  -1.127   3.333   8.728 -2.6251  2.3710 -0.2688
  646MOL0     H85237  -1.290   3.464   8.599 -0.0625 -0.4330 -0.0296
  646MOL0     H85238  -1.338   3.561   8.326  0.9506 -1.2722  0.7997
  646MOL0     H85239  -1.451   3.537   8.466  0.5133 -1.9306 -0.1052
  646MOL0     H85240  -1.559   3.663   8.267  1.7488 -0.0091 -2.0450
  646MOL0     H85241  -1.632   3.509   8.318 -1.8125  1.8932 -0.2132
  646MOL0     H85242  -1.515   3.395   8.139 -0.2612  0.0109 -0.9997
  646MOL0     H85243  -1.462   3.552   8.069 -0.1877 -0.1169 -0.3458
  646MOL0     H85244  -1.675   3.625   8.008 -0.8488  0.0010 -2.3396
  646MOL0     H85245  -1.648   3.462   7.950 -0.1829  0.2354  0.2274
  646MOL0     H85246  -1.812   3.581   8.176  1.5745 -0.9128  3.1629
  646MOL0     H85247  -1.770   3.411   8.181  0.4609  2.0594  2.0023
  646MOL0     H85248  -1.899   3.345   8.009  0.3540  0.2694 -0.7384
  646MOL0     H85249  -1.904   3.508   7.936  1.9365 -0.9603 -0.5755
  646MOL0     H85250  -2.115   3.390   8.065 -1.5543  0.6010  0.1811
  646MOL0     H85251  -2.032   3.453   8.207  1.5386 -0.5279 -0.8548
  646MOL0     H85252  -2.101   3.675   8.141 -1.6777 -0.0881 -0.7167
  646MOL0     H85253  -2.232   3.569   8.118  1.0590  0.1376  3.3323
  646MOL0     H85254  -1.306   3.150   8.295 -1.4680 -0.0103  0.7811
  646MOL0     H85255  -1.113   3.043   8.416  0.2005 -0.2450  2.6103
  646MOL0     H85256  -0.860   2.927   8.706  0.4564 -0.5962 -0.2571
  646MOL0     H85257  -0.674   2.806   8.831  2.7118 -0.1274 -0.2406
  646MOL0     H85258   0.908   3.190   9.400 -0.8049 -0.5562  0.4729
  646MOL0     H85259   1.096   3.189   9.250 -1.2102  0.4595  1.3349
  646MOL0     H85260   1.426   2.755   8.888  1.5008  1.6518 -3.8828
  646MOL0     H85261   1.665   2.775   8.849  1.9131  0.5330  2.0470
  646MOL0     H85262   1.824   3.174   8.951 -1.3739 -0.4989 -0.8563
  646MOL0     H85263   1.818   3.118   8.784  3.6011 -2.0964 -2.1013
  646MOL0     H85264   2.045   3.088   8.998 -0.5889 -1.7221 -0.6746
  646MOL0     H85265   2.065   3.028   8.843 -0.2851  1.1489 -0.3990
  646MOL0     H85266   2.031   3.312   8.923 -0.2659 -1.9224  1.8690
  646MOL0     H85267   2.014   3.259   8.754  1.2095 -3.4673 -1.0442
  646MOL0     H85268   2.256   3.184   8.751  0.7491  1.4393 -0.6116
  646MOL0     H85269   2.256   3.344   8.791 -0.6427 -1.1208 -3.3334
  646MOL0     H85270   2.417   3.215   9.149 -0.8517  0.6154  0.7711
  646MOL0     H85271   1.680   3.113   9.100 -0.1661 -1.1403  1.1769
  646MOL0     H85272   1.434   3.094   9.147  2.6494  2.0484 -0.3568
  647MOL0     O85273  11.058   1.490   4.592  0.0507 -0.0958  0.3094
  647MOL0     C85274  11.087   1.504   4.472 -0.0355  0.1937  0.8101
  647MOL0     O85275  11.022   1.436   4.367  0.1974  0.0389 -0.3322
  647MOL0     C85276  10.904   1.372   4.385  0.4102 -0.3834  0.4594
  647MOL0     C85277  10.880   1.248   4.312 -0.6401 -0.5260  0.4179
  647MOL0     C85278  10.763   1.182   4.315 -0.0525  0.3793 -1.2203
  647MOL0     C85279  10.655   1.214   4.397 -0.5435  0.0530 -0.5566
  647MOL0     O85280  10.548   1.125   4.394  0.1556  0.2342  0.6272
  647MOL0     C85281  10.426   1.161   4.465  0.6011  0.7115  0.1170
  647MOL0     C85282  10.304   1.082   4.421  0.4349 -0.0811 -0.1697
  647MOL0     C85283  10.173   1.111   4.502 -1.1108  0.0067  0.3636
  647MOL0     C85284  10.055   1.031   4.455  0.5824  0.3409  0.4249
  647MOL0     C85285   9.932   1.075   4.537  0.5891  0.3961 -0.5331
  647MOL0     C85286   9.820   0.966   4.527  0.1974 -0.6787 -0.2631
  647MOL0     C85287   9.792   0.920   4.380  0.9038 -0.0829  1.5979
  647MOL0     C85288   9.663   0.841   4.367 -0.3795  0.3486  0.3670
  647MOL0     N85289   9.548   0.925   4.323 -0.0548  1.0005  0.2534
  647MOL0     C85290   9.497   0.941   4.197  0.2640 -0.1110 -0.4889
  647MOL0     C85291   9.400   1.033   4.212 -0.9692  0.2575 -0.0531
  647MOL0     C85292   9.296   1.076   4.109 -0.5304 -0.5293 -0.1828
  647MOL0     C85293   9.175   0.974   4.107 -0.4222  0.0898  0.0238
  647MOL0     C85294   9.081   1.007   3.989 -1.3004  0.0183  0.2930
  647MOL0     C85295   8.937   1.008   4.025 -0.4512  0.2550  0.1197
  647MOL0     O85296   8.868   1.019   3.904 -0.5404  0.8913 -0.2220
  647MOL0     C85297   8.731   1.011   3.914  0.5487  0.5622 -0.0871
  647MOL0     C85298   8.650   1.003   4.026  0.1362 -0.0607  0.8215
  647MOL0     C85299   8.516   0.979   4.010 -0.5749 -0.6957 -0.1778
  647MOL0     C85300   8.452   1.010   3.890 -0.3065  0.1815 -0.2078
  647MOL0     C85301   8.301   1.015   3.887 -0.9284 -0.5622  0.2384
  647MOL0     O85302   8.249   1.042   3.763  0.0248  0.2423  0.1089
  647MOL0     C85303   8.118   1.078   3.769  0.7195 -0.0550  0.2383
  647MOL0     C85304   8.025   1.003   3.686 -0.3037  0.6006 -0.0574
  647MOL0     C85305   7.889   1.029   3.686  1.0650  0.3815 -0.3004
  647MOL0     C85306   7.832   1.134   3.757  0.2562  0.1451  0.3210
  647MOL0     O85307   7.702   1.165   3.773 -0.2740 -0.5749 -0.6360
  647MOL0     C85308   7.605   1.065   3.767 -0.0772  0.5575  0.2956
  647MOL0     C85309   7.465   1.116   3.762 -0.1503  0.3642  0.0584
  647MOL0     C85310   7.374   1.001   3.777 -0.1552 -0.1238 -0.4093
  647MOL0     C85311   7.235   1.046   3.748 -0.1519  0.0880 -0.0824
  647MOL0     C85312   7.117   0.961   3.813 -0.0712  0.4496  0.3095
  647MOL0     C85313   6.985   0.967   3.734  0.2540  0.4272 -0.4288
  647MOL0     C85314   6.899   1.090   3.764  0.3743 -0.5475 -0.4454
  647MOL0     C85315   6.778   1.086   3.679 -0.2557 -0.7774  0.0380
  647MOL0    Cl85316   6.822   1.109   3.508  0.1232 -0.1294 -0.1231
  647MOL0     C85317   7.922   1.213   3.830 -0.1180 -0.8642 -0.5817
  647MOL0     C85318   8.063   1.187   3.830  0.0296 -0.4137  0.0809
  647MOL0     O85319   8.246   1.004   3.995 -0.0636  0.2849 -0.1719
  647MOL0     C85320   8.531   1.038   3.784 -0.1645 -0.1325  0.0436
  647MOL0     C85321   8.670   1.022   3.793  0.0115  0.4562  0.4104
  647MOL0     N85322   9.392   1.065   4.347  0.2367 -0.2133 -0.1694
  647MOL0     N85323   9.488   1.004   4.414 -0.1480  0.1069 -0.2752
  647MOL0     C85324  10.680   1.319   4.490 -0.0844  0.8837 -0.7107
  647MOL0     C85325  10.798   1.405   4.469  0.9343 -0.1370 -0.8523
  647MOL0     C85326  11.210   1.584   4.449 -0.4276 -0.6985 -0.1353
  647MOL0     C85327  11.262   1.659   4.549 -0.0267 -1.4398  0.3174
  647MOL0     C85328  11.381   1.739   4.537  0.8258 -0.1105  0.2733
  647MOL0     C85329  11.452   1.730   4.416 -0.4767 -0.5950 -0.1027
  647MOL0     O85330  11.564   1.812   4.411  0.2908 -0.0328 -0.1928
  647MOL0     C85331  11.650   1.789   4.301  1.0224  0.0926 -0.2840
  647MOL0     C85332  11.780   1.880   4.312  0.1609 -0.4271  0.0563
  647MOL0     C85333  11.871   1.871   4.195 -0.1320  0.3518  1.0659
  647MOL0     C85334  12.009   1.941   4.200 -0.5872 -0.6975 -0.0000
  647MOL0     C85335  11.993   2.080   4.159  0.2121  0.4359 -0.3786
  647MOL0     C85336  11.986   2.192   4.118 -0.0235  0.3396 -0.1657
  647MOL0     C85337  11.397   1.648   4.309 -0.6963  0.3088 -0.5365
  647MOL0     C85338  11.279   1.575   4.329  1.0834 -0.4371 -0.4226
  647MOL0     H85339  10.956   1.221   4.240  2.7378  0.7977  3.1712
  647MOL0     H85340  10.742   1.086   4.267 -0.4102  0.0495 -0.4173
  647MOL0     H85341  10.399   1.267   4.456  0.6864  0.7012 -0.2519
  647MOL0     H85342  10.443   1.141   4.572  1.1722  1.6017  0.2077
  647MOL0     H85343  10.329   0.975   4.424  2.3360  0.3620  1.2123
  647MOL0     H85344  10.288   1.105   4.315 -1.5623 -4.1137 -0.9556
  647MOL0     H85345  10.150   1.215   4.477  1.1292 -0.0247 -2.3317
  647MOL0     H85346  10.186   1.100   4.610  1.8264 -0.7795  0.0191
  647MOL0     H85347  10.039   1.048   4.348  2.3655  2.6520  0.4427
  647MOL0     H85348  10.067   0.922   4.466 -0.6406  0.3681  2.7178
  647MOL0     H85349   9.895   1.171   4.499  0.8923  0.2660 -1.1655
  647MOL0     H85350   9.954   1.078   4.644 -0.0987 -0.0577 -0.3758
  647MOL0     H85351   9.728   0.998   4.576  0.8157  2.5074 -0.9711
  647MOL0     H85352   9.860   0.878   4.578  2.9033  0.0312 -1.0008
  647MOL0     H85353   9.802   0.995   4.301  2.6335 -0.9460  0.9503
  647MOL0     H85354   9.871   0.852   4.346  0.8344  1.8231 -3.1007
  647MOL0     H85355   9.642   0.803   4.468  0.2830  2.6760  1.4583
  647MOL0     H85356   9.677   0.762   4.293  2.6991  0.1869  1.0029
  647MOL0     H85357   9.508   0.887   4.103 -0.3400  2.6940 -2.2961
  647MOL0     H85358   9.345   1.080   4.011  2.2991  1.0262  1.1539
  647MOL0     H85359   9.266   1.178   4.134 -1.8021 -1.4259  2.2473
  647MOL0     H85360   9.130   0.969   4.206  3.4129 -1.8469  1.9012
  647MOL0     H85361   9.212   0.871   4.108  2.9227  1.1698  0.5322
  647MOL0     H85362   9.109   1.107   3.955  0.6161 -0.1934  1.0982
  647MOL0     H85363   9.107   0.936   3.910 -0.1831  0.6840  0.0450
  647MOL0     H85364   8.917   1.092   4.093  0.5018 -0.5688  1.4911
  647MOL0     H85365   8.910   0.922   4.087 -0.0470 -0.2900 -0.4541
  647MOL0     H85366   8.688   0.991   4.127  1.6435 -1.3975  0.1381
  647MOL0     H85367   8.449   0.954   4.092 -0.8746 -1.2425 -0.5760
  647MOL0     H85368   8.062   0.912   3.641 -0.6234  0.3978  0.0910
  647MOL0     H85369   7.826   0.957   3.634  1.5363 -0.1340 -0.1677
  647MOL0     H85370   7.616   1.001   3.854 -2.1419 -0.6321 -0.2377
  647MOL0     H85371   7.612   1.010   3.673  0.6719  3.1524 -1.2932
  647MOL0     H85372   7.440   1.176   3.674 -1.0933  1.6869  1.1724
  647MOL0     H85373   7.447   1.185   3.845 -0.2748  1.0031 -0.4904
  647MOL0     H85374   7.382   0.959   3.878  1.2346  0.5133 -0.2304
  647MOL0     H85375   7.406   0.925   3.705  3.1613  3.0139 -2.5779
  647MOL0     H85376   7.234   1.150   3.783  0.5409  0.9856 -2.5618
  647MOL0     H85377   7.210   1.052   3.642  0.4192 -3.5883 -0.5431
  647MOL0     H85378   7.100   1.017   3.906  2.9308  0.5116  0.9291
  647MOL0     H85379   7.139   0.855   3.832 -0.3263  0.1937 -0.7574
  647MOL0     H85380   6.927   0.880   3.765  0.1353  0.2293 -1.1785
  647MOL0     H85381   6.997   0.962   3.625 -1.0912  2.1672 -0.6957
  647MOL0     H85382   6.872   1.090   3.870 -0.3015 -0.6151 -0.6142
  647MOL0     H85383   6.958   1.178   3.736  1.0127 -1.3540 -1.7115
  647MOL0     H85384   6.706   1.164   3.709 -0.9427 -0.5727 -2.0016
  647MOL0     H85385   6.723   0.993   3.696 -0.4526 -1.1850 -2.5524
  647MOL0     H85386   7.892   1.295   3.894  0.2406 -0.1970 -1.2655
  647MOL0     H85387   8.122   1.257   3.889  1.1303 -0.3943 -1.0066
  647MOL0     H85388   8.486   1.060   3.688  0.0854 -2.9727 -0.8362
  647MOL0     H85389   8.739   1.032   3.709  0.9538 -0.0010  1.1155
  647MOL0     H85390  10.604   1.346   4.562 -1.0157 -0.1206 -1.2844
  647MOL0     H85391  10.793   1.485   4.542 -3.8314 -1.0524  0.1568
  647MOL0     H85392  11.211   1.670   4.645 -2.7237  0.9642 -1.2086
  647MOL0     H85393  11.416   1.792   4.625  1.2725 -0.3485  0.2423
  647MOL0     H85394  11.589   1.828   4.219 -1.8096  1.1155  2.1363
  647MOL0     H85395  11.680   1.685   4.289  1.7033  0.3299 -0.7730
  647MOL0     H85396  11.744   1.983   4.308  1.8471  0.2952  2.0301
  647MOL0     H85397  11.829   1.859   4.407  2.2237 -0.0230 -0.8806
  647MOL0     H85398  11.822   1.893   4.100  0.2278 -0.2990  0.7153
  647MOL0     H85399  11.900   1.767   4.180 -1.7524  0.0422 -0.2114
  647MOL0     H85400  12.053   1.925   4.299 -0.5350 -0.1480  0.0696
  647MOL0     H85401  12.059   1.884   4.122 -3.3324 -0.7674 -1.8475
  647MOL0     H85402  11.998   2.284   4.065  1.0364  0.3712  0.1044
  647MOL0     H85403  11.439   1.644   4.209 -4.5109  3.0412 -2.4977
  647MOL0     H85404  11.246   1.503   4.255  0.3982  2.0996 -2.7523
  648MOL0     O85405   6.781   1.504   7.962  0.5519  0.4381 -0.5802
  648MOL0     C85406   6.740   1.589   7.883 -0.4188  0.0159 -0.0332
  648MOL0     O85407   6.828   1.660   7.805 -0.1370 -0.0183  0.5303
  648MOL0     C85408   6.965   1.631   7.812  0.6814 -0.7713 -0.2632
  648MOL0     C85409   7.039   1.619   7.695 -0.2941 -0.1713 -0.4348
  648MOL0     C85410   7.174   1.599   7.693  0.0986  0.4981 -0.4120
  648MOL0     C85411   7.247   1.601   7.813 -0.4558 -0.3338  1.1003
  648MOL0     O85412   7.383   1.609   7.821  0.5983 -0.4142  0.5385
  648MOL0     C85413   7.434   1.499   7.887 -0.1022  0.4842 -0.2815
  648MOL0     C85414   7.588   1.516   7.885  0.0521 -0.3659 -0.2387
  648MOL0     C85415   7.663   1.387   7.905  0.2641  0.5300  0.9690
  648MOL0     C85416   7.801   1.415   7.957  0.1421 -0.0218 -0.9989
  648MOL0     C85417   7.905   1.303   7.947 -0.1305 -0.0672 -0.9563
  648MOL0     C85418   7.925   1.249   7.802  0.2031  0.8860 -0.6078
  648MOL0     C85419   7.949   1.354   7.694  0.5831 -0.8088 -0.8194
  648MOL0     C85420   8.017   1.295   7.575 -0.8048 -0.5458 -0.1898
  648MOL0     N85421   7.975   1.361   7.449 -0.0000  0.3119 -0.1024
  648MOL0     C85422   7.988   1.492   7.414  0.5696 -0.3786  0.0088
  648MOL0     C85423   7.929   1.500   7.295  0.1663 -0.9909  0.9697
  648MOL0     C85424   7.938   1.617   7.194 -0.1249 -0.2354 -0.4966
  648MOL0     C85425   7.806   1.619   7.124  0.3885 -0.4720  0.5121
  648MOL0     C85426   7.796   1.748   7.038  0.2983  0.6484  0.3624
  648MOL0     C85427   7.663   1.735   6.965  0.3502  0.1821 -0.0297
  648MOL0     O85428   7.561   1.805   7.039 -0.5542 -0.3330  0.3368
  648MOL0     C85429   7.430   1.798   7.001  0.4769 -0.3480 -0.5571
  648MOL0     C85430   7.337   1.872   7.085 -0.0253 -0.9850  0.0424
  648MOL0     C85431   7.200   1.860   7.064 -0.0918 -0.4608  0.0397
  648MOL0     C85432   7.160   1.784   6.951 -0.3410 -0.1036  0.2143
  648MOL0     C85433   7.022   1.788   6.907  0.5967 -0.3280  0.1663
  648MOL0     O85434   7.000   1.730   6.786 -0.0604 -0.7203  0.1129
  648MOL0     C85435   6.869   1.729   6.742  0.6431  0.2380 -0.0539
  648MOL0     C85436   6.819   1.595   6.708  0.4974 -0.0573  0.2405
  648MOL0     C85437   6.683   1.580   6.671 -0.5208 -0.1125 -0.1073
  648MOL0     C85438   6.605   1.699   6.657 -0.5289  0.4593  0.3548
  648MOL0     O85439   6.478   1.690   6.623  0.1906  0.2530 -0.1614
  648MOL0     C85440   6.445   1.602   6.515  0.5943  0.6135 -0.2123
  648MOL0     C85441   6.306   1.645   6.473 -0.5402 -0.0650  0.3993
  648MOL0     C85442   6.213   1.529   6.410 -0.3425 -0.1686 -0.1142
  648MOL0     C85443   6.276   1.497   6.272 -0.5469 -0.1421  0.3532
  648MOL0     C85444   6.244   1.600   6.168  0.0322 -0.6402 -0.3708
  648MOL0     C85445   6.144   1.551   6.074  1.2021  0.4541 -0.3422
  648MOL0     C85446   6.135   1.622   5.940 -0.0183  0.3687 -0.1026
  648MOL0     C85447   6.060   1.536   5.835 -1.0181  0.8630 -0.0756
  648MOL0    Cl85448   6.177   1.441   5.740  0.1486 -0.2730 -0.0117
  648MOL0     C85449   6.651   1.826   6.682 -0.3045  0.2314  0.2444
  648MOL0     C85450   6.786   1.842   6.724  0.4282 -0.4690 -0.5905
  648MOL0     O85451   6.937   1.825   6.988 -0.3063  0.2686 -0.8485
  648MOL0     C85452   7.254   1.720   6.859  0.6595 -0.1925  0.4338
  648MOL0     C85453   7.392   1.723   6.888  0.5607  0.6105 -0.8931
  648MOL0     N85454   7.876   1.377   7.264 -0.0158  0.7172  0.3037
  648MOL0     N85455   7.894   1.292   7.358 -0.0509 -0.2592 -0.1429
  648MOL0     C85456   7.177   1.612   7.933 -0.2041 -0.4776 -0.7555
  648MOL0     C85457   7.035   1.631   7.930 -0.0888 -0.1296 -0.4231
  648MOL0     C85458   6.595   1.600   7.875 -0.4006  0.1169 -0.2496
  648MOL0     C85459   6.515   1.500   7.928 -0.2904  0.1546 -0.0736
  648MOL0     C85460   6.376   1.514   7.932 -0.8823  0.1946  0.3932
  648MOL0     C85461   6.323   1.630   7.875  0.3235 -0.6407  0.1550
  648MOL0     O85462   6.191   1.635   7.874  0.6263 -0.4530  0.8739
  648MOL0     C85463   6.125   1.767   7.869  0.2227  0.1973  0.0208
  648MOL0     C85464   5.974   1.758   7.900 -0.5164  0.6290  0.0898
  648MOL0     C85465   5.895   1.672   7.800 -0.0362  0.2681  0.4249
  648MOL0     C85466   5.752   1.657   7.841 -0.3311 -0.1697  0.6226
  648MOL0     C85467   5.689   1.538   7.791  0.9265 -0.2143  0.0228
  648MOL0     C85468   5.628   1.441   7.750 -0.3897  0.4636  0.2554
  648MOL0     C85469   6.403   1.730   7.821  0.1624  0.1191  0.0206
  648MOL0     C85470   6.542   1.715   7.816 -0.8057 -0.8289 -0.1888
  648MOL0     H85471   6.998   1.615   7.595  0.2768 -3.3140 -0.6377
  648MOL0     H85472   7.222   1.598   7.596  0.0131 -3.1116 -0.5273
  648MOL0     H85473   7.393   1.403   7.853 -2.9331  1.6600 -0.5183
  648MOL0     H85474   7.407   1.510   7.992  1.0591 -0.9788  0.1928
  648MOL0     H85475   7.617   1.578   7.970  0.5657 -2.0103  0.8514
  648MOL0     H85476   7.618   1.555   7.788 -1.1564  0.5105 -0.2844
  648MOL0     H85477   7.659   1.316   7.822 -1.3141 -2.8164  3.6804
  648MOL0     H85478   7.597   1.341   7.979 -1.9120  1.3099 -0.4102
  648MOL0     H85479   7.828   1.511   7.911  3.1674  0.0908  0.7402
  648MOL0     H85480   7.789   1.449   8.060  1.3033  1.9004 -1.4447
  648MOL0     H85481   7.864   1.219   8.005 -0.9077 -0.4155 -1.9826
  648MOL0     H85482   8.008   1.324   7.979  0.1682  1.1315 -2.5709
  648MOL0     H85483   7.836   1.190   7.782  0.1228  0.4836  0.8284
  648MOL0     H85484   8.005   1.175   7.808 -2.0778 -1.6650  3.2460
  648MOL0     H85485   7.861   1.410   7.660  2.0575  0.8311 -2.0968
  648MOL0     H85486   8.007   1.434   7.741 -1.4123 -1.2882  2.8543
  648MOL0     H85487   7.995   1.188   7.567 -2.0299 -0.2366 -1.3587
  648MOL0     H85488   8.124   1.312   7.589 -1.5182  6.7095  0.3046
  648MOL0     H85489   8.042   1.574   7.461  1.1369 -0.8297  0.1583
  648MOL0     H85490   8.017   1.592   7.123 -0.0157 -0.3804 -0.3254
  648MOL0     H85491   7.962   1.709   7.247  4.1693 -1.9345  0.9499
  648MOL0     H85492   7.722   1.622   7.194  0.8253  1.3662  1.0177
  648MOL0     H85493   7.785   1.529   7.065 -5.3233  0.6641  0.1850
  648MOL0     H85494   7.800   1.845   7.090 -2.6989 -0.8373  3.7310
  648MOL0     H85495   7.879   1.754   6.967 -1.3829 -0.0326 -1.7708
  648MOL0     H85496   7.640   1.631   6.944 -2.1110  0.1639  2.2072
  648MOL0     H85497   7.679   1.787   6.870  2.8573 -1.0417 -0.3606
  648MOL0     H85498   7.373   1.937   7.164 -1.5889 -0.2783  0.2262
  648MOL0     H85499   7.132   1.921   7.123  0.1522 -0.0407 -0.1091
  648MOL0     H85500   6.882   1.507   6.709  0.8698  0.1884 -0.8098
  648MOL0     H85501   6.652   1.479   6.646  1.2798 -0.9658  0.8999
  648MOL0     H85502   6.435   1.495   6.536 -1.5935  1.1065  1.5663
  648MOL0     H85503   6.511   1.602   6.427  0.4720 -3.6125 -0.5068
  648MOL0     H85504   6.320   1.725   6.400 -0.9633  0.8552  1.3046
  648MOL0     H85505   6.240   1.676   6.554 -0.8257  2.2796 -0.6531
  648MOL0     H85506   6.113   1.573   6.404 -0.6384  0.2361  4.5154
  648MOL0     H85507   6.208   1.443   6.477 -1.0007 -1.3452 -1.5954
  648MOL0     H85508   6.381   1.481   6.296 -0.0335  0.0979 -1.6352
  648MOL0     H85509   6.240   1.399   6.241  1.4037  0.3709 -4.3794
  648MOL0     H85510   6.336   1.616   6.112 -0.2200  0.7468 -0.4217
  648MOL0     H85511   6.205   1.691   6.215 -0.6664 -0.6271 -0.9569
  648MOL0     H85512   6.045   1.539   6.119  1.4767  2.2586  0.8472
  648MOL0     H85513   6.179   1.453   6.038  0.4746  0.5648 -1.4321
  648MOL0     H85514   6.083   1.717   5.950 -1.2612 -0.0382 -2.2472
  648MOL0     H85515   6.236   1.636   5.899  2.4015  0.3617  5.0248
  648MOL0     H85516   6.005   1.600   5.766 -0.1214  1.7068 -0.0428
  648MOL0     H85517   6.000   1.455   5.876  1.9042 -0.5525  1.7778
  648MOL0     H85518   6.585   1.912   6.671 -1.2314 -0.6796 -1.8922
  648MOL0     H85519   6.833   1.939   6.739 -0.2753  0.0393 -1.5311
  648MOL0     H85520   7.219   1.671   6.769 -1.3703  1.0855  0.4634
  648MOL0     H85521   7.469   1.669   6.833 -1.4761 -1.8321 -1.5475
  648MOL0     H85522   7.225   1.637   8.027 -0.9187  0.1253 -0.5410
  648MOL0     H85523   6.977   1.637   8.022  0.1189  1.4694 -0.3590
  648MOL0     H85524   6.567   1.413   7.965 -0.3381 -0.0214 -0.4179
  648MOL0     H85525   6.326   1.428   7.976  1.3952 -1.7666 -0.6131
  648MOL0     H85526   6.136   1.804   7.766  2.9824 -1.8944 -0.5689
  648MOL0     H85527   6.170   1.830   7.945 -0.5700 -0.7294  1.3034
  648MOL0     H85528   5.969   1.710   7.998 -0.1362  0.0918 -0.1501
  648MOL0     H85529   5.933   1.859   7.899  0.9164  1.3423  2.8276
  648MOL0     H85530   5.935   1.571   7.785 -0.2768  0.5021 -2.1693
  648MOL0     H85531   5.904   1.732   7.709  2.6937  2.6585  2.0717
  648MOL0     H85532   5.740   1.665   7.950 -1.2922 -0.6186  0.5603
  648MOL0     H85533   5.698   1.740   7.796  2.5100  0.8205 -1.2656
  648MOL0     H85534   5.571   1.356   7.718 -1.0385  1.0078 -0.0585
  648MOL0     H85535   6.365   1.824   7.783  0.6432  0.7035  0.9530
  648MOL0     H85536   6.611   1.787   7.772 -0.8476 -1.2285 -0.9248
  649MOL0     O85537   6.618   0.239   4.281  0.6082  0.6949  0.3305
  649MOL0     C85538   6.591   0.355   4.280 -0.4239 -0.3228 -0.1654
  649MOL0     O85539   6.460   0.408   4.295 -0.6553  0.8302  0.2712
  649MOL0     C85540   6.352   0.323   4.327  0.0773  0.3523 -0.4721
  649MOL0     C85541   6.363   0.243   4.438 -0.0931  0.6819 -0.6739
  649MOL0     C85542   6.250   0.159   4.469 -0.5205  0.3400 -0.4937
  649MOL0     C85543   6.128   0.184   4.406  0.1917  0.7675 -1.1620
  649MOL0     O85544   6.022   0.110   4.444 -0.1331  0.4824 -0.3116
  649MOL0     C85545   5.889   0.122   4.389  0.2765  0.3439 -0.2276
  649MOL0     C85546   5.806   0.018   4.465  0.4476  0.5370  0.3151
  649MOL0     C85547   5.652   0.026   4.437 -0.7088 -0.6335  0.7653
  649MOL0     C85548   5.569  -0.090   4.497  0.2058 -0.8388 -0.4979
  649MOL0     C85549   5.610  -0.105   4.646 -0.0966  0.2535 -0.4267
  649MOL0     C85550   5.510  -0.201   4.722  0.5149 -0.0630  0.5205
  649MOL0     C85551   5.359  -0.175   4.717 -1.1512  1.1146  0.4793
  649MOL0     C85552   5.313  -0.038   4.772  1.1066  0.4416  1.0076
  649MOL0     N85553   5.168  -0.039   4.781  0.3838  0.3065 -0.0064
  649MOL0     C85554   5.096  -0.102   4.884 -0.1488  0.9643  0.3274
  649MOL0     C85555   4.969  -0.101   4.835 -0.1894  0.7212 -0.8503
  649MOL0     C85556   4.856  -0.184   4.902  0.0416  0.4016  0.0153
  649MOL0     C85557   4.720  -0.133   4.854 -0.1842 -0.7016  0.8697
  649MOL0     C85558   4.606  -0.206   4.921  0.3929  0.6846 -0.1270
  649MOL0     C85559   4.481  -0.122   4.893  0.6487 -0.0851  0.3989
  649MOL0     O85560   4.473  -0.017   4.993  0.3157 -0.5337 -0.4596
  649MOL0     C85561   4.379   0.082   4.989  0.6888 -0.1209 -0.4875
  649MOL0     C85562   4.269   0.098   4.912  0.1786 -0.3679  0.5573
  649MOL0     C85563   4.177   0.203   4.934  0.0256  0.6862  0.8311
  649MOL0     C85564   4.193   0.294   5.034 -0.4803  0.2174  0.7985
  649MOL0     C85565   4.080   0.395   5.047  0.2166  0.0038 -0.1737
  649MOL0     O85566   3.963   0.386   4.979  0.2077  0.2181  0.4388
  649MOL0     C85567   3.851   0.470   4.987 -0.3481 -0.7987  0.0381
  649MOL0     C85568   3.740   0.420   4.918 -0.1762 -0.1327 -0.4570
  649MOL0     C85569   3.611   0.462   4.928 -0.0287  0.0044  0.6454
  649MOL0     C85570   3.596   0.588   4.997  0.6226 -0.0842 -0.2209
  649MOL0     O85571   3.475   0.650   5.013  0.1069 -0.6553 -0.1437
  649MOL0     C85572   3.358   0.586   4.947 -0.4858  0.3294 -0.9974
  649MOL0     C85573   3.252   0.686   4.930  0.7019  0.0208  0.6957
  649MOL0     C85574   3.118   0.627   4.882 -0.1724  0.9369  0.5099
  649MOL0     C85575   3.007   0.730   4.902  1.2696  0.7019 -0.4690
  649MOL0     C85576   2.872   0.675   4.848  0.3981 -0.6138  0.1345
  649MOL0     C85577   2.751   0.761   4.876 -0.1136 -0.0812  0.0014
  649MOL0     C85578   2.625   0.730   4.789 -0.0495 -0.4394  0.4226
  649MOL0     C85579   2.501   0.837   4.805 -0.3704  0.0385 -0.2367
  649MOL0    Cl85580   2.393   0.776   4.927  0.3038 -0.6394 -0.3341
  649MOL0     C85581   3.705   0.650   5.062 -0.1201 -0.5153 -0.4144
  649MOL0     C85582   3.834   0.593   5.060 -1.4205 -0.1655 -0.2176
  649MOL0     O85583   4.110   0.492   5.121  0.4929  0.1300 -0.2658
  649MOL0     C85584   4.302   0.285   5.121 -1.1339 -0.3508  0.6227
  649MOL0     C85585   4.387   0.172   5.096 -0.5615  0.2539 -0.2986
  649MOL0     N85586   4.968  -0.021   4.725  0.5636 -0.0214 -0.2382
  649MOL0     N85587   5.087   0.015   4.689 -0.6503 -0.1490 -0.0681
  649MOL0     C85588   6.124   0.272   4.297  1.1735  0.2612 -0.5904
  649MOL0     C85589   6.236   0.345   4.248 -0.2106  0.6131 -0.0160
  649MOL0     C85590   6.707   0.438   4.265 -0.9343  0.4292 -0.2135
  649MOL0     C85591   6.694   0.580   4.250  0.4052  0.1467  0.3340
  649MOL0     C85592   6.808   0.654   4.229 -0.5376 -0.4285  0.2893
  649MOL0     C85593   6.934   0.592   4.217 -0.6611 -0.9133 -0.4553
  649MOL0     O85594   7.047   0.669   4.194  0.6727 -0.0574 -0.0074
  649MOL0     C85595   7.130   0.685   4.307 -0.2853 -0.5687 -0.5023
  649MOL0     C85596   7.261   0.758   4.267 -0.4549  0.5679  0.4850
  649MOL0     C85597   7.238   0.899   4.206  0.6722 -0.2898  0.5965
  649MOL0     C85598   7.365   0.972   4.192 -0.1704 -0.0375 -0.1816
  649MOL0     C85599   7.357   1.110   4.133 -0.3938  0.6662  0.5930
  649MOL0     C85600   7.359   1.230   4.108 -0.0113  0.0564  0.3613
  649MOL0     C85601   6.947   0.456   4.240 -0.4895 -0.6878  0.6076
  649MOL0     C85602   6.841   0.381   4.268  0.5249 -0.4493 -0.8591
  649MOL0     H85603   6.456   0.238   4.494 -1.3804 -0.5413  1.4883
  649MOL0     H85604   6.268   0.092   4.553 -0.4372 -0.3184 -1.0199
  649MOL0     H85605   5.885   0.106   4.281 -2.0358  3.5361 -0.7558
  649MOL0     H85606   5.832   0.213   4.408 -2.0192 -1.1774  0.5958
  649MOL0     H85607   5.823   0.028   4.572 -0.4679 -0.9820  0.6383
  649MOL0     H85608   5.835  -0.082   4.432 -1.5930  0.1505 -0.4623
  649MOL0     H85609   5.627   0.013   4.331 -1.0444 -0.3160  0.8013
  649MOL0     H85610   5.611   0.120   4.475 -0.7180  0.0510 -0.8541
  649MOL0     H85611   5.462  -0.068   4.487  0.7356  1.4981 -1.9830
  649MOL0     H85612   5.594  -0.188   4.457 -1.0340 -1.2237 -0.3701
  649MOL0     H85613   5.611  -0.008   4.697  1.8940 -0.2618  0.6372
  649MOL0     H85614   5.710  -0.150   4.650 -1.7155 -4.0659 -2.3119
  649MOL0     H85615   5.536  -0.208   4.828  3.8400  1.4540 -0.0569
  649MOL0     H85616   5.523  -0.303   4.684  0.7736  0.4133 -0.7324
  649MOL0     H85617   5.325  -0.189   4.614  1.4635 -1.2763 -0.1761
  649MOL0     H85618   5.317  -0.257   4.777 -0.9356  1.2700  0.8480
  649MOL0     H85619   5.348   0.043   4.707 -0.6740  0.0274 -0.5617
  649MOL0     H85620   5.354  -0.022   4.872 -0.1202  2.8446  1.1948
  649MOL0     H85621   5.149  -0.156   4.963  0.0132  0.6263 -0.0072
  649MOL0     H85622   4.855  -0.165   5.010  0.7190  1.0632 -0.0866
  649MOL0     H85623   4.874  -0.290   4.882 -0.7893 -0.3273  2.7293
  649MOL0     H85624   4.704  -0.148   4.747  0.6009 -1.2716  0.8200
  649MOL0     H85625   4.720  -0.026   4.878  0.1088 -0.2724 -0.9532
  649MOL0     H85626   4.591  -0.304   4.876 -2.3977  1.1394 -0.3636
  649MOL0     H85627   4.609  -0.213   5.030 -1.3834  0.0406 -0.0941
  649MOL0     H85628   4.387  -0.179   4.901 -0.3624  1.5795  1.0068
  649MOL0     H85629   4.491  -0.080   4.793  1.2510 -1.1411 -0.0047
  649MOL0     H85630   4.257   0.028   4.830  5.1982  0.5251 -1.2771
  649MOL0     H85631   4.084   0.215   4.879  0.7438  2.0037 -0.1544
  649MOL0     H85632   3.753   0.329   4.861  2.0214  0.7035 -1.4348
  649MOL0     H85633   3.536   0.398   4.884  0.2601 -0.5732  0.9852
  649MOL0     H85634   3.330   0.507   5.018  1.1057  0.7579  0.1801
  649MOL0     H85635   3.369   0.541   4.848 -2.9001 -2.2217 -0.2390
  649MOL0     H85636   3.285   0.768   4.865  1.9575 -0.2437  0.9790
  649MOL0     H85637   3.236   0.734   5.027 -0.4816 -0.9466  0.9974
  649MOL0     H85638   3.107   0.537   4.943 -0.7449  1.7083  1.5931
  649MOL0     H85639   3.136   0.598   4.778  3.3891 -0.9706  1.5190
  649MOL0     H85640   2.985   0.739   5.009  0.7441  1.0109 -0.5983
  649MOL0     H85641   3.033   0.829   4.866 -0.3082  1.5406  0.5567
  649MOL0     H85642   2.846   0.578   4.890 -1.4263 -0.2048  0.0448
  649MOL0     H85643   2.884   0.673   4.739  1.7630 -0.5107  0.2688
  649MOL0     H85644   2.790   0.860   4.851 -0.7695  0.3687  0.7114
  649MOL0     H85645   2.733   0.743   4.983  2.1443 -2.2290  0.1129
  649MOL0     H85646   2.665   0.725   4.688  1.6702  1.2885  0.9577
  649MOL0     H85647   2.587   0.629   4.805 -2.1456  0.2937  0.4484
  649MOL0     H85648   2.451   0.835   4.707 -1.0290 -0.0082  0.0978
  649MOL0     H85649   2.539   0.936   4.832 -0.8628 -0.1616  1.2891
  649MOL0     H85650   3.692   0.746   5.111 -2.1573 -1.3107  0.7558
  649MOL0     H85651   3.919   0.637   5.111 -2.0443  0.4610  0.2918
  649MOL0     H85652   4.322   0.361   5.197 -0.6686 -2.1012  2.3193
  649MOL0     H85653   4.472   0.150   5.159 -0.2629  0.4748 -0.6210
  649MOL0     H85654   6.022   0.278   4.259 -0.2539 -0.1505  2.7517
  649MOL0     H85655   6.236   0.404   4.157 -0.9225 -1.2886 -1.3005
  649MOL0     H85656   6.594   0.621   4.261  0.5865  0.0430  2.8707
  649MOL0     H85657   6.803   0.761   4.213 -0.5109 -0.4686  0.0079
  649MOL0     H85658   7.168   0.593   4.351  2.6526  1.7181  2.2061
  649MOL0     H85659   7.072   0.728   4.389  0.4800 -2.5968  1.2141
  649MOL0     H85660   7.328   0.773   4.352  1.2317 -1.3699 -0.4190
  649MOL0     H85661   7.316   0.685   4.208  0.2222  0.4481  1.2474
  649MOL0     H85662   7.193   0.970   4.276  1.9006  1.6384 -0.4685
  649MOL0     H85663   7.182   0.887   4.113  0.1305 -2.4348  1.1380
  649MOL0     H85664   7.409   0.990   4.290 -1.8316  0.0255  0.5948
  649MOL0     H85665   7.438   0.912   4.137  0.8781  1.4718 -0.5027
  649MOL0     H85666   7.375   1.336   4.096  1.6376 -0.2073 -0.0282
  649MOL0     H85667   7.044   0.408   4.232 -0.7299 -1.0501 -0.3519
  649MOL0     H85668   6.863   0.277   4.287  1.6623 -0.0466  0.1229
  650MOL0     O85669  11.204   5.834   2.915 -0.0518  0.9583  0.3009
  650MOL0     C85670  11.271   5.771   2.835 -0.0618  1.4627 -1.1058
  650MOL0     O85671  11.234   5.659   2.764  1.0477 -0.0183  0.2210
  650MOL0     C85672  11.101   5.608   2.759 -1.5624 -0.0518 -0.1493
  650MOL0     C85673  11.095   5.475   2.737 -0.6746 -0.5033  0.1889
  650MOL0     C85674  10.977   5.408   2.734  0.0748 -0.1293  0.1933
  650MOL0     C85675  10.862   5.481   2.760 -0.1005  0.2580  0.8581
  650MOL0     O85676  10.743   5.425   2.742 -0.1220  0.0453 -0.0005
  650MOL0     C85677  10.703   5.319   2.830  1.2981  0.0932  1.2089
  650MOL0     C85678  10.574   5.250   2.784  0.3632 -0.3449 -0.2903
  650MOL0     C85679  10.449   5.341   2.776  0.1421  0.1493  0.2941
  650MOL0     C85680  10.325   5.281   2.692 -1.0426 -0.3637 -0.1586
  650MOL0     C85681  10.336   5.308   2.550 -0.3865 -0.0627  0.0517
  650MOL0     C85682  10.225   5.231   2.473 -0.0747 -0.4266 -0.1914
  650MOL0     C85683  10.237   5.267   2.328  0.5946  0.5581  0.7993
  650MOL0     C85684  10.148   5.181   2.235 -0.1339 -0.0529  0.3743
  650MOL0     N85685  10.009   5.206   2.262 -0.0244 -0.6986 -0.1651
  650MOL0     C85686   9.930   5.177   2.369 -0.2437  0.6247  0.3319
  650MOL0     C85687   9.837   5.267   2.350  0.2292  0.0494  0.3745
  650MOL0     C85688   9.723   5.275   2.448  1.0618 -0.5121 -0.6598
  650MOL0     C85689   9.614   5.164   2.417 -0.2389  0.5310 -0.3127
  650MOL0     C85690   9.502   5.189   2.517  0.0652  0.4640  0.2905
  650MOL0     C85691   9.379   5.091   2.505  0.6636 -0.2561  0.1848
  650MOL0     O85692   9.256   5.143   2.561 -0.2841 -0.2166  0.3398
  650MOL0     C85693   9.145   5.072   2.552 -0.3005 -0.4654  0.2413
  650MOL0     C85694   9.134   4.935   2.516 -0.4860 -0.1012 -0.2887
  650MOL0     C85695   9.006   4.875   2.493 -0.5459  0.6868 -0.5582
  650MOL0     C85696   8.892   4.951   2.521  0.4585 -0.1681  1.3459
  650MOL0     C85697   8.767   4.896   2.487 -0.2242 -0.1930  1.1856
  650MOL0     O85698   8.768   4.803   2.388 -0.2197 -0.3613 -0.3418
  650MOL0     C85699   8.647   4.743   2.366  0.0375  0.3088  0.5516
  650MOL0     C85700   8.622   4.624   2.434 -0.8907 -0.0105  0.5230
  650MOL0     C85701   8.503   4.559   2.407 -0.4304  0.5742  0.3470
  650MOL0     C85702   8.394   4.613   2.327  0.1414  0.2192 -0.4837
  650MOL0     O85703   8.275   4.550   2.316 -0.0265  0.4734 -0.4450
  650MOL0     C85704   8.167   4.624   2.263  0.6438  0.1578 -0.1667
  650MOL0     C85705   8.037   4.545   2.296  0.3656  0.3635  0.1672
  650MOL0     C85706   8.035   4.502   2.444  0.3302  0.5844 -0.4862
  650MOL0     C85707   7.887   4.455   2.492  0.2981 -0.4310 -0.2012
  650MOL0     C85708   7.884   4.416   2.641  0.9966  0.1024  0.1805
  650MOL0     C85709   7.776   4.309   2.675  0.1472 -0.2389  0.0893
  650MOL0     C85710   7.812   4.172   2.609  0.1900 -0.4957  0.0173
  650MOL0     C85711   7.935   4.115   2.665 -0.3270  1.1193 -0.9734
  650MOL0    Cl85712   7.939   3.951   2.598 -0.2201  0.1470 -0.1887
  650MOL0     C85713   8.423   4.737   2.260 -0.9597  0.6466  0.2037
  650MOL0     C85714   8.553   4.799   2.282  1.0777 -0.0117 -0.1296
  650MOL0     O85715   8.669   4.937   2.551  0.0059  0.1154 -0.7649
  650MOL0     C85716   8.901   5.082   2.571 -0.5613  0.1687  0.4610
  650MOL0     C85717   9.026   5.137   2.586 -0.1360  0.5968  0.2135
  650MOL0     N85718   9.849   5.346   2.241 -0.5810  0.3465  0.6287
  650MOL0     N85719   9.953   5.306   2.185  0.4242  0.7353  0.1423
  650MOL0     C85720  10.862   5.620   2.777 -0.5361  0.2263 -0.5923
  650MOL0     C85721  10.984   5.682   2.782 -0.2914  0.1683  0.9065
  650MOL0     C85722  11.415   5.811   2.839 -0.3611 -0.2194  0.7253
  650MOL0     C85723  11.463   5.919   2.915 -0.1437 -0.6169 -0.7533
  650MOL0     C85724  11.602   5.948   2.927 -0.5202 -0.3481  0.3974
  650MOL0     C85725  11.695   5.865   2.858 -0.6175  0.0478 -0.3225
  650MOL0     O85726  11.828   5.901   2.868 -0.8382 -0.0636  0.2246
  650MOL0     C85727  11.915   5.832   2.778 -0.5359  0.0223  0.8359
  650MOL0     C85728  12.037   5.921   2.770  0.0564 -0.1428  0.3235
  650MOL0     C85729  12.171   5.850   2.754  0.0283  0.1802 -0.1159
  650MOL0     C85730  12.286   5.949   2.772  0.1102 -0.0716 -0.3027
  650MOL0     C85731  12.417   5.902   2.748  0.8126  0.5596  0.1133
  650MOL0     C85732  12.523   5.846   2.721 -0.3991  0.3660  0.0593
  650MOL0     C85733  11.646   5.762   2.773  0.2562  1.0816 -0.1561
  650MOL0     C85734  11.508   5.744   2.761 -0.5335  0.5579 -0.5963
  650MOL0     H85735  11.186   5.423   2.707 -0.4081  1.3647 -2.5629
  650MOL0     H85736  10.978   5.300   2.719 -0.1705  0.0342 -1.1733
  650MOL0     H85737  10.678   5.358   2.929 -1.7583 -0.2059  0.6486
  650MOL0     H85738  10.777   5.241   2.853  0.2381 -1.6213 -0.8506
  650MOL0     H85739  10.544   5.170   2.852 -1.7061  1.1859  0.7120
  650MOL0     H85740  10.600   5.204   2.688 -1.1765  1.7033 -1.7786
  650MOL0     H85741  10.472   5.440   2.734  0.7892  0.5270  1.4987
  650MOL0     H85742  10.402   5.357   2.873 -3.0503 -1.3310 -0.8811
  650MOL0     H85743  10.313   5.174   2.712 -3.9538 -0.3204 -1.1077
  650MOL0     H85744  10.239   5.340   2.726 -1.6095 -0.4400 -1.4352
  650MOL0     H85745  10.428   5.270   2.504 -1.4549 -1.0332 -1.3806
  650MOL0     H85746  10.341   5.415   2.526 -1.9432  0.0037 -0.1282
  650MOL0     H85747  10.126   5.254   2.514 -0.8750 -2.8029 -0.6131
  650MOL0     H85748  10.235   5.125   2.497 -1.9634 -0.5194  0.3345
  650MOL0     H85749  10.209   5.372   2.316 -1.0398 -0.0075 -0.6288
  650MOL0     H85750  10.343   5.265   2.301  0.4660  0.2150  0.3154
  650MOL0     H85751  10.167   5.074   2.242  0.3921 -0.0022 -0.2601
  650MOL0     H85752  10.172   5.205   2.131 -0.2567 -1.1027  0.0949
  650MOL0     H85753   9.941   5.096   2.440 -2.7628  2.4977  3.1076
  650MOL0     H85754   9.687   5.378   2.443  2.2570  0.0648  1.3607
  650MOL0     H85755   9.752   5.264   2.553  0.1543 -0.2140 -0.3725
  650MOL0     H85756   9.662   5.066   2.420  1.8240  1.4524 -1.2292
  650MOL0     H85757   9.566   5.174   2.320 -0.4395 -0.4793 -0.3276
  650MOL0     H85758   9.535   5.192   2.622 -2.2516  0.2613  1.0791
  650MOL0     H85759   9.464   5.289   2.493  0.1914  0.4713  0.1235
  650MOL0     H85760   9.406   4.993   2.547  2.1367  0.7115  1.6311
  650MOL0     H85761   9.363   5.080   2.397  0.8931  0.2236  0.0960
  650MOL0     H85762   9.219   4.872   2.492 -1.0539 -1.1907  0.4872
  650MOL0     H85763   8.997   4.777   2.447  0.2378 -0.8549  2.3041
  650MOL0     H85764   8.693   4.572   2.498  1.5654  0.0341 -2.0225
  650MOL0     H85765   8.497   4.463   2.457  1.3611 -0.3152 -1.0118
  650MOL0     H85766   8.169   4.626   2.154  0.8612 -1.1610 -0.2061
  650MOL0     H85767   8.159   4.727   2.299  2.6564 -0.0889  1.0917
  650MOL0     H85768   8.031   4.459   2.229 -0.6607  1.4146 -1.1337
  650MOL0     H85769   7.958   4.613   2.263  0.1811 -0.7493 -1.8770
  650MOL0     H85770   8.072   4.585   2.505 -0.5647 -0.1906  1.2029
  650MOL0     H85771   8.090   4.410   2.466 -2.9093 -1.0501  1.4922
  650MOL0     H85772   7.826   4.543   2.471 -0.3632 -0.6579  0.6948
  650MOL0     H85773   7.858   4.367   2.433 -0.9371 -0.9436  1.1287
  650MOL0     H85774   7.856   4.512   2.686  0.8537  0.4090 -0.5390
  650MOL0     H85775   7.985   4.389   2.672  1.4904 -0.9200 -2.0867
  650MOL0     H85776   7.677   4.333   2.633 -1.0082  0.4099  2.9563
  650MOL0     H85777   7.769   4.307   2.784 -1.4035  1.4460  0.0778
  650MOL0     H85778   7.736   4.108   2.654  0.6722 -0.7190  0.5182
  650MOL0     H85779   7.809   4.170   2.499  3.4103 -0.1927 -0.1679
  650MOL0     H85780   7.935   4.109   2.774  0.5404  0.2754 -1.0028
  650MOL0     H85781   8.022   4.166   2.623  1.3458 -0.2534  0.6602
  650MOL0     H85782   8.352   4.777   2.189 -2.5328 -1.3380  0.5688
  650MOL0     H85783   8.582   4.894   2.238 -1.8240  0.9023 -0.2711
  650MOL0     H85784   8.814   5.145   2.588 -1.1314  0.0109 -1.6453
  650MOL0     H85785   9.043   5.233   2.633  2.2417 -0.8239  2.5743
  650MOL0     H85786  10.768   5.674   2.786  0.6006  2.1690  0.1421
  650MOL0     H85787  10.988   5.785   2.818 -1.8217  0.5751  0.0310
  650MOL0     H85788  11.406   5.994   2.968 -0.6894 -1.2704 -0.3942
  650MOL0     H85789  11.638   6.036   2.979  2.3801  0.1250 -2.1448
  650MOL0     H85790  11.873   5.821   2.677 -0.6813  1.3905  0.7211
  650MOL0     H85791  11.945   5.730   2.800 -1.0240 -0.1066  0.9168
  650MOL0     H85792  12.022   5.998   2.694  0.4770  0.3601  0.7377
  650MOL0     H85793  12.034   5.975   2.865  2.0936  2.6354 -1.0356
  650MOL0     H85794  12.168   5.803   2.655 -1.6791  0.4272 -0.1982
  650MOL0     H85795  12.177   5.769   2.828 -4.8252 -1.2539 -0.9720
  650MOL0     H85796  12.262   6.031   2.703  4.3313  1.4767 -0.2429
  650MOL0     H85797  12.287   5.994   2.871 -0.1138 -0.2512 -0.2185
  650MOL0     H85798  12.618   5.804   2.697 -0.8430  0.4778 -2.1219
  650MOL0     H85799  11.706   5.698   2.709 -3.4977 -1.3625 -1.5092
  650MOL0     H85800  11.475   5.673   2.686  0.5061 -0.9517  0.3177
  651MOL0     O85801   3.687   0.082   1.306  0.1901 -0.0315  0.1300
  651MOL0     C85802   3.641   0.169   1.223 -0.4152 -0.6608  0.1942
  651MOL0     O85803   3.702   0.215   1.109 -0.2906  0.0453 -0.4219
  651MOL0     C85804   3.830   0.172   1.095 -0.2328 -0.9279  1.2761
  651MOL0     C85805   3.931   0.276   1.112  1.0301  0.7154  0.2302
  651MOL0     C85806   4.067   0.242   1.094  0.5290  0.0986 -0.0688
  651MOL0     C85807   4.109   0.107   1.073 -0.3682 -0.0298  0.5903
  651MOL0     O85808   4.231   0.065   1.084 -0.4666 -0.6225 -0.3568
  651MOL0     C85809   4.273  -0.066   1.033  0.3567  0.6336 -0.8432
  651MOL0     C85810   4.421  -0.071   1.028 -0.5068 -0.0801 -0.2184
  651MOL0     C85811   4.485  -0.200   0.960  1.3572 -0.3578  0.0254
  651MOL0     C85812   4.636  -0.208   0.976 -0.3197  0.3295 -0.2596
  651MOL0     C85813   4.689  -0.337   0.933  0.9754  0.1034 -0.1510
  651MOL0     C85814   4.831  -0.380   0.983  0.1288  0.4369  0.7642
  651MOL0     C85815   4.851  -0.518   1.036 -0.5883  0.1209 -0.4546
  651MOL0     C85816   4.817  -0.627   0.943  0.2249 -0.0166  0.2667
  651MOL0     N85817   4.823  -0.753   1.007 -0.1250  0.7847 -0.4391
  651MOL0     C85818   4.747  -0.791   1.108  0.0653 -0.1841 -0.5029
  651MOL0     C85819   4.778  -0.922   1.120  0.6710 -0.0243  0.2521
  651MOL0     C85820   4.723  -1.014   1.228 -0.2355 -0.1438 -0.7605
  651MOL0     C85821   4.806  -1.143   1.232 -0.2887 -0.0449 -0.1408
  651MOL0     C85822   4.748  -1.237   1.341 -0.1644  1.3622 -0.1664
  651MOL0     C85823   4.668  -1.353   1.275  0.9467  1.1546  0.2147
  651MOL0     O85824   4.637  -1.451   1.374 -0.9823  0.3519 -0.2404
  651MOL0     C85825   4.526  -1.440   1.453  0.4026 -0.1472  0.2408
  651MOL0     C85826   4.501  -1.548   1.536  0.0028 -0.8801 -0.5144
  651MOL0     C85827   4.375  -1.568   1.600 -0.2364 -1.1986  0.3189
  651MOL0     C85828   4.268  -1.464   1.579  0.0032  0.4236  1.1361
  651MOL0     C85829   4.126  -1.485   1.620  0.4035 -0.4113 -0.2099
  651MOL0     O85830   4.096  -1.578   1.709  0.2717 -0.1050 -0.3812
  651MOL0     C85831   3.969  -1.600   1.764  0.1779  0.2000  0.7191
  651MOL0     C85832   3.965  -1.715   1.837  0.1711 -0.2464 -0.6663
  651MOL0     C85833   3.855  -1.741   1.921  0.8422 -0.0265  0.1567
  651MOL0     C85834   3.743  -1.662   1.922 -0.6855  0.1705  0.7335
  651MOL0     O85835   3.628  -1.681   1.985  0.0341 -0.5602 -0.4050
  651MOL0     C85836   3.605  -1.805   2.060 -0.5153  0.5334  0.3089
  651MOL0     C85837   3.473  -1.789   2.134 -0.4563  0.1987 -0.1900
  651MOL0     C85838   3.421  -1.917   2.197  0.0125  0.4749 -0.2218
  651MOL0     C85839   3.295  -1.898   2.283  0.0856 -1.1685  0.2258
  651MOL0     C85840   3.249  -2.030   2.346  0.1263  0.2801 -0.2922
  651MOL0     C85841   3.171  -2.000   2.467  0.4273  0.7542 -0.4536
  651MOL0     C85842   3.103  -2.125   2.526  0.7482 -0.0609 -0.4576
  651MOL0     C85843   2.997  -2.093   2.635  0.1048  0.0331  0.0803
  651MOL0    Cl85844   2.912  -2.241   2.667  0.2557 -0.1485 -0.0671
  651MOL0     C85845   3.746  -1.548   1.838  0.3043  0.3058 -0.0144
  651MOL0     C85846   3.854  -1.517   1.757 -0.0761  0.4783  0.1445
  651MOL0     O85847   4.037  -1.425   1.556  0.0446 -0.0963 -0.2595
  651MOL0     C85848   4.308  -1.346   1.502  0.4779  1.0972  0.9002
  651MOL0     C85849   4.433  -1.337   1.451 -0.2715  0.0508  0.0724
  651MOL0     N85850   4.864  -0.960   1.025  0.0333  0.4806 -0.8271
  651MOL0     N85851   4.884  -0.859   0.949  0.5495 -0.1921 -0.4896
  651MOL0     C85852   4.010   0.008   1.057 -0.1176 -0.0200 -0.2015
  651MOL0     C85853   3.872   0.043   1.073  0.5108  0.8039  0.2233
  651MOL0     C85854   3.505   0.227   1.252 -0.9092  0.1872  0.8262
  651MOL0     C85855   3.427   0.166   1.355 -0.0961  0.4881  0.6115
  651MOL0     C85856   3.297   0.211   1.381  0.0216 -0.3693  1.0696
  651MOL0     C85857   3.241   0.308   1.298 -0.8610 -0.0651  0.3685
  651MOL0     O85858   3.112   0.350   1.329 -0.6595  0.2548 -0.4182
  651MOL0     C85859   3.048   0.439   1.240 -0.8455  0.3810  0.3754
  651MOL0     C85860   2.924   0.490   1.294  1.0628  0.1653 -0.2885
  651MOL0     C85861   2.822   0.383   1.330  0.5714 -0.1366  0.1749
  651MOL0     C85862   2.681   0.441   1.367 -0.1371  0.2796 -0.4146
  651MOL0     C85863   2.580   0.335   1.388 -0.1926  0.3513  1.0863
  651MOL0     C85864   2.497   0.244   1.404 -0.8353  0.3818  0.2949
  651MOL0     C85865   3.315   0.360   1.185  0.5537 -0.0961 -0.1853
  651MOL0     C85866   3.449   0.321   1.164 -1.2638 -0.1284 -0.0343
  651MOL0     H85867   3.897   0.376   1.133  1.9647  1.4152 -1.3659
  651MOL0     H85868   4.144   0.316   1.115 -0.9466  1.4302  0.8575
  651MOL0     H85869   4.229  -0.077   0.933 -2.5352  0.5852  0.3520
  651MOL0     H85870   4.242  -0.147   1.100 -0.6161  1.2497 -0.5383
  651MOL0     H85871   4.451  -0.060   1.133 -2.2093  3.0903  0.0495
  651MOL0     H85872   4.461   0.017   0.975  0.5468 -1.0816 -1.1501
  651MOL0     H85873   4.472  -0.200   0.851  1.9218 -0.3873 -0.0466
  651MOL0     H85874   4.432  -0.291   0.988  1.6600 -0.2722  0.9321
  651MOL0     H85875   4.692  -0.130   0.923  1.8074 -2.3871 -2.3538
  651MOL0     H85876   4.655  -0.197   1.083 -1.3132  0.9559 -0.1308
  651MOL0     H85877   4.693  -0.341   0.824  1.7280  5.0703 -0.5098
  651MOL0     H85878   4.622  -0.413   0.973  0.3752  1.6380  1.9427
  651MOL0     H85879   4.867  -0.302   1.051  0.4595  1.4671 -0.5446
  651MOL0     H85880   4.892  -0.364   0.893  1.9932  3.1150  2.3604
  651MOL0     H85881   4.957  -0.536   1.055 -0.1007 -0.1489 -3.0599
  651MOL0     H85882   4.788  -0.535   1.123 -0.6638 -2.8820 -0.9713
  651MOL0     H85883   4.885  -0.618   0.857  1.7711  2.2472  1.6203
  651MOL0     H85884   4.715  -0.614   0.906  1.0789 -0.8588 -2.6648
  651MOL0     H85885   4.680  -0.730   1.167 -2.4067  1.0766 -4.2645
  651MOL0     H85886   4.620  -1.047   1.213  0.2228 -2.3768  0.5344
  651MOL0     H85887   4.742  -0.957   1.320  0.4366  1.1209 -1.6579
  651MOL0     H85888   4.912  -1.119   1.244 -0.1763 -0.8255  0.4354
  651MOL0     H85889   4.799  -1.195   1.136  1.9921 -0.5039 -0.1066
  651MOL0     H85890   4.833  -1.277   1.395  1.3455 -0.3560 -3.5162
  651MOL0     H85891   4.677  -1.179   1.401  1.3198  2.3099  0.7286
  651MOL0     H85892   4.732  -1.390   1.195 -0.8972  0.0309 -0.8032
  651MOL0     H85893   4.580  -1.320   1.220 -0.3939 -0.8540  1.0501
  651MOL0     H85894   4.586  -1.613   1.552 -1.4176 -2.8852 -0.7279
  651MOL0     H85895   4.358  -1.663   1.650 -1.9714 -2.3275 -2.2179
  651MOL0     H85896   4.052  -1.780   1.840  1.1930  1.1295  1.1938
  651MOL0     H85897   3.861  -1.830   1.983 -0.2790 -0.4029 -0.2577
  651MOL0     H85898   3.685  -1.811   2.134  0.1995  3.8424 -0.0676
  651MOL0     H85899   3.608  -1.894   1.996  1.1424  1.6084 -1.1836
  651MOL0     H85900   3.400  -1.750   2.062 -0.7857 -1.0783 -0.5603
  651MOL0     H85901   3.486  -1.715   2.214  3.8571  0.2065 -0.6297
  651MOL0     H85902   3.498  -1.949   2.268 -1.0831 -0.7943  0.4637
  651MOL0     H85903   3.393  -1.991   2.121  0.0476  1.6286 -1.3774
  651MOL0     H85904   3.315  -1.815   2.352 -4.3805 -0.2459  0.7759
  651MOL0     H85905   3.220  -1.863   2.211  0.6876 -2.0301 -0.8498
  651MOL0     H85906   3.337  -2.088   2.377  1.2216  1.9779 -0.0518
  651MOL0     H85907   3.184  -2.087   2.279 -1.2582 -1.1702  2.1388
  651MOL0     H85908   3.091  -1.932   2.437 -1.0499  0.4158  2.3520
  651MOL0     H85909   3.235  -1.951   2.541  1.7722 -2.1250  0.4400
  651MOL0     H85910   3.053  -2.179   2.445 -1.5213  0.4810  0.5013
  651MOL0     H85911   3.169  -2.200   2.571 -1.3358 -1.0452  1.1238
  651MOL0     H85912   2.926  -2.018   2.596  2.4848  2.0235 -0.6815
  651MOL0     H85913   3.034  -2.052   2.729  1.5966  0.2428 -0.5632
  651MOL0     H85914   3.655  -1.489   1.840  0.4545  0.5458  1.7925
  651MOL0     H85915   3.845  -1.436   1.685 -3.8984  1.1498  1.1384
  651MOL0     H85916   4.240  -1.264   1.487 -0.3650  0.2262 -0.1989
  651MOL0     H85917   4.447  -1.253   1.383  1.2406 -0.2774 -0.0401
  651MOL0     H85918   4.026  -0.098   1.041 -3.2807 -0.5763 -0.3395
  651MOL0     H85919   3.799  -0.037   1.070  0.0451  1.2363 -0.0671
  651MOL0     H85920   3.461   0.090   1.424 -1.9537 -0.1350  0.8756
  651MOL0     H85921   3.233   0.168   1.458 -1.7983 -0.2836 -0.3322
  651MOL0     H85922   3.038   0.394   1.141  1.0907 -1.2955  0.8628
  651MOL0     H85923   3.112   0.525   1.216 -1.1864  0.7036  0.6148
  651MOL0     H85924   2.951   0.556   1.377 -0.0676  1.3975 -0.8648
  651MOL0     H85925   2.882   0.564   1.226 -1.0813 -0.7927 -0.0789
  651MOL0     H85926   2.848   0.324   1.418  2.9068  0.2814 -0.1721
  651MOL0     H85927   2.817   0.310   1.249  1.4633 -2.1626  1.8606
  651MOL0     H85928   2.686   0.508   1.453 -1.4025 -1.9729  1.5203
  651MOL0     H85929   2.641   0.494   1.280  3.2033 -1.0276 -2.9435
  651MOL0     H85930   2.448   0.161   1.449 -0.2646  0.7954  1.7401
  651MOL0     H85931   3.273   0.415   1.102 -0.3772 -3.8131 -2.4509
  651MOL0     H85932   3.511   0.362   1.085  1.5200  1.1169  2.5853
  652MOL0     O85933   0.889   9.265   9.825  0.2177  0.0756 -0.6839
  652MOL0     C85934   0.892   9.168   9.750  0.6930 -0.1728  0.0132
  652MOL0     O85935   0.988   9.139   9.661  0.2727 -0.3804  0.5422
  652MOL0     C85936   1.117   9.196   9.664  0.5718  0.0188 -0.9201
  652MOL0     C85937   1.206   9.176   9.562 -1.0535 -1.4846 -0.0527
  652MOL0     C85938   1.335   9.237   9.559 -0.1166 -0.3054 -0.6941
  652MOL0     C85939   1.375   9.321   9.671  0.4885  0.3874  0.1093
  652MOL0     O85940   1.491   9.387   9.686 -0.2406  0.6912 -0.0425
  652MOL0     C85941   1.601   9.343   9.611  0.7406 -0.0160  0.1704
  652MOL0     C85942   1.730   9.402   9.664 -0.7661 -0.0995  0.3847
  652MOL0     C85943   1.852   9.371   9.561 -0.5290  0.0267  0.1195
  652MOL0     C85944   1.820   9.439   9.425 -0.4631 -0.4341 -0.3235
  652MOL0     C85945   1.952   9.451   9.332 -0.5604 -0.2023  0.2682
  652MOL0     C85946   2.016   9.582   9.366 -0.8101 -0.0611  0.1765
  652MOL0     C85947   2.163   9.587   9.327 -0.0785  0.7247 -1.0283
  652MOL0     C85948   2.222   9.721   9.384  0.0481  0.8301 -0.4182
  652MOL0     N85949   2.366   9.724   9.379 -0.3034 -0.3465 -0.1795
  652MOL0     C85950   2.457   9.637   9.448  0.7037 -1.2622 -0.1668
  652MOL0     C85951   2.577   9.687   9.405  0.0255 -0.3699 -0.0555
  652MOL0     C85952   2.703   9.616   9.410 -0.1446 -0.1185  0.6647
  652MOL0     C85953   2.696   9.462   9.386 -0.0364 -0.2606  0.0340
  652MOL0     C85954   2.821   9.391   9.450  0.1301 -0.3092  0.1620
  652MOL0     C85955   2.800   9.241   9.455  0.3805 -0.2103  0.0405
  652MOL0     O85956   2.801   9.182   9.324 -0.3307 -0.4380 -0.3920
  652MOL0     C85957   2.913   9.176   9.250 -0.4105 -0.1616 -0.2102
  652MOL0     C85958   3.039   9.211   9.304  0.1168  1.2290  0.4796
  652MOL0     C85959   3.159   9.196   9.226 -0.5067 -0.0490  0.5230
  652MOL0     C85960   3.158   9.139   9.103  0.4231  0.4581 -0.4527
  652MOL0     C85961   3.284   9.102   9.031 -0.5908  0.0001 -0.1819
  652MOL0     O85962   3.404   9.121   9.097  0.0428 -0.7887 -0.0631
  652MOL0     C85963   3.527   9.134   9.019  0.4465  0.5675  0.3959
  652MOL0     C85964   3.540   9.228   8.917 -0.6389  0.1134 -0.6471
  652MOL0     C85965   3.660   9.251   8.841 -0.3918  0.6266  0.6039
  652MOL0     C85966   3.769   9.163   8.859  0.2900 -0.0864  0.3204
  652MOL0     O85967   3.886   9.175   8.794  0.2728 -0.3799 -0.3014
  652MOL0     C85968   3.900   9.293   8.715  0.3354  0.0509  0.2552
  652MOL0     C85969   4.023   9.278   8.617  0.6943  0.2922  0.8067
  652MOL0     C85970   4.153   9.246   8.679  0.4506 -0.7028  0.8129
  652MOL0     C85971   4.264   9.201   8.583 -0.1827  0.0026 -0.2024
  652MOL0     C85972   4.387   9.160   8.667 -0.0382  0.1585  0.1469
  652MOL0     C85973   4.510   9.120   8.589  0.0734  0.0985  0.5350
  652MOL0     C85974   4.489   9.003   8.499  0.8385  1.0508  0.0129
  652MOL0     C85975   4.439   8.871   8.571 -0.0058 -0.8079 -0.1053
  652MOL0    Cl85976   4.543   8.823   8.710 -0.1451  0.2932  0.0326
  652MOL0     C85977   3.759   9.075   8.965 -0.3370  0.3982  0.5011
  652MOL0     C85978   3.642   9.063   9.042  0.2595  0.2183  0.4673
  652MOL0     O85979   3.277   9.062   8.915 -0.2941 -0.3394  0.2271
  652MOL0     C85980   3.036   9.107   9.051  0.1584  0.2533  0.5975
  652MOL0     C85981   2.917   9.126   9.117  0.1114 -0.1984 -1.0073
  652MOL0     N85982   2.566   9.805   9.329  0.5335  0.2683  0.3246
  652MOL0     N85983   2.440   9.827   9.322  0.0269  0.2964 -0.3673
  652MOL0     C85984   1.293   9.330   9.775  0.4695 -0.7777  0.4553
  652MOL0     C85985   1.169   9.267   9.778  0.7448 -0.2244 -0.0217
  652MOL0     C85986   0.775   9.074   9.738 -0.9457 -0.2570  0.0725
  652MOL0     C85987   0.755   8.989   9.629  0.0712  0.1901  1.0843
  652MOL0     C85988   0.644   8.902   9.620 -0.4969 -0.0159 -0.1988
  652MOL0     C85989   0.551   8.896   9.721  0.1494  0.3332 -0.0279
  652MOL0     O85990   0.434   8.820   9.695  0.2908 -0.9080 -0.5571
  652MOL0     C85991   0.306   8.882   9.726  0.1344 -0.3391 -0.0881
  652MOL0     C85992   0.249   8.787   9.819 -0.2671  0.4121 -0.1219
  652MOL0     C85993   0.111   8.823   9.885 -0.2957  0.1541  0.4467
  652MOL0     C85994   0.049   8.720   9.971 -0.2300  0.2360 -0.2006
  652MOL0     C85995   0.124   8.718  10.096 -0.5215 -1.2926 -0.4804
  652MOL0     C85996   0.184   8.707  10.199 -0.7003  0.1432  0.3325
  652MOL0     C85997   0.574   8.978   9.828 -0.1734  0.6663  0.1298
  652MOL0     C85998   0.681   9.066   9.841  0.4915 -0.1883  0.3480
  652MOL0     H85999   1.182   9.116   9.476 -0.8268 -0.8194 -0.5849
  652MOL0     H86000   1.402   9.231   9.475  1.6641  2.0716  0.4450
  652MOL0     H86001   1.586   9.371   9.507 -0.3290 -2.4503 -0.4025
  652MOL0     H86002   1.615   9.235   9.616 -0.2741 -0.1280  0.8699
  652MOL0     H86003   1.756   9.355   9.759 -1.2979 -0.6123  0.2814
  652MOL0     H86004   1.723   9.510   9.682  3.4366  0.4822 -0.5323
  652MOL0     H86005   1.855   9.264   9.542 -0.9086  0.0449 -0.0663
  652MOL0     H86006   1.944   9.410   9.606 -0.5680 -1.1494  1.2635
  652MOL0     H86007   1.753   9.371   9.373  1.6616 -0.6023 -3.0898
  652MOL0     H86008   1.777   9.540   9.433  1.5497  0.6177 -1.7142
  652MOL0     H86009   1.927   9.451   9.225  0.8431 -0.3041 -0.0776
  652MOL0     H86010   2.021   9.369   9.353  0.0344 -0.1576 -1.3681
  652MOL0     H86011   2.001   9.605   9.472 -0.0190  3.1593 -0.2934
  652MOL0     H86012   1.963   9.661   9.310 -1.1655 -1.0782 -0.9606
  652MOL0     H86013   2.211   9.502   9.376  1.1678  1.4721 -0.9026
  652MOL0     H86014   2.179   9.573   9.219 -2.6733 -0.1541 -1.3541
  652MOL0     H86015   2.194   9.732   9.490 -0.8000  0.5612 -0.6070
  652MOL0     H86016   2.177   9.804   9.329  2.1392  1.8460 -0.7224
  652MOL0     H86017   2.442   9.558   9.520  0.7713  0.1543  1.4441
  652MOL0     H86018   2.749   9.640   9.506 -2.5753  0.1502  1.8369
  652MOL0     H86019   2.776   9.652   9.337 -0.1270 -0.1832  0.6500
  652MOL0     H86020   2.683   9.451   9.278  1.0925 -2.2659  0.0590
  652MOL0     H86021   2.611   9.419   9.441  0.6506 -0.5816  0.8745
  652MOL0     H86022   2.909   9.424   9.394  1.0759  0.5644  2.0812
  652MOL0     H86023   2.836   9.427   9.552  1.7026 -2.9808  0.9767
  652MOL0     H86024   2.700   9.215   9.489  0.8463 -1.9273  0.2203
  652MOL0     H86025   2.874   9.196   9.522  1.2216 -0.1717 -0.8474
  652MOL0     H86026   3.050   9.248   9.406 -0.0480 -0.6970  1.2310
  652MOL0     H86027   3.255   9.221   9.269  0.4213  0.0147 -1.4816
  652MOL0     H86028   3.462   9.295   8.884  2.2087  2.7472 -2.6948
  652MOL0     H86029   3.659   9.330   8.766 -1.0863 -1.4743 -1.7856
  652MOL0     H86030   3.916   9.378   8.781 -1.0645  2.0979 -1.8516
  652MOL0     H86031   3.821   9.313   8.641 -0.8229 -1.7872  0.9421
  652MOL0     H86032   4.034   9.363   8.548  2.0225 -1.6431 -1.5012
  652MOL0     H86033   3.985   9.196   8.555  0.8079 -0.1621  1.3357
  652MOL0     H86034   4.134   9.164   8.749 -0.6559  0.3070  1.7528
  652MOL0     H86035   4.176   9.334   8.739  0.3807 -1.5205  2.0748
  652MOL0     H86036   4.230   9.120   8.517  0.3486  0.1230 -0.6365
  652MOL0     H86037   4.290   9.289   8.524 -2.0087  0.9380  0.3354
  652MOL0     H86038   4.359   9.087   8.743  2.8583 -0.3614  0.7974
  652MOL0     H86039   4.413   9.240   8.737  2.4134 -0.0524 -0.4348
  652MOL0     H86040   4.590   9.103   8.662  0.4418 -2.0501 -0.2853
  652MOL0     H86041   4.547   9.204   8.529  0.6114 -1.9625 -2.2386
  652MOL0     H86042   4.425   9.022   8.413  1.5936 -0.4711 -0.9321
  652MOL0     H86043   4.586   8.976   8.455  0.9810 -0.2014  1.0334
  652MOL0     H86044   4.420   8.792   8.499 -1.3675 -1.6836  1.1587
  652MOL0     H86045   4.343   8.892   8.619 -0.2508 -0.5778 -0.6899
  652MOL0     H86046   3.851   9.025   8.993 -0.1419 -0.5819 -1.6539
  652MOL0     H86047   3.649   8.975   9.105  1.0666 -0.3446 -0.3864
  652MOL0     H86048   3.026   9.053   8.957 -2.2471  1.1977  0.2342
  652MOL0     H86049   2.816   9.099   9.088 -0.6155  0.1342  1.0530
  652MOL0     H86050   1.325   9.384   9.864 -1.5102  2.7389 -0.7949
  652MOL0     H86051   1.117   9.287   9.871  1.6248  0.9549  0.2491
  652MOL0     H86052   0.826   9.001   9.549 -1.0416 -0.7305 -0.0794
  652MOL0     H86053   0.631   8.847   9.527  1.5030  0.4421 -0.7949
  652MOL0     H86054   0.244   8.906   9.640  1.8906  1.8063 -0.8553
  652MOL0     H86055   0.323   8.977   9.778  1.8607 -0.9111  0.4610
  652MOL0     H86056   0.229   8.693   9.766 -0.8632 -0.8122  2.1648
  652MOL0     H86057   0.302   8.766   9.912  1.5683 -1.6877 -1.5391
  652MOL0     H86058   0.050   8.847   9.797  0.6519 -3.0330 -1.2383
  652MOL0     H86059   0.132   8.912   9.945 -0.1855 -1.3807  2.8114
  652MOL0     H86060  -0.053   8.755   9.988 -0.3465  1.4172 -2.8506
  652MOL0     H86061   0.042   8.623   9.920  0.5225  0.3572 -0.5527
  652MOL0     H86062   0.226   8.706  10.297  2.2270 -1.7138 -0.8165
  652MOL0     H86063   0.502   8.977   9.910 -1.6429 -3.0002 -0.9666
  652MOL0     H86064   0.697   9.129   9.927  1.7349 -2.2477  1.6981
  653MOL0     O86065   8.748   4.448  11.206  0.1259  0.0442 -0.3073
  653MOL0     C86066   8.813   4.548  11.193 -0.2471 -0.5445 -0.1374
  653MOL0     O86067   8.770   4.678  11.162  0.7386 -1.3066 -0.6177
  653MOL0     C86068   8.643   4.724  11.136 -0.2642 -0.7581 -0.2653
  653MOL0     C86069   8.539   4.637  11.091 -0.3444  0.3485 -0.2885
  653MOL0     C86070   8.415   4.689  11.077  0.3788  0.3009  0.1024
  653MOL0     C86071   8.380   4.819  11.112 -0.3381 -0.1977 -0.0229
  653MOL0     O86072   8.258   4.879  11.083  0.2831  0.1530 -0.0399
  653MOL0     C86073   8.139   4.799  11.120  0.4400  0.3301  0.8105
  653MOL0     C86074   8.023   4.895  11.133 -0.3954  0.1929  0.6810
  653MOL0     C86075   7.949   4.925  11.000  0.6666 -0.2527  0.3027
  653MOL0     C86076   7.849   4.821  10.961  0.0629 -0.0599 -0.1658
  653MOL0     C86077   7.735   4.871  10.886 -0.0342  0.4038 -0.7078
  653MOL0     C86078   7.644   4.756  10.842 -0.0738 -0.5259 -0.1574
  653MOL0     C86079   7.542   4.806  10.740 -0.5190 -0.1446 -0.0982
  653MOL0     C86080   7.419   4.715  10.723  0.4954  0.3343  0.2731
  653MOL0     N86081   7.305   4.771  10.659 -0.3309 -0.0661 -0.2034
  653MOL0     C86082   7.253   4.896  10.686  0.2472 -0.5185 -0.1668
  653MOL0     C86083   7.173   4.926  10.575 -0.9060  0.1354  0.3409
  653MOL0     C86084   7.090   5.049  10.546  0.3431  0.7189 -0.0976
  653MOL0     C86085   6.963   5.031  10.628  1.0524  0.0206 -0.4220
  653MOL0     C86086   6.894   5.162  10.616  0.8040 -0.2147  0.3019
  653MOL0     C86087   6.759   5.158  10.687 -0.1522  0.0525  0.2401
  653MOL0     O86088   6.668   5.069  10.617  0.2958 -0.4058  0.8940
  653MOL0     C86089   6.543   5.112  10.597 -0.2649 -0.4386 -0.1872
  653MOL0     C86090   6.492   5.087  10.472 -0.9270  0.5109  0.1442
  653MOL0     C86091   6.366   5.129  10.435 -0.5544  0.5220 -0.2560
  653MOL0     C86092   6.288   5.196  10.534  0.0510 -0.8667 -0.0663
  653MOL0     C86093   6.144   5.233  10.503 -1.0789  1.6852  0.0636
  653MOL0     O86094   6.093   5.191  10.381 -0.6220 -0.1592  0.1651
  653MOL0     C86095   5.965   5.227  10.357  0.1692 -0.7378 -0.3518
  653MOL0     C86096   5.923   5.354  10.303 -0.1616  0.0094 -0.8300
  653MOL0     C86097   5.789   5.395  10.293 -0.6571 -0.3658  0.0424
  653MOL0     C86098   5.694   5.308  10.330  0.5799  0.5408 -0.2565
  653MOL0     O86099   5.560   5.351  10.335 -0.4821 -0.5982  0.5484
  653MOL0     C86100   5.457   5.256  10.318 -0.3754  0.2233  0.3270
  653MOL0     C86101   5.448   5.198  10.175 -0.0630  0.2055  0.7403
  653MOL0     C86102   5.326   5.105  10.160  0.2272 -0.3182 -0.2734
  653MOL0     C86103   5.306   5.061  10.014 -1.5046  1.4148 -0.0517
  653MOL0     C86104   5.204   4.944  10.024 -0.6622  0.5220 -0.2659
  653MOL0     C86105   5.186   4.872   9.878 -0.1062  0.5214 -0.2048
  653MOL0     C86106   5.046   4.810   9.865 -0.4163  0.1993 -0.0827
  653MOL0     C86107   5.029   4.741   9.727  0.2661 -0.4448 -0.4546
  653MOL0    Cl86108   5.130   4.589   9.729 -0.2015  0.0754 -0.4981
  653MOL0     C86109   5.729   5.172  10.370  0.1511  0.6827  0.1114
  653MOL0     C86110   5.867   5.132  10.382 -0.0479  0.3412  0.3675
  653MOL0     O86111   6.089   5.297  10.586 -0.1165 -0.6823  0.7694
  653MOL0     C86112   6.338   5.223  10.662  0.3631  0.2514  0.2280
  653MOL0     C86113   6.470   5.180  10.697  0.4763  0.6981  0.0003
  653MOL0     N86114   7.174   4.815  10.498  0.9120  0.5263 -0.1233
  653MOL0     N86115   7.238   4.720  10.554 -0.1781  0.5203  0.3807
  653MOL0     C86116   8.486   4.909  11.152  0.2020 -0.6674 -0.0256
  653MOL0     C86117   8.614   4.857  11.169 -0.3227 -0.8602  0.5535
  653MOL0     C86118   8.964   4.541  11.221 -0.2344 -0.5365 -0.1373
  653MOL0     C86119   9.046   4.651  11.186 -0.7811  1.1323 -0.6352
  653MOL0     C86120   9.185   4.640  11.218 -0.0179  0.7155  0.1472
  653MOL0     C86121   9.241   4.536  11.287 -0.3396 -0.3387  0.0672
  653MOL0     O86122   9.375   4.520  11.319  0.0137 -1.6320 -0.0623
  653MOL0     C86123   9.454   4.645  11.319  1.2318  0.1614 -0.6783
  653MOL0     C86124   9.559   4.621  11.425 -0.1778 -0.3101 -0.2642
  653MOL0     C86125   9.638   4.491  11.422 -0.0050 -0.0016 -0.0443
  653MOL0     C86126   9.756   4.492  11.529 -1.1584 -0.4781 -0.3721
  653MOL0     C86127   9.703   4.478  11.667 -0.1532 -0.4476 -0.5479
  653MOL0     C86128   9.675   4.474  11.784 -0.3757  0.3592 -0.7703
  653MOL0     C86129   9.161   4.433  11.331  0.1273  0.9802  0.2106
  653MOL0     C86130   9.028   4.431  11.296  0.4904 -0.6559  0.6717
  653MOL0     H86131   8.565   4.534  11.066 -1.8440  0.1934 -1.3084
  653MOL0     H86132   8.340   4.614  11.052  0.7335  0.8425 -2.8786
  653MOL0     H86133   8.156   4.747  11.215  2.3763  0.8484  0.8045
  653MOL0     H86134   8.121   4.719  11.048  0.9365 -1.8214  2.9377
  653MOL0     H86135   8.057   4.991  11.175 -0.6400  1.3617 -1.6514
  653MOL0     H86136   7.954   4.851  11.205  0.6625 -1.2509  0.8515
  653MOL0     H86137   8.014   4.946  10.914  0.5606  2.1732  0.7412
  653MOL0     H86138   7.893   5.019  11.009  1.5741  0.2005  1.3806
  653MOL0     H86139   7.907   4.743  10.910 -2.4664 -1.3609 -1.1875
  653MOL0     H86140   7.807   4.785  11.056  0.1520 -2.2477 -0.9010
  653MOL0     H86141   7.774   4.928  10.802 -1.2980  1.2915 -0.7204
  653MOL0     H86142   7.687   4.933  10.962  0.5267  0.5133 -0.4414
  653MOL0     H86143   7.594   4.722  10.934  0.3883  3.2259  1.6863
  653MOL0     H86144   7.711   4.682  10.800  0.2538 -1.0691  1.2680
  653MOL0     H86145   7.518   4.903  10.784 -1.7088 -1.6120  2.8289
  653MOL0     H86146   7.596   4.824  10.647 -1.0291 -1.3437 -0.6537
  653MOL0     H86147   7.394   4.695  10.828  0.7218 -0.8940  0.1027
  653MOL0     H86148   7.443   4.616  10.683 -3.8051 -1.5850  1.8596
  653MOL0     H86149   7.287   4.966  10.762  3.1433 -0.6004 -1.2658
  653MOL0     H86150   7.065   5.053  10.440 -0.3737  0.0970  0.0415
  653MOL0     H86151   7.141   5.142  10.573  1.9629  0.4753 -2.0374
  653MOL0     H86152   6.980   5.008  10.733 -0.5004  0.6199 -0.0161
  653MOL0     H86153   6.900   4.948  10.595 -0.3777  0.1668  1.8014
  653MOL0     H86154   6.948   5.243  10.665 -3.3263  0.6802  3.9404
  653MOL0     H86155   6.876   5.177  10.509 -0.7244  2.2414  0.8283
  653MOL0     H86156   6.720   5.260  10.679  0.8405  0.7721  3.3919
  653MOL0     H86157   6.753   5.132  10.793 -4.3854 -1.6965 -0.2211
  653MOL0     H86158   6.555   5.039  10.398 -1.6763  0.9689 -0.8094
  653MOL0     H86159   6.317   5.112  10.340  0.1957 -0.6927 -0.4449
  653MOL0     H86160   6.006   5.421  10.291  1.1938 -1.0411  1.7426
  653MOL0     H86161   5.773   5.496  10.256  4.8945  1.1637  0.9813
  653MOL0     H86162   5.362   5.305  10.338 -1.5812 -2.2172  0.9378
  653MOL0     H86163   5.468   5.180  10.396  1.4676 -0.7526 -0.8196
  653MOL0     H86164   5.542   5.146  10.155 -0.2387 -0.0010  0.4523
  653MOL0     H86165   5.444   5.278  10.100  1.6503  0.3238  0.7532
  653MOL0     H86166   5.237   5.161  10.188  0.9877  1.5080 -1.3059
  653MOL0     H86167   5.331   5.020  10.228 -2.6926 -0.6811 -0.3745
  653MOL0     H86168   5.265   5.144   9.957  0.2432  1.6319 -1.0548
  653MOL0     H86169   5.399   5.031   9.963 -0.9313 -0.1924  1.7912
  653MOL0     H86170   5.112   4.984  10.067  0.9066 -0.5469  4.7847
  653MOL0     H86171   5.235   4.867  10.095  1.8328  0.8723 -0.8591
  653MOL0     H86172   5.259   4.794   9.856 -1.5925 -0.8698 -0.3917
  653MOL0     H86173   5.192   4.952   9.804 -0.8313  1.7630  1.0339
  653MOL0     H86174   5.028   4.741   9.947 -1.7014 -0.8338 -1.1981
  653MOL0     H86175   4.967   4.885   9.876 -1.5872 -0.8894 -0.8302
  653MOL0     H86176   5.054   4.818   9.653 -1.6238 -0.2255 -0.9068
  653MOL0     H86177   4.925   4.721   9.701 -0.5136  1.8173  0.6831
  653MOL0     H86178   5.666   5.090  10.405 -0.0604  0.8114  0.0302
  653MOL0     H86179   5.895   5.037  10.427  0.5867 -0.7187 -2.0989
  653MOL0     H86180   6.275   5.272  10.736 -1.4987 -1.3193 -0.2373
  653MOL0     H86181   6.512   5.202  10.795  0.1054  1.4559  0.0041
  653MOL0     H86182   8.454   5.006  11.188  0.5656 -1.6912  3.4724
  653MOL0     H86183   8.688   4.910  11.228 -0.2344 -0.7565  0.3477
  653MOL0     H86184   9.002   4.729  11.125 -2.8567  0.0521 -0.6286
  653MOL0     H86185   9.262   4.704  11.176  0.3838 -1.1510 -2.2084
  653MOL0     H86186   9.398   4.735  11.349 -0.2091 -0.8564 -0.1841
  653MOL0     H86187   9.492   4.665  11.219  0.5423  2.6824 -0.5192
  653MOL0     H86188   9.622   4.710  11.421 -0.6819  0.1993  1.9581
  653MOL0     H86189   9.510   4.621  11.522  0.8719  1.3825  0.3081
  653MOL0     H86190   9.668   4.471  11.319 -2.5413  0.5544 -0.9648
  653MOL0     H86191   9.576   4.406  11.453  1.3601 -0.4153  1.6889
  653MOL0     H86192   9.812   4.398  11.521  0.7013  0.4720  0.8556
  653MOL0     H86193   9.823   4.576  11.509 -0.4922 -1.0845 -0.7745
  653MOL0     H86194   9.646   4.459  11.886 -0.8924  0.7784 -0.8537
  653MOL0     H86195   9.211   4.354  11.386 -0.3953 -1.2283 -2.2767
  653MOL0     H86196   8.982   4.338  11.327  2.2236 -1.9688 -0.5030
  654MOL0     O86197   9.057   3.456   0.640  0.3354  0.0432  0.3373
  654MOL0     C86198   9.070   3.334   0.638 -0.0678  0.2471  0.9124
  654MOL0     O86199   8.971   3.242   0.656 -0.8032 -0.7442  0.4317
  654MOL0     C86200   8.844   3.274   0.686 -0.4757 -0.2109 -0.9851
  654MOL0     C86201   8.786   3.394   0.671 -0.3412 -0.2207 -0.6419
  654MOL0     C86202   8.666   3.419   0.721  0.1538  0.3973  0.9336
  654MOL0     C86203   8.583   3.312   0.767 -0.5426 -0.2932 -0.3161
  654MOL0     O86204   8.466   3.341   0.831 -0.4150 -0.2263  0.4256
  654MOL0     C86205   8.384   3.238   0.881 -0.3637 -0.4348 -0.1495
  654MOL0     C86206   8.264   3.305   0.951 -0.4472  0.0593  0.1935
  654MOL0     C86207   8.146   3.211   0.970  0.7423  0.3501  0.2458
  654MOL0     C86208   8.026   3.248   1.059  0.5388  0.2319  0.0588
  654MOL0     C86209   7.942   3.362   0.981  0.1040 -0.1296 -0.3882
  654MOL0     C86210   7.830   3.402   1.068 -0.3755 -0.1055 -0.8640
  654MOL0     C86211   7.759   3.519   0.997 -0.3437  0.3750 -0.3470
  654MOL0     C86212   7.617   3.546   1.057 -0.4267 -0.1962 -0.1799
  654MOL0     N86213   7.617   3.581   1.200 -0.1943 -0.2285  0.7034
  654MOL0     C86214   7.655   3.709   1.243 -0.7774 -0.5321 -0.6359
  654MOL0     C86215   7.667   3.702   1.381  0.7519  0.2112 -0.7681
  654MOL0     C86216   7.692   3.814   1.471  0.2171  0.4932 -0.7328
  654MOL0     C86217   7.834   3.870   1.481 -0.2909  0.6430  0.4108
  654MOL0     C86218   7.854   4.020   1.520 -0.1810  0.4120  0.4799
  654MOL0     C86219   7.845   4.043   1.666  1.4885 -0.0140 -0.3056
  654MOL0     O86220   7.709   4.039   1.724 -0.0664  0.1369 -0.6531
  654MOL0     C86221   7.616   4.140   1.710  0.4940  0.7222 -0.7632
  654MOL0     C86222   7.486   4.116   1.752  0.0999 -0.5197 -0.3426
  654MOL0     C86223   7.386   4.210   1.737  0.1302  0.3209  0.7194
  654MOL0     C86224   7.417   4.337   1.681 -1.1653 -0.2174  0.0675
  654MOL0     C86225   7.303   4.426   1.653 -0.2518  0.1990 -0.1780
  654MOL0     O86226   7.173   4.380   1.662 -0.2092  0.2456  0.1832
  654MOL0     C86227   7.069   4.462   1.674  0.4107 -0.4733  0.4745
  654MOL0     C86228   6.942   4.402   1.695 -0.0009 -0.3949  0.1611
  654MOL0     C86229   6.825   4.479   1.719 -0.3815 -0.1928 -0.5057
  654MOL0     C86230   6.839   4.618   1.714  0.6787 -0.5933  0.8015
  654MOL0     O86231   6.736   4.703   1.745  0.4128  0.3433  0.7602
  654MOL0     C86232   6.640   4.672   1.841 -0.0498 -0.5296 -0.2770
  654MOL0     C86233   6.534   4.782   1.848 -0.1375 -0.0996  0.5431
  654MOL0     C86234   6.485   4.779   1.992 -1.2229  0.5192  0.5096
  654MOL0     C86235   6.365   4.878   2.011 -0.7848  0.0014 -0.3199
  654MOL0     C86236   6.288   4.849   2.133  0.0147 -0.1071 -0.0903
  654MOL0     C86237   6.354   4.866   2.277  0.5248 -1.1778  0.2124
  654MOL0     C86238   6.417   5.005   2.294  0.5565  0.7821  0.4531
  654MOL0     C86239   6.419   5.041   2.443 -0.0791  0.6609 -0.5620
  654MOL0    Cl86240   6.263   5.055   2.542  0.2817 -0.0831  0.1359
  654MOL0     C86241   6.959   4.681   1.668  0.3447 -0.5770  0.4160
  654MOL0     C86242   7.067   4.599   1.646 -0.1736  0.2876  0.0857
  654MOL0     O86243   7.330   4.547   1.653  0.1657  0.4138  0.0312
  654MOL0     C86244   7.557   4.365   1.650  0.7322 -0.2549 -0.5311
  654MOL0     C86245   7.653   4.262   1.661 -0.1482 -0.2349 -0.0101
  654MOL0     N86246   7.661   3.572   1.410 -0.9873  0.3861  0.2820
  654MOL0     N86247   7.623   3.495   1.308  0.5180  0.0797  0.5062
  654MOL0     C86248   8.646   3.189   0.776 -0.1794  0.0559  0.2903
  654MOL0     C86249   8.780   3.168   0.746 -0.0440  1.0198  0.3861
  654MOL0     C86250   9.208   3.292   0.616 -0.7892 -0.3558 -0.6454
  654MOL0     C86251   9.239   3.177   0.541  1.1001 -0.2261  0.6997
  654MOL0     C86252   9.368   3.140   0.511  0.2249  0.4484  1.0542
  654MOL0     C86253   9.473   3.232   0.544  0.4842  0.4921 -0.6617
  654MOL0     O86254   9.599   3.175   0.535 -0.5293  0.2754 -0.2359
  654MOL0     C86255   9.701   3.262   0.503 -0.3125 -0.3455  0.0013
  654MOL0     C86256   9.820   3.189   0.441 -0.3856 -0.3324  0.5443
  654MOL0     C86257   9.932   3.281   0.407 -0.3878  0.5843  0.6410
  654MOL0     C86258  10.060   3.235   0.342 -0.0441 -0.0483  0.2028
  654MOL0     C86259  10.048   3.115   0.262  0.6686  0.4192  0.4392
  654MOL0     C86260  10.052   3.004   0.213  0.8902  0.0685  0.1532
  654MOL0     C86261   9.447   3.349   0.616 -0.1343 -0.5709 -0.3543
  654MOL0     C86262   9.314   3.387   0.647  0.2307  0.3489  0.1776
  654MOL0     H86263   8.817   3.490   0.632 -4.0914  1.3846 -0.0320
  654MOL0     H86264   8.617   3.516   0.724  0.8065  0.7203  1.2343
  654MOL0     H86265   8.431   3.175   0.957  0.4034  1.5765  1.1462
  654MOL0     H86266   8.350   3.178   0.797 -0.0574 -1.0422  0.1545
  654MOL0     H86267   8.231   3.385   0.884  0.4391 -1.8755 -2.7687
  654MOL0     H86268   8.300   3.340   1.048  0.5092 -2.3847  0.8062
  654MOL0     H86269   8.185   3.117   1.009  0.1383 -0.0239 -0.0361
  654MOL0     H86270   8.090   3.192   0.878 -1.3743  0.1504  1.4935
  654MOL0     H86271   7.955   3.166   1.071  0.7005 -0.0542 -0.8001
  654MOL0     H86272   8.053   3.282   1.159  0.0515 -0.8890  0.5825
  654MOL0     H86273   7.911   3.332   0.880 -2.0875  0.5402  0.0162
  654MOL0     H86274   8.003   3.452   0.971 -1.1185  0.9504  1.4688
  654MOL0     H86275   7.867   3.448   1.161 -0.1612  1.6323 -1.7759
  654MOL0     H86276   7.770   3.316   1.097 -0.5826  0.8663  1.9438
  654MOL0     H86277   7.831   3.601   1.006  0.0619 -0.0112 -0.0039
  654MOL0     H86278   7.746   3.492   0.892 -1.6363 -0.0666 -0.0908
  654MOL0     H86279   7.560   3.453   1.044  1.3093 -1.7598  2.6098
  654MOL0     H86280   7.577   3.618   0.984  0.7587 -2.6439 -3.4542
  654MOL0     H86281   7.679   3.793   1.178  2.3486 -1.2834 -0.6252
  654MOL0     H86282   7.661   3.788   1.573 -1.2012  2.3564 -0.6255
  654MOL0     H86283   7.631   3.901   1.445  0.4728  0.8195 -0.2820
  654MOL0     H86284   7.883   3.853   1.384 -0.5401 -2.4354  0.6962
  654MOL0     H86285   7.890   3.805   1.549 -2.4617 -1.8966 -0.0498
  654MOL0     H86286   7.952   4.053   1.486  0.6160 -1.3360  0.9439
  654MOL0     H86287   7.778   4.085   1.475  1.2321  2.5476  1.0432
  654MOL0     H86288   7.888   4.142   1.682 -1.8638  1.5488 -0.1581
  654MOL0     H86289   7.908   3.966   1.713  0.6120 -1.4213 -1.3342
  654MOL0     H86290   7.474   4.018   1.798  0.8849 -0.6356 -0.3736
  654MOL0     H86291   7.284   4.179   1.757 -1.1796  3.7670  0.1626
  654MOL0     H86292   6.940   4.293   1.698  0.6577 -0.5628 -2.6066
  654MOL0     H86293   6.731   4.439   1.756  0.1579 -0.2426  0.8868
  654MOL0     H86294   6.692   4.667   1.937 -1.0543  1.8093  0.4514
  654MOL0     H86295   6.592   4.577   1.817 -1.0941 -0.3212  0.8930
  654MOL0     H86296   6.460   4.760   1.770 -0.2238  4.2712 -0.8703
  654MOL0     H86297   6.572   4.882   1.827 -1.3602  0.5558  1.3198
  654MOL0     H86298   6.570   4.798   2.059  0.4554 -2.1414 -0.6926
  654MOL0     H86299   6.445   4.682   2.022 -3.6245  2.3143  3.7884
  654MOL0     H86300   6.399   4.982   2.018  0.8146 -0.3958 -1.5777
  654MOL0     H86301   6.295   4.873   1.928 -1.9859  0.0166  0.6531
  654MOL0     H86302   6.246   4.748   2.129 -0.6474  0.1977 -1.8135
  654MOL0     H86303   6.203   4.917   2.129  0.1579  0.0134 -1.7131
  654MOL0     H86304   6.436   4.795   2.287  1.5533 -0.5950 -3.1212
  654MOL0     H86305   6.274   4.842   2.348 -1.0427 -0.1613 -1.1189
  654MOL0     H86306   6.521   4.989   2.266  1.4716  0.8807  3.4622
  654MOL0     H86307   6.362   5.080   2.235  0.2547  1.4688  1.5651
  654MOL0     H86308   6.482   5.130   2.449  0.3609  0.4741 -2.0323
  654MOL0     H86309   6.480   4.964   2.492 -0.5506 -0.2851 -1.4370
  654MOL0     H86310   6.976   4.785   1.643  1.0090 -0.3552  1.7060
  654MOL0     H86311   7.147   4.658   1.602 -1.3037  0.8254 -1.3243
  654MOL0     H86312   7.588   4.458   1.603 -1.2580  0.5551 -0.3484
  654MOL0     H86313   7.755   4.288   1.635 -0.1499 -1.0456 -0.8863
  654MOL0     H86314   8.596   3.108   0.828  2.6919 -1.7920  0.3734
  654MOL0     H86315   8.821   3.068   0.756 -1.6265 -0.0082 -2.3070
  654MOL0     H86316   9.152   3.119   0.510 -0.3190  2.3494 -0.4331
  654MOL0     H86317   9.396   3.041   0.476  0.2342  1.1694 -1.1705
  654MOL0     H86318   9.735   3.309   0.596 -0.5025 -0.0417 -0.0817
  654MOL0     H86319   9.656   3.333   0.433 -1.1874  0.3774  1.2572
  654MOL0     H86320   9.852   3.116   0.516 -0.3299 -3.0304 -1.9541
  654MOL0     H86321   9.798   3.136   0.348  1.3966  0.4802 -0.3827
  654MOL0     H86322   9.968   3.335   0.496  1.1865 -0.1402  0.4616
  654MOL0     H86323   9.892   3.356   0.338 -1.0975  1.0656  1.5299
  654MOL0     H86324  10.095   3.315   0.276 -0.6011  0.3473  0.3715
  654MOL0     H86325  10.141   3.231   0.415  0.0970  1.6992  0.1915
  654MOL0     H86326  10.055   2.903   0.177  1.1321  0.3195 -0.5441
  654MOL0     H86327   9.531   3.408   0.650 -0.0609  1.1862 -3.2832
  654MOL0     H86328   9.299   3.488   0.683  0.0076  0.7983 -1.0956
  655MOL0     O86329   9.382   8.866  10.799 -0.0710 -0.8497  0.2235
  655MOL0     C86330   9.433   8.769  10.838 -0.1117 -0.2315  1.0165
  655MOL0     O86331   9.387   8.667  10.922 -1.2105 -0.4878  0.1236
  655MOL0     C86332   9.251   8.655  10.942  0.2689  1.1192  0.4082
  655MOL0     C86333   9.193   8.623  11.070  0.5515  0.4044  0.6194
  655MOL0     C86334   9.051   8.627  11.092 -0.5210  0.0998  0.0287
  655MOL0     C86335   8.965   8.648  10.983 -0.6028  0.7161 -0.0061
  655MOL0     O86336   8.833   8.648  11.015 -0.0073  0.1121 -1.0447
  655MOL0     C86337   8.747   8.734  10.943  0.8597 -0.3191  0.8996
  655MOL0     C86338   8.790   8.885  10.934  0.0853 -0.2419  0.4788
  655MOL0     C86339   8.673   8.974  10.892  0.4246  0.0936 -0.2339
  655MOL0     C86340   8.589   8.919  10.773 -0.2180 -0.2798  0.8274
  655MOL0     C86341   8.482   9.021  10.736 -0.7872 -0.0969  0.0397
  655MOL0     C86342   8.376   8.975  10.632 -0.1584  0.3915 -0.0128
  655MOL0     C86343   8.286   9.090  10.615 -0.2229 -1.0545  0.4874
  655MOL0     C86344   8.160   9.029  10.536  0.1137 -1.3630 -0.2728
  655MOL0     N86345   8.041   9.104  10.565  0.4377 -0.2878  0.2554
  655MOL0     C86346   7.952   9.166  10.481 -0.0969 -1.0426 -0.0839
  655MOL0     C86347   7.851   9.214  10.551  0.1165  0.5813 -0.7192
  655MOL0     C86348   7.752   9.319  10.510 -0.5541 -0.2778  0.6649
  655MOL0     C86349   7.721   9.418  10.617 -0.1424 -0.2625  0.7495
  655MOL0     C86350   7.620   9.530  10.573 -0.5059  0.2384  0.0614
  655MOL0     C86351   7.470   9.487  10.567 -0.4014  0.4558 -1.0792
  655MOL0     O86352   7.400   9.587  10.496 -0.4726 -0.2969  0.8275
  655MOL0     C86353   7.269   9.602  10.475  0.2552  0.5471  0.2213
  655MOL0     C86354   7.221   9.730  10.448  0.3404  0.7661 -1.2683
  655MOL0     C86355   7.086   9.763  10.469 -0.1493  0.8532  0.7787
  655MOL0     C86356   6.995   9.663  10.498  0.5926  0.1179 -0.1023
  655MOL0     C86357   6.848   9.701  10.505 -0.7406 -0.0192 -0.3845
  655MOL0     O86358   6.756   9.606  10.516  0.1509  0.1590 -0.3482
  655MOL0     C86359   6.627   9.618  10.561  1.2779 -0.3054 -0.2318
  655MOL0     C86360   6.602   9.688  10.680 -0.5229 -0.1202 -0.7941
  655MOL0     C86361   6.474   9.718  10.714  0.4240  0.0447  0.8007
  655MOL0     C86362   6.370   9.695  10.626 -0.8186  0.3171 -0.1796
  655MOL0     O86363   6.247   9.732  10.671  0.5180  0.2777  0.4005
  655MOL0     C86364   6.147   9.752  10.567 -0.4559  0.6027 -0.4357
  655MOL0     C86365   6.033   9.834  10.629  0.0556  0.2382  0.5450
  655MOL0     C86366   5.936   9.874  10.517 -0.8073 -0.5676  0.2094
  655MOL0     C86367   5.812   9.952  10.566 -0.0530 -0.1210 -0.3941
  655MOL0     C86368   5.697   9.937  10.466 -0.6528 -0.3289  0.1647
  655MOL0     C86369   5.587  10.037  10.488  0.1650 -1.0817  0.4028
  655MOL0     C86370   5.485  10.024  10.374 -0.0198 -0.2569 -0.0828
  655MOL0     C86371   5.382   9.906  10.395 -0.4090 -0.5437  0.1748
  655MOL0    Cl86372   5.277   9.959  10.521  0.1496  0.2729  0.0113
  655MOL0     C86373   6.395   9.624  10.506  0.4777  0.0332 -0.4914
  655MOL0     C86374   6.524   9.578  10.481 -0.2022 -0.4712 -0.2857
  655MOL0     O86375   6.822   9.817  10.499  0.4247  0.4485 -0.2816
  655MOL0     C86376   7.041   9.529  10.515 -0.4754 -0.7972  0.6942
  655MOL0     C86377   7.178   9.497  10.497  0.2715 -0.2193  0.4479
  655MOL0     N86378   7.865   9.174  10.681  0.2546  0.1824 -0.1476
  655MOL0     N86379   7.973   9.109  10.685 -0.4440  0.4784 -0.2684
  655MOL0     C86380   9.019   8.665  10.853  0.6882  0.2970 -0.3813
  655MOL0     C86381   9.159   8.664  10.833 -0.0637  0.7322  0.1292
  655MOL0     C86382   9.575   8.772  10.795 -0.2230 -0.0126  0.1031
  655MOL0     C86383   9.635   8.883  10.724 -0.3661  1.1475  0.4842
  655MOL0     C86384   9.765   8.875  10.677  0.8641  0.3418  0.1942
  655MOL0     C86385   9.841   8.759  10.691 -0.0479  0.5364  0.5577
  655MOL0     O86386   9.971   8.764  10.643 -0.9099  0.7138  0.0549
  655MOL0     C86387  10.062   8.665  10.689  0.1989  0.2697  0.9635
  655MOL0     C86388  10.185   8.645  10.601 -0.3188  0.2878  0.5075
  655MOL0     C86389  10.139   8.622  10.459 -0.5638 -0.1860 -0.2090
  655MOL0     C86390  10.252   8.582  10.362  0.3280  0.0995  0.0952
  655MOL0     C86391  10.374   8.666  10.358  0.6886  0.3613  0.6419
  655MOL0     C86392  10.473   8.737  10.356  1.1973 -0.6931 -0.2762
  655MOL0     C86393   9.783   8.652  10.772 -0.5017  0.0452 -0.8920
  655MOL0     C86394   9.649   8.660  10.818 -1.2862 -0.7422 -0.1051
  655MOL0     H86395   9.255   8.598  11.154  0.7186  1.7894  0.9365
  655MOL0     H86396   9.007   8.621  11.191 -0.9505  0.1410 -0.1579
  655MOL0     H86397   8.652   8.732  10.996  0.8149 -0.9463  0.8008
  655MOL0     H86398   8.733   8.689  10.844 -1.5282 -0.3803  1.2111
  655MOL0     H86399   8.866   8.894  10.855  1.2587  0.0117  1.5942
  655MOL0     H86400   8.840   8.929  11.021 -2.8995  0.8202  1.7683
  655MOL0     H86401   8.710   9.076  10.878 -1.8006  1.1715  1.2439
  655MOL0     H86402   8.614   8.978  10.984  0.7906 -1.9996  0.1535
  655MOL0     H86403   8.651   8.899  10.685 -1.6430 -2.8226  0.3034
  655MOL0     H86404   8.546   8.823  10.801  0.7259 -1.1806 -0.6668
  655MOL0     H86405   8.533   9.114  10.712  2.1660 -1.8004 -0.7590
  655MOL0     H86406   8.425   9.037  10.829 -1.5537 -2.0909 -0.0411
  655MOL0     H86407   8.334   8.884  10.675  0.5179 -0.1242 -0.4207
  655MOL0     H86408   8.430   8.948  10.541 -3.0583 -1.2957 -1.3810
  655MOL0     H86409   8.261   9.129  10.714 -0.1396 -1.1071  0.5292
  655MOL0     H86410   8.331   9.168  10.553  1.0502 -0.5424  1.9912
  655MOL0     H86411   8.136   8.925  10.561 -1.9013 -0.9428 -0.2996
  655MOL0     H86412   8.190   9.027  10.431  0.6219 -2.2219 -0.1221
  655MOL0     H86413   7.980   9.194  10.380  1.7369  1.3149  0.9862
  655MOL0     H86414   7.658   9.269  10.486  0.1897 -1.0059 -0.8376
  655MOL0     H86415   7.788   9.367  10.419 -1.8028  0.9910  0.8006
  655MOL0     H86416   7.814   9.468  10.646  1.0164 -1.5154 -0.6442
  655MOL0     H86417   7.683   9.372  10.708  0.6625  3.4131  3.1577
  655MOL0     H86418   7.625   9.620  10.635 -2.1727  0.6960 -0.3949
  655MOL0     H86419   7.654   9.570  10.477 -2.0604  0.9825 -0.2125
  655MOL0     H86420   7.429   9.475  10.667  3.3703 -0.6750  0.5188
  655MOL0     H86421   7.466   9.394  10.510  1.0266  0.3416 -1.0371
  655MOL0     H86422   7.296   9.806  10.427  0.3505  0.2088 -3.4796
  655MOL0     H86423   7.052   9.865  10.451 -2.7749 -0.0851  0.0088
  655MOL0     H86424   6.681   9.709  10.751 -1.4969  2.2838 -0.3104
  655MOL0     H86425   6.447   9.764  10.809  1.1237 -0.8210  1.4260
  655MOL0     H86426   6.111   9.654  10.535  2.1527 -0.1131 -1.5076
  655MOL0     H86427   6.188   9.795  10.475 -2.2439  2.2751 -0.5150
  655MOL0     H86428   6.073   9.920  10.684  0.9264 -0.9331  1.7943
  655MOL0     H86429   5.978   9.777  10.704  0.4042 -2.0240 -0.8424
  655MOL0     H86430   5.912   9.777  10.473  0.0643 -0.1061 -1.3539
  655MOL0     H86431   5.987   9.939  10.445 -1.5968  2.7934  2.4350
  655MOL0     H86432   5.776   9.924  10.665  0.7587  0.4366  0.0664
  655MOL0     H86433   5.846  10.056  10.571 -0.2760  0.1921 -3.3898
  655MOL0     H86434   5.660   9.835  10.464 -1.5135 -0.0668  1.3917
  655MOL0     H86435   5.737   9.957  10.366 -1.2826 -2.5040 -0.5781
  655MOL0     H86436   5.628  10.139  10.489  3.1805 -2.1991  0.5033
  655MOL0     H86437   5.539  10.008  10.582 -0.4016 -1.9409 -0.1397
  655MOL0     H86438   5.432  10.119  10.361 -2.5458 -1.6278 -0.4377
  655MOL0     H86439   5.547  10.011  10.285  3.5631 -3.1491  2.5067
  655MOL0     H86440   5.433   9.815  10.430 -1.0499 -0.4989  1.2792
  655MOL0     H86441   5.327   9.899  10.300  0.9994  1.7638 -0.8925
  655MOL0     H86442   6.318   9.596  10.434  0.4787  2.8259 -1.6951
  655MOL0     H86443   6.543   9.515  10.395  0.3024  1.8225 -1.9618
  655MOL0     H86444   6.967   9.455  10.543 -3.4366  1.3954 -0.7853
  655MOL0     H86445   7.209   9.394  10.512  1.0924  0.1000  1.0079
  655MOL0     H86446   8.947   8.673  10.772 -1.3550  1.4566  1.4243
  655MOL0     H86447   9.198   8.676  10.732 -2.1848 -1.6692 -1.0960
  655MOL0     H86448   9.573   8.971  10.710 -1.4430  0.0457 -2.2571
  655MOL0     H86449   9.808   8.958  10.622 -0.4514 -0.4336 -2.1622
  655MOL0     H86450  10.014   8.567  10.696  0.2992  0.2434  1.2983
  655MOL0     H86451  10.093   8.690  10.791  2.4424  0.8116  0.2305
  655MOL0     H86452  10.253   8.731  10.598 -0.1092  0.1087 -2.1018
  655MOL0     H86453  10.242   8.557  10.633 -0.8775 -0.8632 -1.5072
  655MOL0     H86454  10.098   8.713  10.416 -0.0874 -0.2952 -0.9010
  655MOL0     H86455  10.054   8.554  10.457 -1.4849  0.9180  0.2808
  655MOL0     H86456  10.289   8.483  10.390  1.1523  0.9109  2.0955
  655MOL0     H86457  10.200   8.569  10.267 -0.6845  0.9065  0.5143
  655MOL0     H86458  10.553   8.806  10.339  0.5117 -0.0715 -1.0708
  655MOL0     H86459   9.830   8.556  10.793  0.2838 -0.1337 -3.1817
  655MOL0     H86460   9.604   8.574  10.867  1.9102 -1.6423  1.5523
  656MOL0     O86461  10.608   0.221   7.344  0.2603 -0.8664 -0.2996
  656MOL0     C86462  10.610   0.347   7.342  0.3384  0.1601  0.0149
  656MOL0     O86463  10.497   0.434   7.371 -0.8023  0.7643  0.0866
  656MOL0     C86464  10.383   0.397   7.430 -1.1218 -0.5063  0.2651
  656MOL0     C86465  10.270   0.474   7.393  0.5430  0.0158  0.2443
  656MOL0     C86466  10.141   0.433   7.438  0.0235 -0.0169 -0.7210
  656MOL0     C86467  10.129   0.320   7.517  0.0674 -0.4292  0.2515
  656MOL0     O86468  10.008   0.273   7.554 -0.0615  0.0918  0.1189
  656MOL0     C86469   9.904   0.358   7.599 -1.0423  0.1184  0.3347
  656MOL0     C86470   9.804   0.281   7.694 -0.0537 -0.8384  0.2153
  656MOL0     C86471   9.692   0.377   7.747 -0.3965  0.1259  0.1784
  656MOL0     C86472   9.733   0.446   7.880  0.8821  0.0946  0.3912
  656MOL0     C86473   9.617   0.516   7.941  0.1300 -0.5803  1.0476
  656MOL0     C86474   9.530   0.598   7.845  0.9942 -0.0589 -0.4730
  656MOL0     C86475   9.446   0.696   7.916  1.2557 -0.7795 -0.6477
  656MOL0     C86476   9.359   0.640   8.031 -0.5577 -0.4740  0.3008
  656MOL0     N86477   9.270   0.742   8.080 -0.7236 -0.4988  0.4305
  656MOL0     C86478   9.288   0.880   8.091  0.2222 -0.0112  1.0114
  656MOL0     C86479   9.194   0.932   8.166  0.1261 -0.0581  0.4785
  656MOL0     C86480   9.161   1.075   8.198 -0.4677 -0.4611  0.5291
  656MOL0     C86481   9.241   1.126   8.324 -0.0861 -0.2172  0.0321
  656MOL0     C86482   9.212   1.276   8.347 -0.5700  0.5809 -0.1472
  656MOL0     C86483   9.294   1.329   8.449 -0.9237 -0.2508 -0.9910
  656MOL0     O86484   9.304   1.470   8.434 -0.4635  0.1025  0.0186
  656MOL0     C86485   9.283   1.555   8.540 -0.0150  1.3726  0.4328
  656MOL0     C86486   9.169   1.549   8.623 -0.1992 -0.3469  0.4083
  656MOL0     C86487   9.176   1.618   8.742  0.8152 -0.2506  0.1195
  656MOL0     C86488   9.279   1.708   8.775 -1.0734  0.1440  0.7271
  656MOL0     C86489   9.257   1.804   8.888 -0.4732  0.3909  0.4149
  656MOL0     O86490   9.131   1.815   8.940  0.4778 -0.7477  0.0232
  656MOL0     C86491   9.112   1.884   9.057  0.5081  0.6991 -0.5973
  656MOL0     C86492   9.200   1.888   9.168  0.5939  0.3275  0.2559
  656MOL0     C86493   9.173   1.966   9.285 -0.1403 -0.2964 -0.3319
  656MOL0     C86494   9.053   2.047   9.282  0.0880  0.2703  0.0458
  656MOL0     O86495   9.010   2.138   9.377 -0.2351  0.2680 -0.0297
  656MOL0     C86496   9.103   2.168   9.482  0.0148 -0.0768  0.0360
  656MOL0     C86497   9.050   2.286   9.568 -0.1286  0.8236 -0.3708
  656MOL0     C86498   8.910   2.287   9.609 -0.3479 -0.3915  0.2968
  656MOL0     C86499   8.859   2.417   9.649 -0.0666 -0.1166  0.7786
  656MOL0     C86500   8.715   2.394   9.699  0.7758 -0.2248 -0.8852
  656MOL0     C86501   8.628   2.518   9.670  0.4827 -0.8755 -0.6479
  656MOL0     C86502   8.476   2.515   9.701  0.5342 -0.0030  0.9120
  656MOL0     C86503   8.458   2.532   9.852 -0.2835  0.4119  0.9284
  656MOL0    Cl86504   8.289   2.537   9.899  0.0354  0.0510 -0.2449
  656MOL0     C86505   8.964   2.033   9.178  0.2837  0.4683 -0.8560
  656MOL0     C86506   8.992   1.957   9.059  0.2104 -0.4043 -0.4401
  656MOL0     O86507   9.346   1.886   8.914 -0.2563 -0.2389 -0.0111
  656MOL0     C86508   9.389   1.704   8.692  0.3373 -0.4170  0.0042
  656MOL0     C86509   9.396   1.628   8.581 -0.5690  0.0102 -0.0255
  656MOL0     N86510   9.118   0.822   8.211  0.3365 -0.0410 -0.2455
  656MOL0     N86511   9.165   0.712   8.165  0.3649 -0.0153  0.0266
  656MOL0     C86512  10.235   0.243   7.552 -0.1469 -1.0887 -0.9115
  656MOL0     C86513  10.362   0.282   7.502 -0.0921  0.6599 -0.1688
  656MOL0     C86514  10.732   0.412   7.297  0.0150  0.3345  0.2096
  656MOL0     C86515  10.835   0.345   7.232 -0.8451  0.4339 -0.7573
  656MOL0     C86516  10.951   0.412   7.189 -0.2577 -0.2234 -0.6922
  656MOL0     C86517  10.967   0.549   7.214 -0.7676  0.2348  0.6993
  656MOL0     O86518  11.084   0.610   7.175 -0.6641  0.3015  0.0999
  656MOL0     C86519  11.114   0.751   7.213  0.4338  0.8643 -0.1767
  656MOL0     C86520  11.264   0.776   7.199  0.0526 -0.6545 -0.0836
  656MOL0     C86521  11.311   0.726   7.057 -0.7062  0.4650 -0.2709
  656MOL0     C86522  11.438   0.796   7.001  0.5623  0.4382 -0.2489
  656MOL0     C86523  11.541   0.810   7.104  0.1097  0.2554  0.7320
  656MOL0     C86524  11.630   0.834   7.186  0.3593  0.4893 -0.0453
  656MOL0     C86525  10.862   0.611   7.277  0.4033 -0.1475 -0.4575
  656MOL0     C86526  10.746   0.542   7.330 -0.4764  0.1294  0.0356
  656MOL0     H86527  10.278   0.564   7.333 -0.3561 -1.2189 -1.8270
  656MOL0     H86528  10.054   0.493   7.413  0.3457  0.3505 -0.9829
  656MOL0     H86529   9.848   0.401   7.517 -0.4533  2.1778  0.9445
  656MOL0     H86530   9.956   0.438   7.653  0.2896  0.8824 -1.9701
  656MOL0     H86531   9.859   0.230   7.774 -0.0231  0.2469  0.9193
  656MOL0     H86532   9.747   0.210   7.634  0.7216  1.1816 -3.1955
  656MOL0     H86533   9.604   0.316   7.768 -0.2286 -0.3133 -0.3611
  656MOL0     H86534   9.659   0.445   7.668 -2.9787  0.7522  1.6914
  656MOL0     H86535   9.771   0.378   7.957 -2.4485  0.9212  3.0066
  656MOL0     H86536   9.811   0.523   7.874  1.2153  0.1932  3.9779
  656MOL0     H86537   9.658   0.576   8.023  1.4859 -2.8855  2.1422
  656MOL0     H86538   9.554   0.439   7.987  1.8938 -1.4385  2.1038
  656MOL0     H86539   9.463   0.528   7.793  1.0170  0.1128 -0.7360
  656MOL0     H86540   9.583   0.650   7.765  0.1408  0.9475 -0.4003
  656MOL0     H86541   9.508   0.771   7.965  0.5787 -1.1383  0.8148
  656MOL0     H86542   9.378   0.746   7.845 -2.1426 -0.7986  2.2847
  656MOL0     H86543   9.425   0.615   8.114 -1.5595 -1.2070  0.9026
  656MOL0     H86544   9.302   0.552   8.002  1.4528 -2.1571  1.1919
  656MOL0     H86545   9.362   0.933   8.031 -1.3562  2.1014  0.8296
  656MOL0     H86546   9.054   1.072   8.220 -0.7967 -3.8990 -0.9028
  656MOL0     H86547   9.186   1.139   8.113 -1.4619  0.0965  0.6436
  656MOL0     H86548   9.348   1.122   8.303  0.3603  5.5325 -0.5872
  656MOL0     H86549   9.218   1.074   8.417  3.1391  0.4176  1.3305
  656MOL0     H86550   9.235   1.328   8.253  1.1538  2.3249  1.1546
  656MOL0     H86551   9.104   1.279   8.368 -1.1494  0.1705 -2.7016
  656MOL0     H86552   9.390   1.276   8.453 -1.6602 -1.5939 -0.1339
  656MOL0     H86553   9.248   1.300   8.544  1.0886 -0.0178  0.1169
  656MOL0     H86554   9.076   1.499   8.598 -1.5772  1.7361  1.0114
  656MOL0     H86555   9.087   1.611   8.804  0.2135 -0.4055 -0.7457
  656MOL0     H86556   9.293   1.833   9.159 -0.2870 -1.6129  2.1379
  656MOL0     H86557   9.249   1.981   9.361 -0.0694  0.3425 -0.5217
  656MOL0     H86558   9.197   2.202   9.439 -0.4688  1.9909  0.4839
  656MOL0     H86559   9.130   2.080   9.542  3.9998 -0.0422 -1.4169
  656MOL0     H86560   9.071   2.377   9.510  0.1563  0.1914 -1.2724
  656MOL0     H86561   9.111   2.305   9.657  1.2142 -0.0185 -1.0796
  656MOL0     H86562   8.907   2.231   9.702  0.1801 -0.7252  0.1193
  656MOL0     H86563   8.842   2.248   9.532  2.3049 -1.6531 -1.5531
  656MOL0     H86564   8.917   2.456   9.733  0.5950  0.5224  0.0287
  656MOL0     H86565   8.859   2.493   9.571  2.4097 -2.4678 -1.7125
  656MOL0     H86566   8.721   2.384   9.808  1.2919 -2.0710 -1.0584
  656MOL0     H86567   8.678   2.296   9.667 -1.3410  1.2290 -3.3528
  656MOL0     H86568   8.637   2.546   9.565  3.4333  0.8371 -0.0559
  656MOL0     H86569   8.667   2.604   9.723  1.0427 -1.4730 -0.0780
  656MOL0     H86570   8.420   2.595   9.652  0.6569 -0.0414  0.7072
  656MOL0     H86571   8.424   2.430   9.656  1.2748  0.8773 -1.7690
  656MOL0     H86572   8.516   2.622   9.878  0.4123  1.1161 -2.4940
  656MOL0     H86573   8.506   2.447   9.900  1.5857  0.2121 -1.1193
  656MOL0     H86574   8.868   2.083   9.184  0.2750  0.4226 -0.5807
  656MOL0     H86575   8.928   1.956   8.971 -1.2509  0.2721  0.5662
  656MOL0     H86576   9.469   1.772   8.719  0.1040  0.5624 -1.6642
  656MOL0     H86577   9.491   1.635   8.529 -0.7931 -0.0918 -0.4504
  656MOL0     H86578  10.210   0.149   7.600 -1.6012  0.0390  0.6677
  656MOL0     H86579  10.439   0.209   7.525 -0.1167  0.7053  0.0509
  656MOL0     H86580  10.828   0.242   7.198  1.7850  0.1906 -0.7210
  656MOL0     H86581  11.038   0.369   7.140 -0.0511 -0.3211 -0.2466
  656MOL0     H86582  11.086   0.764   7.318 -0.7935 -1.4774 -0.1294
  656MOL0     H86583  11.059   0.817   7.146  0.8106  0.4360 -0.9284
  656MOL0     H86584  11.275   0.885   7.208 -2.8946 -0.2804 -0.0170
  656MOL0     H86585  11.310   0.725   7.284 -0.3594  0.5138  0.8678
  656MOL0     H86586  11.234   0.750   6.984 -0.1645 -0.6870 -1.2535
  656MOL0     H86587  11.319   0.617   7.059 -0.5022  0.4443 -1.6338
  656MOL0     H86588  11.468   0.731   6.919  0.1382 -2.7994  1.9497
  656MOL0     H86589  11.398   0.895   6.980  1.4400  1.4507  2.4539
  656MOL0     H86590  11.713   0.845   7.254  1.7008 -1.7277 -1.1856
  656MOL0     H86591  10.865   0.719   7.292  0.2449  0.2535 -2.8853
  656MOL0     H86592  10.663   0.596   7.373 -1.6012 -1.3013 -0.2816
  657MOL0     O86593   2.336  10.272   3.018 -0.0730 -0.7519 -0.4865
  657MOL0     C86594   2.327  10.195   2.933 -0.6848  0.1118  0.7984
  657MOL0     O86595   2.423  10.151   2.844  0.0819 -0.1131 -0.0772
  657MOL0     C86596   2.542  10.226   2.839  0.7553 -0.2137  0.4889
  657MOL0     C86597   2.656  10.163   2.810 -0.0382  0.1229 -0.5705
  657MOL0     C86598   2.775  10.236   2.789 -0.3650  0.5159 -0.3890
  657MOL0     C86599   2.777  10.369   2.804  0.2679  0.0744  0.2319
  657MOL0     O86600   2.896  10.432   2.765 -0.1112 -0.0936 -0.0283
  657MOL0     C86601   2.908  10.578   2.753 -0.0858  0.4212 -0.3136
  657MOL0     C86602   3.035  10.619   2.676  1.1253 -0.1427 -0.2627
  657MOL0     C86603   3.156  10.592   2.770 -0.4946 -0.6854  0.5399
  657MOL0     C86604   3.280  10.596   2.680 -0.8728  0.0213  0.3022
  657MOL0     C86605   3.401  10.539   2.760 -0.0200  0.5051  0.2339
  657MOL0     C86606   3.535  10.578   2.699 -0.3734  0.1087  0.5058
  657MOL0     C86607   3.559  10.516   2.563 -0.0417  0.2223  0.5225
  657MOL0     C86608   3.701  10.553   2.521  0.1359  0.4051 -0.2327
  657MOL0     N86609   3.805  10.517   2.632  0.1590  0.3797  0.5346
  657MOL0     C86610   3.854  10.389   2.657 -0.5111  0.1876 -0.7535
  657MOL0     C86611   3.954  10.423   2.748 -1.0153  0.4630 -0.1238
  657MOL0     C86612   4.053  10.321   2.802  0.3501 -1.1192 -0.3027
  657MOL0     C86613   3.973  10.233   2.904 -0.5093  0.0615  0.0468
  657MOL0     C86614   3.987  10.299   3.041  0.9254  0.1383  0.1162
  657MOL0     C86615   3.870  10.292   3.142 -0.1524  0.9925  1.0547
  657MOL0     O86616   3.755  10.341   3.076  0.4862 -0.4441 -0.3533
  657MOL0     C86617   3.639  10.362   3.148  0.3388  0.0167  0.4359
  657MOL0     C86618   3.540  10.436   3.090  0.6176  0.6354 -0.2507
  657MOL0     C86619   3.419  10.465   3.166  0.6370  0.1046  0.3205
  657MOL0     C86620   3.397  10.421   3.296 -0.7611  0.3585  0.8677
  657MOL0     C86621   3.261  10.430   3.361 -0.4623  0.0152 -0.3030
  657MOL0     O86622   3.155  10.479   3.285  0.1159  0.0288  0.6673
  657MOL0     C86623   3.024  10.455   3.326 -0.1083 -0.4303  1.3349
  657MOL0     C86624   2.927  10.438   3.231 -0.4891  0.3907  0.1711
  657MOL0     C86625   2.796  10.427   3.261  0.4000 -0.1317 -0.5709
  657MOL0     C86626   2.750  10.445   3.396 -0.2971  0.3189  1.1436
  657MOL0     O86627   2.619  10.439   3.437  0.2371 -0.2464  0.3745
  657MOL0     C86628   2.528  10.358   3.355  0.1647 -0.6374 -0.5305
  657MOL0     C86629   2.394  10.339   3.433 -0.0902 -0.0118 -0.3837
  657MOL0     C86630   2.304  10.232   3.383 -0.8283 -0.4254 -0.5812
  657MOL0     C86631   2.164  10.243   3.451 -0.3926 -0.0866  0.5081
  657MOL0     C86632   2.072  10.146   3.386  0.2030  0.1475  0.5693
  657MOL0     C86633   1.925  10.186   3.402  0.2719  0.6616 -0.0648
  657MOL0     C86634   1.884  10.211   3.550 -0.1263  0.2878 -0.1352
  657MOL0     C86635   1.734  10.198   3.557  0.7403 -0.6525  0.6790
  657MOL0    Cl86636   1.684  10.219   3.726 -0.1384 -0.0710  0.0380
  657MOL0     C86637   2.847  10.447   3.492  0.3916 -0.8103 -0.6972
  657MOL0     C86638   2.983  10.453   3.461  0.1458  0.0964 -0.5455
  657MOL0     O86639   3.255  10.371   3.471  0.2275 -0.2818 -0.3614
  657MOL0     C86640   3.504  10.358   3.357 -0.6589  0.0533 -0.3641
  657MOL0     C86641   3.623  10.321   3.284  0.1585 -0.2976 -0.1303
  657MOL0     N86642   3.963  10.562   2.767  0.6402  0.0163  0.5182
  657MOL0     N86643   3.874  10.614   2.690 -0.1944 -0.5036  0.1876
  657MOL0     C86644   2.662  10.437   2.836 -0.4061 -0.5617 -0.8040
  657MOL0     C86645   2.544  10.362   2.850 -0.2318 -0.2048  0.4539
  657MOL0     C86646   2.192  10.148   2.912  0.2416 -0.3537 -0.1761
  657MOL0     C86647   2.086  10.234   2.937  0.8494 -0.2392  0.2843
  657MOL0     C86648   1.949  10.187   2.912  0.6668  0.2006 -0.2897
  657MOL0     C86649   1.924  10.051   2.872 -0.2038  0.2373  0.6479
  657MOL0     O86650   1.789  10.010   2.874  0.2436  0.6452  0.5212
  657MOL0     C86651   1.771   9.871   2.831 -0.0762 -0.2662 -0.8976
  657MOL0     C86652   1.632   9.867   2.771  0.6462  0.0020 -0.4293
  657MOL0     C86653   1.598   9.727   2.715  0.2408 -0.2243 -0.9648
  657MOL0     C86654   1.472   9.716   2.631 -0.6895  0.1489  0.8408
  657MOL0     C86655   1.354   9.699   2.705 -0.1437 -0.1166 -0.7791
  657MOL0     C86656   1.254   9.684   2.773 -0.4279 -0.3612  0.4090
  657MOL0     C86657   2.037   9.981   2.825 -0.7841 -0.5108  0.4417
  657MOL0     C86658   2.163  10.027   2.837 -0.4590 -0.7303 -0.5168
  657MOL0     H86659   2.640  10.056   2.820  0.4561  0.0584 -0.4275
  657MOL0     H86660   2.867  10.182   2.768 -1.4937 -1.8365  0.3339
  657MOL0     H86661   2.902  10.617   2.855 -0.1743 -2.5102  0.9037
  657MOL0     H86662   2.824  10.610   2.692 -0.6875 -1.4044 -0.5082
  657MOL0     H86663   3.035  10.722   2.638 -0.0938  0.6334  1.6793
  657MOL0     H86664   3.049  10.554   2.589 -0.3307  0.5490 -1.0535
  657MOL0     H86665   3.142  10.494   2.816 -1.4435 -0.6876  0.2588
  657MOL0     H86666   3.160  10.676   2.840 -3.3599 -0.9939  1.1978
  657MOL0     H86667   3.256  10.536   2.593 -2.1285  1.8331 -0.6730
  657MOL0     H86668   3.314  10.690   2.635  1.5681 -0.9676 -0.1010
  657MOL0     H86669   3.389  10.431   2.754 -1.5995  0.6741 -0.2495
  657MOL0     H86670   3.395  10.566   2.866  1.3510  0.7717  0.2514
  657MOL0     H86671   3.606  10.532   2.768  1.8952  1.2813 -0.9563
  657MOL0     H86672   3.572  10.681   2.702  1.2645 -0.4153 -0.5677
  657MOL0     H86673   3.554  10.409   2.583 -0.7671  0.0129 -0.6550
  657MOL0     H86674   3.484  10.535   2.485 -1.0034 -2.2517  0.7442
  657MOL0     H86675   3.718  10.659   2.501  1.6434  0.9570  3.2280
  657MOL0     H86676   3.732  10.494   2.433  1.3925  0.0438  0.4195
  657MOL0     H86677   3.831  10.289   2.622  1.0673 -1.0352  1.4704
  657MOL0     H86678   4.139  10.363   2.854  1.6950 -2.5203 -1.2710
  657MOL0     H86679   4.101  10.253   2.730  0.9593  0.6530 -1.6619
  657MOL0     H86680   4.010  10.130   2.907  2.3472  1.0265  0.7071
  657MOL0     H86681   3.867  10.232   2.876 -0.3050 -0.3913 -0.7594
  657MOL0     H86682   4.071  10.261   3.100 -0.7646 -1.3282  1.6951
  657MOL0     H86683   4.011  10.405   3.044  3.6933 -0.4419  0.5709
  657MOL0     H86684   3.899  10.332   3.239  0.0503 -1.3992  2.0616
  657MOL0     H86685   3.849  10.186   3.164 -0.4708  0.9374  0.5194
  657MOL0     H86686   3.556  10.475   2.989 -0.6810 -1.3416 -1.2691
  657MOL0     H86687   3.345  10.526   3.116 -0.3400 -0.9016  0.4899
  657MOL0     H86688   2.949  10.449   3.125 -0.8198  1.1734  0.1782
  657MOL0     H86689   2.714  10.435   3.191 -0.1179  1.5391  0.1794
  657MOL0     H86690   2.577  10.262   3.343  0.2874 -0.4390 -1.7108
  657MOL0     H86691   2.494  10.398   3.259  0.8203  1.5460  0.0935
  657MOL0     H86692   2.340  10.433   3.426 -0.3534 -0.0451  0.9296
  657MOL0     H86693   2.413  10.313   3.538 -0.5756  1.1290 -0.0025
  657MOL0     H86694   2.350  10.133   3.392  1.5796  0.6535 -0.3574
  657MOL0     H86695   2.291  10.242   3.275  0.1045 -1.2100 -0.7745
  657MOL0     H86696   2.166  10.224   3.559  0.7160  0.2271  0.5562
  657MOL0     H86697   2.137  10.348   3.437  2.8382  1.1871  2.6281
  657MOL0     H86698   2.086  10.049   3.435 -3.0711 -0.3861  0.6621
  657MOL0     H86699   2.081  10.139   3.278  2.8774 -0.7785  0.7803
  657MOL0     H86700   1.873  10.093   3.376 -3.5253  1.8829  2.2386
  657MOL0     H86701   1.900  10.272   3.339 -1.6274 -1.1515 -1.9108
  657MOL0     H86702   1.930  10.136   3.617  0.2223  0.2025 -0.4642
  657MOL0     H86703   1.907  10.314   3.579  0.0937 -0.0524  0.9553
  657MOL0     H86704   1.693  10.100   3.528 -0.1977  0.5286 -2.3987
  657MOL0     H86705   1.683  10.270   3.492  3.3892 -0.1126 -0.9526
  657MOL0     H86706   2.805  10.452   3.592  0.2477 -0.9238 -0.7505
  657MOL0     H86707   3.051  10.465   3.545 -0.7066  1.1439  0.0144
  657MOL0     H86708   3.501  10.314   3.456 -1.0924 -0.0034 -0.4032
  657MOL0     H86709   3.694  10.255   3.333 -0.4059 -1.6777 -1.0949
  657MOL0     H86710   2.654  10.545   2.831  1.5875 -0.2815  0.7400
  657MOL0     H86711   2.451  10.415   2.868 -1.0133 -0.8405 -1.4687
  657MOL0     H86712   2.112  10.330   2.978  1.5870 -0.7723  1.0975
  657MOL0     H86713   1.865  10.250   2.941  2.6655  1.7566  2.6862
  657MOL0     H86714   1.788   9.794   2.907  2.1896  1.0992  0.0675
  657MOL0     H86715   1.836   9.852   2.745  1.7991 -1.7745  0.7664
  657MOL0     H86716   1.557   9.904   2.841 -1.0135 -1.9174 -1.0632
  657MOL0     H86717   1.626   9.931   2.682  0.8430 -0.2154 -0.6006
  657MOL0     H86718   1.584   9.662   2.802  1.5240  1.1731  0.3257
  657MOL0     H86719   1.690   9.693   2.667  1.6303  1.1635  0.5887
  657MOL0     H86720   1.477   9.808   2.572  0.6260 -1.6226 -2.0030
  657MOL0     H86721   1.463   9.642   2.552 -4.9971  1.5426 -0.2490
  657MOL0     H86722   1.167   9.668   2.833  0.1792  0.5594  1.5942
  657MOL0     H86723   2.034   9.887   2.771 -1.3561 -1.2382  1.6988
  657MOL0     H86724   2.242   9.962   2.802  0.3201 -1.0665  1.7347
  658MOL0     O86725   0.756  10.465   8.551 -0.3941  0.3393  0.4105
  658MOL0     C86726   0.775  10.484   8.432  0.0580  0.7820  0.1332
  658MOL0     O86727   0.674  10.477   8.339  0.0202 -0.4225  0.0086
  658MOL0     C86728   0.543  10.448   8.368 -0.6921 -0.2894  0.0788
  658MOL0     C86729   0.494  10.318   8.379  0.6022 -0.0479  0.0904
  658MOL0     C86730   0.355  10.292   8.378 -1.3283 -0.2124 -0.1079
  658MOL0     C86731   0.269  10.398   8.371 -0.6042  0.3356  0.1883
  658MOL0     O86732   0.135  10.383   8.353  0.0599 -0.2275  0.0050
  658MOL0     C86733   0.074  10.252   8.367  0.1769 -0.6188  0.5759
  658MOL0     C86734  -0.072  10.262   8.334  0.5714 -0.6486  0.3740
  658MOL0     C86735  -0.157  10.137   8.360 -0.3225 -0.0363  0.1174
  658MOL0     C86736  -0.100  10.010   8.292  0.2023  0.0109 -0.3859
  658MOL0     C86737  -0.173   9.873   8.330  0.0794  0.1561 -0.0881
  658MOL0     C86738  -0.307   9.855   8.259 -0.0885  0.2392 -0.2932
  658MOL0     C86739  -0.358   9.713   8.281  0.6504  0.3556  0.4372
  658MOL0     C86740  -0.488   9.682   8.199 -0.3731 -0.3199  0.4272
  658MOL0     N86741  -0.512   9.538   8.192 -0.3634  0.1553  0.4260
  658MOL0     C86742  -0.577   9.462   8.287  0.5792 -0.6015  0.4510
  658MOL0     C86743  -0.594   9.343   8.221  0.1563 -0.0921  0.5857
  658MOL0     C86744  -0.664   9.217   8.280  0.3003 -0.5183 -0.3497
  658MOL0     C86745  -0.806   9.213   8.233 -0.3103  0.3418 -0.7888
  658MOL0     C86746  -0.896   9.106   8.303  0.4618 -0.9068 -0.1982
  658MOL0     C86747  -1.025   9.088   8.221 -0.0392  0.0825 -0.3627
  658MOL0     O86748  -0.988   9.048   8.093  0.5051 -1.0815 -0.2270
  658MOL0     C86749  -1.087   9.047   7.998 -0.4645  0.1985 -0.2757
  658MOL0     C86750  -1.048   9.009   7.867 -0.4398 -0.4717  0.3733
  658MOL0     C86751  -1.136   8.996   7.760  0.0961 -0.6066  0.0601
  658MOL0     C86752  -1.274   9.015   7.791 -0.8318  0.2945 -0.0994
  658MOL0     C86753  -1.376   9.005   7.684  0.3439 -0.4562  0.0769
  658MOL0     O86754  -1.492   9.078   7.708 -0.4057 -0.5304 -0.0787
  658MOL0     C86755  -1.589   9.079   7.613  0.6524  0.4850 -0.4417
  658MOL0     C86756  -1.720   9.034   7.654 -0.0082 -0.1253  0.0304
  658MOL0     C86757  -1.820   9.028   7.562 -0.9236  1.0383 -0.2871
  658MOL0     C86758  -1.801   9.070   7.426  0.2374 -0.0457  0.2497
  658MOL0     O86759  -1.900   9.077   7.329 -0.1113  0.0033 -0.2510
  658MOL0     C86760  -2.034   9.072   7.375  0.4743 -0.5899 -0.0933
  658MOL0     C86761  -2.124   9.039   7.255  0.0584 -0.0810  0.8082
  658MOL0     C86762  -2.272   9.039   7.301  0.5551 -0.0455  0.0925
  658MOL0     C86763  -2.369   9.018   7.176  0.0581 -0.6163  1.0040
  658MOL0     C86764  -2.510   9.011   7.223 -0.1083 -0.6291  0.0302
  658MOL0     C86765  -2.603   8.980   7.101 -0.6909 -0.2480  0.0587
  658MOL0     C86766  -2.750   8.964   7.139 -0.8611  1.3612 -0.0375
  658MOL0     C86767  -2.848   8.986   7.029 -0.6148  0.4540 -0.1000
  658MOL0    Cl86768  -2.847   8.885   6.878 -0.1267 -0.4831  0.0661
  658MOL0     C86769  -1.676   9.108   7.384  0.2972  0.0695  0.5780
  658MOL0     C86770  -1.570   9.120   7.480 -0.1872 -0.1433  0.0568
  658MOL0     O86771  -1.348   8.947   7.579  0.4993  0.0193  0.4973
  658MOL0     C86772  -1.319   9.060   7.918 -0.1081  0.6724  0.6248
  658MOL0     C86773  -1.224   9.075   8.020 -0.3865  0.0450 -0.0259
  658MOL0     N86774  -0.540   9.358   8.097 -0.0022  0.3923  0.1974
  658MOL0     N86775  -0.490   9.463   8.077 -0.2632 -1.0428 -0.1668
  658MOL0     C86776   0.311  10.527   8.369  0.4629  0.4519  0.0657
  658MOL0     C86777   0.449  10.550   8.361  0.2553 -0.0848 -0.0030
  658MOL0     C86778   0.904  10.495   8.366 -0.3975  0.2688  0.3824
  658MOL0     C86779   0.923  10.426   8.245  0.5310 -0.0468 -0.5689
  658MOL0     C86780   1.046  10.403   8.191 -0.3663  0.1399  0.1737
  658MOL0     C86781   1.160  10.451   8.258 -0.4569 -0.1181  0.7960
  658MOL0     O86782   1.287  10.440   8.214 -0.1577 -0.4675 -0.2529
  658MOL0     C86783   1.301  10.408   8.078 -0.1382 -0.3699 -0.2034
  658MOL0     C86784   1.445  10.415   8.034  0.1224  0.2425  0.3444
  658MOL0     C86785   1.544  10.306   8.100  0.2526  0.0154 -0.8772
  658MOL0     C86786   1.683  10.351   8.085 -0.0865 -0.9533  0.3299
  658MOL0     C86787   1.783  10.265   8.142 -0.5904  0.3975  0.6032
  658MOL0     C86788   1.863  10.194   8.188  0.2574 -0.0220 -0.2418
  658MOL0     C86789   1.141  10.528   8.378 -0.3610  0.7612 -0.9280
  658MOL0     C86790   1.018  10.555   8.431  0.1031  0.0684 -0.5420
  658MOL0     H86791   0.572  10.243   8.365  1.7491  0.8557  1.4041
  658MOL0     H86792   0.327  10.187   8.381  2.1497 -1.3537  4.1586
  658MOL0     H86793   0.090  10.216   8.469 -0.1047  1.2158  1.3178
  658MOL0     H86794   0.126  10.188   8.295  1.2872  0.4785  0.3680
  658MOL0     H86795  -0.072  10.282   8.226 -0.0470 -0.2413  0.4416
  658MOL0     H86796  -0.122  10.347   8.382  2.3165  1.6091 -1.5070
  658MOL0     H86797  -0.260  10.167   8.336 -1.3986  0.0049  4.0409
  658MOL0     H86798  -0.158  10.122   8.468 -1.6768 -3.3040 -0.2531
  658MOL0     H86799  -0.101  10.022   8.184 -3.3542 -1.8790 -0.7174
  658MOL0     H86800   0.009   9.999   8.305  0.1846  1.0522  0.7731
  658MOL0     H86801  -0.180   9.870   8.439  0.8362 -1.6109 -0.0518
  658MOL0     H86802  -0.108   9.790   8.300 -0.4567 -1.2823  2.4701
  658MOL0     H86803  -0.291   9.887   8.156 -2.0704  2.3668 -0.0524
  658MOL0     H86804  -0.376   9.931   8.298  0.0612  0.9401 -1.3382
  658MOL0     H86805  -0.280   9.643   8.251  3.1462  1.4670  3.7724
  658MOL0     H86806  -0.383   9.686   8.384 -0.8011 -2.0088 -0.4475
  658MOL0     H86807  -0.479   9.724   8.098 -0.1669  0.4484  0.7550
  658MOL0     H86808  -0.574   9.726   8.251 -1.5660 -0.4916 -1.3028
  658MOL0     H86809  -0.609   9.499   8.384 -1.4441  2.5083 -1.2161
  658MOL0     H86810  -0.661   9.231   8.388 -0.7340 -0.9730 -0.2531
  658MOL0     H86811  -0.614   9.125   8.247 -1.0674 -0.8608 -1.5643
  658MOL0     H86812  -0.802   9.186   8.127 -3.3528  1.1067 -1.2005
  658MOL0     H86813  -0.848   9.315   8.231  0.0807  0.5892 -4.7814
  658MOL0     H86814  -0.852   9.006   8.308  0.0553 -1.1151 -0.7806
  658MOL0     H86815  -0.920   9.132   8.407 -0.3919 -3.5824  0.3512
  658MOL0     H86816  -1.080   9.182   8.226  1.2224  0.7964  2.4790
  658MOL0     H86817  -1.087   9.017   8.277  0.0742  1.1076  1.1159
  658MOL0     H86818  -0.941   9.000   7.852  0.0606  5.1868 -2.2193
  658MOL0     H86819  -1.104   8.991   7.657 -0.1785  2.1191 -0.2277
  658MOL0     H86820  -1.730   8.986   7.750 -0.0490 -0.0094  0.0844
  658MOL0     H86821  -1.910   8.980   7.600 -0.9882  1.2885 -0.1203
  658MOL0     H86822  -2.076   9.170   7.398 -1.5577 -1.0015 -1.7407
  658MOL0     H86823  -2.051   9.004   7.458  0.2012 -0.9776 -0.4631
  658MOL0     H86824  -2.101   8.940   7.215 -2.4082 -0.0716 -0.8856
  658MOL0     H86825  -2.112   9.106   7.170 -0.4318 -1.3487 -0.2998
  658MOL0     H86826  -2.301   9.126   7.360  1.5291  1.7916 -1.9841
  658MOL0     H86827  -2.278   8.951   7.366  2.2699 -0.4510 -0.2614
  658MOL0     H86828  -2.359   9.097   7.101 -3.4033 -0.4827  0.5284
  658MOL0     H86829  -2.358   8.922   7.125 -0.4707 -1.5023  2.5155
  658MOL0     H86830  -2.534   9.097   7.285  0.3933 -1.2748  1.1594
  658MOL0     H86831  -2.527   8.931   7.295 -4.8513 -0.7957 -0.9330
  658MOL0     H86832  -2.568   8.882   7.070 -2.2021 -0.9731  0.5273
  658MOL0     H86833  -2.583   9.043   7.014  1.7804 -2.1583 -0.8606
  658MOL0     H86834  -2.760   8.863   7.180 -0.5979  1.3026 -0.1140
  658MOL0     H86835  -2.772   9.034   7.220 -0.9807  0.6004  0.6013
  658MOL0     H86836  -2.842   9.090   6.995  1.6035  1.0048  1.7530
  658MOL0     H86837  -2.951   8.979   7.066 -2.3466 -1.2637 -4.4619
  658MOL0     H86838  -1.658   9.143   7.283  0.1030 -0.0830  0.4883
  658MOL0     H86839  -1.476   9.169   7.459 -0.5114  0.2218 -0.5618
  658MOL0     H86840  -1.425   9.080   7.931 -0.8302 -0.1071 -3.0744
  658MOL0     H86841  -1.268   9.105   8.114  0.2170 -0.5492  0.4533
  658MOL0     H86842   0.244  10.612   8.365  0.5016  0.5334  1.0602
  658MOL0     H86843   0.483  10.653   8.354  1.3043 -0.2692  1.7400
  658MOL0     H86844   0.840  10.396   8.182 -0.3320 -0.7133  0.8412
  658MOL0     H86845   1.056  10.349   8.097  0.7322  0.2121  0.2397
  658MOL0     H86846   1.236  10.474   8.019 -0.5359 -0.2199  0.3970
  658MOL0     H86847   1.259  10.307   8.067 -0.0065 -0.4199 -0.2606
  658MOL0     H86848   1.438  10.403   7.926 -1.1813  2.1835  0.1710
  658MOL0     H86849   1.469  10.520   8.052 -0.6469  0.0172  3.2204
  658MOL0     H86850   1.534  10.211   8.047  0.5864 -0.5205  0.0068
  658MOL0     H86851   1.507  10.297   8.203  1.3326 -1.5866 -0.5943
  658MOL0     H86852   1.705  10.356   7.978  1.7708 -0.4537  0.7142
  658MOL0     H86853   1.700  10.449   8.130 -2.8361 -1.0340  1.7464
  658MOL0     H86854   1.941  10.130   8.225  1.6130  1.9618  0.4951
  658MOL0     H86855   1.219  10.569   8.441 -0.4012 -0.9310  0.2899
  658MOL0     H86856   1.010  10.602   8.528 -0.9758  2.7575 -1.8276
  659MOL0     O86857   4.034  10.534   5.322 -0.2547  0.1403  0.6052
  659MOL0     C86858   4.086  10.641   5.348  1.1269  0.5635 -0.6933
  659MOL0     O86859   4.039  10.768   5.299 -0.2558 -0.4042  0.0342
  659MOL0     C86860   3.938  10.766   5.210  0.3537 -0.5573 -0.2728
  659MOL0     C86861   3.823  10.699   5.225  0.3209  0.1779  1.0236
  659MOL0     C86862   3.717  10.713   5.127 -0.1162 -0.4855  0.2010
  659MOL0     C86863   3.728  10.790   5.017  0.0224  0.3168  1.1260
  659MOL0     O86864   3.626  10.812   4.926 -0.2969 -0.4114  0.0663
  659MOL0     C86865   3.504  10.748   4.949 -0.1755 -0.2440  0.8070
  659MOL0     C86866   3.409  10.779   4.836 -0.1135  0.1792  0.4139
  659MOL0     C86867   3.269  10.761   4.906  0.9306  0.4740  0.7423
  659MOL0     C86868   3.166  10.785   4.793 -0.7265  0.2321  0.4610
  659MOL0     C86869   3.025  10.771   4.845 -1.3677 -0.9034  0.2849
  659MOL0     C86870   2.929  10.744   4.734  0.7819 -0.0789 -0.9375
  659MOL0     C86871   2.791  10.780   4.793  0.6957  0.0853 -0.5195
  659MOL0     C86872   2.684  10.748   4.694  0.5001 -0.7842  0.2848
  659MOL0     N86873   2.663  10.601   4.686  0.3893 -0.2720 -0.5814
  659MOL0     C86874   2.709  10.519   4.590  0.2484  0.5062  0.5982
  659MOL0     C86875   2.691  10.394   4.636  0.9424 -0.1574 -0.5325
  659MOL0     C86876   2.735  10.267   4.580 -0.4465 -0.0370  0.2262
  659MOL0     C86877   2.679  10.243   4.441  0.4114 -0.1956  0.5971
  659MOL0     C86878   2.686  10.097   4.395 -0.1981  0.5590 -0.6250
  659MOL0     C86879   2.819  10.080   4.325 -1.0822 -0.7041  0.0847
  659MOL0     O86880   2.838  10.172   4.210  0.0786  0.0952  0.1763
  659MOL0     C86881   2.959  10.149   4.148  0.5441 -0.4048 -0.1325
  659MOL0     C86882   2.973  10.214   4.021 -0.5564 -0.1254 -0.9290
  659MOL0     C86883   3.081  10.201   3.944 -0.2657  0.2708 -0.2727
  659MOL0     C86884   3.193  10.129   3.989 -0.4219  0.0678 -0.4892
  659MOL0     C86885   3.324  10.113   3.908  0.2483 -0.0873  0.4300
  659MOL0     O86886   3.332  10.173   3.786 -0.4005  0.1902  0.7921
  659MOL0     C86887   3.455  10.166   3.720  0.3562 -0.0713  0.2045
  659MOL0     C86888   3.491  10.055   3.651  0.4863  0.3135  0.3219
  659MOL0     C86889   3.615  10.048   3.584  0.1481  0.7132  0.4079
  659MOL0     C86890   3.705  10.158   3.594  0.2254 -0.7511  0.1993
  659MOL0     O86891   3.827  10.167   3.532 -0.4274  0.0544  0.3883
  659MOL0     C86892   3.884  10.053   3.461 -0.2117  0.7996 -0.2085
  659MOL0     C86893   4.029  10.076   3.433  0.2481  0.4134  0.3157
  659MOL0     C86894   4.084   9.970   3.327  0.1553  0.0345  0.2906
  659MOL0     C86895   4.237   9.967   3.327 -0.5011  1.0328 -0.1721
  659MOL0     C86896   4.293   9.850   3.251 -0.2073  0.1783  0.0313
  659MOL0     C86897   4.238   9.820   3.116 -0.0610 -0.2016 -0.0243
  659MOL0     C86898   4.333   9.716   3.036  0.5673 -0.1984  0.3193
  659MOL0     C86899   4.291   9.571   3.068 -0.3457 -0.2354 -0.3621
  659MOL0    Cl86900   4.382   9.510   3.213 -0.1198 -0.0705  0.1309
  659MOL0     C86901   3.664  10.269   3.666  1.2527  0.7155  0.3612
  659MOL0     C86902   3.540  10.274   3.722  0.3329  0.0321  0.4277
  659MOL0     O86903   3.417  10.042   3.958 -0.4797 -0.2488  0.3521
  659MOL0     C86904   3.181  10.067   4.119  0.2017  0.6730  0.2815
  659MOL0     C86905   3.067  10.077   4.192 -0.6479  0.9582 -0.1290
  659MOL0     N86906   2.626  10.401   4.758  0.3661 -0.4785 -0.2414
  659MOL0     N86907   2.612  10.525   4.787 -0.0479 -0.2115 -0.3778
  659MOL0     C86908   3.848  10.855   4.999  0.5943 -0.7077  0.3538
  659MOL0     C86909   3.945  10.849   5.106  0.9054 -0.1442  0.7069
  659MOL0     C86910   4.199  10.640   5.442 -0.1667 -0.2985 -0.1150
  659MOL0     C86911   4.267  10.757   5.463 -0.6455 -0.2271 -0.4043
  659MOL0     C86912   4.372  10.765   5.554  0.8008 -0.4982 -0.6996
  659MOL0     C86913   4.411  10.660   5.625 -0.6555  0.7999  0.2254
  659MOL0     O86914   4.513  10.645   5.715  0.1312 -0.1885  0.1244
  659MOL0     C86915   4.626  10.726   5.698 -0.0718 -0.4561  0.2048
  659MOL0     C86916   4.746  10.685   5.780  0.2582  0.3752 -0.3914
  659MOL0     C86917   4.881  10.759   5.737  0.2018 -0.5350 -0.1975
  659MOL0     C86918   5.005  10.711   5.794 -0.2992 -0.3327 -0.0811
  659MOL0     C86919   5.019  10.568   5.758  0.2552  0.5399 -0.3320
  659MOL0     C86920   5.009  10.451   5.729  0.0955  0.0609  1.2348
  659MOL0     C86921   4.339  10.535   5.604 -0.2870  0.2738  0.0875
  659MOL0     C86922   4.234  10.530   5.510 -0.0593  0.0442  0.3688
  659MOL0     H86923   3.814  10.640   5.315 -0.7585 -4.2553 -1.6695
  659MOL0     H86924   3.623  10.668   5.155 -1.6960  1.9436 -0.9326
  659MOL0     H86925   3.469  10.783   5.046  2.4766  1.1311  1.3564
  659MOL0     H86926   3.524  10.641   4.960  1.9846  0.1194  0.8876
  659MOL0     H86927   3.422  10.719   4.745  3.2198  0.1037  0.7814
  659MOL0     H86928   3.420  10.885   4.814  2.5732  0.0010  0.4523
  659MOL0     H86929   3.260  10.837   4.983 -3.7365  0.5106  0.4270
  659MOL0     H86930   3.262  10.659   4.946 -1.3290  0.3910  0.2690
  659MOL0     H86931   3.172  10.888   4.756 -2.0159  1.0211  2.2763
  659MOL0     H86932   3.172  10.712   4.712 -0.2813  0.6670  0.0958
  659MOL0     H86933   2.993  10.857   4.905 -0.9190 -0.5059 -0.0366
  659MOL0     H86934   3.026  10.684   4.911  0.1663 -0.2931  1.1231
  659MOL0     H86935   2.925  10.636   4.714 -2.5367 -0.2385 -0.0324
  659MOL0     H86936   2.959  10.798   4.644  2.1313  0.4842 -0.1832
  659MOL0     H86937   2.765  10.721   4.882 -0.3008 -1.0278 -1.5142
  659MOL0     H86938   2.784  10.887   4.811 -0.3161 -0.2024  0.9083
  659MOL0     H86939   2.704  10.806   4.604 -2.8581  1.0391  0.5766
  659MOL0     H86940   2.596  10.802   4.728  1.5190  2.6932 -2.0193
  659MOL0     H86941   2.752  10.550   4.496  0.5980 -1.5549  0.0299
  659MOL0     H86942   2.724  10.180   4.646 -2.3285 -2.2752 -2.7821
  659MOL0     H86943   2.842  10.286   4.567  0.0372 -3.3098 -1.6949
  659MOL0     H86944   2.723  10.309   4.367  0.1497 -0.6751  0.0060
  659MOL0     H86945   2.574  10.272   4.443  0.6779  1.1184 -1.7924
  659MOL0     H86946   2.664  10.024   4.473  0.7958 -1.0022 -1.7494
  659MOL0     H86947   2.606  10.079   4.321 -3.9505  0.6324  3.0374
  659MOL0     H86948   2.829   9.974   4.300  0.1853 -0.5709 -0.0303
  659MOL0     H86949   2.893  10.110   4.400  0.0822 -1.5878 -0.6766
  659MOL0     H86950   2.891  10.279   3.991 -1.1912 -1.2208 -1.6204
  659MOL0     H86951   3.083  10.256   3.850 -1.4126 -0.9439 -1.0388
  659MOL0     H86952   3.413   9.981   3.641  1.4026 -0.7333  0.7663
  659MOL0     H86953   3.644   9.955   3.536 -1.1632  0.5516 -0.1344
  659MOL0     H86954   3.827  10.022   3.373 -0.2016 -1.2573  0.4406
  659MOL0     H86955   3.874   9.959   3.517  0.0085  1.2365  0.5716
  659MOL0     H86956   4.090  10.067   3.524 -0.7554 -1.5759  0.8466
  659MOL0     H86957   4.052  10.167   3.377  1.1733  0.0775  0.1260
  659MOL0     H86958   4.052   9.996   3.226  0.9242 -1.8134 -0.4738
  659MOL0     H86959   4.048   9.867   3.336  1.2883 -0.3517  0.6659
  659MOL0     H86960   4.279  10.056   3.279 -0.4472  1.2798  0.3189
  659MOL0     H86961   4.276   9.973   3.429 -1.8223  2.2830  0.2954
  659MOL0     H86962   4.285   9.764   3.319 -0.9966 -0.0025 -0.2787
  659MOL0     H86963   4.399   9.875   3.242 -0.5834  1.8182 -0.1533
  659MOL0     H86964   4.220   9.910   3.058  3.0491  0.0993 -0.6834
  659MOL0     H86965   4.142   9.770   3.133  0.3068 -0.9885 -0.2287
  659MOL0     H86966   4.300   9.722   2.932 -0.1628 -1.8406  0.4285
  659MOL0     H86967   4.441   9.733   3.043  0.6339 -0.5360  0.1035
  659MOL0     H86968   4.305   9.495   2.991  2.0792  2.0233 -2.3508
  659MOL0     H86969   4.185   9.569   3.094 -1.0066 -1.3511 -2.8676
  659MOL0     H86970   3.730  10.355   3.670  1.3627  0.6183  0.6362
  659MOL0     H86971   3.507  10.362   3.776 -3.6581 -0.2708 -1.1310
  659MOL0     H86972   3.268  10.018   4.160  1.9440  3.1368 -0.2235
  659MOL0     H86973   3.071  10.015   4.280  1.9600  0.2124 -0.7063
  659MOL0     H86974   3.870  10.908   4.907  3.1477 -1.9149  0.1776
  659MOL0     H86975   4.023  10.924   5.095 -0.8994  1.7469  0.3127
  659MOL0     H86976   4.237  10.849   5.414 -5.5668 -2.0651 -1.4295
  659MOL0     H86977   4.421  10.856   5.586  0.2739 -0.2955 -0.4684
  659MOL0     H86978   4.602  10.828   5.730  1.9498  0.1244 -0.0300
  659MOL0     H86979   4.650  10.737   5.592 -3.0833 -0.3371 -0.5579
  659MOL0     H86980   4.713  10.717   5.879 -2.9813  1.7755 -1.8022
  659MOL0     H86981   4.756  10.577   5.767 -2.1328 -0.1560  1.5793
  659MOL0     H86982   4.876  10.866   5.760  0.6126 -0.6103  0.2686
  659MOL0     H86983   4.893  10.759   5.628 -0.2291 -1.8538 -0.2581
  659MOL0     H86984   5.097  10.744   5.745 -0.8957  1.0468 -0.3199
  659MOL0     H86985   5.001  10.732   5.901 -2.5738  2.6503 -0.6324
  659MOL0     H86986   4.979  10.351   5.706 -1.7309  0.4976  1.5558
  659MOL0     H86987   4.376  10.446   5.653  2.2883  0.8237 -0.7254
  659MOL0     H86988   4.188  10.435   5.485  1.3503 -0.0966 -1.9865
  660MOL0     O86989   9.863   5.095   4.356 -0.5437 -0.2491  0.2689
  660MOL0     C86990   9.791   5.144   4.269 -1.2621  0.3422  0.1522
  660MOL0     O86991   9.683   5.228   4.288  0.1335  0.1419 -0.6497
  660MOL0     C86992   9.635   5.248   4.409  0.5193  0.1523  0.0615
  660MOL0     C86993   9.598   5.146   4.500 -0.4442 -0.3547  0.1849
  660MOL0     C86994   9.530   5.179   4.615 -0.8147  0.9311 -1.3072
  660MOL0     C86995   9.502   5.320   4.641  0.2110  0.1692  0.0139
  660MOL0     O86996   9.433   5.349   4.757  0.4027  0.4995  0.1840
  660MOL0     C86997   9.437   5.485   4.804  0.5764 -0.5375  0.3254
  660MOL0     C86998   9.372   5.503   4.950 -0.5689 -0.2701 -0.6743
  660MOL0     C86999   9.227   5.459   4.960 -0.1485  0.6962 -0.1442
  660MOL0     C87000   9.157   5.528   5.079  0.1494 -0.4151  0.4135
  660MOL0     C87001   9.008   5.513   5.092  0.4480 -0.1859  0.1385
  660MOL0     C87002   8.959   5.603   5.216  0.4782 -0.1109  0.4725
  660MOL0     C87003   8.809   5.583   5.212  0.3439 -0.3143 -1.0020
  660MOL0     C87004   8.735   5.679   5.309  0.1926  0.1968 -0.6990
  660MOL0     N87005   8.594   5.636   5.333 -0.7087 -0.4459 -0.4888
  660MOL0     C87006   8.479   5.668   5.266  0.5114  0.7131  0.7836
  660MOL0     C87007   8.383   5.589   5.330 -0.9891  0.1382 -1.0598
  660MOL0     C87008   8.245   5.546   5.295 -0.3314  0.0891 -0.1213
  660MOL0     C87009   8.150   5.625   5.387  0.1588 -0.4542  0.2107
  660MOL0     C87010   8.007   5.583   5.376 -0.1079 -0.1049 -0.0836
  660MOL0     C87011   7.916   5.666   5.471 -0.2085 -0.5575  0.3977
  660MOL0     O87012   7.791   5.685   5.407  0.4529 -0.6846 -0.4402
  660MOL0     C87013   7.681   5.740   5.474 -0.4997 -0.8401 -0.3310
  660MOL0     C87014   7.585   5.813   5.397  0.1655 -0.2324 -0.7458
  660MOL0     C87015   7.474   5.868   5.460 -0.2844 -0.6282  0.6554
  660MOL0     C87016   7.444   5.840   5.598  0.1608  0.1141  0.1628
  660MOL0     C87017   7.319   5.878   5.659 -0.4525  0.0238  1.0611
  660MOL0     O87018   7.313   5.846   5.789 -0.7349  0.0613 -0.1204
  660MOL0     C87019   7.203   5.853   5.863 -0.1918 -0.5185 -0.1454
  660MOL0     C87020   7.226   5.865   5.999  0.6860  0.5187 -0.5012
  660MOL0     C87021   7.115   5.863   6.090 -0.2415 -0.2381  0.2173
  660MOL0     C87022   6.983   5.858   6.051 -0.5581  0.7658 -0.1544
  660MOL0     O87023   6.892   5.858   6.150 -0.3477  0.7259 -0.0069
  660MOL0     C87024   6.762   5.805   6.122 -0.5403 -0.6520 -0.1211
  660MOL0     C87025   6.679   5.930   6.085  0.0526  0.1832 -0.5879
  660MOL0     C87026   6.642   6.016   6.202  0.0338 -0.6823 -0.1111
  660MOL0     C87027   6.546   6.133   6.166 -0.4963  0.1554 -0.3930
  660MOL0     C87028   6.494   6.185   6.290 -0.2597  0.3720 -0.2882
  660MOL0     C87029   6.364   6.117   6.336  0.4266 -0.4255  0.3449
  660MOL0     C87030   6.328   6.168   6.485  0.2285  0.0522  0.9762
  660MOL0     C87031   6.202   6.086   6.522 -0.0994  0.0752 -0.3406
  660MOL0    Cl87032   6.179   6.091   6.698  0.3946  0.5688 -0.1246
  660MOL0     C87033   6.961   5.844   5.918 -0.1573  0.4126  0.7534
  660MOL0     C87034   7.066   5.843   5.822 -0.4109 -0.3117  0.1898
  660MOL0     O87035   7.236   5.919   5.586  0.6557 -0.0402 -0.4624
  660MOL0     C87036   7.544   5.779   5.671  0.0886 -0.1261 -0.7050
  660MOL0     C87037   7.660   5.732   5.612 -0.5593  0.1893  0.0294
  660MOL0     N87038   8.448   5.521   5.427  0.4060  0.6975 -0.1552
  660MOL0     N87039   8.571   5.545   5.431  0.2188  0.2911  0.3575
  660MOL0     C87040   9.535   5.421   4.544  0.4680  0.4477  0.7946
  660MOL0     C87041   9.601   5.379   4.430 -0.5704  0.2870 -0.1211
  660MOL0     C87042   9.828   5.125   4.121 -0.3561  0.3612  0.5545
  660MOL0     C87043   9.948   5.067   4.085 -1.0093 -0.2989  0.0869
  660MOL0     C87044   9.972   5.040   3.950 -0.4085 -0.3574 -0.0575
  660MOL0     C87045   9.884   5.089   3.848  0.5689 -0.6368  0.0650
  660MOL0     O87046   9.908   5.058   3.713  0.2241 -0.6833  1.0159
  660MOL0     C87047   9.836   5.140   3.613 -0.0405  0.2675 -0.4864
  660MOL0     C87048   9.850   5.094   3.473 -1.4522  0.2908  0.5466
  660MOL0     C87049   9.836   5.221   3.384  0.4904 -0.6718 -0.7288
  660MOL0     C87050   9.811   5.191   3.237  0.0533  0.4276 -0.6531
  660MOL0     C87051   9.922   5.180   3.145 -0.0350  0.3929  0.4392
  660MOL0     C87052  10.025   5.159   3.082  0.3174  0.0206  0.3942
  660MOL0     C87053   9.772   5.153   3.891 -0.8755 -0.7064  1.2455
  660MOL0     C87054   9.745   5.178   4.022  0.0130  0.2428 -0.3918
  660MOL0     H87055   9.623   5.046   4.467  1.6544  0.8545 -2.2042
  660MOL0     H87056   9.497   5.106   4.689 -0.7183  0.4119 -1.7765
  660MOL0     H87057   9.393   5.548   4.727 -0.6989 -3.3231 -1.3925
  660MOL0     H87058   9.544   5.507   4.810  0.7213 -0.7868 -1.0961
  660MOL0     H87059   9.387   5.608   4.975  2.2987 -0.5111 -1.0052
  660MOL0     H87060   9.430   5.445   5.022 -2.6172  1.9810  3.0692
  660MOL0     H87061   9.233   5.349   4.963  1.7584  0.7253 -1.0325
  660MOL0     H87062   9.173   5.483   4.869  0.5024  0.7959 -0.5118
  660MOL0     H87063   9.204   5.489   5.170  0.3632 -0.9057  0.0969
  660MOL0     H87064   9.184   5.633   5.064  1.2937 -0.2713  3.0196
  660MOL0     H87065   8.982   5.408   5.110 -2.4465 -0.1267 -2.7784
  660MOL0     H87066   8.951   5.546   5.005 -1.0721 -0.3591  1.0412
  660MOL0     H87067   8.982   5.710   5.206  0.1434 -0.0995 -0.2409
  660MOL0     H87068   9.001   5.582   5.314  1.3237  1.7750  0.5667
  660MOL0     H87069   8.768   5.598   5.112 -3.2026  0.0640  0.3807
  660MOL0     H87070   8.791   5.476   5.228  1.1153 -0.4325 -0.8855
  660MOL0     H87071   8.753   5.778   5.267  2.3097 -1.1731 -3.3055
  660MOL0     H87072   8.792   5.669   5.402  1.3060  1.4305 -1.2107
  660MOL0     H87073   8.471   5.717   5.169 -1.0495 -1.0802 -0.0674
  660MOL0     H87074   8.220   5.441   5.312 -2.2520  0.7489  1.5479
  660MOL0     H87075   8.234   5.564   5.188 -0.6169  0.1790 -0.0792
  660MOL0     H87076   8.154   5.732   5.366  0.6528  0.1157  2.8483
  660MOL0     H87077   8.192   5.631   5.488  2.3050 -0.6961 -0.6030
  660MOL0     H87078   7.967   5.592   5.275 -0.2016 -2.4322 -0.3231
  660MOL0     H87079   8.005   5.477   5.404  2.5642  0.2436  1.8394
  660MOL0     H87080   7.959   5.764   5.494 -2.0574 -0.1333  2.4167
  660MOL0     H87081   7.914   5.623   5.572  1.2034  0.2940  0.8137
  660MOL0     H87082   7.604   5.819   5.291  1.2673  0.5519 -0.5210
  660MOL0     H87083   7.395   5.902   5.394 -1.1012 -1.3104  1.2678
  660MOL0     H87084   7.322   5.892   6.042  0.3473  1.4120 -0.2860
  660MOL0     H87085   7.123   5.876   6.198 -4.2607 -0.1048  0.6604
  660MOL0     H87086   6.736   5.761   6.219  4.0492 -0.9427  1.2446
  660MOL0     H87087   6.752   5.729   6.044 -0.8035 -1.4821  0.7031
  660MOL0     H87088   6.588   5.904   6.031 -1.2281  1.8990  0.6298
  660MOL0     H87089   6.724   5.993   6.007 -0.7933  2.0718  0.3835
  660MOL0     H87090   6.722   6.075   6.247 -0.8655  2.0944 -1.8783
  660MOL0     H87091   6.595   5.948   6.273 -1.8415  1.6778  1.0635
  660MOL0     H87092   6.604   6.212   6.117  0.6760  0.0582  0.7640
  660MOL0     H87093   6.476   6.095   6.092  3.3898 -2.5215 -3.0580
  660MOL0     H87094   6.457   6.287   6.274 -3.8904 -0.6775  0.3676
  660MOL0     H87095   6.577   6.181   6.361  0.7855 -2.3847 -1.5350
  660MOL0     H87096   6.364   6.008   6.337  1.1675 -0.4300  0.3669
  660MOL0     H87097   6.287   6.119   6.259  1.5668 -0.8857 -0.8326
  660MOL0     H87098   6.411   6.135   6.549  2.3182  0.6099 -1.2736
  660MOL0     H87099   6.317   6.277   6.489  2.0680  0.2757  4.9927
  660MOL0     H87100   6.208   5.982   6.488  1.7930  0.4776 -1.3824
  660MOL0     H87101   6.118   6.132   6.469  1.2148  3.1022 -0.0108
  660MOL0     H87102   6.862   5.825   5.877 -0.6150  0.2159  1.9111
  660MOL0     H87103   7.048   5.825   5.717 -1.1275  0.6750  0.1373
  660MOL0     H87104   7.537   5.765   5.779 -1.0732  0.1663 -0.7291
  660MOL0     H87105   7.736   5.687   5.676 -1.5231  2.4570  3.0433
  660MOL0     H87106   9.500   5.524   4.548  0.7506  0.5134  2.0727
  660MOL0     H87107   9.628   5.445   4.349 -0.8833 -0.6508 -1.0082
  660MOL0     H87108  10.029   5.037   4.151  1.9463  2.4751 -1.9096
  660MOL0     H87109  10.070   5.004   3.919  0.1049 -0.6926  1.8448
  660MOL0     H87110   9.873   5.243   3.619 -0.3170  0.3684 -0.4504
  660MOL0     H87111   9.727   5.146   3.623  0.0587  2.0836 -0.1081
  660MOL0     H87112   9.954   5.064   3.457 -1.3287  0.1041  1.6326
  660MOL0     H87113   9.788   5.007   3.450  1.0057 -2.3938  3.2250
  660MOL0     H87114   9.919   5.291   3.392 -0.3298  0.3104 -0.7000
  660MOL0     H87115   9.752   5.278   3.425  2.2001  1.8056 -0.4897
  660MOL0     H87116   9.739   5.109   3.233  0.0219  0.1934  2.4061
  660MOL0     H87117   9.754   5.278   3.200  1.3014  2.0517  1.0724
  660MOL0     H87118  10.121   5.138   3.039  0.5914 -0.1349  1.0694
  660MOL0     H87119   9.701   5.192   3.819 -1.3330  1.6048  2.8532
  660MOL0     H87120   9.653   5.229   4.050 -0.8000 -1.2196 -0.2959
  661MOL0     O87121   9.876   7.104   4.103 -0.5811 -0.0083  0.5341
  661MOL0     C87122   9.963   7.018   4.084 -0.3139  0.5109  0.3682
  661MOL0     O87123   9.963   6.921   3.989 -1.0769 -0.7777 -0.1249
  661MOL0     C87124   9.857   6.895   3.908  0.5055  0.2410 -0.0705
  661MOL0     C87125   9.872   6.815   3.792  0.5338  0.1338  0.4809
  661MOL0     C87126   9.762   6.764   3.717  0.4610  0.9848 -0.3264
  661MOL0     C87127   9.631   6.804   3.739  0.1211  0.2838  0.3329
  661MOL0     O87128   9.541   6.759   3.645  0.2199 -0.3941  0.5835
  661MOL0     C87129   9.411   6.803   3.646  0.0684  0.4892  0.1536
  661MOL0     C87130   9.333   6.697   3.561 -0.5102 -0.3471  0.1322
  661MOL0     C87131   9.175   6.722   3.568 -0.5300 -0.1372  0.2238
  661MOL0     C87132   9.102   6.643   3.464  0.3059 -0.1348 -0.3312
  661MOL0     C87133   8.955   6.685   3.473  0.5415 -0.0331 -0.3243
  661MOL0     C87134   8.873   6.633   3.358 -0.6451  0.1073  0.3519
  661MOL0     C87135   8.731   6.697   3.365  0.4737  0.0912  0.2482
  661MOL0     C87136   8.642   6.654   3.247 -0.0803 -0.0122  0.6962
  661MOL0     N87137   8.502   6.683   3.267  0.0107 -0.6865  0.9917
  661MOL0     C87138   8.433   6.797   3.231  0.4666  0.2842  0.2308
  661MOL0     C87139   8.305   6.771   3.266 -0.5343  0.2880  0.4685
  661MOL0     C87140   8.183   6.854   3.260 -1.6660 -0.8407  0.4890
  661MOL0     C87141   8.223   6.996   3.215  0.4598  0.2885 -0.0984
  661MOL0     C87142   8.107   7.083   3.181  0.3775 -0.6814 -0.3076
  661MOL0     C87143   8.040   7.024   3.059  0.2772 -0.0376  0.3718
  661MOL0     O87144   7.954   7.131   3.003 -0.3234  0.6309 -0.6113
  661MOL0     C87145   7.828   7.085   2.986  0.1890  1.1418  0.3853
  661MOL0     C87146   7.732   7.179   2.985  0.1782  0.0675 -0.0292
  661MOL0     C87147   7.593   7.135   2.976 -0.4483 -0.9578 -0.7211
  661MOL0     C87148   7.560   6.997   2.949  0.0861 -0.2523  0.7876
  661MOL0     C87149   7.419   6.957   2.943  0.3840 -1.0949 -0.3950
  661MOL0     O87150   7.392   6.825   2.925 -0.0544 -0.1855 -0.0187
  661MOL0     C87151   7.268   6.775   2.954 -0.4128 -0.1323  0.4671
  661MOL0     C87152   7.229   6.736   3.082  0.2874 -0.2281  0.0777
  661MOL0     C87153   7.108   6.665   3.092 -0.1317  0.8103  0.7245
  661MOL0     C87154   7.029   6.644   2.979  0.3020 -0.0479  0.5375
  661MOL0     O87155   6.915   6.567   2.989  0.0029 -0.2174  0.2742
  661MOL0     C87156   6.869   6.503   2.867  0.1359  0.2757 -0.3267
  661MOL0     C87157   6.791   6.370   2.890 -0.8293  0.6149 -1.1202
  661MOL0     C87158   6.878   6.245   2.934 -0.2815  0.7976  0.2971
  661MOL0     C87159   6.959   6.179   2.825  0.2677  0.0859 -0.1034
  661MOL0     C87160   7.066   6.083   2.881  0.2288 -0.3305  0.7078
  661MOL0     C87161   7.192   6.061   2.792  0.3752 -0.4604 -0.8290
  661MOL0     C87162   7.258   6.197   2.763 -0.3971 -0.1358 -0.5314
  661MOL0     C87163   7.285   6.295   2.879  0.6927 -0.3987 -0.2597
  661MOL0    Cl87164   7.339   6.219   3.028 -0.6606 -0.2427 -0.2517
  661MOL0     C87165   7.071   6.697   2.856 -0.3213 -0.3407 -0.8199
  661MOL0     C87166   7.185   6.760   2.841 -0.6059 -0.1073  0.0956
  661MOL0     O87167   7.332   7.045   2.976  0.2693  0.3971  0.0636
  661MOL0     C87168   7.668   6.910   2.918 -0.4816 -1.1891  0.8276
  661MOL0     C87169   7.801   6.952   2.932  0.0083  0.1200 -0.0282
  661MOL0     N87170   8.297   6.643   3.319 -0.4091  0.6740  0.0843
  661MOL0     N87171   8.414   6.597   3.320  0.4583 -0.6106  0.5451
  661MOL0     C87172   9.606   6.888   3.849 -0.1502 -0.9162  0.2188
  661MOL0     C87173   9.717   6.930   3.926 -0.4240  0.1400  0.1553
  661MOL0     C87174  10.084   7.007   4.173 -0.2878  0.0011  1.4170
  661MOL0     C87175  10.098   7.106   4.272 -0.0417  0.3503  0.3137
  661MOL0     C87176  10.178   7.087   4.386  0.7003 -0.0887 -0.6421
  661MOL0     C87177  10.266   6.980   4.379 -0.0534  0.0148 -0.1033
  661MOL0     O87178  10.351   6.955   4.486 -0.4777 -0.9031  0.2677
  661MOL0     C87179  10.490   7.017   4.466  0.3747  1.2274  0.3905
  661MOL0     C87180  10.592   6.904   4.469  0.2746  0.4453 -0.3027
  661MOL0     C87181  10.737   6.961   4.472  0.5298  0.6084  0.4774
  661MOL0     C87182  10.788   6.983   4.612  0.1418  0.4827 -0.3598
  661MOL0     C87183  10.918   7.055   4.604 -0.7468  0.0339 -0.1226
  661MOL0     C87184  11.017   7.125   4.601  0.7464 -1.5971  0.6610
  661MOL0     C87185  10.257   6.884   4.275 -0.7303  0.4295 -0.2841
  661MOL0     C87186  10.168   6.895   4.171  0.3921 -0.3701 -0.1889
  661MOL0     H87187   9.974   6.794   3.762 -0.1915 -2.0026 -0.6795
  661MOL0     H87188   9.778   6.691   3.638 -2.0870  1.5948 -1.5349
  661MOL0     H87189   9.411   6.908   3.618  1.4900  0.1978 -1.0639
  661MOL0     H87190   9.377   6.790   3.749  0.5806  0.6346  0.3438
  661MOL0     H87191   9.362   6.594   3.587 -1.0068 -0.0136  2.2048
  661MOL0     H87192   9.379   6.719   3.464  1.8894  1.0931  1.5011
  661MOL0     H87193   9.161   6.830   3.562 -1.1207 -0.0435  2.3251
  661MOL0     H87194   9.142   6.692   3.668 -0.6305 -1.9559 -0.3162
  661MOL0     H87195   9.155   6.651   3.369  1.5626  0.6838  0.4081
  661MOL0     H87196   9.106   6.536   3.487 -0.4061 -0.2500 -0.6929
  661MOL0     H87197   8.951   6.794   3.473  3.4742  0.1616 -0.4026
  661MOL0     H87198   8.910   6.644   3.564 -1.2135 -0.0020 -1.1471
  661MOL0     H87199   8.859   6.525   3.366 -2.2430  0.2680  0.1223
  661MOL0     H87200   8.908   6.645   3.255 -0.7702 -2.4493 -0.0441
  661MOL0     H87201   8.690   6.657   3.458 -0.2230 -2.3608 -1.0150
  661MOL0     H87202   8.738   6.806   3.374 -0.7470  0.1584  0.4998
  661MOL0     H87203   8.652   6.549   3.217 -1.4699  0.7124 -2.8066
  661MOL0     H87204   8.675   6.707   3.158  0.5911 -0.4389  0.6805
  661MOL0     H87205   8.476   6.890   3.196  0.0991  0.2556 -0.3112
  661MOL0     H87206   8.129   6.859   3.355 -1.1832  0.0143  0.7241
  661MOL0     H87207   8.118   6.812   3.182  0.9634  0.5194 -2.6427
  661MOL0     H87208   8.293   6.991   3.132 -0.5231 -1.1209 -0.8929
  661MOL0     H87209   8.277   7.044   3.297  0.4366  0.4831 -0.1962
  661MOL0     H87210   8.037   7.090   3.265  0.3592  0.1929 -0.3782
  661MOL0     H87211   8.148   7.182   3.156 -0.7527 -0.7171 -2.6150
  661MOL0     H87212   7.988   6.933   3.090 -1.2567  0.8868  0.6414
  661MOL0     H87213   8.120   6.997   2.991 -1.3536  2.2987 -2.7398
  661MOL0     H87214   7.753   7.279   3.019 -1.2291  0.5308 -0.4672
  661MOL0     H87215   7.518   7.212   2.982 -0.2970 -0.6364 -2.3639
  661MOL0     H87216   7.284   6.753   3.173 -0.2122  0.6034  0.2363
  661MOL0     H87217   7.081   6.611   3.183 -0.7858  0.4000  0.2947
  661MOL0     H87218   6.961   6.475   2.813  0.3288  0.6580 -0.2020
  661MOL0     H87219   6.815   6.572   2.802  0.3804  1.5591  0.7931
  661MOL0     H87220   6.729   6.342   2.805  0.3908 -1.7112 -1.3246
  661MOL0     H87221   6.723   6.399   2.971 -1.0675  2.1493 -1.8290
  661MOL0     H87222   6.817   6.169   2.985  0.9224 -1.0773 -0.9305
  661MOL0     H87223   6.953   6.277   3.007  0.3389 -2.4720  1.2654
  661MOL0     H87224   6.876   6.130   2.772 -0.3090  1.6172 -0.6854
  661MOL0     H87225   7.006   6.261   2.770 -0.0346  0.9375  0.8945
  661MOL0     H87226   7.019   5.984   2.891  0.4796 -0.6809 -1.2079
  661MOL0     H87227   7.090   6.100   2.986  1.1627 -0.3319  0.5040
  661MOL0     H87228   7.166   6.006   2.701 -2.2285  0.9418 -1.0190
  661MOL0     H87229   7.263   6.005   2.855 -2.2044 -2.9773  0.0527
  661MOL0     H87230   7.358   6.175   2.725  0.3945  1.4322  0.5382
  661MOL0     H87231   7.205   6.249   2.684 -2.6272 -2.5892 -0.8019
  661MOL0     H87232   7.195   6.347   2.910  2.6431  2.9780  0.2822
  661MOL0     H87233   7.358   6.366   2.839  1.2664 -0.4192  0.7227
  661MOL0     H87234   7.017   6.692   2.762  2.2659  1.3235 -2.5390
  661MOL0     H87235   7.215   6.804   2.746 -0.4209  1.5287  0.8769
  661MOL0     H87236   7.651   6.805   2.897  0.5359 -1.4821  1.3918
  661MOL0     H87237   7.870   6.878   2.891 -0.0060  0.4221 -0.6077
  661MOL0     H87238   9.505   6.917   3.873  0.4187  0.5288  0.9826
  661MOL0     H87239   9.679   6.996   4.004 -0.8550 -0.5698  0.5560
  661MOL0     H87240  10.029   7.189   4.277  0.1323  0.5058  0.1639
  661MOL0     H87241  10.183   7.166   4.460 -0.0916  1.8060 -2.4976
  661MOL0     H87242  10.510   7.083   4.551  3.9861  1.3665 -0.3961
  661MOL0     H87243  10.484   7.075   4.373 -0.6393 -2.9722 -2.4269
  661MOL0     H87244  10.576   6.848   4.562 -3.9742  0.0877 -1.0734
  661MOL0     H87245  10.587   6.835   4.384  0.1477 -0.4560  0.4182
  661MOL0     H87246  10.728   7.059   4.424 -0.1777  0.7025  0.7865
  661MOL0     H87247  10.808   6.893   4.423  1.5733 -0.4197  3.2603
  661MOL0     H87248  10.722   7.046   4.671 -0.1918 -0.4734  0.3110
  661MOL0     H87249  10.792   6.885   4.660  0.7924 -0.6939 -2.6735
  661MOL0     H87250  11.106   7.184   4.603 -0.0126 -0.4403  2.1138
  661MOL0     H87251  10.334   6.808   4.264 -0.8580  0.3406 -0.5529
  661MOL0     H87252  10.166   6.824   4.089  0.5972 -2.0967  1.2332
  662MOL0     O87253   9.221   5.684   7.684  0.2998  0.4287 -0.2880
  662MOL0     C87254   9.177   5.715   7.575 -0.9126 -0.1014  0.4903
  662MOL0     O87255   9.036   5.724   7.534 -0.0107  0.3260 -0.3351
  662MOL0     C87256   8.945   5.701   7.627 -0.1905  0.2666 -0.8971
  662MOL0     C87257   8.946   5.764   7.755  0.7671  0.3409 -0.6303
  662MOL0     C87258   8.844   5.770   7.849 -0.3279  0.4521 -0.6459
  662MOL0     C87259   8.729   5.695   7.816  0.2322  0.2724 -0.9090
  662MOL0     O87260   8.623   5.706   7.910 -0.7392  0.1605 -0.4448
  662MOL0     C87261   8.613   5.798   8.020 -0.0528 -0.2399  0.8561
  662MOL0     C87262   8.480   5.789   8.091  0.0415 -0.7161  0.6686
  662MOL0     C87263   8.365   5.825   7.994 -0.0878 -0.0087  0.0692
  662MOL0     C87264   8.229   5.809   8.066 -0.2180  0.0519  0.3113
  662MOL0     C87265   8.116   5.864   7.982  0.2410 -0.8928 -0.0703
  662MOL0     C87266   7.978   5.848   8.051  0.4420 -0.6548 -0.0807
  662MOL0     C87267   7.877   5.936   8.001 -0.1208  0.0270 -0.1590
  662MOL0     C87268   7.832   5.900   7.862 -0.5805  0.2819  0.2284
  662MOL0     N87269   7.699   5.960   7.837  0.2749 -0.0972 -0.6636
  662MOL0     C87270   7.650   6.085   7.852  0.2863 -0.1841 -0.5047
  662MOL0     C87271   7.521   6.077   7.825 -0.6955 -0.8256 -0.0516
  662MOL0     C87272   7.421   6.190   7.815 -0.3699  0.5508  0.6907
  662MOL0     C87273   7.295   6.163   7.897 -0.3377 -0.4446 -1.0035
  662MOL0     C87274   7.334   6.171   8.046  0.2205 -0.1128 -0.4838
  662MOL0     C87275   7.213   6.153   8.141  0.7328  0.3164 -0.1020
  662MOL0     O87276   7.125   6.265   8.128 -0.1229 -0.1645  0.5447
  662MOL0     C87277   7.019   6.269   8.215  0.6109 -0.2540 -0.5023
  662MOL0     C87278   6.950   6.392   8.232  0.5097  0.4121  0.4594
  662MOL0     C87279   6.839   6.398   8.316 -0.6567  0.6183  0.4500
  662MOL0     C87280   6.804   6.295   8.393 -0.8509 -0.3803 -1.1057
  662MOL0     C87281   6.697   6.305   8.505 -1.2406 -0.5634  0.1660
  662MOL0     O87282   6.638   6.192   8.543  0.1331 -0.0026  0.0716
  662MOL0     C87283   6.514   6.203   8.605 -0.3936 -0.0884 -0.0882
  662MOL0     C87284   6.499   6.142   8.730  0.4539  0.3433  0.9239
  662MOL0     C87285   6.370   6.151   8.794  0.0307 -0.1325  0.0324
  662MOL0     C87286   6.258   6.214   8.720 -0.5711  0.7119  0.0457
  662MOL0     O87287   6.134   6.212   8.769  0.1637  0.0745 -0.6594
  662MOL0     C87288   6.065   6.334   8.785 -0.4174  0.4034 -0.0499
  662MOL0     C87289   5.936   6.334   8.700  0.2935 -0.2032  1.1334
  662MOL0     C87290   5.872   6.464   8.731  1.0304  0.0361 -0.0072
  662MOL0     C87291   5.747   6.492   8.652  0.0052  0.7803  0.0067
  662MOL0     C87292   5.670   6.611   8.705  0.2618 -0.5853 -1.1373
  662MOL0     C87293   5.536   6.646   8.635 -0.2299 -0.6319 -0.5272
  662MOL0     C87294   5.469   6.771   8.703 -0.5861 -0.3016  0.2783
  662MOL0     C87295   5.331   6.797   8.640  0.8225  0.0472 -0.3208
  662MOL0    Cl87296   5.229   6.667   8.705 -0.2219  0.1643 -0.3779
  662MOL0     C87297   6.283   6.261   8.588  0.6641  0.5330  1.0196
  662MOL0     C87298   6.408   6.259   8.529  0.6768  0.2334 -0.4502
  662MOL0     O87299   6.670   6.415   8.553  0.5535  0.5395  0.3169
  662MOL0     C87300   6.859   6.169   8.369 -0.1488  0.8612 -0.5147
  662MOL0     C87301   6.962   6.153   8.277 -0.7152  0.3495 -0.4710
  662MOL0     N87302   7.484   5.946   7.791  0.0559 -0.0759  0.0953
  662MOL0     N87303   7.594   5.885   7.789  0.8433 -0.7300  0.0943
  662MOL0     C87304   8.715   5.629   7.689  0.5056 -0.1688 -0.4314
  662MOL0     C87305   8.830   5.629   7.604 -0.0311  0.2054 -0.4293
  662MOL0     C87306   9.291   5.761   7.480  0.1292 -0.0296 -0.0463
  662MOL0     C87307   9.424   5.713   7.508 -0.2959 -0.6931 -0.5033
  662MOL0     C87308   9.534   5.755   7.434  0.0339 -0.0201 -0.9686
  662MOL0     C87309   9.513   5.841   7.330  0.1367 -0.7606 -0.5820
  662MOL0     O87310   9.622   5.866   7.249 -0.1861 -0.1622 -0.2501
  662MOL0     C87311   9.698   5.985   7.274  0.8350  0.6847 -0.3384
  662MOL0     C87312   9.796   5.961   7.382 -0.4180 -0.8589  0.2819
  662MOL0     C87313   9.854   6.094   7.424 -0.1864  0.3171 -0.6482
  662MOL0     C87314   9.756   6.195   7.483  0.2415  0.0252  0.6195
  662MOL0     C87315   9.825   6.287   7.579  0.1674 -1.2924  0.0150
  662MOL0     C87316   9.894   6.349   7.660 -0.6964  0.4034 -0.6928
  662MOL0     C87317   9.382   5.877   7.289  0.7224  1.0538  1.1008
  662MOL0     C87318   9.276   5.837   7.368  0.3095  0.4396 -0.0346
  662MOL0     H87319   9.033   5.821   7.789  1.1693  0.6740 -2.1514
  662MOL0     H87320   8.862   5.820   7.944 -1.0928 -0.7718  0.1832
  662MOL0     H87321   8.622   5.901   7.983  0.1882  0.1994  2.0577
  662MOL0     H87322   8.697   5.781   8.088 -0.0864 -1.5844  0.5750
  662MOL0     H87323   8.496   5.857   8.175  2.4209  0.1595 -0.3885
  662MOL0     H87324   8.473   5.689   8.135  2.6283 -0.7445  1.1835
  662MOL0     H87325   8.377   5.770   7.899  0.0325 -0.1236  0.1503
  662MOL0     H87326   8.379   5.930   7.966  0.7842 -0.5269 -1.6149
  662MOL0     H87327   8.205   5.703   8.079  2.9940 -1.2311 -2.5355
  662MOL0     H87328   8.228   5.862   8.161  1.9239  3.0041 -1.1543
  662MOL0     H87329   8.110   5.808   7.888 -4.9537  0.8130 -1.1167
  662MOL0     H87330   8.135   5.967   7.951 -2.6174 -0.7851 -1.8218
  662MOL0     H87331   7.991   5.882   8.154  1.6902  1.5260 -0.8877
  662MOL0     H87332   7.955   5.742   8.059  0.8212 -0.7510 -0.2698
  662MOL0     H87333   7.790   5.920   8.064 -0.3179  1.9657  0.1252
  662MOL0     H87334   7.903   6.042   8.011 -2.0342  0.3350  2.2863
  662MOL0     H87335   7.824   5.794   7.835 -3.0446  0.7665 -1.2298
  662MOL0     H87336   7.903   5.947   7.793 -2.2275  1.7293 -0.5772
  662MOL0     H87337   7.704   6.176   7.879 -2.2784  1.2164  0.2172
  662MOL0     H87338   7.380   6.187   7.714  0.6426 -0.6107  0.2881
  662MOL0     H87339   7.464   6.289   7.833 -0.8784  1.1311 -1.0656
  662MOL0     H87340   7.246   6.069   7.871 -0.1177 -2.1958  3.9309
  662MOL0     H87341   7.228   6.247   7.875 -1.4637 -0.8115  0.8260
  662MOL0     H87342   7.409   6.098   8.078 -1.1137  0.2523  4.3657
  662MOL0     H87343   7.366   6.274   8.062 -0.5722  0.0587  0.0445
  662MOL0     H87344   7.251   6.134   8.242  3.5927 -2.9551 -1.5649
  662MOL0     H87345   7.160   6.067   8.098 -2.5383  1.9598  0.3082
  662MOL0     H87346   6.987   6.459   8.155  0.0383 -1.2854 -1.3289
  662MOL0     H87347   6.791   6.495   8.319 -1.1482  0.3576  1.6245
  662MOL0     H87348   6.580   6.106   8.792  0.4465  0.9385  1.2904
  662MOL0     H87349   6.368   6.106   8.893  1.0199  0.6033  0.3982
  662MOL0     H87350   6.137   6.414   8.762  0.9812 -0.7179  0.2437
  662MOL0     H87351   6.041   6.336   8.891 -1.2227 -0.1291 -0.2151
  662MOL0     H87352   5.871   6.255   8.738 -0.1947 -1.2744 -1.6844
  662MOL0     H87353   5.957   6.316   8.594  2.4096  1.6755  1.1670
  662MOL0     H87354   5.936   6.552   8.718 -0.5587  1.0960 -1.0100
  662MOL0     H87355   5.834   6.461   8.833 -2.3366  1.2341 -1.0954
  662MOL0     H87356   5.775   6.517   8.550  0.8707 -1.2867 -0.3245
  662MOL0     H87357   5.676   6.408   8.655 -1.4658  1.9960  1.3955
  662MOL0     H87358   5.731   6.701   8.696 -2.9480  1.7620 -1.1896
  662MOL0     H87359   5.653   6.599   8.812  2.8571 -3.4198 -0.9251
  662MOL0     H87360   5.478   6.553   8.641 -0.3523 -0.8789 -3.8877
  662MOL0     H87361   5.557   6.663   8.529  3.5949 -0.2562  0.1439
  662MOL0     H87362   5.460   6.757   8.811  4.1656  0.3894  0.9914
  662MOL0     H87363   5.542   6.851   8.690  0.3535 -1.2663 -0.6307
  662MOL0     H87364   5.341   6.797   8.531  0.1392 -0.8018 -0.3953
  662MOL0     H87365   5.288   6.889   8.681 -0.2877  0.1924 -1.7508
  662MOL0     H87366   6.198   6.295   8.529 -0.6131 -0.6702  2.1006
  662MOL0     H87367   6.438   6.297   8.432  0.7451 -1.6268 -1.1957
  662MOL0     H87368   6.836   6.083   8.431  1.0377  1.5563  0.9581
  662MOL0     H87369   7.011   6.057   8.259 -0.8498 -0.0141  0.9825
  662MOL0     H87370   8.630   5.562   7.681  1.3015 -1.6388  2.1479
  662MOL0     H87371   8.823   5.590   7.503  1.9363  0.6142 -0.7661
  662MOL0     H87372   9.440   5.657   7.600  3.1199  2.4452  1.0802
  662MOL0     H87373   9.630   5.721   7.471 -1.8888 -1.2945  3.5490
  662MOL0     H87374   9.620   6.056   7.302 -1.1388 -2.0645  1.7550
  662MOL0     H87375   9.752   6.008   7.181 -2.3715  1.9981 -2.0462
  662MOL0     H87376   9.742   5.926   7.470  1.2981 -2.8889  0.6103
  662MOL0     H87377   9.872   5.897   7.337  0.0282  0.0599 -0.2943
  662MOL0     H87378   9.916   6.129   7.340  0.9576 -0.1169 -0.0078
  662MOL0     H87379   9.920   6.070   7.507 -0.7647 -2.0775 -0.8126
  662MOL0     H87380   9.702   6.250   7.405  3.2470  0.0926 -1.5649
  662MOL0     H87381   9.682   6.136   7.538 -1.7236  0.0857 -1.7554
  662MOL0     H87382   9.950   6.400   7.736 -3.2650  2.6426 -0.1307
  662MOL0     H87383   9.376   5.927   7.192 -2.7915 -0.1088  0.5781
  662MOL0     H87384   9.179   5.869   7.331 -0.2676 -0.2367  0.8693
  663MOL0     O87385   9.786   2.825   0.536  0.1604  0.2727 -0.5960
  663MOL0     C87386   9.833   2.751   0.626 -0.8666  0.3071  0.6033
  663MOL0     O87387   9.761   2.703   0.730  0.0614  0.5449  0.2157
  663MOL0     C87388   9.627   2.723   0.750  0.3654 -0.8794 -0.6497
  663MOL0     C87389   9.563   2.839   0.720  1.1820  0.5321 -0.0254
  663MOL0     C87390   9.424   2.852   0.749 -0.4047  0.8499 -0.4681
  663MOL0     C87391   9.353   2.753   0.817 -0.7008 -0.1544  0.3806
  663MOL0     O87392   9.216   2.773   0.825 -0.1874 -0.4918  0.1174
  663MOL0     C87393   9.176   2.865   0.925  0.3928 -0.4186 -0.8274
  663MOL0     C87394   9.127   2.790   1.050 -0.3541  0.0430  0.5553
  663MOL0     C87395   9.080   2.892   1.146 -0.5978 -0.2345  0.3006
  663MOL0     C87396   9.027   2.823   1.270 -0.1401 -0.5113  0.8829
  663MOL0     C87397   8.969   2.920   1.379  0.3334  0.6792  1.1554
  663MOL0     C87398   8.910   2.835   1.499  0.6562 -0.4267  0.2266
  663MOL0     C87399   8.887   2.933   1.615  0.5396 -0.4105 -0.5038
  663MOL0     C87400   8.827   2.863   1.739  0.7668  0.0825 -0.5589
  663MOL0     N87401   8.686   2.827   1.719  0.2247  0.0521 -0.1587
  663MOL0     C87402   8.634   2.713   1.660 -0.6549  0.8392 -0.3283
  663MOL0     C87403   8.505   2.737   1.647 -1.0947 -0.4820  0.5148
  663MOL0     C87404   8.407   2.628   1.596 -0.4516  1.0087 -0.6815
  663MOL0     C87405   8.415   2.593   1.444 -0.1735 -0.6152 -1.4015
  663MOL0     C87406   8.358   2.465   1.418 -0.2209  0.2098  0.2153
  663MOL0     C87407   8.204   2.446   1.456 -0.2507 -0.3345 -0.2327
  663MOL0     O87408   8.127   2.544   1.396  0.4434  0.5830  0.8028
  663MOL0     C87409   7.997   2.549   1.427  0.9391  0.0996 -0.2931
  663MOL0     C87410   7.904   2.604   1.334  0.5972 -0.2115 -0.2911
  663MOL0     C87411   7.761   2.608   1.360  0.0217  0.3376  0.9805
  663MOL0     C87412   7.716   2.542   1.469  0.4958  0.4764  0.4836
  663MOL0     C87413   7.564   2.532   1.484 -0.1448 -0.0019 -0.5294
  663MOL0     O87414   7.490   2.527   1.372  0.0230 -0.5644 -0.2420
  663MOL0     C87415   7.356   2.560   1.372  0.1186  0.3207 -0.7977
  663MOL0     C87416   7.284   2.644   1.458  0.2610  0.5409  0.1703
  663MOL0     C87417   7.147   2.661   1.450 -0.4930  1.0103  0.1835
  663MOL0     C87418   7.074   2.596   1.350 -0.0375 -0.4099 -0.6007
  663MOL0     O87419   6.934   2.603   1.328 -0.0750 -0.0975 -1.0117
  663MOL0     C87420   6.852   2.663   1.431  0.2441  0.2033 -0.5875
  663MOL0     C87421   6.702   2.641   1.409 -0.5866 -0.5719  0.0175
  663MOL0     C87422   6.606   2.714   1.503 -0.4828  0.0410 -0.2536
  663MOL0     C87423   6.466   2.705   1.448  0.3120  0.0732  0.4881
  663MOL0     C87424   6.381   2.808   1.508 -0.2592  0.1422  0.1906
  663MOL0     C87425   6.236   2.773   1.491  0.6240 -0.4375  0.9709
  663MOL0     C87426   6.141   2.886   1.534  0.2909 -1.0249  0.6015
  663MOL0     C87427   6.117   2.905   1.684 -0.7770 -0.1033  0.0879
  663MOL0    Cl87428   6.055   2.760   1.758 -0.0078  0.2539 -0.2515
  663MOL0     C87429   7.143   2.505   1.268  0.2877 -0.4674 -0.8089
  663MOL0     C87430   7.283   2.491   1.279 -1.3887 -0.0725  0.8274
  663MOL0     O87431   7.517   2.539   1.603 -0.9366  0.3563 -0.0341
  663MOL0     C87432   7.802   2.488   1.562 -0.5674 -0.3999 -0.2513
  663MOL0     C87433   7.940   2.501   1.541 -0.3355 -0.3389 -0.5247
  663MOL0     N87434   8.479   2.858   1.705  0.0602  0.1993 -0.1948
  663MOL0     N87435   8.583   2.914   1.746 -0.6707 -0.6190  0.4350
  663MOL0     C87436   9.420   2.632   0.835  0.5592  0.1809 -0.5354
  663MOL0     C87437   9.552   2.620   0.806 -0.8186 -0.6258  0.3522
  663MOL0     C87438   9.969   2.706   0.614 -0.0548  0.6283  0.6488
  663MOL0     C87439  10.041   2.708   0.493 -0.1727 -0.7682  0.1711
  663MOL0     C87440  10.172   2.658   0.484  0.6781  0.3824  0.2241
  663MOL0     C87441  10.248   2.624   0.596 -0.8064 -0.0722  0.9937
  663MOL0     O87442  10.383   2.607   0.585 -0.5142  0.2658  0.2301
  663MOL0     C87443  10.458   2.571   0.466 -0.1991 -0.1810  0.4363
  663MOL0     C87444  10.439   2.420   0.434  0.2559 -0.1371  1.0468
  663MOL0     C87445  10.557   2.381   0.327 -0.5324  0.3738  0.0156
  663MOL0     C87446  10.566   2.234   0.288 -0.2930  0.4881 -0.1019
  663MOL0     C87447  10.454   2.177   0.213 -0.0760  0.3342 -0.1982
  663MOL0     C87448  10.356   2.150   0.154  1.2486  0.7447  0.5153
  663MOL0     C87449  10.184   2.627   0.717 -0.3731 -0.5756  0.0776
  663MOL0     C87450  10.040   2.667   0.732  0.1179 -0.5907  0.5475
  663MOL0     H87451   9.611   2.924   0.672 -0.5477  2.1158  0.9292
  663MOL0     H87452   9.371   2.943   0.721 -0.8298 -0.2617 -3.8317
  663MOL0     H87453   9.099   2.928   0.880  1.2271  1.5504  0.4104
  663MOL0     H87454   9.257   2.928   0.963 -0.8201 -0.4987  2.1538
  663MOL0     H87455   9.207   2.724   1.083  0.3580 -0.1240 -1.3794
  663MOL0     H87456   9.049   2.721   1.018 -1.8017  2.3714 -1.2544
  663MOL0     H87457   9.002   2.961   1.113  1.4520  2.3018  0.5389
  663MOL0     H87458   9.168   2.949   1.177  3.3632 -4.2409 -2.2409
  663MOL0     H87459   8.951   2.748   1.244 -1.6227  1.3154 -0.3007
  663MOL0     H87460   9.109   2.762   1.308  1.0282  0.1647 -0.4742
  663MOL0     H87461   8.898   2.989   1.331  0.2030  0.4355  0.9957
  663MOL0     H87462   9.056   2.980   1.407  0.5970  0.8509  0.0298
  663MOL0     H87463   8.987   2.761   1.523 -0.9012 -1.8198  1.1132
  663MOL0     H87464   8.817   2.788   1.465  0.2989  1.1906 -1.1652
  663MOL0     H87465   8.986   2.975   1.636  0.3766  0.7603 -1.9163
  663MOL0     H87466   8.820   3.018   1.599  0.0585 -0.5611  0.5938
  663MOL0     H87467   8.826   2.914   1.836 -1.0044  0.1509 -0.5721
  663MOL0     H87468   8.869   2.765   1.764  0.2513 -0.1282 -0.4898
  663MOL0     H87469   8.678   2.617   1.635 -1.3999  0.9125 -2.1254
  663MOL0     H87470   8.302   2.651   1.614 -0.8801  0.0560 -1.8498
  663MOL0     H87471   8.414   2.539   1.659  1.6276  0.7604 -1.1905
  663MOL0     H87472   8.523   2.594   1.425 -0.1755  2.6100 -1.7394
  663MOL0     H87473   8.370   2.672   1.383  1.2210  1.3530 -0.0289
  663MOL0     H87474   8.363   2.454   1.309 -1.1502  1.8991 -0.0495
  663MOL0     H87475   8.415   2.382   1.460  1.4174  0.4195 -1.4603
  663MOL0     H87476   8.186   2.450   1.563 -1.2139 -1.3844 -0.3392
  663MOL0     H87477   8.177   2.347   1.419  2.2054 -1.0120 -0.4390
  663MOL0     H87478   7.947   2.652   1.247 -0.2321  0.4466 -0.3469
  663MOL0     H87479   7.686   2.642   1.289  0.0530 -4.0382 -1.4879
  663MOL0     H87480   7.340   2.686   1.541  0.3194 -0.7176  0.7898
  663MOL0     H87481   7.102   2.725   1.525 -0.3127  0.5828  0.6649
  663MOL0     H87482   6.867   2.771   1.422 -2.7066  0.7173 -0.1670
  663MOL0     H87483   6.885   2.633   1.531  0.0891 -0.9418 -0.8717
  663MOL0     H87484   6.689   2.534   1.427  2.3801 -0.8331  1.1661
  663MOL0     H87485   6.679   2.676   1.308 -1.1603 -0.3966  0.2042
  663MOL0     H87486   6.636   2.819   1.514 -0.6122 -0.0120  0.7210
  663MOL0     H87487   6.607   2.683   1.608 -0.3809  2.0997  0.3917
  663MOL0     H87488   6.464   2.721   1.340 -0.4445 -3.5881 -0.2031
  663MOL0     H87489   6.422   2.605   1.454 -2.3383  0.8684 -2.9072
  663MOL0     H87490   6.403   2.904   1.461 -0.9399 -0.7918 -2.1522
  663MOL0     H87491   6.396   2.808   1.617 -1.1154 -1.3528  0.3322
  663MOL0     H87492   6.206   2.683   1.546 -1.9956 -0.7911 -0.8414
  663MOL0     H87493   6.215   2.757   1.385 -0.8215 -0.8806  1.2987
  663MOL0     H87494   6.173   2.982   1.493  1.6943 -1.9533 -0.5790
  663MOL0     H87495   6.045   2.857   1.488  0.3381  0.9526 -0.8788
  663MOL0     H87496   6.050   2.991   1.690 -0.5114  0.2454 -1.5570
  663MOL0     H87497   6.208   2.935   1.736 -1.3306  0.8415  0.5246
  663MOL0     H87498   7.095   2.459   1.182 -0.3638  1.4181 -1.4867
  663MOL0     H87499   7.335   2.434   1.204 -0.3611  3.2163 -1.1661
  663MOL0     H87500   7.763   2.448   1.655 -0.4815 -0.3014 -0.1724
  663MOL0     H87501   8.005   2.473   1.622 -0.3672  0.1500 -0.3258
  663MOL0     H87502   9.358   2.544   0.852  1.5316 -0.3407  0.4373
  663MOL0     H87503   9.601   2.526   0.833  1.4012  0.5889  0.8094
  663MOL0     H87504   9.995   2.765   0.413 -1.4840 -1.0401  0.7122
  663MOL0     H87505  10.224   2.670   0.389  0.5724 -0.4172  0.0601
  663MOL0     H87506  10.562   2.581   0.499  0.6503 -1.3754 -1.6576
  663MOL0     H87507  10.431   2.632   0.379 -1.1830 -1.7816 -0.4381
  663MOL0     H87508  10.427   2.363   0.527 -3.8265 -3.0573 -0.9475
  663MOL0     H87509  10.339   2.408   0.392  0.7101 -1.7396  0.3388
  663MOL0     H87510  10.652   2.427   0.356  0.0135  0.0374 -1.1734
  663MOL0     H87511  10.528   2.432   0.234 -1.8656  0.5851  0.5215
  663MOL0     H87512  10.649   2.234   0.217 -0.5554  0.8101 -0.4049
  663MOL0     H87513  10.588   2.171   0.375  0.3965  1.1965  0.2469
  663MOL0     H87514  10.293   2.111   0.077  1.6720 -2.5166  1.6935
  663MOL0     H87515  10.238   2.623   0.812 -1.9559  3.2556  1.3449
  663MOL0     H87516   9.991   2.678   0.828  0.5773 -1.6456  0.9129
  664MOL0     O87517   7.280   7.025   8.660 -0.1546 -0.0738 -0.7255
  664MOL0     C87518   7.309   7.094   8.564  0.9327 -0.0078 -0.6603
  664MOL0     O87519   7.243   7.212   8.530 -0.0628  0.3195 -0.2497
  664MOL0     C87520   7.126   7.232   8.597 -0.0432 -0.6093  0.4322
  664MOL0     C87521   7.122   7.248   8.735  0.5523  0.0660 -0.8606
  664MOL0     C87522   7.000   7.268   8.805 -0.0794 -0.6121  0.0460
  664MOL0     C87523   6.884   7.279   8.730  0.4683  0.7177 -0.3779
  664MOL0     O87524   6.772   7.316   8.802  0.1724  0.2474 -1.0408
  664MOL0     C87525   6.649   7.342   8.718  0.3226  0.2314  0.6440
  664MOL0     C87526   6.537   7.371   8.815  0.5555 -0.6171  1.0446
  664MOL0     C87527   6.400   7.340   8.740 -0.0363 -1.4277 -0.0286
  664MOL0     C87528   6.343   7.203   8.781  0.3011  0.4115  0.5011
  664MOL0     C87529   6.197   7.182   8.741 -0.6949  0.4444  0.6403
  664MOL0     C87530   6.100   7.285   8.802 -0.4814 -1.3992  0.5865
  664MOL0     C87531   5.959   7.239   8.792 -0.7425  0.0004 -0.1119
  664MOL0     C87532   5.861   7.332   8.857  0.7365  0.1349  0.0410
  664MOL0     N87533   5.729   7.287   8.868 -0.2320 -0.2437  0.1104
  664MOL0     C87534   5.681   7.166   8.908 -0.2124  0.1363  0.1788
  664MOL0     C87535   5.549   7.186   8.903  0.1702  0.8171  0.8198
  664MOL0     C87536   5.446   7.071   8.897  0.1760  0.6033 -0.3189
  664MOL0     C87537   5.405   7.034   9.039 -0.9304  0.0379  0.0286
  664MOL0     C87538   5.318   7.145   9.100 -1.7819 -0.3463  1.0325
  664MOL0     C87539   5.247   7.095   9.228  0.4463 -0.9455  0.0164
  664MOL0     O87540   5.168   7.206   9.282  0.1302  0.0458  0.0543
  664MOL0     C87541   5.095   7.193   9.393  0.2905 -0.1885  0.0998
  664MOL0     C87542   4.961   7.226   9.392 -0.2757  0.1845  0.2108
  664MOL0     C87543   4.886   7.217   9.511  0.1714 -0.8610  0.5783
  664MOL0     C87544   4.938   7.181   9.633  0.0486 -0.5878 -0.0246
  664MOL0     C87545   4.851   7.173   9.752 -0.2783 -0.1729  0.2516
  664MOL0     O87546   4.713   7.198   9.738  0.3175  0.3770  0.0544
  664MOL0     C87547   4.617   7.185   9.838  0.0918 -0.6861  0.3454
  664MOL0     C87548   4.642   7.196   9.975  0.4891 -0.5922  0.0217
  664MOL0     C87549   4.532   7.182  10.067  0.1670  0.2424  0.7604
  664MOL0     C87550   4.398   7.168  10.013  0.7735  0.4174 -0.1684
  664MOL0     O87551   4.286   7.157  10.095 -0.8855  0.1274  0.3676
  664MOL0     C87552   4.298   7.223  10.225 -0.0965  0.0667 -0.7978
  664MOL0     C87553   4.173   7.193  10.311 -1.1438  0.5675 -0.1574
  664MOL0     C87554   4.051   7.269  10.250 -0.2104  0.6939 -0.3042
  664MOL0     C87555   3.926   7.253  10.342  0.0445  0.8567  0.1665
  664MOL0     C87556   3.823   7.361  10.311 -0.0848 -0.4095 -0.9871
  664MOL0     C87557   3.714   7.352  10.417  0.0951 -0.5840  0.0236
  664MOL0     C87558   3.656   7.214  10.444  0.0912  0.7864 -0.4331
  664MOL0     C87559   3.530   7.211  10.523 -0.5124 -0.4757  1.2119
  664MOL0    Cl87560   3.391   7.256  10.422 -0.0406 -0.1284 -0.3610
  664MOL0     C87561   4.377   7.160   9.882  0.3998  0.2516  0.5693
  664MOL0     C87562   4.488   7.174   9.792 -0.1328 -0.1828 -0.4432
  664MOL0     O87563   4.907   7.150   9.862  0.0780 -0.1284  0.5231
  664MOL0     C87564   5.075   7.134   9.636  0.2310  0.1468 -0.0069
  664MOL0     C87565   5.149   7.141   9.514 -0.4214 -0.4253  0.2927
  664MOL0     N87566   5.512   7.321   8.883  0.7593  0.4805 -0.8419
  664MOL0     N87567   5.625   7.378   8.857  0.3546  1.5610 -0.1176
  664MOL0     C87568   6.886   7.263   8.591  0.1282 -0.5890  0.3078
  664MOL0     C87569   7.011   7.238   8.525  0.5476  1.1455  0.3795
  664MOL0     C87570   7.442   7.069   8.499 -0.3192  0.3124 -0.1762
  664MOL0     C87571   7.480   7.136   8.380  0.1663  0.6503  0.7049
  664MOL0     C87572   7.597   7.107   8.310  0.5927  0.6411 -0.1959
  664MOL0     C87573   7.690   7.009   8.356 -0.4789 -0.1629  0.1716
  664MOL0     O87574   7.804   6.979   8.287  0.0911  0.6000 -0.2446
  664MOL0     C87575   7.891   7.080   8.249  0.0237 -0.4388  0.2437
  664MOL0     C87576   8.032   7.023   8.246 -0.1587  0.5528  0.0285
  664MOL0     C87577   8.043   6.913   8.138 -0.0495  0.2991 -0.3108
  664MOL0     C87578   8.192   6.896   8.110 -0.3151 -0.8168 -0.5338
  664MOL0     C87579   8.216   6.763   8.052  0.0880 -1.0292  0.0565
  664MOL0     C87580   8.235   6.655   8.003 -0.4446  0.3638 -0.6028
  664MOL0     C87581   7.659   6.946   8.476  0.2384  0.0012 -0.0810
  664MOL0     C87582   7.544   6.968   8.548  0.0574 -0.1482 -0.4367
  664MOL0     H87583   7.207   7.243   8.803 -1.0142  1.2673  1.3351
  664MOL0     H87584   6.987   7.256   8.912 -2.7594 -0.0115 -0.1533
  664MOL0     H87585   6.613   7.251   8.670  0.4609  0.3645  0.2817
  664MOL0     H87586   6.663   7.415   8.638  1.7441  1.0831  1.6147
  664MOL0     H87587   6.534   7.476   8.845 -0.0336 -0.2864 -0.1179
  664MOL0     H87588   6.546   7.304   8.901  1.1390  1.2617  2.5211
  664MOL0     H87589   6.412   7.360   8.633  2.4610  1.0844  0.6122
  664MOL0     H87590   6.336   7.419   8.779 -0.0993 -1.3560 -0.2763
  664MOL0     H87591   6.395   7.130   8.719 -0.3897  0.1572  0.2078
  664MOL0     H87592   6.364   7.183   8.886  0.2487 -0.1567  0.4053
  664MOL0     H87593   6.164   7.092   8.794 -1.0334  0.2817  0.1617
  664MOL0     H87594   6.183   7.176   8.633  1.2508 -0.7440  0.4170
  664MOL0     H87595   6.120   7.376   8.743  0.5815 -0.4979  2.2541
  664MOL0     H87596   6.122   7.308   8.906 -2.2254  4.1176  0.0522
  664MOL0     H87597   5.948   7.226   8.684  0.0706  1.7142 -0.4209
  664MOL0     H87598   5.954   7.138   8.835 -1.6057 -0.2489 -0.7621
  664MOL0     H87599   5.868   7.436   8.822  2.6776 -0.4753 -1.5633
  664MOL0     H87600   5.897   7.335   8.961 -2.0393 -0.5145  1.1041
  664MOL0     H87601   5.725   7.066   8.911 -0.3793 -0.0163 -1.5836
  664MOL0     H87602   5.490   6.983   8.849  0.5720 -0.3380  1.6352
  664MOL0     H87603   5.363   7.114   8.840 -0.6758  0.8240  1.0178
  664MOL0     H87604   5.495   7.028   9.099 -0.9613  1.8236  0.2993
  664MOL0     H87605   5.347   6.941   9.043  0.0678 -0.6896 -1.2507
  664MOL0     H87606   5.380   7.232   9.126 -2.6108  0.7785 -0.6277
  664MOL0     H87607   5.245   7.186   9.031 -1.4381  2.2248  2.0811
  664MOL0     H87608   5.331   7.080   9.296 -0.0817  2.6606  1.7099
  664MOL0     H87609   5.188   7.003   9.221 -1.2910  0.2267 -4.2701
  664MOL0     H87610   4.912   7.256   9.300 -0.5213 -1.0204 -0.0668
  664MOL0     H87611   4.785   7.254   9.500  1.2111  2.0462 -0.0729
  664MOL0     H87612   4.735   7.216  10.027 -0.0548 -0.4238  0.9542
  664MOL0     H87613   4.555   7.185  10.173  0.3636  2.8760  0.7005
  664MOL0     H87614   4.310   7.332  10.216  0.3175  0.2552  1.4936
  664MOL0     H87615   4.388   7.193  10.278 -1.3891  2.0046  2.8452
  664MOL0     H87616   4.192   7.238  10.409  0.0508 -1.1548  0.4342
  664MOL0     H87617   4.156   7.086  10.320  0.9127  0.0742 -1.4483
  664MOL0     H87618   4.039   7.223  10.152  1.1026 -2.2685  0.7980
  664MOL0     H87619   4.080   7.374  10.238  2.3025 -0.0501 -1.4815
  664MOL0     H87620   3.886   7.151  10.339 -0.8442  1.2230 -1.6698
  664MOL0     H87621   3.957   7.265  10.446 -1.8141 -0.9625  0.9968
  664MOL0     H87622   3.775   7.336  10.216  0.9430 -0.1839 -1.5821
  664MOL0     H87623   3.873   7.458  10.303 -1.5829  0.4237 -0.5852
  664MOL0     H87624   3.630   7.418  10.394 -0.0730 -1.0661 -0.7821
  664MOL0     H87625   3.760   7.389  10.509 -0.2122  0.1383 -0.1046
  664MOL0     H87626   3.637   7.150  10.357 -0.0624  0.7318 -0.3601
  664MOL0     H87627   3.733   7.174  10.510 -0.6762  0.2088  0.1253
  664MOL0     H87628   3.542   7.281  10.606  1.9875  0.0055  0.5249
  664MOL0     H87629   3.521   7.104  10.544 -0.6626 -1.3632 -2.6932
  664MOL0     H87630   4.284   7.128   9.837  1.1038 -0.1457 -0.6563
  664MOL0     H87631   4.473   7.150   9.687 -0.0194  3.9173 -1.5758
  664MOL0     H87632   5.109   7.096   9.731 -3.1098  0.4480  1.4474
  664MOL0     H87633   5.253   7.109   9.517 -0.5753 -0.8639  1.4538
  664MOL0     H87634   6.796   7.273   8.532  0.3845 -0.8762 -0.1408
  664MOL0     H87635   7.023   7.225   8.418 -1.7745 -0.1611  0.2231
  664MOL0     H87636   7.411   7.212   8.343  0.1552  0.1080 -0.4368
  664MOL0     H87637   7.608   7.163   8.218 -0.9496 -0.2112 -0.9499
  664MOL0     H87638   7.888   7.174   8.304 -2.6817 -2.2643  3.6333
  664MOL0     H87639   7.860   7.113   8.149 -1.8735 -0.3502  0.8145
  664MOL0     H87640   8.104   7.104   8.234  1.9606 -0.3531  4.4753
  664MOL0     H87641   8.052   6.987   8.347  0.2907 -0.8874 -0.5519
  664MOL0     H87642   7.996   6.950   8.047  1.2468 -1.7262 -1.9038
  664MOL0     H87643   7.991   6.825   8.179 -1.0269  0.9723 -0.0749
  664MOL0     H87644   8.225   6.977   8.044  1.2440  0.2471  1.3989
  664MOL0     H87645   8.244   6.905   8.207 -2.5014 -0.0398  0.6306
  664MOL0     H87646   8.252   6.557   7.962  0.2520  0.1674  0.1184
  664MOL0     H87647   7.725   6.877   8.528 -0.4526  1.2559  2.6573
  664MOL0     H87648   7.518   6.920   8.642 -0.6239 -1.2077 -1.1476
  665MOL0     O87649   1.270   2.096  10.475 -0.7390 -0.0408  0.1740
  665MOL0     C87650   1.284   2.083  10.352  1.2719  0.6819  0.4030
  665MOL0     O87651   1.185   2.115  10.262 -0.0522  0.6090  0.6704
  665MOL0     C87652   1.062   2.136  10.313 -1.2543 -0.3037  0.7030
  665MOL0     C87653   1.013   2.262  10.318  0.1374  0.6130 -0.0990
  665MOL0     C87654   0.891   2.301  10.357  0.6177  0.2860  0.2494
  665MOL0     C87655   0.803   2.202  10.397  0.0785  0.4365 -0.5325
  665MOL0     O87656   0.679   2.232  10.453 -0.2566  0.5846  0.1278
  665MOL0     C87657   0.660   2.341  10.544 -0.3709  0.1004  0.9480
  665MOL0     C87658   0.511   2.360  10.568 -0.8473 -0.7516  0.0798
  665MOL0     C87659   0.493   2.444  10.696  1.2527  0.1114 -0.0178
  665MOL0     C87660   0.345   2.483  10.710  0.1647 -0.3077 -0.1710
  665MOL0     C87661   0.298   2.466  10.855 -0.6643  0.5616 -0.1069
  665MOL0     C87662   0.169   2.536  10.907  0.3698 -0.8120  0.4477
  665MOL0     C87663   0.045   2.456  10.874 -0.0757 -0.2722  0.0374
  665MOL0     C87664  -0.075   2.519  10.954 -0.4576  0.6572 -0.4291
  665MOL0     N87665  -0.122   2.644  10.902 -0.8097  0.4419  0.0203
  665MOL0     C87666  -0.232   2.660  10.822 -0.4719  0.5573  1.1978
  665MOL0     C87667  -0.263   2.788  10.829  0.7273  0.0018  0.4431
  665MOL0     C87668  -0.376   2.864  10.763 -0.6335  0.2718 -0.1325
  665MOL0     C87669  -0.450   2.769  10.663  0.0333 -0.3043  0.2836
  665MOL0     C87670  -0.566   2.841  10.587 -0.3824  0.2372  0.0640
  665MOL0     C87671  -0.703   2.855  10.660 -0.3632  0.0584 -0.1995
  665MOL0     O87672  -0.815   2.890  10.575 -0.2309  0.5239  0.0800
  665MOL0     C87673  -0.936   2.906  10.635  0.7892 -0.4636  0.3293
  665MOL0     C87674  -0.953   2.885  10.778  0.8165 -1.2956 -0.2712
  665MOL0     C87675  -1.086   2.896  10.838  0.0246  0.2061  0.2515
  665MOL0     C87676  -1.206   2.921  10.763 -0.5843 -0.1126  0.4397
  665MOL0     C87677  -1.333   2.941  10.831 -0.1370 -0.8428  0.0934
  665MOL0     O87678  -1.341   2.917  10.960  0.0580  0.2941 -0.7892
  665MOL0     C87679  -1.437   2.968  11.032  0.3058  0.3465 -0.6218
  665MOL0     C87680  -1.572   2.953  11.007  0.2495  0.5775  0.2933
  665MOL0     C87681  -1.667   3.008  11.090  0.2055 -0.3631 -0.3569
  665MOL0     C87682  -1.631   3.045  11.219  0.3470 -0.4699  0.0255
  665MOL0     O87683  -1.740   3.076  11.299 -0.4460 -0.4116 -0.7779
  665MOL0     C87684  -1.713   3.174  11.404 -0.8311  0.2675 -1.2234
  665MOL0     C87685  -1.696   3.320  11.349  0.2963  0.6151  0.0744
  665MOL0     C87686  -1.827   3.379  11.293 -0.2566 -0.3524  0.6417
  665MOL0     C87687  -1.912   3.444  11.405 -0.2774 -0.4777  0.4899
  665MOL0     C87688  -2.055   3.483  11.340 -0.0361 -0.1213  0.2112
  665MOL0     C87689  -2.177   3.496  11.444 -0.3670 -0.6821 -0.6922
  665MOL0     C87690  -2.217   3.366  11.519 -0.2861 -0.3448  0.0107
  665MOL0     C87691  -2.265   3.249  11.417 -0.1904 -0.8203 -0.6853
  665MOL0    Cl87692  -2.390   3.138  11.496 -0.1531 -0.0828 -0.0111
  665MOL0     C87693  -1.490   3.049  11.255 -0.0991  0.4749  0.1360
  665MOL0     C87694  -1.395   3.020  11.157  0.0142 -0.1894  0.1805
  665MOL0     O87695  -1.410   3.009  10.770  0.4250  0.0238 -0.1245
  665MOL0     C87696  -1.179   2.936  10.626  0.9381 -0.3215 -0.3961
  665MOL0     C87697  -1.054   2.928  10.560 -0.4696 -0.4361  0.0676
  665MOL0     N87698  -0.180   2.851  10.924 -0.2472  0.0976  0.0096
  665MOL0     N87699  -0.095   2.761  10.973 -0.1259  0.4127  0.3143
  665MOL0     C87700   0.846   2.067  10.390  0.3685 -0.5104 -0.6230
  665MOL0     C87701   0.975   2.030  10.348  0.1608  0.1643  0.0602
  665MOL0     C87702   1.413   2.052  10.297  0.3949 -0.6419 -1.2521
  665MOL0     C87703   1.525   2.043  10.379 -0.0249 -0.6069  0.3972
  665MOL0     C87704   1.650   1.997  10.324 -0.1873  0.0460  1.6649
  665MOL0     C87705   1.664   1.964  10.182  0.3109 -0.2790 -0.7363
  665MOL0     O87706   1.775   1.929  10.118  0.3834  0.6343 -0.0966
  665MOL0     C87707   1.883   1.857  10.194 -0.5245  0.1371 -0.2402
  665MOL0     C87708   2.002   1.843  10.100 -0.4006  0.6032 -0.0849
  665MOL0     C87709   1.992   1.714  10.013 -0.0535  0.1919 -0.2641
  665MOL0     C87710   1.895   1.732   9.893 -0.2420 -0.1188  0.0571
  665MOL0     C87711   1.912   1.654   9.765 -0.1356  0.3644  0.1163
  665MOL0     C87712   1.928   1.595   9.664 -0.2257 -0.1193 -0.1700
  665MOL0     C87713   1.543   1.980  10.107  0.4303  0.3890 -1.1194
  665MOL0     C87714   1.427   2.027  10.162  0.1469 -0.0231  0.6674
  665MOL0     H87715   1.072   2.350  10.293  0.3161 -0.1304 -2.5825
  665MOL0     H87716   0.871   2.407  10.354  0.7477  0.3218 -2.9001
  665MOL0     H87717   0.690   2.437  10.503 -3.9006  0.3616 -1.4499
  665MOL0     H87718   0.710   2.315  10.638  0.5733  0.6964  0.6221
  665MOL0     H87719   0.476   2.258  10.585  2.0355 -2.1897 -1.7338
  665MOL0     H87720   0.465   2.412  10.484 -2.0017  2.1773  2.3635
  665MOL0     H87721   0.547   2.539  10.702  2.6533 -0.7728  3.4716
  665MOL0     H87722   0.534   2.386  10.779  2.6256  1.5127  0.3378
  665MOL0     H87723   0.321   2.583  10.672  3.3599  0.9169  0.6750
  665MOL0     H87724   0.291   2.411  10.648  0.4151  1.2618 -2.3226
  665MOL0     H87725   0.378   2.504  10.919 -2.2653 -0.5999  2.8165
  665MOL0     H87726   0.291   2.360  10.882 -0.1224  0.7265  0.7325
  665MOL0     H87727   0.162   2.633  10.856 -1.6803 -0.3105  1.6056
  665MOL0     H87728   0.172   2.554  11.015 -1.3474 -0.8716  0.5323
  665MOL0     H87729   0.017   2.458  10.768 -1.2896 -0.9693  0.3229
  665MOL0     H87730   0.057   2.348  10.891  2.4208  0.0978  1.0077
  665MOL0     H87731  -0.041   2.530  11.057 -0.0012  2.1993 -0.7267
  665MOL0     H87732  -0.156   2.445  10.954  0.5053 -0.5104 -2.8113
  665MOL0     H87733  -0.283   2.585  10.762 -0.4529  0.3491  1.4390
  665MOL0     H87734  -0.336   2.949  10.707  0.5673  1.4965  2.4172
  665MOL0     H87735  -0.445   2.899  10.840  0.6874  1.4362  0.5722
  665MOL0     H87736  -0.490   2.687  10.723  1.2965 -1.8428 -0.8680
  665MOL0     H87737  -0.378   2.730  10.590  0.1857 -3.2681  1.8721
  665MOL0     H87738  -0.523   2.936  10.556  0.8191 -0.9969 -2.3163
  665MOL0     H87739  -0.581   2.785  10.495  0.9784  0.3036 -0.2201
  665MOL0     H87740  -0.685   2.931  10.737 -1.4663 -0.7922  0.9583
  665MOL0     H87741  -0.721   2.759  10.710  2.2523 -0.3956  0.0139
  665MOL0     H87742  -0.864   2.883  10.840  0.9019 -1.8919 -0.4091
  665MOL0     H87743  -1.095   2.880  10.945  1.0156  0.3677  0.3655
  665MOL0     H87744  -1.601   2.898  10.918 -0.3948 -0.9245  1.3853
  665MOL0     H87745  -1.773   3.013  11.064 -0.0322  0.5139  0.7308
  665MOL0     H87746  -1.623   3.137  11.455 -0.5111  0.3343 -1.7211
  665MOL0     H87747  -1.794   3.180  11.477 -1.6869 -1.1022 -2.0149
  665MOL0     H87748  -1.630   3.324  11.262  0.2283  0.7478  0.0299
  665MOL0     H87749  -1.660   3.386  11.428  0.4625 -0.9265  1.3293
  665MOL0     H87750  -1.891   3.304  11.247 -1.0784  0.7730 -0.0794
  665MOL0     H87751  -1.808   3.452  11.214  0.2139  0.8719  1.8340
  665MOL0     H87752  -1.924   3.374  11.488 -1.7223 -0.6599  0.1475
  665MOL0     H87753  -1.857   3.532  11.439 -1.5087  1.1462 -1.4717
  665MOL0     H87754  -2.091   3.416  11.262  0.3397 -0.3826  0.2577
  665MOL0     H87755  -2.046   3.573  11.279  1.7735 -0.2008  0.3208
  665MOL0     H87756  -2.266   3.528  11.390 -0.4377 -1.1762 -0.8702
  665MOL0     H87757  -2.139   3.569  11.517 -2.1040  0.7722 -1.1763
  665MOL0     H87758  -2.139   3.320  11.581 -1.8867 -2.0168  0.8694
  665MOL0     H87759  -2.296   3.400  11.586 -0.3470 -1.7648  0.7043
  665MOL0     H87760  -2.175   3.198  11.383  2.3478  3.0026 -0.2991
  665MOL0     H87761  -2.301   3.286  11.320  1.6570 -1.6786 -1.7485
  665MOL0     H87762  -1.461   3.093  11.350  0.4156 -0.6664  0.5166
  665MOL0     H87763  -1.289   3.025  11.182  0.0094  1.6734  0.0023
  665MOL0     H87764  -1.260   2.960  10.557  0.1337  1.1241  0.9897
  665MOL0     H87765  -1.043   2.928  10.453 -0.8192  0.6307  0.0233
  665MOL0     H87766   0.782   1.987  10.425  1.3398 -1.8662 -1.7884
  665MOL0     H87767   1.006   1.927  10.337 -1.0525 -0.2518  0.4272
  665MOL0     H87768   1.509   2.059  10.485 -0.1135  0.6290  0.2135
  665MOL0     H87769   1.741   1.986  10.381  0.8592 -0.6550 -0.0415
  665MOL0     H87770   1.836   1.766  10.232  0.8274 -0.1928  0.7278
  665MOL0     H87771   1.919   1.900  10.288 -2.6138  1.0518  0.1879
  665MOL0     H87772   2.014   1.934  10.041 -0.2449  0.8605  0.3407
  665MOL0     H87773   2.093   1.831  10.159 -0.1774 -0.2794 -0.5815
  665MOL0     H87774   1.972   1.626  10.075  3.2229 -2.1262 -2.1333
  665MOL0     H87775   2.095   1.701   9.977  0.3911  1.2959  0.5786
  665MOL0     H87776   1.793   1.712   9.928  0.3717 -2.0568  0.8670
  665MOL0     H87777   1.890   1.837   9.862 -1.8575 -0.6702 -1.6844
  665MOL0     H87778   1.935   1.561   9.563 -3.2178  1.1067 -0.9077
  665MOL0     H87779   1.559   1.947  10.005  0.6220 -3.9326  0.1358
  665MOL0     H87780   1.341   2.041  10.097  0.5698  2.4020  0.5552
  666MOL0     O87781   9.365   7.218   1.704  0.1108 -0.1156  0.2026
  666MOL0     C87782   9.402   7.168   1.809 -1.0473 -0.5714 -0.0691
  666MOL0     O87783   9.318   7.116   1.900 -1.2423 -0.1263 -0.1366
  666MOL0     C87784   9.186   7.136   1.891  0.3495 -0.3817 -0.1255
  666MOL0     C87785   9.114   7.102   1.772  0.5030  0.0232  0.0251
  666MOL0     C87786   8.975   7.106   1.778 -0.2336 -0.1823 -0.2413
  666MOL0     C87787   8.907   7.145   1.897  0.2101  0.3578 -0.0787
  666MOL0     O87788   8.772   7.157   1.921  0.2270  0.2336  0.0631
  666MOL0     C87789   8.680   7.108   1.823 -0.3279  0.6212  0.1890
  666MOL0     C87790   8.545   7.164   1.872 -0.0311  0.2520  0.1037
  666MOL0     C87791   8.433   7.138   1.778 -0.3396 -0.3632 -0.3063
  666MOL0     C87792   8.300   7.151   1.851  0.4871 -0.2063  0.7026
  666MOL0     C87793   8.191   7.129   1.749  0.3865 -0.3950 -0.2049
  666MOL0     C87794   8.059   7.192   1.798 -0.6539 -0.5397 -1.4202
  666MOL0     C87795   7.984   7.102   1.894  0.3026 -0.1433 -0.1720
  666MOL0     C87796   7.855   7.172   1.946  0.2797 -0.2124  0.7342
  666MOL0     N87797   7.883   7.277   2.053 -0.4997  0.2382 -0.4087
  666MOL0     C87798   7.906   7.410   2.049  0.4543 -0.8724  0.7281
  666MOL0     C87799   7.907   7.448   2.176  0.3428 -0.0284 -1.2583
  666MOL0     C87800   7.917   7.593   2.211  0.1166 -0.8322  0.6840
  666MOL0     C87801   8.045   7.628   2.283 -0.3404 -0.6327 -0.5075
  666MOL0     C87802   8.163   7.567   2.206 -0.2113  0.1267 -0.3589
  666MOL0     C87803   8.289   7.604   2.278  0.0743 -0.9108 -0.4452
  666MOL0     O87804   8.388   7.570   2.186 -0.4646  0.1352  0.4467
  666MOL0     C87805   8.513   7.546   2.229  0.5149  0.2020 -0.3632
  666MOL0     C87806   8.611   7.507   2.139 -0.3201  0.4360  0.1797
  666MOL0     C87807   8.738   7.474   2.182 -0.3345 -0.1955  0.1583
  666MOL0     C87808   8.773   7.490   2.319 -0.2274 -0.1270 -0.2142
  666MOL0     C87809   8.914   7.481   2.376  0.4689  0.8159 -0.0922
  666MOL0     O87810   8.919   7.458   2.513  0.2674  0.0966 -0.5653
  666MOL0     C87811   9.050   7.457   2.567 -0.0690  0.3205  0.0094
  666MOL0     C87812   9.144   7.559   2.543 -0.0883 -0.0431 -0.0627
  666MOL0     C87813   9.276   7.554   2.609  0.2451 -0.1980 -0.0901
  666MOL0     C87814   9.305   7.449   2.700  1.1601 -1.4262  1.0153
  666MOL0     O87815   9.427   7.450   2.759  0.0173  0.4005  0.3773
  666MOL0     C87816   9.476   7.330   2.824  0.3933 -0.4088  0.7045
  666MOL0     C87817   9.606   7.356   2.899  0.0612  0.5420 -0.8202
  666MOL0     C87818   9.711   7.412   2.803  0.2528  0.1216  0.2064
  666MOL0     C87819   9.851   7.377   2.854  0.2750 -0.9686  0.2657
  666MOL0     C87820   9.971   7.415   2.759 -0.3305 -0.0618  0.3128
  666MOL0     C87821  10.101   7.371   2.825 -0.0647  0.4567 -0.4556
  666MOL0     C87822  10.221   7.438   2.766  0.2859  0.8580  0.5809
  666MOL0     C87823  10.344   7.385   2.835 -0.1607  0.3932  0.7336
  666MOL0    Cl87824  10.345   7.420   3.006 -0.4329  0.1109  0.1205
  666MOL0     C87825   9.207   7.349   2.721  0.7450 -0.1831 -0.6971
  666MOL0     C87826   9.086   7.362   2.656  0.1841  0.3777  0.7929
  666MOL0     O87827   9.002   7.498   2.293  0.7116  0.1390  0.2446
  666MOL0     C87828   8.674   7.535   2.407  0.7498  0.4798  0.0594
  666MOL0     C87829   8.543   7.551   2.368  0.6253 -0.9968  0.5125
  666MOL0     N87830   7.887   7.342   2.259  0.6440 -0.4959 -0.3288
  666MOL0     N87831   7.891   7.233   2.182  0.1852 -0.3185 -0.7358
  666MOL0     C87832   8.981   7.183   2.008 -0.7167 -0.7181 -0.3133
  666MOL0     C87833   9.122   7.187   2.005 -0.1886  0.8587  0.1462
  666MOL0     C87834   9.543   7.137   1.833  0.1945 -0.1664 -0.9591
  666MOL0     C87835   9.599   7.094   1.955  0.9788  0.3579 -0.8566
  666MOL0     C87836   9.736   7.072   1.975  0.1485  0.0769 -0.2671
  666MOL0     C87837   9.823   7.097   1.872 -0.0853  0.5349  0.7943
  666MOL0     O87838   9.958   7.075   1.895  0.2209 -0.3516 -0.5888
  666MOL0     C87839  10.058   7.108   1.798 -0.0557 -0.1782  0.4776
  666MOL0     C87840  10.090   6.992   1.704  0.4895 -0.6791  0.9145
  666MOL0     C87841  10.225   7.028   1.634  0.8718 -0.3218  0.2150
  666MOL0     C87842  10.276   6.924   1.537  0.4526 -0.7751  0.5327
  666MOL0     C87843  10.184   6.869   1.436 -0.6706  0.1541 -0.0684
  666MOL0     C87844  10.091   6.837   1.366 -0.0542  0.0161 -0.0581
  666MOL0     C87845   9.770   7.146   1.746 -0.1928  0.3818  0.4668
  666MOL0     C87846   9.633   7.159   1.726  0.1044  0.4467 -0.3235
  666MOL0     H87847   9.155   7.068   1.678  0.5136 -2.0937  0.7341
  666MOL0     H87848   8.931   7.056   1.693  1.7720 -1.2868 -0.7123
  666MOL0     H87849   8.679   6.999   1.831  3.6994  0.1456 -2.6431
  666MOL0     H87850   8.703   7.130   1.718  0.7590  0.8151  0.4574
  666MOL0     H87851   8.545   7.273   1.884 -0.0964  0.1845  0.7634
  666MOL0     H87852   8.518   7.120   1.969  0.9779  2.1899  1.3384
  666MOL0     H87853   8.432   7.033   1.749 -1.4551 -0.2844 -0.6055
  666MOL0     H87854   8.437   7.215   1.700 -1.8601  1.4489  1.3020
  666MOL0     H87855   8.290   7.079   1.933 -0.0771  1.5575  2.2555
  666MOL0     H87856   8.295   7.252   1.894  1.6892  0.9058 -1.5783
  666MOL0     H87857   8.177   7.022   1.731  2.6540 -0.4144 -2.4175
  666MOL0     H87858   8.217   7.189   1.662  1.5316  2.7147  2.0965
  666MOL0     H87859   7.989   7.220   1.718  0.5091  2.2758 -1.5384
  666MOL0     H87860   8.090   7.277   1.859  2.0159 -4.1730  2.9124
  666MOL0     H87861   7.948   7.007   1.853 -1.2613  0.1721  0.3969
  666MOL0     H87862   8.052   7.083   1.978 -0.5333 -2.3059  0.0905
  666MOL0     H87863   7.778   7.109   1.991  0.1276 -0.3017  0.3525
  666MOL0     H87864   7.802   7.218   1.862  2.4300  0.3371 -0.3710
  666MOL0     H87865   7.915   7.465   1.956 -0.9944  0.3809  1.2849
  666MOL0     H87866   7.830   7.629   2.266 -0.8880 -0.2006 -1.2211
  666MOL0     H87867   7.918   7.658   2.123  0.8810 -1.2857  0.3419
  666MOL0     H87868   8.040   7.586   2.384  1.3399 -0.8791 -0.4863
  666MOL0     H87869   8.064   7.736   2.285 -0.1934 -0.6617 -0.2594
  666MOL0     H87870   8.159   7.458   2.199 -1.8833  0.2212 -1.2826
  666MOL0     H87871   8.175   7.609   2.106  2.4045  0.3872 -0.0262
  666MOL0     H87872   8.287   7.532   2.361 -2.1907 -1.5526 -1.0086
  666MOL0     H87873   8.287   7.707   2.316  0.3960 -1.8061  2.2010
  666MOL0     H87874   8.580   7.506   2.035  0.6468  3.2106 -0.2354
  666MOL0     H87875   8.814   7.442   2.111  0.8363 -1.7118  2.0171
  666MOL0     H87876   9.116   7.634   2.470 -1.4294 -0.4321  0.0138
  666MOL0     H87877   9.353   7.629   2.593  1.6961 -1.9746 -1.7466
  666MOL0     H87878   9.496   7.244   2.759  0.4587  0.7449 -0.8589
  666MOL0     H87879   9.399   7.303   2.897  0.3071 -0.6546  0.5270
  666MOL0     H87880   9.644   7.266   2.947 -0.0519  1.3320  0.8355
  666MOL0     H87881   9.579   7.426   2.979 -0.1054 -2.9596  2.4827
  666MOL0     H87882   9.701   7.520   2.791  1.7354  0.4317  1.4334
  666MOL0     H87883   9.690   7.372   2.703 -0.3112 -0.7625  0.6651
  666MOL0     H87884   9.859   7.420   2.954 -1.7716  0.7508 -0.2367
  666MOL0     H87885   9.862   7.269   2.870  0.9074 -0.5537  3.2031
  666MOL0     H87886   9.973   7.524   2.749 -4.5822 -0.0503 -3.4095
  666MOL0     H87887   9.970   7.375   2.658 -0.5047 -1.9039  1.0003
  666MOL0     H87888  10.123   7.264   2.832  1.0061  0.6898 -0.1142
  666MOL0     H87889  10.093   7.406   2.929  0.5785 -0.0687 -0.2187
  666MOL0     H87890  10.229   7.415   2.660  0.1176  0.5942  0.6258
  666MOL0     H87891  10.218   7.547   2.778 -0.2360  1.2729 -2.5166
  666MOL0     H87892  10.438   7.421   2.791  0.5196 -0.7703  1.1927
  666MOL0     H87893  10.340   7.278   2.817 -0.6775  0.3595  1.0492
  666MOL0     H87894   9.226   7.281   2.803  1.9953  0.7008 -0.2228
  666MOL0     H87895   9.010   7.292   2.687 -0.3162  0.4052 -0.3313
  666MOL0     H87896   8.695   7.541   2.513 -0.7597 -2.7280  0.6465
  666MOL0     H87897   8.477   7.601   2.438  1.6294  0.3608  0.5233
  666MOL0     H87898   8.931   7.236   2.089  3.1681  0.1033  1.7759
  666MOL0     H87899   9.185   7.224   2.084 -2.1327  2.3283  1.0872
  666MOL0     H87900   9.524   7.078   2.032  0.3320 -1.6852 -1.8486
  666MOL0     H87901   9.785   7.044   2.068  0.4256  3.0676  0.6175
  666MOL0     H87902  10.151   7.129   1.852 -0.1863 -0.4743  0.8221
  666MOL0     H87903  10.036   7.201   1.746 -0.5652 -0.4674  0.1738
  666MOL0     H87904  10.114   6.903   1.762  0.7302 -1.2649 -0.0638
  666MOL0     H87905  10.010   6.969   1.633  0.3995  1.3302  0.2840
  666MOL0     H87906  10.300   7.033   1.713 -0.7926  1.7952  1.7757
  666MOL0     H87907  10.217   7.124   1.583 -1.9904  0.9480  2.7763
  666MOL0     H87908  10.345   6.983   1.476 -0.9876  1.3385  0.8162
  666MOL0     H87909  10.328   6.843   1.587  3.0657 -0.7318 -1.8888
  666MOL0     H87910  10.010   6.807   1.302  0.5043 -0.2004 -0.6725
  666MOL0     H87911   9.835   7.165   1.661 -1.0898 -1.0610 -0.5705
  666MOL0     H87912   9.603   7.188   1.626  0.0083  0.2219 -0.3600
  667MOL0     O87913   0.422   5.284   9.385  0.1523 -0.5617 -0.0804
  667MOL0     C87914   0.405   5.275   9.508 -0.2707  0.1111  0.0779
  667MOL0     O87915   0.286   5.271   9.573 -0.1424  0.3260  0.2212
  667MOL0     C87916   0.173   5.306   9.504 -0.6483  0.1576  0.4865
  667MOL0     C87917   0.159   5.426   9.440 -0.5937  0.6259  0.9172
  667MOL0     C87918   0.055   5.450   9.348  0.3893  0.4240 -0.1910
  667MOL0     C87919  -0.051   5.356   9.328 -0.6155 -0.0513 -0.8123
  667MOL0     O87920  -0.159   5.395   9.246  0.5331 -0.5881  0.0064
  667MOL0     C87921  -0.275   5.305   9.229  0.0224  0.4198  0.0716
  667MOL0     C87922  -0.391   5.373   9.145  0.9194 -0.5750 -1.3207
  667MOL0     C87923  -0.476   5.457   9.253  0.2128  0.0421 -0.4581
  667MOL0     C87924  -0.612   5.492   9.187  0.2368  0.3153 -0.7418
  667MOL0     C87925  -0.707   5.376   9.170 -0.4183 -0.3449 -0.0200
  667MOL0     C87926  -0.846   5.428   9.140  0.1701 -0.3492 -0.7942
  667MOL0     C87927  -0.933   5.313   9.090 -0.8886  0.2133  0.5342
  667MOL0     C87928  -0.916   5.298   8.939  0.2932  0.0076  0.4919
  667MOL0     N87929  -1.023   5.368   8.863  0.2807 -0.9673 -0.1140
  667MOL0     C87930  -1.093   5.486   8.895 -0.8361  0.0305  0.4259
  667MOL0     C87931  -1.150   5.525   8.779  0.2881 -0.4124  0.4259
  667MOL0     C87932  -1.234   5.642   8.758  0.8785 -0.5402  0.2123
  667MOL0     C87933  -1.376   5.623   8.666  0.1943  0.1083 -0.2839
  667MOL0     C87934  -1.386   5.742   8.561  0.1360 -0.2600 -0.3904
  667MOL0     C87935  -1.522   5.758   8.493  0.3224  0.1963 -0.2290
  667MOL0     O87936  -1.536   5.884   8.427 -0.9024 -0.0197  0.8631
  667MOL0     C87937  -1.657   5.927   8.378 -0.1085  1.0373 -0.5476
  667MOL0     C87938  -1.663   6.046   8.309 -0.5921 -0.2293  0.1331
  667MOL0     C87939  -1.785   6.100   8.264 -0.4534  0.3202  0.1569
  667MOL0     C87940  -1.904   6.019   8.277  0.0874  0.1550 -0.0321
  667MOL0     C87941  -2.036   6.068   8.219 -0.5702  0.2769  0.2110
  667MOL0     O87942  -2.137   5.988   8.249 -0.0194  0.1075  0.1358
  667MOL0     C87943  -2.266   6.029   8.233 -0.2818  0.8313  0.7277
  667MOL0     C87944  -2.353   5.995   8.343 -1.0293  0.3472 -0.6512
  667MOL0     C87945  -2.490   6.043   8.342  0.7223  0.0861 -0.2409
  667MOL0     C87946  -2.545   6.102   8.224 -0.7415 -0.8233 -0.5206
  667MOL0     O87947  -2.677   6.124   8.209  0.0531 -0.1847 -0.2041
  667MOL0     C87948  -2.767   6.096   8.312  1.3812  0.1621 -0.7279
  667MOL0     C87949  -2.912   6.129   8.272 -0.3548 -0.2027  0.5105
  667MOL0     C87950  -3.014   6.116   8.386 -0.0374  0.0233 -0.1407
  667MOL0     C87951  -3.161   6.129   8.324 -0.0964  0.2940  0.1865
  667MOL0     C87952  -3.265   6.125   8.427 -0.2149  0.4927  0.4180
  667MOL0     C87953  -3.400   6.111   8.362  0.4999 -0.4697 -0.7174
  667MOL0     C87954  -3.504   6.120   8.466  0.4282  0.3198  0.2426
  667MOL0     C87955  -3.643   6.110   8.417  0.4227  0.0570 -0.7387
  667MOL0    Cl87956  -3.704   6.238   8.308 -0.2370  0.3426 -0.0820
  667MOL0     C87957  -2.461   6.120   8.121  0.5345 -0.0388  0.8455
  667MOL0     C87958  -2.325   6.081   8.121 -0.1345  0.0636  1.0185
  667MOL0     O87959  -2.042   6.176   8.170  0.5208 -0.3630  0.6541
  667MOL0     C87960  -1.895   5.898   8.339  1.3280 -0.1170  0.9785
  667MOL0     C87961  -1.771   5.848   8.388 -0.0791 -0.2504 -0.4592
  667MOL0     N87962  -1.115   5.428   8.676  0.5900 -0.0801 -0.6147
  667MOL0     N87963  -1.044   5.333   8.732 -0.1594  0.2869 -0.7043
  667MOL0     C87964  -0.045   5.238   9.408 -0.2870  0.6226 -0.3464
  667MOL0     C87965   0.070   5.213   9.493  0.1432 -0.5639 -0.9031
  667MOL0     C87966   0.523   5.268   9.595  0.0700  0.9686 -0.0319
  667MOL0     C87967   0.518   5.239   9.732  1.1802  0.3343  1.0838
  667MOL0     C87968   0.618   5.268   9.815 -0.7583  0.3081  0.2232
  667MOL0     C87969   0.740   5.320   9.775  0.3956  0.2112  0.0909
  667MOL0     O87970   0.848   5.352   9.845 -0.1989  0.1068  0.0912
  667MOL0     C87971   0.837   5.382   9.990  0.0967 -0.5779 -0.5691
  667MOL0     C87972   0.869   5.527  10.022  0.3151  0.1674  0.5519
  667MOL0     C87973   0.750   5.622  10.004 -0.5073  0.2897  0.0437
  667MOL0     C87974   0.783   5.770  10.053  0.0392  0.5823  0.1807
  667MOL0     C87975   0.749   5.800  10.188  0.2877  0.8785 -0.8357
  667MOL0     C87976   0.713   5.841  10.297  0.3045 -0.1458  0.2853
  667MOL0     C87977   0.755   5.340   9.635  0.2056 -0.5557 -0.0689
  667MOL0     C87978   0.645   5.324   9.552  0.3581  0.0609 -0.0237
  667MOL0     H87979   0.234   5.504   9.450  1.6405 -0.9366 -2.1629
  667MOL0     H87980   0.047   5.551   9.311  1.1830  0.6509  0.2419
  667MOL0     H87981  -0.310   5.271   9.326 -1.3225 -1.7955 -1.1050
  667MOL0     H87982  -0.245   5.215   9.175  1.7076  1.9302 -1.6831
  667MOL0     H87983  -0.457   5.302   9.094  2.1426 -1.3528 -1.8550
  667MOL0     H87984  -0.356   5.437   9.064 -1.0100  1.6591 -0.5146
  667MOL0     H87985  -0.422   5.547   9.285  2.7380 -0.0899 -3.7588
  667MOL0     H87986  -0.503   5.387   9.332 -1.9798 -1.8002 -2.6893
  667MOL0     H87987  -0.658   5.562   9.259  0.9495 -1.7366  1.8809
  667MOL0     H87988  -0.596   5.539   9.090 -0.2315 -0.5380 -1.2383
  667MOL0     H87989  -0.699   5.313   9.259 -0.7113 -2.0217 -1.1325
  667MOL0     H87990  -0.677   5.321   9.080 -1.3517 -1.5740  0.4007
  667MOL0     H87991  -0.842   5.510   9.068  1.3708  0.8675  0.5908
  667MOL0     H87992  -0.891   5.472   9.230 -0.5107  1.4731 -1.9863
  667MOL0     H87993  -0.896   5.219   9.132  0.6838  0.3760 -0.3723
  667MOL0     H87994  -1.038   5.325   9.116 -0.7679  0.2469  1.0147
  667MOL0     H87995  -0.937   5.195   8.909 -2.2421  0.0928  1.6987
  667MOL0     H87996  -0.814   5.326   8.914  0.9207 -2.0437  0.6162
  667MOL0     H87997  -1.096   5.538   8.990  0.6658  1.4249 -0.2455
  667MOL0     H87998  -1.170   5.719   8.715 -0.2641  1.1866  1.4651
  667MOL0     H87999  -1.265   5.681   8.856  1.0060  1.2222 -0.4133
  667MOL0     H88000  -1.461   5.638   8.733  0.9167 -0.5430  0.8168
  667MOL0     H88001  -1.393   5.526   8.619 -4.9783  1.2336 -1.3563
  667MOL0     H88002  -1.365   5.835   8.615  1.6128 -1.7171  1.6862
  667MOL0     H88003  -1.307   5.735   8.486  0.3031  1.5865 -0.4387
  667MOL0     H88004  -1.596   5.750   8.573  1.2539  2.1994  0.9157
  667MOL0     H88005  -1.536   5.668   8.433  0.8348 -0.0283 -0.0171
  667MOL0     H88006  -1.563   6.088   8.300 -0.8069  0.0522 -1.0115
  667MOL0     H88007  -1.783   6.196   8.214 -2.5153 -0.1343 -0.9094
  667MOL0     H88008  -2.315   5.933   8.424 -0.3950  0.6196 -0.7415
  667MOL0     H88009  -2.547   6.011   8.429 -0.2101  0.4431 -0.7108
  667MOL0     H88010  -2.752   6.165   8.395  3.7282 -3.1528  1.9177
  667MOL0     H88011  -2.753   5.994   8.350 -1.2898 -0.7938 -2.0509
  667MOL0     H88012  -2.932   6.069   8.184  0.8249 -0.0420  0.1172
  667MOL0     H88013  -2.903   6.234   8.242 -1.2530  1.5577  5.3848
  667MOL0     H88014  -3.006   6.185   8.471  1.4603 -1.4859  1.0196
  667MOL0     H88015  -3.003   6.013   8.423  1.2373 -0.1831 -1.0472
  667MOL0     H88016  -3.172   6.225   8.273  0.7198  1.1720  1.5915
  667MOL0     H88017  -3.172   6.049   8.251  0.6012 -0.9211  1.3722
  667MOL0     H88018  -3.265   6.213   8.493 -2.2197 -0.6645  2.0917
  667MOL0     H88019  -3.243   6.043   8.496  1.3365 -0.4205 -1.0932
  667MOL0     H88020  -3.405   6.018   8.305  1.4505 -1.1103  0.2214
  667MOL0     H88021  -3.406   6.197   8.295 -1.8733  0.1702  0.1789
  667MOL0     H88022  -3.481   6.050   8.547 -1.9912  0.9481  1.5845
  667MOL0     H88023  -3.501   6.221   8.507 -2.3234  1.0855 -1.1794
  667MOL0     H88024  -3.714   6.112   8.499  0.1257 -1.3744 -0.9388
  667MOL0     H88025  -3.668   6.016   8.367 -0.1076 -0.0735 -0.2278
  667MOL0     H88026  -2.504   6.160   8.030  0.9573 -0.5246  0.4236
  667MOL0     H88027  -2.254   6.102   8.041 -1.6143 -1.7210 -0.8554
  667MOL0     H88028  -1.989   5.848   8.361  0.8062  0.9304  1.2157
  667MOL0     H88029  -1.772   5.747   8.428 -0.6652  0.2502  0.8383
  667MOL0     H88030  -0.120   5.160   9.401  2.8110 -2.8638  1.4620
  667MOL0     H88031   0.073   5.127   9.559 -0.5827 -1.5168 -2.0626
  667MOL0     H88032   0.427   5.192   9.769  0.3255 -1.1205 -2.3694
  667MOL0     H88033   0.611   5.233   9.917  2.1223 -4.5080 -0.9142
  667MOL0     H88034   0.910   5.318  10.041  1.2139  0.4106 -0.8714
  667MOL0     H88035   0.742   5.349  10.031 -0.0849 -0.4250 -0.8632
  667MOL0     H88036   0.906   5.539  10.124  0.4627  2.1875  0.3075
  667MOL0     H88037   0.949   5.557   9.954 -2.5138  2.2519 -2.1597
  667MOL0     H88038   0.657   5.596  10.055  0.9882 -4.7656  0.7418
  667MOL0     H88039   0.719   5.639   9.901 -1.4953  2.1174  0.6026
  667MOL0     H88040   0.889   5.795  10.046  1.4309 -4.5113 -0.9393
  667MOL0     H88041   0.734   5.841   9.985  4.0588  1.8941 -1.6528
  667MOL0     H88042   0.680   5.879  10.392 -2.6781 -0.4371 -0.5322
  667MOL0     H88043   0.851   5.374   9.597 -0.2448  0.1047 -0.6645
  667MOL0     H88044   0.662   5.336   9.445  0.6971  2.0739  0.2348
  668MOL0     O88045   6.015   1.871   8.206  0.2414  0.8735 -0.2465
  668MOL0     C88046   6.007   1.994   8.228  0.9576  0.1385 -0.6270
  668MOL0     O88047   5.890   2.063   8.215  0.2701  0.0347 -0.1035
  668MOL0     C88048   5.785   1.998   8.170  1.1500 -0.9568 -0.2638
  668MOL0     C88049   5.748   2.009   8.033  0.1132  0.3295 -0.1945
  668MOL0     C88050   5.643   1.938   7.975 -0.5479  0.0396 -1.0512
  668MOL0     C88051   5.569   1.856   8.058 -0.1520 -0.3354 -0.2400
  668MOL0     O88052   5.464   1.793   8.000  0.7382  0.1529 -0.5171
  668MOL0     C88053   5.431   1.671   8.066  0.6306 -0.4476  0.0998
  668MOL0     C88054   5.341   1.602   7.957 -0.6944  0.2104 -0.2925
  668MOL0     C88055   5.202   1.655   7.947  0.3189  0.3724  0.3427
  668MOL0     C88056   5.130   1.548   7.863 -0.4218  0.1389  0.2606
  668MOL0     C88057   5.012   1.611   7.809  0.8543 -0.5316  0.6234
  668MOL0     C88058   4.922   1.498   7.746 -0.0776 -0.9868 -0.5992
  668MOL0     C88059   4.782   1.556   7.721 -0.2056  1.0648 -0.4280
  668MOL0     C88060   4.771   1.662   7.606  0.8336  0.7006  0.4205
  668MOL0     N88061   4.767   1.597   7.478 -0.2954 -0.3191  0.7443
  668MOL0     C88062   4.667   1.530   7.421 -0.1830  0.8395 -1.3873
  668MOL0     C88063   4.703   1.505   7.293 -0.1911  0.2630  0.3612
  668MOL0     C88064   4.613   1.411   7.202  0.3034  0.0884  0.3809
  668MOL0     C88065   4.626   1.423   7.053 -0.0422  0.5365  0.6950
  668MOL0     C88066   4.543   1.540   7.010 -1.0589  0.2410  0.5354
  668MOL0     C88067   4.401   1.492   6.980  0.0176 -0.5388 -0.0513
  668MOL0     O88068   4.333   1.608   6.925  0.0188 -0.3682 -0.2249
  668MOL0     C88069   4.205   1.596   6.875  0.6532 -0.0952 -0.2090
  668MOL0     C88070   4.127   1.712   6.868 -0.2115 -0.5376 -0.4241
  668MOL0     C88071   4.001   1.716   6.809 -0.1112  0.4184 -0.1002
  668MOL0     C88072   3.945   1.602   6.759 -0.4721 -0.2025 -0.0048
  668MOL0     C88073   3.803   1.591   6.711  0.6907  0.3446 -0.2237
  668MOL0     O88074   3.782   1.501   6.600 -0.5687 -0.3257  0.2535
  668MOL0     C88075   3.654   1.456   6.586 -0.2192  0.1886  0.1237
  668MOL0     C88076   3.548   1.546   6.559 -0.5605 -0.6995  0.2050
  668MOL0     C88077   3.412   1.496   6.546 -0.5039 -0.2381  0.3100
  668MOL0     C88078   3.386   1.357   6.554 -0.3060 -0.8324 -0.5497
  668MOL0     O88079   3.262   1.308   6.533  0.9225  0.3241  0.2019
  668MOL0     C88080   3.138   1.385   6.533  0.2334  0.0779 -0.0705
  668MOL0     C88081   3.034   1.329   6.627 -0.2672  0.7672 -0.2117
  668MOL0     C88082   2.982   1.201   6.574 -0.2049 -0.9652 -0.0938
  668MOL0     C88083   2.859   1.170   6.657 -0.4245 -0.0577  0.1713
  668MOL0     C88084   2.781   1.052   6.613  0.0266  0.1545 -0.5532
  668MOL0     C88085   2.676   1.006   6.714  0.1210  0.1692  0.0815
  668MOL0     C88086   2.566   0.909   6.654 -0.2581 -0.2738 -0.3158
  668MOL0     C88087   2.438   0.995   6.629  0.4936  0.7807  0.1609
  668MOL0    Cl88088   2.335   1.029   6.774 -0.3368  0.0753  0.2098
  668MOL0     C88089   3.494   1.268   6.579  0.1361 -0.0145 -0.1481
  668MOL0     C88090   3.623   1.321   6.600  0.3363 -0.0478 -0.0402
  668MOL0     O88091   3.715   1.649   6.769 -0.7173 -0.5531 -0.5894
  668MOL0     C88092   4.015   1.482   6.767 -0.4935 -0.3677  0.3311
  668MOL0     C88093   4.154   1.481   6.822  0.1407  0.0270  0.2523
  668MOL0     N88094   4.826   1.568   7.273 -0.0341  0.2476 -1.1091
  668MOL0     N88095   4.864   1.613   7.382  0.4161 -0.5075  0.5904
  668MOL0     C88096   5.592   1.859   8.199 -0.5083 -0.0488 -0.0946
  668MOL0     C88097   5.702   1.926   8.258  0.1036  0.0419  0.4148
  668MOL0     C88098   6.128   2.073   8.277 -0.0621  0.1548 -0.0904
  668MOL0     C88099   6.153   2.212   8.257  0.4965  0.0608 -0.7965
  668MOL0     C88100   6.270   2.266   8.310 -0.5357 -0.6822  0.5676
  668MOL0     C88101   6.377   2.188   8.365  0.6984 -0.9249 -0.6119
  668MOL0     O88102   6.466   2.250   8.441 -0.4487  0.0169 -0.3024
  668MOL0     C88103   6.603   2.249   8.389  0.4439  0.2342 -1.0111
  668MOL0     C88104   6.622   2.369   8.296 -1.0123  0.0534  0.8122
  668MOL0     C88105   6.770   2.398   8.280 -0.6077  0.3515  0.1546
  668MOL0     C88106   6.836   2.300   8.182  0.4497  0.5236 -0.3245
  668MOL0     C88107   6.973   2.335   8.142  0.3232  1.0384 -0.0765
  668MOL0     C88108   7.087   2.345   8.117 -0.0748 -0.0772 -1.1561
  668MOL0     C88109   6.361   2.054   8.365  0.9998  0.1185  0.4065
  668MOL0     C88110   6.231   2.000   8.335 -0.6293  0.2941  0.0913
  668MOL0     H88111   5.810   2.072   7.969  0.3362 -1.0040 -1.3388
  668MOL0     H88112   5.610   1.952   7.873 -2.6639 -3.6156 -1.0203
  668MOL0     H88113   5.371   1.693   8.155  3.0556 -1.1497  2.0231
  668MOL0     H88114   5.518   1.612   8.097  1.6071  2.0326  2.5154
  668MOL0     H88115   5.335   1.498   7.990 -1.5102  0.8502  1.7205
  668MOL0     H88116   5.385   1.606   7.856  2.4859 -0.7723  0.9143
  668MOL0     H88117   5.202   1.756   7.907  0.5134  0.3531  0.2912
  668MOL0     H88118   5.147   1.651   8.042  0.5836 -6.3649  0.7314
  668MOL0     H88119   5.184   1.506   7.777 -1.8344 -0.4609 -0.3798
  668MOL0     H88120   5.103   1.459   7.922 -3.6821  1.1060  0.4437
  668MOL0     H88121   5.024   1.693   7.738 -2.8990 -0.9932 -0.8061
  668MOL0     H88122   4.958   1.660   7.891  1.2986 -3.3062  2.7345
  668MOL0     H88123   4.920   1.407   7.806 -0.6216 -0.5653  0.0319
  668MOL0     H88124   4.971   1.475   7.651  2.2415 -0.8332  0.4967
  668MOL0     H88125   4.721   1.466   7.708  0.1886  0.5968  0.7820
  668MOL0     H88126   4.757   1.608   7.814 -0.5709  0.5682 -0.2458
  668MOL0     H88127   4.861   1.724   7.608  2.6394 -1.7531  2.1204
  668MOL0     H88128   4.678   1.717   7.622 -1.3197 -2.3800 -0.4734
  668MOL0     H88129   4.567   1.506   7.458 -0.1714  1.1810 -1.1254
  668MOL0     H88130   4.510   1.416   7.237 -0.1307  1.4415 -0.9627
  668MOL0     H88131   4.648   1.312   7.233  1.0276  0.1900 -0.0689
  668MOL0     H88132   4.599   1.333   6.997 -1.2399 -0.6979  3.1302
  668MOL0     H88133   4.732   1.434   7.029  0.4233  2.6962  3.2830
  668MOL0     H88134   4.539   1.615   7.090 -2.6439  0.3493  0.3858
  668MOL0     H88135   4.580   1.583   6.917 -0.2897 -0.9720  0.2598
  668MOL0     H88136   4.351   1.468   7.074 -0.6764  0.8112 -0.0457
  668MOL0     H88137   4.411   1.404   6.915  1.1387  0.2368 -0.9626
  668MOL0     H88138   4.177   1.799   6.909  1.9303 -1.0713 -1.7234
  668MOL0     H88139   3.949   1.811   6.820 -1.5101 -0.4000  0.6735
  668MOL0     H88140   3.573   1.651   6.548 -0.4655 -0.8290 -1.0412
  668MOL0     H88141   3.339   1.573   6.523 -0.3936  0.1306  1.1557
  668MOL0     H88142   3.103   1.398   6.431  1.6087 -0.3159 -0.6248
  668MOL0     H88143   3.158   1.484   6.574 -0.0903  0.5087 -0.9355
  668MOL0     H88144   2.969   1.414   6.652 -2.3776 -0.7489 -0.3056
  668MOL0     H88145   3.090   1.312   6.720 -1.7364  2.4993  1.0662
  668MOL0     H88146   3.050   1.119   6.600  1.2347  1.0729  3.3536
  668MOL0     H88147   2.968   1.209   6.466 -1.2489  1.8127  0.1706
  668MOL0     H88148   2.888   1.137   6.758 -2.4185  1.8297  1.4662
  668MOL0     H88149   2.798   1.261   6.663 -0.9913 -0.4443  0.3604
  668MOL0     H88150   2.849   0.968   6.598 -0.3060 -1.1885  3.9277
  668MOL0     H88151   2.731   1.089   6.523 -1.8449 -1.4833 -0.2615
  668MOL0     H88152   2.633   1.095   6.761 -0.2475  0.2587 -0.4252
  668MOL0     H88153   2.725   0.945   6.791 -2.3916 -1.2345  0.6763
  668MOL0     H88154   2.605   0.858   6.566  1.9786 -1.1627  1.1082
  668MOL0     H88155   2.544   0.832   6.728 -1.4526 -1.3112 -1.7053
  668MOL0     H88156   2.370   0.951   6.555 -0.6097  0.6561  1.2128
  668MOL0     H88157   2.467   1.089   6.581 -0.7548  1.5294  0.8296
  668MOL0     H88158   3.483   1.160   6.585  0.7771 -0.2545 -2.3954
  668MOL0     H88159   3.700   1.248   6.620 -1.8241 -3.0308 -1.8390
  668MOL0     H88160   3.979   1.384   6.739 -1.3375  0.3555 -1.2866
  668MOL0     H88161   4.198   1.383   6.838 -2.9117 -1.6596 -0.8745
  668MOL0     H88162   5.522   1.809   8.267 -1.0037  2.4366  1.3538
  668MOL0     H88163   5.709   1.940   8.366 -0.5447  3.6521  0.1138
  668MOL0     H88164   6.085   2.274   8.199 -1.6552 -0.8194  0.6399
  668MOL0     H88165   6.262   2.374   8.313 -1.8202 -0.6406 -2.0705
  668MOL0     H88166   6.624   2.159   8.331  2.2747 -1.7805  2.4801
  668MOL0     H88167   6.673   2.249   8.474 -0.0554 -1.2966 -0.5696
  668MOL0     H88168   6.586   2.349   8.195 -0.7392 -2.8058  1.1950
  668MOL0     H88169   6.570   2.454   8.340  0.6467  1.2904  0.4881
  668MOL0     H88170   6.816   2.397   8.380 -0.9244  2.4254  0.3649
  668MOL0     H88171   6.789   2.498   8.240 -0.3194  0.1052 -0.3279
  668MOL0     H88172   6.830   2.197   8.218  1.0851  0.3872 -0.6013
  668MOL0     H88173   6.776   2.307   8.090  1.6613 -0.6582 -1.2451
  668MOL0     H88174   7.191   2.349   8.090 -0.2345  0.0974 -1.7600
  668MOL0     H88175   6.441   1.983   8.386 -0.6360 -2.0183 -0.2961
  668MOL0     H88176   6.220   1.893   8.346  0.8787  0.2858  2.0464
  669MOL0     O88177   5.839   7.695   3.775  0.6344 -0.3686 -0.5763
  669MOL0     C88178   5.856   7.583   3.722  0.4936  0.0748  0.3410
  669MOL0     O88179   5.759   7.495   3.697 -0.2056 -0.5852  0.2711
  669MOL0     C88180   5.637   7.521   3.743 -0.9554 -0.0962 -0.0138
  669MOL0     C88181   5.609   7.523   3.874  0.4622 -0.2197 -0.2093
  669MOL0     C88182   5.478   7.543   3.916 -0.4906  0.0067  0.0993
  669MOL0     C88183   5.377   7.560   3.830  0.2053 -0.1358 -0.6403
  669MOL0     O88184   5.247   7.557   3.873  0.0239 -0.6570  0.3156
  669MOL0     C88185   5.155   7.623   3.791 -0.1156  0.7985 -0.0920
  669MOL0     C88186   5.026   7.615   3.879  0.5747  0.2656 -0.2885
  669MOL0     C88187   4.900   7.662   3.803 -0.0177  0.1094 -0.0142
  669MOL0     C88188   4.772   7.654   3.883 -0.2041 -0.2228  0.2314
  669MOL0     C88189   4.659   7.745   3.825  0.5798 -0.4285 -0.0791
  669MOL0     C88190   4.681   7.885   3.860 -0.1110 -0.1194 -0.1253
  669MOL0     C88191   4.549   7.967   3.828  1.3158  0.1892  0.1242
  669MOL0     C88192   4.554   8.098   3.901 -0.6891  0.3182  0.3069
  669MOL0     N88193   4.455   8.187   3.840  0.0237  0.4433 -0.2689
  669MOL0     C88194   4.321   8.156   3.845  0.0189 -0.0752 -0.0180
  669MOL0     C88195   4.264   8.245   3.759  0.8703  0.2398  0.0257
  669MOL0     C88196   4.123   8.254   3.726  0.2847  0.0004 -0.2373
  669MOL0     C88197   4.095   8.260   3.579 -0.8704 -0.2164  0.5291
  669MOL0     C88198   3.946   8.239   3.551 -0.3493  0.1561  0.1247
  669MOL0     C88199   3.851   8.352   3.600 -0.3189  1.5573 -0.2228
  669MOL0     O88200   3.724   8.316   3.554 -0.1657  0.3591  0.0332
  669MOL0     C88201   3.619   8.377   3.615 -0.2157  0.8203  0.3166
  669MOL0     C88202   3.529   8.279   3.659  1.1178 -1.4090  0.9898
  669MOL0     C88203   3.403   8.327   3.705  0.2205  0.4456 -0.5171
  669MOL0     C88204   3.368   8.469   3.697 -0.1427  0.5073  0.1439
  669MOL0     C88205   3.233   8.506   3.727 -0.0010 -0.5266  0.0529
  669MOL0     O88206   3.138   8.408   3.758  0.1454 -0.3357  0.0781
  669MOL0     C88207   3.011   8.451   3.768 -0.4481  0.2032  0.3462
  669MOL0     C88208   2.929   8.467   3.653 -0.6619 -0.1223  0.2016
  669MOL0     C88209   2.793   8.503   3.673 -0.4395  0.0734  0.4654
  669MOL0     C88210   2.746   8.533   3.799 -1.1355  0.4487 -0.6916
  669MOL0     O88211   2.615   8.577   3.811  0.0681 -0.5967 -0.0158
  669MOL0     C88212   2.593   8.702   3.875 -0.3297  0.5584  0.2127
  669MOL0     C88213   2.480   8.768   3.797 -0.1656  0.0045 -0.0145
  669MOL0     C88214   2.410   8.861   3.895  0.5637 -0.2596 -0.1205
  669MOL0     C88215   2.305   8.951   3.838  0.4358 -0.0939 -0.0380
  669MOL0     C88216   2.265   9.065   3.946 -0.0474  0.0781  1.5165
  669MOL0     C88217   2.217   9.013   4.077  0.4017 -0.2688  0.0439
  669MOL0     C88218   2.158   9.114   4.168  0.1812 -1.0904 -0.4383
  669MOL0     C88219   2.113   9.072   4.307 -1.4084  0.2543  1.2466
  669MOL0    Cl88220   2.062   9.220   4.396 -0.4078  0.0370 -0.2676
  669MOL0     C88221   2.832   8.532   3.904 -0.4907  0.0806 -0.2588
  669MOL0     C88222   2.967   8.483   3.891  0.0407  0.4024 -0.3010
  669MOL0     O88223   3.204   8.626   3.730 -0.4244  0.9551  0.6670
  669MOL0     C88224   3.469   8.561   3.662  0.5197 -0.2883  0.1456
  669MOL0     C88225   3.592   8.518   3.621 -0.5234  0.4799 -0.5210
  669MOL0     N88226   4.361   8.325   3.702 -0.0271 -0.2066  0.6608
  669MOL0     N88227   4.479   8.292   3.755  0.3985  0.4278 -0.2246
  669MOL0     C88228   5.404   7.552   3.695 -0.3579  0.3388  0.4335
  669MOL0     C88229   5.535   7.543   3.651 -0.4317  0.2723  0.0675
  669MOL0     C88230   5.983   7.542   3.665 -0.2937 -0.4807  0.3788
  669MOL0     C88231   6.101   7.589   3.717 -1.0707 -0.2950 -0.5222
  669MOL0     C88232   6.220   7.557   3.658  0.1001 -0.1261 -0.6642
  669MOL0     C88233   6.222   7.472   3.543 -0.0243 -0.1938  1.1286
  669MOL0     O88234   6.330   7.453   3.461  0.3830 -0.4300 -0.3359
  669MOL0     C88235   6.453   7.513   3.478 -0.0399 -0.2590 -0.9656
  669MOL0     C88236   6.545   7.454   3.368 -0.2826 -0.6895  0.7795
  669MOL0     C88237   6.687   7.512   3.389  0.4830 -0.2764 -0.0781
  669MOL0     C88238   6.804   7.440   3.324 -0.0278 -0.0731 -0.4639
  669MOL0     C88239   6.936   7.498   3.358 -0.2963  1.0246 -0.4198
  669MOL0     C88240   7.038   7.549   3.398  0.9582 -0.3870  0.2228
  669MOL0     C88241   6.105   7.414   3.505 -0.4580 -0.1859 -0.2011
  669MOL0     C88242   5.983   7.452   3.559 -0.1552 -0.8099  0.9215
  669MOL0     H88243   5.681   7.492   3.950  1.1068 -0.3444 -0.8659
  669MOL0     H88244   5.451   7.531   4.020 -3.2849  0.1604 -0.5241
  669MOL0     H88245   5.141   7.566   3.699  0.4244 -0.2215  0.4423
  669MOL0     H88246   5.182   7.725   3.759 -2.5450  1.0555 -1.5839
  669MOL0     H88247   5.043   7.670   3.972  2.2268  1.1336 -1.0617
  669MOL0     H88248   4.997   7.512   3.905 -0.6812  0.5256 -0.6225
  669MOL0     H88249   4.893   7.617   3.704  1.7808  2.4809 -1.3106
  669MOL0     H88250   4.924   7.768   3.787  1.4640  0.1494  2.0099
  669MOL0     H88251   4.733   7.552   3.890  0.4264 -0.4935 -0.1275
  669MOL0     H88252   4.814   7.686   3.978  0.6705 -1.0093  0.1180
  669MOL0     H88253   4.564   7.701   3.857  0.0546  0.3149 -0.6092
  669MOL0     H88254   4.648   7.731   3.717  0.2847 -1.6147  0.0836
  669MOL0     H88255   4.767   7.925   3.805 -1.7164  1.1108 -1.8822
  669MOL0     H88256   4.703   7.900   3.966  1.5144  2.9448 -0.7686
  669MOL0     H88257   4.541   7.982   3.720 -1.6665  0.9029  0.3800
  669MOL0     H88258   4.459   7.917   3.865 -0.1103  1.9780 -0.8141
  669MOL0     H88259   4.655   8.140   3.894 -0.2050 -0.4985  1.9683
  669MOL0     H88260   4.535   8.074   4.006 -2.2455 -0.9081 -0.2185
  669MOL0     H88261   4.275   8.071   3.894  0.5315  0.8656  2.2283
  669MOL0     H88262   4.073   8.339   3.772  0.1205  0.1483 -0.6864
  669MOL0     H88263   4.069   8.171   3.772 -5.5438  2.6391 -1.4251
  669MOL0     H88264   4.160   8.196   3.518 -0.5807  2.2253 -1.9309
  669MOL0     H88265   4.125   8.359   3.545  1.5354 -1.3910 -1.0332
  669MOL0     H88266   3.929   8.210   3.447  0.3371 -0.9947  0.3284
  669MOL0     H88267   3.921   8.147   3.605  2.3359 -1.7765 -1.7085
  669MOL0     H88268   3.882   8.446   3.554 -1.0529  2.1557  0.4839
  669MOL0     H88269   3.842   8.362   3.709 -2.5934 -1.8421  0.0803
  669MOL0     H88270   3.557   8.176   3.639 -2.7722 -1.7655 -5.7371
  669MOL0     H88271   3.324   8.261   3.739  0.3732 -0.3740 -1.6980
  669MOL0     H88272   2.986   8.432   3.567  1.6533  0.4464  1.4054
  669MOL0     H88273   2.732   8.497   3.584  0.1271  0.0389  0.0781
  669MOL0     H88274   2.680   8.767   3.861  0.6160 -0.7924 -0.4347
  669MOL0     H88275   2.552   8.676   3.973 -1.1308  0.8571 -0.0338
  669MOL0     H88276   2.418   8.684   3.763 -0.9755  0.1128  1.1222
  669MOL0     H88277   2.520   8.825   3.713 -0.7564  0.7536  0.2074
  669MOL0     H88278   2.485   8.918   3.951  1.0807  0.4162 -1.4812
  669MOL0     H88279   2.359   8.801   3.972 -2.4504  2.7887  0.4833
  669MOL0     H88280   2.344   9.005   3.751 -1.9398 -0.5199 -1.4530
  669MOL0     H88281   2.219   8.891   3.807 -1.0245  2.2094 -0.7190
  669MOL0     H88282   2.192   9.138   3.909  1.2809  0.4270 -0.6005
  669MOL0     H88283   2.352   9.130   3.956 -0.8734  1.1871  1.6837
  669MOL0     H88284   2.307   8.987   4.135  1.2311  1.9795 -0.1351
  669MOL0     H88285   2.141   8.935   4.073 -0.1293  0.2348  0.2909
  669MOL0     H88286   2.234   9.191   4.177 -1.7111  0.7736  0.6633
  669MOL0     H88287   2.073   9.157   4.113  2.2154  0.7823 -2.2883
  669MOL0     H88288   2.192   9.018   4.358 -1.2092  0.9144  1.6483
  669MOL0     H88289   2.030   9.001   4.304 -0.7397 -0.5296  0.9844
  669MOL0     H88290   2.788   8.554   4.001 -2.0389  1.5578 -1.2499
  669MOL0     H88291   3.033   8.451   3.970  1.1106 -0.2466 -1.4240
  669MOL0     H88292   3.450   8.667   3.676 -2.2080 -0.7790  0.7878
  669MOL0     H88293   3.665   8.594   3.598 -2.8669  3.6105  1.5797
  669MOL0     H88294   5.328   7.543   3.617  0.8815 -2.3841 -0.5901
  669MOL0     H88295   5.555   7.548   3.545 -0.2248 -0.1775  0.0840
  669MOL0     H88296   6.101   7.653   3.805  1.2509  0.3216 -0.9010
  669MOL0     H88297   6.306   7.608   3.700 -1.6905  0.5172  2.5620
  669MOL0     H88298   6.497   7.497   3.577  0.5693  0.4538 -1.1060
  669MOL0     H88299   6.447   7.621   3.461 -0.4954 -0.6279 -3.6363
  669MOL0     H88300   6.549   7.344   3.362  2.9725 -0.6437  0.2043
  669MOL0     H88301   6.527   7.484   3.265  1.0696  1.2948  1.0557
  669MOL0     H88302   6.700   7.518   3.497 -1.3536 -1.8331  0.2864
  669MOL0     H88303   6.693   7.612   3.344 -0.8642 -0.1769 -0.0704
  669MOL0     H88304   6.784   7.340   3.364 -0.8260 -0.2121 -1.1913
  669MOL0     H88305   6.789   7.445   3.216 -0.9654  1.2297 -0.2891
  669MOL0     H88306   7.121   7.608   3.432  1.0586  1.2074 -2.5448
  669MOL0     H88307   6.106   7.345   3.420 -1.8040 -1.5055  0.7950
  669MOL0     H88308   5.901   7.391   3.521  0.5434 -0.7978 -0.6855
  670MOL0     O88309   4.318   9.712   4.925 -0.3940 -1.2015 -0.2060
  670MOL0     C88310   4.199   9.714   4.905 -0.1746  0.5082  0.3557
  670MOL0     O88311   4.140   9.724   4.787  0.0962  0.7085 -0.5602
  670MOL0     C88312   4.206   9.732   4.672 -0.9452 -0.1929  0.2819
  670MOL0     C88313   4.132   9.683   4.564  0.0134 -0.9071  0.2297
  670MOL0     C88314   4.184   9.696   4.441 -0.2951 -0.0948  0.6516
  670MOL0     C88315   4.309   9.759   4.413 -0.3248 -0.7054 -0.2267
  670MOL0     O88316   4.368   9.765   4.291  0.4457  0.0091  0.4494
  670MOL0     C88317   4.468   9.669   4.273  0.4781  0.5127 -0.3457
  670MOL0     C88318   4.511   9.686   4.121 -0.5459  0.5610  0.2052
  670MOL0     C88319   4.670   9.660   4.107  0.2782 -0.7017  0.1005
  670MOL0     C88320   4.749   9.786   4.139  0.0546  0.1208 -0.0303
  670MOL0     C88321   4.895   9.781   4.078 -0.0026 -0.1429  0.1512
  670MOL0     C88322   4.984   9.686   4.159 -0.4675 -0.3731  0.3755
  670MOL0     C88323   5.129   9.674   4.104  0.3368 -0.7312  0.8473
  670MOL0     C88324   5.198   9.574   4.197  0.1343  0.2552  0.1873
  670MOL0     N88325   5.320   9.531   4.135 -0.2568 -0.0461  0.4505
  670MOL0     C88326   5.335   9.414   4.069  0.4738  0.2163  0.0440
  670MOL0     C88327   5.466   9.404   4.040 -0.0261 -0.6238 -0.7762
  670MOL0     C88328   5.546   9.286   3.994 -0.7594  0.1863 -0.3314
  670MOL0     C88329   5.656   9.255   4.099 -0.1992 -0.1536  0.3122
  670MOL0     C88330   5.712   9.114   4.071 -0.0129  0.1258 -0.6343
  670MOL0     C88331   5.737   9.080   3.922 -0.5270  0.6781 -0.5426
  670MOL0     O88332   5.835   9.169   3.857  0.5279  0.1251  0.1019
  670MOL0     C88333   5.968   9.150   3.885 -0.2520 -0.0784  0.2200
  670MOL0     C88334   6.049   9.236   3.953  1.5465  0.1983 -0.4458
  670MOL0     C88335   6.185   9.207   3.977  0.1975  0.1837  0.1706
  670MOL0     C88336   6.235   9.083   3.925  0.3965 -0.1813  0.8656
  670MOL0     C88337   6.377   9.054   3.943 -0.6402  0.0324 -0.3300
  670MOL0     O88338   6.449   9.116   4.045 -0.2033 -0.1023 -0.6358
  670MOL0     C88339   6.582   9.091   4.058  0.3599 -0.0711 -0.2351
  670MOL0     C88340   6.664   9.204   4.057  0.4100  0.5429  0.5328
  670MOL0     C88341   6.805   9.190   4.052 -0.6017  0.1443 -0.2849
  670MOL0     C88342   6.870   9.073   4.070  0.4389 -0.8010  0.3844
  670MOL0     O88343   7.008   9.064   4.098  0.2099  0.1302  0.0646
  670MOL0     C88344   7.076   9.181   4.137  0.7734  0.6414 -0.2517
  670MOL0     C88345   7.220   9.143   4.180  0.6134 -0.2504 -0.3839
  670MOL0     C88346   7.304   9.121   4.051 -0.0287  0.2134 -0.6376
  670MOL0     C88347   7.442   9.043   4.058  0.9498 -0.3273 -0.3183
  670MOL0     C88348   7.506   9.051   3.920 -1.0079  0.3530 -0.0768
  670MOL0     C88349   7.609   8.945   3.897 -0.0716 -0.2282  0.1986
  670MOL0     C88350   7.659   8.956   3.755  0.9516 -0.3078 -0.1625
  670MOL0     C88351   7.739   9.080   3.729 -0.1938 -0.2496 -0.2438
  670MOL0    Cl88352   7.847   9.134   3.857 -0.5642  0.0804  0.3470
  670MOL0     C88353   6.786   8.956   4.080  0.9305  0.2143 -0.6435
  670MOL0     C88354   6.641   8.967   4.068 -0.4467  0.4252  1.0890
  670MOL0     O88355   6.424   8.979   3.853 -0.4812 -0.4651 -0.3352
  670MOL0     C88356   6.154   9.001   3.848 -0.2466 -0.4252 -0.0356
  670MOL0     C88357   6.024   9.034   3.828 -0.5081 -0.2231 -0.5517
  670MOL0     N88358   5.531   9.523   4.082 -0.1973 -0.3136  0.8739
  670MOL0     N88359   5.442   9.597   4.141 -0.2377 -0.6084  0.3551
  670MOL0     C88360   4.375   9.805   4.521 -0.3134  0.3300 -1.0377
  670MOL0     C88361   4.330   9.795   4.657  0.4237  1.0415  0.0578
  670MOL0     C88362   4.104   9.711   5.012 -0.2100  0.6544  0.2409
  670MOL0     C88363   4.148   9.741   5.143  0.2220 -0.2997 -0.4654
  670MOL0     C88364   4.057   9.731   5.250  0.2253  0.2604  0.1444
  670MOL0     C88365   3.934   9.678   5.233  1.1097  0.0125  0.5727
  670MOL0     O88366   3.856   9.638   5.334  0.2647 -0.2523 -0.0124
  670MOL0     C88367   3.715   9.619   5.332 -0.6420  0.2480  0.1833
  670MOL0     C88368   3.633   9.745   5.287  0.5881 -0.2960 -0.2043
  670MOL0     C88369   3.678   9.890   5.337  0.0104 -0.8460  0.2307
  670MOL0     C88370   3.557   9.989   5.344 -0.9057  0.6996  0.1136
  670MOL0     C88371   3.491   9.958   5.469 -0.4063 -0.3166 -0.5943
  670MOL0     C88372   3.421   9.933   5.568 -0.0576  0.5927  0.3126
  670MOL0     C88373   3.887   9.662   5.101  0.0681 -0.1846  0.0851
  670MOL0     C88374   3.967   9.688   4.987  0.9133 -0.8058 -0.8924
  670MOL0     H88375   4.040   9.627   4.575 -1.9341  2.0497  0.0560
  670MOL0     H88376   4.129   9.672   4.350 -1.3973 -0.4442  1.3803
  670MOL0     H88377   4.434   9.566   4.283  0.7216  0.4182 -0.4683
  670MOL0     H88378   4.553   9.699   4.336  3.5573 -2.7027 -2.5663
  670MOL0     H88379   4.485   9.783   4.076 -2.7126 -1.9901 -4.8973
  670MOL0     H88380   4.454   9.609   4.068  1.1423 -1.4690  1.1820
  670MOL0     H88381   4.704   9.635   4.006 -0.9536  1.9998 -1.1130
  670MOL0     H88382   4.701   9.580   4.173  2.9427 -0.9719 -1.3704
  670MOL0     H88383   4.703   9.869   4.085  1.7612  0.7549 -0.5795
  670MOL0     H88384   4.760   9.810   4.245  1.6008 -0.0070 -0.1481
  670MOL0     H88385   4.933   9.883   4.091  1.5376 -0.4665 -1.4594
  670MOL0     H88386   4.907   9.763   3.971  1.8839  1.5029  0.0244
  670MOL0     H88387   4.940   9.586   4.158  0.6765 -0.8905  0.0371
  670MOL0     H88388   4.985   9.716   4.264 -1.5975  0.8620  0.0612
  670MOL0     H88389   5.130   9.649   3.997  0.9494  1.8084  0.1951
  670MOL0     H88390   5.182   9.769   4.116  0.0310 -0.4001 -0.2838
  670MOL0     H88391   5.134   9.496   4.239  0.8775 -0.2740  0.3631
  670MOL0     H88392   5.226   9.628   4.288 -1.8793 -1.1316  1.7105
  670MOL0     H88393   5.259   9.338   4.054  1.1520 -0.2176 -1.3501
  670MOL0     H88394   5.594   9.307   3.898  1.2043 -2.1579  0.0131
  670MOL0     H88395   5.477   9.202   3.980 -0.8263  0.1369  0.2510
  670MOL0     H88396   5.620   9.259   4.202  3.0315  0.4204  1.5231
  670MOL0     H88397   5.743   9.321   4.096  1.4032 -2.1813 -0.0607
  670MOL0     H88398   5.804   9.098   4.129 -0.6667  1.4282  0.8621
  670MOL0     H88399   5.638   9.044   4.114 -0.1148 -0.4049 -1.6545
  670MOL0     H88400   5.647   9.064   3.862  1.0047  0.0557 -2.7761
  670MOL0     H88401   5.778   8.979   3.934  0.9706  1.5273  2.9160
  670MOL0     H88402   5.994   9.323   3.987 -2.5040 -1.5694 -1.8432
  670MOL0     H88403   6.244   9.269   4.044 -0.8430 -2.1763  3.5954
  670MOL0     H88404   6.612   9.299   4.051  1.9489  1.4718  1.1919
  670MOL0     H88405   6.854   9.287   4.053 -1.5849  0.6673  1.3131
  670MOL0     H88406   7.022   9.236   4.214  1.9867  0.2884  0.8968
  670MOL0     H88407   7.080   9.244   4.048  0.0355  1.6776  0.4352
  670MOL0     H88408   7.210   9.052   4.240 -1.1364 -0.0753 -0.3471
  670MOL0     H88409   7.269   9.218   4.242 -0.3473 -1.0190  1.3754
  670MOL0     H88410   7.316   9.212   3.991  1.0355  0.5015 -0.0063
  670MOL0     H88411   7.245   9.053   3.988  0.5785  1.5656 -2.7912
  670MOL0     H88412   7.505   9.097   4.129 -0.7853  0.2163  0.8773
  670MOL0     H88413   7.425   8.939   4.089 -1.2727 -0.3116 -1.2376
  670MOL0     H88414   7.558   9.147   3.919  0.7340 -0.4893  1.4884
  670MOL0     H88415   7.435   9.036   3.838  1.4153 -0.1249 -2.2224
  670MOL0     H88416   7.554   8.850   3.902 -2.2067  0.9785  0.8926
  670MOL0     H88417   7.686   8.939   3.973  1.1588  0.0719 -0.9874
  670MOL0     H88418   7.727   8.874   3.733  1.2106  0.2545 -1.5664
  670MOL0     H88419   7.576   8.952   3.684  1.4003  1.4370 -0.8443
  670MOL0     H88420   7.666   9.160   3.714  0.9319  0.8756  0.0851
  670MOL0     H88421   7.793   9.064   3.635  1.0545 -2.0267  0.7230
  670MOL0     H88422   6.829   8.862   4.114 -1.0128  0.0538  1.6393
  670MOL0     H88423   6.585   8.874   4.060  0.0785 -0.0964  2.9458
  670MOL0     H88424   6.198   8.914   3.802 -1.1647 -0.6080 -0.5932
  670MOL0     H88425   5.960   8.963   3.777 -2.0343 -0.6016  1.7243
  670MOL0     H88426   4.470   9.853   4.500 -0.4981  1.0916 -0.1355
  670MOL0     H88427   4.386   9.848   4.733  2.0785 -1.1129  0.4235
  670MOL0     H88428   4.251   9.763   5.168 -0.0864  1.1437 -0.3909
  670MOL0     H88429   4.085   9.760   5.351  0.6541 -2.7921  1.0094
  670MOL0     H88430   3.688   9.602   5.437  1.3290 -2.3381  0.3774
  670MOL0     H88431   3.689   9.523   5.286 -0.2770  0.2235  0.0258
  670MOL0     H88432   3.629   9.758   5.178  2.5464  1.0854 -0.1737
  670MOL0     H88433   3.526   9.732   5.307  0.3298  0.3955 -1.0442
  670MOL0     H88434   3.742   9.931   5.259 -1.5819 -0.8694 -1.1470
  670MOL0     H88435   3.742   9.877   5.425  1.2126  2.3370 -0.0352
  670MOL0     H88436   3.577  10.096   5.332  2.9354  0.0763 -0.3404
  670MOL0     H88437   3.484   9.959   5.268  0.5126  2.2780 -1.9825
  670MOL0     H88438   3.347   9.901   5.640  0.9407 -2.1561  0.2096
  670MOL0     H88439   3.788   9.630   5.070 -0.0670  0.2735  0.0427
  670MOL0     H88440   3.922   9.694   4.888  0.3981  1.6968 -0.5738
  671MOL0     O88441   2.825   1.623   6.439 -0.2340 -0.9689 -0.2759
  671MOL0     C88442   2.723   1.683   6.406  1.0646  0.2779 -0.6045
  671MOL0     O88443   2.711   1.786   6.316 -0.4379  0.1997 -0.1650
  671MOL0     C88444   2.823   1.828   6.257 -0.0188 -0.3478 -0.0612
  671MOL0     C88445   2.924   1.885   6.334 -0.0851  0.5515 -1.3809
  671MOL0     C88446   3.041   1.942   6.275 -0.1369 -0.0979  0.3347
  671MOL0     C88447   3.058   1.933   6.138 -0.5976  0.1535 -0.1119
  671MOL0     O88448   3.175   1.979   6.078  0.7510 -0.0125  0.1970
  671MOL0     C88449   3.187   1.985   5.936  0.1559 -0.1796 -1.1301
  671MOL0     C88450   3.322   2.060   5.899 -0.1694  0.8438 -0.4726
  671MOL0     C88451   3.449   1.981   5.933  0.6769 -0.4696  0.0391
  671MOL0     C88452   3.573   2.035   5.855  1.0125 -1.4609  0.5697
  671MOL0     C88453   3.686   1.948   5.886 -0.2833 -0.0256  0.5415
  671MOL0     C88454   3.826   1.999   5.831  0.6561  0.3754  1.0560
  671MOL0     C88455   3.938   1.911   5.870 -1.0297  0.5796 -0.6482
  671MOL0     C88456   4.089   1.966   5.868 -0.4426  0.3173 -0.1169
  671MOL0     N88457   4.094   2.062   5.971  0.3808  0.0041  0.3528
  671MOL0     C88458   4.140   2.039   6.097  0.2912  0.6916  0.0863
  671MOL0     C88459   4.142   2.157   6.155  0.8354  0.4841 -0.3356
  671MOL0     C88460   4.192   2.174   6.296  0.4962  0.4309  0.0544
  671MOL0     C88461   4.066   2.221   6.375 -0.1721 -0.9689  0.1140
  671MOL0     C88462   3.953   2.111   6.401  0.0644  0.1034 -1.3346
  671MOL0     C88463   3.869   2.136   6.522  0.5822  0.3926 -0.9367
  671MOL0     O88464   3.928   2.090   6.645 -0.0741 -0.1433  0.2444
  671MOL0     C88465   3.837   2.082   6.748  0.5594 -0.3092  0.2821
  671MOL0     C88466   3.749   1.978   6.754  0.0106  0.5501 -0.9085
  671MOL0     C88467   3.644   1.972   6.850 -0.0602  0.3050  0.5919
  671MOL0     C88468   3.638   2.072   6.946  0.1578  0.2584 -0.5324
  671MOL0     C88469   3.526   2.079   7.034  0.0030  0.7604  0.4124
  671MOL0     O88470   3.419   1.992   7.002 -0.2248  0.0799  0.3652
  671MOL0     C88471   3.320   1.971   7.098  0.1936  0.0772  0.4930
  671MOL0     C88472   3.331   1.976   7.238  0.2786 -0.0718 -0.5842
  671MOL0     C88473   3.216   1.960   7.325 -0.0949 -0.5917 -0.1566
  671MOL0     C88474   3.091   1.928   7.266  0.1025 -0.1196  0.7956
  671MOL0     O88475   2.971   1.942   7.324 -0.0240 -0.5804 -0.0258
  671MOL0     C88476   2.917   1.821   7.368 -0.2780  0.9515  0.2293
  671MOL0     C88477   2.766   1.824   7.379 -0.9175 -0.0405  0.4130
  671MOL0     C88478   2.704   1.681   7.400  0.7212 -0.0485 -0.4230
  671MOL0     C88479   2.549   1.684   7.401  0.5699  0.2063 -1.1089
  671MOL0     C88480   2.499   1.556   7.482  0.6867  0.3021  0.4426
  671MOL0     C88481   2.348   1.561   7.497 -0.1115 -0.6727  0.1880
  671MOL0     C88482   2.301   1.427   7.527 -0.1518  0.3512 -0.4065
  671MOL0     C88483   2.180   1.425   7.630 -0.6502 -0.1873  0.9401
  671MOL0    Cl88484   2.102   1.266   7.668  0.2139  0.0586 -0.3304
  671MOL0     C88485   3.081   1.919   7.130 -0.0346 -0.1911 -0.0364
  671MOL0     C88486   3.193   1.938   7.048 -0.5620  0.8777  0.4629
  671MOL0     O88487   3.534   2.156   7.133  0.0138  0.4083 -0.0754
  671MOL0     C88488   3.722   2.180   6.938  0.6399 -0.1000  0.5709
  671MOL0     C88489   3.820   2.183   6.844  0.2114  0.2073 -0.6247
  671MOL0     N88490   4.104   2.253   6.065 -0.2882 -0.2254  0.7246
  671MOL0     N88491   4.067   2.194   5.959 -0.3804 -0.2387 -0.7452
  671MOL0     C88492   2.959   1.864   6.065  0.2174 -0.2756 -0.1416
  671MOL0     C88493   2.835   1.821   6.123  0.0476 -0.1084  0.3078
  671MOL0     C88494   2.601   1.633   6.471  0.4213 -0.4353  0.1321
  671MOL0     C88495   2.473   1.701   6.450  0.0029 -0.1276 -0.7508
  671MOL0     C88496   2.356   1.647   6.503 -0.3871  0.9248 -0.2909
  671MOL0     C88497   2.366   1.536   6.592  0.1591  0.9281 -0.1099
  671MOL0     O88498   2.255   1.490   6.655 -0.2851  0.3463 -0.0877
  671MOL0     C88499   2.267   1.394   6.766  0.6775  0.1980 -0.0992
  671MOL0     C88500   2.126   1.380   6.825  0.9336  0.1024 -0.0100
  671MOL0     C88501   2.008   1.375   6.735  0.3576  0.6660 -1.1813
  671MOL0     C88502   2.023   1.278   6.618  0.1869  0.5768  0.6740
  671MOL0     C88503   1.985   1.144   6.653  0.2461  0.1253  0.0784
  671MOL0     C88504   1.948   1.028   6.684 -0.1395 -0.2032  0.4396
  671MOL0     C88505   2.495   1.468   6.606  0.7343  0.1754  0.3352
  671MOL0     C88506   2.610   1.513   6.539  0.3497 -0.8881  0.5445
  671MOL0     H88507   2.894   1.907   6.436  1.3530  1.2169 -1.0795
  671MOL0     H88508   3.117   1.983   6.340 -2.1095  0.4398  2.4573
  671MOL0     H88509   3.104   2.042   5.892 -1.0256  0.9230  2.2048
  671MOL0     H88510   3.195   1.882   5.901  0.0535 -0.2803 -0.8603
  671MOL0     H88511   3.322   2.160   5.943 -0.8673 -0.6889  3.4279
  671MOL0     H88512   3.322   2.068   5.790 -3.5727 -0.8318 -0.7326
  671MOL0     H88513   3.436   1.879   5.898 -0.2826 -0.3347 -0.0099
  671MOL0     H88514   3.459   1.972   6.041  0.9138 -2.9241 -0.1512
  671MOL0     H88515   3.544   2.040   5.750 -0.8814 -0.3087  1.0914
  671MOL0     H88516   3.592   2.142   5.872 -2.4388 -0.4332 -1.1266
  671MOL0     H88517   3.664   1.847   5.851 -0.4794  0.4448 -0.7523
  671MOL0     H88518   3.703   1.932   5.993  1.5244 -0.6850  0.1969
  671MOL0     H88519   3.851   2.094   5.878  0.1591  0.9267  0.2217
  671MOL0     H88520   3.827   2.008   5.722 -1.9815 -3.1295  0.5569
  671MOL0     H88521   3.925   1.871   5.971  1.2919  1.6161  0.1212
  671MOL0     H88522   3.939   1.819   5.811  2.1108  1.3904 -2.0531
  671MOL0     H88523   4.110   2.012   5.771 -0.6780  1.1639  0.2283
  671MOL0     H88524   4.165   1.887   5.874 -1.0565 -0.5340 -2.4090
  671MOL0     H88525   4.176   1.948   6.144 -0.3973  0.2662 -0.1916
  671MOL0     H88526   4.257   2.260   6.313  0.9893 -0.1197  1.0919
  671MOL0     H88527   4.234   2.086   6.347 -0.8099  0.4877  1.2976
  671MOL0     H88528   4.022   2.304   6.319 -0.4928 -1.5632 -0.5260
  671MOL0     H88529   4.111   2.243   6.472  1.2970 -0.5336 -0.6260
  671MOL0     H88530   3.892   2.114   6.310 -0.3415  0.6579 -1.0562
  671MOL0     H88531   4.000   2.015   6.422 -0.8594  0.3526  2.6832
  671MOL0     H88532   3.776   2.079   6.509  0.4742  0.6164 -1.1640
  671MOL0     H88533   3.842   2.242   6.532 -1.7995 -0.3982  3.9038
  671MOL0     H88534   3.762   1.892   6.689  1.0458 -0.4430  0.5351
  671MOL0     H88535   3.594   1.876   6.847  0.7558 -0.1406 -2.8354
  671MOL0     H88536   3.424   1.996   7.291 -1.0211  2.4189  0.9346
  671MOL0     H88537   3.222   1.964   7.433 -4.0592  0.1476  0.1697
  671MOL0     H88538   2.961   1.789   7.463 -0.4144 -2.7611 -0.7729
  671MOL0     H88539   2.925   1.748   7.286 -0.4940  0.0307  1.0050
  671MOL0     H88540   2.722   1.852   7.283 -4.3585 -0.8507  1.6283
  671MOL0     H88541   2.736   1.879   7.469  1.4195 -1.6187  2.3201
  671MOL0     H88542   2.743   1.636   7.491 -0.4869 -0.4216 -0.0735
  671MOL0     H88543   2.738   1.619   7.317  2.0739  0.7309 -0.4850
  671MOL0     H88544   2.516   1.777   7.450  1.7532  0.9418 -1.6558
  671MOL0     H88545   2.516   1.680   7.297 -2.8787 -3.9874 -0.1330
  671MOL0     H88546   2.555   1.547   7.576  0.8704 -2.7371  0.1354
  671MOL0     H88547   2.528   1.472   7.419  0.9253 -0.1363  1.1208
  671MOL0     H88548   2.289   1.591   7.410 -2.3250  1.7345  2.3225
  671MOL0     H88549   2.332   1.623   7.586  2.0645 -0.9265  0.8015
  671MOL0     H88550   2.285   1.365   7.438  2.4292 -1.9805  0.5734
  671MOL0     H88551   2.379   1.372   7.580 -0.0627  1.7662  0.9956
  671MOL0     H88552   2.101   1.486   7.586  1.0503 -1.2537 -4.2578
  671MOL0     H88553   2.215   1.474   7.722  0.3247  0.5951  0.1700
  671MOL0     H88554   2.987   1.886   7.087 -0.4545 -0.5809  1.1516
  671MOL0     H88555   3.182   1.924   6.940 -2.7871  1.6598  0.5245
  671MOL0     H88556   3.723   2.256   7.015 -0.0128 -1.0356  1.5326
  671MOL0     H88557   3.889   2.267   6.842 -1.2998  1.6720  1.8839
  671MOL0     H88558   2.953   1.862   5.957  2.8687 -1.4922 -0.3442
  671MOL0     H88559   2.757   1.789   6.055  0.8694  1.8545 -1.6588
  671MOL0     H88560   2.460   1.786   6.383 -1.3175  1.9357  1.9331
  671MOL0     H88561   2.253   1.679   6.487 -2.1299 -2.7388  2.1448
  671MOL0     H88562   2.335   1.434   6.841 -2.2274  4.5363  0.5923
  671MOL0     H88563   2.308   1.300   6.727 -0.1980 -0.0113 -0.5537
  671MOL0     H88564   2.131   1.284   6.877  1.1689 -2.1720 -3.8578
  671MOL0     H88565   2.102   1.467   6.888  2.3070 -0.6380  1.6313
  671MOL0     H88566   1.982   1.477   6.705 -1.1096  1.7805  3.1509
  671MOL0     H88567   1.929   1.332   6.797  1.5646 -1.1402 -0.8041
  671MOL0     H88568   1.956   1.306   6.536 -0.9020  2.0488  2.0144
  671MOL0     H88569   2.124   1.274   6.574  0.3657  1.9397  0.9235
  671MOL0     H88570   1.924   0.928   6.715 -1.4180 -0.2344 -0.5687
  671MOL0     H88571   2.507   1.377   6.665 -2.3562 -0.5598  0.0316
  671MOL0     H88572   2.703   1.457   6.544  1.1837  0.5378  1.2650
  672MOL0     O88573   6.915   5.249  11.060 -0.3474  0.1397 -0.3371
  672MOL0     C88574   6.929   5.130  11.078 -1.1306  0.1385  0.5163
  672MOL0     O88575   6.825   5.040  11.071 -0.0157 -0.0052  0.2720
  672MOL0     C88576   6.696   5.085  11.085  0.8501  0.6221  0.4162
  672MOL0     C88577   6.602   5.012  11.010 -0.0090 -0.7840  0.5027
  672MOL0     C88578   6.469   5.043  11.023 -0.7913  0.0537  0.0559
  672MOL0     C88579   6.420   5.142  11.104  0.1615 -0.8533 -0.4130
  672MOL0     O88580   6.286   5.151  11.122  0.1929  0.0197  0.8651
  672MOL0     C88581   6.232   5.220  11.233 -0.3778  0.8950  0.1566
  672MOL0     C88582   6.076   5.224  11.222 -0.2054  0.1630  0.0032
  672MOL0     C88583   6.014   5.300  11.335 -0.2174  0.9244  0.4366
  672MOL0     C88584   5.866   5.298  11.329  0.1336  0.0546 -0.5222
  672MOL0     C88585   5.814   5.397  11.439  0.0708 -0.3626  0.4762
  672MOL0     C88586   5.667   5.419  11.427  0.2215  0.8596  0.4065
  672MOL0     C88587   5.612   5.487  11.555 -0.4599  0.2462 -0.3478
  672MOL0     C88588   5.463   5.446  11.581 -0.5252  0.8055  0.4631
  672MOL0     N88589   5.367   5.507  11.494 -0.2290  0.3456 -0.2729
  672MOL0     C88590   5.356   5.644  11.478  0.0763  0.2677 -0.3365
  672MOL0     C88591   5.261   5.651  11.380 -0.3779  0.0366 -0.1624
  672MOL0     C88592   5.212   5.788  11.342 -0.0010  0.0735  0.3646
  672MOL0     C88593   5.064   5.784  11.307  0.1715 -0.5791 -0.5312
  672MOL0     C88594   5.015   5.912  11.234  0.8628 -0.5251  0.2736
  672MOL0     C88595   5.039   6.056  11.308 -0.0740  0.3762 -0.5250
  672MOL0     O88596   4.979   6.155  11.220 -0.2966 -0.5799 -0.4420
  672MOL0     C88597   4.850   6.184  11.241  0.1185  0.1987  0.2402
  672MOL0     C88598   4.767   6.180  11.129  0.6625 -0.1695 -0.2526
  672MOL0     C88599   4.627   6.192  11.141  0.3451 -0.3859  0.9177
  672MOL0     C88600   4.560   6.205  11.261  0.5084  0.1194 -0.3726
  672MOL0     C88601   4.421   6.218  11.281  0.2671  0.5118  0.1137
  672MOL0     O88602   4.379   6.322  11.358  0.3195  0.5542  0.1370
  672MOL0     C88603   4.242   6.333  11.389 -0.8127 -0.0725 -0.3970
  672MOL0     C88604   4.212   6.362  11.525 -0.8604  0.3009  0.9639
  672MOL0     C88605   4.079   6.379  11.562  0.0289 -0.4656  0.7631
  672MOL0     C88606   3.972   6.368  11.470  0.1428  0.3825 -0.2912
  672MOL0     O88607   3.833   6.395  11.497 -0.1431  0.1817 -0.4363
  672MOL0     C88608   3.793   6.381  11.632  0.6289  0.3330  0.4024
  672MOL0     C88609   3.637   6.390  11.636  0.0602 -0.7156 -1.1106
  672MOL0     C88610   3.564   6.307  11.532 -0.6231  0.8339  0.4302
  672MOL0     C88611   3.586   6.153  11.537  0.2802 -0.2150 -0.3609
  672MOL0     C88612   3.484   6.054  11.459  0.0209 -0.6885 -0.3865
  672MOL0     C88613   3.519   6.041  11.312 -1.0740 -0.0449 -0.1760
  672MOL0     C88614   3.432   5.944  11.246  0.1112 -0.2055  0.8704
  672MOL0     C88615   3.298   6.013  11.212 -0.9899  0.2660 -0.5741
  672MOL0    Cl88616   3.248   5.935  11.057 -0.0269  0.1617  0.1979
  672MOL0     C88617   4.004   6.336  11.336  0.6720  0.0429 -0.2347
  672MOL0     C88618   4.135   6.316  11.297  0.3609 -0.4097 -0.1178
  672MOL0     O88619   4.349   6.151  11.206  0.1479  0.3429  0.6119
  672MOL0     C88620   4.646   6.227  11.374 -0.7877  0.2027 -0.9351
  672MOL0     C88621   4.788   6.218  11.369 -0.4638  0.4851  0.4907
  672MOL0     N88622   5.203   5.528  11.354 -0.2991  0.0943  0.5785
  672MOL0     N88623   5.274   5.441  11.414 -0.3007  0.0194 -1.1895
  672MOL0     C88624   6.514   5.208  11.187  0.0077 -0.2433 -0.1241
  672MOL0     C88625   6.647   5.177  11.181 -0.7835  0.5364 -0.5484
  672MOL0     C88626   7.070   5.072  11.072 -0.5945  0.8929  0.4623
  672MOL0     C88627   7.181   5.148  11.031  0.2913  0.5236 -0.3049
  672MOL0     C88628   7.303   5.080  11.025  0.6336 -0.2103  0.0735
  672MOL0     C88629   7.330   4.975  11.098  0.7268 -0.5616 -0.3073
  672MOL0     O88630   7.457   4.921  11.093  0.3700 -0.4437 -0.5546
  672MOL0     C88631   7.507   4.851  11.206 -0.0177 -0.1246 -0.0615
  672MOL0     C88632   7.542   4.947  11.327  0.5169 -0.4378  0.4046
  672MOL0     C88633   7.578   5.095  11.298 -0.2485 -0.4712 -0.1365
  672MOL0     C88634   7.577   5.190  11.415 -0.3970  0.5014 -0.3112
  672MOL0     C88635   7.444   5.224  11.465  0.2633 -0.3483  0.4124
  672MOL0     C88636   7.337   5.254  11.516 -1.0866 -0.6506 -0.3027
  672MOL0     C88637   7.223   4.904  11.151 -0.3172 -0.0466 -0.2217
  672MOL0     C88638   7.092   4.954  11.137  0.2487 -0.1327  0.9419
  672MOL0     H88639   6.636   4.932  10.945  1.2561 -0.4603  0.7484
  672MOL0     H88640   6.392   4.996  10.962 -1.5164  1.4740 -0.1809
  672MOL0     H88641   6.261   5.326  11.239 -0.6797  0.8979  2.1166
  672MOL0     H88642   6.270   5.168  11.322  2.1213  2.2081 -0.0366
  672MOL0     H88643   6.032   5.125  11.209 -1.3739  0.6259  0.3318
  672MOL0     H88644   6.057   5.284  11.132 -0.0724  1.4205  0.8004
  672MOL0     H88645   6.051   5.403  11.326 -1.3990  1.2529 -1.2753
  672MOL0     H88646   6.042   5.267  11.435 -2.3350 -0.5352  0.6053
  672MOL0     H88647   5.822   5.315  11.231 -0.7654 -1.4009 -0.4028
  672MOL0     H88648   5.824   5.201  11.355 -1.4166  0.2771 -2.0336
  672MOL0     H88649   5.866   5.491  11.420 -1.3225  0.0621 -1.5197
  672MOL0     H88650   5.836   5.351  11.536  0.0553 -0.3239  0.4978
  672MOL0     H88651   5.620   5.323  11.404 -0.2286  1.0741  0.4147
  672MOL0     H88652   5.646   5.493  11.349 -0.5402  1.0224  0.7608
  672MOL0     H88653   5.674   5.454  11.640  1.0250 -1.8838 -2.1416
  672MOL0     H88654   5.623   5.596  11.558 -0.1441  0.2267 -0.7041
  672MOL0     H88655   5.424   5.468  11.681  2.0301 -4.1406  2.9156
  672MOL0     H88656   5.463   5.337  11.578 -1.1547  0.8168  0.0335
  672MOL0     H88657   5.405   5.722  11.535 -1.9381  0.6509  0.9908
  672MOL0     H88658   5.273   5.827  11.260  0.0244  0.1588  0.4239
  672MOL0     H88659   5.222   5.857  11.426  1.3077  0.1019  0.2075
  672MOL0     H88660   5.007   5.751  11.394  0.5921 -2.6493 -0.9805
  672MOL0     H88661   5.054   5.701  11.235  0.7689 -0.0537 -1.2294
  672MOL0     H88662   5.066   5.916  11.137 -1.4132  2.2255 -0.9524
  672MOL0     H88663   4.908   5.905  11.212  0.6275  0.3239  1.0813
  672MOL0     H88664   5.148   6.065  11.317 -0.3092  2.8717  0.5678
  672MOL0     H88665   4.999   6.061  11.409  0.0798  1.9638 -0.5177
  672MOL0     H88666   4.809   6.157  11.032  2.1673 -2.4904  0.8303
  672MOL0     H88667   4.564   6.190  11.053  0.1753 -1.6996  1.0518
  672MOL0     H88668   4.294   6.381  11.593  1.6049 -1.2694 -1.3740
  672MOL0     H88669   4.058   6.411  11.664 -0.0392  0.2385  0.5268
  672MOL0     H88670   3.849   6.451  11.695  1.0125  0.9682 -0.6173
  672MOL0     H88671   3.821   6.278  11.657  1.2136  0.0644 -1.2032
  672MOL0     H88672   3.609   6.494  11.617  1.8844 -0.4166 -2.3980
  672MOL0     H88673   3.598   6.352  11.731 -0.8355  0.3950 -1.0121
  672MOL0     H88674   3.596   6.347  11.436  2.4949 -0.9641  0.5560
  672MOL0     H88675   3.456   6.314  11.547 -0.6752  2.4452 -0.5056
  672MOL0     H88676   3.687   6.116  11.514 -0.7463 -3.8325  0.3551
  672MOL0     H88677   3.564   6.137  11.643 -2.9975  0.4094 -0.8460
  672MOL0     H88678   3.381   6.090  11.471  0.8627  2.5581 -1.7397
  672MOL0     H88679   3.491   5.956  11.506  1.2345 -1.5923 -2.3592
  672MOL0     H88680   3.617   5.993  11.314 -0.2414  1.6021  0.9631
  672MOL0     H88681   3.531   6.139  11.266  0.0339  1.3557  2.8726
  672MOL0     H88682   3.478   5.920  11.150 -1.6758  1.4387 -0.4637
  672MOL0     H88683   3.426   5.846  11.295  2.8500 -1.2326 -0.6573
  672MOL0     H88684   3.283   6.121  11.213 -3.8886 -0.0399 -1.3427
  672MOL0     H88685   3.225   5.972  11.282  0.4872 -2.4791 -0.4921
  672MOL0     H88686   3.930   6.326  11.257  1.1302 -0.9047 -0.5602
  672MOL0     H88687   4.151   6.289  11.193 -1.7431  0.5489 -0.7487
  672MOL0     H88688   4.614   6.247  11.476 -0.7033  0.4905 -0.9647
  672MOL0     H88689   4.841   6.219  11.463 -0.5848  2.8725  0.6013
  672MOL0     H88690   6.477   5.287  11.252 -1.2776 -0.1290 -0.9453
  672MOL0     H88691   6.710   5.233  11.249  1.3756 -2.2570 -0.0549
  672MOL0     H88692   7.172   5.243  10.979  0.3963  0.5407 -0.2917
  672MOL0     H88693   7.379   5.120  10.959 -0.7977  0.5727 -1.1887
  672MOL0     H88694   7.600   4.803  11.173 -0.4622  0.5569 -2.4846
  672MOL0     H88695   7.435   4.777  11.240 -1.4883  1.4866  0.4911
  672MOL0     H88696   7.457   4.949  11.396  1.0312  0.7205  1.0231
  672MOL0     H88697   7.625   4.898  11.378 -0.7758  0.2620  3.3988
  672MOL0     H88698   7.525   5.141  11.214  1.6072  0.8729 -0.6385
  672MOL0     H88699   7.683   5.094  11.268 -0.5450  1.2091 -1.3742
  672MOL0     H88700   7.623   5.126  11.492  0.7715 -2.2426 -3.0575
  672MOL0     H88701   7.636   5.279  11.393 -2.0140  1.6033 -0.3607
  672MOL0     H88702   7.244   5.280  11.562 -1.2821 -2.2859  0.2741
  672MOL0     H88703   7.235   4.808  11.200 -0.8392 -0.0925 -0.1773
  672MOL0     H88704   7.011   4.891  11.172  0.6382 -0.3406  1.4835
  673MOL0     O88705   1.780   2.298   2.507  0.3122  0.0012  0.3032
  673MOL0     C88706   1.868   2.386   2.530 -0.1659  0.4346 -0.5091
  673MOL0     O88707   1.859   2.478   2.628  0.1671 -0.0736 -0.0486
  673MOL0     C88708   1.734   2.505   2.687 -0.8278  0.0225 -0.6950
  673MOL0     C88709   1.644   2.405   2.746  0.4335  0.0524  0.0128
  673MOL0     C88710   1.530   2.455   2.810  0.3631 -0.2159 -0.3483
  673MOL0     C88711   1.499   2.589   2.830 -0.0086 -0.6264  0.1913
  673MOL0     O88712   1.381   2.617   2.887 -0.0323  0.0314 -0.0305
  673MOL0     C88713   1.343   2.754   2.885  0.9949  0.4990  0.5908
  673MOL0     C88714   1.238   2.779   3.003 -0.2251  0.3018 -0.1694
  673MOL0     C88715   1.112   2.704   2.997  0.5454  0.2411  0.1814
  673MOL0     C88716   1.038   2.733   2.864 -0.0142 -0.2459 -0.2628
  673MOL0     C88717   0.894   2.675   2.851  0.6872 -0.6886 -0.3431
  673MOL0     C88718   0.877   2.535   2.907 -0.2198 -0.8182 -0.5442
  673MOL0     C88719   0.736   2.468   2.884  0.2550 -0.9432 -0.3907
  673MOL0     C88720   0.615   2.553   2.948 -0.0769 -0.5375 -0.7612
  673MOL0     N88721   0.485   2.496   2.904 -0.1248  1.0340  0.3684
  673MOL0     C88722   0.445   2.371   2.916 -0.2555  0.6214  0.0002
  673MOL0     C88723   0.331   2.354   2.849  0.3008  0.4442  0.0858
  673MOL0     C88724   0.255   2.228   2.826 -0.0651 -0.3865  0.4038
  673MOL0     C88725   0.298   2.103   2.909  0.2479 -0.2582  0.2052
  673MOL0     C88726   0.202   1.985   2.878  0.2193  0.4733  0.2427
  673MOL0     C88727   0.253   1.859   2.951  0.6698 -0.1915 -0.1506
  673MOL0     O88728   0.157   1.753   2.952  0.1291 -1.1038  0.0513
  673MOL0     C88729   0.135   1.692   2.834 -0.3114  0.1115  0.2165
  673MOL0     C88730   0.212   1.571   2.811  0.6279  0.2449  0.2236
  673MOL0     C88731   0.178   1.482   2.704  0.0893 -0.0073 -0.3126
  673MOL0     C88732   0.066   1.514   2.620  1.1527  0.1548  0.2089
  673MOL0     C88733   0.021   1.421   2.512 -0.5109 -1.0726  0.2593
  673MOL0     O88734   0.105   1.319   2.486  0.5580 -0.1237  0.3484
  673MOL0     C88735   0.067   1.224   2.396  0.2774 -0.0917 -0.2835
  673MOL0     C88736  -0.059   1.161   2.383 -0.5229  0.2366  0.0876
  673MOL0     C88737  -0.078   1.051   2.302  0.5147 -1.3710 -0.7387
  673MOL0     C88738   0.023   0.993   2.229  0.3795 -0.0180  0.4826
  673MOL0     O88739   0.005   0.901   2.124 -0.9808  0.3180  0.1639
  673MOL0     C88740  -0.122   0.829   2.120  0.5055  0.6334 -0.5166
  673MOL0     C88741  -0.119   0.729   2.006  0.6056  1.1016 -0.3350
  673MOL0     C88742  -0.001   0.632   2.023 -0.8988 -0.4398 -0.2540
  673MOL0     C88743   0.019   0.537   1.902  0.3436  0.5742  0.2848
  673MOL0     C88744   0.128   0.428   1.918  0.2622  0.6840 -0.3658
  673MOL0     C88745   0.274   0.460   1.968  1.2996  0.9000  0.3083
  673MOL0     C88746   0.342   0.330   2.011 -0.2341  0.5331  0.6548
  673MOL0     C88747   0.490   0.343   2.030  0.9430  0.7452  0.7523
  673MOL0    Cl88748   0.579   0.396   1.886 -0.5331  0.3691 -0.2263
  673MOL0     C88749   0.148   1.055   2.235  0.3312 -0.1345 -0.5306
  673MOL0     C88750   0.167   1.171   2.313 -0.4548 -0.1065 -0.3249
  673MOL0     O88751  -0.081   1.444   2.447  0.0282 -0.0446 -0.0157
  673MOL0     C88752  -0.009   1.638   2.638 -0.3277 -0.2500  0.4709
  673MOL0     C88753   0.035   1.727   2.741  0.7157  0.7977 -0.0283
  673MOL0     N88754   0.301   2.475   2.801  0.0109  0.0858 -0.3472
  673MOL0     N88755   0.398   2.557   2.830  0.2269 -0.9422  0.0266
  673MOL0     C88756   1.589   2.682   2.775 -0.1946  0.4620 -0.2646
  673MOL0     C88757   1.700   2.644   2.702 -0.1531 -0.0789  0.5754
  673MOL0     C88758   1.993   2.367   2.460  0.3100  0.4054 -0.8020
  673MOL0     C88759   2.098   2.451   2.492  0.0692  0.0958  0.2863
  673MOL0     C88760   2.230   2.423   2.442 -0.1109  0.2699 -0.3577
  673MOL0     C88761   2.256   2.317   2.349 -0.1478 -0.7869 -0.3678
  673MOL0     O88762   2.383   2.296   2.292 -0.6224  0.3821  0.4210
  673MOL0     C88763   2.499   2.340   2.360  0.2034 -0.5971  0.3744
  673MOL0     C88764   2.536   2.247   2.476  0.7073 -0.2490 -0.3477
  673MOL0     C88765   2.544   2.107   2.439  0.2800 -0.3469  0.7663
  673MOL0     C88766   2.642   2.063   2.330 -0.0856  0.5629 -0.1791
  673MOL0     C88767   2.779   2.097   2.367  0.6510 -0.2370  0.4851
  673MOL0     C88768   2.888   2.108   2.414 -0.2502 -0.5900  0.5176
  673MOL0     C88769   2.142   2.242   2.311 -0.0801  0.6559  0.0577
  673MOL0     C88770   2.019   2.259   2.372 -0.1728 -0.7017  0.3569
  673MOL0     H88771   1.647   2.298   2.725  1.6628 -0.1494  1.0639
  673MOL0     H88772   1.456   2.387   2.851  0.0795  0.2129 -0.1365
  673MOL0     H88773   1.284   2.769   2.794 -0.7987 -0.7100  1.4856
  673MOL0     H88774   1.423   2.828   2.882  1.1151  0.3375 -1.0057
  673MOL0     H88775   1.222   2.887   3.015 -0.7147  0.0199  2.2743
  673MOL0     H88776   1.292   2.749   3.094  3.9251  3.7198 -1.1798
  673MOL0     H88777   1.044   2.738   3.076 -2.4557 -1.2738 -1.5761
  673MOL0     H88778   1.135   2.598   3.006  2.4578  0.4632 -1.5616
  673MOL0     H88779   1.021   2.840   2.845  0.6020 -0.0278  0.3679
  673MOL0     H88780   1.092   2.690   2.779  1.1249 -1.8854  1.2171
  673MOL0     H88781   0.856   2.667   2.749  0.5857 -0.4155 -0.3263
  673MOL0     H88782   0.833   2.749   2.902 -0.0152 -1.8636  0.5701
  673MOL0     H88783   0.899   2.523   3.014 -0.3524 -1.5190 -0.5892
  673MOL0     H88784   0.946   2.473   2.849 -1.2791 -0.9083 -1.7570
  673MOL0     H88785   0.721   2.448   2.778 -1.8343  2.0841 -0.7820
  673MOL0     H88786   0.751   2.372   2.933 -2.6054 -2.5741 -2.4425
  673MOL0     H88787   0.626   2.655   2.911 -0.3081  0.1804  1.0449
  673MOL0     H88788   0.622   2.552   3.057  1.0548 -1.8023 -0.8146
  673MOL0     H88789   0.497   2.290   2.966 -1.3855 -2.1083 -2.8984
  673MOL0     H88790   0.273   2.205   2.721  3.5127 -4.2245  1.6085
  673MOL0     H88791   0.148   2.251   2.838  0.0229  3.3176 -3.4587
  673MOL0     H88792   0.298   2.132   3.014 -0.3748  0.9030 -0.0877
  673MOL0     H88793   0.401   2.088   2.877  0.6650  0.5058  1.1575
  673MOL0     H88794   0.108   2.023   2.918  1.6306  2.7341  1.5908
  673MOL0     H88795   0.186   1.976   2.770 -0.3692  3.3986  0.0014
  673MOL0     H88796   0.268   1.869   3.059  2.2424 -3.4914  0.0777
  673MOL0     H88797   0.348   1.827   2.906  1.2294  0.3110  0.6342
  673MOL0     H88798   0.284   1.530   2.881  1.0827  0.0643 -0.3485
  673MOL0     H88799   0.239   1.395   2.685  0.3112  0.6933 -3.3544
  673MOL0     H88800  -0.145   1.199   2.437 -1.5575  0.2255 -1.4902
  673MOL0     H88801  -0.170   0.993   2.309 -1.1364  0.8191 -2.9511
  673MOL0     H88802  -0.209   0.894   2.111 -0.7366 -0.6799  1.2557
  673MOL0     H88803  -0.136   0.771   2.213  0.1987  0.6324 -0.5633
  673MOL0     H88804  -0.122   0.784   1.911  0.2904  1.8826  0.1132
  673MOL0     H88805  -0.219   0.684   1.998  0.6943  0.6604  0.8171
  673MOL0     H88806  -0.007   0.583   2.121  2.5414  2.4392  1.6659
  673MOL0     H88807   0.095   0.684   2.026 -1.0003 -0.2766  0.8661
  673MOL0     H88808  -0.075   0.484   1.890  0.7782 -0.5829  1.7267
  673MOL0     H88809   0.035   0.592   1.808  1.2355  0.3433  0.2852
  673MOL0     H88810   0.120   0.376   1.823 -1.6700  1.4578 -0.6769
  673MOL0     H88811   0.092   0.354   1.990 -2.0699  1.5156 -0.5814
  673MOL0     H88812   0.262   0.524   2.056  1.2324  0.6131  0.5137
  673MOL0     H88813   0.328   0.507   1.886  0.8770 -0.2432 -0.6553
  673MOL0     H88814   0.293   0.307   2.106 -2.4353 -1.3420 -0.8266
  673MOL0     H88815   0.331   0.246   1.942  3.7351  0.1737  0.2258
  673MOL0     H88816   0.538   0.252   2.069 -0.1853 -0.8487 -1.3426
  673MOL0     H88817   0.514   0.420   2.103 -0.0673 -0.6227  2.6118
  673MOL0     H88818   0.227   1.011   2.175  2.0090  0.0125  1.4504
  673MOL0     H88819   0.259   1.228   2.317 -1.4198  1.6962 -2.0481
  673MOL0     H88820  -0.096   1.674   2.585 -1.0086 -0.8222  1.1773
  673MOL0     H88821  -0.018   1.820   2.759 -1.8735  0.3751 -4.0703
  673MOL0     H88822   1.565   2.788   2.764 -0.5498  0.3551 -0.5330
  673MOL0     H88823   1.761   2.716   2.649  0.6404 -0.3728  1.0708
  673MOL0     H88824   2.084   2.547   2.541 -1.1236  0.2970 -0.4035
  673MOL0     H88825   2.307   2.495   2.467 -0.6782  1.4210 -1.7664
  673MOL0     H88826   2.486   2.442   2.397 -2.3377 -0.0078 -1.8046
  673MOL0     H88827   2.580   2.358   2.289 -0.7336  1.5479 -0.2335
  673MOL0     H88828   2.626   2.281   2.528 -1.0597  3.2088  0.8257
  673MOL0     H88829   2.456   2.253   2.550  1.2319 -1.9331  0.3845
  673MOL0     H88830   2.446   2.067   2.408 -1.0526  3.0342  0.1432
  673MOL0     H88831   2.580   2.049   2.525  2.2799  0.2512  0.3811
  673MOL0     H88832   2.633   1.954   2.326  0.4340  0.4172  1.7224
  673MOL0     H88833   2.617   2.101   2.230 -1.1736  0.1870 -0.0638
  673MOL0     H88834   2.991   2.113   2.443  0.4019 -1.6635 -1.4554
  673MOL0     H88835   2.137   2.159   2.240  1.8531  0.5935 -0.0504
  673MOL0     H88836   1.944   2.184   2.348  1.3460 -1.6251 -1.8785
  674MOL0     O88837   4.423   6.988   0.585  0.1323  0.5763  0.1531
  674MOL0     C88838   4.449   6.893   0.511  0.1014  0.6235 -0.2178
  674MOL0     O88839   4.359   6.801   0.464 -0.0496  0.2893 -1.2127
  674MOL0     C88840   4.228   6.791   0.507  0.0628 -0.1014 -0.3930
  674MOL0     C88841   4.134   6.716   0.424 -0.4427  0.2757 -0.1870
  674MOL0     C88842   3.997   6.710   0.456  0.2424 -0.1345 -0.1801
  674MOL0     C88843   3.943   6.780   0.556 -0.4525 -0.0593 -0.2318
  674MOL0     O88844   3.806   6.766   0.577 -0.2891  0.1750  0.0721
  674MOL0     C88845   3.743   6.870   0.646  0.5053  0.5194 -0.2842
  674MOL0     C88846   3.591   6.846   0.675  0.0682 -0.3663  0.0037
  674MOL0     C88847   3.566   6.709   0.739 -0.2665 -0.0585  0.4453
  674MOL0     C88848   3.431   6.679   0.790  0.6488  0.3540 -0.0583
  674MOL0     C88849   3.391   6.770   0.907 -0.4901  0.5467  0.4106
  674MOL0     C88850   3.242   6.737   0.916 -0.5336  0.4872 -0.4950
  674MOL0     C88851   3.212   6.599   0.955 -0.0728 -0.5636  0.3147
  674MOL0     C88852   3.074   6.581   1.024 -0.0637 -0.5113  0.4863
  674MOL0     N88853   3.046   6.449   1.081  0.5940  0.9129 -0.6165
  674MOL0     C88854   2.924   6.381   1.085 -0.2902 -0.1508  0.6335
  674MOL0     C88855   2.960   6.243   1.086 -0.0728 -0.1328  0.4132
  674MOL0     C88856   2.866   6.129   1.099 -0.7777  0.1804 -0.0837
  674MOL0     C88857   2.869   6.033   0.986  0.4096 -0.3548 -0.2516
  674MOL0     C88858   2.810   5.897   1.017 -0.4824  0.2931 -0.3072
  674MOL0     C88859   2.666   5.906   1.058  0.3438 -0.4082  0.6849
  674MOL0     O88860   2.626   5.774   1.100  0.7849  0.1530  0.3343
  674MOL0     C88861   2.491   5.756   1.118 -0.5246 -0.5581 -0.1267
  674MOL0     C88862   2.389   5.855   1.107  0.2382  0.0665  0.4894
  674MOL0     C88863   2.250   5.833   1.103 -1.1892  0.0098 -0.4034
  674MOL0     C88864   2.216   5.695   1.126  0.0961 -0.2702 -0.0241
  674MOL0     C88865   2.071   5.662   1.128 -0.2430 -0.8779  0.2068
  674MOL0     O88866   2.039   5.536   1.177  0.0440  0.0954 -0.1649
  674MOL0     C88867   1.897   5.506   1.170  0.0461  1.2403 -0.1117
  674MOL0     C88868   1.855   5.431   1.062  0.0857 -0.1102 -0.1035
  674MOL0     C88869   1.732   5.374   1.057  0.2363  0.1606 -0.2489
  674MOL0     C88870   1.633   5.417   1.147 -0.7077  1.1828 -0.6997
  674MOL0     O88871   1.504   5.364   1.122  0.1918 -0.4934  0.2550
  674MOL0     C88872   1.389   5.406   1.190 -0.3247 -0.5506 -0.6889
  674MOL0     C88873   1.271   5.361   1.109 -0.1303 -1.7085 -0.5970
  674MOL0     C88874   1.140   5.368   1.189  0.5110 -0.1187 -0.4462
  674MOL0     C88875   1.089   5.520   1.207  0.3263 -0.8415 -0.1960
  674MOL0     C88876   0.948   5.513   1.276  0.3810  0.0127  0.4835
  674MOL0     C88877   0.885   5.646   1.290 -0.5418  0.6330 -0.3487
  674MOL0     C88878   0.736   5.642   1.298  0.0398  0.6311 -0.8941
  674MOL0     C88879   0.685   5.763   1.369 -0.5111  0.7726  0.5756
  674MOL0    Cl88880   0.505   5.783   1.334 -0.0535  0.0640 -0.1333
  674MOL0     C88881   1.672   5.494   1.255 -0.0044  0.0309 -0.6757
  674MOL0     C88882   1.801   5.543   1.265  0.4066  0.3381  0.2209
  674MOL0     O88883   1.991   5.749   1.088  0.6526  0.2425  0.7786
  674MOL0     C88884   2.312   5.592   1.145  0.1721 -0.1232 -0.1374
  674MOL0     C88885   2.443   5.626   1.142 -0.0685 -0.8650  0.1432
  674MOL0     N88886   3.102   6.239   1.086  1.1595  0.5682  1.2387
  674MOL0     N88887   3.147   6.357   1.092  0.3388 -0.3906  0.2303
  674MOL0     C88888   4.030   6.857   0.645  0.1165  0.4357 -0.4014
  674MOL0     C88889   4.170   6.860   0.626 -0.3844 -0.1137  0.3593
  674MOL0     C88890   4.595   6.869   0.473  0.8610  0.3476  0.3403
  674MOL0     C88891   4.621   6.766   0.395  0.8055 -0.3619  0.0706
  674MOL0     C88892   4.748   6.743   0.349  0.1880  0.8045 -0.4351
  674MOL0     C88893   4.853   6.824   0.389  0.5979  0.3606  0.6146
  674MOL0     O88894   4.980   6.811   0.340  0.4042  0.1283  0.2503
  674MOL0     C88895   5.015   6.721   0.235  0.0968 -0.5324 -0.5890
  674MOL0     C88896   5.166   6.703   0.239 -0.1957 -0.8222  0.3545
  674MOL0     C88897   5.222   6.665   0.097  0.3951  0.0873  0.1978
  674MOL0     C88898   5.372   6.662   0.115 -0.4529 -0.6949  0.3318
  674MOL0     C88899   5.455   6.712   0.006 -0.5801 -0.1453 -0.1752
  674MOL0     C88900   5.537   6.740  -0.083 -0.4747  0.5484 -0.3769
  674MOL0     C88901   4.829   6.926   0.477  0.1720 -0.2607 -0.8076
  674MOL0     C88902   4.700   6.951   0.515  0.5683 -0.6294 -0.1332
  674MOL0     H88903   4.176   6.675   0.333  0.1510  1.7421 -0.5843
  674MOL0     H88904   3.924   6.652   0.400  0.9065 -0.1598 -1.0507
  674MOL0     H88905   3.754   6.957   0.581  1.0273  0.6579 -0.0149
  674MOL0     H88906   3.794   6.874   0.743 -1.8773  0.5819  1.0455
  674MOL0     H88907   3.530   6.842   0.584 -2.0829 -2.8796  1.4265
  674MOL0     H88908   3.566   6.928   0.743  2.7691  0.8304 -0.3350
  674MOL0     H88909   3.639   6.695   0.819 -0.6063 -0.3956  0.6991
  674MOL0     H88910   3.592   6.653   0.649 -1.2108  3.5957 -2.3131
  674MOL0     H88911   3.355   6.683   0.712 -0.6100 -2.3324  0.9107
  674MOL0     H88912   3.440   6.580   0.836  1.6201  1.1504  1.5967
  674MOL0     H88913   3.396   6.878   0.890 -1.2917  0.3192 -1.5643
  674MOL0     H88914   3.456   6.755   0.994  1.8377  1.7479 -1.0287
  674MOL0     H88915   3.192   6.773   0.825  1.0374 -0.1879 -1.6784
  674MOL0     H88916   3.205   6.793   1.002  1.5084 -2.0600  2.2196
  674MOL0     H88917   3.225   6.531   0.870  0.8745 -1.7051  1.3489
  674MOL0     H88918   3.287   6.566   1.026  1.1174  0.7035 -0.2983
  674MOL0     H88919   3.000   6.591   0.944 -0.1971  0.0363  0.6742
  674MOL0     H88920   3.066   6.652   1.108 -2.1148 -0.2300  0.0959
  674MOL0     H88921   2.824   6.423   1.077 -0.8063 -1.3961  0.1664
  674MOL0     H88922   2.764   6.165   1.116  0.0435  1.4386  2.5825
  674MOL0     H88923   2.908   6.077   1.186 -0.4172 -0.0907 -0.4160
  674MOL0     H88924   2.975   6.022   0.961  0.7825  0.9490  0.6809
  674MOL0     H88925   2.814   6.074   0.900  3.0512  1.2973 -1.2892
  674MOL0     H88926   2.807   5.828   0.932 -2.7479 -0.8879  0.6414
  674MOL0     H88927   2.862   5.841   1.094 -0.6355 -1.5225 -1.4587
  674MOL0     H88928   2.608   5.941   0.973  1.3587 -1.7439 -0.6165
  674MOL0     H88929   2.648   5.973   1.142 -1.5628 -1.0622  0.8528
  674MOL0     H88930   2.418   5.957   1.086  2.5728 -0.9674 -1.8522
  674MOL0     H88931   2.180   5.914   1.085  0.8011  2.8847  3.3800
  674MOL0     H88932   1.921   5.407   0.979 -2.1730  1.6557 -2.5599
  674MOL0     H88933   1.702   5.318   0.969  2.0397  0.4046 -1.0469
  674MOL0     H88934   1.400   5.515   1.184  0.9583 -0.6571 -0.4972
  674MOL0     H88935   1.384   5.371   1.294 -0.2164 -1.9806 -1.1470
  674MOL0     H88936   1.286   5.258   1.076  1.1253 -1.0914 -2.0913
  674MOL0     H88937   1.265   5.425   1.020 -0.3507  0.3135  0.8200
  674MOL0     H88938   1.149   5.323   1.288 -1.8446 -0.7265 -0.4471
  674MOL0     H88939   1.061   5.316   1.134  2.2566 -2.1840 -1.1610
  674MOL0     H88940   1.162   5.580   1.263 -1.4317  0.2334  1.0185
  674MOL0     H88941   1.091   5.563   1.106 -1.4745 -4.5996 -2.0485
  674MOL0     H88942   0.966   5.473   1.377 -0.2647  3.7710  2.2474
  674MOL0     H88943   0.891   5.441   1.217  2.1153 -0.2285 -1.0035
  674MOL0     H88944   0.896   5.708   1.201 -0.5557 -0.4715 -1.1365
  674MOL0     H88945   0.944   5.697   1.368  1.0325 -0.0787 -1.0292
  674MOL0     H88946   0.687   5.654   1.200 -0.6026  2.0178 -0.4290
  674MOL0     H88947   0.717   5.546   1.345  1.1254 -0.2983 -2.2685
  674MOL0     H88948   0.735   5.851   1.328  1.7386 -0.4441  0.5499
  674MOL0     H88949   0.714   5.754   1.474  1.6816 -0.1394 -0.0507
  674MOL0     H88950   1.602   5.507   1.337  1.8387 -1.0342  1.1342
  674MOL0     H88951   1.831   5.592   1.357 -2.0789  1.6863  0.3745
  674MOL0     H88952   2.290   5.488   1.163  1.6051 -0.9089 -2.5461
  674MOL0     H88953   2.521   5.551   1.158  0.5627 -0.4280 -0.7970
  674MOL0     H88954   3.994   6.905   0.736  2.5703  1.9517 -0.1041
  674MOL0     H88955   4.236   6.911   0.695  0.3546 -0.2625 -0.2260
  674MOL0     H88956   4.545   6.697   0.358  0.2858  0.5954 -0.7066
  674MOL0     H88957   4.761   6.656   0.286 -1.0996  0.7984 -0.7253
  674MOL0     H88958   4.989   6.767   0.139 -0.2505 -1.1379 -0.7866
  674MOL0     H88959   4.969   6.623   0.253  0.9657 -0.7705  0.3781
  674MOL0     H88960   5.208   6.799   0.270 -3.1839  0.5728  0.3941
  674MOL0     H88961   5.191   6.636   0.322 -0.4122  0.9976  1.9615
  674MOL0     H88962   5.201   6.734   0.015  1.7159 -2.2584 -2.2661
  674MOL0     H88963   5.193   6.566   0.062 -1.3458 -0.4178  2.7657
  674MOL0     H88964   5.411   6.717   0.202 -3.1569  0.6708  0.8030
  674MOL0     H88965   5.403   6.561   0.141  2.9005 -0.0257 -0.5547
  674MOL0     H88966   5.604   6.773  -0.159 -0.7493  2.3800  0.1259
  674MOL0     H88967   4.907   6.983   0.527 -0.3806 -1.2441  1.2733
  674MOL0     H88968   4.694   7.043   0.572 -1.9085 -1.5491  1.2365
  675MOL0     O88969   8.975   3.716   3.842 -0.0910  0.2219 -0.0540
  675MOL0     C88970   8.983   3.836   3.826  0.8922 -0.2776  0.1046
  675MOL0     O88971   8.875   3.927   3.805  0.1893  0.1918 -0.4156
  675MOL0     C88972   8.743   3.892   3.826  0.2140  0.7123 -0.3790
  675MOL0     C88973   8.693   3.766   3.791 -0.5326  0.1640 -0.5089
  675MOL0     C88974   8.561   3.725   3.818 -0.1643 -0.8863 -0.3983
  675MOL0     C88975   8.479   3.805   3.887 -0.2929 -0.0818 -0.2084
  675MOL0     O88976   8.359   3.742   3.913 -0.7345 -0.3083  0.1118
  675MOL0     C88977   8.241   3.818   3.887  0.4369  0.5422  1.1914
  675MOL0     C88978   8.121   3.731   3.928  0.3584 -0.7043  0.3315
  675MOL0     C88979   7.987   3.803   3.906 -0.3614 -0.1050 -0.1460
  675MOL0     C88980   7.881   3.732   3.988  0.3170  0.3196  0.3463
  675MOL0     C88981   7.745   3.804   3.963 -0.2596 -0.3867 -0.5950
  675MOL0     C88982   7.624   3.747   4.034  0.0834  0.4254 -0.1627
  675MOL0     C88983   7.514   3.851   4.051 -0.1692 -0.2577  0.4949
  675MOL0     C88984   7.384   3.790   4.100  0.1558  1.0898  0.7500
  675MOL0     N88985   7.271   3.885   4.107 -0.4850  0.9433  0.2928
  675MOL0     C88986   7.181   3.903   4.006 -0.0809 -0.3929  0.0754
  675MOL0     C88987   7.095   3.997   4.056  0.7177 -0.0891 -0.2716
  675MOL0     C88988   6.971   4.056   3.994 -0.2779  0.6475  0.2723
  675MOL0     C88989   6.858   3.959   3.996  0.3649 -0.0506  1.1012
  675MOL0     C88990   6.803   3.938   4.134  0.4412 -0.0926 -0.0735
  675MOL0     C88991   6.654   3.895   4.135 -0.4258 -0.9295 -0.0797
  675MOL0     O88992   6.568   4.004   4.112  0.6007  0.1140 -0.0367
  675MOL0     C88993   6.426   3.986   4.127  0.2805 -0.6879 -0.0457
  675MOL0     C88994   6.351   4.104   4.124 -0.6879 -0.0012 -0.1425
  675MOL0     C88995   6.212   4.096   4.120  0.2553 -0.2685  0.2176
  675MOL0     C88996   6.141   3.983   4.137 -0.2658 -0.0058 -0.0695
  675MOL0     C88997   5.999   3.970   4.143  1.0366 -0.6378 -0.3823
  675MOL0     O88998   5.944   3.850   4.098 -0.2848  0.0659  0.2653
  675MOL0     C88999   5.807   3.835   4.112 -0.7260 -0.8071  0.4395
  675MOL0     C89000   5.715   3.902   4.029 -0.4511 -0.9738  0.0203
  675MOL0     C89001   5.579   3.879   4.043  0.0653  0.6294 -0.6090
  675MOL0     C89002   5.531   3.794   4.138  0.6955  0.3292  0.0925
  675MOL0     O89003   5.391   3.785   4.135  0.1318 -0.1136 -0.2635
  675MOL0     C89004   5.334   3.700   4.234 -0.4211  0.7641  0.2203
  675MOL0     C89005   5.195   3.672   4.211 -0.4834 -0.2844  1.0286
  675MOL0     C89006   5.144   3.571   4.306 -0.4569 -0.2017  0.3643
  675MOL0     C89007   4.985   3.576   4.318  0.3449  0.2735  0.3211
  675MOL0     C89008   4.934   3.482   4.433  0.5475  0.0293  0.1194
  675MOL0     C89009   4.777   3.506   4.454  0.1290 -0.5083  0.0066
  675MOL0     C89010   4.697   3.443   4.336 -0.1356  0.3381 -0.4001
  675MOL0     C89011   4.550   3.425   4.396 -0.6209  1.2018 -0.3755
  675MOL0    Cl89012   4.430   3.362   4.283 -0.2831 -0.0581 -0.3842
  675MOL0     C89013   5.622   3.726   4.218  0.1029 -0.5057  0.0003
  675MOL0     C89014   5.757   3.743   4.205 -1.7309 -0.1314  0.7615
  675MOL0     O89015   5.928   4.066   4.182  0.3823  0.3317 -1.0449
  675MOL0     C89016   6.226   3.863   4.157 -0.1336  0.0261  0.4331
  675MOL0     C89017   6.354   3.865   4.143 -0.1894  1.0637  0.6505
  675MOL0     N89018   7.142   4.037   4.183 -0.0154  0.2797 -0.0678
  675MOL0     N89019   7.252   3.968   4.209 -0.2603 -0.4902 -0.0554
  675MOL0     C89020   8.518   3.933   3.928  0.1565  0.6099 -0.0477
  675MOL0     C89021   8.649   3.972   3.897 -0.0984  0.0491  0.7786
  675MOL0     C89022   9.114   3.905   3.830 -0.1323 -0.7132  0.1103
  675MOL0     C89023   9.129   4.037   3.875  0.9671  0.4986 -0.4512
  675MOL0     C89024   9.257   4.100   3.887  0.8235 -0.7501 -0.7691
  675MOL0     C89025   9.368   4.023   3.872 -0.1519 -0.3477 -0.6376
  675MOL0     O89026   9.493   4.070   3.884 -0.0409 -0.1385 -0.1088
  675MOL0     C89027   9.529   4.149   4.001 -0.9674  0.1140 -0.0033
  675MOL0     C89028   9.536   4.295   3.971  0.6180 -0.0440 -0.0128
  675MOL0     C89029   9.609   4.339   3.841  0.1076 -0.2557  1.1443
  675MOL0     C89030   9.754   4.282   3.837  0.1450 -0.6493  0.1409
  675MOL0     C89031   9.833   4.294   3.960 -0.4092  0.5728 -0.1609
  675MOL0     C89032   9.889   4.313   4.064 -0.7624  0.9842  0.2452
  675MOL0     C89033   9.360   3.883   3.846  0.3895  0.8862  0.3090
  675MOL0     C89034   9.234   3.826   3.828 -0.4913  0.7454 -0.3950
  675MOL0     H89035   8.753   3.682   3.759 -1.2290 -0.2646 -0.7277
  675MOL0     H89036   8.526   3.627   3.788  0.3497 -1.1890 -0.0249
  675MOL0     H89037   8.235   3.825   3.778 -2.1221 -2.6199  0.9804
  675MOL0     H89038   8.244   3.919   3.929  0.3937  2.1412 -2.2859
  675MOL0     H89039   8.132   3.708   4.035  2.6216 -0.2347  0.2511
  675MOL0     H89040   8.124   3.642   3.865 -0.0560 -0.0035 -0.7071
  675MOL0     H89041   7.969   3.793   3.798  1.3412 -2.5548 -0.3011
  675MOL0     H89042   7.990   3.909   3.932  1.6733 -0.1395 -0.0520
  675MOL0     H89043   7.863   3.631   3.951 -0.3973  0.7586 -0.5089
  675MOL0     H89044   7.899   3.725   4.096 -1.6025  3.4890  0.9865
  675MOL0     H89045   7.716   3.794   3.858 -2.4363 -2.5769  0.1324
  675MOL0     H89046   7.750   3.911   3.985 -0.9191 -0.7437  1.4392
  675MOL0     H89047   7.659   3.726   4.135  2.5823 -0.0170 -1.0516
  675MOL0     H89048   7.586   3.664   3.975 -1.4112  1.4992 -0.7766
  675MOL0     H89049   7.537   3.927   4.126 -1.2217  2.0360 -1.3812
  675MOL0     H89050   7.484   3.896   3.956  0.3952  1.3331  1.0382
  675MOL0     H89051   7.403   3.753   4.202 -1.9717 -2.6185 -0.0259
  675MOL0     H89052   7.361   3.709   4.031  4.1434 -0.3605  0.8325
  675MOL0     H89053   7.172   3.845   3.915  0.0736  0.2111 -0.3264
  675MOL0     H89054   6.995   4.083   3.890  0.5731  2.5860  0.9301
  675MOL0     H89055   6.948   4.152   4.040 -1.7995 -0.0215  0.9788
  675MOL0     H89056   6.895   3.865   3.953 -0.1229  0.3053 -0.1432
  675MOL0     H89057   6.778   3.994   3.930 -0.4113 -3.0463  0.2596
  675MOL0     H89058   6.863   3.860   4.181  0.9005 -0.1281 -0.7014
  675MOL0     H89059   6.813   4.026   4.199 -1.8785 -0.3078  0.6555
  675MOL0     H89060   6.633   3.847   4.231 -0.1898  0.2732  0.5942
  675MOL0     H89061   6.644   3.817   4.059  2.8215 -0.6311 -0.9549
  675MOL0     H89062   6.401   4.200   4.118 -1.1542  0.3620  1.4377
  675MOL0     H89063   6.159   4.189   4.099 -2.7678 -1.8625  0.1818
  675MOL0     H89064   5.752   3.964   3.948 -0.9137  0.1634  0.6494
  675MOL0     H89065   5.507   3.927   3.977  2.2857  1.5490 -2.4794
  675MOL0     H89066   5.349   3.751   4.330  1.2901  1.1802 -0.2381
  675MOL0     H89067   5.391   3.607   4.239  1.5272  1.8471 -0.4089
  675MOL0     H89068   5.173   3.638   4.109 -1.6817 -1.9326  1.7850
  675MOL0     H89069   5.147   3.766   4.237  0.4289 -0.2657  2.7245
  675MOL0     H89070   5.187   3.594   4.404 -2.1007 -2.8402  1.8274
  675MOL0     H89071   5.170   3.471   4.271 -2.0596 -0.0544 -1.4252
  675MOL0     H89072   4.958   3.680   4.338 -0.6020 -0.1189  1.1662
  675MOL0     H89073   4.939   3.540   4.225  1.0368  1.7749 -0.6501
  675MOL0     H89074   5.000   3.491   4.520 -1.4240  0.1131  1.6792
  675MOL0     H89075   4.943   3.378   4.400  1.3798  0.7904 -2.2594
  675MOL0     H89076   4.755   3.612   4.468 -2.4888 -0.9078 -0.5318
  675MOL0     H89077   4.752   3.459   4.550  0.3701  0.5434  0.5994
  675MOL0     H89078   4.699   3.505   4.246 -2.1226 -2.4235 -2.5377
  675MOL0     H89079   4.737   3.344   4.311  0.0402  0.6184 -1.2438
  675MOL0     H89080   4.523   3.526   4.428  1.6507  2.0897 -1.0620
  675MOL0     H89081   4.555   3.352   4.477  0.2017 -0.2501 -1.6639
  675MOL0     H89082   5.591   3.656   4.295 -1.2049  1.9536  1.8321
  675MOL0     H89083   5.822   3.674   4.258  1.0898 -0.1292 -2.3124
  675MOL0     H89084   6.184   3.765   4.180  0.0389  0.0711  0.9528
  675MOL0     H89085   6.411   3.774   4.161  0.7919  0.8004 -3.0378
  675MOL0     H89086   8.449   3.998   3.981 -2.6394 -2.0145 -0.1978
  675MOL0     H89087   8.681   4.068   3.937 -0.4097  0.9090 -0.9352
  675MOL0     H89088   9.033   4.087   3.878 -1.1095 -3.2292  0.5835
  675MOL0     H89089   9.278   4.204   3.908  3.8760 -1.6477  1.2287
  675MOL0     H89090   9.625   4.116   4.041 -1.3298 -0.0134  0.8015
  675MOL0     H89091   9.465   4.132   4.089 -1.9650 -3.1062 -1.1945
  675MOL0     H89092   9.434   4.333   3.960 -0.1926 -1.7068  1.3452
  675MOL0     H89093   9.583   4.353   4.051  2.3847 -2.2016  0.6036
  675MOL0     H89094   9.608   4.448   3.836 -1.5781 -0.2431  1.3666
  675MOL0     H89095   9.561   4.304   3.749  0.2013  1.0676  0.5719
  675MOL0     H89096   9.751   4.175   3.815 -1.7711 -1.0115  1.8595
  675MOL0     H89097   9.819   4.328   3.762  0.4153  0.4393  1.0013
  675MOL0     H89098   9.956   4.331   4.146 -0.0144  0.6027 -0.2683
  675MOL0     H89099   9.453   3.830   3.829  0.7026  0.7238  2.3050
  675MOL0     H89100   9.220   3.721   3.807 -0.7153  0.4812  1.0219
  676MOL0     O89101   4.629   3.862  10.101  0.1395  0.0823 -0.4034
  676MOL0     C89102   4.682   3.959  10.150  1.0657  0.5813  1.2241
  676MOL0     O89103   4.620   4.081  10.143 -0.2057  0.6735  0.1231
  676MOL0     C89104   4.498   4.099  10.088 -0.1907  0.1128 -0.2104
  676MOL0     C89105   4.387   4.015  10.098 -0.2108  0.4261  0.5074
  676MOL0     C89106   4.266   4.045  10.034  0.3726  0.0995  0.6749
  676MOL0     C89107   4.253   4.167   9.970  0.6052 -0.0319  0.2457
  676MOL0     O89108   4.128   4.193   9.907  1.2285 -0.9637 -0.0147
  676MOL0     C89109   4.054   4.317   9.948  1.2264  0.1106  0.1288
  676MOL0     C89110   3.935   4.327   9.860  0.9048 -0.1290  0.8000
  676MOL0     C89111   3.832   4.204   9.884 -0.2760  0.6172 -0.2526
  676MOL0     C89112   3.712   4.243   9.791 -0.9583 -0.6641  0.0845
  676MOL0     C89113   3.605   4.135   9.794 -1.2594 -0.9011 -0.0518
  676MOL0     C89114   3.532   4.124   9.925 -0.3199  0.2770 -0.1672
  676MOL0     C89115   3.402   4.049   9.895 -0.8577 -0.6484  0.8890
  676MOL0     C89116   3.312   4.061  10.019  0.0469 -0.3749  0.0633
  676MOL0     N89117   3.182   3.996  10.000  0.2361  0.8354 -0.3259
  676MOL0     C89118   3.139   3.879  10.058  0.0808  0.6336 -0.4256
  676MOL0     C89119   3.020   3.862   9.996  1.4040  0.6867 -0.6327
  676MOL0     C89120   2.931   3.737  10.003  0.6466 -0.1123 -0.0654
  676MOL0     C89121   2.853   3.757  10.140  0.1538 -1.0429 -0.0292
  676MOL0     C89122   2.780   3.645  10.220  0.7723  0.1780 -0.5277
  676MOL0     C89123   2.691   3.565  10.123  0.0229 -0.2109 -0.1365
  676MOL0     O89124   2.605   3.649  10.037  0.1618 -0.5767  0.1906
  676MOL0     C89125   2.485   3.687  10.093 -0.1005  0.3698  0.6147
  676MOL0     C89126   2.469   3.818  10.140 -0.1530  0.0106 -0.7759
  676MOL0     C89127   2.343   3.855  10.187  0.3273  0.1832 -0.2890
  676MOL0     C89128   2.231   3.772  10.177 -0.4247  0.3757 -0.3277
  676MOL0     C89129   2.097   3.811  10.238 -0.2417 -0.3023  0.8432
  676MOL0     O89130   2.029   3.710  10.304 -0.2374 -0.8610 -0.8828
  676MOL0     C89131   1.923   3.751  10.375  0.7899  1.2005  0.1538
  676MOL0     C89132   1.795   3.713  10.340  0.3289  0.6571 -0.7722
  676MOL0     C89133   1.686   3.741  10.426  1.0725 -0.5544 -0.1884
  676MOL0     C89134   1.704   3.800  10.553 -0.5111 -0.6232  1.0702
  676MOL0     O89135   1.608   3.807  10.656  0.1660  0.1055 -0.2418
  676MOL0     C89136   1.510   3.700  10.659 -0.4487 -0.1461  0.3332
  676MOL0     C89137   1.443   3.697  10.792 -0.0542  0.2279  0.0868
  676MOL0     C89138   1.312   3.614  10.783  0.5139  0.3721  0.2038
  676MOL0     C89139   1.266   3.584  10.937  0.1737 -0.5846 -0.3247
  676MOL0     C89140   1.127   3.507  10.938  0.0935  0.4699 -0.8056
  676MOL0     C89141   1.025   3.586  10.854 -0.6686 -0.1323 -0.5622
  676MOL0     C89142   0.883   3.564  10.901  0.3648  0.9158 -1.1055
  676MOL0     C89143   0.852   3.654  11.020  0.4250 -0.0759 -1.1913
  676MOL0    Cl89144   0.715   3.593  11.124 -0.4334 -0.0231  0.0078
  676MOL0     C89145   1.827   3.856  10.580 -0.6480 -0.3930 -0.3283
  676MOL0     C89146   1.933   3.828  10.486  0.0652  0.0447 -0.3272
  676MOL0     O89147   2.077   3.934  10.245  0.0733  0.3713  0.0032
  676MOL0     C89148   2.252   3.643  10.142  0.1769 -0.5473 -0.2398
  676MOL0     C89149   2.377   3.599  10.101 -0.5360 -1.0956  0.0154
  676MOL0     N89150   2.988   3.975   9.925  0.4715  0.2070 -0.9886
  676MOL0     N89151   3.091   4.058   9.922  0.1564  0.3408  0.0934
  676MOL0     C89152   4.358   4.254   9.968  1.6064  0.2368 -0.5322
  676MOL0     C89153   4.475   4.223  10.039  0.7108 -0.8532  0.2210
  676MOL0     C89154   4.809   3.948  10.215 -0.0712 -0.3226  0.1401
  676MOL0     C89155   4.892   3.836  10.191 -0.8036  0.2622 -0.0251
  676MOL0     C89156   5.008   3.813  10.271 -0.0432 -0.0392  0.1594
  676MOL0     C89157   5.048   3.906  10.364 -0.5754  0.6863  0.8261
  676MOL0     O89158   5.168   3.896  10.433 -0.6779  0.0698  0.1863
  676MOL0     C89159   5.280   3.818  10.377  0.2671 -0.5215 -0.5987
  676MOL0     C89160   5.408   3.875  10.435  0.9913 -0.1783 -0.2136
  676MOL0     C89161   5.536   3.835  10.358 -0.9239  0.4240 -0.0220
  676MOL0     C89162   5.631   3.732  10.422 -0.2646 -0.8570  0.0132
  676MOL0     C89163   5.580   3.597  10.434  0.0337 -0.3659  0.0596
  676MOL0     C89164   5.534   3.485  10.441  0.2850  0.1570 -0.0899
  676MOL0     C89165   4.970   4.015  10.390  0.3414 -0.4448  0.0005
  676MOL0     C89166   4.851   4.035  10.314  0.2568 -0.4638  0.0639
  676MOL0     H89167   4.409   3.921  10.149 -0.0802  0.7684  1.0868
  676MOL0     H89168   4.179   3.980  10.041 -1.7085  2.4280 -1.2994
  676MOL0     H89169   4.113   4.407   9.963  3.1243 -1.0187 -0.1713
  676MOL0     H89170   4.019   4.289  10.047  1.1985  1.6170  0.5673
  676MOL0     H89171   3.971   4.318   9.758  1.1105 -3.0979  1.0649
  676MOL0     H89172   3.890   4.425   9.879  0.7321 -0.3963  1.8422
  676MOL0     H89173   3.790   4.198   9.985 -0.6908 -0.3547 -0.4691
  676MOL0     H89174   3.874   4.108   9.855  0.2102  1.0864 -1.1561
  676MOL0     H89175   3.666   4.339   9.817  0.4539  0.1432 -0.2977
  676MOL0     H89176   3.754   4.258   9.691 -0.9009 -2.6064 -0.2310
  676MOL0     H89177   3.654   4.039   9.773 -0.5989 -1.0267  1.8582
  676MOL0     H89178   3.544   4.154   9.706  1.5513  3.1759 -1.4221
  676MOL0     H89179   3.523   4.231   9.948  1.3051  0.0895  1.5105
  676MOL0     H89180   3.597   4.074   9.997 -0.0960  0.6443 -0.1126
  676MOL0     H89181   3.341   4.091   9.814  1.8077 -0.2017 -1.0189
  676MOL0     H89182   3.422   3.944   9.873 -1.1230 -0.2620 -1.4963
  676MOL0     H89183   3.297   4.169  10.028 -1.3091 -0.4229 -1.1763
  676MOL0     H89184   3.348   4.028  10.116  0.9190 -0.3348 -0.2385
  676MOL0     H89185   3.196   3.810  10.119 -2.4751 -0.1973  1.1918
  676MOL0     H89186   2.986   3.643  10.012 -0.1307 -0.5825 -0.1002
  676MOL0     H89187   2.871   3.725   9.913  3.3230  2.4304 -2.4072
  676MOL0     H89188   2.781   3.836  10.118  0.1364 -1.5751 -2.0290
  676MOL0     H89189   2.923   3.798  10.214 -1.5682  2.1819  0.0046
  676MOL0     H89190   2.844   3.580  10.281  1.2881  0.9049 -0.2841
  676MOL0     H89191   2.710   3.695  10.287  1.3496 -0.6535  0.7379
  676MOL0     H89192   2.635   3.486  10.174 -0.6719  1.1737  1.3183
  676MOL0     H89193   2.756   3.500  10.064  2.8373 -0.7665  3.2063
  676MOL0     H89194   2.545   3.895  10.138  0.2585 -0.1573  2.3136
  676MOL0     H89195   2.334   3.959  10.217 -0.7810  0.5107 -1.6642
  676MOL0     H89196   1.777   3.637  10.265  0.9323  0.3167 -0.5775
  676MOL0     H89197   1.584   3.707  10.410  1.2214 -0.7416 -0.7644
  676MOL0     H89198   1.564   3.607  10.642 -0.3070  0.1093 -0.7159
  676MOL0     H89199   1.433   3.721  10.584 -0.8772 -0.7083  0.6125
  676MOL0     H89200   1.425   3.798  10.831 -0.1840 -0.3745  1.6411
  676MOL0     H89201   1.510   3.655  10.868  0.4669 -0.5282 -0.7667
  676MOL0     H89202   1.324   3.519  10.731  0.0066  0.6206 -0.3801
  676MOL0     H89203   1.247   3.663  10.710 -0.3726  2.7680  2.4675
  676MOL0     H89204   1.339   3.526  10.994 -1.2848 -2.0192  0.1597
  676MOL0     H89205   1.252   3.676  10.995 -4.0085 -1.3371  0.1767
  676MOL0     H89206   1.086   3.503  11.039  0.3321  0.7094 -0.6992
  676MOL0     H89207   1.147   3.407  10.899  1.4066 -0.4428  2.0037
  676MOL0     H89208   1.044   3.577  10.746  1.1314 -1.1066 -0.2009
  676MOL0     H89209   1.047   3.689  10.882  0.9899 -0.0385 -1.9977
  676MOL0     H89210   0.812   3.582  10.820 -0.2295  0.7403 -0.6316
  676MOL0     H89211   0.875   3.461  10.940 -1.0228  0.7515 -1.7690
  676MOL0     H89212   0.831   3.754  10.981  0.6255  1.3758  2.1041
  676MOL0     H89213   0.937   3.669  11.087 -1.9436  2.7337  1.4614
  676MOL0     H89214   1.843   3.907  10.675  0.4846 -0.3446 -0.5369
  676MOL0     H89215   2.027   3.878  10.508 -0.8175  1.0167  1.4417
  676MOL0     H89216   2.173   3.569  10.139 -1.0684  0.7568 -2.5446
  676MOL0     H89217   2.369   3.499  10.061 -0.7249 -1.1368  0.1548
  676MOL0     H89218   4.358   4.351   9.918  0.1744  0.1198 -0.8105
  676MOL0     H89219   4.564   4.285  10.040  0.5599 -0.6269 -0.0613
  676MOL0     H89220   4.869   3.765  10.112  0.0233 -0.6389  0.5259
  676MOL0     H89221   5.066   3.722  10.254 -0.9549 -0.7359  0.6649
  676MOL0     H89222   5.287   3.835  10.269  0.4278  0.4144 -0.4483
  676MOL0     H89223   5.278   3.710  10.390 -0.2759 -0.5087 -0.5517
  676MOL0     H89224   5.398   3.984  10.430  2.6794  0.0237  0.3463
  676MOL0     H89225   5.409   3.849  10.541 -0.4758 -2.5408 -0.7009
  676MOL0     H89226   5.591   3.928  10.341  0.2688 -0.5276 -1.7054
  676MOL0     H89227   5.512   3.800  10.257 -1.0461 -2.3650  0.8827
  676MOL0     H89228   5.708   3.715  10.347 -0.5894 -1.4499 -0.1913
  676MOL0     H89229   5.670   3.774  10.515 -1.5517 -2.5365  1.3707
  676MOL0     H89230   5.475   3.396  10.435 -2.3656  1.7605  0.4846
  676MOL0     H89231   5.009   4.081  10.467  0.4183 -2.8521  2.2078
  676MOL0     H89232   4.809   4.135  10.326  0.5823 -0.5084  1.9903
  677MOL0     O89233   8.312   7.165   4.399 -0.3936 -0.3901 -0.3368
  677MOL0     C89234   8.318   7.054   4.452  0.1537 -0.3832 -0.6724
  677MOL0     O89235   8.211   6.986   4.496  0.7916 -0.4026  0.6164
  677MOL0     C89236   8.086   7.046   4.479 -0.1255 -0.3824  0.3696
  677MOL0     C89237   8.054   7.173   4.522  0.4714  0.5119 -0.4966
  677MOL0     C89238   7.926   7.225   4.502  0.1243 -0.2407 -0.1399
  677MOL0     C89239   7.829   7.153   4.439  0.5958 -0.2527  0.8289
  677MOL0     O89240   7.702   7.203   4.412 -0.7326 -0.2744  0.3389
  677MOL0     C89241   7.680   7.336   4.460  0.0400 -0.3541 -0.1785
  677MOL0     C89242   7.529   7.350   4.468  0.5043  0.8154 -0.8231
  677MOL0     C89243   7.477   7.350   4.326  0.1360 -0.1751  0.1325
  677MOL0     C89244   7.319   7.366   4.313 -0.2291 -0.3238  0.6228
  677MOL0     C89245   7.273   7.366   4.168 -0.0461 -0.0384  0.0263
  677MOL0     C89246   7.123   7.390   4.167 -0.5355 -0.3652  0.4892
  677MOL0     C89247   7.049   7.317   4.052 -0.3620 -0.3015 -0.4603
  677MOL0     C89248   7.034   7.168   4.076 -0.1565  0.3007  0.5638
  677MOL0     N89249   6.897   7.122   4.122  0.0553  0.1790 -0.6824
  677MOL0     C89250   6.838   7.108   4.247  0.4093 -0.4607  0.2303
  677MOL0     C89251   6.705   7.087   4.228  0.1452 -0.4678 -0.0843
  677MOL0     C89252   6.593   7.066   4.328 -0.6122  0.3544 -0.3014
  677MOL0     C89253   6.462   7.058   4.261  0.5238 -0.1633  0.5591
  677MOL0     C89254   6.343   7.039   4.364 -0.5932 -0.1331  0.4258
  677MOL0     C89255   6.265   6.908   4.350  0.5572  0.3576 -0.1585
  677MOL0     O89256   6.184   6.902   4.476 -0.2260  0.0011  0.7844
  677MOL0     C89257   6.047   6.902   4.468  0.3107  0.7892 -0.0635
  677MOL0     C89258   5.969   6.970   4.373 -0.0538  0.2741  0.1174
  677MOL0     C89259   5.831   6.966   4.385 -0.3909 -0.8362  0.7032
  677MOL0     C89260   5.771   6.885   4.483  0.0345  1.3574 -0.8147
  677MOL0     C89261   5.621   6.870   4.502  0.7995 -0.3110  0.8696
  677MOL0     O89262   5.541   6.926   4.412  0.5573 -0.9041  0.5026
  677MOL0     C89263   5.405   6.916   4.421  0.1343  0.4007  0.1064
  677MOL0     C89264   5.337   6.793   4.422  1.3033  0.2058 -0.1790
  677MOL0     C89265   5.196   6.805   4.420  0.7514  0.1096  0.5629
  677MOL0     C89266   5.122   6.928   4.407 -0.3266 -0.1439 -1.0386
  677MOL0     O89267   4.988   6.914   4.400  0.6238  0.2401  0.2681
  677MOL0     C89268   4.930   7.017   4.328  0.8164 -0.9586  0.2905
  677MOL0     C89269   4.963   7.001   4.184 -0.4338 -0.2000 -0.5879
  677MOL0     C89270   4.864   7.063   4.086 -0.1190 -0.6419 -0.2867
  677MOL0     C89271   4.920   7.043   3.945  0.1883  0.4496  0.3331
  677MOL0     C89272   4.813   7.054   3.837  0.6014  0.0025  0.4495
  677MOL0     C89273   4.746   7.195   3.816 -0.4999  0.4679  0.6484
  677MOL0     C89274   4.641   7.183   3.707  0.0612 -0.0675 -0.1959
  677MOL0     C89275   4.621   7.306   3.616 -0.0653  0.2642 -0.4459
  677MOL0    Cl89276   4.543   7.428   3.714  0.2784 -0.2344 -0.5891
  677MOL0     C89277   5.198   7.047   4.409 -0.2120  0.5394 -0.2671
  677MOL0     C89278   5.341   7.038   4.425 -0.0490  0.1567  0.0180
  677MOL0     O89279   5.585   6.804   4.594 -0.1031  0.1887 -1.0113
  677MOL0     C89280   5.850   6.810   4.576  0.1810 -0.4261  0.3502
  677MOL0     C89281   5.990   6.820   4.563 -0.4242  0.0304 -0.4413
  677MOL0     N89282   6.692   7.065   4.093  0.2245 -0.1534 -0.3495
  677MOL0     N89283   6.798   7.095   4.030 -0.2682 -0.8877  0.8230
  677MOL0     C89284   7.860   7.021   4.385 -0.6171 -0.0366 -0.0746
  677MOL0     C89285   7.987   6.970   4.409  0.1809 -0.2960 -0.4406
  677MOL0     C89286   8.452   7.002   4.472 -0.0933  0.3507 -1.1770
  677MOL0     C89287   8.564   7.070   4.412 -0.0782 -0.2537  0.4173
  677MOL0     C89288   8.699   7.031   4.437 -1.0665  0.5639  0.8343
  677MOL0     C89289   8.719   6.920   4.504  0.3651 -0.4388  0.2979
  677MOL0     O89290   8.852   6.894   4.533 -0.1149  0.6057 -0.1605
  677MOL0     C89291   8.904   6.766   4.588 -0.0351  0.2407  0.7437
  677MOL0     C89292   8.884   6.766   4.732  0.8698 -0.2706 -0.3953
  677MOL0     C89293   8.927   6.633   4.788 -0.0013  1.0277  0.2946
  677MOL0     C89294   8.908   6.642   4.941  0.0284  0.2604  0.5243
  677MOL0     C89295   8.765   6.636   4.976 -0.3624  0.5897 -0.8683
  677MOL0     C89296   8.642   6.637   4.987 -0.3178 -0.1832 -0.2855
  677MOL0     C89297   8.612   6.844   4.544  1.3088 -0.9237  0.5689
  677MOL0     C89298   8.481   6.887   4.535  0.3763  1.2111 -0.1040
  677MOL0     H89299   8.132   7.227   4.576  1.2571 -1.7616  0.7610
  677MOL0     H89300   7.917   7.332   4.521  1.8816 -0.0667 -0.1078
  677MOL0     H89301   7.730   7.418   4.408  0.7350  0.1934  1.2869
  677MOL0     H89302   7.725   7.336   4.560  0.8415 -0.9427 -0.5256
  677MOL0     H89303   7.510   7.448   4.511 -1.0691 -0.3315  1.2149
  677MOL0     H89304   7.479   7.281   4.535  1.5958  2.6137  2.0091
  677MOL0     H89305   7.502   7.257   4.273 -1.4113 -2.2512  2.7837
  677MOL0     H89306   7.529   7.426   4.267 -1.5425  1.5702  0.8059
  677MOL0     H89307   7.276   7.294   4.383 -1.2686  1.0504  1.4592
  677MOL0     H89308   7.295   7.466   4.351 -2.2245  0.4836 -2.4171
  677MOL0     H89309   7.308   7.273   4.121  1.3649 -0.0006  0.9380
  677MOL0     H89310   7.329   7.449   4.123 -0.2979  0.5139  0.7194
  677MOL0     H89311   7.114   7.499   4.160  2.8853 -0.0009  0.4458
  677MOL0     H89312   7.075   7.376   4.264 -2.0628 -0.3605 -0.2208
  677MOL0     H89313   6.946   7.356   4.056 -0.3099 -0.1766  3.0196
  677MOL0     H89314   7.086   7.343   3.953 -1.3287  0.2075 -0.7068
  677MOL0     H89315   7.118   7.129   4.134  1.0210  0.7157 -0.7874
  677MOL0     H89316   7.046   7.125   3.976 -2.0947 -1.2214  0.9505
  677MOL0     H89317   6.888   7.130   4.341  0.8860  1.5587 -0.4673
  677MOL0     H89318   6.594   7.140   4.409  1.2908  0.0695  0.0001
  677MOL0     H89319   6.610   6.969   4.377 -0.2737  1.7324  2.5193
  677MOL0     H89320   6.456   6.967   4.201 -1.1305 -0.3842  0.9982
  677MOL0     H89321   6.444   7.141   4.191 -1.9895  0.0959  1.3870
  677MOL0     H89322   6.390   7.036   4.463 -1.1424  1.2868  0.7617
  677MOL0     H89323   6.275   7.124   4.379 -1.3295 -0.3316 -1.5164
  677MOL0     H89324   6.334   6.823   4.351 -2.4984 -2.3425 -0.2229
  677MOL0     H89325   6.206   6.897   4.258  0.8929 -0.6271 -0.2711
  677MOL0     H89326   6.031   7.028   4.305 -1.1819  1.4842  0.0825
  677MOL0     H89327   5.771   7.028   4.318 -2.2725  0.9424  3.8113
  677MOL0     H89328   5.375   6.691   4.423 -2.5118 -1.4028 -0.0466
  677MOL0     H89329   5.142   6.713   4.442  2.4077 -1.1036 -0.1945
  677MOL0     H89330   4.959   7.119   4.353  1.6010 -0.6787 -1.5607
  677MOL0     H89331   4.822   7.015   4.342  0.2884  3.1895 -1.6138
  677MOL0     H89332   4.967   6.892   4.171 -1.7064 -0.7163  2.4674
  677MOL0     H89333   5.057   7.046   4.149  0.2826  0.4084  1.8918
  677MOL0     H89334   4.870   7.169   4.109  0.8316 -0.8984  0.7246
  677MOL0     H89335   4.766   7.015   4.088  0.4452 -2.3759 -4.3909
  677MOL0     H89336   5.009   7.105   3.929 -0.2860  1.3408  1.0132
  677MOL0     H89337   4.961   6.942   3.942  0.7054  0.6866 -0.9199
  677MOL0     H89338   4.734   6.983   3.863  2.6259 -1.9873  1.3983
  677MOL0     H89339   4.858   7.032   3.740 -2.4712 -1.2360 -0.8394
  677MOL0     H89340   4.826   7.260   3.778  0.6301 -2.0977 -1.8248
  677MOL0     H89341   4.695   7.227   3.907 -1.3828  0.4393  0.1664
  677MOL0     H89342   4.652   7.092   3.647  0.7113 -0.3477  0.3414
  677MOL0     H89343   4.550   7.170   3.767  1.1293 -0.3493  1.4113
  677MOL0     H89344   4.552   7.284   3.533  0.5099  2.2324 -1.4963
  677MOL0     H89345   4.720   7.340   3.584  0.6601 -0.3482  1.0650
  677MOL0     H89346   5.149   7.143   4.398  0.6122  1.0100  0.0469
  677MOL0     H89347   5.403   7.128   4.429  0.8728 -0.3852 -1.1911
  677MOL0     H89348   5.818   6.782   4.676 -1.5168  1.9256  0.5639
  677MOL0     H89349   6.055   6.792   4.646 -1.6373  1.8705  1.2402
  677MOL0     H89350   7.786   6.964   4.329 -0.5296  1.2952 -1.6243
  677MOL0     H89351   8.012   6.870   4.375 -0.7376 -1.1812  1.3800
  677MOL0     H89352   8.546   7.165   4.362 -0.1500 -0.6085 -0.2440
  677MOL0     H89353   8.785   7.077   4.390 -0.2010  1.3431  3.0234
  677MOL0     H89354   9.009   6.749   4.561  0.2884  1.3600  1.2386
  677MOL0     H89355   8.847   6.683   4.546 -0.2026  1.0346 -0.6570
  677MOL0     H89356   8.953   6.836   4.779  2.6370 -2.3530  0.2464
  677MOL0     H89357   8.779   6.793   4.751 -0.3177 -2.9808 -2.3542
  677MOL0     H89358   9.032   6.609   4.768 -0.2112  0.2631  0.0657
  677MOL0     H89359   8.865   6.548   4.756  0.0528  0.6335  1.1980
  677MOL0     H89360   8.961   6.554   4.977  2.4529  0.2166 -2.7371
  677MOL0     H89361   8.958   6.726   4.989  1.9185 -0.3941 -0.2146
  677MOL0     H89362   8.536   6.631   4.981 -0.5019 -1.5308  2.6095
  677MOL0     H89363   8.632   6.748   4.591 -0.8290 -0.5010  2.5254
  677MOL0     H89364   8.403   6.828   4.580  1.5302 -0.1249  0.2229
  678MOL0     O89365   1.011  10.690   2.992  0.0458 -0.3742 -0.2707
  678MOL0     C89366   1.079  10.744   3.083 -0.0396 -0.2661 -0.4500
  678MOL0     O89367   1.032  10.785   3.208  0.7741  0.4455  0.2157
  678MOL0     C89368   0.896  10.788   3.237 -0.3968  0.1636 -0.9856
  678MOL0     C89369   0.813  10.888   3.195  0.7003  0.1359  0.4806
  678MOL0     C89370   0.679  10.898   3.236 -0.2419  0.0450 -0.3192
  678MOL0     C89371   0.626  10.808   3.327 -0.1767 -0.6017 -0.4619
  678MOL0     O89372   0.500  10.799   3.373  0.4248  0.6562 -0.8206
  678MOL0     C89373   0.382  10.857   3.320  0.2731 -0.5027  0.7811
  678MOL0     C89374   0.255  10.805   3.390 -0.4948  1.1161 -0.7796
  678MOL0     C89375   0.133  10.866   3.330  0.1176 -0.5135 -0.5079
  678MOL0     C89376   0.017  10.793   3.403 -0.9218 -0.4047  0.5013
  678MOL0     C89377  -0.117  10.841   3.353  0.7034  0.3436  0.4092
  678MOL0     C89378  -0.136  10.802   3.199  0.3517  0.3640 -1.5134
  678MOL0     C89379  -0.275  10.825   3.150  0.2014 -0.9028 -0.2543
  678MOL0     C89380  -0.300  10.740   3.027  0.8382  0.1250  0.1365
  678MOL0     N89381  -0.432  10.760   2.960  0.3946 -0.2640 -0.8999
  678MOL0     C89382  -0.553  10.724   3.010 -0.5313  0.2882 -0.4043
  678MOL0     C89383  -0.650  10.761   2.925 -0.4588 -0.1804  0.4865
  678MOL0     C89384  -0.792  10.751   2.953  0.3541  0.0899 -0.0226
  678MOL0     C89385  -0.881  10.810   2.849 -0.5482  0.5925 -0.6145
  678MOL0     C89386  -1.020  10.754   2.854 -0.2654  1.0557  0.7527
  678MOL0     C89387  -1.116  10.810   2.738 -0.8085 -0.0345 -0.0628
  678MOL0     O89388  -1.180  10.927   2.783  0.4182  0.2875  0.2822
  678MOL0     C89389  -1.290  10.979   2.716  0.4277 -0.6110  0.2872
  678MOL0     C89390  -1.337  10.939   2.591 -0.0546 -0.6932  0.1337
  678MOL0     C89391  -1.454  11.000   2.542 -0.3472  0.0948  0.5751
  678MOL0     C89392  -1.526  11.100   2.621  0.2401 -0.8466  0.9407
  678MOL0     C89393  -1.637  11.162   2.560 -1.0404  0.0539 -0.2839
  678MOL0     O89394  -1.718  11.238   2.640 -0.0692  0.6290  0.4278
  678MOL0     C89395  -1.852  11.259   2.596  0.8647 -0.5084  0.3050
  678MOL0     C89396  -1.932  11.189   2.501 -0.2326  0.2904  0.5315
  678MOL0     C89397  -2.055  11.234   2.461 -0.3087  0.4714  0.0485
  678MOL0     C89398  -2.116  11.344   2.516 -1.1831 -0.3223  0.4459
  678MOL0     O89399  -2.237  11.388   2.467 -0.7705  0.4137  0.2898
  678MOL0     C89400  -2.329  11.464   2.539  0.5836  0.3274  0.1973
  678MOL0     C89401  -2.422  11.368   2.623 -0.1301  0.8344 -0.6316
  678MOL0     C89402  -2.491  11.267   2.526 -0.5372 -0.0101  0.0128
  678MOL0     C89403  -2.596  11.345   2.441 -0.1457  0.2257  0.9620
  678MOL0     C89404  -2.712  11.266   2.377 -0.4129  0.3321 -0.7704
  678MOL0     C89405  -2.810  11.226   2.490  0.1782  0.6985 -0.6415
  678MOL0     C89406  -2.922  11.118   2.459 -0.6089  0.2696 -0.8911
  678MOL0     C89407  -2.989  11.123   2.322 -0.4320  0.2026 -1.0054
  678MOL0    Cl89408  -3.107  10.990   2.323 -0.0328  0.1484 -0.1219
  678MOL0     C89409  -2.039  11.416   2.612  0.2633  0.9195 -0.7894
  678MOL0     C89410  -1.913  11.372   2.651  0.1258  0.4071 -0.7961
  678MOL0     O89411  -1.658  11.130   2.445  0.4576  0.0098  0.0247
  678MOL0     C89412  -1.477  11.132   2.743  0.8486 -0.0334 -0.1674
  678MOL0     C89413  -1.362  11.074   2.791 -0.4237  0.5222  0.1063
  678MOL0     N89414  -0.586  10.828   2.822  0.1897 -0.3471  0.0645
  678MOL0     N89415  -0.461  10.818   2.835  0.7270  0.1262 -0.1574
  678MOL0     C89416   0.712  10.710   3.366  0.4224 -0.6474  0.4975
  678MOL0     C89417   0.848  10.691   3.326  0.4862  0.8621  0.6062
  678MOL0     C89418   1.221  10.765   3.056  0.0963  0.2700  0.4791
  678MOL0     C89419   1.320  10.800   3.149 -0.4695  0.0152 -0.9846
  678MOL0     C89420   1.448  10.848   3.106  0.1319  0.0585 -0.1481
  678MOL0     C89421   1.484  10.851   2.973 -0.0264  0.5761  0.9386
  678MOL0     O89422   1.609  10.886   2.923  0.0263 -0.4398  0.0709
  678MOL0     C89423   1.711  10.886   3.021  0.2020  0.3513 -0.5707
  678MOL0     C89424   1.846  10.931   2.957 -0.6388 -1.5217 -0.9423
  678MOL0     C89425   1.956  10.953   3.063 -0.7967 -0.1326  0.6621
  678MOL0     C89426   2.095  10.974   3.000  0.1768 -0.2639 -0.7903
  678MOL0     C89427   2.197  11.027   3.093  0.5284 -0.2389 -0.2217
  678MOL0     C89428   2.283  11.086   3.146 -0.5945 -0.3535  0.2858
  678MOL0     C89429   1.387  10.829   2.879  0.0215 -0.4826  0.8520
  678MOL0     C89430   1.260  10.781   2.917 -1.2103  0.2785 -0.8466
  678MOL0     H89431   0.845  10.972   3.135 -1.2448  0.5181 -0.0693
  678MOL0     H89432   0.627  10.979   3.186  1.5376  0.1204 -2.1804
  678MOL0     H89433   0.365  10.833   3.214 -0.5982 -2.2372  1.2741
  678MOL0     H89434   0.394  10.965   3.330  0.4588 -0.4423 -0.0318
  678MOL0     H89435   0.273  10.830   3.495  0.2994 -5.9741  1.3104
  678MOL0     H89436   0.245  10.696   3.392 -0.4072  1.1193  0.8856
  678MOL0     H89437   0.123  10.855   3.222  1.6743  0.9674 -0.8566
  678MOL0     H89438   0.139  10.973   3.354  0.4215 -0.7911  0.7509
  678MOL0     H89439   0.026  10.686   3.386  2.2759 -0.1339 -0.1368
  678MOL0     H89440   0.032  10.799   3.512  0.2076 -0.8486  0.3879
  678MOL0     H89441  -0.124  10.949   3.373 -1.2670  0.1038  1.2099
  678MOL0     H89442  -0.195  10.787   3.406  1.3018  1.4909  2.5867
  678MOL0     H89443  -0.097  10.703   3.175  1.9612  1.3092 -3.1484
  678MOL0     H89444  -0.077  10.865   3.131 -0.8856  3.7898  0.3795
  678MOL0     H89445  -0.355  10.795   3.218 -0.0659  0.7361  0.1962
  678MOL0     H89446  -0.294  10.929   3.125 -3.6555 -1.5752 -0.7869
  678MOL0     H89447  -0.286  10.639   3.069 -0.3501 -1.0570 -2.1465
  678MOL0     H89448  -0.227  10.775   2.954 -1.0077  3.5497 -0.2470
  678MOL0     H89449  -0.571  10.677   3.106  0.0194 -2.3299 -1.4923
  678MOL0     H89450  -0.810  10.821   3.035  2.2987 -0.0516  0.5744
  678MOL0     H89451  -0.812  10.652   2.996  1.4410  0.2966  1.0260
  678MOL0     H89452  -0.837  10.767   2.758  0.3181 -0.7372  0.3925
  678MOL0     H89453  -0.889  10.919   2.850  0.3729  0.6962 -1.8170
  678MOL0     H89454  -1.012  10.647   2.836  2.3810  1.2343  0.4220
  678MOL0     H89455  -1.072  10.765   2.950 -2.2590 -1.0133 -0.0032
  678MOL0     H89456  -1.193  10.733   2.723 -3.8707  2.6403  1.0027
  678MOL0     H89457  -1.049  10.824   2.652  1.1220 -0.8404  1.2219
  678MOL0     H89458  -1.292  10.861   2.529 -1.7218 -3.7485  2.4635
  678MOL0     H89459  -1.482  10.972   2.441  0.8256  0.6320  0.0814
  678MOL0     H89460  -1.917  11.093   2.453 -1.5247 -0.5861  1.7893
  678MOL0     H89461  -2.111  11.177   2.388  0.3951  1.5403 -1.3684
  678MOL0     H89462  -2.389  11.518   2.465  0.7686 -0.9844 -0.9534
  678MOL0     H89463  -2.279  11.536   2.605  1.9592  1.5360 -2.0452
  678MOL0     H89464  -2.500  11.423   2.676 -0.0285 -0.8158  1.3673
  678MOL0     H89465  -2.362  11.320   2.700  3.1472  6.8450  1.2288
  678MOL0     H89466  -2.544  11.184   2.573 -1.5320 -1.0789 -2.7662
  678MOL0     H89467  -2.415  11.225   2.459 -1.6470 -1.4252 -0.3995
  678MOL0     H89468  -2.641  11.429   2.495 -0.7435 -0.0217  0.8559
  678MOL0     H89469  -2.538  11.382   2.356 -1.6689 -2.2204 -1.3011
  678MOL0     H89470  -2.673  11.170   2.341  3.2242  0.9307  1.0922
  678MOL0     H89471  -2.759  11.319   2.294 -0.9096  2.4761  0.8051
  678MOL0     H89472  -2.862  11.316   2.523 -0.2213  0.1227  0.3260
  678MOL0     H89473  -2.757  11.190   2.578  1.3037 -1.2085 -2.0002
  678MOL0     H89474  -2.872  11.024   2.486 -0.6015  1.1505  2.5417
  678MOL0     H89475  -3.002  11.126   2.533 -0.9944 -0.2374 -1.2402
  678MOL0     H89476  -2.917  11.103   2.242  2.7814  2.0292  1.1693
  678MOL0     H89477  -3.040  11.220   2.318 -0.1752  0.3330 -1.1221
  678MOL0     H89478  -2.075  11.509   2.655 -0.9343  0.8491 -1.5807
  678MOL0     H89479  -1.863  11.431   2.727 -1.1854 -0.6726  0.9919
  678MOL0     H89480  -1.524  11.210   2.802 -0.4532 -0.4948 -0.5770
  678MOL0     H89481  -1.337  11.103   2.892 -3.1407  0.7372  0.8009
  678MOL0     H89482   0.663  10.630   3.421 -1.6444 -0.0073 -0.2818
  678MOL0     H89483   0.903  10.602   3.355 -2.0948 -0.8598  0.5158
  678MOL0     H89484   1.295  10.804   3.255 -2.4809  1.6964 -1.4693
  678MOL0     H89485   1.511  10.875   3.190 -1.6915 -1.8654  1.9634
  678MOL0     H89486   1.712  10.788   3.071 -0.0460 -0.2898 -1.7998
  678MOL0     H89487   1.689  10.966   3.093  2.1205  1.0556 -0.7197
  678MOL0     H89488   1.881  10.853   2.888 -0.3776 -0.2830 -2.2720
  678MOL0     H89489   1.831  11.029   2.910 -2.5430 -0.2463  2.0473
  678MOL0     H89490   1.962  10.860   3.121  1.9967 -1.7324 -1.8897
  678MOL0     H89491   1.943  11.037   3.132  1.1860  0.8715 -0.0972
  678MOL0     H89492   2.124  10.878   2.955 -2.7783 -1.3995 -0.5214
  678MOL0     H89493   2.086  11.052   2.924 -0.7243 -0.5110 -0.9489
  678MOL0     H89494   2.358  11.144   3.197 -0.0097  0.0986 -1.0435
  678MOL0     H89495   1.415  10.850   2.777 -1.1178 -0.2746  0.5690
  678MOL0     H89496   1.188  10.748   2.843 -1.0144 -1.4717 -0.3080
  679MOL0     O89497   7.361   8.981   9.356  0.5583  0.0779  0.5496
  679MOL0     C89498   7.311   8.887   9.421 -0.2057 -1.2224 -0.3230
  679MOL0     O89499   7.201   8.886   9.515  0.0916 -0.2125 -0.7287
  679MOL0     C89500   7.100   8.982   9.508  1.0342 -0.4829  0.5800
  679MOL0     C89501   6.976   8.940   9.554  0.1769  0.1336 -0.1385
  679MOL0     C89502   6.873   9.033   9.575  1.3039  0.5100 -0.8598
  679MOL0     C89503   6.892   9.168   9.541  0.1428 -0.6124  0.4123
  679MOL0     O89504   6.801   9.275   9.557 -0.9390 -0.9587  0.3266
  679MOL0     C89505   6.696   9.260   9.650  0.0258  0.6883 -0.1367
  679MOL0     C89506   6.645   9.399   9.662  0.2172 -0.1104  0.4240
  679MOL0     C89507   6.500   9.414   9.712  0.0810 -0.2388 -1.0431
  679MOL0     C89508   6.449   9.554   9.689  0.0590 -0.4178 -0.2376
  679MOL0     C89509   6.303   9.584   9.716  0.3199 -0.2111  0.8678
  679MOL0     C89510   6.205   9.505   9.615 -0.0844 -0.5793 -0.1322
  679MOL0     C89511   6.061   9.536   9.658  0.6395 -0.4970  0.7407
  679MOL0     C89512   5.959   9.476   9.556  0.4311 -0.6236 -0.0836
  679MOL0     N89513   5.955   9.332   9.551  0.2432  0.6474 -0.2996
  679MOL0     C89514   5.994   9.251   9.447 -0.3180 -0.1716  0.2518
  679MOL0     C89515   5.980   9.127   9.492 -0.4680  0.2459 -0.1489
  679MOL0     C89516   6.015   9.000   9.416 -0.0138 -0.3860  0.4524
  679MOL0     C89517   6.143   8.929   9.459  0.0064 -0.1998 -0.3387
  679MOL0     C89518   6.273   9.013   9.421  0.6330  0.8593 -0.3847
  679MOL0     C89519   6.392   8.950   9.488  0.1622 -1.3197 -0.0294
  679MOL0     O89520   6.433   8.827   9.425  0.0702 -0.2129  0.0153
  679MOL0     C89521   6.538   8.755   9.471  0.0192 -0.5472 -0.1514
  679MOL0     C89522   6.606   8.777   9.592  0.2855  0.3615  0.3415
  679MOL0     C89523   6.722   8.699   9.616 -0.8586  0.5849 -0.3818
  679MOL0     C89524   6.767   8.607   9.521  0.0139  0.1618  0.0222
  679MOL0     C89525   6.903   8.540   9.540 -0.3891  0.5180  0.2756
  679MOL0     O89526   6.964   8.562   9.658  0.3762 -0.0790 -0.1705
  679MOL0     C89527   7.080   8.499   9.687 -0.7964  0.4678  0.6759
  679MOL0     C89528   7.160   8.575   9.774  0.1872  0.3713 -0.8859
  679MOL0     C89529   7.285   8.522   9.811  0.0208 -0.7637 -0.2247
  679MOL0     C89530   7.332   8.397   9.771 -0.0781  0.2019 -0.8577
  679MOL0     O89531   7.452   8.343   9.807 -0.1510  0.3149  0.8575
  679MOL0     C89532   7.555   8.432   9.853 -0.3831  0.4041 -0.6590
  679MOL0     C89533   7.685   8.357   9.882 -0.0444  0.2581  0.3823
  679MOL0     C89534   7.768   8.362   9.769 -0.2925 -0.2259 -0.3095
  679MOL0     C89535   7.886   8.271   9.767 -1.1496 -0.0036  0.2001
  679MOL0     C89536   7.976   8.298   9.893  0.5666  0.0533  0.8742
  679MOL0     C89537   8.134   8.272   9.853  0.2337 -1.5312  0.2197
  679MOL0     C89538   8.206   8.392   9.786 -0.4190  0.3517  0.3203
  679MOL0     C89539   8.228   8.521   9.859  0.3743  0.0943  0.2741
  679MOL0    Cl89540   8.368   8.504   9.962 -0.1064  0.1532  0.1353
  679MOL0     C89541   7.247   8.321   9.689 -0.2616  0.5205  0.3533
  679MOL0     C89542   7.128   8.371   9.646  0.2491  0.0005  0.2028
  679MOL0     O89543   6.949   8.478   9.444 -0.1654 -0.0038 -0.2857
  679MOL0     C89544   6.698   8.585   9.409 -0.6286 -0.7063  0.7222
  679MOL0     C89545   6.586   8.657   9.386  0.1633  0.7675 -0.9259
  679MOL0     N89546   5.928   9.130   9.617  0.3411  0.1537 -0.2268
  679MOL0     N89547   5.903   9.252   9.651 -0.2931  0.4510 -0.0102
  679MOL0     C89548   7.016   9.206   9.485  0.9157 -0.0422  0.4418
  679MOL0     C89549   7.107   9.112   9.468 -0.8576  0.1647 -0.5225
  679MOL0     C89550   7.400   8.766   9.429  0.0285 -0.8429 -0.1145
  679MOL0     C89551   7.348   8.637   9.433 -0.6146 -0.1418  0.1061
  679MOL0     C89552   7.422   8.522   9.440  0.1693  0.2007 -0.5588
  679MOL0     C89553   7.554   8.543   9.429 -0.1988 -0.0431 -0.8131
  679MOL0     O89554   7.628   8.435   9.430  0.0907  0.5293  0.1841
  679MOL0     C89555   7.638   8.345   9.316 -0.1675  0.2819 -0.1609
  679MOL0     C89556   7.709   8.417   9.193  0.5702  0.2208  0.2157
  679MOL0     C89557   7.858   8.441   9.225  0.1989 -0.0754  0.0591
  679MOL0     C89558   7.928   8.493   9.102  0.4995  0.0495 -0.8848
  679MOL0     C89559   8.030   8.597   9.142  0.1732 -0.0672  0.7468
  679MOL0     C89560   8.111   8.687   9.157  0.0974  0.8630 -0.4427
  679MOL0     C89561   7.611   8.667   9.419 -0.1153 -0.4194 -0.8590
  679MOL0     C89562   7.532   8.777   9.427 -0.0672  0.8940  0.7439
  679MOL0     H89563   6.969   8.834   9.578  3.8297  0.1363  1.6224
  679MOL0     H89564   6.775   8.997   9.606  0.5258  1.4661 -2.1394
  679MOL0     H89565   6.720   9.223   9.750 -2.2100  3.0119  1.3731
  679MOL0     H89566   6.623   9.194   9.601  1.0115 -0.8218  0.3534
  679MOL0     H89567   6.648   9.442   9.561  3.9080 -0.4897  0.2661
  679MOL0     H89568   6.714   9.460   9.721 -0.3487  2.6083 -1.5118
  679MOL0     H89569   6.500   9.391   9.819  1.5650  0.7823 -0.7881
  679MOL0     H89570   6.438   9.344   9.656 -2.5597  3.4612 -3.1555
  679MOL0     H89571   6.514   9.612   9.755  1.7921 -2.3404 -0.1390
  679MOL0     H89572   6.469   9.577   9.584  3.2285 -0.4521  0.2451
  679MOL0     H89573   6.304   9.692   9.695  1.0887 -0.2506  0.6641
  679MOL0     H89574   6.271   9.560   9.817 -1.7750  0.2154  0.3408
  679MOL0     H89575   6.225   9.398   9.617 -1.0960 -1.1502 -5.7104
  679MOL0     H89576   6.234   9.529   9.512  0.7192 -2.6686 -0.4468
  679MOL0     H89577   6.039   9.503   9.759 -1.1272 -1.8598 -0.0363
  679MOL0     H89578   6.052   9.645   9.658 -0.8071 -0.5556  3.2397
  679MOL0     H89579   5.987   9.509   9.455 -0.7355 -2.3071 -1.0118
  679MOL0     H89580   5.860   9.515   9.583  1.4554  1.5464  0.8147
  679MOL0     H89581   6.021   9.278   9.346 -1.0695  0.8565  0.3172
  679MOL0     H89582   6.024   9.035   9.313 -2.0446 -1.4014 -0.1165
  679MOL0     H89583   5.929   8.934   9.423 -0.7258  0.3349 -1.0927
  679MOL0     H89584   6.144   8.835   9.403  1.1512  0.0601 -0.7887
  679MOL0     H89585   6.140   8.927   9.569  1.9171  0.5908 -0.2374
  679MOL0     H89586   6.294   9.012   9.314 -1.4560  2.6989 -0.8897
  679MOL0     H89587   6.269   9.120   9.440  0.6356  0.7650  0.1641
  679MOL0     H89588   6.363   8.926   9.591 -3.0690  0.2314 -0.4476
  679MOL0     H89589   6.463   9.033   9.491 -4.0162  2.6534  2.5904
  679MOL0     H89590   6.564   8.846   9.664  2.3964 -0.1178  2.1499
  679MOL0     H89591   6.760   8.724   9.715 -3.1626  4.8590 -0.3572
  679MOL0     H89592   7.127   8.671   9.813 -1.0961 -0.9598  1.5530
  679MOL0     H89593   7.348   8.586   9.873 -1.4627 -0.1641  0.7209
  679MOL0     H89594   7.523   8.476   9.948  1.3334 -0.8909  0.5813
  679MOL0     H89595   7.569   8.514   9.782 -2.2218  1.1063 -0.2671
  679MOL0     H89596   7.667   8.256   9.921 -0.0667 -0.0260 -0.3641
  679MOL0     H89597   7.737   8.413   9.961 -1.4001  2.0788  0.0607
  679MOL0     H89598   7.809   8.463   9.757  3.1099 -1.3667  0.5845
  679MOL0     H89599   7.709   8.335   9.681 -0.5249  0.5520 -0.3963
  679MOL0     H89600   7.851   8.167   9.777 -0.7563 -0.2698 -0.9577
  679MOL0     H89601   7.935   8.286   9.670 -0.1601 -1.4498  0.4325
  679MOL0     H89602   7.952   8.216   9.961 -2.6472 -0.1975 -0.4209
  679MOL0     H89603   7.966   8.399   9.934  0.7060 -0.5973  2.6057
  679MOL0     H89604   8.139   8.201   9.770 -0.1179  0.9328 -2.0561
  679MOL0     H89605   8.177   8.231   9.944 -1.6561  0.5648  2.1822
  679MOL0     H89606   8.301   8.356   9.747  0.4177  0.2869  2.3229
  679MOL0     H89607   8.143   8.430   9.704  1.3039  1.6421 -0.4698
  679MOL0     H89608   8.142   8.551   9.920 -0.1838  0.4069 -0.6370
  679MOL0     H89609   8.243   8.600   9.785 -0.9474 -1.4546 -1.7546
  679MOL0     H89610   7.283   8.223   9.660  3.9752  0.9870  3.1258
  679MOL0     H89611   7.062   8.313   9.582 -0.1510 -1.2865  1.7113
  679MOL0     H89612   6.726   8.525   9.324 -3.7584 -2.3536  0.7060
  679MOL0     H89613   6.528   8.628   9.299  0.0073  0.8520 -0.8496
  679MOL0     H89614   7.043   9.299   9.436  3.6365 -1.3095 -0.6485
  679MOL0     H89615   7.202   9.146   9.428 -1.3905  0.5834 -1.4748
  679MOL0     H89616   7.240   8.628   9.435 -0.5058 -1.7521  0.2462
  679MOL0     H89617   7.379   8.424   9.460  4.2491 -1.6230  0.3749
  679MOL0     H89618   7.537   8.314   9.286 -0.5491  0.1707  1.1528
  679MOL0     H89619   7.695   8.257   9.346 -1.0914  0.3866  2.0988
  679MOL0     H89620   7.709   8.364   9.098 -0.5430  0.7229 -0.0791
  679MOL0     H89621   7.667   8.516   9.170 -1.1263 -0.9075 -2.0064
  679MOL0     H89622   7.922   8.362   9.265 -0.4160 -1.8387 -2.1651
  679MOL0     H89623   7.858   8.519   9.301  1.4364  0.3583 -0.3614
  679MOL0     H89624   7.981   8.413   9.049  0.6226 -0.6743  0.2969
  679MOL0     H89625   7.864   8.538   9.026  3.0807 -0.1898 -3.3900
  679MOL0     H89626   8.182   8.768   9.158  0.0725  0.9502 -2.4333
  679MOL0     H89627   7.719   8.669   9.415 -0.0300 -0.4642  0.8334
  679MOL0     H89628   7.576   8.876   9.426  0.1517  0.8029 -0.3415
  680MOL0     O89629   7.530   8.117  10.831 -0.2939 -0.4465 -0.5616
  680MOL0     C89630   7.462   8.039  10.894 -0.3302  0.4721 -0.2499
  680MOL0     O89631   7.365   8.069  10.988 -0.3665 -0.7130 -0.0576
  680MOL0     C89632   7.343   8.203  11.008  0.2726 -0.4860 -0.0275
  680MOL0     C89633   7.422   8.261  11.105  0.0848  0.8397 -0.2591
  680MOL0     C89634   7.403   8.396  11.134  0.2680 -0.0762  0.5975
  680MOL0     C89635   7.300   8.475  11.074  0.2627 -0.5894  0.3490
  680MOL0     O89636   7.257   8.599  11.107 -0.4902 -0.1250  0.2470
  680MOL0     C89637   7.282   8.701  11.008  0.0097  0.4005 -0.1041
  680MOL0     C89638   7.233   8.842  11.058  0.1681  1.2698  0.7041
  680MOL0     C89639   7.080   8.826  11.060 -0.5375  0.7667 -0.0739
  680MOL0     C89640   7.009   8.946  11.102  0.3017 -0.4100 -0.1801
  680MOL0     C89641   6.866   8.930  11.072  0.7377  0.3148  0.7295
  680MOL0     C89642   6.766   9.025  11.135 -0.1923  0.4911 -0.1375
  680MOL0     C89643   6.618   8.998  11.115  0.5829 -0.0297  0.9683
  680MOL0     C89644   6.558   8.869  11.171 -0.6895 -0.3000 -0.1843
  680MOL0     N89645   6.415   8.879  11.158 -0.7185 -0.1936  0.2730
  680MOL0     C89646   6.339   8.959  11.236  0.2777  0.1769 -0.2483
  680MOL0     C89647   6.231   8.976  11.155  0.4592  0.2155  1.0478
  680MOL0     C89648   6.108   9.051  11.185  0.2195  0.0403  0.3798
  680MOL0     C89649   6.018   8.992  11.291  0.2268 -0.2449 -0.0780
  680MOL0     C89650   5.961   8.857  11.239  0.0505 -0.4435 -0.3248
  680MOL0     C89651   5.847   8.823  11.343  0.1030 -1.6018 -0.1114
  680MOL0     O89652   5.749   8.746  11.277 -0.1998  0.0933 -0.5499
  680MOL0     C89653   5.656   8.679  11.355  0.2399 -0.4770  0.3743
  680MOL0     C89654   5.549   8.621  11.288  0.0545 -0.7137  0.0366
  680MOL0     C89655   5.441   8.563  11.353 -0.2015  0.4089  0.3552
  680MOL0     C89656   5.429   8.567  11.489 -0.0076  0.4216  0.5731
  680MOL0     C89657   5.315   8.511  11.559 -0.9061 -0.6481  0.2956
  680MOL0     O89658   5.323   8.497  11.694 -0.0178 -0.0757 -0.3787
  680MOL0     C89659   5.247   8.400  11.762  0.0985  0.0879  0.6015
  680MOL0     C89660   5.313   8.287  11.819 -0.7459  0.1808  0.9691
  680MOL0     C89661   5.242   8.182  11.878 -0.5804  0.0575 -0.2231
  680MOL0     C89662   5.106   8.201  11.906 -0.6090 -0.5437 -0.5010
  680MOL0     O89663   5.049   8.099  11.975 -0.0552 -0.2396 -0.4945
  680MOL0     C89664   4.923   8.054  11.930  0.7060  0.5607 -0.0530
  680MOL0     C89665   4.877   7.923  11.998 -0.3777  0.1691  0.0451
  680MOL0     C89666   4.970   7.803  11.980 -0.6389  0.6151  0.7366
  680MOL0     C89667   4.902   7.680  12.042  0.3303  0.9320 -0.0788
  680MOL0     C89668   4.988   7.554  12.055  0.5042  0.0007 -0.2029
  680MOL0     C89669   5.116   7.581  12.143 -0.6103 -0.7453 -0.3142
  680MOL0     C89670   5.200   7.450  12.157  0.1948  0.3508 -0.4675
  680MOL0     C89671   5.298   7.476  12.272  0.0916  1.0670  0.3177
  680MOL0    Cl89672   5.395   7.328  12.324 -0.3705  0.2382  0.1707
  680MOL0     C89673   5.049   8.323  11.863 -0.0593  0.0703  0.6838
  680MOL0     C89674   5.118   8.414  11.783  0.5273  0.4594 -0.2567
  680MOL0     O89675   5.223   8.478  11.491 -0.2324 -0.4827 -0.7501
  680MOL0     C89676   5.536   8.632  11.562 -0.7480 -0.6721  0.7855
  680MOL0     C89677   5.640   8.696  11.494 -0.9474  0.1181  0.7814
  680MOL0     N89678   6.235   8.904  11.040 -0.6672 -0.0152  0.8707
  680MOL0     N89679   6.348   8.842  11.043  0.0928 -0.4626  0.1198
  680MOL0     C89680   7.214   8.409  10.986 -0.2934  0.5716  0.0887
  680MOL0     C89681   7.244   8.280  10.952 -0.2032  1.9483  0.4403
  680MOL0     C89682   7.520   7.903  10.889  0.5441  0.2770  0.3303
  680MOL0     C89683   7.471   7.793  10.971  0.0466  0.4331  0.0777
  680MOL0     C89684   7.525   7.661  10.964  0.8449 -0.0898 -0.2833
  680MOL0     C89685   7.631   7.638  10.879 -0.5192  0.1946  0.5030
  680MOL0     O89686   7.699   7.523  10.875 -0.6814  1.1025 -0.4106
  680MOL0     C89687   7.701   7.436  10.997  0.2985 -0.8067  0.5462
  680MOL0     C89688   7.617   7.315  10.968  0.2700 -0.0181 -0.0655
  680MOL0     C89689   7.696   7.228  10.865 -0.0210  0.7268  0.2261
  680MOL0     C89690   7.634   7.081  10.847  0.4193  0.0925 -0.7872
  680MOL0     C89691   7.481   7.079  10.850 -0.8246 -0.1935  0.1473
  680MOL0     C89692   7.367   7.080  10.859  0.5768  0.2977  0.4541
  680MOL0     C89693   7.676   7.736  10.793 -0.5486 -0.0057 -0.2973
  680MOL0     C89694   7.627   7.865  10.807  0.7106  0.4237 -0.0054
  680MOL0     H89695   7.497   8.204  11.158 -0.9928 -1.3382 -0.9412
  680MOL0     H89696   7.461   8.446  11.211  2.1867 -0.5144 -0.5158
  680MOL0     H89697   7.252   8.666  10.909  3.1193 -0.0064 -0.9957
  680MOL0     H89698   7.390   8.704  10.993 -0.1790 -0.9548 -2.1276
  680MOL0     H89699   7.253   8.920  10.984 -1.1083  0.3710 -0.6341
  680MOL0     H89700   7.266   8.880  11.156 -2.3651  0.2356  2.0530
  680MOL0     H89701   7.047   8.735  11.111  0.3241  1.0157  0.9440
  680MOL0     H89702   7.051   8.818  10.954 -2.6821  1.4130  0.4120
  680MOL0     H89703   7.019   8.956  11.211 -0.9527  0.6749 -0.1332
  680MOL0     H89704   7.036   9.032  11.041 -0.8003  1.0087  1.2653
  680MOL0     H89705   6.824   8.834  11.103  1.5687  0.2928  1.8487
  680MOL0     H89706   6.846   8.928  10.964 -2.6537 -0.4575  1.2612
  680MOL0     H89707   6.790   9.128  11.111 -1.1152  0.3539 -1.8065
  680MOL0     H89708   6.787   9.018  11.243  3.3708  1.8675 -0.6133
  680MOL0     H89709   6.555   9.080  11.152 -1.7609 -0.0571 -2.4500
  680MOL0     H89710   6.603   8.995  11.007  2.8503 -1.5399  0.6554
  680MOL0     H89711   6.593   8.857  11.274  1.1120 -1.1377 -0.8546
  680MOL0     H89712   6.587   8.781  11.114 -0.9330 -0.4371 -0.0963
  680MOL0     H89713   6.379   8.993  11.331  1.5218 -0.7152 -0.4299
  680MOL0     H89714   6.036   9.048  11.103 -1.1468  1.5814  1.4462
  680MOL0     H89715   6.132   9.154  11.215 -1.7526  0.5851  0.2019
  680MOL0     H89716   5.933   9.059  11.302  1.5992  1.2653  2.0962
  680MOL0     H89717   6.072   8.981  11.385 -0.2395 -1.7089  0.0420
  680MOL0     H89718   5.926   8.872  11.137  1.7129  2.1786 -0.5855
  680MOL0     H89719   6.035   8.776  11.242  0.7337  0.1941  1.6888
  680MOL0     H89720   5.788   8.909  11.374 -3.3737 -3.5248 -0.9074
  680MOL0     H89721   5.887   8.773  11.432 -0.6337 -1.5518  0.2555
  680MOL0     H89722   5.547   8.609  11.180  1.1268 -2.3237  0.1724
  680MOL0     H89723   5.366   8.511  11.294 -0.2604  1.8154 -0.8824
  680MOL0     H89724   5.421   8.273  11.819 -0.8090 -0.3335  1.1286
  680MOL0     H89725   5.287   8.086  11.904  0.5899  0.4987 -0.5581
  680MOL0     H89726   4.925   8.039  11.822 -0.2491  0.0565 -0.0170
  680MOL0     H89727   4.857   8.138  11.957  1.6561  0.5203  2.7217
  680MOL0     H89728   4.781   7.901  11.951 -1.7037  0.2029  2.5607
  680MOL0     H89729   4.861   7.943  12.105 -3.1188 -1.5733  0.0526
  680MOL0     H89730   5.068   7.829  12.021  0.0111  0.8945 -0.9024
  680MOL0     H89731   4.987   7.787  11.873  3.2021  2.3741  0.9033
  680MOL0     H89732   4.865   7.711  12.140  0.6102 -0.8891  0.6386
  680MOL0     H89733   4.813   7.646  11.988 -0.3652 -1.0402  2.1530
  680MOL0     H89734   5.017   7.522  11.955  2.6144  0.4920  0.2081
  680MOL0     H89735   4.931   7.475  12.106 -0.0593 -0.9576 -2.2339
  680MOL0     H89736   5.085   7.626  12.237  1.4770  1.0327 -0.3977
  680MOL0     H89737   5.178   7.657  12.094  0.2953  0.5310  2.6230
  680MOL0     H89738   5.148   7.357  12.181  1.2945  0.1483  1.2998
  680MOL0     H89739   5.259   7.435  12.066  0.1452 -0.0264 -0.4376
  680MOL0     H89740   5.233   7.506  12.355 -1.6089  0.4708 -0.7440
  680MOL0     H89741   5.375   7.550  12.246 -0.7851  1.7631 -0.3565
  680MOL0     H89742   4.944   8.336  11.888 -0.7324 -0.9624 -1.4413
  680MOL0     H89743   5.075   8.504  11.742  2.4085  1.4861 -0.1003
  680MOL0     H89744   5.532   8.641  11.670 -0.0311 -2.4531  0.9988
  680MOL0     H89745   5.714   8.754  11.548 -0.9424  1.9247 -1.0540
  680MOL0     H89746   7.131   8.451  10.930 -0.5774 -0.9873 -0.7153
  680MOL0     H89747   7.178   8.236  10.877 -3.4164 -0.0281  4.0307
  680MOL0     H89748   7.399   7.806  11.051  1.1804  1.0889  1.0282
  680MOL0     H89749   7.482   7.573  11.010 -0.0757 -0.0391 -1.0272
  680MOL0     H89750   7.664   7.477  11.091  4.3593 -1.9224  2.8522
  680MOL0     H89751   7.807   7.414  11.016  1.0095  3.2738  2.5465
  680MOL0     H89752   7.607   7.267  11.066 -1.3661  0.3961  0.0097
  680MOL0     H89753   7.517   7.326  10.925 -0.4162 -3.1476  0.4520
  680MOL0     H89754   7.803   7.231  10.884  0.0275 -0.2758  0.1312
  680MOL0     H89755   7.686   7.266  10.763  0.8313 -0.9579 -0.5131
  680MOL0     H89756   7.677   7.034  10.758  2.7459  0.9187 -0.1647
  680MOL0     H89757   7.676   7.023  10.930  1.6938  0.5438 -1.1012
  680MOL0     H89758   7.261   7.091  10.869  0.8712  2.9878  1.3748
  680MOL0     H89759   7.752   7.717  10.719  0.3058 -1.0254  0.8174
  680MOL0     H89760   7.656   7.944  10.739 -0.7999  0.4012 -0.7197
  681MOL0     O89761   6.813   2.600   5.161 -0.6754  0.3822 -0.1202
  681MOL0     C89762   6.751   2.700   5.195  0.1536  0.5363 -0.2185
  681MOL0     O89763   6.797   2.803   5.281  0.4548 -0.1866 -0.2734
  681MOL0     C89764   6.919   2.801   5.340 -0.1440 -0.6791  0.6472
  681MOL0     C89765   7.034   2.785   5.260  0.3590  0.1395 -0.7377
  681MOL0     C89766   7.166   2.797   5.321  0.1160 -0.3158  0.3069
  681MOL0     C89767   7.176   2.815   5.459  0.4841  0.7415  0.0924
  681MOL0     O89768   7.303   2.815   5.507 -0.7483 -0.2625 -0.0076
  681MOL0     C89769   7.327   2.884   5.629  0.1641  0.1797  0.1275
  681MOL0     C89770   7.474   2.919   5.650  0.0472  0.1559 -0.2079
  681MOL0     C89771   7.532   2.995   5.534  0.1042  0.2750  0.0991
  681MOL0     C89772   7.649   3.082   5.580 -0.8426 -0.0723  0.3426
  681MOL0     C89773   7.755   3.012   5.666  0.4466  0.7737 -0.3310
  681MOL0     C89774   7.849   3.119   5.722 -0.7914  0.0115 -0.2228
  681MOL0     C89775   7.985   3.041   5.783  0.2855 -0.4053  0.2672
  681MOL0     C89776   7.955   2.979   5.921  0.3460 -0.2087  0.2477
  681MOL0     N89777   8.075   2.923   5.984  0.4328 -0.0229  0.1624
  681MOL0     C89778   8.169   3.016   6.030 -0.4849 -0.7062  0.6055
  681MOL0     C89779   8.264   2.943   6.089 -1.2203 -0.2443  1.5630
  681MOL0     C89780   8.382   3.002   6.163  1.1001 -0.1037 -0.1214
  681MOL0     C89781   8.354   3.144   6.213 -0.9171  0.7331  1.0672
  681MOL0     C89782   8.238   3.158   6.307  0.2826 -0.6346 -0.0292
  681MOL0     C89783   8.235   3.299   6.369  1.0096 -0.3789 -0.3430
  681MOL0     O89784   8.114   3.305   6.450  0.4795 -0.4611 -0.1073
  681MOL0     C89785   7.985   3.303   6.390  0.1086 -0.0194 -0.4462
  681MOL0     C89786   7.873   3.266   6.469 -0.1802 -0.1027 -0.1877
  681MOL0     C89787   7.739   3.266   6.415 -0.1148  0.4562 -0.4726
  681MOL0     C89788   7.722   3.282   6.275 -0.7198  0.0908  0.0569
  681MOL0     C89789   7.595   3.266   6.209  0.2758  0.0322 -0.6737
  681MOL0     O89790   7.591   3.237   6.082  0.0933  0.1401  0.1464
  681MOL0     C89791   7.473   3.230   6.014  0.1662  0.6908 -0.4895
  681MOL0     C89792   7.441   3.321   5.913 -0.4187 -0.2560  0.2300
  681MOL0     C89793   7.324   3.307   5.840 -0.0633  0.3725  0.1116
  681MOL0     C89794   7.242   3.194   5.868 -0.2963 -0.1996  0.5578
  681MOL0     O89795   7.122   3.181   5.800  0.3599 -0.9855 -0.6431
  681MOL0     C89796   7.033   3.294   5.837  0.5963 -0.4656 -0.1856
  681MOL0     C89797   6.900   3.252   5.768  0.9801  0.0273  0.0141
  681MOL0     C89798   6.788   3.348   5.802 -0.0169  0.1640 -0.5534
  681MOL0     C89799   6.656   3.299   5.749  0.2821  0.3682 -0.4225
  681MOL0     C89800   6.539   3.396   5.759 -0.2373 -0.5043 -0.0445
  681MOL0     C89801   6.401   3.344   5.705  1.1307 -0.0891  0.1519
  681MOL0     C89802   6.356   3.212   5.773 -0.1720 -0.7024 -0.1656
  681MOL0     C89803   6.214   3.167   5.729 -0.2039  0.0898 -0.4541
  681MOL0    Cl89804   6.111   3.263   5.832 -0.3384  0.5796  0.1349
  681MOL0     C89805   7.276   3.103   5.966 -0.2075 -0.3844  0.3820
  681MOL0     C89806   7.392   3.113   6.038  0.1643  0.0298  0.2053
  681MOL0     O89807   7.497   3.269   6.281  0.3273 -0.1125 -0.8689
  681MOL0     C89808   7.836   3.313   6.204  0.3541 -0.6876 -1.2183
  681MOL0     C89809   7.962   3.332   6.257  0.4056  0.1069 -0.6337
  681MOL0     N89810   8.238   2.808   6.074  0.0997  0.2488  0.1855
  681MOL0     N89811   8.123   2.795   6.011 -0.0270  0.8977  1.1121
  681MOL0     C89812   7.053   2.834   5.528 -0.8204 -0.4986 -0.8498
  681MOL0     C89813   6.930   2.820   5.475  0.4366 -0.0612 -0.0796
  681MOL0     C89814   6.611   2.709   5.149 -0.6124 -0.0681 -1.1043
  681MOL0     C89815   6.526   2.812   5.206 -0.5214  0.4935  0.0265
  681MOL0     C89816   6.401   2.817   5.161  0.5330  0.3468  0.1314
  681MOL0     C89817   6.351   2.725   5.064  0.5025 -0.6783  0.2133
  681MOL0     O89818   6.228   2.759   5.019 -1.3553 -0.1544  0.1788
  681MOL0     C89819   6.184   2.649   4.932 -0.4652 -0.0919 -0.9492
  681MOL0     C89820   6.036   2.667   4.906 -0.0922  0.6398 -0.0813
  681MOL0     C89821   5.972   2.706   5.042 -0.2710  0.0802  0.1172
  681MOL0     C89822   5.820   2.656   5.030 -0.1820  0.0164  0.1738
  681MOL0     C89823   5.728   2.722   5.129  0.2926 -0.1801  0.7515
  681MOL0     C89824   5.654   2.775   5.207  0.1311  0.0350 -0.1928
  681MOL0     C89825   6.442   2.639   5.001  0.7949 -0.9452  0.2634
  681MOL0     C89826   6.569   2.634   5.036 -0.9865  0.3577  0.5461
  681MOL0     H89827   7.018   2.766   5.154  0.0511 -3.2577 -0.1849
  681MOL0     H89828   7.256   2.785   5.261 -1.7211 -2.7734 -2.2170
  681MOL0     H89829   7.295   2.823   5.714  1.6083  0.4502  0.9009
  681MOL0     H89830   7.275   2.981   5.634 -1.4930 -0.3762 -3.4316
  681MOL0     H89831   7.527   2.824   5.653  1.7498  0.7875 -4.1276
  681MOL0     H89832   7.491   2.970   5.745  2.5763  0.9434 -0.9922
  681MOL0     H89833   7.457   3.059   5.487  0.4609  2.1584  1.9411
  681MOL0     H89834   7.576   2.919   5.469  0.4378 -0.7244  1.4400
  681MOL0     H89835   7.700   3.116   5.489 -2.1898 -2.3430 -1.3561
  681MOL0     H89836   7.596   3.165   5.628 -0.7610 -0.9485  2.0080
  681MOL0     H89837   7.813   2.949   5.598  1.7834 -0.4370  1.8282
  681MOL0     H89838   7.724   2.949   5.749  0.5807 -0.8931 -1.5012
  681MOL0     H89839   7.796   3.188   5.789  0.8729 -0.6467  1.8898
  681MOL0     H89840   7.877   3.190   5.643  1.3043  2.4375  2.4820
  681MOL0     H89841   8.029   2.963   5.720  0.3319 -0.1642 -0.0053
  681MOL0     H89842   8.052   3.127   5.789 -3.2495  2.8215 -2.0036
  681MOL0     H89843   7.875   2.904   5.924  0.4739 -0.3243  2.6382
  681MOL0     H89844   7.918   3.060   5.985 -2.6674 -1.8960  0.8852
  681MOL0     H89845   8.159   3.124   6.017  1.2894 -0.4847  0.8266
  681MOL0     H89846   8.460   3.017   6.088  0.5336  0.6944 -0.5680
  681MOL0     H89847   8.423   2.937   6.241  0.1258 -3.4400 -2.1714
  681MOL0     H89848   8.331   3.217   6.134  1.7960  0.5539  0.0026
  681MOL0     H89849   8.447   3.175   6.260  0.4939 -2.3715  0.5500
  681MOL0     H89850   8.144   3.136   6.255 -0.7249 -0.3347  1.6111
  681MOL0     H89851   8.252   3.096   6.396 -0.0538 -1.1421 -0.3246
  681MOL0     H89852   8.251   3.372   6.289  2.1372  1.1149  1.1819
  681MOL0     H89853   8.324   3.330   6.424  3.2987 -0.3962 -3.7015
  681MOL0     H89854   7.881   3.257   6.577 -1.2270  0.7799 -0.0206
  681MOL0     H89855   7.663   3.244   6.488 -0.0099  1.3876 -0.0690
  681MOL0     H89856   7.511   3.402   5.900 -0.3534 -0.7131 -3.2370
  681MOL0     H89857   7.293   3.375   5.762 -3.4858  1.3863  2.1518
  681MOL0     H89858   7.069   3.386   5.789 -1.6407 -0.9775 -3.1524
  681MOL0     H89859   7.006   3.296   5.943 -2.2593 -0.1639 -0.8404
  681MOL0     H89860   6.871   3.152   5.802 -1.0933  0.5954  0.0866
  681MOL0     H89861   6.917   3.253   5.660 -1.6251 -1.0092 -0.4833
  681MOL0     H89862   6.816   3.436   5.744  1.9486  0.8609  1.3063
  681MOL0     H89863   6.781   3.370   5.909  0.3300  1.4855 -0.7771
  681MOL0     H89864   6.668   3.269   5.644  3.4537 -1.7328  0.4199
  681MOL0     H89865   6.630   3.221   5.820  3.2855 -1.0393 -0.7528
  681MOL0     H89866   6.559   3.482   5.694 -1.0609  0.2085  0.6336
  681MOL0     H89867   6.528   3.426   5.863 -0.5922 -0.1294 -0.1879
  681MOL0     H89868   6.403   3.332   5.597 -0.8953  0.0441  0.0742
  681MOL0     H89869   6.330   3.422   5.733  2.0369  0.5932  0.6038
  681MOL0     H89870   6.435   3.144   5.738  0.1968 -0.4409  0.1542
  681MOL0     H89871   6.364   3.216   5.882 -2.0493  1.5145 -0.0447
  681MOL0     H89872   6.199   3.061   5.752  1.2531  0.1343  0.8559
  681MOL0     H89873   6.189   3.194   5.626  2.1390 -0.0474 -1.1056
  681MOL0     H89874   7.196   3.033   5.987 -1.1390  1.1411  2.1178
  681MOL0     H89875   7.416   3.033   6.107 -0.8754  1.2105  2.0339
  681MOL0     H89876   7.825   3.336   6.099 -1.0398 -1.1937 -1.1990
  681MOL0     H89877   8.042   3.384   6.204 -1.3715  1.5415 -2.0629
  681MOL0     H89878   7.058   2.855   5.635  0.5255 -0.5459 -0.8922
  681MOL0     H89879   6.836   2.814   5.529  0.0439  2.2372 -0.4106
  681MOL0     H89880   6.553   2.880   5.287  1.4723 -0.2814  0.0680
  681MOL0     H89881   6.332   2.896   5.190  3.5700  3.5226 -0.6852
  681MOL0     H89882   6.209   2.557   4.986  1.3489  0.4430 -0.8091
  681MOL0     H89883   6.225   2.649   4.830 -0.8608 -0.8899 -1.1187
  681MOL0     H89884   6.025   2.753   4.840 -1.8226  0.1307 -0.4980
  681MOL0     H89885   5.985   2.585   4.854 -1.0793  3.0822 -3.2554
  681MOL0     H89886   5.968   2.814   5.060  1.0118  0.2383 -0.4593
  681MOL0     H89887   6.030   2.665   5.125  1.1944 -0.5212 -1.1523
  681MOL0     H89888   5.778   2.669   4.930  0.3401  0.9252  0.0597
  681MOL0     H89889   5.825   2.547   5.041  0.6558 -0.0238 -0.4677
  681MOL0     H89890   5.590   2.813   5.283 -0.8210  0.6468 -1.2604
  681MOL0     H89891   6.416   2.566   4.924  1.1194 -0.8714  0.0826
  681MOL0     H89892   6.629   2.555   4.992 -0.6173  0.8751  0.1124
  682MOL0     O89893   8.535   7.659   3.129  0.0618  0.3959 -0.1909
  682MOL0     C89894   8.602   7.741   3.077  0.8314  1.3732  0.8760
  682MOL0     O89895   8.569   7.802   2.957 -0.1364  0.0738 -0.2403
  682MOL0     C89896   8.448   7.792   2.912  0.4851 -0.3622 -0.3811
  682MOL0     C89897   8.333   7.836   2.982 -0.3458 -0.5732 -0.9841
  682MOL0     C89898   8.203   7.809   2.937 -0.6866 -0.0639  0.3275
  682MOL0     C89899   8.182   7.742   2.817 -0.2694 -0.4812  0.1930
  682MOL0     O89900   8.055   7.712   2.780  0.3568 -0.3253  0.5554
  682MOL0     C89901   8.027   7.570   2.776 -0.5476  0.0649 -0.5520
  682MOL0     C89902   7.882   7.543   2.771 -0.2320  0.9003 -1.2105
  682MOL0     C89903   7.807   7.627   2.665  0.4334  0.5949 -0.2506
  682MOL0     C89904   7.663   7.567   2.655  0.2397 -0.4596 -0.4924
  682MOL0     C89905   7.594   7.567   2.522 -0.3281 -0.3064  0.0052
  682MOL0     C89906   7.626   7.436   2.443  0.0161  0.0173 -0.6967
  682MOL0     C89907   7.543   7.430   2.311  0.1194 -0.3343 -0.1557
  682MOL0     C89908   7.530   7.286   2.265 -0.4905 -0.3579  0.0814
  682MOL0     N89909   7.458   7.264   2.138 -0.2301  0.5452 -0.5570
  682MOL0     C89910   7.327   7.303   2.106  0.0353 -0.0456 -0.4190
  682MOL0     C89911   7.308   7.283   1.976 -1.0151  0.7642  0.0125
  682MOL0     C89912   7.184   7.307   1.903  0.2481  0.2498  0.0855
  682MOL0     C89913   7.073   7.208   1.943 -0.6857 -0.4410 -0.4171
  682MOL0     C89914   6.936   7.250   1.888 -0.3736 -0.0336  0.5958
  682MOL0     C89915   6.817   7.168   1.943 -0.4578  0.4685  0.0010
  682MOL0     O89916   6.827   7.147   2.085 -0.4351  0.6842  0.2861
  682MOL0     C89917   6.713   7.125   2.157  0.4497 -0.3121 -0.2227
  682MOL0     C89918   6.721   7.104   2.297 -0.1338 -0.1726  0.5164
  682MOL0     C89919   6.600   7.084   2.375 -1.0568 -0.6239  0.6062
  682MOL0     C89920   6.468   7.081   2.307 -1.6099 -0.0209  0.6997
  682MOL0     C89921   6.349   7.052   2.379  0.8300  0.3432  0.2659
  682MOL0     O89922   6.371   7.018   2.508 -0.6320 -0.3770 -0.2537
  682MOL0     C89923   6.258   7.005   2.588 -0.0127 -0.2160 -0.2634
  682MOL0     C89924   6.209   6.873   2.611  0.3529 -0.5022  0.3767
  682MOL0     C89925   6.102   6.860   2.704  0.3408  0.0570  0.5872
  682MOL0     C89926   6.056   6.967   2.779  0.0713  0.0313  0.1219
  682MOL0     O89927   5.950   6.952   2.865  0.2129 -0.0287  0.4329
  682MOL0     C89928   5.902   6.816   2.872 -0.1022  0.0786  0.5223
  682MOL0     C89929   5.794   6.822   2.985 -0.4323 -0.7899 -0.4698
  682MOL0     C89930   5.712   6.690   3.000 -0.1727 -0.8295  0.4839
  682MOL0     C89931   5.584   6.711   3.085  0.6361  0.0516 -0.2394
  682MOL0     C89932   5.584   6.691   3.239 -0.5060 -0.0551 -0.3544
  682MOL0     C89933   5.710   6.746   3.310 -0.1774  0.2825 -0.5019
  682MOL0     C89934   5.726   6.714   3.456  0.2241 -0.1439  0.2574
  682MOL0     C89935   5.607   6.755   3.545 -0.2307  1.3503 -0.0094
  682MOL0    Cl89936   5.520   6.613   3.611  0.0185  0.2439 -0.6590
  682MOL0     C89937   6.113   7.096   2.759 -0.0098  0.2898 -0.3407
  682MOL0     C89938   6.215   7.111   2.669  0.0647 -0.0431 -0.2465
  682MOL0     O89939   6.242   7.058   2.318  0.0652 -0.5711 -0.5054
  682MOL0     C89940   6.471   7.109   2.172  0.4942 -0.2982  0.5279
  682MOL0     C89941   6.584   7.126   2.099  0.1334 -0.6951 -0.4879
  682MOL0     N89942   7.429   7.226   1.922  0.3083 -0.1874 -0.7702
  682MOL0     N89943   7.517   7.215   2.021 -0.1299 -0.3081  0.4434
  682MOL0     C89944   8.299   7.713   2.738 -0.5626 -0.0519 -0.3449
  682MOL0     C89945   8.428   7.738   2.787  0.2819 -0.1742 -0.1058
  682MOL0     C89946   8.733   7.760   3.141  0.1264  0.2619 -0.3015
  682MOL0     C89947   8.843   7.819   3.061  0.4442  0.3979 -0.7790
  682MOL0     C89948   8.950   7.867   3.143  0.3706  0.4298 -0.4080
  682MOL0     C89949   8.966   7.844   3.286  0.6543 -0.4531  0.0655
  682MOL0     O89950   9.077   7.882   3.365 -0.2357 -0.8664 -0.1929
  682MOL0     C89951   9.201   7.909   3.302 -0.3983  0.1266  0.7548
  682MOL0     C89952   9.296   7.963   3.413 -0.1864 -0.2767  0.9113
  682MOL0     C89953   9.436   7.908   3.402  0.2189 -0.5098  0.0090
  682MOL0     C89954   9.520   7.987   3.506  0.2693 -0.7383  0.2051
  682MOL0     C89955   9.660   7.953   3.496 -0.1310 -0.8613  0.3537
  682MOL0     C89956   9.778   7.926   3.473 -0.3177 -0.1036  0.1183
  682MOL0     C89957   8.859   7.789   3.351  0.3864  0.3319 -0.0222
  682MOL0     C89958   8.743   7.747   3.283 -0.3129  0.0027 -0.8685
  682MOL0     H89959   8.337   7.887   3.078 -0.8646 -0.3978 -1.0530
  682MOL0     H89960   8.115   7.844   2.989  1.0431  1.9768  2.0934
  682MOL0     H89961   8.062   7.526   2.870 -2.5056  0.6899  0.5134
  682MOL0     H89962   8.075   7.527   2.688  1.2268 -1.0398  0.8844
  682MOL0     H89963   7.841   7.565   2.870 -2.1878 -0.2502 -1.7034
  682MOL0     H89964   7.865   7.436   2.754  0.7246  0.6756 -0.8351
  682MOL0     H89965   7.850   7.602   2.567  2.2321 -1.2280  0.9117
  682MOL0     H89966   7.805   7.735   2.675 -0.3715  0.6263 -0.6639
  682MOL0     H89967   7.656   7.466   2.697  2.1587  0.1725  1.5498
  682MOL0     H89968   7.604   7.636   2.716 -1.0739 -1.6093 -0.4076
  682MOL0     H89969   7.616   7.657   2.464  0.5332 -0.3201  0.2910
  682MOL0     H89970   7.489   7.571   2.553 -0.0685  1.2005  0.7892
  682MOL0     H89971   7.595   7.357   2.511 -0.4902  2.2142  1.7983
  682MOL0     H89972   7.733   7.430   2.420  0.0069 -4.1618 -0.4063
  682MOL0     H89973   7.440   7.460   2.331  0.7990  1.0959  1.4329
  682MOL0     H89974   7.591   7.492   2.234 -1.4411  0.2760 -0.6665
  682MOL0     H89975   7.483   7.218   2.336 -1.6443 -0.5566 -0.8381
  682MOL0     H89976   7.632   7.248   2.252  0.0249  1.1942 -0.7281
  682MOL0     H89977   7.257   7.346   2.177 -0.0678 -0.8255 -0.0343
  682MOL0     H89978   7.203   7.299   1.796 -0.6639  1.5221 -0.2080
  682MOL0     H89979   7.150   7.409   1.927 -0.4937  0.5881 -2.1879
  682MOL0     H89980   7.078   7.199   2.052  1.5652  0.6560 -0.3646
  682MOL0     H89981   7.099   7.112   1.898 -0.3293  0.8964 -3.2888
  682MOL0     H89982   6.926   7.356   1.912  1.2494 -0.1132  1.8273
  682MOL0     H89983   6.924   7.232   1.781 -2.3855 -2.4745  1.1357
  682MOL0     H89984   6.808   7.070   1.895 -1.8786  0.5037  0.1482
  682MOL0     H89985   6.731   7.229   1.915 -0.2810  0.4411 -0.6143
  682MOL0     H89986   6.825   7.112   2.328 -0.9822  2.3724  3.2171
  682MOL0     H89987   6.613   7.092   2.483 -1.6838  1.2898  0.5738
  682MOL0     H89988   6.239   6.792   2.546 -1.5387 -1.2169  0.3172
  682MOL0     H89989   6.062   6.760   2.693 -0.6463  0.6960 -2.8289
  682MOL0     H89990   5.968   6.731   2.891  1.7217  1.3410  0.0549
  682MOL0     H89991   5.854   6.790   2.777  0.1577  1.3198  0.0344
  682MOL0     H89992   5.723   6.898   2.952 -0.6599 -0.9965 -0.4592
  682MOL0     H89993   5.848   6.849   3.076  2.0597 -3.7211 -0.9029
  682MOL0     H89994   5.772   6.611   3.045 -1.5395 -2.2310 -0.0496
  682MOL0     H89995   5.682   6.656   2.900  1.9694  0.2731 -0.5851
  682MOL0     H89996   5.548   6.812   3.063  2.9048  1.0386  0.3201
  682MOL0     H89997   5.504   6.644   3.051 -0.7554  2.0665 -1.1459
  682MOL0     H89998   5.584   6.582   3.249  0.8905 -0.2703 -2.0879
  682MOL0     H89999   5.493   6.728   3.287 -0.8133 -0.5024 -0.5728
  682MOL0     H90000   5.704   6.854   3.293 -0.8579  0.2879 -0.2619
  682MOL0     H90001   5.800   6.709   3.259 -1.4403  0.1572 -2.7891
  682MOL0     H90002   5.742   6.607   3.475 -0.7253  0.1142  2.8159
  682MOL0     H90003   5.817   6.763   3.492  0.1008  0.8531 -0.7503
  682MOL0     H90004   5.535   6.825   3.501  0.0855  1.3811 -0.4756
  682MOL0     H90005   5.660   6.801   3.629  3.3858 -0.6758 -0.9740
  682MOL0     H90006   6.070   7.187   2.801 -1.8792 -0.5349 -0.3819
  682MOL0     H90007   6.263   7.203   2.636  0.1351 -0.0645 -0.2055
  682MOL0     H90008   6.378   7.108   2.116  0.1251  2.6326  0.9289
  682MOL0     H90009   6.570   7.136   1.992  1.2123  1.6053 -0.4750
  682MOL0     H90010   8.305   7.658   2.644  1.3905 -0.5984  0.0627
  682MOL0     H90011   8.515   7.708   2.729  0.2906 -0.3187 -0.0179
  682MOL0     H90012   8.830   7.835   2.955 -2.3851 -0.6569 -0.6948
  682MOL0     H90013   9.036   7.903   3.087  1.5282 -0.0154  1.0386
  682MOL0     H90014   9.198   7.985   3.223 -0.7638 -1.1506 -0.4908
  682MOL0     H90015   9.225   7.820   3.244  0.9404 -0.5310  2.2335
  682MOL0     H90016   9.294   8.071   3.400 -1.3689 -0.5691 -2.0621
  682MOL0     H90017   9.256   7.932   3.511  1.1375 -1.1743  1.2000
  682MOL0     H90018   9.472   7.935   3.302  1.9594  0.1031  0.7553
  682MOL0     H90019   9.427   7.800   3.408 -1.3668 -0.3951  0.0883
  682MOL0     H90020   9.501   8.092   3.482  1.2260 -0.7167 -0.5338
  682MOL0     H90021   9.486   7.965   3.607  0.1923 -2.1510 -0.1080
  682MOL0     H90022   9.877   7.895   3.449 -0.0006  0.6848  0.3672
  682MOL0     H90023   8.868   7.765   3.456  0.3548 -2.2610 -0.5599
  682MOL0     H90024   8.665   7.699   3.342  0.9257 -2.6613 -1.2160
  683MOL0     O90025   1.345   3.609  10.387 -0.6233  0.4400  0.2830
  683MOL0     C90026   1.356   3.495  10.335  0.4930 -0.1083 -0.1604
  683MOL0     O90027   1.280   3.389  10.349  0.5034  0.0488  0.1583
  683MOL0     C90028   1.155   3.400  10.416 -0.3319  0.3278  0.5980
  683MOL0     C90029   1.104   3.270  10.456 -0.3937 -0.6779 -0.3185
  683MOL0     C90030   0.988   3.246  10.529 -0.1254 -0.5939 -0.0375
  683MOL0     C90031   0.911   3.355  10.561  0.2704 -0.4848 -0.7050
  683MOL0     O90032   0.796   3.340  10.638  0.0896  0.8909 -0.2233
  683MOL0     C90033   0.682   3.424  10.614 -0.2676  0.6437  0.3127
  683MOL0     C90034   0.592   3.414  10.737 -0.3274  0.5053  0.8149
  683MOL0     C90035   0.482   3.518  10.727 -0.5781 -0.7607  0.6252
  683MOL0     C90036   0.379   3.487  10.617 -0.2133 -0.3474 -0.6804
  683MOL0     C90037   0.238   3.532  10.641 -0.0902  0.2390 -0.0327
  683MOL0     C90038   0.139   3.469  10.545  0.6543  0.9938  0.4706
  683MOL0     C90039   0.004   3.539  10.572 -0.4979 -0.0867 -0.0329
  683MOL0     C90040  -0.116   3.478  10.495  0.0674  0.0894  0.3690
  683MOL0     N90041  -0.233   3.554  10.502  0.8117 -0.5587 -0.1389
  683MOL0     C90042  -0.303   3.585  10.616  0.2324 -0.4762 -0.1291
  683MOL0     C90043  -0.397   3.679  10.577 -0.9912 -0.1117  0.8510
  683MOL0     C90044  -0.487   3.758  10.671 -0.1777 -0.1228  0.7658
  683MOL0     C90045  -0.628   3.706  10.702  0.4821 -0.7252 -0.2105
  683MOL0     C90046  -0.713   3.684  10.572 -0.4973 -0.0999  0.0142
  683MOL0     C90047  -0.825   3.592  10.605  0.1192 -0.5159 -0.0952
  683MOL0     O90048  -0.921   3.652  10.700  0.7719 -0.1768 -0.2052
  683MOL0     C90049  -1.026   3.728  10.657 -0.0953  0.0707 -0.4902
  683MOL0     C90050  -1.125   3.763  10.750  0.6508  0.3221 -0.0004
  683MOL0     C90051  -1.238   3.838  10.717  0.6619 -1.1987  0.7299
  683MOL0     C90052  -1.261   3.875  10.581  0.4450  0.0854 -0.5284
  683MOL0     C90053  -1.390   3.933  10.538 -0.7445 -0.4511 -0.2658
  683MOL0     O90054  -1.480   3.940  10.635  0.0560 -0.4894  0.3605
  683MOL0     C90055  -1.615   3.969  10.610 -0.6578  0.5487  0.4043
  683MOL0     C90056  -1.682   4.000  10.489 -0.1584 -0.8879 -0.1932
  683MOL0     C90057  -1.818   4.053  10.489 -0.4000 -0.2565  0.1021
  683MOL0     C90058  -1.900   4.054  10.605  0.0195  0.2902 -0.5967
  683MOL0     O90059  -2.036   4.084  10.607  0.7183  0.2305  0.2826
  683MOL0     C90060  -2.099   4.146  10.489  0.6427 -0.4942 -0.4961
  683MOL0     C90061  -2.236   4.209  10.536  0.1623  0.1511  0.7134
  683MOL0     C90062  -2.345   4.202  10.428 -0.8083 -0.0655 -0.5435
  683MOL0     C90063  -2.454   4.288  10.473 -0.1863 -0.1310 -0.0552
  683MOL0     C90064  -2.571   4.281  10.373 -0.0403 -0.1071  0.2109
  683MOL0     C90065  -2.677   4.382  10.410  0.3618  0.4264 -0.8857
  683MOL0     C90066  -2.791   4.388  10.307 -0.1469  0.2902  0.4611
  683MOL0     C90067  -2.869   4.260  10.288  0.1704 -0.1958  0.8248
  683MOL0    Cl90068  -3.025   4.289  10.203  0.6096  0.2398  0.3535
  683MOL0     C90069  -1.829   4.005  10.718 -1.1211  0.4183  0.4267
  683MOL0     C90070  -1.693   3.974  10.726  0.3148  0.2603  0.8071
  683MOL0     O90071  -1.391   3.999  10.435 -0.4482 -0.3682 -0.2504
  683MOL0     C90072  -1.168   3.832  10.483 -0.3442 -0.4123 -0.1187
  683MOL0     C90073  -1.060   3.755  10.521  0.2309 -0.2144 -0.8158
  683MOL0     N90074  -0.370   3.714  10.450  0.3052 -0.8699  0.2355
  683MOL0     N90075  -0.279   3.640  10.397 -0.4693  0.1406  0.2993
  683MOL0     C90076   0.951   3.487  10.517 -0.2806  0.4607  0.0646
  683MOL0     C90077   1.070   3.512  10.451 -0.8768  0.0754  1.2419
  683MOL0     C90078   1.478   3.475  10.252  0.1426 -0.9539  0.2871
  683MOL0     C90079   1.521   3.577  10.160 -0.1937 -0.6134 -0.6522
  683MOL0     C90080   1.626   3.554  10.076  0.5533  0.4597 -0.5245
  683MOL0     C90081   1.684   3.429  10.056 -0.9526  0.8491 -0.2103
  683MOL0     O90082   1.789   3.394   9.971 -0.1541  0.2440  0.5497
  683MOL0     C90083   1.833   3.501   9.884  0.5335 -0.1251 -0.8606
  683MOL0     C90084   1.927   3.451   9.772  0.0737 -0.7227  0.1022
  683MOL0     C90085   2.052   3.386   9.833 -0.5698 -0.6198  0.3188
  683MOL0     C90086   2.168   3.401   9.733  0.2066 -0.2311  0.2663
  683MOL0     C90087   2.303   3.385   9.793  0.0309  0.0302 -0.6027
  683MOL0     C90088   2.414   3.373   9.847 -0.4467 -0.0869 -0.1731
  683MOL0     C90089   1.647   3.329  10.157 -0.0530 -0.1323 -0.8298
  683MOL0     C90090   1.548   3.355  10.246  0.4864 -1.0585  0.0786
  683MOL0     H90091   1.155   3.179  10.428 -0.4822 -0.6831 -0.4689
  683MOL0     H90092   0.958   3.147  10.562  0.9135 -1.3300 -1.1880
  683MOL0     H90093   0.630   3.392  10.524 -1.6379 -1.8389  1.8656
  683MOL0     H90094   0.711   3.530  10.609  0.1352  0.4945 -0.7945
  683MOL0     H90095   0.655   3.423  10.826  0.0929 -0.1160  0.5916
  683MOL0     H90096   0.549   3.314  10.748  0.9082 -0.1695 -0.2881
  683MOL0     H90097   0.511   3.618  10.696 -0.5651 -1.0661 -0.3661
  683MOL0     H90098   0.433   3.518  10.825 -0.7100 -1.3171  0.5628
  683MOL0     H90099   0.411   3.509  10.514  2.0350 -1.7846 -0.3578
  683MOL0     H90100   0.377   3.378  10.619  0.1693 -0.3530  0.9452
  683MOL0     H90101   0.227   3.641  10.643  0.5366  0.3111  1.7768
  683MOL0     H90102   0.216   3.503  10.744 -1.7854  1.2085 -0.0860
  683MOL0     H90103   0.129   3.361  10.558 -1.6759  1.1672  0.6348
  683MOL0     H90104   0.165   3.485  10.440 -2.5206  0.9097 -0.4548
  683MOL0     H90105  -0.018   3.542  10.680  3.5352 -2.2413  1.0410
  683MOL0     H90106   0.008   3.646  10.551  0.6107 -0.0703  0.2007
  683MOL0     H90107  -0.135   3.379  10.537 -3.7390 -0.7521 -2.7438
  683MOL0     H90108  -0.086   3.470  10.390  1.4552  0.4700  0.7246
  683MOL0     H90109  -0.293   3.550  10.718 -0.3069 -0.8070 -0.1863
  683MOL0     H90110  -0.503   3.856  10.625 -0.0291  0.8651  2.7055
  683MOL0     H90111  -0.432   3.782  10.762  0.9616  1.8419 -0.3875
  683MOL0     H90112  -0.684   3.783  10.755  1.7887 -0.0910  0.2943
  683MOL0     H90113  -0.611   3.615  10.760  0.4011  0.4772  1.7817
  683MOL0     H90114  -0.755   3.780  10.542 -3.6291 -0.9944  1.1298
  683MOL0     H90115  -0.654   3.628  10.497 -0.1544 -2.3119  1.8184
  683MOL0     H90116  -0.787   3.498  10.645  3.9265  1.0296  0.2709
  683MOL0     H90117  -0.871   3.557  10.512  1.0476 -2.2421  0.0489
  683MOL0     H90118  -1.102   3.750  10.855  1.0026 -0.3749 -0.1542
  683MOL0     H90119  -1.311   3.867  10.792 -0.5721 -1.2472 -0.4036
  683MOL0     H90120  -1.640   3.978  10.391 -1.8231 -0.8121 -0.9557
  683MOL0     H90121  -1.864   4.067  10.391  1.1514 -4.2185 -1.4143
  683MOL0     H90122  -2.117   4.068  10.415  2.4030 -0.0794 -1.4038
  683MOL0     H90123  -2.035   4.220  10.441  2.2529 -2.0932 -0.9302
  683MOL0     H90124  -2.207   4.314  10.540  3.2217 -0.4964 -0.8659
  683MOL0     H90125  -2.265   4.169  10.633 -1.4657  0.3667  0.3389
  683MOL0     H90126  -2.375   4.101  10.401 -0.6428  0.2123 -1.7953
  683MOL0     H90127  -2.317   4.243  10.331  1.1358 -2.5081 -1.1330
  683MOL0     H90128  -2.500   4.254  10.566 -0.6268  1.1881  0.2427
  683MOL0     H90129  -2.416   4.390  10.485  1.4682 -0.5295 -1.4787
  683MOL0     H90130  -2.615   4.181  10.372  2.8349 -1.4722 -0.5851
  683MOL0     H90131  -2.528   4.306  10.276 -0.2940 -2.0728 -0.4419
  683MOL0     H90132  -2.637   4.482  10.430  2.7671 -0.2803 -1.8818
  683MOL0     H90133  -2.713   4.347  10.508 -0.8031 -1.0722 -1.7972
  683MOL0     H90134  -2.864   4.462  10.340 -1.1250  0.4577 -1.8933
  683MOL0     H90135  -2.748   4.428  10.214  1.1201 -1.7406  0.0898
  683MOL0     H90136  -2.893   4.207  10.380 -2.8369 -1.2381 -0.4297
  683MOL0     H90137  -2.817   4.190  10.222  1.6663  1.6330 -0.0360
  683MOL0     H90138  -1.887   4.013  10.809  0.5734 -2.2696  1.8872
  683MOL0     H90139  -1.646   3.946  10.820  1.6165 -1.2156 -0.2384
  683MOL0     H90140  -1.189   3.847  10.378 -1.8366 -3.8758 -0.4400
  683MOL0     H90141  -0.993   3.722  10.443  0.4074 -0.1303 -0.7010
  683MOL0     H90142   0.899   3.579  10.541 -1.3376 -0.1914  0.3536
  683MOL0     H90143   1.096   3.611  10.415 -1.3919 -0.4293 -0.6086
  683MOL0     H90144   1.476   3.675  10.172 -0.0710 -0.7597  1.5055
  683MOL0     H90145   1.644   3.643  10.018  0.7247 -0.5380 -2.0482
  683MOL0     H90146   1.889   3.579   9.937  0.1218 -1.7150  2.1689
  683MOL0     H90147   1.749   3.542   9.829  2.4244  1.8242 -2.4947
  683MOL0     H90148   1.879   3.369   9.718 -0.3115 -0.4465  0.0192
  683MOL0     H90149   1.945   3.541   9.713  1.0265 -0.7546  0.3276
  683MOL0     H90150   2.048   3.281   9.862 -1.0926 -1.0187 -1.1034
  683MOL0     H90151   2.083   3.450   9.917  2.4889  1.3156 -2.0664
  683MOL0     H90152   2.155   3.329   9.652 -1.4011  0.6178 -0.2793
  683MOL0     H90153   2.157   3.499   9.684 -2.8512 -1.1961 -1.2833
  683MOL0     H90154   2.513   3.379   9.887 -0.8789 -0.0723  0.9342
  683MOL0     H90155   1.684   3.227  10.152 -1.6457 -0.7708 -0.1021
  683MOL0     H90156   1.529   3.272  10.312 -1.4352 -1.3380 -0.7453
  684MOL0     O90157   9.450   9.115   8.879  0.3625 -0.0062  0.6072
  684MOL0     C90158   9.520   9.181   8.803  0.2172 -0.3084  1.1676
  684MOL0     O90159   9.474   9.261   8.702  0.5141  0.3826 -0.2755
  684MOL0     C90160   9.351   9.236   8.650  0.2260  0.3162  0.0670
  684MOL0     C90161   9.251   9.318   8.682  1.7064  0.0892 -0.4074
  684MOL0     C90162   9.126   9.304   8.621  0.6906  0.9797  1.2773
  684MOL0     C90163   9.098   9.196   8.531 -0.0423  0.3011 -0.2326
  684MOL0     O90164   8.986   9.174   8.459  0.3781 -0.2243  0.1132
  684MOL0     C90165   8.876   9.133   8.529  0.4172 -0.2306  0.1720
  684MOL0     C90166   8.772   9.057   8.439 -0.4183 -0.7316  0.9513
  684MOL0     C90167   8.627   9.056   8.495  0.6566 -0.4788 -0.2317
  684MOL0     C90168   8.605   8.941   8.594  0.3481  0.4338 -0.3250
  684MOL0     C90169   8.465   8.950   8.644  0.2448 -0.0718  0.2167
  684MOL0     C90170   8.452   8.854   8.771  0.4055  0.2764  0.8258
  684MOL0     C90171   8.308   8.796   8.793  0.3094 -1.0884  0.7051
  684MOL0     C90172   8.210   8.880   8.873 -1.1344  1.1107 -0.4873
  684MOL0     N90173   8.112   8.952   8.787  0.0294 -0.3186 -0.3347
  684MOL0     C90174   7.993   8.907   8.744  0.6426  0.0937 -0.2092
  684MOL0     C90175   7.934   9.014   8.683  1.3257 -0.5408  0.8853
  684MOL0     C90176   7.786   9.014   8.635  0.9951 -1.0304  0.0499
  684MOL0     C90177   7.699   9.127   8.689 -0.7430 -0.8314  0.2898
  684MOL0     C90178   7.557   9.130   8.635 -0.0801  0.9344 -0.2809
  684MOL0     C90179   7.463   9.201   8.725 -0.3500  0.3052  0.2934
  684MOL0     O90180   7.516   9.317   8.797 -0.2644 -0.6058  0.0085
  684MOL0     C90181   7.428   9.420   8.813 -0.1413  0.6803  1.0014
  684MOL0     C90182   7.283   9.416   8.828 -0.4441 -0.1577 -0.5388
  684MOL0     C90183   7.201   9.524   8.857  0.0014 -0.5051 -0.0051
  684MOL0     C90184   7.256   9.653   8.848  0.5741 -0.1097  0.1966
  684MOL0     C90185   7.169   9.776   8.867 -0.2962  0.3561  0.0951
  684MOL0     O90186   7.201   9.884   8.796 -0.1383  0.5376 -0.0636
  684MOL0     C90187   7.102   9.976   8.769  0.4274  0.0777 -0.1625
  684MOL0     C90188   6.981   9.940   8.710  0.2263  0.3261 -0.4688
  684MOL0     C90189   6.894  10.035   8.666 -0.6091  0.6259  0.3267
  684MOL0     C90190   6.913  10.169   8.705 -0.9613  0.6801 -0.4159
  684MOL0     O90191   6.811  10.258   8.682 -0.3740 -0.0348  0.1727
  684MOL0     C90192   6.799  10.370   8.774 -0.5374  0.1388  0.5551
  684MOL0     C90193   6.668  10.432   8.720 -0.0047 -0.6445 -0.5609
  684MOL0     C90194   6.618  10.532   8.818 -0.5407 -0.5998 -0.4073
  684MOL0     C90195   6.490  10.609   8.768  0.6932 -0.5251 -0.2897
  684MOL0     C90196   6.432  10.693   8.882  0.2161  0.3804 -0.6318
  684MOL0     C90197   6.379  10.602   9.002 -0.3485  0.6096  0.7312
  684MOL0     C90198   6.319  10.701   9.108  0.1442 -0.1022 -0.1983
  684MOL0     C90199   6.184  10.753   9.069 -0.3479  0.2694  0.0980
  684MOL0    Cl90200   6.069  10.632   9.023 -0.2556 -0.0559  0.3044
  684MOL0     C90201   7.036  10.205   8.765 -0.5381  0.1461  0.0853
  684MOL0     C90202   7.138  10.110   8.789 -0.5266  0.4427  0.1701
  684MOL0     O90203   7.067   9.751   8.923 -0.3585 -0.0298 -0.4872
  684MOL0     C90204   7.395   9.664   8.830  0.4148  0.0916  0.6412
  684MOL0     C90205   7.480   9.550   8.805  0.4734 -0.4630  0.1961
  684MOL0     N90206   8.018   9.123   8.680 -1.1895  0.0321  0.7238
  684MOL0     N90207   8.112   9.091   8.763  0.3131 -0.4193  0.2394
  684MOL0     C90208   9.201   9.104   8.506 -0.0602  0.8888  0.0705
  684MOL0     C90209   9.328   9.129   8.561 -0.1322  0.1468  0.7047
  684MOL0     C90210   9.656   9.200   8.842 -0.2659 -0.2583  0.2310
  684MOL0     C90211   9.735   9.309   8.797 -0.5333 -0.1346  0.8718
  684MOL0     C90212   9.875   9.307   8.817  1.5643 -0.1882  0.2650
  684MOL0     C90213   9.935   9.209   8.900 -0.3802  0.2553 -0.5813
  684MOL0     O90214  10.070   9.220   8.910 -0.4443 -1.3713  0.0484
  684MOL0     C90215  10.150   9.105   8.944  0.4156 -0.6268  0.1180
  684MOL0     C90216  10.216   9.129   9.073  0.4881 -0.3854 -0.7007
  684MOL0     C90217  10.302   9.257   9.081 -0.5930 -0.3239 -0.6463
  684MOL0     C90218  10.364   9.273   9.225 -0.4747  1.1105 -0.9974
  684MOL0     C90219  10.449   9.163   9.268 -0.5743  0.8613 -0.3538
  684MOL0     C90220  10.512   9.065   9.308  0.0995 -0.4486 -0.3519
  684MOL0     C90221   9.854   9.102   8.946  0.8267  0.6738  0.1856
  684MOL0     C90222   9.719   9.096   8.924  0.2247 -0.6124  0.2083
  684MOL0     H90223   9.262   9.397   8.755 -4.0960 -0.3807  1.5063
  684MOL0     H90224   9.048   9.378   8.632 -1.2256 -0.1848 -2.5766
  684MOL0     H90225   8.833   9.222   8.577  0.2430 -0.2309  0.0224
  684MOL0     H90226   8.905   9.077   8.618 -0.4325 -0.0014  0.6063
  684MOL0     H90227   8.820   8.963   8.411  0.6150  0.5401 -1.9619
  684MOL0     H90228   8.771   9.112   8.344 -2.9864  1.1225  1.9422
  684MOL0     H90229   8.561   9.054   8.408  0.6825 -2.0672 -0.2413
  684MOL0     H90230   8.613   9.156   8.536 -0.2828  1.5159 -4.7610
  684MOL0     H90231   8.634   8.843   8.553  3.9871  1.0172  0.5261
  684MOL0     H90232   8.671   8.957   8.680  0.4616  1.0567 -0.5253
  684MOL0     H90233   8.403   8.910   8.563 -0.8011 -0.6449  1.2721
  684MOL0     H90234   8.432   9.049   8.676 -0.2775 -0.4981  1.0388
  684MOL0     H90235   8.480   8.918   8.856  0.8189  0.8126  0.2956
  684MOL0     H90236   8.516   8.765   8.763 -2.2431 -1.7520  1.0975
  684MOL0     H90237   8.268   8.770   8.695  2.4567 -0.3526 -0.4368
  684MOL0     H90238   8.324   8.706   8.854  0.6051 -0.6488  1.2938
  684MOL0     H90239   8.264   8.956   8.930 -0.2985  1.1928 -1.3659
  684MOL0     H90240   8.162   8.806   8.937  1.8895 -0.3302  0.2360
  684MOL0     H90241   7.933   8.819   8.759 -6.4520  3.2377 -4.7797
  684MOL0     H90242   7.735   8.920   8.660 -0.9107 -0.3688 -1.1187
  684MOL0     H90243   7.793   9.018   8.526  0.8553 -1.8263  0.0075
  684MOL0     H90244   7.755   9.211   8.648 -0.8476 -1.0792 -0.3676
  684MOL0     H90245   7.697   9.125   8.799 -0.3296 -2.5774  0.3046
  684MOL0     H90246   7.560   9.177   8.536  2.3172 -0.8021 -1.1294
  684MOL0     H90247   7.523   9.026   8.629  3.7710 -0.5955  1.2978
  684MOL0     H90248   7.412   9.124   8.784 -0.6011  0.2889  0.0562
  684MOL0     H90249   7.390   9.237   8.652 -0.2163  1.2231  0.6019
  684MOL0     H90250   7.248   9.314   8.822  2.5578 -1.2337 -1.9386
  684MOL0     H90251   7.094   9.511   8.873 -0.1251  0.6396  0.1664
  684MOL0     H90252   6.954   9.838   8.689  0.6738 -0.1137  0.9665
  684MOL0     H90253   6.808   9.997   8.612  0.0577  0.3081 -0.5333
  684MOL0     H90254   6.887  10.434   8.759 -1.5492  1.1891 -1.1775
  684MOL0     H90255   6.785  10.343   8.879 -0.8289 -2.1044 -0.0144
  684MOL0     H90256   6.595  10.352   8.704  1.2561 -2.5229  2.2977
  684MOL0     H90257   6.692  10.478   8.624  3.2517  1.0837  0.9222
  684MOL0     H90258   6.706  10.593   8.840 -1.7062  0.2448  2.3780
  684MOL0     H90259   6.592  10.484   8.913 -2.4757  0.7497 -0.2036
  684MOL0     H90260   6.509  10.677   8.684  4.1371  1.0622  1.5537
  684MOL0     H90261   6.416  10.535   8.737 -0.1300 -0.8701  2.3122
  684MOL0     H90262   6.359  10.759   8.834  0.1499  0.9836  0.2923
  684MOL0     H90263   6.507  10.761   8.923 -0.5909  0.2748  1.0805
  684MOL0     H90264   6.470  10.560   9.047  1.8074  2.7229 -1.3016
  684MOL0     H90265   6.303  10.528   8.976  0.7108 -1.8907  4.1209
  684MOL0     H90266   6.315  10.643   9.201 -0.7317 -2.1942 -1.4585
  684MOL0     H90267   6.396  10.777   9.120 -0.1021 -0.0194  1.0668
  684MOL0     H90268   6.199  10.820   8.984 -1.4603  0.8803  0.3732
  684MOL0     H90269   6.141  10.803   9.156 -0.6492 -1.8083  1.1989
  684MOL0     H90270   7.051  10.312   8.780  1.3676 -0.0296 -0.3904
  684MOL0     H90271   7.227  10.124   8.850 -2.2934  2.3362  2.5306
  684MOL0     H90272   7.443   9.760   8.818  1.6144 -0.3076  1.9433
  684MOL0     H90273   7.588   9.553   8.797  0.5611  3.1786  1.0629
  684MOL0     H90274   9.171   9.022   8.443  0.2023  1.7311 -1.1897
  684MOL0     H90275   9.416   9.074   8.529  1.2888  1.7156  1.7258
  684MOL0     H90276   9.697   9.398   8.747  0.9808  1.2828  2.1543
  684MOL0     H90277   9.939   9.382   8.773 -0.8175  1.5689 -0.4371
  684MOL0     H90278  10.230   9.105   8.870  0.6127 -1.0884  0.3276
  684MOL0     H90279  10.090   9.014   8.938 -3.1569  1.6036 -1.0480
  684MOL0     H90280  10.150   9.124   9.161  3.9517  0.0213  2.1536
  684MOL0     H90281  10.295   9.054   9.081  1.9940  1.3037  1.9278
  684MOL0     H90282  10.254   9.353   9.060 -0.2184  0.5431  2.0959
  684MOL0     H90283  10.378   9.249   9.002  0.4042 -1.0406  0.3588
  684MOL0     H90284  10.421   9.366   9.222 -2.1131  2.1540 -1.0559
  684MOL0     H90285  10.287   9.283   9.302  0.1173 -2.5540  0.2611
  684MOL0     H90286  10.568   8.978   9.333  0.4905 -0.7851 -2.2768
  684MOL0     H90287   9.890   9.024   9.013 -0.3619 -0.9528 -1.0038
  684MOL0     H90288   9.660   9.015   8.965  0.4630 -0.6811  0.4164
  685MOL0     O90289   1.328   0.596   2.454 -0.4608  0.4223 -0.0958
  685MOL0     C90290   1.393   0.513   2.512 -0.2165  0.3696 -0.1494
  685MOL0     O90291   1.345   0.430   2.612 -0.2782  0.2399  0.0086
  685MOL0     C90292   1.211   0.419   2.639  0.7288  0.1059  0.4010
  685MOL0     C90293   1.115   0.417   2.549 -0.0319 -0.0030 -0.0191
  685MOL0     C90294   0.975   0.404   2.575  0.2026  0.2817 -0.5797
  685MOL0     C90295   0.941   0.394   2.711 -0.2640  0.4458 -0.2235
  685MOL0     O90296   0.809   0.385   2.764  0.2982  0.1442 -0.5609
  685MOL0     C90297   0.693   0.420   2.684 -0.0723  0.1110  0.4269
  685MOL0     C90298   0.573   0.426   2.774 -0.7942 -0.1396 -0.2645
  685MOL0     C90299   0.556   0.308   2.870 -0.1111 -0.2799 -0.3623
  685MOL0     C90300   0.539   0.176   2.795 -0.3660 -0.6837 -0.6072
  685MOL0     C90301   0.496   0.064   2.899  0.0954  0.4981  0.0035
  685MOL0     C90302   0.441  -0.068   2.841 -0.2066 -0.4664  0.3500
  685MOL0     C90303   0.433  -0.189   2.930  0.5413  0.5031 -1.3435
  685MOL0     C90304   0.409  -0.323   2.871 -0.1316  0.3890 -0.1122
  685MOL0     N90305   0.266  -0.330   2.835 -0.1372 -0.5180 -0.8705
  685MOL0     C90306   0.226  -0.329   2.704  0.5514 -0.6933 -0.4369
  685MOL0     C90307   0.091  -0.330   2.707  0.6128  0.7045 -0.9056
  685MOL0     C90308  -0.002  -0.325   2.592 -0.1778  0.1166 -0.4749
  685MOL0     C90309  -0.137  -0.284   2.639  0.1092  0.0261 -0.0604
  685MOL0     C90310  -0.219  -0.273   2.505 -0.5162 -0.7010  0.1269
  685MOL0     C90311  -0.369  -0.267   2.542  0.3246  0.1064  0.1801
  685MOL0     O90312  -0.434  -0.252   2.416 -0.9309  0.4694 -0.2350
  685MOL0     C90313  -0.568  -0.255   2.416 -0.0096  0.8052  0.8477
  685MOL0     C90314  -0.652  -0.250   2.528  0.0794  0.1086 -0.0645
  685MOL0     C90315  -0.785  -0.255   2.521  1.3519  0.9512 -0.1624
  685MOL0     C90316  -0.852  -0.258   2.392  0.4742  0.7325 -0.4330
  685MOL0     C90317  -0.995  -0.252   2.367 -0.1559 -0.2267 -0.2287
  685MOL0     O90318  -1.039  -0.273   2.232 -0.7455 -0.6248  0.2612
  685MOL0     C90319  -1.166  -0.260   2.187  0.4076 -0.5110  0.2947
  685MOL0     C90320  -1.266  -0.176   2.236  0.0016  0.0402 -0.5980
  685MOL0     C90321  -1.397  -0.180   2.192  0.1324 -0.3667  0.0975
  685MOL0     C90322  -1.432  -0.252   2.082 -0.2831  0.5733 -0.0597
  685MOL0     O90323  -1.558  -0.244   2.033  0.3933  0.4175  0.0459
  685MOL0     C90324  -1.556  -0.268   1.884 -0.4335 -0.1814  0.6450
  685MOL0     C90325  -1.671  -0.204   1.819 -0.1001  0.2635 -0.0676
  685MOL0     C90326  -1.694  -0.243   1.672 -0.3992 -0.6079  0.3397
  685MOL0     C90327  -1.831  -0.226   1.619 -0.0448 -0.3130  0.0974
  685MOL0     C90328  -1.839  -0.300   1.480  0.1555 -0.4583 -0.0032
  685MOL0     C90329  -1.983  -0.289   1.440  0.1554  0.2150  0.4461
  685MOL0     C90330  -2.000  -0.368   1.304 -0.1119  0.0948  0.0720
  685MOL0     C90331  -2.000  -0.282   1.182  0.1679  0.2576 -0.3617
  685MOL0    Cl90332  -2.144  -0.170   1.181 -0.2905  0.0317  0.3285
  685MOL0     C90333  -1.332  -0.335   2.023  0.3146  0.5080  0.1574
  685MOL0     C90334  -1.202  -0.340   2.074 -1.0412 -0.5052  0.1758
  685MOL0     O90335  -1.065  -0.229   2.464  0.3937 -0.3921 -0.0196
  685MOL0     C90336  -0.762  -0.267   2.277  0.7448  0.5839 -0.5801
  685MOL0     C90337  -0.626  -0.265   2.287 -0.4629  0.0119  0.2315
  685MOL0     N90338   0.057  -0.349   2.843 -1.1390  0.2453  0.2672
  685MOL0     N90339   0.162  -0.340   2.923  0.2572 -0.2562  0.5664
  685MOL0     C90340   1.040   0.389   2.808  0.1939  0.3279  0.1547
  685MOL0     C90341   1.172   0.398   2.770  0.4732 -0.0665  0.2731
  685MOL0     C90342   1.535   0.489   2.462  0.3902 -0.5038 -0.1329
  685MOL0     C90343   1.606   0.379   2.527  0.1325 -1.0081  0.3963
  685MOL0     C90344   1.739   0.368   2.505  0.1683  0.1143  0.3406
  685MOL0     C90345   1.805   0.446   2.407 -0.0913 -0.4444 -0.1432
  685MOL0     O90346   1.934   0.414   2.375  0.1637 -0.3160  0.0415
  685MOL0     C90347   2.020   0.509   2.319  0.4870  0.1802  0.9512
  685MOL0     C90348   2.149   0.432   2.276 -0.0901 -1.1207 -0.1775
  685MOL0     C90349   2.243   0.513   2.195 -0.0357 -1.3448 -0.2536
  685MOL0     C90350   2.280   0.653   2.256 -0.2663 -0.0014  0.3794
  685MOL0     C90351   2.376   0.626   2.365  0.3535 -0.0073  0.8103
  685MOL0     C90352   2.447   0.612   2.463 -0.5640 -0.4910 -0.2628
  685MOL0     C90353   1.724   0.539   2.335 -0.2859 -0.6207  0.3733
  685MOL0     C90354   1.592   0.569   2.371 -0.5292  0.4345 -0.0233
  685MOL0     H90355   1.130   0.426   2.442  0.8581 -1.3090 -0.0186
  685MOL0     H90356   0.896   0.405   2.501  2.4027  2.1492 -3.1149
  685MOL0     H90357   0.681   0.349   2.601  0.2004  0.2589  0.2620
  685MOL0     H90358   0.711   0.523   2.652  1.7542 -0.7998 -1.7964
  685MOL0     H90359   0.486   0.428   2.709 -0.2903 -0.1884 -0.9487
  685MOL0     H90360   0.567   0.520   2.829  4.1328  1.1944 -1.4524
  685MOL0     H90361   0.467   0.328   2.930  0.3947  0.1815  0.2485
  685MOL0     H90362   0.648   0.303   2.928  0.4302 -0.3622 -1.2007
  685MOL0     H90363   0.454   0.183   2.725 -1.3685 -2.6112  0.3283
  685MOL0     H90364   0.632   0.158   2.741  0.0376 -1.7175  0.4123
  685MOL0     H90365   0.420   0.101   2.968 -1.0713 -0.2204 -0.8504
  685MOL0     H90366   0.594   0.039   2.941  1.4859  2.8177 -1.6087
  685MOL0     H90367   0.499  -0.091   2.751 -4.1549  0.6870 -2.7946
  685MOL0     H90368   0.338  -0.072   2.802  0.0438 -1.3630 -0.2461
  685MOL0     H90369   0.528  -0.198   2.984 -0.2165 -0.5432 -0.1157
  685MOL0     H90370   0.356  -0.172   3.006  1.6899  2.8435 -0.5934
  685MOL0     H90371   0.434  -0.396   2.949 -0.1626 -1.4807 -1.7780
  685MOL0     H90372   0.479  -0.339   2.788  1.1876 -2.1924  1.3459
  685MOL0     H90373   0.289  -0.329   2.615 -2.0294 -3.3125 -2.4724
  685MOL0     H90374  -0.007  -0.423   2.543  0.1672 -0.6703  0.9836
  685MOL0     H90375   0.035  -0.252   2.519 -1.5283 -1.8981 -3.3746
  685MOL0     H90376  -0.129  -0.184   2.682  0.9511 -0.2338  0.4077
  685MOL0     H90377  -0.183  -0.354   2.710  1.0567  0.2516  0.7975
  685MOL0     H90378  -0.182  -0.195   2.437  0.5790 -2.9925 -2.0940
  685MOL0     H90379  -0.206  -0.364   2.445 -0.6101 -2.8839  3.1730
  685MOL0     H90380  -0.386  -0.182   2.609  0.0517 -0.8807  1.4044
  685MOL0     H90381  -0.392  -0.366   2.581  1.0648 -1.1026 -2.2825
  685MOL0     H90382  -0.624  -0.238   2.632 -1.7778  2.2766  0.2566
  685MOL0     H90383  -0.837  -0.250   2.616 -1.5070  1.8726 -1.6431
  685MOL0     H90384  -1.232  -0.108   2.314 -2.0250 -0.6817  1.0268
  685MOL0     H90385  -1.469  -0.113   2.239 -1.2275 -0.4421 -1.7669
  685MOL0     H90386  -1.575  -0.375   1.870 -0.1308 -0.3811  1.7117
  685MOL0     H90387  -1.469  -0.241   1.824  0.2881  3.8157  3.1741
  685MOL0     H90388  -1.660  -0.095   1.817 -2.0573  0.4986 -0.7083
  685MOL0     H90389  -1.760  -0.230   1.878  0.6778 -1.2631  0.4672
  685MOL0     H90390  -1.659  -0.346   1.669  1.8436  0.1335 -1.5873
  685MOL0     H90391  -1.627  -0.197   1.599 -2.1069  0.5757 -0.5784
  685MOL0     H90392  -1.905  -0.259   1.692 -0.9010 -0.6673 -0.9023
  685MOL0     H90393  -1.859  -0.121   1.604 -1.7200 -0.8685 -0.8628
  685MOL0     H90394  -1.809  -0.406   1.485 -0.0167 -0.5281 -0.4061
  685MOL0     H90395  -1.764  -0.258   1.412  1.3788 -0.5774  1.2253
  685MOL0     H90396  -2.003  -0.182   1.423  0.1758  0.0305 -0.8640
  685MOL0     H90397  -2.044  -0.336   1.517  1.0991  1.3446  1.9379
  685MOL0     H90398  -1.930  -0.450   1.287 -1.5643 -1.4960  1.4358
  685MOL0     H90399  -2.092  -0.422   1.326 -0.6170  1.0858  0.4544
  685MOL0     H90400  -2.001  -0.350   1.097  0.6468 -1.5215  0.9995
  685MOL0     H90401  -1.905  -0.228   1.170  0.4592 -0.2969 -0.6194
  685MOL0     H90402  -1.350  -0.401   1.939 -0.7670 -0.6651  1.2485
  685MOL0     H90403  -1.133  -0.405   2.022 -2.3086 -0.6382 -1.4045
  685MOL0     H90404  -0.805  -0.270   2.178  0.7270  1.4115 -0.6034
  685MOL0     H90405  -0.565  -0.268   2.198 -1.6656  1.9653 -0.7215
  685MOL0     H90406   1.020   0.389   2.915  2.2397 -2.8144  0.6501
  685MOL0     H90407   1.244   0.408   2.850  0.5850  0.1790  0.1426
  685MOL0     H90408   1.551   0.315   2.594 -0.6053  0.1840  0.9665
  685MOL0     H90409   1.802   0.299   2.560  3.0955  0.0362 -2.8387
  685MOL0     H90410   2.043   0.584   2.394  2.1931 -1.1766  1.8532
  685MOL0     H90411   1.973   0.559   2.234 -2.3550 -1.0340  1.6834
  685MOL0     H90412   2.194   0.388   2.366 -0.6807  0.1843  0.8001
  685MOL0     H90413   2.119   0.353   2.207 -2.2608  0.2081 -0.8474
  685MOL0     H90414   2.198   0.530   2.097  1.4495  1.1567 -0.5893
  685MOL0     H90415   2.336   0.462   2.172  0.5633 -0.6620  0.5908
  685MOL0     H90416   2.332   0.708   2.176 -1.2430  2.6165  1.4444
  685MOL0     H90417   2.198   0.719   2.283  0.6734  2.5930 -2.5012
  685MOL0     H90418   2.498   0.589   2.554  1.8548 -1.4875 -1.7664
  685MOL0     H90419   1.763   0.606   2.260 -2.4885  1.4417  0.9649
  685MOL0     H90420   1.525   0.642   2.327 -4.0259 -0.7453  2.8145
  686MOL0     O90421   1.645   7.782   3.532 -0.1348  0.0283  0.6627
  686MOL0     C90422   1.746   7.712   3.544  0.3568  0.6409  0.2110
  686MOL0     O90423   1.758   7.583   3.496 -0.6166  0.8131  0.0616
  686MOL0     C90424   1.653   7.529   3.428  0.0348 -0.7590  0.0973
  686MOL0     C90425   1.683   7.450   3.316  0.2084  0.1335  0.7770
  686MOL0     C90426   1.583   7.393   3.240  0.3874 -0.1452 -0.2967
  686MOL0     C90427   1.451   7.401   3.278  0.5255  0.3794 -0.5261
  686MOL0     O90428   1.361   7.358   3.188  0.4423 -0.5307 -0.1094
  686MOL0     C90429   1.224   7.333   3.234 -0.1592 -0.1149  0.3604
  686MOL0     C90430   1.161   7.255   3.122  0.5425  0.1078 -0.1258
  686MOL0     C90431   1.011   7.247   3.136  0.2373  0.0158  0.2636
  686MOL0     C90432   0.939   7.161   3.025  1.0886 -0.2870  0.1711
  686MOL0     C90433   0.788   7.124   3.040 -0.0526  0.3635  0.0268
  686MOL0     C90434   0.705   7.250   3.079 -1.2987 -0.1029 -0.0309
  686MOL0     C90435   0.560   7.222   3.094 -0.1481 -0.2846  0.3972
  686MOL0     C90436   0.491   7.147   2.978  0.2686 -0.6270 -0.1913
  686MOL0     N90437   0.355   7.111   3.022  0.5603 -0.3072  0.4755
  686MOL0     C90438   0.328   7.034   3.133  0.4402  0.2658  0.0289
  686MOL0     C90439   0.195   7.039   3.143  0.0512 -0.0626 -0.9617
  686MOL0     C90440   0.114   7.003   3.264 -0.8403  0.2919  0.2059
  686MOL0     C90441   0.062   6.861   3.259 -0.0118 -0.2036 -0.1888
  686MOL0     C90442  -0.017   6.810   3.124 -0.2301  0.1550  0.9414
  686MOL0     C90443  -0.096   6.683   3.156 -0.0163 -0.2278 -0.4079
  686MOL0     O90444  -0.211   6.716   3.229 -0.5165  0.7644 -0.6735
  686MOL0     C90445  -0.323   6.768   3.164 -0.1506  0.3509  0.6373
  686MOL0     C90446  -0.425   6.819   3.247  0.2024 -0.2134  0.1474
  686MOL0     C90447  -0.547   6.872   3.199  0.3479  0.1657  0.7457
  686MOL0     C90448  -0.579   6.858   3.061  0.0316  0.1752 -1.1267
  686MOL0     C90449  -0.722   6.891   3.003 -1.2577 -0.2571  0.5834
  686MOL0     O90450  -0.804   6.957   3.084 -0.6247 -0.6247 -0.0341
  686MOL0     C90451  -0.939   6.963   3.058 -0.0074 -0.1048  0.0620
  686MOL0     C90452  -0.994   7.090   3.046 -0.9894 -0.2531 -0.1299
  686MOL0     C90453  -1.132   7.107   3.013 -0.5920  0.0686 -0.4194
  686MOL0     C90454  -1.215   7.003   3.002  0.2387  0.6761  0.5506
  686MOL0     O90455  -1.354   7.032   2.982 -0.4548 -0.0516  0.1746
  686MOL0     C90456  -1.449   6.919   2.975  0.9600 -0.2983  0.3772
  686MOL0     C90457  -1.581   6.978   2.936 -0.0698  0.7480 -0.7606
  686MOL0     C90458  -1.676   6.878   2.878  0.0495  0.3344 -0.0248
  686MOL0     C90459  -1.802   6.957   2.860 -0.2965 -0.8307 -0.3921
  686MOL0     C90460  -1.897   6.882   2.775  0.0069  0.6333 -0.1303
  686MOL0     C90461  -2.037   6.943   2.793 -0.3389 -0.6360  0.0074
  686MOL0     C90462  -2.148   6.854   2.732 -0.4382 -0.4252 -0.1438
  686MOL0     C90463  -2.277   6.883   2.805 -0.1997 -0.0671  0.1052
  686MOL0    Cl90464  -2.294   7.060   2.807 -0.0736 -0.0772 -0.2616
  686MOL0     C90465  -1.155   6.871   2.998  0.1041  0.2063  0.3074
  686MOL0     C90466  -1.020   6.851   3.036  0.3079  0.1232 -0.1653
  686MOL0     O90467  -0.753   6.845   2.892 -0.8111 -0.2655 -0.0387
  686MOL0     C90468  -0.480   6.805   2.983 -0.1393 -0.1125  0.0246
  686MOL0     C90469  -0.352   6.765   3.028  0.0358 -0.1612 -0.4489
  686MOL0     N90470   0.139   7.108   3.033 -0.4170  0.6001 -0.7752
  686MOL0     N90471   0.237   7.155   2.966 -0.1718  0.6223  0.2503
  686MOL0     C90472   1.422   7.471   3.398  0.2486 -0.7680  0.5185
  686MOL0     C90473   1.518   7.532   3.479  0.0857 -0.5562 -0.2962
  686MOL0     C90474   1.856   7.762   3.615 -0.5564 -0.6619 -0.6288
  686MOL0     C90475   1.973   7.682   3.650 -0.4214  0.9672  0.4509
  686MOL0     C90476   2.082   7.727   3.726  0.0975  0.2525 -0.1912
  686MOL0     C90477   2.068   7.846   3.799  0.4393 -0.0069  0.2119
  686MOL0     O90478   2.151   7.898   3.898  0.5906  0.5144 -0.3202
  686MOL0     C90479   2.280   7.835   3.911 -0.2047 -0.5173 -0.6944
  686MOL0     C90480   2.377   7.857   3.796 -0.6631 -0.0930  0.0618
  686MOL0     C90481   2.385   8.003   3.751  0.1357  0.7265 -0.3088
  686MOL0     C90482   2.488   8.045   3.647 -0.6380 -0.3760  0.5012
  686MOL0     C90483   2.624   8.062   3.696 -0.3523 -0.3744  0.2899
  686MOL0     C90484   2.736   8.096   3.720  0.8103  0.1184 -0.5096
  686MOL0     C90485   1.951   7.925   3.765 -0.3320 -0.4095 -0.3258
  686MOL0     C90486   1.849   7.886   3.679  0.1691  0.5115  0.0197
  686MOL0     H90487   1.788   7.432   3.292  0.4436 -0.1243  1.9589
  686MOL0     H90488   1.606   7.337   3.150  0.6086  2.9618 -2.3378
  686MOL0     H90489   1.166   7.425   3.245  2.0923  1.2869  1.2692
  686MOL0     H90490   1.220   7.280   3.329 -2.1766 -0.8887 -0.1134
  686MOL0     H90491   1.196   7.152   3.122 -0.2423 -0.1689 -0.4960
  686MOL0     H90492   1.183   7.309   3.029  2.4422  0.0204  0.2411
  686MOL0     H90493   0.970   7.348   3.145  1.7344  0.7386 -0.5607
  686MOL0     H90494   1.001   7.189   3.229  0.8217 -2.6620 -1.2377
  686MOL0     H90495   0.950   7.218   2.933 -1.1524  0.2218  0.1613
  686MOL0     H90496   0.999   7.070   3.032  0.0448 -1.0560 -0.5791
  686MOL0     H90497   0.775   7.041   3.110  0.0529 -0.3171 -0.7556
  686MOL0     H90498   0.753   7.080   2.946  1.4270 -1.3535  0.2124
  686MOL0     H90499   0.720   7.318   2.994 -0.1709 -2.1004 -1.5096
  686MOL0     H90500   0.747   7.291   3.171  1.0406 -2.2597 -0.0340
  686MOL0     H90501   0.555   7.161   3.184  1.5018 -0.2568  0.5319
  686MOL0     H90502   0.506   7.317   3.103  0.6642  0.0557  1.9776
  686MOL0     H90503   0.543   7.058   2.942  0.0736 -1.4706  1.5175
  686MOL0     H90504   0.482   7.210   2.889  0.3516 -0.5807 -0.1678
  686MOL0     H90505   0.400   6.997   3.205 -1.1021  1.4849  2.3278
  686MOL0     H90506   0.031   7.074   3.262 -3.0758 -2.1717 -0.7070
  686MOL0     H90507   0.179   7.004   3.352 -0.9033  1.4589  0.2576
  686MOL0     H90508  -0.019   6.851   3.333 -0.7352  1.7856 -0.6492
  686MOL0     H90509   0.135   6.781   3.273 -1.7411 -1.6175  1.2807
  686MOL0     H90510  -0.092   6.885   3.097 -0.4118  0.2461  1.6805
  686MOL0     H90511   0.042   6.803   3.032 -0.0152  1.8922  0.9178
  686MOL0     H90512  -0.040   6.610   3.216 -0.2395 -1.4753 -1.6612
  686MOL0     H90513  -0.112   6.630   3.061  2.2040 -1.1221 -0.3498
  686MOL0     H90514  -0.421   6.826   3.356  0.6354  1.7037  0.0352
  686MOL0     H90515  -0.617   6.923   3.264  0.5222  0.0391  1.0363
  686MOL0     H90516  -0.933   7.180   3.056  1.5224 -1.0776 -4.9883
  686MOL0     H90517  -1.181   7.202   2.998  1.0361  0.6597 -2.4014
  686MOL0     H90518  -1.458   6.873   3.074  0.5491 -0.0830  0.4414
  686MOL0     H90519  -1.430   6.840   2.902 -2.2776 -1.6137  0.8006
  686MOL0     H90520  -1.562   7.050   2.856 -0.7337  1.5076 -0.2562
  686MOL0     H90521  -1.616   7.036   3.021  1.0370 -0.8638  0.8641
  686MOL0     H90522  -1.696   6.791   2.941  0.5417  1.0099  1.0908
  686MOL0     H90523  -1.636   6.846   2.782  0.4023 -1.1429  0.5974
  686MOL0     H90524  -1.841   6.997   2.954 -1.8421 -1.4373 -0.7409
  686MOL0     H90525  -1.780   7.049   2.805 -3.6537  0.1324 -0.3897
  686MOL0     H90526  -1.899   6.780   2.815  0.2761  1.1239  1.1700
  686MOL0     H90527  -1.859   6.870   2.673  1.2147  0.1092  0.3598
  686MOL0     H90528  -2.037   7.041   2.744  1.2552  0.4964  2.1544
  686MOL0     H90529  -2.060   6.954   2.899 -1.8513 -1.5076 -0.1983
  686MOL0     H90530  -2.155   6.869   2.624  0.9123  1.8824  0.0253
  686MOL0     H90531  -2.122   6.748   2.743 -0.4613 -0.6848 -2.2504
  686MOL0     H90532  -2.277   6.845   2.908 -0.5676 -0.6618 -0.1117
  686MOL0     H90533  -2.352   6.843   2.737  1.3138 -1.9414 -0.5327
  686MOL0     H90534  -1.232   6.795   2.986 -1.3796  1.8083 -0.9233
  686MOL0     H90535  -0.975   6.756   3.064  0.0901 -0.6283 -2.2551
  686MOL0     H90536  -0.505   6.794   2.877  0.0488  0.4975 -0.0871
  686MOL0     H90537  -0.276   6.728   2.961 -0.3428  2.3456 -2.4396
  686MOL0     H90538   1.317   7.486   3.421  0.2493  1.9053 -0.7470
  686MOL0     H90539   1.485   7.585   3.568 -0.4762  1.7459 -1.8067
  686MOL0     H90540   1.981   7.586   3.602 -0.2555  0.5259  1.3300
  686MOL0     H90541   2.174   7.671   3.729 -1.0365 -1.9142 -2.2661
  686MOL0     H90542   2.275   7.726   3.925  3.5513 -0.9502 -1.6549
  686MOL0     H90543   2.320   7.878   4.003  3.1364 -1.7157 -1.4637
  686MOL0     H90544   2.476   7.822   3.826 -0.5025  1.1134  1.0399
  686MOL0     H90545   2.349   7.792   3.713  1.1985 -3.3276  1.7578
  686MOL0     H90546   2.393   8.077   3.831 -0.6294  2.5841 -1.8756
  686MOL0     H90547   2.283   8.021   3.716  0.0422  0.9350  0.0645
  686MOL0     H90548   2.481   7.973   3.564  1.4156 -1.2429  1.0157
  686MOL0     H90549   2.464   8.148   3.619 -2.2008 -1.2421 -1.5530
  686MOL0     H90550   2.833   8.134   3.747 -0.3660  2.8066  0.2259
  686MOL0     H90551   1.934   8.018   3.818  0.4194 -0.9006  0.7994
  686MOL0     H90552   1.771   7.961   3.672 -1.0107  0.1288  5.0040
  687MOL0     O90553   1.762   0.080   1.631  0.4679  0.2716  0.1308
  687MOL0     C90554   1.770  -0.034   1.585  0.5652 -0.1524  0.7474
  687MOL0     O90555   1.663  -0.121   1.559  0.4021 -0.5660 -0.6877
  687MOL0     C90556   1.531  -0.097   1.603  0.1603 -0.1582 -0.8794
  687MOL0     C90557   1.430  -0.150   1.525  0.4087  0.1860  0.0948
  687MOL0     C90558   1.298  -0.159   1.572  0.5533  0.1977  0.1847
  687MOL0     C90559   1.264  -0.114   1.700  1.0434  0.0125 -0.1667
  687MOL0     O90560   1.134  -0.135   1.739 -0.2760  0.1194 -0.1573
  687MOL0     C90561   1.094  -0.135   1.877 -0.2373 -0.1674 -0.2469
  687MOL0     C90562   0.945  -0.143   1.878 -0.6696 -0.6887 -0.0126
  687MOL0     C90563   0.903  -0.264   1.803  0.5092  0.5443  0.2463
  687MOL0     C90564   0.756  -0.283   1.801 -0.0247 -0.3153  0.1108
  687MOL0     C90565   0.720  -0.404   1.713 -0.4989  0.5743 -0.0246
  687MOL0     C90566   0.569  -0.426   1.710 -0.6311 -0.0258  0.1408
  687MOL0     C90567   0.529  -0.535   1.607 -0.6917  0.6240 -1.0945
  687MOL0     C90568   0.379  -0.550   1.598 -0.1209 -0.5994 -0.6404
  687MOL0     N90569   0.318  -0.566   1.729  0.3056  0.4533  0.3222
  687MOL0     C90570   0.239  -0.464   1.782  0.4024  0.8890 -0.2854
  687MOL0     C90571   0.198  -0.513   1.906  0.5816  0.5004  0.0424
  687MOL0     C90572   0.116  -0.445   2.016  0.7254 -0.2675  0.2763
  687MOL0     C90573  -0.035  -0.470   2.005  0.6424 -0.7493 -0.2162
  687MOL0     C90574  -0.108  -0.408   2.132  0.1336  0.4206 -0.1783
  687MOL0     C90575  -0.260  -0.410   2.117 -0.4856 -0.0519 -0.8081
  687MOL0     O90576  -0.302  -0.319   2.016 -0.0040  0.1673 -0.2790
  687MOL0     C90577  -0.438  -0.310   1.983 -0.3288 -0.5038 -0.3649
  687MOL0     C90578  -0.532  -0.413   1.992  0.1709 -0.3534  0.4842
  687MOL0     C90579  -0.667  -0.389   1.955  0.2754  0.2195  0.1800
  687MOL0     C90580  -0.701  -0.262   1.903 -0.0803 -0.2156 -0.0947
  687MOL0     C90581  -0.846  -0.233   1.860  0.5871  0.6526 -0.2647
  687MOL0     O90582  -0.870  -0.107   1.823  0.0429  0.5944  0.9114
  687MOL0     C90583  -0.996  -0.067   1.785  0.6663  0.4616 -0.5691
  687MOL0     C90584  -1.012   0.064   1.772 -0.0722 -0.6574  0.1089
  687MOL0     C90585  -1.138   0.122   1.736  0.4001 -0.0747  0.7148
  687MOL0     C90586  -1.250   0.044   1.712 -0.0138  0.6473 -0.0556
  687MOL0     O90587  -1.385   0.093   1.693 -0.1838 -0.0936  0.6720
  687MOL0     C90588  -1.401   0.212   1.618 -0.1521 -0.3531 -0.3572
  687MOL0     C90589  -1.553   0.219   1.581 -0.7236 -0.3266 -0.0207
  687MOL0     C90590  -1.633   0.284   1.701 -0.2489  0.1788  0.2948
  687MOL0     C90591  -1.778   0.322   1.669  0.6890  0.1559 -0.3024
  687MOL0     C90592  -1.859   0.208   1.603  0.3465  0.4923 -0.3490
  687MOL0     C90593  -2.006   0.237   1.613  0.2665 -0.0969 -0.8166
  687MOL0     C90594  -2.091   0.129   1.538 -0.8976 -0.2281 -0.2040
  687MOL0     C90595  -2.240   0.167   1.555  0.6217 -0.1067 -0.6413
  687MOL0    Cl90596  -2.331   0.034   1.481  0.4875  0.5469  0.0202
  687MOL0     C90597  -1.232  -0.094   1.732 -0.1948  0.4542 -0.1305
  687MOL0     C90598  -1.109  -0.148   1.766  0.7878 -0.2740 -1.1734
  687MOL0     O90599  -0.919  -0.329   1.866 -0.1975  0.0974 -0.1756
  687MOL0     C90600  -0.606  -0.161   1.894  1.4133 -0.0469  0.1767
  687MOL0     C90601  -0.475  -0.185   1.928  0.6614  0.2389 -0.6952
  687MOL0     N90602   0.243  -0.647   1.915 -0.2363 -0.6585  0.1833
  687MOL0     N90603   0.316  -0.679   1.806  0.4218 -0.3296  0.2721
  687MOL0     C90604   1.368  -0.060   1.782 -0.0849 -0.3374  0.1125
  687MOL0     C90605   1.498  -0.048   1.733  0.1280  0.1731  0.3462
  687MOL0     C90606   1.897  -0.070   1.524  0.3133  0.5153 -0.0985
  687MOL0     C90607   1.909  -0.153   1.409  0.2261 -0.6699 -0.4339
  687MOL0     C90608   2.027  -0.155   1.335 -1.1212 -0.2802 -0.4241
  687MOL0     C90609   2.144  -0.076   1.366 -1.3400 -0.0811 -1.6357
  687MOL0     O90610   2.266  -0.076   1.301 -0.3932  0.1573 -0.3412
  687MOL0     C90611   2.276  -0.159   1.184 -0.4432  0.4370  0.4825
  687MOL0     C90612   2.420  -0.162   1.133  1.0480  0.4734 -0.3619
  687MOL0     C90613   2.483  -0.020   1.095 -0.1332 -0.2772  0.0158
  687MOL0     C90614   2.582  -0.044   0.971  1.3925 -0.3587 -0.1020
  687MOL0     C90615   2.683   0.063   0.973  0.1293 -0.5004 -0.9687
  687MOL0     C90616   2.754   0.162   0.983  0.0158 -0.0642  0.5692
  687MOL0     C90617   2.130  -0.006   1.481  1.0816 -0.3689  0.2662
  687MOL0     C90618   2.012   0.007   1.556 -0.5323  0.3571 -0.2401
  687MOL0     H90619   1.438  -0.198   1.428  0.7842 -1.6672  0.9818
  687MOL0     H90620   1.227  -0.204   1.503  0.1702  1.7919 -0.4963
  687MOL0     H90621   1.129  -0.043   1.925 -1.6595  0.7321 -0.8789
  687MOL0     H90622   1.143  -0.224   1.918 -0.2333 -0.3869 -0.7117
  687MOL0     H90623   0.903  -0.048   1.842 -0.1938 -0.3570  0.2900
  687MOL0     H90624   0.911  -0.148   1.982 -3.4061  2.8162 -0.5202
  687MOL0     H90625   0.956  -0.348   1.848 -1.5954 -1.3439 -0.6083
  687MOL0     H90626   0.937  -0.249   1.700 -2.8881  0.4349 -1.0288
  687MOL0     H90627   0.730  -0.291   1.907  1.6874  5.5142  1.3200
  687MOL0     H90628   0.706  -0.195   1.760 -1.1652 -1.5666 -1.3458
  687MOL0     H90629   0.769  -0.495   1.748 -1.6287  0.2726  0.8038
  687MOL0     H90630   0.753  -0.378   1.612 -1.7404  0.0934 -0.5632
  687MOL0     H90631   0.527  -0.328   1.686 -0.2687  0.3717  1.0877
  687MOL0     H90632   0.541  -0.454   1.812 -0.5441  0.8348  0.4129
  687MOL0     H90633   0.571  -0.525   1.506  2.2295 -2.3440 -0.3530
  687MOL0     H90634   0.574  -0.629   1.641 -0.9976  0.6812 -0.5245
  687MOL0     H90635   0.352  -0.626   1.524  0.2757  1.4377 -3.0166
  687MOL0     H90636   0.335  -0.457   1.563  0.1428 -1.0195 -2.1963
  687MOL0     H90637   0.223  -0.367   1.738  0.5935 -0.0209 -2.4843
  687MOL0     H90638   0.133  -0.337   2.018 -1.2126  0.1001 -0.7545
  687MOL0     H90639   0.152  -0.476   2.115  1.4418 -1.3560 -0.3049
  687MOL0     H90640  -0.041  -0.579   1.995  3.3798 -0.8965 -1.2283
  687MOL0     H90641  -0.059  -0.436   1.904  2.1178 -1.4197 -0.8311
  687MOL0     H90642  -0.076  -0.480   2.208 -0.6802 -1.2506 -1.3626
  687MOL0     H90643  -0.064  -0.311   2.157  0.1641  0.2740  0.3356
  687MOL0     H90644  -0.310  -0.384   2.211  1.7243  3.2019 -0.3465
  687MOL0     H90645  -0.296  -0.507   2.082 -2.3979 -0.1915  1.2780
  687MOL0     H90646  -0.498  -0.511   2.025 -0.2051  0.1160  2.3891
  687MOL0     H90647  -0.729  -0.478   1.955 -0.2264  0.5043  2.2756
  687MOL0     H90648  -0.929   0.133   1.787  1.3454 -2.2545 -0.0263
  687MOL0     H90649  -1.141   0.229   1.713 -2.5603 -0.5635 -1.7398
  687MOL0     H90650  -1.341   0.196   1.528  0.6257  0.5040 -0.0057
  687MOL0     H90651  -1.375   0.309   1.662  0.1297  0.8928 -3.0575
  687MOL0     H90652  -1.584   0.117   1.555  0.6789 -0.6151 -0.6555
  687MOL0     H90653  -1.552   0.283   1.492  3.1677  1.1969  0.9002
  687MOL0     H90654  -1.584   0.369   1.748 -1.2460 -0.0048  1.7330
  687MOL0     H90655  -1.636   0.203   1.775 -0.2166  0.1434  0.2574
  687MOL0     H90656  -1.818   0.360   1.763  0.1697  1.5104 -1.0483
  687MOL0     H90657  -1.785   0.408   1.602 -2.4015  1.1384  1.1370
  687MOL0     H90658  -1.848   0.109   1.648 -1.0821 -1.0293 -3.0409
  687MOL0     H90659  -1.830   0.195   1.498  0.3607 -0.3818 -0.2436
  687MOL0     H90660  -2.032   0.336   1.574  1.0176 -0.1287 -1.4175
  687MOL0     H90661  -2.033   0.221   1.718  2.4678 -2.5841 -0.5358
  687MOL0     H90662  -2.065   0.117   1.433  0.3102  1.3514 -0.1175
  687MOL0     H90663  -2.085   0.029   1.583 -2.9754 -0.3939 -0.1602
  687MOL0     H90664  -2.256   0.265   1.511 -1.3838 -1.0703 -2.2595
  687MOL0     H90665  -2.266   0.175   1.661  2.7030 -0.3635 -0.0650
  687MOL0     H90666  -1.322  -0.152   1.718  1.6707 -1.8723 -4.2307
  687MOL0     H90667  -1.116  -0.256   1.781  5.0711 -0.4108  1.7896
  687MOL0     H90668  -0.624  -0.060   1.859  2.3289 -0.2353 -0.9068
  687MOL0     H90669  -0.408  -0.101   1.942 -0.7272  1.1141  1.2180
  687MOL0     H90670   1.357  -0.017   1.881  0.6389  1.1002 -0.3990
  687MOL0     H90671   1.578  -0.009   1.795  2.2854 -1.0913 -1.4819
  687MOL0     H90672   1.816  -0.203   1.381 -0.9678  2.0197 -1.5978
  687MOL0     H90673   2.038  -0.219   1.249  2.3744  1.0689 -1.1509
  687MOL0     H90674   2.211  -0.122   1.104  0.3293 -0.7233 -0.7241
  687MOL0     H90675   2.253  -0.265   1.198 -0.9063  0.8009  3.0741
  687MOL0     H90676   2.485  -0.200   1.212  2.4152  2.1493 -0.6314
  687MOL0     H90677   2.426  -0.226   1.045  0.5181 -1.0266  0.6437
  687MOL0     H90678   2.548   0.024   1.171  5.4876 -2.1220 -3.0737
  687MOL0     H90679   2.411   0.056   1.063  2.7405  1.7470 -2.3169
  687MOL0     H90680   2.620  -0.146   0.976 -3.0617 -2.2159  2.5050
  687MOL0     H90681   2.521  -0.045   0.880  0.8615  2.5250  0.1298
  687MOL0     H90682   2.812   0.251   0.993  0.0163 -0.0159  0.1534
  687MOL0     H90683   2.210   0.063   1.507 -0.0919  1.1377  0.0491
  687MOL0     H90684   2.014   0.081   1.635 -1.0405 -0.9110  0.9814
  688MOL0     O90685   8.066   0.631   1.083  0.2098  0.2718 -0.0114
  688MOL0     C90686   8.109   0.534   1.022 -0.0636 -0.8896 -0.5910
  688MOL0     O90687   8.044   0.411   1.025  0.2100  0.1694  0.1746
  688MOL0     C90688   7.921   0.385   1.078 -0.5780  0.1384  0.1989
  688MOL0     C90689   7.896   0.280   1.159 -0.5027 -0.3460 -0.1519
  688MOL0     C90690   7.766   0.252   1.201  0.0843 -0.5410 -0.1976
  688MOL0     C90691   7.655   0.321   1.157  0.4305  0.3296  0.2762
  688MOL0     O90692   7.531   0.290   1.209 -0.5808  0.1632  0.0463
  688MOL0     C90693   7.517   0.227   1.335 -0.0400 -0.2584 -0.0097
  688MOL0     C90694   7.372   0.252   1.373  0.0215 -0.2555 -0.1475
  688MOL0     C90695   7.351   0.399   1.398  0.0870 -0.4075 -0.1272
  688MOL0     C90696   7.214   0.421   1.455  0.6599  0.3980 -0.5243
  688MOL0     C90697   7.209   0.566   1.494  0.4477 -0.2565 -0.2939
  688MOL0     C90698   7.197   0.659   1.369 -0.0534  0.6991 -0.3270
  688MOL0     C90699   7.214   0.809   1.404 -0.0817 -0.4879  0.2274
  688MOL0     C90700   7.131   0.871   1.513  0.4354 -0.2745 -0.3010
  688MOL0     N90701   6.989   0.839   1.497  0.0022  0.4925 -0.0228
  688MOL0     C90702   6.912   0.858   1.388 -0.1653  0.3259  0.4788
  688MOL0     C90703   6.787   0.814   1.412 -0.6243  1.1132 -0.8037
  688MOL0     C90704   6.675   0.820   1.310 -0.2898  0.5527 -0.4200
  688MOL0     C90705   6.544   0.796   1.386  0.2805  0.1469 -0.6584
  688MOL0     C90706   6.427   0.810   1.296 -0.2329  1.0841  0.2718
  688MOL0     C90707   6.282   0.811   1.361 -0.2281 -0.3129 -0.1282
  688MOL0     O90708   6.186   0.884   1.278 -0.2841  0.1331 -1.0089
  688MOL0     C90709   6.052   0.859   1.301 -0.6385  0.2771 -0.2848
  688MOL0     C90710   5.995   0.791   1.408 -1.2323  0.6884 -0.2533
  688MOL0     C90711   5.860   0.785   1.435 -1.1911 -0.6205 -0.7825
  688MOL0     C90712   5.773   0.847   1.351  0.3150  0.6924 -0.2761
  688MOL0     C90713   5.629   0.860   1.395  0.0832 -0.1779 -0.2416
  688MOL0     O90714   5.565   0.973   1.349 -0.1564 -0.0785 -0.0032
  688MOL0     C90715   5.438   0.999   1.406  0.2467  0.5992 -0.5276
  688MOL0     C90716   5.324   0.986   1.326  0.1532 -0.6706  0.5189
  688MOL0     C90717   5.198   1.024   1.382 -0.1400  0.1782  0.3118
  688MOL0     C90718   5.184   1.059   1.518 -0.1644  0.2187 -0.1454
  688MOL0     O90719   5.056   1.063   1.564  0.0960  0.0329 -0.4977
  688MOL0     C90720   5.024   1.114   1.699 -0.5398 -0.6056  0.6459
  688MOL0     C90721   4.879   1.116   1.745  0.0301 -0.0644 -0.0221
  688MOL0     C90722   4.813   1.222   1.663  0.7804 -0.9473  0.1364
  688MOL0     C90723   4.655   1.233   1.690 -0.6349 -0.2200  0.3286
  688MOL0     C90724   4.608   1.239   1.835 -0.7760  0.4075 -0.8745
  688MOL0     C90725   4.493   1.335   1.826  0.4730  0.0858  0.2113
  688MOL0     C90726   4.455   1.359   1.965  0.2259 -0.6267  0.6568
  688MOL0     C90727   4.360   1.476   1.967  0.9831 -0.0630  0.1086
  688MOL0    Cl90728   4.204   1.427   1.884 -0.0334  0.0718 -0.0058
  688MOL0     C90729   5.306   1.083   1.592  0.9607  0.1302 -0.2919
  688MOL0     C90730   5.430   1.043   1.538 -0.1286  0.4092  0.4257
  688MOL0     O90731   5.585   0.786   1.479 -0.1143  0.4717 -0.3700
  688MOL0     C90732   5.823   0.907   1.233  0.1711 -0.3076  0.7308
  688MOL0     C90733   5.961   0.928   1.214  0.3673 -0.5597  0.7100
  688MOL0     N90734   6.798   0.746   1.532 -1.1328 -1.0948  0.2571
  688MOL0     N90735   6.916   0.768   1.590  0.5589  0.5806 -0.7132
  688MOL0     C90736   7.681   0.441   1.086 -0.5281 -0.2506 -0.7660
  688MOL0     C90737   7.811   0.476   1.053  0.5614  0.0999 -0.8044
  688MOL0     C90738   8.248   0.529   0.982 -0.3995 -0.6656 -0.0405
  688MOL0     C90739   8.295   0.426   0.906  0.4490 -0.4192  0.1735
  688MOL0     C90740   8.426   0.435   0.857  0.4462 -0.1514 -0.6003
  688MOL0     C90741   8.509   0.552   0.868  0.3902 -0.0616 -0.0911
  688MOL0     O90742   8.630   0.547   0.797 -0.1248 -0.1218 -0.0910
  688MOL0     C90743   8.733   0.642   0.832  0.1996  0.3770  0.2844
  688MOL0     C90744   8.862   0.575   0.812 -0.1219  0.5957 -0.2399
  688MOL0     C90745   8.966   0.684   0.809 -0.0119  0.7667 -0.4322
  688MOL0     C90746   9.003   0.714   0.960 -0.6389 -0.0375 -0.2312
  688MOL0     C90747   9.110   0.815   0.967  0.4431 -0.2351  0.5063
  688MOL0     C90748   9.199   0.894   0.970 -0.0391  0.0258 -0.0587
  688MOL0     C90749   8.454   0.658   0.950 -0.8433 -0.5051  0.7911
  688MOL0     C90750   8.327   0.646   1.011 -0.3632  0.6310  1.3156
  688MOL0     H90751   7.980   0.221   1.196  0.1294  0.9160  0.4921
  688MOL0     H90752   7.762   0.171   1.274 -0.9132 -0.8839 -0.6123
  688MOL0     H90753   7.582   0.273   1.410  1.5747  0.6079 -1.8406
  688MOL0     H90754   7.541   0.120   1.331 -3.2863 -1.0662 -0.3388
  688MOL0     H90755   7.353   0.194   1.464 -0.0934 -0.6730 -0.4384
  688MOL0     H90756   7.305   0.217   1.295 -1.5072  0.6765  0.6845
  688MOL0     H90757   7.360   0.446   1.300  1.8855 -0.2130  0.0925
  688MOL0     H90758   7.435   0.436   1.458  0.0387 -0.7974  0.1806
  688MOL0     H90759   7.133   0.388   1.389  1.7766 -3.2574 -0.3039
  688MOL0     H90760   7.198   0.356   1.541  2.4615 -0.4754 -0.8053
  688MOL0     H90761   7.290   0.587   1.565 -2.7855  0.2467  3.6598
  688MOL0     H90762   7.124   0.589   1.559  1.2402  2.2945 -0.0521
  688MOL0     H90763   7.100   0.635   1.324  0.4608 -0.8136 -0.6797
  688MOL0     H90764   7.272   0.641   1.292 -0.9943  0.3345 -1.1876
  688MOL0     H90765   7.319   0.827   1.427 -0.0462 -2.0441  1.5445
  688MOL0     H90766   7.191   0.864   1.313 -0.7502  0.7173  1.1019
  688MOL0     H90767   7.138   0.980   1.509 -1.9215 -0.1110 -1.1672
  688MOL0     H90768   7.168   0.837   1.610 -1.0561 -1.1923 -0.0227
  688MOL0     H90769   6.945   0.906   1.297  1.6487 -4.5111 -1.8053
  688MOL0     H90770   6.682   0.745   1.232 -1.2625 -1.6172  1.4714
  688MOL0     H90771   6.665   0.919   1.263 -0.0927  0.8211  0.0953
  688MOL0     H90772   6.539   0.875   1.461 -1.1650 -1.4310  1.0262
  688MOL0     H90773   6.533   0.702   1.442 -4.4329  0.7733 -0.0858
  688MOL0     H90774   6.435   0.903   1.240 -0.0264  0.2043 -1.2277
  688MOL0     H90775   6.442   0.732   1.220  3.3058  1.0041  0.8843
  688MOL0     H90776   6.287   0.857   1.460 -0.9243  0.7776 -0.5801
  688MOL0     H90777   6.260   0.705   1.380 -0.4528  0.1749  2.7901
  688MOL0     H90778   6.065   0.742   1.475 -2.8097  0.2733  1.1755
  688MOL0     H90779   5.831   0.728   1.522  2.2526 -2.2894 -0.5670
  688MOL0     H90780   5.327   0.959   1.221 -2.1096  2.0986 -0.3849
  688MOL0     H90781   5.105   1.027   1.327 -1.3761 -2.9813  1.9820
  688MOL0     H90782   5.061   1.216   1.713  0.0105 -0.4257 -1.7252
  688MOL0     H90783   5.078   1.046   1.765  0.0336 -0.8691 -0.0791
  688MOL0     H90784   4.880   1.140   1.852  1.7667  0.1828 -0.0671
  688MOL0     H90785   4.837   1.016   1.731  1.4295 -0.6588 -0.0583
  688MOL0     H90786   4.824   1.199   1.557 -0.4905  1.0206 -0.4817
  688MOL0     H90787   4.853   1.321   1.685 -0.5764 -0.4454  0.4521
  688MOL0     H90788   4.617   1.318   1.633  1.2855  2.2488  2.4606
  688MOL0     H90789   4.617   1.137   1.654  0.4869 -0.3734 -0.5351
  688MOL0     H90790   4.688   1.279   1.898  1.4016 -0.1160 -3.1285
  688MOL0     H90791   4.578   1.142   1.876 -0.8205  1.9034  3.0823
  688MOL0     H90792   4.418   1.296   1.757 -1.1876  3.1780  0.1026
  688MOL0     H90793   4.517   1.437   1.793 -0.4830  0.2149 -0.1289
  688MOL0     H90794   4.405   1.272   2.008  0.6455 -0.1927  2.0735
  688MOL0     H90795   4.547   1.383   2.019  0.6678  0.6723 -0.6128
  688MOL0     H90796   4.392   1.568   1.918  3.5953 -1.2801 -0.6404
  688MOL0     H90797   4.340   1.507   2.070 -3.7452  3.5156 -1.5459
  688MOL0     H90798   5.303   1.126   1.692 -0.3816  2.7267 -1.3508
  688MOL0     H90799   5.512   1.055   1.609 -1.8706  2.3367  2.2372
  688MOL0     H90800   5.766   0.958   1.157  2.5748 -0.6879 -1.4712
  688MOL0     H90801   6.005   0.983   1.132  0.1065 -0.3157  0.7321
  688MOL0     H90802   7.594   0.493   1.048 -3.5099 -2.4247  2.5556
  688MOL0     H90803   7.824   0.569   0.999 -1.7629  1.0987  0.2497
  688MOL0     H90804   8.243   0.335   0.879 -0.0980  0.2445 -1.1071
  688MOL0     H90805   8.455   0.345   0.805 -0.9827 -1.1522  0.2713
  688MOL0     H90806   8.719   0.669   0.937 -0.0810 -1.6257  0.8201
  688MOL0     H90807   8.727   0.731   0.769  1.6722  1.5059  1.6776
  688MOL0     H90808   8.882   0.503   0.892 -0.7382  1.1624  0.4303
  688MOL0     H90809   8.855   0.516   0.720  0.0679  1.1701 -0.6298
  688MOL0     H90810   8.929   0.776   0.764 -0.2743  1.1627  0.5770
  688MOL0     H90811   9.054   0.648   0.753 -0.4282 -0.5801 -0.2595
  688MOL0     H90812   8.915   0.758   1.008  1.5233  0.2400  3.8712
  688MOL0     H90813   9.030   0.633   1.028 -1.7886  0.4993  0.9131
  688MOL0     H90814   9.279   0.960   0.943 -0.7011  0.3261 -1.3578
  688MOL0     H90815   8.512   0.748   0.968  1.8471 -2.0509  0.3689
  688MOL0     H90816   8.292   0.732   1.067  0.0454  0.9615  1.0610
  689MOL0     O90817   9.283   5.915   3.527 -0.0910  0.0793  0.5414
  689MOL0     C90818   9.293   5.986   3.428  0.2440 -0.6662  0.3436
  689MOL0     O90819   9.190   6.015   3.341  0.2348  0.0158  0.1997
  689MOL0     C90820   9.060   5.997   3.373  1.3831  0.7440  0.3030
  689MOL0     C90821   8.975   5.972   3.259  0.0091 -0.7937 -0.2064
  689MOL0     C90822   8.836   5.954   3.266  0.0840 -0.7994 -1.1715
  689MOL0     C90823   8.778   5.948   3.394 -0.0253  1.0970  0.2501
  689MOL0     O90824   8.639   5.925   3.399  0.8277 -0.6491 -0.9577
  689MOL0     C90825   8.573   5.899   3.527  0.0832 -0.1706 -0.4601
  689MOL0     C90826   8.427   5.867   3.497 -0.1859  0.2354 -0.3145
  689MOL0     C90827   8.335   5.875   3.625  0.3553 -0.8677 -0.0076
  689MOL0     C90828   8.221   5.773   3.609 -0.7161  0.1892  0.0986
  689MOL0     C90829   8.153   5.794   3.476 -0.5310 -0.7864  0.0893
  689MOL0     C90830   8.047   5.692   3.448  0.1300 -0.2202 -0.6736
  689MOL0     C90831   7.910   5.722   3.526 -0.3010  0.0145  0.5900
  689MOL0     C90832   7.790   5.635   3.471 -0.5437 -0.3134  0.6989
  689MOL0     N90833   7.785   5.490   3.511  0.2495 -0.5731  0.6287
  689MOL0     C90834   7.858   5.386   3.461  0.2856  0.6874 -0.3209
  689MOL0     C90835   7.811   5.275   3.524 -0.2151 -0.1873  0.5830
  689MOL0     C90836   7.853   5.131   3.511 -1.0987  0.3779 -0.1747
  689MOL0     C90837   7.746   5.023   3.513 -0.0935  0.6557  0.1724
  689MOL0     C90838   7.647   5.057   3.409  0.0460  0.9170 -0.0714
  689MOL0     C90839   7.569   4.921   3.379  0.0868  0.6765  0.0676
  689MOL0     O90840   7.512   4.933   3.247  0.1121 -0.4446 -0.1052
  689MOL0     C90841   7.384   4.984   3.231 -0.0109  0.2521 -0.4897
  689MOL0     C90842   7.336   4.990   3.100  0.1409  0.8898  0.0108
  689MOL0     C90843   7.213   5.049   3.062  0.0684 -0.1209 -0.6725
  689MOL0     C90844   7.130   5.091   3.161  0.0410  0.4491 -0.0077
  689MOL0     C90845   7.002   5.151   3.130  0.3258 -0.3686 -0.3326
  689MOL0     O90846   6.958   5.247   3.220  0.1557 -0.5788 -0.3250
  689MOL0     C90847   6.840   5.318   3.208 -0.2734  0.4373  0.8305
  689MOL0     C90848   6.774   5.367   3.321 -1.1484  0.2616 -1.1361
  689MOL0     C90849   6.652   5.433   3.319 -0.0017  0.2629  0.1676
  689MOL0     C90850   6.590   5.462   3.200 -0.1630  0.6159  0.4734
  689MOL0     O90851   6.471   5.520   3.182 -0.8562  0.5451  0.2892
  689MOL0     C90852   6.392   5.502   3.292  0.3700 -0.0517  0.3366
  689MOL0     C90853   6.258   5.572   3.286  1.3187 -0.2253  0.7996
  689MOL0     C90854   6.184   5.505   3.169  0.2100 -0.1876 -0.1213
  689MOL0     C90855   6.029   5.525   3.166  0.0988  0.4317 -0.0639
  689MOL0     C90856   5.993   5.663   3.227 -0.3097 -0.0732 -0.9055
  689MOL0     C90857   6.030   5.791   3.147 -0.4126  1.0972  0.6094
  689MOL0     C90858   5.976   5.913   3.218  0.5019  0.4387 -0.0634
  689MOL0     C90859   6.049   6.034   3.159 -0.1554 -1.3243  1.0283
  689MOL0    Cl90860   5.991   6.052   2.990 -0.0170 -0.1833 -0.3206
  689MOL0     C90861   6.651   5.420   3.083  0.0008 -0.8264  0.3636
  689MOL0     C90862   6.778   5.353   3.084 -0.4389  0.3001  0.6485
  689MOL0     O90863   6.940   5.112   3.037  0.2298  0.0686 -0.1630
  689MOL0     C90864   7.174   5.093   3.296 -0.3521 -0.9455 -0.0653
  689MOL0     C90865   7.302   5.037   3.331 -0.1469 -0.5191  0.2127
  689MOL0     N90866   7.712   5.311   3.612  0.1511 -0.1563 -0.2145
  689MOL0     N90867   7.699   5.439   3.604 -0.4820  0.6524 -0.1195
  689MOL0     C90868   8.859   5.961   3.508 -0.2834 -0.3528 -0.3472
  689MOL0     C90869   8.997   5.985   3.498  0.1950  0.0795 -0.0211
  689MOL0     C90870   9.425   6.028   3.381  0.0222  0.3805 -0.1584
  689MOL0     C90871   9.450   6.062   3.248  0.7192 -0.4692  0.0455
  689MOL0     C90872   9.578   6.087   3.193  0.2443 -0.0767 -0.6272
  689MOL0     C90873   9.689   6.087   3.276  0.5215  0.4257  0.0754
  689MOL0     O90874   9.809   6.113   3.217 -0.3026  0.0909  0.1598
  689MOL0     C90875   9.926   6.076   3.292 -0.1106 -0.2058  0.6100
  689MOL0     C90876  10.051   6.115   3.211  0.1461 -0.3275 -0.1319
  689MOL0     C90877  10.033   6.256   3.147 -0.2029  0.3389  0.1772
  689MOL0     C90878   9.973   6.261   3.010  0.4824 -0.4693 -0.0816
  689MOL0     C90879   9.989   6.391   2.937 -0.3095  0.2211  0.2688
  689MOL0     C90880  10.004   6.492   2.873  0.5993 -0.4253  0.3725
  689MOL0     C90881   9.663   6.044   3.409  0.2848 -0.1811 -0.5838
  689MOL0     C90882   9.540   6.003   3.461  0.2076  0.2742  0.3209
  689MOL0     H90883   9.004   5.977   3.154  0.8701 -3.7317 -0.1927
  689MOL0     H90884   8.775   5.937   3.177 -2.4916  0.9389  0.1294
  689MOL0     H90885   8.581   5.992   3.584  2.0745  1.9052 -3.7490
  689MOL0     H90886   8.629   5.820   3.577  0.3391  1.3752  1.7954
  689MOL0     H90887   8.417   5.767   3.453 -1.2194  0.6323 -1.0310
  689MOL0     H90888   8.387   5.943   3.429 -1.2884 -0.9147 -1.0230
  689MOL0     H90889   8.301   5.979   3.633  1.7492 -0.5016  1.7088
  689MOL0     H90890   8.397   5.858   3.714  2.6521 -2.7008 -1.8343
  689MOL0     H90891   8.257   5.671   3.617  1.8857  1.0397  0.0364
  689MOL0     H90892   8.139   5.782   3.681 -1.0293 -0.5422 -0.1603
  689MOL0     H90893   8.217   5.807   3.388  0.6199 -0.8332  0.9028
  689MOL0     H90894   8.110   5.894   3.487 -1.5366 -1.3436  1.5937
  689MOL0     H90895   8.084   5.595   3.483  4.0523  1.2170 -0.3737
  689MOL0     H90896   8.034   5.686   3.339 -0.4177  0.5602 -0.6557
  689MOL0     H90897   7.921   5.713   3.634 -1.3628  1.2005  0.8237
  689MOL0     H90898   7.881   5.826   3.508  0.0105  0.4438  2.3775
  689MOL0     H90899   7.791   5.631   3.362 -2.1523 -1.7162  0.6838
  689MOL0     H90900   7.698   5.688   3.497 -1.5529 -0.9168 -1.3912
  689MOL0     H90901   7.934   5.389   3.384  2.3296  0.0222  1.5585
  689MOL0     H90902   7.915   5.125   3.602 -1.4487  0.8692  0.0990
  689MOL0     H90903   7.908   5.117   3.417 -0.7871 -0.6853  0.1480
  689MOL0     H90904   7.694   5.031   3.608  0.8111  1.0610  0.6430
  689MOL0     H90905   7.786   4.922   3.501 -2.8267 -0.5690  0.5326
  689MOL0     H90906   7.570   5.128   3.442 -0.4251  0.3197  0.1388
  689MOL0     H90907   7.688   5.088   3.312 -1.0380  3.5475  0.2156
  689MOL0     H90908   7.498   4.891   3.457 -0.2891  0.7711 -0.2409
  689MOL0     H90909   7.645   4.844   3.360 -2.0314 -0.8826 -2.8250
  689MOL0     H90910   7.414   4.947   3.038 -4.2965 -4.4790 -2.7492
  689MOL0     H90911   7.182   5.062   2.959 -1.7642 -0.7799 -0.2246
  689MOL0     H90912   6.827   5.367   3.416 -0.8519 -1.2436 -1.2784
  689MOL0     H90913   6.618   5.478   3.412  0.4174 -2.8943  2.0137
  689MOL0     H90914   6.439   5.543   3.381 -0.0266 -2.5134  1.7505
  689MOL0     H90915   6.378   5.395   3.311 -2.1316  0.4846  1.9676
  689MOL0     H90916   6.281   5.678   3.273  3.5678 -0.7882 -0.2821
  689MOL0     H90917   6.200   5.565   3.378  0.6706  1.9488  0.6183
  689MOL0     H90918   6.205   5.398   3.172  3.6048  0.2085 -3.2320
  689MOL0     H90919   6.221   5.549   3.076 -1.5876  1.5949 -0.0586
  689MOL0     H90920   6.012   5.510   3.059  0.3142 -1.2695  0.1158
  689MOL0     H90921   5.979   5.442   3.218  2.5114 -0.8074  0.3982
  689MOL0     H90922   6.027   5.672   3.330 -0.8355  0.1690 -0.7466
  689MOL0     H90923   5.884   5.670   3.223 -0.4026 -1.4754 -1.5430
  689MOL0     H90924   5.991   5.787   3.044  0.6899 -2.5044  0.1993
  689MOL0     H90925   6.137   5.812   3.152 -0.1987  0.4621 -0.7639
  689MOL0     H90926   5.868   5.927   3.206  0.5991  1.6724  0.2699
  689MOL0     H90927   6.007   5.908   3.323  1.3620  1.4585 -0.2437
  689MOL0     H90928   6.157   6.024   3.151  0.3751  2.7464  0.9242
  689MOL0     H90929   6.040   6.118   3.228  0.3850 -1.1535  0.8974
  689MOL0     H90930   6.600   5.462   2.996  1.2558  0.8753  0.3965
  689MOL0     H90931   6.818   5.320   2.988 -2.2672 -0.7427  0.1995
  689MOL0     H90932   7.112   5.142   3.370 -1.4695  1.5286 -2.4640
  689MOL0     H90933   7.331   5.053   3.434 -0.5482 -1.1833  0.4322
  689MOL0     H90934   8.815   5.963   3.607 -0.9059  2.9267 -0.5489
  689MOL0     H90935   9.060   5.986   3.586 -0.4939 -1.1989  0.5239
  689MOL0     H90936   9.371   6.070   3.173 -0.2229 -3.2094  0.6504
  689MOL0     H90937   9.591   6.121   3.091 -1.4012  0.1217 -0.7882
  689MOL0     H90938   9.924   5.968   3.304 -1.5982 -0.3727 -0.6728
  689MOL0     H90939   9.929   6.117   3.393  1.3510 -2.7978  1.6882
  689MOL0     H90940  10.141   6.096   3.270 -0.2569 -3.0783 -0.2487
  689MOL0     H90941  10.045   6.038   3.133  1.4683 -1.0150  0.4039
  689MOL0     H90942  10.135   6.292   3.138 -1.2040  3.0285 -1.4728
  689MOL0     H90943   9.976   6.320   3.215  0.7438  1.4961 -0.0835
  689MOL0     H90944  10.029   6.208   2.933 -0.3245  2.1015 -2.6021
  689MOL0     H90945   9.869   6.226   3.005 -1.0094  3.5463 -0.9702
  689MOL0     H90946  10.024   6.583   2.820  1.9541 -0.1579  1.2715
  689MOL0     H90947   9.737   6.023   3.485 -1.7781 -1.9253  1.0994
  689MOL0     H90948   9.536   5.952   3.557  1.4925 -0.6097 -0.0710
  690MOL0     O90949   1.664   3.503   9.012  0.4702  0.2011 -0.2062
  690MOL0     C90950   1.730   3.575   9.099 -0.2145  0.1339  0.2472
  690MOL0     O90951   1.690   3.597   9.229  0.0234 -0.8400  0.3426
  690MOL0     C90952   1.561   3.562   9.273  0.1096 -0.0916 -0.5861
  690MOL0     C90953   1.490   3.644   9.357  0.4328 -0.8686 -0.2579
  690MOL0     C90954   1.362   3.615   9.393  0.0226 -0.1049  0.8902
  690MOL0     C90955   1.301   3.489   9.352  0.9687  0.2631  0.9771
  690MOL0     O90956   1.176   3.443   9.395  0.2995  0.4776  0.4963
  690MOL0     C90957   1.084   3.541   9.444 -0.8698 -0.3913 -1.0029
  690MOL0     C90958   0.947   3.466   9.457 -0.5118  0.5598 -0.2156
  690MOL0     C90959   0.850   3.550   9.538  0.0692  0.0216  0.3328
  690MOL0     C90960   0.704   3.511   9.519 -0.1343  0.7840  0.6272
  690MOL0     C90961   0.612   3.619   9.589  0.2645  0.5322 -0.5835
  690MOL0     C90962   0.466   3.586   9.560 -0.1616  0.6445 -0.0120
  690MOL0     C90963   0.369   3.702   9.589 -0.5338 -0.1405  0.0201
  690MOL0     C90964   0.364   3.749   9.738  0.9974 -0.1979 -0.5840
  690MOL0     N90965   0.311   3.642   9.830  0.2787  0.1553  0.5058
  690MOL0     C90966   0.193   3.571   9.829  0.6176  0.3509  0.1885
  690MOL0     C90967   0.196   3.494   9.942  0.1490  0.1331  0.5720
  690MOL0     C90968   0.099   3.386   9.982  0.1793  0.5872 -0.1217
  690MOL0     C90969  -0.001   3.423  10.093 -1.0446 -0.0977 -0.2039
  690MOL0     C90970  -0.103   3.519  10.027  0.1078  0.5638 -0.1164
  690MOL0     C90971  -0.212   3.450   9.949 -0.5238  0.9427  0.1251
  690MOL0     O90972  -0.312   3.540   9.885 -0.7136 -0.0604 -0.5021
  690MOL0     C90973  -0.419   3.581   9.956  0.0179 -0.1780 -0.6240
  690MOL0     C90974  -0.517   3.639   9.887 -0.0590  0.0533  0.9605
  690MOL0     C90975  -0.637   3.668   9.954 -1.1259  0.2152  0.5527
  690MOL0     C90976  -0.658   3.650  10.092 -0.6351 -0.9263 -0.0048
  690MOL0     C90977  -0.781   3.678  10.164  0.1629  0.6146 -0.4525
  690MOL0     O90978  -0.883   3.724  10.078 -0.2910 -0.2153  0.6406
  690MOL0     C90979  -1.018   3.727  10.108  1.1676  0.2363 -0.1520
  690MOL0     C90980  -1.090   3.625  10.174 -0.4172 -0.4674  0.0197
  690MOL0     C90981  -1.233   3.626  10.186 -0.0364  0.0084  0.2519
  690MOL0     C90982  -1.313   3.730  10.136 -0.0119  0.0144  0.1913
  690MOL0     O90983  -1.449   3.741  10.134  0.3483 -0.3603 -0.7355
  690MOL0     C90984  -1.516   3.656  10.230  0.0251 -0.2044 -0.6995
  690MOL0     C90985  -1.659   3.689  10.217  0.7207 -0.4155  0.4574
  690MOL0     C90986  -1.735   3.643  10.342  0.9210 -0.3422 -1.1764
  690MOL0     C90987  -1.888   3.685  10.336  0.6252  0.1047  0.0169
  690MOL0     C90988  -1.954   3.626  10.461  0.3801  0.1466 -0.4829
  690MOL0     C90989  -2.097   3.652  10.474 -0.8799  0.6082  0.1714
  690MOL0     C90990  -2.126   3.802  10.489  0.0664  0.4018 -0.7819
  690MOL0     C90991  -2.229   3.826  10.598 -0.6538 -0.4655  0.0059
  690MOL0    Cl90992  -2.393   3.804  10.537 -0.4525 -0.2650 -0.4242
  690MOL0     C90993  -1.241   3.826  10.074 -0.1576 -0.3071 -0.1680
  690MOL0     C90994  -1.097   3.830  10.060  0.0820 -1.0012  0.0969
  690MOL0     O90995  -0.796   3.653  10.283 -0.1188  0.0528  0.3626
  690MOL0     C90996  -0.551   3.607  10.166 -0.4104  0.8424 -0.0199
  690MOL0     C90997  -0.437   3.555  10.099 -0.1490  0.2361  0.2702
  690MOL0     N90998   0.316   3.511  10.001  0.0817  0.3511 -0.5156
  690MOL0     N90999   0.378   3.604   9.936 -0.1713  0.5576 -0.3871
  690MOL0     C91000   1.376   3.406   9.280 -0.7527  0.2314 -0.2376
  690MOL0     C91001   1.504   3.441   9.237  0.0730  0.5693  0.0163
  690MOL0     C91002   1.857   3.634   9.051  0.1621  0.7769 -0.2209
  690MOL0     C91003   1.929   3.580   8.942  0.7067  0.4276 -0.4212
  690MOL0     C91004   2.048   3.632   8.903  0.2273  0.5996  0.4443
  690MOL0     C91005   2.109   3.743   8.968 -0.4381  0.3612 -0.5718
  690MOL0     O91006   2.223   3.802   8.920 -0.0152  0.5335  0.6055
  690MOL0     C91007   2.331   3.727   8.867  0.4222  0.4547 -0.6659
  690MOL0     C91008   2.454   3.812   8.850  0.6094  0.0461  0.1360
  690MOL0     C91009   2.545   3.821   8.972 -0.8495 -1.0212 -0.3914
  690MOL0     C91010   2.631   3.695   8.991 -0.1589 -1.0707 -0.0950
  690MOL0     C91011   2.697   3.701   9.118  0.0577 -0.1264 -1.3682
  690MOL0     C91012   2.747   3.707   9.231  0.8230  0.4733  0.2413
  690MOL0     C91013   2.045   3.788   9.081  0.3491 -0.7084 -0.3089
  690MOL0     C91014   1.924   3.734   9.126  0.6861 -0.2010 -0.2922
  690MOL0     H91015   1.542   3.729   9.401 -0.4502  0.2042 -1.2260
  690MOL0     H91016   1.307   3.686   9.455  0.6280  2.5310 -1.3748
  690MOL0     H91017   1.085   3.627   9.376 -0.0643 -0.1849 -0.7407
  690MOL0     H91018   1.121   3.578   9.540 -0.1618 -2.4523 -0.4316
  690MOL0     H91019   0.973   3.372   9.507 -3.4855 -0.8489 -1.1060
  690MOL0     H91020   0.910   3.458   9.355 -2.6286 -1.1677  0.5995
  690MOL0     H91021   0.865   3.654   9.507 -0.6391  0.1682  0.4528
  690MOL0     H91022   0.876   3.547   9.644 -1.2088  0.5226  0.6764
  690MOL0     H91023   0.680   3.507   9.412 -1.0069 -0.9082  0.8452
  690MOL0     H91024   0.690   3.408   9.553 -2.4906  1.3858  1.7292
  690MOL0     H91025   0.639   3.722   9.565  2.9941 -0.4102 -2.1375
  690MOL0     H91026   0.626   3.609   9.697  3.5055  1.5678 -0.7810
  690MOL0     H91027   0.440   3.503   9.626  1.2017  0.9020  0.8981
  690MOL0     H91028   0.457   3.557   9.455 -1.4398 -2.0335  0.7535
  690MOL0     H91029   0.381   3.786   9.521  2.2831 -1.9810 -1.9619
  690MOL0     H91030   0.271   3.657   9.566 -1.5337  2.6447 -1.5924
  690MOL0     H91031   0.299   3.834   9.757  0.6792 -0.5635 -0.0278
  690MOL0     H91032   0.460   3.792   9.769  0.3557  1.6288 -1.0238
  690MOL0     H91033   0.113   3.582   9.756  0.0719  1.9739  0.9874
  690MOL0     H91034   0.154   3.296  10.012 -1.8093 -1.1633 -1.4003
  690MOL0     H91035   0.042   3.354   9.894  1.3273 -1.0919 -0.3000
  690MOL0     H91036   0.060   3.473  10.168 -0.9361  0.2706 -0.5320
  690MOL0     H91037  -0.050   3.338  10.141 -1.1140  0.1801  0.2212
  690MOL0     H91038  -0.151   3.568  10.111 -1.3230 -0.2659 -0.4150
  690MOL0     H91039  -0.055   3.583   9.952  1.9506 -0.0755  0.4504
  690MOL0     H91040  -0.255   3.379  10.021  0.3192  3.2925  3.1215
  690MOL0     H91041  -0.155   3.391   9.877  2.5209  2.6837  0.9588
  690MOL0     H91042  -0.508   3.659   9.781  0.0359  3.3848  1.4817
  690MOL0     H91043  -0.715   3.719   9.897 -0.6565  0.8156  0.4303
  690MOL0     H91044  -1.042   3.541  10.223 -0.5855 -0.2846  0.4940
  690MOL0     H91045  -1.274   3.543  10.242 -0.8574 -0.0741 -0.4522
  690MOL0     H91046  -1.480   3.663  10.332  0.0654  3.2367 -0.8187
  690MOL0     H91047  -1.504   3.551  10.203 -0.7792 -0.7906  1.0525
  690MOL0     H91048  -1.693   3.639  10.127  2.8319 -0.0016 -0.6479
  690MOL0     H91049  -1.677   3.792  10.186  0.4236 -0.7867 -0.6443
  690MOL0     H91050  -1.692   3.693  10.429 -0.2876 -0.1580 -0.6622
  690MOL0     H91051  -1.721   3.537  10.363  1.0617  0.0227  0.7080
  690MOL0     H91052  -1.900   3.793  10.328  0.3550  0.0762  0.0268
  690MOL0     H91053  -1.940   3.642  10.250  0.8388 -0.1311  0.0043
  690MOL0     H91054  -1.901   3.672  10.545  1.2610  2.3411 -2.1244
  690MOL0     H91055  -1.931   3.520  10.473 -0.5968  0.0136  0.3482
  690MOL0     H91056  -2.124   3.592  10.561 -3.0571 -1.0220 -1.5312
  690MOL0     H91057  -2.153   3.616  10.387 -0.1461  1.5120 -0.6991
  690MOL0     H91058  -2.032   3.855  10.510  0.1772  0.7110 -1.9990
  690MOL0     H91059  -2.159   3.835  10.390 -2.9046  1.5623  0.4814
  690MOL0     H91060  -2.229   3.930  10.632  0.1488 -0.3728 -0.2717
  690MOL0     H91061  -2.212   3.752  10.677  2.5674  0.2474  0.1068
  690MOL0     H91062  -1.300   3.907  10.032 -3.6100 -2.9231 -0.7920
  690MOL0     H91063  -1.054   3.907   9.996 -3.4670  0.6089 -0.5783
  690MOL0     H91064  -0.557   3.608  10.274  0.9534  0.0526  0.0876
  690MOL0     H91065  -0.361   3.508  10.160  0.0673  0.5215  0.2279
  690MOL0     H91066   1.338   3.309   9.250 -0.2797 -0.2303  0.6164
  690MOL0     H91067   1.570   3.371   9.188 -3.3610 -0.3326 -3.9292
  690MOL0     H91068   1.890   3.501   8.879  0.9060  1.8334 -2.3890
  690MOL0     H91069   2.096   3.596   8.813  0.2245  1.7489 -0.0332
  690MOL0     H91070   2.311   3.675   8.773 -0.9974  0.4823 -0.4015
  690MOL0     H91071   2.351   3.645   8.937  2.4300 -0.7630 -2.5893
  690MOL0     H91072   2.513   3.781   8.763 -1.1457 -3.8244  0.1262
  690MOL0     H91073   2.420   3.906   8.807 -4.0557 -1.7060 -0.5253
  690MOL0     H91074   2.479   3.842   9.057 -1.7449 -1.0777 -1.0674
  690MOL0     H91075   2.620   3.900   8.962 -0.8514 -0.9867 -0.1540
  690MOL0     H91076   2.572   3.603   8.981 -0.3194 -1.0294  0.4210
  690MOL0     H91077   2.703   3.700   8.909  0.2800 -3.0126  0.1102
  690MOL0     H91078   2.795   3.711   9.327  1.2603  0.4365  0.0272
  690MOL0     H91079   2.087   3.874   9.131  0.7227 -0.3764 -1.1622
  690MOL0     H91080   1.887   3.771   9.221  2.5142  0.8812  0.0504
  691MOL0     O91081   0.366   0.475   3.183 -0.1521 -0.3489 -0.2583
  691MOL0     C91082   0.404   0.493   3.293 -0.3825 -0.6195 -0.3571
  691MOL0     O91083   0.323   0.477   3.408 -0.7917  0.2954 -0.8914
  691MOL0     C91084   0.192   0.509   3.394 -0.1076 -0.0632 -0.4887
  691MOL0     C91085   0.135   0.603   3.312  0.4047  0.2937  0.2531
  691MOL0     C91086  -0.001   0.607   3.287 -0.0770  0.1511  0.1797
  691MOL0     C91087  -0.087   0.521   3.352 -0.0497 -0.4798 -0.0464
  691MOL0     O91088  -0.219   0.541   3.332  0.1306  0.3363  0.6736
  691MOL0     C91089  -0.291   0.415   3.315  0.4815 -0.4263  0.0820
  691MOL0     C91090  -0.358   0.417   3.178  0.0825  0.0000 -0.3356
  691MOL0     C91091  -0.481   0.329   3.171  0.0534  0.6909 -0.4243
  691MOL0     C91092  -0.437   0.178   3.185  1.0185 -0.1363  0.3626
  691MOL0     C91093  -0.549   0.082   3.171  0.3722  0.2530 -0.1467
  691MOL0     C91094  -0.504  -0.060   3.164 -1.0553  0.3879 -0.1346
  691MOL0     C91095  -0.613  -0.173   3.177  0.5014  0.2920 -0.1241
  691MOL0     C91096  -0.682  -0.173   3.315 -0.4840 -0.9103 -0.6103
  691MOL0     N91097  -0.757  -0.298   3.340 -0.5397  0.5037 -0.3710
  691MOL0     C91098  -0.885  -0.321   3.299  0.1626  0.2186  0.5601
  691MOL0     C91099  -0.908  -0.447   3.328  0.5916 -0.7791  0.2832
  691MOL0     C91100  -1.033  -0.524   3.287  0.4592 -0.1710 -0.3672
  691MOL0     C91101  -1.101  -0.580   3.402 -0.2337 -0.1662  0.2454
  691MOL0     C91102  -1.223  -0.670   3.353  0.2647 -0.4702  0.4919
  691MOL0     C91103  -1.326  -0.695   3.464 -0.4381 -0.5001 -0.1042
  691MOL0     O91104  -1.434  -0.776   3.417 -0.1321 -0.6975  0.5923
  691MOL0     C91105  -1.562  -0.759   3.473 -0.0957 -0.8255  0.9230
  691MOL0     C91106  -1.591  -0.725   3.603  0.1360  0.4281  0.9094
  691MOL0     C91107  -1.726  -0.726   3.648 -1.2921 -1.4004 -0.1334
  691MOL0     C91108  -1.837  -0.757   3.559 -0.3172  0.2534  0.3771
  691MOL0     C91109  -1.979  -0.754   3.613 -0.3970 -0.0405  0.7951
  691MOL0     O91110  -2.006  -0.684   3.722 -0.6915  0.5176 -0.2541
  691MOL0     C91111  -2.130  -0.702   3.780 -0.0226 -0.1545  0.2871
  691MOL0     C91112  -2.227  -0.605   3.752 -0.5425 -0.2156 -0.7506
  691MOL0     C91113  -2.358  -0.620   3.801  0.2559 -0.3058  0.7956
  691MOL0     C91114  -2.398  -0.733   3.871  0.2398 -0.6354  0.8826
  691MOL0     O91115  -2.528  -0.738   3.906  0.1685 -0.0848 -0.3879
  691MOL0     C91116  -2.609  -0.789   3.802 -0.7666 -0.1466  0.2435
  691MOL0     C91117  -2.748  -0.747   3.834  0.3945  0.6096  0.3383
  691MOL0     C91118  -2.806  -0.812   3.959 -0.3621  0.9932  0.0916
  691MOL0     C91119  -2.954  -0.767   3.982 -0.3479 -0.7433  0.8500
  691MOL0     C91120  -2.950  -0.626   4.049  0.0685 -0.0398  0.2442
  691MOL0     C91121  -3.090  -0.589   4.101  0.2832  0.3567 -0.0411
  691MOL0     C91122  -3.204  -0.600   3.998  0.1081 -0.6468  0.0512
  691MOL0     C91123  -3.182  -0.513   3.867 -1.3675  0.0395  0.4878
  691MOL0    Cl91124  -3.189  -0.328   3.890  0.6459  0.0143 -0.2707
  691MOL0     C91125  -2.299  -0.833   3.897 -0.0913 -0.0713  1.0385
  691MOL0     C91126  -2.171  -0.817   3.846 -0.6262 -0.6963 -0.4810
  691MOL0     O91127  -2.061  -0.810   3.538 -0.1380 -0.5587 -0.2049
  691MOL0     C91128  -1.805  -0.799   3.426  0.1015 -0.2163  0.3325
  691MOL0     C91129  -1.668  -0.802   3.395 -0.0817  0.3984  0.6488
  691MOL0     N91130  -0.793  -0.502   3.392  0.9884  0.0039  0.6003
  691MOL0     N91131  -0.702  -0.410   3.387  0.5931 -0.0467  0.0247
  691MOL0     C91132  -0.033   0.416   3.433  0.7397 -0.5075 -0.5325
  691MOL0     C91133   0.106   0.407   3.455  0.4358  0.5407  1.0373
  691MOL0     C91134   0.547   0.522   3.317  0.5582  0.2774 -0.2197
  691MOL0     C91135   0.593   0.539   3.445 -0.0201 -0.2123  0.0417
  691MOL0     C91136   0.728   0.569   3.455  0.4340 -0.0140 -0.0994
  691MOL0     C91137   0.820   0.572   3.348 -0.1274 -0.4628  0.2295
  691MOL0     O91138   0.952   0.596   3.368  0.4877 -0.5033  0.2188
  691MOL0     C91139   1.055   0.552   3.279 -0.5901  0.1952  0.1406
  691MOL0     C91140   1.072   0.396   3.275 -0.6420 -0.9824  0.6933
  691MOL0     C91141   1.201   0.360   3.195  0.4572  0.3280 -0.1173
  691MOL0     C91142   1.215   0.216   3.155  0.2040 -0.0925  0.3185
  691MOL0     C91143   1.103   0.159   3.090 -0.2948 -0.1066 -0.0795
  691MOL0     C91144   1.002   0.113   3.035  0.8631 -0.1412 -0.3778
  691MOL0     C91145   0.777   0.543   3.222 -0.5141  0.2628 -0.3485
  691MOL0     C91146   0.635   0.532   3.204  0.3713 -0.8273 -0.3124
  691MOL0     H91147   0.203   0.676   3.270  0.3742  1.3307  1.9368
  691MOL0     H91148  -0.064   0.676   3.231 -1.0123 -0.6214  0.2613
  691MOL0     H91149  -0.370   0.407   3.390 -1.3320 -2.3587 -1.8802
  691MOL0     H91150  -0.231   0.324   3.327 -1.1646 -1.7223 -1.1879
  691MOL0     H91151  -0.282   0.393   3.102 -0.0627  2.8885 -1.5079
  691MOL0     H91152  -0.386   0.520   3.156 -1.9044 -0.5507 -0.5367
  691MOL0     H91153  -0.541   0.336   3.080  1.1883 -3.3391 -1.6862
  691MOL0     H91154  -0.549   0.367   3.247 -0.7840  1.7308 -1.6441
  691MOL0     H91155  -0.356   0.173   3.112 -0.3711  0.4533 -1.2749
  691MOL0     H91156  -0.395   0.165   3.285  0.6040 -0.6171  0.4777
  691MOL0     H91157  -0.612   0.098   3.084  2.1752  1.8152 -1.2310
  691MOL0     H91158  -0.621   0.093   3.253  0.0446  0.0640 -0.4091
  691MOL0     H91159  -0.420  -0.059   3.235 -1.5252  2.3920  0.4724
  691MOL0     H91160  -0.462  -0.076   3.064  0.3886  0.3246  0.4617
  691MOL0     H91161  -0.689  -0.179   3.099 -0.7041 -0.3848  1.0606
  691MOL0     H91162  -0.555  -0.265   3.170 -1.0172 -0.7565  0.5073
  691MOL0     H91163  -0.741  -0.083   3.334  2.8885  1.2848  0.3507
  691MOL0     H91164  -0.605  -0.152   3.389 -1.2570 -1.7697  0.4710
  691MOL0     H91165  -0.944  -0.241   3.256  1.6036  1.6009  1.0635
  691MOL0     H91166  -1.000  -0.610   3.228  1.9688  1.7283 -2.4287
  691MOL0     H91167  -1.103  -0.459   3.233 -0.8834 -2.9367 -2.2075
  691MOL0     H91168  -1.132  -0.502   3.472 -0.5837 -1.2445  1.3297
  691MOL0     H91169  -1.046  -0.653   3.462 -0.4200 -0.8986 -0.4558
  691MOL0     H91170  -1.274  -0.623   3.268  0.0119 -0.3360  0.7148
  691MOL0     H91171  -1.184  -0.764   3.313 -1.1711 -0.8606 -0.0240
  691MOL0     H91172  -1.356  -0.593   3.491 -0.4357 -0.0853 -1.5609
  691MOL0     H91173  -1.270  -0.738   3.547  0.8493  2.7859  0.8824
  691MOL0     H91174  -1.526  -0.704   3.687  1.6858  1.9340 -0.5762
  691MOL0     H91175  -1.737  -0.691   3.750  1.2314  0.3227 -0.3468
  691MOL0     H91176  -2.196  -0.514   3.701  0.0393 -0.7882 -1.4346
  691MOL0     H91177  -2.437  -0.549   3.776 -1.7552 -2.1775  1.5219
  691MOL0     H91178  -2.596  -0.897   3.792  1.5976  0.1418 -0.3896
  691MOL0     H91179  -2.575  -0.753   3.704  0.1097  1.0012  0.9473
  691MOL0     H91180  -2.807  -0.778   3.747  2.7342  1.5762 -1.7136
  691MOL0     H91181  -2.758  -0.638   3.838 -1.8490  0.4035  2.0014
  691MOL0     H91182  -2.755  -0.789   4.054 -2.2044  0.6601  1.2194
  691MOL0     H91183  -2.790  -0.918   3.936  3.0865  1.6802 -1.2461
  691MOL0     H91184  -3.016  -0.764   3.893  2.8986  0.8628 -1.5627
  691MOL0     H91185  -2.996  -0.833   4.059 -3.5444  0.8687  0.6587
  691MOL0     H91186  -2.921  -0.547   3.979 -1.1114  0.3270  0.1501
  691MOL0     H91187  -2.881  -0.623   4.134 -1.6354 -0.1187  1.6984
  691MOL0     H91188  -3.084  -0.492   4.150 -0.6541  0.4298 -0.0477
  691MOL0     H91189  -3.118  -0.650   4.187 -1.1290  3.8863  2.2227
  691MOL0     H91190  -3.223  -0.700   3.959  0.2889 -1.7014  2.4947
  691MOL0     H91191  -3.288  -0.556   4.053  0.5533  0.8974 -0.4261
  691MOL0     H91192  -3.259  -0.549   3.798 -0.9386 -2.1838  1.1010
  691MOL0     H91193  -3.083  -0.541   3.831 -1.5894 -0.6142  0.3798
  691MOL0     H91194  -2.329  -0.923   3.949 -0.0727 -0.7986 -0.1571
  691MOL0     H91195  -2.107  -0.904   3.856 -1.1791 -1.0590 -0.0572
  691MOL0     H91196  -1.877  -0.831   3.351  1.3675 -2.8282  0.0945
  691MOL0     H91197  -1.646  -0.840   3.296  1.4595 -1.5174  1.6352
  691MOL0     H91198  -0.085   0.333   3.480  2.7633 -0.2684  2.4301
  691MOL0     H91199   0.147   0.343   3.532  1.2713  1.8717  1.7418
  691MOL0     H91200   0.532   0.528   3.534  1.0738 -0.0304  0.8414
  691MOL0     H91201   0.773   0.591   3.551 -1.2105 -1.2124  1.0008
  691MOL0     H91202   1.151   0.594   3.312 -0.9829  1.4535 -0.2583
  691MOL0     H91203   1.046   0.589   3.177 -3.3509  0.0807  0.2840
  691MOL0     H91204   1.076   0.354   3.376  0.1066  0.0404  1.1013
  691MOL0     H91205   0.979   0.353   3.235  0.2223 -1.3320 -1.0387
  691MOL0     H91206   1.293   0.379   3.252  2.1685 -1.6658 -2.0141
  691MOL0     H91207   1.188   0.414   3.101 -3.4861 -2.5269 -1.4624
  691MOL0     H91208   1.301   0.203   3.089  0.2860 -0.3729  0.4816
  691MOL0     H91209   1.236   0.159   3.246  2.1780  0.9938  0.6182
  691MOL0     H91210   0.906   0.077   3.005  0.3542  1.1464 -0.3593
  691MOL0     H91211   0.846   0.537   3.138  2.1865  0.2314  1.7439
  691MOL0     H91212   0.596   0.485   3.114 -0.8004 -1.3650  0.4522
  692MOL0     O91213  11.001  11.104   1.433  0.2367  0.2003 -0.8278
  692MOL0     C91214  10.916  11.139   1.510  0.2811 -0.5706 -0.3134
  692MOL0     O91215  10.931  11.194   1.637 -0.0063 -0.4381 -0.2872
  692MOL0     C91216  11.056  11.183   1.687  0.0505 -0.3349  0.0893
  692MOL0     C91217  11.082  11.076   1.772  0.0972 -0.4170  0.7222
  692MOL0     C91218  11.209  11.069   1.824  0.1227  0.1946 -0.1054
  692MOL0     C91219  11.313  11.156   1.792  0.0342 -0.3431  0.0182
  692MOL0     O91220  11.441  11.128   1.836 -0.5349  0.1576  0.2803
  692MOL0     C91221  11.556  11.174   1.766 -0.9911  0.7102 -0.2163
  692MOL0     C91222  11.685  11.131   1.842  0.0471  0.6189 -0.0523
  692MOL0     C91223  11.694  11.180   1.988 -0.4604 -0.5252 -0.1965
  692MOL0     C91224  11.616  11.095   2.090 -0.8172  0.5284 -0.0481
  692MOL0     C91225  11.690  10.959   2.109  0.5798 -0.4363 -0.1172
  692MOL0     C91226  11.627  10.876   2.217 -1.0345  0.7344  0.7369
  692MOL0     C91227  11.719  10.760   2.263 -0.0021  0.0171 -0.8970
  692MOL0     C91228  11.676  10.691   2.398  0.4342 -0.2846  0.0649
  692MOL0     N91229  11.543  10.636   2.396 -0.6501  0.3534  0.0353
  692MOL0     C91230  11.492  10.552   2.301 -1.3336 -0.1340  0.5219
  692MOL0     C91231  11.376  10.504   2.350  0.8408  0.0699 -1.0103
  692MOL0     C91232  11.273  10.421   2.283 -0.2026 -0.5536  0.4633
  692MOL0     C91233  11.315  10.333   2.156 -0.0412 -0.8144 -0.3047
  692MOL0     C91234  11.202  10.229   2.120  0.6797  0.4665 -0.6175
  692MOL0     C91235  11.073  10.284   2.054  0.2945 -0.1270 -0.3851
  692MOL0     O91236  11.019  10.381   2.135  0.0479  0.1707 -0.8701
  692MOL0     C91237  10.884  10.406   2.142 -1.7007 -0.0113 -0.1228
  692MOL0     C91238  10.839  10.491   2.245 -0.3591 -0.5786 -0.3851
  692MOL0     C91239  10.695  10.527   2.249 -0.0080  0.7736 -0.2783
  692MOL0     C91240  10.597  10.482   2.159 -0.2169 -0.0900  0.0154
  692MOL0     C91241  10.461  10.521   2.153  0.3244  0.3537  0.2264
  692MOL0     O91242  10.384  10.458   2.060 -0.0741  0.8077 -0.4106
  692MOL0     C91243  10.261  10.502   2.014  0.1949  0.8294 -0.8157
  692MOL0     C91244  10.237  10.534   1.880  0.2875 -0.5931  0.1472
  692MOL0     C91245  10.109  10.544   1.824 -0.0748  0.2667  0.6773
  692MOL0     C91246   9.995  10.520   1.914 -0.1620  0.6515  0.7225
  692MOL0     O91247   9.877  10.537   1.847 -0.1540 -0.1536  0.2024
  692MOL0     C91248   9.768  10.466   1.894 -0.5571  0.6014 -0.9228
  692MOL0     C91249   9.641  10.507   1.801  0.1394 -0.4972  0.0255
  692MOL0     C91250   9.512  10.432   1.844 -0.2836 -1.9241  0.2721
  692MOL0     C91251   9.381  10.502   1.791  0.8252 -0.1765 -0.3218
  692MOL0     C91252   9.254  10.427   1.848 -0.3622  0.7015 -0.2177
  692MOL0     C91253   9.137  10.453   1.762  0.6021  0.6123 -0.1351
  692MOL0     C91254   9.112  10.603   1.732 -0.1623 -0.0897  0.0944
  692MOL0     C91255   8.964  10.639   1.715 -0.3956 -0.2090  0.0734
  692MOL0    Cl91256   8.910  10.541   1.569 -0.1747  0.0816  0.3181
  692MOL0     C91257  10.023  10.495   2.049  1.2543 -0.9197  0.7818
  692MOL0     C91258  10.149  10.491   2.096  1.2358 -0.5547  0.8239
  692MOL0     O91259  10.425  10.614   2.224 -0.6639 -0.3432 -0.1996
  692MOL0     C91260  10.653  10.395   2.057 -0.2846  0.3503  0.0509
  692MOL0     C91261  10.790  10.364   2.051  0.1816  0.0204  0.4460
  692MOL0     N91262  11.361  10.547   2.484  0.5125 -0.9370  0.1387
  692MOL0     N91263  11.460  10.622   2.506 -1.1382  0.7847 -0.4508
  692MOL0     C91264  11.278  11.259   1.701  0.5573  0.4400  0.5304
  692MOL0     C91265  11.150  11.277   1.650 -0.5454 -0.1369  0.0746
  692MOL0     C91266  10.773  11.117   1.468 -0.3399  0.9306  0.0903
  692MOL0     C91267  10.668  11.134   1.562  0.6223  1.0737 -0.0051
  692MOL0     C91268  10.533  11.104   1.513 -0.3324 -0.1598  0.1692
  692MOL0     C91269  10.514  11.074   1.380 -0.4533  0.5421 -0.0647
  692MOL0     O91270  10.388  11.034   1.331  0.1452  0.1327  1.1229
  692MOL0     C91271  10.272  11.044   1.411  0.3394 -0.2469 -0.0823
  692MOL0     C91272  10.165  10.958   1.338  0.1727  0.0115  0.3537
  692MOL0     C91273  10.088  11.030   1.230 -0.7601 -0.7527  0.1521
  692MOL0     C91274   9.975  10.954   1.165  0.3580  0.7109  0.1002
  692MOL0     C91275   9.854  10.942   1.245 -1.2231 -0.4455  0.5891
  692MOL0     C91276   9.744  10.927   1.282  0.2277 -0.1329 -0.8860
  692MOL0     C91277  10.619  11.061   1.292  0.1002  0.5006  0.7967
  692MOL0     C91278  10.751  11.082   1.330  0.1310 -0.0351 -0.2013
  692MOL0     H91279  11.003  11.006   1.799 -1.3826  0.3372 -1.3706
  692MOL0     H91280  11.244  10.986   1.885 -2.8905 -0.3786  1.0663
  692MOL0     H91281  11.554  11.284   1.767 -0.9561  0.7176  1.5111
  692MOL0     H91282  11.568  11.138   1.663 -3.4342 -0.6495 -0.0856
  692MOL0     H91283  11.764  11.177   1.781 -0.2565 -0.3852 -1.2528
  692MOL0     H91284  11.696  11.022   1.836 -1.1672  0.4710  0.2041
  692MOL0     H91285  11.640  11.274   1.998  1.5645  1.0062 -2.5115
  692MOL0     H91286  11.798  11.188   2.020  0.1655 -1.7244 -1.7735
  692MOL0     H91287  11.619  11.140   2.190  0.0789 -3.7193  2.0668
  692MOL0     H91288  11.513  11.067   2.067 -0.4753 -1.6747  0.8808
  692MOL0     H91289  11.796  10.982   2.126 -0.0478  1.0143  2.4766
  692MOL0     H91290  11.697  10.905   2.015 -1.7590 -2.2921  0.6809
  692MOL0     H91291  11.531  10.834   2.183 -0.3194 -0.6429  0.3417
  692MOL0     H91292  11.605  10.945   2.299  2.9688  0.1774  2.4883
  692MOL0     H91293  11.708  10.679   2.189 -1.5786 -2.2424  1.6247
  692MOL0     H91294  11.822  10.795   2.265  0.3857 -1.0870 -0.6359
  692MOL0     H91295  11.677  10.764   2.480 -0.8246  0.8356 -0.8710
  692MOL0     H91296  11.745  10.608   2.413  1.0079  0.0627 -0.5782
  692MOL0     H91297  11.530  10.532   2.201 -1.0523 -0.8259  0.7629
  692MOL0     H91298  11.200  10.493   2.244  2.5300  1.7389 -0.8452
  692MOL0     H91299  11.227  10.359   2.360  2.6572  0.0540  2.8592
  692MOL0     H91300  11.407  10.281   2.183  0.4234  0.2699  0.2420
  692MOL0     H91301  11.331  10.397   2.069 -2.2926  0.2796  0.0239
  692MOL0     H91302  11.238  10.153   2.050 -0.8551 -2.8553  1.9620
  692MOL0     H91303  11.182  10.168   2.208  1.0908  0.1604 -0.7333
  692MOL0     H91304  10.994  10.209   2.042  1.2451 -0.7395 -4.1207
  692MOL0     H91305  11.091  10.314   1.950  2.1444 -2.4802 -0.8409
  692MOL0     H91306  10.914  10.522   2.317  0.0449 -0.9153 -0.6503
  692MOL0     H91307  10.664  10.587   2.335 -0.5198 -1.6385  1.3171
  692MOL0     H91308  10.322  10.545   1.814  0.3675 -0.0662  0.3323
  692MOL0     H91309  10.093  10.557   1.717 -0.3295  0.8220  0.7852
  692MOL0     H91310   9.738  10.495   1.994  0.1876 -2.5177  0.3380
  692MOL0     H91311   9.794  10.359   1.886 -2.9710 -0.0954 -0.0542
  692MOL0     H91312   9.671  10.487   1.698  0.1316 -2.5850  0.3935
  692MOL0     H91313   9.614  10.613   1.812 -0.5141 -0.6048 -0.4788
  692MOL0     H91314   9.522  10.420   1.953  3.5715 -2.2296  0.0225
  692MOL0     H91315   9.517  10.327   1.813  2.0555 -1.8464  0.1625
  692MOL0     H91316   9.371  10.602   1.834  0.8859 -0.4158  0.2448
  692MOL0     H91317   9.378  10.508   1.681 -0.3313 -0.5395 -0.3272
  692MOL0     H91318   9.232  10.471   1.946  0.3241  1.0553 -0.2145
  692MOL0     H91319   9.269  10.320   1.866  1.1098  1.0405  0.8135
  692MOL0     H91320   9.050  10.421   1.819 -0.5111 -0.2695 -2.2382
  692MOL0     H91321   9.144  10.388   1.674 -2.5050 -1.6825  1.1405
  692MOL0     H91322   9.166  10.666   1.804  1.2294  0.1824 -1.1411
  692MOL0     H91323   9.163  10.614   1.636  1.9599 -4.6833  0.3967
  692MOL0     H91324   8.967  10.747   1.696  1.5277 -0.0896  0.8198
  692MOL0     H91325   8.911  10.611   1.807  0.5816  2.5047  1.5726
  692MOL0     H91326   9.938  10.484   2.115 -0.8030  0.3517 -1.5133
  692MOL0     H91327  10.176  10.462   2.198  3.1610 -0.2247  0.4488
  692MOL0     H91328  10.587  10.365   1.977  0.6076  1.9626 -1.3629
  692MOL0     H91329  10.819  10.300   1.969  0.4225 -1.1741  1.4266
  692MOL0     H91330  11.360  11.326   1.676  0.8854  0.2285  1.0160
  692MOL0     H91331  11.125  11.365   1.591  2.4717  0.8375  0.0771
  692MOL0     H91332  10.679  11.166   1.665  0.7044  0.1480  0.2785
  692MOL0     H91333  10.461  11.095   1.594  1.0866 -2.0757  1.3049
  692MOL0     H91334  10.236  11.145   1.431  0.2555  0.4880 -3.5042
  692MOL0     H91335  10.287  10.990   1.506  0.0421  0.8879  0.6317
  692MOL0     H91336  10.205  10.866   1.294 -1.1487 -0.6653  0.5242
  692MOL0     H91337  10.077  10.931   1.397  1.2593  0.0031  2.0574
  692MOL0     H91338  10.156  11.062   1.151 -1.4513 -0.1318 -0.2082
  692MOL0     H91339  10.058  11.123   1.281  0.0318 -1.1037  1.3054
  692MOL0     H91340   9.949  10.999   1.069 -0.4353  0.3446  0.1278
  692MOL0     H91341  10.002  10.849   1.145 -0.6858  0.2728  0.8810
  692MOL0     H91342   9.645  10.900   1.314  0.7037 -2.9509 -1.5928
  692MOL0     H91343  10.602  11.020   1.193  1.2333  0.5628  0.5633
  692MOL0     H91344  10.832  11.068   1.258  0.5982  1.2571  0.0339
  693MOL0     O91345   3.819   8.304  10.831  0.1180 -0.1231  0.4223
  693MOL0     C91346   3.747   8.247  10.745  0.6864 -0.1786  0.4092
  693MOL0     O91347   3.605   8.227  10.758  0.0372 -0.4650 -0.6194
  693MOL0     C91348   3.534   8.268  10.865  0.2701  1.1683 -1.2760
  693MOL0     C91349   3.427   8.188  10.907 -0.6657 -0.2911  0.4956
  693MOL0     C91350   3.345   8.232  11.006  0.0028  0.0957  0.4009
  693MOL0     C91351   3.355   8.355  11.058 -0.3799  0.4372 -0.2069
  693MOL0     O91352   3.270   8.404  11.155  0.0830  0.2097 -0.5008
  693MOL0     C91353   3.128   8.406  11.098  0.2566 -0.0370 -0.1316
  693MOL0     C91354   3.061   8.541  11.122 -0.3412  0.2855  0.4826
  693MOL0     C91355   2.955   8.587  11.013  0.6225  0.1153 -0.0696
  693MOL0     C91356   2.909   8.724  11.055 -0.0601  0.4013 -0.1709
  693MOL0     C91357   2.788   8.772  10.981  0.4025 -0.4434 -0.0757
  693MOL0     C91358   2.677   8.678  10.999  0.1201  0.0875 -0.2232
  693MOL0     C91359   2.542   8.718  10.940 -0.4953  0.7450 -0.0694
  693MOL0     C91360   2.450   8.594  10.937  0.1554 -0.3207  0.0203
  693MOL0     N91361   2.309   8.617  10.884 -0.6529  0.9760 -0.1859
  693MOL0     C91362   2.289   8.667  10.759 -0.2612  0.4823 -0.4338
  693MOL0     C91363   2.152   8.660  10.751 -0.3405  1.1038  0.4834
  693MOL0     C91364   2.080   8.713  10.627 -0.5684 -0.7478 -0.2332
  693MOL0     C91365   1.976   8.623  10.564  0.1112 -0.1689  0.3849
  693MOL0     C91366   1.850   8.615  10.651 -0.1123  0.7787  0.3822
  693MOL0     C91367   1.743   8.532  10.577  0.3212  0.0835 -0.2245
  693MOL0     O91368   1.618   8.595  10.618 -0.1698  0.0719 -0.2008
  693MOL0     C91369   1.513   8.585  10.536 -0.1405  0.0298 -0.0147
  693MOL0     C91370   1.525   8.638  10.407 -0.1200 -0.0591  0.7542
  693MOL0     C91371   1.415   8.644  10.320  0.9889  0.5466  0.7826
  693MOL0     C91372   1.298   8.584  10.361 -0.1212  0.1996  0.3232
  693MOL0     C91373   1.174   8.589  10.268 -0.1170  0.1598  0.5416
  693MOL0     O91374   1.076   8.509  10.306  0.2195  0.2468 -0.1925
  693MOL0     C91375   0.964   8.489  10.231  0.1622  0.5018  1.0501
  693MOL0     C91376   0.941   8.370  10.163  0.4078  0.9287 -0.2013
  693MOL0     C91377   0.822   8.351  10.090 -0.3317 -0.6604  0.1976
  693MOL0     C91378   0.728   8.454  10.085  0.4127  0.5101 -0.3045
  693MOL0     O91379   0.607   8.424  10.023 -0.2825 -0.2472 -0.5727
  693MOL0     C91380   0.496   8.524  10.010  0.1296  0.0836  0.1344
  693MOL0     C91381   0.371   8.453   9.963  0.2102 -0.4438 -0.6767
  693MOL0     C91382   0.379   8.353   9.842  0.2818 -0.1161  0.6130
  693MOL0     C91383   0.245   8.276   9.822  0.5660 -0.5113 -0.3004
  693MOL0     C91384   0.259   8.180   9.706 -0.0655  0.0958  0.2258
  693MOL0     C91385   0.117   8.149   9.652  1.2129  0.5314  0.6209
  693MOL0     C91386   0.141   8.046   9.541 -0.0118  0.4057 -0.1690
  693MOL0     C91387   0.020   8.038   9.441 -0.5451  0.7904 -0.1464
  693MOL0    Cl91388  -0.124   7.978   9.516  0.2673 -0.5922 -0.3990
  693MOL0     C91389   0.748   8.565  10.171 -0.5702  0.5166 -0.3947
  693MOL0     C91390   0.864   8.582  10.242 -0.9007  0.1474  0.2742
  693MOL0     O91391   1.180   8.664  10.168  0.0370 -0.1045  0.0016
  693MOL0     C91392   1.286   8.528  10.497  0.0410 -0.6292 -0.4545
  693MOL0     C91393   1.393   8.529  10.581  0.5864 -0.3509 -0.4949
  693MOL0     N91394   2.096   8.615  10.868  0.6513  0.3350  0.1112
  693MOL0     N91395   2.190   8.588  10.951  0.1288  0.4179 -0.4571
  693MOL0     C91396   3.463   8.437  11.029 -0.3892  0.2937  0.1183
  693MOL0     C91397   3.560   8.391  10.934  0.2936 -0.4027 -0.3976
  693MOL0     C91398   3.820   8.208  10.625 -0.5245 -0.2698  0.4481
  693MOL0     C91399   3.946   8.274  10.589  0.3067  0.4771  0.9016
  693MOL0     C91400   4.016   8.234  10.473 -0.5358 -0.2057 -0.0763
  693MOL0     C91401   3.970   8.126  10.399 -0.4504  0.1073  0.4440
  693MOL0     O91402   4.033   8.081  10.292  0.3432  0.6336  0.5308
  693MOL0     C91403   4.021   7.942  10.240 -0.5771  0.1503  0.2146
  693MOL0     C91404   4.102   7.909  10.115  0.5785 -0.3039  0.2513
  693MOL0     C91405   4.087   8.006  10.004  0.5871  0.1674 -0.0264
  693MOL0     C91406   4.187   8.117  10.003  0.4722 -0.0879 -1.0406
  693MOL0     C91407   4.323   8.084   9.960  0.0759 -0.1234 -0.2312
  693MOL0     C91408   4.420   8.035   9.904  0.3283 -0.0389  0.5463
  693MOL0     C91409   3.841   8.077  10.425  0.3041  0.1819 -0.2710
  693MOL0     C91410   3.769   8.112  10.538  0.2208  0.1674  0.5446
  693MOL0     H91411   3.430   8.092  10.855  0.3063  0.4250 -0.8541
  693MOL0     H91412   3.266   8.165  11.040  0.3549 -0.8085 -0.5172
  693MOL0     H91413   3.072   8.321  11.137 -0.2645  0.2020 -0.3577
  693MOL0     H91414   3.129   8.378  10.992 -2.2035 -2.9910  0.4946
  693MOL0     H91415   3.142   8.612  11.140  2.3850 -3.1214  2.9893
  693MOL0     H91416   3.021   8.532  11.223 -0.5460 -0.2501  0.3584
  693MOL0     H91417   2.880   8.509  11.028  2.8973 -2.0791  0.4874
  693MOL0     H91418   2.987   8.591  10.908  1.5252  1.2098  0.2292
  693MOL0     H91419   2.888   8.728  11.162  1.8297 -3.3234  0.4799
  693MOL0     H91420   2.994   8.792  11.042 -0.6720  1.3134  0.4369
  693MOL0     H91421   2.816   8.780  10.875  0.1944 -2.0207 -0.2687
  693MOL0     H91422   2.750   8.866  11.021  2.2260 -0.0422  0.8259
  693MOL0     H91423   2.669   8.653  11.105  2.0797 -1.0604 -0.3116
  693MOL0     H91424   2.708   8.583  10.955 -0.1317 -0.2079  0.2274
  693MOL0     H91425   2.503   8.802  10.997 -1.4790  0.2036  0.0909
  693MOL0     H91426   2.561   8.750  10.837  0.5207  1.2301  0.2645
  693MOL0     H91427   2.445   8.566  11.042 -0.9904  0.3567  0.1674
  693MOL0     H91428   2.502   8.518  10.878  0.3809  0.1845 -0.4498
  693MOL0     H91429   2.360   8.707  10.688 -0.8016  0.9114 -0.7324
  693MOL0     H91430   2.153   8.739  10.551 -3.4599 -0.1529 -3.0299
  693MOL0     H91431   2.040   8.811  10.653  0.5281 -0.4790  0.4885
  693MOL0     H91432   2.015   8.521  10.559  0.1264 -0.1142 -0.7333
  693MOL0     H91433   1.959   8.656  10.462  1.3981  2.8276  1.0440
  693MOL0     H91434   1.874   8.569  10.747  3.2839 -0.0317 -0.7033
  693MOL0     H91435   1.812   8.714  10.680  0.5329  0.7082  1.5364
  693MOL0     H91436   1.749   8.426  10.605 -0.7522 -0.1731 -0.9051
  693MOL0     H91437   1.757   8.533  10.469  1.4531 -0.3624 -0.1067
  693MOL0     H91438   1.623   8.678  10.379  0.9298 -3.0285 -0.1640
  693MOL0     H91439   1.424   8.681  10.218 -0.3694  1.6757  1.0539
  693MOL0     H91440   1.022   8.298  10.168  1.7599  2.4606  1.2953
  693MOL0     H91441   0.792   8.260  10.038 -1.3462 -1.0239  1.3680
  693MOL0     H91442   0.517   8.608   9.943 -0.4146  0.3372  0.2743
  693MOL0     H91443   0.468   8.564  10.108 -2.1648  1.1235 -0.8714
  693MOL0     H91444   0.304   8.534   9.934 -0.9125 -2.1954 -3.3215
  693MOL0     H91445   0.340   8.393  10.049  1.0205  1.1284  0.7590
  693MOL0     H91446   0.458   8.277   9.847  1.9963  1.6135  1.1463
  693MOL0     H91447   0.397   8.415   9.754 -1.3465 -0.2231  0.1868
  693MOL0     H91448   0.208   8.220   9.909 -3.8428 -0.7016 -2.0241
  693MOL0     H91449   0.167   8.350   9.805  0.4274 -0.5125  0.2955
  693MOL0     H91450   0.317   8.091   9.734 -1.0966 -0.7846 -0.3708
  693MOL0     H91451   0.308   8.228   9.620 -0.1183 -2.0450 -1.0672
  693MOL0     H91452   0.069   8.232   9.600  1.5709 -0.9514 -2.3481
  693MOL0     H91453   0.044   8.108   9.723 -2.8022  1.2238 -2.6707
  693MOL0     H91454   0.233   8.071   9.488  0.0869  0.5750  0.0799
  693MOL0     H91455   0.157   7.947   9.584 -0.7930  0.0473 -0.6796
  693MOL0     H91456   0.049   7.977   9.355  0.4379  2.8302 -1.3640
  693MOL0     H91457  -0.008   8.135   9.400 -2.5037 -0.0080 -0.7985
  693MOL0     H91458   0.682   8.652  10.169  2.5128  3.0812  0.2639
  693MOL0     H91459   0.892   8.671  10.298  1.7034 -0.6263  0.3093
  693MOL0     H91460   1.203   8.466  10.531  0.2773 -0.4555  0.4734
  693MOL0     H91461   1.373   8.493  10.681  0.4567  4.9049  1.6551
  693MOL0     H91462   3.453   8.539  11.067 -0.1663 -0.8433  3.5919
  693MOL0     H91463   3.638   8.462  10.907 -0.4712  0.6901  0.1765
  693MOL0     H91464   3.982   8.350  10.657 -2.3678  0.1349  2.8311
  693MOL0     H91465   4.105   8.283  10.436 -0.4253 -1.2993 -1.3260
  693MOL0     H91466   3.916   7.929  10.212 -0.1584  1.1982 -2.0718
  693MOL0     H91467   4.036   7.864  10.316 -1.4670 -0.6383 -0.3949
  693MOL0     H91468   4.206   7.888  10.142  2.3020  4.5760 -1.4078
  693MOL0     H91469   4.055   7.823  10.067  0.3813 -0.5767  0.9149
  693MOL0     H91470   3.983   8.041  10.005 -0.4234 -2.5688 -1.6150
  693MOL0     H91471   4.090   7.962   9.904  2.2985  2.0731 -0.8828
  693MOL0     H91472   4.136   8.191   9.940  0.1241  0.5258 -0.0549
  693MOL0     H91473   4.183   8.159  10.104 -0.8382 -0.9184 -0.7256
  693MOL0     H91474   4.508   7.995   9.857 -0.4742 -0.3705 -0.7257
  693MOL0     H91475   3.791   8.004  10.362 -1.2846 -0.1757  1.2883
  693MOL0     H91476   3.682   8.055  10.570  0.1219 -0.1735 -0.3028
  694MOL0     O91477   1.630  10.103   5.889  0.1664 -0.5517  0.1433
  694MOL0     C91478   1.606  10.201   5.822  0.1118  0.5169  0.6985
  694MOL0     O91479   1.494  10.275   5.837 -0.0454  0.4401  0.5596
  694MOL0     C91480   1.401  10.219   5.913  0.0649 -0.4491 -0.1515
  694MOL0     C91481   1.349  10.297   6.016 -0.6333  0.4693 -0.6060
  694MOL0     C91482   1.240  10.242   6.096 -0.0140 -0.5772 -0.3963
  694MOL0     C91483   1.189  10.117   6.069 -0.5667  0.3308 -0.2616
  694MOL0     O91484   1.081  10.058   6.130  0.5350  0.4917  0.3933
  694MOL0     C91485   0.971  10.152   6.164  0.7245  0.0913 -0.5086
  694MOL0     C91486   0.835  10.086   6.202 -0.3221 -0.0754 -0.0716
  694MOL0     C91487   0.760  10.027   6.083 -0.0663 -0.2598 -0.9109
  694MOL0     C91488   0.625   9.958   6.130  0.8118 -0.2894  0.3901
  694MOL0     C91489   0.547   9.913   6.010 -0.4212 -0.3984  0.3898
  694MOL0     C91490   0.431   9.823   6.035 -0.0265 -0.8244 -0.0477
  694MOL0     C91491   0.340   9.813   5.912 -1.1537  0.7203  0.6904
  694MOL0     C91492   0.365   9.696   5.815 -0.0445 -0.3888  0.0776
  694MOL0     N91493   0.347   9.575   5.897 -0.0723  0.4719  0.1844
  694MOL0     C91494   0.223   9.529   5.927 -0.2105 -0.4751 -0.3124
  694MOL0     C91495   0.238   9.406   5.973  0.0829 -0.5961 -0.1259
  694MOL0     C91496   0.145   9.305   6.017  0.2218 -0.9831  0.3656
  694MOL0     C91497   0.048   9.382   6.111  0.3414 -0.3724 -0.1787
  694MOL0     C91498  -0.029   9.273   6.194 -0.0317  0.0612  0.6725
  694MOL0     C91499  -0.142   9.187   6.126  0.2784  0.5864  0.3904
  694MOL0     O91500  -0.234   9.259   6.048 -0.1864 -0.0601 -0.8043
  694MOL0     C91501  -0.321   9.182   5.966 -0.2089 -0.1041 -0.8998
  694MOL0     C91502  -0.291   9.061   5.897  0.4893 -0.6899 -0.1814
  694MOL0     C91503  -0.392   8.994   5.828 -0.2292 -0.0656 -0.1057
  694MOL0     C91504  -0.518   9.046   5.802  0.4389 -0.4675  0.0578
  694MOL0     C91505  -0.624   8.979   5.722  0.0756 -0.6210  0.7565
  694MOL0     O91506  -0.747   9.041   5.733 -0.2427 -0.3636  0.4232
  694MOL0     C91507  -0.852   8.992   5.657  0.0918  0.4282 -0.6951
  694MOL0     C91508  -0.910   8.865   5.690 -1.4033  0.7049  0.6913
  694MOL0     C91509  -1.015   8.823   5.611  0.3063 -0.1538 -1.1624
  694MOL0     C91510  -1.073   8.898   5.505 -0.7209 -0.3078 -0.3533
  694MOL0     O91511  -1.180   8.865   5.429  0.0442 -0.4647 -0.0912
  694MOL0     C91512  -1.239   8.734   5.444  1.0652 -0.1027  0.3616
  694MOL0     C91513  -1.374   8.742   5.376  0.0453 -0.0676  0.3393
  694MOL0     C91514  -1.463   8.618   5.394  0.7993  1.4874  0.4299
  694MOL0     C91515  -1.607   8.624   5.352  0.8229 -0.7619  0.3286
  694MOL0     C91516  -1.676   8.512   5.428 -0.2402 -0.3306  0.3615
  694MOL0     C91517  -1.828   8.498   5.404 -0.4570 -0.4518  0.7052
  694MOL0     C91518  -1.884   8.392   5.494 -0.6683  0.2132 -0.8693
  694MOL0     C91519  -2.025   8.349   5.458  0.2059 -0.1503  0.8779
  694MOL0    Cl91520  -2.020   8.241   5.313 -0.3415 -0.0516 -0.2563
  694MOL0     C91521  -1.014   9.025   5.483 -0.6689  0.4571  0.0564
  694MOL0     C91522  -0.905   9.066   5.560 -0.7438  0.6831 -0.3609
  694MOL0     O91523  -0.605   8.873   5.669 -0.0743 -0.0745  0.1982
  694MOL0     C91524  -0.540   9.171   5.864  0.2084 -0.7551 -0.1039
  694MOL0     C91525  -0.448   9.229   5.951 -0.9702 -0.4906  0.3782
  694MOL0     N91526   0.374   9.389   5.985 -0.5301  0.1334 -0.6124
  694MOL0     N91527   0.438   9.485   5.937 -0.0471 -0.1294 -0.3646
  694MOL0     C91528   1.241  10.043   5.961 -0.2277  0.5875 -0.4269
  694MOL0     C91529   1.338  10.099   5.880 -0.4386 -0.3958 -0.4242
  694MOL0     C91530   1.710  10.253   5.732 -0.4441 -0.5083  0.8047
  694MOL0     C91531   1.700  10.379   5.658  0.1259  0.0672 -0.4876
  694MOL0     C91532   1.804  10.428   5.579  0.0298  1.0853  0.4543
  694MOL0     C91533   1.926  10.352   5.560 -0.2435  1.4923  0.0354
  694MOL0     O91534   2.037  10.394   5.495 -0.0431  0.1461  0.1792
  694MOL0     C91535   2.015  10.486   5.386  0.7978  0.3585  1.2070
  694MOL0     C91536   2.139  10.484   5.298  0.1004  0.3035  0.1631
  694MOL0     C91537   2.261  10.508   5.390 -0.1494 -0.6607  0.3931
  694MOL0     C91538   2.387  10.535   5.302  0.4132 -0.3353 -0.8558
  694MOL0     C91539   2.495  10.554   5.397 -0.0594 -0.4138 -0.4131
  694MOL0     C91540   2.580  10.560   5.484  0.0219 -0.1234  0.4864
  694MOL0     C91541   1.935  10.227   5.627  0.1946 -0.5646 -0.3457
  694MOL0     C91542   1.824  10.181   5.704  0.4311  0.2534  0.1889
  694MOL0     H91543   1.400  10.391   6.035 -1.7591  0.9503  0.0909
  694MOL0     H91544   1.194  10.303   6.173 -1.1789 -1.8272 -0.0577
  694MOL0     H91545   0.956  10.219   6.079 -0.2638 -0.7832 -1.0542
  694MOL0     H91546   0.996  10.213   6.251 -0.9131 -0.4877  0.4083
  694MOL0     H91547   0.769  10.167   6.237  0.1429  0.9980 -1.5908
  694MOL0     H91548   0.856  10.015   6.282 -0.8491 -0.2994 -0.1279
  694MOL0     H91549   0.830   9.953   6.045 -0.3997 -0.7954 -0.4901
  694MOL0     H91550   0.754  10.107   6.008 -0.1181  0.7417  0.1222
  694MOL0     H91551   0.657   9.883   6.203 -1.7740 -1.1752  0.7210
  694MOL0     H91552   0.561  10.028   6.185  1.4216  1.6196 -1.2088
  694MOL0     H91553   0.611   9.865   5.936 -0.0141  2.8663 -1.5704
  694MOL0     H91554   0.519  10.008   5.964 -0.1058  0.0337  1.0795
  694MOL0     H91555   0.367   9.873   6.107 -1.6160 -3.5774  0.5799
  694MOL0     H91556   0.461   9.722   6.064  2.8703 -1.0675 -3.2456
  694MOL0     H91557   0.234   9.809   5.939 -2.3480 -1.4703 -3.4531
  694MOL0     H91558   0.346   9.905   5.854  0.2628 -0.4133 -1.0689
  694MOL0     H91559   0.469   9.686   5.785 -0.5381 -3.1468 -1.0328
  694MOL0     H91560   0.307   9.712   5.723  1.7336 -1.1894 -1.2503
  694MOL0     H91561   0.130   9.581   5.903 -0.2308 -0.3421  0.0632
  694MOL0     H91562   0.194   9.232   6.082 -1.9089 -2.5505  0.3258
  694MOL0     H91563   0.096   9.244   5.941 -0.5103 -0.1509  0.1523
  694MOL0     H91564  -0.015   9.455   6.059  0.6810  0.3276  0.3736
  694MOL0     H91565   0.111   9.436   6.182  0.2985  1.4485 -1.4453
  694MOL0     H91566   0.037   9.198   6.238 -1.5150 -0.3844  2.2583
  694MOL0     H91567  -0.073   9.331   6.276  0.0239  2.3646 -0.8445
  694MOL0     H91568  -0.192   9.127   6.203  0.6906  0.6410  0.7101
  694MOL0     H91569  -0.082   9.118   6.066  0.2098 -1.5664  2.6027
  694MOL0     H91570  -0.192   9.017   5.897 -0.2358 -2.4810 -2.0332
  694MOL0     H91571  -0.368   8.896   5.788 -2.1800 -0.4920 -0.3250
  694MOL0     H91572  -0.864   8.804   5.767 -2.6568 -1.0108  0.1346
  694MOL0     H91573  -1.066   8.730   5.632  1.5191 -1.2760 -2.8957
  694MOL0     H91574  -1.252   8.708   5.550  0.9743  0.3747  0.4730
  694MOL0     H91575  -1.181   8.651   5.405 -0.1517 -0.6535 -0.3349
  694MOL0     H91576  -1.367   8.771   5.270  1.9675 -2.2254 -0.2193
  694MOL0     H91577  -1.434   8.814   5.431 -0.1593  0.4350 -0.5278
  694MOL0     H91578  -1.453   8.593   5.500  0.7957  0.9987  0.3186
  694MOL0     H91579  -1.419   8.534   5.340  2.0987  0.8728  2.3553
  694MOL0     H91580  -1.666   8.712   5.377 -0.3045 -1.0939 -1.0394
  694MOL0     H91581  -1.606   8.609   5.243  3.3782  2.1206 -0.1791
  694MOL0     H91582  -1.646   8.525   5.532  1.5937  1.0337 -0.2752
  694MOL0     H91583  -1.641   8.413   5.395 -1.1889 -0.7749  0.6540
  694MOL0     H91584  -1.848   8.463   5.303 -1.5172  0.5527  0.5407
  694MOL0     H91585  -1.857   8.602   5.426  2.6316  0.5269  0.5640
  694MOL0     H91586  -1.815   8.308   5.484 -0.1520  0.4896  0.2398
  694MOL0     H91587  -1.871   8.418   5.599 -0.5972  1.7209 -1.2211
  694MOL0     H91588  -2.085   8.437   5.433  1.9672  0.8278 -0.1237
  694MOL0     H91589  -2.064   8.287   5.539  1.1815 -0.0367  1.4567
  694MOL0     H91590  -1.060   9.090   5.409 -0.6737 -1.8133 -2.0343
  694MOL0     H91591  -0.867   9.168   5.558  0.7587  0.2733  2.4753
  694MOL0     H91592  -0.625   9.236   5.849  1.4137  1.2462  1.1542
  694MOL0     H91593  -0.472   9.332   5.976 -1.0101  0.1481 -2.0136
  694MOL0     H91594   1.214   9.943   5.928  3.5892  0.5080 -4.2043
  694MOL0     H91595   1.365  10.033   5.799  0.4099 -1.5287  0.7429
  694MOL0     H91596   1.622  10.452   5.680  1.9496  1.2359  2.7981
  694MOL0     H91597   1.814  10.530   5.542  1.3701  0.2357 -1.6935
  694MOL0     H91598   2.005  10.592   5.411 -1.9223  1.5507 -3.6005
  694MOL0     H91599   1.924  10.461   5.331  0.9804  1.3715  0.4027
  694MOL0     H91600   2.163  10.391   5.245  1.6355  0.3919  0.6523
  694MOL0     H91601   2.132  10.572   5.234  0.1926  0.3633  0.2361
  694MOL0     H91602   2.276  10.415   5.447 -0.8060 -1.2633 -0.3949
  694MOL0     H91603   2.234  10.586   5.462 -1.4756 -2.0667  1.4764
  694MOL0     H91604   2.405  10.455   5.230 -1.5940  0.1752 -2.0054
  694MOL0     H91605   2.382  10.627   5.241  0.4463  0.1825 -0.0872
  694MOL0     H91606   2.664  10.556   5.551  0.4918 -0.9919 -0.1267
  694MOL0     H91607   2.018  10.160   5.609  1.8599  1.2878  0.1076
  694MOL0     H91608   1.843  10.084   5.750  1.2031  0.1709 -0.2762
  695MOL0     O91609  10.334   4.031   9.843  0.3316 -0.0854  0.3377
  695MOL0     C91610  10.384   4.003   9.735 -0.0831  0.9516 -0.6752
  695MOL0     O91611  10.332   3.916   9.646  0.0145 -0.3833  0.7448
  695MOL0     C91612  10.197   3.882   9.666 -1.1083  0.4505 -0.1360
  695MOL0     C91613  10.098   3.980   9.661  0.1841 -0.5808  0.5197
  695MOL0     C91614   9.963   3.949   9.666  0.5927 -0.8308 -0.5634
  695MOL0     C91615   9.930   3.818   9.697  0.1938 -0.6133  0.5517
  695MOL0     O91616   9.798   3.791   9.703  0.0165  0.0077  0.2583
  695MOL0     C91617   9.765   3.668   9.780  0.7111 -0.4865 -0.3643
  695MOL0     C91618   9.620   3.669   9.814 -0.9969  0.0135 -0.1408
  695MOL0     C91619   9.517   3.665   9.691 -0.1081  0.4911 -0.6085
  695MOL0     C91620   9.373   3.668   9.733 -0.3653 -0.1376 -0.9352
  695MOL0     C91621   9.270   3.678   9.620 -0.8007  0.4096 -0.2283
  695MOL0     C91622   9.131   3.691   9.672  0.4155 -0.5892 -0.7443
  695MOL0     C91623   9.045   3.749   9.568  0.9265 -0.5393 -0.0725
  695MOL0     C91624   8.906   3.779   9.627 -0.6324 -0.5556  0.7524
  695MOL0     N91625   8.821   3.868   9.557  0.6087  0.1898 -0.1137
  695MOL0     C91626   8.698   3.838   9.497  0.0479 -0.5466  0.0381
  695MOL0     C91627   8.643   3.961   9.457 -0.0460  0.0778  0.1980
  695MOL0     C91628   8.497   3.974   9.412  0.1095  0.3447 -0.0123
  695MOL0     C91629   8.405   4.023   9.524 -0.6374 -1.0755 -0.0764
  695MOL0     C91630   8.383   3.917   9.635  0.1024  0.3835 -0.1069
  695MOL0     C91631   8.287   3.968   9.729 -0.1195  0.6389 -1.4830
  695MOL0     O91632   8.268   3.867   9.839  0.0667 -0.4898 -0.1210
  695MOL0     C91633   8.146   3.827   9.880 -0.6184 -0.3105 -0.1214
  695MOL0     C91634   8.020   3.891   9.856 -0.7338 -0.4479  0.7380
  695MOL0     C91635   7.896   3.827   9.898 -0.9413  0.0932  0.3179
  695MOL0     C91636   7.898   3.699   9.953  0.5577 -0.2913  0.0800
  695MOL0     C91637   7.767   3.624   9.984 -0.3097  0.2940 -0.1697
  695MOL0     O91638   7.653   3.680   9.945  0.2428  0.5473  0.5479
  695MOL0     C91639   7.541   3.606   9.966  0.0051  0.0287  0.2903
  695MOL0     C91640   7.432   3.679  10.029 -0.7571  0.2758  0.0471
  695MOL0     C91641   7.319   3.603  10.050 -0.3187  0.1234 -0.5163
  695MOL0     C91642   7.307   3.470  10.025  0.0230 -0.0167 -0.8479
  695MOL0     O91643   7.201   3.411  10.076  0.1022  0.2924  0.2691
  695MOL0     C91644   7.206   3.269  10.095 -0.9945  1.1407  0.3787
  695MOL0     C91645   7.089   3.209  10.172  0.6689 -0.3654 -0.6724
  695MOL0     C91646   6.958   3.222  10.101  0.2738 -0.3961  0.8013
  695MOL0     C91647   6.852   3.191  10.196 -0.1383  0.0048  0.8296
  695MOL0     C91648   6.706   3.235  10.158  0.8488 -0.8752 -0.0311
  695MOL0     C91649   6.686   3.373  10.108 -0.1364 -0.2344  0.5252
  695MOL0     C91650   6.542   3.405  10.079 -0.7920  0.0118 -0.2665
  695MOL0     C91651   6.478   3.324   9.962 -0.4053 -0.4908 -0.0446
  695MOL0    Cl91652   6.317   3.387   9.933 -0.4006 -0.4318 -0.5154
  695MOL0     C91653   7.410   3.407   9.950 -0.0401  0.0017  0.3129
  695MOL0     C91654   7.529   3.471   9.919  0.0673  0.1137 -0.7559
  695MOL0     O91655   7.777   3.518  10.048  0.0938 -0.5381  0.2980
  695MOL0     C91656   8.020   3.635   9.972 -0.6172  0.2038 -0.0221
  695MOL0     C91657   8.141   3.698   9.940 -0.1576  0.2595 -0.4979
  695MOL0     N91658   8.735   4.059   9.496 -0.0738 -0.3003 -0.7415
  695MOL0     N91659   8.837   4.007   9.551  0.3197 -0.2098  0.0081
  695MOL0     C91660  10.032   3.720   9.701 -0.0767 -0.3467 -0.0976
  695MOL0     C91661  10.165   3.753   9.700 -0.0621  0.4365 -0.2119
  695MOL0     C91662  10.526   4.037   9.710  0.1572  0.0280  0.7816
  695MOL0     C91663  10.601   4.123   9.792  1.0205  0.1956  0.4835
  695MOL0     C91664  10.739   4.142   9.766  0.0126  0.2771 -0.2347
  695MOL0     C91665  10.804   4.076   9.659 -0.0378  0.4156 -0.5244
  695MOL0     O91666  10.935   4.128   9.633  0.1625  0.3130 -0.0419
  695MOL0     C91667  10.997   4.094   9.508  0.3432  0.2899  0.4815
  695MOL0     C91668  11.145   4.137   9.531  0.5559 -0.7270  0.9944
  695MOL0     C91669  11.230   4.080   9.423  0.2567  1.0009  0.3065
  695MOL0     C91670  11.382   4.106   9.449  0.0343 -0.0510 -0.4013
  695MOL0     C91671  11.469   4.066   9.331 -1.2428  0.0268 -0.0756
  695MOL0     C91672  11.527   4.035   9.234 -0.1758 -0.3517  1.0098
  695MOL0     C91673  10.728   3.987   9.582 -0.0329 -0.4948 -0.1395
  695MOL0     C91674  10.597   3.966   9.612 -0.8872 -1.0967 -0.2599
  695MOL0     H91675  10.114   4.085   9.638 -1.5148  0.0402  1.9457
  695MOL0     H91676   9.886   4.025   9.669  1.6096  0.1945  0.4349
  695MOL0     H91677   9.831   3.657   9.866  0.1354  0.1937  0.1821
  695MOL0     H91678   9.780   3.580   9.718  0.3873 -0.4879 -0.4455
  695MOL0     H91679   9.600   3.759   9.873  1.4212  1.2355 -1.0437
  695MOL0     H91680   9.610   3.575   9.869 -0.0494 -0.6220 -1.0087
  695MOL0     H91681   9.538   3.579   9.626  0.9878  0.9556 -0.9016
  695MOL0     H91682   9.532   3.747   9.619  1.1226  0.7344 -0.1091
  695MOL0     H91683   9.361   3.582   9.799 -0.8581  1.7610  1.6129
  695MOL0     H91684   9.363   3.757   9.796  1.3584 -1.5687  1.5479
  695MOL0     H91685   9.275   3.591   9.553 -0.8890  1.0657 -1.1059
  695MOL0     H91686   9.292   3.768   9.561 -2.4734  0.8596 -0.2015
  695MOL0     H91687   9.131   3.760   9.757  0.5177 -0.1802 -1.0764
  695MOL0     H91688   9.089   3.594   9.699 -1.0735  0.3713  0.5885
  695MOL0     H91689   9.091   3.846   9.547  0.4570 -0.3284 -0.1324
  695MOL0     H91690   9.036   3.683   9.481 -0.6306 -1.1156  0.4805
  695MOL0     H91691   8.926   3.824   9.725  3.8538 -0.2847 -0.0888
  695MOL0     H91692   8.845   3.691   9.649 -3.8830  1.3435  0.0634
  695MOL0     H91693   8.646   3.744   9.506 -0.6905 -0.0176  1.9247
  695MOL0     H91694   8.453   3.880   9.376  0.1690 -1.5418  4.2274
  695MOL0     H91695   8.501   4.037   9.323  4.4653 -0.2514 -0.4695
  695MOL0     H91696   8.311   4.064   9.487  0.0561  2.3083  1.4698
  695MOL0     H91697   8.459   4.105   9.573 -0.5557 -1.3139  0.2413
  695MOL0     H91698   8.333   3.831   9.589 -0.2184  0.1564  0.6473
  695MOL0     H91699   8.470   3.870   9.682  1.3124  1.0166 -1.6267
  695MOL0     H91700   8.190   3.986   9.683 -1.8749 -2.5182  0.5678
  695MOL0     H91701   8.347   4.055   9.755 -0.7086  1.4193 -2.6826
  695MOL0     H91702   8.026   3.992   9.817  3.1665 -0.1383  1.7277
  695MOL0     H91703   7.801   3.876   9.880 -2.7406 -2.0409  3.1827
  695MOL0     H91704   7.449   3.781  10.062  1.5077 -0.7089  2.3000
  695MOL0     H91705   7.236   3.646  10.105  1.8970  2.4268  1.2653
  695MOL0     H91706   7.299   3.236  10.142 -2.3805 -3.2331  0.4813
  695MOL0     H91707   7.203   3.215  10.000 -1.0698 -0.5457  1.3099
  695MOL0     H91708   7.081   3.278  10.256  0.0983  1.3256 -2.0617
  695MOL0     H91709   7.111   3.107  10.208 -0.9113  0.2278  2.3008
  695MOL0     H91710   6.955   3.154  10.015  0.6155  1.6354 -0.9131
  695MOL0     H91711   6.957   3.326  10.066  2.8722  0.6567  3.4119
  695MOL0     H91712   6.848   3.086  10.223  2.5501 -1.1817 -2.6858
  695MOL0     H91713   6.863   3.255  10.285 -2.1910  0.8457  0.5331
  695MOL0     H91714   6.651   3.231  10.253  0.8219  2.1915  0.2028
  695MOL0     H91715   6.664   3.166  10.085 -2.8044  1.2283 -0.1285
  695MOL0     H91716   6.734   3.381  10.010 -3.2557  2.6490 -0.9596
  695MOL0     H91717   6.726   3.450  10.174 -1.4552 -0.5474  1.7474
  695MOL0     H91718   6.478   3.409  10.168  0.0033  1.7899  0.2849
  695MOL0     H91719   6.543   3.508  10.040 -0.0412  0.8091  1.7124
  695MOL0     H91720   6.474   3.217   9.983  0.3544 -0.1341  2.2221
  695MOL0     H91721   6.541   3.341   9.873  4.4357  2.2872  3.4040
  695MOL0     H91722   7.390   3.306   9.915  0.7221 -0.3884  0.9871
  695MOL0     H91723   7.609   3.420   9.866 -1.3806 -2.5120 -0.5878
  695MOL0     H91724   8.022   3.532  10.004  0.7874  0.3109  0.3141
  695MOL0     H91725   8.229   3.634   9.942  0.9207  1.3273 -4.5166
  695MOL0     H91726  10.008   3.615   9.712 -2.0511  0.1678  1.1239
  695MOL0     H91727  10.233   3.669   9.703 -0.9299 -0.3606 -1.7507
  695MOL0     H91728  10.557   4.172   9.878  1.6791 -0.5442  1.2591
  695MOL0     H91729  10.796   4.215   9.822  1.8040 -1.1949 -0.0396
  695MOL0     H91730  10.953   4.151   9.426  0.0960 -1.8328 -0.9382
  695MOL0     H91731  10.994   3.987   9.489  1.0955  0.3160  0.1658
  695MOL0     H91732  11.162   4.245   9.533  1.7860 -0.8952  0.5633
  695MOL0     H91733  11.184   4.117   9.631  1.3806  1.1825  1.0960
  695MOL0     H91734  11.190   4.124   9.331  2.2874 -0.0343 -1.1656
  695MOL0     H91735  11.221   3.971   9.428  2.2629  0.8571  3.0022
  695MOL0     H91736  11.407   4.209   9.476 -0.1075 -0.1172 -0.0186
  695MOL0     H91737  11.426   4.047   9.529 -0.4603  1.6332  1.1752
  695MOL0     H91738  11.584   4.018   9.145  0.7889  1.1149  1.3112
  695MOL0     H91739  10.773   3.934   9.499  2.4221  1.8196 -0.4373
  695MOL0     H91740  10.534   3.907   9.546 -2.8397  2.9927 -2.4693
  696MOL0     O91741   4.303   2.148   8.720 -0.5698 -0.6944 -0.4219
  696MOL0     C91742   4.259   2.068   8.645  0.1461 -0.7387  0.8021
  696MOL0     O91743   4.134   2.060   8.597  0.3879 -0.1095 -0.3904
  696MOL0     C91744   4.031   2.139   8.648  0.5551  0.0526 -0.2409
  696MOL0     C91745   3.906   2.091   8.610  0.4643 -0.5503  0.4655
  696MOL0     C91746   3.791   2.170   8.637  0.3143  0.2959  0.2748
  696MOL0     C91747   3.807   2.283   8.714 -0.0383 -0.9516  0.1174
  696MOL0     O91748   3.701   2.368   8.741  0.5031 -0.1640 -0.3079
  696MOL0     C91749   3.575   2.312   8.752  0.1679  0.4983 -0.5416
  696MOL0     C91750   3.484   2.417   8.815  0.6946 -0.0925  0.4295
  696MOL0     C91751   3.359   2.344   8.865 -0.0608 -0.5320  0.7124
  696MOL0     C91752   3.266   2.449   8.935  0.4853  0.8802 -0.0857
  696MOL0     C91753   3.138   2.371   8.969 -0.6329  0.3899  0.2650
  696MOL0     C91754   3.036   2.341   8.845  0.1958  0.6551 -0.2854
  696MOL0     C91755   2.983   2.457   8.757 -0.0156  0.8589 -0.0344
  696MOL0     C91756   2.859   2.412   8.691  0.3306 -0.1453 -0.4489
  696MOL0     N91757   2.787   2.525   8.624 -0.8483 -0.2188 -0.7321
  696MOL0     C91758   2.860   2.615   8.554  0.2222  0.2103 -0.4007
  696MOL0     C91759   2.779   2.719   8.537  0.0271  0.4220 -0.4990
  696MOL0     C91760   2.823   2.837   8.460 -0.4065 -0.0950 -0.0218
  696MOL0     C91761   2.909   2.934   8.541  0.5128 -0.0464 -0.0646
  696MOL0     C91762   3.058   2.894   8.557  0.4302 -0.0889 -1.1168
  696MOL0     C91763   3.135   3.013   8.607  0.0196 -0.1348 -0.0172
  696MOL0     O91764   3.263   2.979   8.655 -0.2098  0.2179 -0.2955
  696MOL0     C91765   3.278   2.987   8.794  0.1684 -0.0610  0.5676
  696MOL0     C91766   3.308   2.865   8.849 -0.3369  0.1414 -0.6665
  696MOL0     C91767   3.355   2.863   8.979 -0.4610  0.5778 -0.4495
  696MOL0     C91768   3.359   2.981   9.060 -0.1654  0.0807 -0.2654
  696MOL0     C91769   3.421   2.981   9.200  0.1419  0.7273 -0.1370
  696MOL0     O91770   3.451   3.097   9.254  0.9080 -0.7016 -0.3308
  696MOL0     C91771   3.535   3.103   9.355 -0.5428 -0.0777 -0.5541
  696MOL0     C91772   3.673   3.098   9.331 -0.0741  0.8274 -0.6212
  696MOL0     C91773   3.759   3.098   9.439 -0.5966 -0.0355 -0.3460
  696MOL0     C91774   3.711   3.111   9.569  0.6793  0.2822 -0.1519
  696MOL0     O91775   3.799   3.109   9.670  0.4587 -0.6434 -0.4064
  696MOL0     C91776   3.904   3.210   9.671 -0.3618 -0.0033  0.1537
  696MOL0     C91777   3.964   3.227   9.810  1.6817 -0.4977 -0.2287
  696MOL0     C91778   4.088   3.324   9.828  0.1989 -0.0810  0.6884
  696MOL0     C91779   4.208   3.271   9.746  0.8353 -0.3546  0.2779
  696MOL0     C91780   4.345   3.321   9.801  0.0238 -0.2096  0.5256
  696MOL0     C91781   4.450   3.250   9.716 -0.0500 -0.0542 -0.5988
  696MOL0     C91782   4.584   3.277   9.777  0.0115 -0.1807 -0.3568
  696MOL0     C91783   4.697   3.216   9.689 -0.2992 -0.6888  1.3000
  696MOL0    Cl91784   4.759   3.354   9.577  0.2752 -0.3692 -0.0747
  696MOL0     C91785   3.572   3.117   9.592 -0.0501 -0.7355 -0.1478
  696MOL0     C91786   3.484   3.119   9.479 -0.1924 -0.0711 -0.4264
  696MOL0     O91787   3.465   2.870   9.242  0.6326  0.3877  0.3332
  696MOL0     C91788   3.307   3.098   9.001 -0.5129 -0.1587 -0.3728
  696MOL0     C91789   3.274   3.105   8.868  0.0338 -0.2757 -0.1762
  696MOL0     N91790   2.651   2.693   8.590 -0.7049  0.3324  0.6760
  696MOL0     N91791   2.662   2.580   8.652  0.6732  0.5977 -0.4284
  696MOL0     C91792   3.933   2.336   8.751  0.9514  0.0692  0.0841
  696MOL0     C91793   4.047   2.260   8.718 -0.1530 -0.7049  0.3369
  696MOL0     C91794   4.358   1.980   8.590 -1.1703  0.2056 -0.3624
  696MOL0     C91795   4.484   1.959   8.652 -0.7552 -0.2839  0.2040
  696MOL0     C91796   4.566   1.852   8.619  0.1188 -0.4354 -0.2886
  696MOL0     C91797   4.536   1.765   8.514  0.3045  0.2797  0.0079
  696MOL0     O91798   4.622   1.662   8.474  0.0233  0.3910  0.5286
  696MOL0     C91799   4.589   1.575   8.360  1.1001 -0.5364 -0.2420
  696MOL0     C91800   4.612   1.656   8.231  1.1057 -0.0263 -0.6007
  696MOL0     C91801   4.743   1.733   8.222  0.2779 -0.2220 -0.2745
  696MOL0     C91802   4.859   1.646   8.269 -0.0538  0.0095 -0.4198
  696MOL0     C91803   4.877   1.517   8.185  0.2536 -0.6477  0.0061
  696MOL0     C91804   4.903   1.424   8.121  0.3972 -0.2923  0.1336
  696MOL0     C91805   4.418   1.794   8.445 -0.0899  0.2558 -0.4161
  696MOL0     C91806   4.330   1.890   8.483  0.2388 -0.2996 -0.3069
  696MOL0     H91807   3.898   1.996   8.558  1.4586  0.9282 -2.6484
  696MOL0     H91808   3.700   2.130   8.593  1.9274 -0.5113 -2.5768
  696MOL0     H91809   3.582   2.226   8.819 -1.4218  2.2978  2.1101
  696MOL0     H91810   3.531   2.288   8.655 -4.1276  1.2065  1.0193
  696MOL0     H91811   3.462   2.494   8.741  3.2193 -0.9448 -1.3586
  696MOL0     H91812   3.534   2.474   8.894  2.2965  0.2804 -0.7933
  696MOL0     H91813   3.379   2.257   8.929 -0.5210 -0.7510  0.5694
  696MOL0     H91814   3.312   2.297   8.778  1.9713  0.6764 -1.1150
  696MOL0     H91815   3.310   2.486   9.027 -1.9148  0.5216  1.2829
  696MOL0     H91816   3.244   2.535   8.871 -0.4596  1.0111  0.4071
  696MOL0     H91817   3.090   2.435   9.044 -2.8227  0.0917 -0.7969
  696MOL0     H91818   3.163   2.278   9.021  2.0965 -0.7030 -2.6604
  696MOL0     H91819   2.945   2.295   8.886 -1.6159  0.8628 -3.7141
  696MOL0     H91820   3.076   2.264   8.779  0.8015  0.6072  0.1274
  696MOL0     H91821   2.947   2.537   8.823  1.9196  0.7393  1.2197
  696MOL0     H91822   3.063   2.491   8.692  2.9067 -1.0224  2.3222
  696MOL0     H91823   2.793   2.378   8.772  1.6616  0.1920  0.8168
  696MOL0     H91824   2.875   2.328   8.623 -0.2206 -1.9400  1.5164
  696MOL0     H91825   2.963   2.598   8.524  0.8238  0.1106  1.5605
  696MOL0     H91826   2.736   2.897   8.434 -1.2076 -0.7626  1.0128
  696MOL0     H91827   2.871   2.801   8.369 -0.7391 -0.7209  0.0439
  696MOL0     H91828   2.841   2.945   8.626 -2.8298 -1.3915 -2.3783
  696MOL0     H91829   2.913   3.021   8.475  2.0331 -0.0821 -0.0561
  696MOL0     H91830   3.061   2.819   8.636 -0.0444  0.9804 -0.0528
  696MOL0     H91831   3.105   2.858   8.465 -0.4416  1.8439 -2.4126
  696MOL0     H91832   3.080   3.067   8.685  2.0885  0.7552  0.9122
  696MOL0     H91833   3.149   3.079   8.521 -0.7770 -2.0914 -1.7339
  696MOL0     H91834   3.320   2.784   8.778  3.1185  0.0150 -0.1130
  696MOL0     H91835   3.392   2.764   9.006  0.7273  1.4717  1.3912
  696MOL0     H91836   3.716   3.079   9.233 -0.2542 -0.4089 -0.4725
  696MOL0     H91837   3.864   3.089   9.413 -1.0924  1.1295 -3.0248
  696MOL0     H91838   3.865   3.306   9.636 -3.8968 -1.8762 -1.4690
  696MOL0     H91839   3.977   3.166   9.603 -0.4032 -0.0915  0.1672
  696MOL0     H91840   3.995   3.127   9.841 -1.9458 -2.2227 -1.6648
  696MOL0     H91841   3.887   3.253   9.884  1.9857 -2.4075  0.8305
  696MOL0     H91842   4.117   3.311   9.933  2.1124  0.3017  0.2350
  696MOL0     H91843   4.071   3.429   9.802  2.9583  0.0130 -1.0639
  696MOL0     H91844   4.210   3.162   9.754  4.7001 -0.3479  1.9506
  696MOL0     H91845   4.202   3.289   9.639  0.6512 -1.5400  0.0815
  696MOL0     H91846   4.357   3.304   9.908  0.6569  3.0054  1.0824
  696MOL0     H91847   4.353   3.429   9.786  2.1820 -0.1196  1.9564
  696MOL0     H91848   4.444   3.281   9.612 -3.3472 -2.6357 -1.3610
  696MOL0     H91849   4.425   3.143   9.709  0.3673 -0.2162  0.2563
  696MOL0     H91850   4.596   3.385   9.786 -2.5299 -0.0002  2.4032
  696MOL0     H91851   4.589   3.231   9.876 -2.0997 -1.7293 -0.9102
  696MOL0     H91852   4.662   3.125   9.638 -1.8959  0.5042  0.1756
  696MOL0     H91853   4.785   3.187   9.748  1.1054 -0.1754 -0.4452
  696MOL0     H91854   3.527   3.126   9.691 -1.3978  0.4132 -0.8378
  696MOL0     H91855   3.377   3.127   9.495 -0.2901 -2.5446  0.6574
  696MOL0     H91856   3.308   3.181   9.070 -0.2763 -1.7856  1.6752
  696MOL0     H91857   3.252   3.199   8.820  0.2578 -1.2871 -2.3464
  696MOL0     H91858   3.951   2.436   8.792  0.6068  1.0739 -2.0948
  696MOL0     H91859   4.143   2.305   8.739  1.4967 -3.6276 -0.3883
  696MOL0     H91860   4.526   2.027   8.725 -1.2191  2.3110 -1.7738
  696MOL0     H91861   4.664   1.843   8.663  0.0106 -0.1866  0.0098
  696MOL0     H91862   4.484   1.543   8.358  1.6063 -2.3289 -0.3964
  696MOL0     H91863   4.657   1.489   8.356  0.3714 -1.1432  0.1406
  696MOL0     H91864   4.603   1.595   8.141  1.2637 -1.3300  0.2399
  696MOL0     H91865   4.533   1.730   8.215  0.7357  0.1456  1.6921
  696MOL0     H91866   4.738   1.824   8.282 -0.1690  0.0647 -0.7481
  696MOL0     H91867   4.775   1.768   8.124 -1.7747 -1.3147 -1.3996
  696MOL0     H91868   4.954   1.699   8.258 -0.0523  0.2040  0.4588
  696MOL0     H91869   4.854   1.625   8.377  2.9668 -1.3676 -0.4576
  696MOL0     H91870   4.921   1.340   8.056 -1.1538 -0.9026  0.4610
  696MOL0     H91871   4.383   1.724   8.368 -0.7661 -0.9417  0.9314
  696MOL0     H91872   4.236   1.897   8.429  1.2110  0.0813 -2.0083
  697MOL0     O91873   7.791   5.376   1.094  0.3648 -0.0379 -0.0236
  697MOL0     C91874   7.841   5.316   1.192 -0.1192 -0.0723 -0.1750
  697MOL0     O91875   7.773   5.255   1.290 -0.1587  0.3844  0.0663
  697MOL0     C91876   7.638   5.253   1.285  1.4602  0.4982  0.4881
  697MOL0     C91877   7.549   5.363   1.281 -0.3494 -0.2144 -0.8683
  697MOL0     C91878   7.411   5.353   1.285  0.3657 -0.2376 -0.2627
  697MOL0     C91879   7.349   5.225   1.289 -0.6388  0.0035 -0.1619
  697MOL0     O91880   7.214   5.231   1.297 -0.5584 -0.3108  0.1597
  697MOL0     C91881   7.141   5.110   1.262  0.1792  0.3529 -0.1851
  697MOL0     C91882   6.988   5.134   1.290 -0.6836  0.3285  0.3410
  697MOL0     C91883   6.912   5.015   1.214 -0.5040  0.5550  0.0735
  697MOL0     C91884   6.761   5.028   1.202  0.1931 -0.3058 -0.8331
  697MOL0     C91885   6.705   5.013   1.340 -0.2391 -0.3092  0.3484
  697MOL0     C91886   6.556   5.029   1.321  0.0645  0.0128  0.3694
  697MOL0     C91887   6.478   4.975   1.446 -0.0326  0.1172 -0.6683
  697MOL0     C91888   6.329   4.992   1.418  0.3081  0.1422 -0.2389
  697MOL0     N91889   6.247   4.954   1.528  0.3557 -0.2461 -0.6404
  697MOL0     C91890   6.223   4.824   1.573 -0.8058  0.8822  0.1873
  697MOL0     C91891   6.150   4.835   1.685  0.2258  0.5617 -0.1916
  697MOL0     C91892   6.081   4.725   1.764  0.0443 -0.4764  0.3456
  697MOL0     C91893   5.937   4.711   1.710 -0.5008 -0.0664  0.0635
  697MOL0     C91894   5.933   4.616   1.593  0.7208 -0.6014  0.4247
  697MOL0     C91895   5.790   4.627   1.539 -1.6225  0.2334  0.0029
  697MOL0     O91896   5.757   4.530   1.434  0.6714 -0.4833 -0.0883
  697MOL0     C91897   5.622   4.514   1.397  0.3671  0.0233  0.0309
  697MOL0     C91898   5.514   4.591   1.442 -0.0848 -0.0177 -0.6862
  697MOL0     C91899   5.383   4.572   1.394  0.2173 -0.2733  0.1873
  697MOL0     C91900   5.353   4.482   1.296  0.4814 -0.1619  0.3871
  697MOL0     C91901   5.213   4.464   1.244  0.0767  0.1269 -0.4167
  697MOL0     O91902   5.128   4.569   1.263  0.0093 -0.4404 -0.3497
  697MOL0     C91903   4.994   4.574   1.224  0.0472 -0.5112 -0.4758
  697MOL0     C91904   4.914   4.474   1.171 -0.7576  0.4025  0.0954
  697MOL0     C91905   4.778   4.492   1.142 -0.3801 -0.3163  0.7262
  697MOL0     C91906   4.721   4.621   1.152 -0.3875 -0.4042  0.1993
  697MOL0     O91907   4.593   4.644   1.118 -0.0159 -0.6011  0.2572
  697MOL0     C91908   4.505   4.728   1.202 -0.3617  0.0449 -0.0228
  697MOL0     C91909   4.433   4.835   1.113  0.0561  0.1361  0.1231
  697MOL0     C91910   4.342   4.777   1.015 -0.1275  0.1520 -0.0190
  697MOL0     C91911   4.269   4.888   0.941  0.4894 -0.1903  0.5465
  697MOL0     C91912   4.133   4.858   0.863  0.7161  0.6984 -0.2279
  697MOL0     C91913   4.023   4.827   0.964  0.2656  0.5112  0.4759
  697MOL0     C91914   3.893   4.812   0.893 -0.3146 -0.6264 -0.2742
  697MOL0     C91915   3.833   4.946   0.852 -0.3710 -0.4230 -0.5101
  697MOL0    Cl91916   3.668   4.938   0.781  0.0652  0.1273 -0.3080
  697MOL0     C91917   4.802   4.725   1.210  0.2753  0.4496  0.4700
  697MOL0     C91918   4.935   4.699   1.244 -0.1298  0.6583 -0.0537
  697MOL0     O91919   5.188   4.366   1.178 -1.0476  0.5415  0.1630
  697MOL0     C91920   5.460   4.410   1.243 -0.5366 -0.4759  0.4851
  697MOL0     C91921   5.592   4.430   1.289  0.9790  0.1151  0.3941
  697MOL0     N91922   6.135   4.973   1.720 -0.4774  0.0661 -0.6159
  697MOL0     N91923   6.193   5.038   1.625 -0.1662  0.3566  0.9860
  697MOL0     C91924   7.435   5.112   1.288 -0.0606  0.2480  0.8178
  697MOL0     C91925   7.577   5.128   1.288 -0.4716  0.1025  0.5386
  697MOL0     C91926   7.985   5.288   1.189 -0.4252 -0.4978 -0.3704
  697MOL0     C91927   8.064   5.317   1.072  0.2645 -0.7543 -0.3581
  697MOL0     C91928   8.201   5.300   1.084 -0.0473  0.1651  0.7013
  697MOL0     C91929   8.263   5.238   1.187  0.0206 -0.1999 -0.0987
  697MOL0     O91930   8.398   5.201   1.186 -0.4922 -0.1371 -0.0726
  697MOL0     C91931   8.492   5.253   1.089  0.1950  0.1756  0.4435
  697MOL0     C91932   8.634   5.222   1.118 -0.3604 -0.9253 -0.1153
  697MOL0     C91933   8.735   5.288   1.018  0.1076  0.6726 -0.6581
  697MOL0     C91934   8.880   5.252   1.063 -0.0807 -0.1458  0.3797
  697MOL0     C91935   8.929   5.361   1.155  0.5850  0.4130  0.2783
  697MOL0     C91936   8.960   5.424   1.255  0.7065  0.3216 -0.4268
  697MOL0     C91937   8.182   5.197   1.302 -0.1015 -0.1089  1.0846
  697MOL0     C91938   8.042   5.231   1.298 -0.9621  0.2362  0.6032
  697MOL0     H91939   7.589   5.463   1.276  0.4120 -0.5590 -2.0290
  697MOL0     H91940   7.354   5.445   1.276  0.0022  0.0466  3.3812
  697MOL0     H91941   7.169   5.017   1.313 -0.3365  0.6611  0.6836
  697MOL0     H91942   7.142   5.085   1.155  0.0182 -2.6940  0.4275
  697MOL0     H91943   6.970   5.232   1.247 -1.5428  0.6352  1.3554
  697MOL0     H91944   6.975   5.145   1.398  3.2780  0.3353  0.9880
  697MOL0     H91945   6.939   4.915   1.251  2.9449  0.8253 -1.3157
  697MOL0     H91946   6.949   5.019   1.111  2.2661  0.5915  0.9853
  697MOL0     H91947   6.725   5.124   1.163 -0.0889 -0.2129 -0.3496
  697MOL0     H91948   6.714   4.948   1.144 -1.1202 -1.5297  1.7717
  697MOL0     H91949   6.743   5.090   1.409 -0.3308 -0.9636  1.1511
  697MOL0     H91950   6.715   4.911   1.380 -2.4766 -0.6523  0.1625
  697MOL0     H91951   6.535   4.969   1.232  1.0065  1.1643 -0.6473
  697MOL0     H91952   6.524   5.131   1.300  1.2738  0.4215  0.4764
  697MOL0     H91953   6.504   4.873   1.477  0.4962 -0.1463 -1.9283
  697MOL0     H91954   6.498   5.049   1.525 -1.9782 -0.8110  0.7873
  697MOL0     H91955   6.296   4.922   1.341 -1.2392 -0.8531  1.2613
  697MOL0     H91956   6.309   5.093   1.382 -1.1581 -0.3307 -0.8016
  697MOL0     H91957   6.271   4.737   1.530 -0.0791  1.7992 -0.9128
  697MOL0     H91958   6.083   4.762   1.867  1.2945  0.6153 -0.0394
  697MOL0     H91959   6.136   4.630   1.764 -0.4979 -0.8496 -1.7500
  697MOL0     H91960   5.883   4.805   1.692 -1.5233 -1.0102 -2.2227
  697MOL0     H91961   5.881   4.651   1.783  0.6557 -1.6145 -0.2682
  697MOL0     H91962   6.003   4.652   1.517 -0.1041  0.2506  0.0556
  697MOL0     H91963   5.949   4.512   1.624  1.7641 -2.2588 -4.7101
  697MOL0     H91964   5.763   4.726   1.500  0.5879  0.3631 -1.3962
  697MOL0     H91965   5.724   4.601   1.622 -0.6330  0.3403  0.8490
  697MOL0     H91966   5.524   4.669   1.517 -1.9133 -1.1323  0.8035
  697MOL0     H91967   5.300   4.622   1.443 -1.0451 -0.4532 -1.6851
  697MOL0     H91968   4.945   4.369   1.167 -2.0472 -0.0375  0.9927
  697MOL0     H91969   4.722   4.406   1.107 -1.4387  1.3019 -1.7913
  697MOL0     H91970   4.561   4.778   1.281  0.6480  0.8935 -1.2413
  697MOL0     H91971   4.437   4.656   1.248  1.1464  0.1543  2.5466
  697MOL0     H91972   4.507   4.890   1.054 -1.1414  1.6507 -0.0440
  697MOL0     H91973   4.370   4.889   1.184  0.1617 -1.2497  1.3162
  697MOL0     H91974   4.271   4.722   1.078  0.3015 -2.2412 -1.5373
  697MOL0     H91975   4.388   4.710   0.943  0.9074  0.7666  0.0587
  697MOL0     H91976   4.242   4.965   1.014  0.7798 -0.5318  1.0269
  697MOL0     H91977   4.352   4.920   0.877  0.8278  0.9495  1.5230
  697MOL0     H91978   4.139   4.763   0.808 -1.4088 -2.5615  4.5482
  697MOL0     H91979   4.107   4.943   0.798  2.2215  0.1275 -1.6580
  697MOL0     H91980   4.004   4.907   1.036 -0.4029  1.2005 -0.4435
  697MOL0     H91981   4.043   4.730   1.012 -0.9565  0.1688  0.3132
  697MOL0     H91982   3.890   4.746   0.806 -0.7310 -1.0787  0.0765
  697MOL0     H91983   3.828   4.776   0.973 -1.0527 -0.7438 -0.9105
  697MOL0     H91984   3.893   4.990   0.772 -0.8435 -0.8335 -1.1046
  697MOL0     H91985   3.827   5.013   0.938 -0.5107  0.5428 -1.2603
  697MOL0     H91986   4.761   4.823   1.231 -1.5217 -0.6101  2.2964
  697MOL0     H91987   5.004   4.779   1.271  0.3967  0.1851  0.0157
  697MOL0     H91988   5.431   4.345   1.161 -2.9870 -1.2071  1.8435
  697MOL0     H91989   5.663   4.363   1.242  1.8860  0.9367  0.5698
  697MOL0     H91990   7.395   5.011   1.282  2.3072 -0.6942 -0.4120
  697MOL0     H91991   7.646   5.044   1.288  0.2795  0.6758  2.0916
  697MOL0     H91992   8.017   5.354   0.982  0.2783 -0.1335 -0.1144
  697MOL0     H91993   8.254   5.323   0.992  0.9400 -1.2668  0.8837
  697MOL0     H91994   8.483   5.361   1.082  2.3865  0.2899 -1.8150
  697MOL0     H91995   8.467   5.226   0.986  1.1422  2.4347 -0.4411
  697MOL0     H91996   8.654   5.251   1.222 -0.2134 -1.6695  0.0693
  697MOL0     H91997   8.649   5.114   1.119  0.1147 -0.9869 -3.4603
  697MOL0     H91998   8.719   5.396   1.006 -2.9071  0.7192  2.1872
  697MOL0     H91999   8.700   5.247   0.923 -2.8405  0.6982  0.3261
  697MOL0     H92000   8.875   5.152   1.106 -0.3417  0.8289  2.7277
  697MOL0     H92001   8.948   5.246   0.977 -1.3326 -1.3998 -0.5822
  697MOL0     H92002   8.984   5.477   1.345  0.3643  0.3377 -0.3436
  697MOL0     H92003   8.234   5.145   1.382  0.6753  1.3042  1.5381
  697MOL0     H92004   7.996   5.194   1.390 -2.3308 -0.7262 -0.4259
  698MOL0     O92005   9.327  10.117   1.573  0.0533 -0.5343 -0.5613
  698MOL0     C92006   9.423  10.177   1.533 -0.0497 -0.2298  0.6842
  698MOL0     O92007   9.423  10.280   1.444 -0.4503  0.1954  0.2464
  698MOL0     C92008   9.311  10.290   1.361  0.3133 -0.2564 -0.0556
  698MOL0     C92009   9.264  10.181   1.283 -0.3742 -0.1214  0.3105
  698MOL0     C92010   9.148  10.196   1.212 -0.3902  0.4902 -0.6835
  698MOL0     C92011   9.075  10.311   1.215  0.5597 -0.2152  0.7815
  698MOL0     O92012   8.954  10.324   1.153 -0.1492 -0.1913  1.0243
  698MOL0     C92013   8.894  10.213   1.087 -0.3367 -0.0357 -0.1888
  698MOL0     C92014   8.739  10.248   1.066  0.0402 -0.2549 -0.4511
  698MOL0     C92015   8.655  10.145   0.990  0.1042 -0.3328 -0.1813
  698MOL0     C92016   8.513  10.171   0.945 -0.7317 -0.6179 -0.5313
  698MOL0     C92017   8.522  10.277   0.834  0.3766 -0.2369  0.0039
  698MOL0     C92018   8.380  10.339   0.796 -1.0255 -0.8805  0.2834
  698MOL0     C92019   8.405  10.424   0.673  1.9298  0.0592  0.5491
  698MOL0     C92020   8.268  10.486   0.628  0.1567 -0.6255 -0.0614
  698MOL0     N92021   8.288  10.609   0.561 -0.4938 -0.4464 -0.0381
  698MOL0     C92022   8.398  10.643   0.494 -0.0430 -0.5059 -0.1104
  698MOL0     C92023   8.374  10.769   0.443  0.5185  0.7125 -0.7187
  698MOL0     C92024   8.469  10.836   0.356 -0.3511 -0.1634  0.4116
  698MOL0     C92025   8.615  10.808   0.404  0.6820  0.3786 -0.7578
  698MOL0     C92026   8.703  10.897   0.324 -1.0189 -0.2513  0.7259
  698MOL0     C92027   8.839  10.897   0.386 -0.4045 -0.4134  0.1510
  698MOL0     O92028   8.919  10.789   0.354 -0.6133 -0.2107  0.2466
  698MOL0     C92029   9.047  10.787   0.404 -0.0930 -0.0348  0.3809
  698MOL0     C92030   9.106  10.895   0.476  0.2636 -0.0979 -0.3005
  698MOL0     C92031   9.236  10.890   0.535  0.8251 -1.4163 -0.9218
  698MOL0     C92032   9.308  10.778   0.511  0.1250 -0.1061 -0.5966
  698MOL0     C92033   9.456  10.760   0.553 -0.6702 -0.0482 -0.5166
  698MOL0     O92034   9.526  10.865   0.604 -0.7392 -0.4659  0.1525
  698MOL0     C92035   9.658  10.841   0.635  0.0995  0.3306 -0.2574
  698MOL0     C92036   9.765  10.801   0.548  0.2092  0.5646  0.4419
  698MOL0     C92037   9.896  10.776   0.598  0.6655 -0.1528  0.4528
  698MOL0     C92038   9.927  10.775   0.734  0.2915  0.1181  0.5605
  698MOL0     O92039  10.046  10.760   0.797  0.0681  0.0898  0.0232
  698MOL0     C92040  10.156  10.710   0.716  0.4019 -0.0012  0.2319
  698MOL0     C92041  10.268  10.686   0.818 -0.2674  0.7592 -0.0279
  698MOL0     C92042  10.299  10.812   0.900 -0.2039 -1.2029 -0.7432
  698MOL0     C92043  10.441  10.803   0.965  0.3705  0.5277 -0.7990
  698MOL0     C92044  10.437  10.709   1.087 -0.2874  0.2437 -0.3329
  698MOL0     C92045  10.576  10.695   1.146 -0.4620 -0.1822 -0.2058
  698MOL0     C92046  10.664  10.613   1.061 -0.5317  0.5675  0.3514
  698MOL0     C92047  10.809  10.612   1.104  0.1012  0.3792 -0.9535
  698MOL0    Cl92048  10.828  10.540   1.272 -0.3347  0.0656  0.1342
  698MOL0     C92049   9.819  10.830   0.814 -0.0608 -0.5700 -0.4265
  698MOL0     C92050   9.694  10.864   0.769 -0.2841  0.6327 -0.1977
  698MOL0     O92051   9.507  10.646   0.531  0.1624  0.6701 -0.2132
  698MOL0     C92052   9.256  10.672   0.438 -0.0013  0.2922 -0.6522
  698MOL0     C92053   9.122  10.672   0.395  0.5976 -0.7838  0.4842
  698MOL0     N92054   8.243  10.806   0.476 -0.2828 -0.2657  0.5567
  698MOL0     N92055   8.199  10.707   0.550  0.4511 -0.0853 -0.2382
  698MOL0     C92056   9.117  10.426   1.285 -1.2305  0.3556 -0.0716
  698MOL0     C92057   9.233  10.413   1.369  0.3980  0.5075  1.2292
  698MOL0     C92058   9.562  10.139   1.579  0.7536 -0.1495  0.2457
  698MOL0     C92059   9.672  10.210   1.527  0.5584  0.1591  0.1256
  698MOL0     C92060   9.800  10.188   1.586 -0.9028 -0.2413 -0.0632
  698MOL0     C92061   9.825  10.097   1.690  0.8160  0.3258 -0.4242
  698MOL0     O92062   9.946  10.065   1.746 -0.5358 -0.3397 -0.3779
  698MOL0     C92063  10.064  10.127   1.702 -0.4812  0.9153  0.2839
  698MOL0     C92064  10.164  10.131   1.820 -0.4742 -0.0867 -0.5323
  698MOL0     C92065  10.305  10.085   1.769 -0.2244  0.1437 -0.5324
  698MOL0     C92066  10.405  10.133   1.872  0.0914  0.3430 -0.3704
  698MOL0     C92067  10.542  10.141   1.813  1.0749  0.8799 -0.5582
  698MOL0     C92068  10.645  10.150   1.764  1.0803 -0.4158  0.0072
  698MOL0     C92069   9.712  10.025   1.729  0.0188 -0.0850 -0.0988
  698MOL0     C92070   9.582  10.045   1.675  0.6839 -0.2058 -1.3294
  698MOL0     H92071   9.328  10.094   1.292  0.6300  0.5365 -0.3595
  698MOL0     H92072   9.116  10.109   1.155 -1.0998  1.6449 -2.1347
  698MOL0     H92073   8.910  10.125   1.150  2.5881 -0.5074 -1.3838
  698MOL0     H92074   8.944  10.208   0.989 -1.0266 -1.2557 -0.4991
  698MOL0     H92075   8.739  10.341   1.008  0.6784 -0.6305 -1.0712
  698MOL0     H92076   8.697  10.284   1.160  1.8215  2.4650 -0.5784
  698MOL0     H92077   8.651  10.050   1.045 -0.0012 -0.2810 -0.0973
  698MOL0     H92078   8.708  10.135   0.895  0.4482  1.4693 -0.2038
  698MOL0     H92079   8.466  10.078   0.914 -1.5104 -0.2656 -0.4197
  698MOL0     H92080   8.468  10.218   1.033  1.5697 -0.0781  0.4400
  698MOL0     H92081   8.556  10.230   0.741  2.4348 -3.4550  2.2111
  698MOL0     H92082   8.596  10.356   0.854  0.1005 -0.0008  0.1071
  698MOL0     H92083   8.330  10.395   0.877 -1.5603 -0.4974 -0.3036
  698MOL0     H92084   8.314  10.260   0.758  1.3156 -2.7613 -0.0938
  698MOL0     H92085   8.476  10.504   0.696 -1.2161  3.6606 -1.1889
  698MOL0     H92086   8.428  10.366   0.582 -1.9670  1.6080 -1.6514
  698MOL0     H92087   8.200  10.506   0.712  2.1813  0.6031  1.3824
  698MOL0     H92088   8.207  10.415   0.572 -0.2787  1.9013 -3.0739
  698MOL0     H92089   8.488  10.584   0.477 -0.5201 -0.7855 -1.8405
  698MOL0     H92090   8.445  10.943   0.353 -1.8321 -0.4547 -2.8051
  698MOL0     H92091   8.457  10.809   0.250  0.3332  3.3977 -0.7255
  698MOL0     H92092   8.645  10.704   0.387 -0.0495  0.3950 -2.3180
  698MOL0     H92093   8.628  10.827   0.511 -0.7067  2.4293 -0.8893
  698MOL0     H92094   8.706  10.866   0.219 -2.1427 -0.7735  0.8299
  698MOL0     H92095   8.665  10.999   0.334 -0.2295  0.2696 -1.1324
  698MOL0     H92096   8.836  10.925   0.492 -1.5416 -0.9418  0.2798
  698MOL0     H92097   8.884  10.983   0.337  0.7467 -1.5804 -0.9003
  698MOL0     H92098   9.055  10.990   0.490 -2.1922 -0.4106 -4.9338
  698MOL0     H92099   9.286  10.975   0.582  1.2462 -1.3629 -1.4521
  698MOL0     H92100   9.754  10.782   0.442  2.1605 -0.4161  0.3583
  698MOL0     H92101   9.976  10.746   0.531 -1.5706 -1.3911 -1.8689
  698MOL0     H92102  10.183  10.769   0.629 -2.3545 -1.9864 -2.1776
  698MOL0     H92103  10.118  10.620   0.667 -2.8616  2.4773 -2.3206
  698MOL0     H92104  10.356  10.666   0.757  0.3929  0.6011  0.9543
  698MOL0     H92105  10.246  10.603   0.885  0.2119 -0.0465 -0.8528
  698MOL0     H92106  10.220  10.829   0.973  1.0164  2.1598 -0.0513
  698MOL0     H92107  10.297  10.906   0.844  1.6408 -0.4022  0.4332
  698MOL0     H92108  10.509  10.755   0.894  0.1494 -1.3947  0.2184
  698MOL0     H92109  10.483  10.899   0.995  0.0291  0.2819  0.5302
  698MOL0     H92110  10.399  10.612   1.053  1.2558 -1.2248  1.8844
  698MOL0     H92111  10.373  10.750   1.167  0.4561  0.6809  0.0424
  698MOL0     H92112  10.570  10.647   1.244  1.9941 -0.0265  0.0739
  698MOL0     H92113  10.620  10.794   1.163 -3.1167  1.5370 -2.4174
  698MOL0     H92114  10.627  10.510   1.067  0.5025  0.2351  1.2417
  698MOL0     H92115  10.656  10.649   0.958 -0.1860  3.7990  1.3298
  698MOL0     H92116  10.851  10.713   1.107 -0.4676  0.6269  2.1855
  698MOL0     H92117  10.868  10.550   1.037 -1.5447 -0.4606 -1.6720
  698MOL0     H92118   9.842  10.841   0.919 -1.5552  0.3213 -0.1738
  698MOL0     H92119   9.632  10.907   0.847 -0.0707 -0.7124  0.7344
  698MOL0     H92120   9.303  10.575   0.430 -2.4273 -1.2755  2.0595
  698MOL0     H92121   9.084  10.586   0.342 -1.8490  0.5982 -0.1932
  698MOL0     H92122   9.055  10.514   1.296 -0.5057  0.9141 -0.3109
  698MOL0     H92123   9.263  10.504   1.420  0.2091  2.1033 -1.3558
  698MOL0     H92124   9.659  10.294   1.460 -0.6080 -0.7089 -0.7714
  698MOL0     H92125   9.880  10.252   1.551 -0.0805 -1.2626 -0.0948
  698MOL0     H92126  10.060  10.234   1.680 -0.0752  1.0978  1.0782
  698MOL0     H92127  10.103  10.079   1.612 -1.1298  1.1546 -0.1373
  698MOL0     H92128  10.175  10.237   1.845 -0.2514 -0.0342 -0.8548
  698MOL0     H92129  10.123  10.072   1.903 -1.9014 -1.1881 -1.9531
  698MOL0     H92130  10.332  10.129   1.672 -0.3571  1.1418 -0.1374
  698MOL0     H92131  10.300   9.978   1.749 -1.6322  0.1615 -0.3913
  698MOL0     H92132  10.377  10.230   1.913  1.4436  1.2883 -1.6115
  698MOL0     H92133  10.396  10.057   1.951 -0.2408 -0.6602 -1.3420
  698MOL0     H92134  10.739  10.154   1.711  1.2772  0.0762  0.3850
  698MOL0     H92135   9.721   9.942   1.799 -1.6686 -0.4566 -0.2796
  698MOL0     H92136   9.505   9.975   1.705  2.0370 -1.1367  0.1195
  699MOL0     O92137   3.495  10.536  11.146  0.2804  0.0203 -0.1971
  699MOL0     C92138   3.573  10.465  11.212 -0.5664 -0.3714  0.0577
  699MOL0     O92139   3.552  10.400  11.327 -0.0130 -0.2022 -0.2818
  699MOL0     C92140   3.417  10.385  11.360 -0.4312 -0.0659 -0.5845
  699MOL0     C92141   3.326  10.324  11.271 -0.3070  0.3451 -0.1678
  699MOL0     C92142   3.188  10.302  11.298 -0.2652 -0.4423 -0.2445
  699MOL0     C92143   3.138  10.339  11.420  0.7884 -0.0155  0.3867
  699MOL0     O92144   3.017  10.297  11.476 -0.1725 -0.4185  0.1326
  699MOL0     C92145   2.904  10.305  11.384 -0.0922 -0.2264 -0.6516
  699MOL0     C92146   2.801  10.190  11.432 -0.3297 -0.0861 -0.0252
  699MOL0     C92147   2.657  10.217  11.382  0.2744  0.2635 -0.8054
  699MOL0     C92148   2.583  10.328  11.464 -0.2220 -0.0891  0.2876
  699MOL0     C92149   2.446  10.359  11.422  0.5533 -0.2416  0.3182
  699MOL0     C92150   2.365  10.433  11.532  0.5013  0.1841  0.7411
  699MOL0     C92151   2.213  10.424  11.528  0.1714  0.8170  0.1342
  699MOL0     C92152   2.154  10.489  11.403  0.2073 -0.1423 -0.4009
  699MOL0     N92153   2.009  10.505  11.423 -0.4018 -0.5005  0.6550
  699MOL0     C92154   1.958  10.586  11.529 -0.1438  0.3622  0.5926
  699MOL0     C92155   1.834  10.547  11.545  0.6527 -0.0244  0.0743
  699MOL0     C92156   1.754  10.601  11.664 -0.2895  0.1973 -0.1308
  699MOL0     C92157   1.614  10.559  11.672  0.0030  0.4436 -0.2818
  699MOL0     C92158   1.604  10.409  11.697 -0.3520 -1.3024  0.0229
  699MOL0     C92159   1.460  10.370  11.723  0.2732 -0.4678  0.5636
  699MOL0     O92160   1.428  10.399  11.862 -0.3026 -0.3195 -0.4364
  699MOL0     C92161   1.298  10.425  11.888 -0.0129 -0.3500 -0.4449
  699MOL0     C92162   1.258  10.481  12.013  0.0899  0.1320  0.4708
  699MOL0     C92163   1.131  10.525  12.038 -0.2783 -1.2330 -0.1781
  699MOL0     C92164   1.030  10.506  11.946  0.2099  0.3443  0.3046
  699MOL0     C92165   0.888  10.540  11.974  0.0329  0.6246  0.1529
  699MOL0     O92166   0.797  10.481  11.891  0.2555  0.7402  0.6636
  699MOL0     C92167   0.663  10.508  11.906 -0.1658  0.0144  0.1286
  699MOL0     C92168   0.569  10.401  11.917  0.0224  0.1767  0.0039
  699MOL0     C92169   0.435  10.434  11.932  0.8282  0.6958  0.0357
  699MOL0     C92170   0.391  10.567  11.919  1.1204 -0.0993 -1.0401
  699MOL0     O92171   0.257  10.606  11.927  0.1778 -0.1060 -1.1026
  699MOL0     C92172   0.174  10.522  12.007  0.6215  0.9085 -0.2026
  699MOL0     C92173   0.056  10.600  12.075  0.5027 -0.4451  0.8969
  699MOL0     C92174   0.096  10.689  12.195  0.1590 -0.1061 -0.3344
  699MOL0     C92175  -0.024  10.733  12.279 -0.4345 -0.6627 -0.2868
  699MOL0     C92176   0.019  10.775  12.414 -0.1619 -0.0096 -0.4564
  699MOL0     C92177  -0.085  10.812  12.511 -0.2843 -0.4842  0.1554
  699MOL0     C92178  -0.022  10.849  12.641  0.4843 -0.2659 -0.4163
  699MOL0     C92179   0.064  10.973  12.642 -0.3077  0.1960 -0.0515
  699MOL0    Cl92180   0.233  10.941  12.614 -0.1623  0.9408  0.0106
  699MOL0     C92181   0.484  10.669  11.896 -0.9846  0.3774  0.3628
  699MOL0     C92182   0.623  10.639  11.887 -0.0083  0.2243  1.1460
  699MOL0     O92183   0.861  10.609  12.073 -0.1026  0.2154  0.2913
  699MOL0     C92184   1.062  10.443  11.825 -0.0588 -0.3224 -0.4379
  699MOL0     C92185   1.191  10.406  11.798  0.0180 -0.3474  0.1094
  699MOL0     N92186   1.801  10.445  11.453  0.0101 -0.4957 -0.1990
  699MOL0     N92187   1.910  10.423  11.380  0.0728 -0.4422  0.1489
  699MOL0     C92188   3.221  10.414  11.504 -0.6694 -0.1403 -1.0509
  699MOL0     C92189   3.365  10.427  11.480  0.3731 -0.3386  0.6415
  699MOL0     C92190   3.711  10.464  11.156 -0.0651 -0.1930 -0.3943
  699MOL0     C92191   3.739  10.522  11.033 -0.0858 -0.3402  0.5367
  699MOL0     C92192   3.873  10.539  10.992  0.4610 -0.9771 -1.1019
  699MOL0     C92193   3.980  10.493  11.069 -0.4582  1.0073 -0.5301
  699MOL0     O92194   4.104  10.509  11.014  0.8030 -0.0377  0.0323
  699MOL0     C92195   4.203  10.412  11.048 -0.1729 -0.2804  0.7429
  699MOL0     C92196   4.321  10.447  10.959 -0.3817  0.4516  0.0457
  699MOL0     C92197   4.378  10.589  10.974 -0.6888  0.7274 -1.0151
  699MOL0     C92198   4.488  10.617  10.876 -0.1966 -0.4111 -1.2308
  699MOL0     C92199   4.608  10.534  10.902 -0.4598 -0.2984  0.3840
  699MOL0     C92200   4.695  10.450  10.916  0.9364 -0.0104  0.0728
  699MOL0     C92201   3.948  10.425  11.189 -0.1716 -0.3559  0.5863
  699MOL0     C92202   3.817  10.415  11.229 -0.4517  0.5279  0.4255
  699MOL0     H92203   3.370  10.283  11.181 -1.1693 -1.1176  0.0479
  699MOL0     H92204   3.130  10.254  11.220 -0.4302 -2.0586  0.8321
  699MOL0     H92205   2.916  10.278  11.279 -1.6442 -2.2360 -0.3774
  699MOL0     H92206   2.859  10.404  11.392 -0.6782 -0.5626  0.4500
  699MOL0     H92207   2.799  10.190  11.541 -1.8144  2.1949  0.0199
  699MOL0     H92208   2.847  10.095  11.407  2.6976  0.7521  1.7940
  699MOL0     H92209   2.600  10.125  11.402 -1.6839  1.9807  2.2311
  699MOL0     H92210   2.657  10.220  11.273  0.4449 -1.9209 -0.9216
  699MOL0     H92211   2.586  10.315  11.573  3.5356  2.6446  0.6964
  699MOL0     H92212   2.641  10.421  11.461  0.8435 -0.5869  2.6386
  699MOL0     H92213   2.397  10.264  11.399  2.2669 -0.4889 -2.8117
  699MOL0     H92214   2.440  10.427  11.336  1.8783  0.0781  0.4562
  699MOL0     H92215   2.397  10.536  11.510  0.2246  0.2187  0.4984
  699MOL0     H92216   2.394  10.400  11.632  2.2617 -1.6796 -0.3054
  699MOL0     H92217   2.186  10.318  11.524  1.6486  0.3730  1.3240
  699MOL0     H92218   2.175  10.464  11.623  1.7426  0.9065  0.7438
  699MOL0     H92219   2.169  10.425  11.316  4.7004  0.4086 -0.2694
  699MOL0     H92220   2.195  10.587  11.378 -0.2457 -0.0794 -0.9115
  699MOL0     H92221   2.003  10.668  11.584 -3.2976  2.3139  0.5065
  699MOL0     H92222   1.747  10.710  11.665 -1.7652  0.1262  0.8915
  699MOL0     H92223   1.810  10.573  11.754  0.0338  0.4456 -0.2533
  699MOL0     H92224   1.562  10.580  11.578  1.8739 -0.7849 -1.6826
  699MOL0     H92225   1.556  10.619  11.743 -0.1200  0.5529 -0.4741
  699MOL0     H92226   1.625  10.351  11.606 -0.5720 -3.0145  1.0125
  699MOL0     H92227   1.670  10.381  11.779 -0.8543  0.6314  1.1477
  699MOL0     H92228   1.433  10.265  11.708 -2.7016  0.4410 -1.2039
  699MOL0     H92229   1.404  10.426  11.648  0.8149  0.4556  0.8203
  699MOL0     H92230   1.331  10.497  12.092 -0.0424  2.2748  0.2136
  699MOL0     H92231   1.110  10.568  12.136 -1.3408 -1.6678 -0.2017
  699MOL0     H92232   0.603  10.298  11.917 -0.1950  0.0706  2.2191
  699MOL0     H92233   0.368  10.349  11.937 -0.7891  1.9687  3.5616
  699MOL0     H92234   0.221  10.456  12.081 -1.1283 -1.1070 -0.7836
  699MOL0     H92235   0.129  10.459  11.930 -1.8523  1.1865  0.9494
  699MOL0     H92236  -0.013  10.522  12.110 -0.4596 -0.3404 -0.6518
  699MOL0     H92237  -0.016  10.653  12.013 -1.4610 -1.6550  2.0269
  699MOL0     H92238   0.145  10.773  12.145 -0.3662 -0.4451 -1.4375
  699MOL0     H92239   0.161  10.629  12.260  1.6736 -2.8317 -3.9792
  699MOL0     H92240  -0.088  10.808  12.232 -1.0179  0.0714  1.5959
  699MOL0     H92241  -0.091  10.650  12.304  1.1131 -1.1652  2.6346
  699MOL0     H92242   0.077  10.867  12.400 -0.6548  0.3457 -0.1898
  699MOL0     H92243   0.081  10.701  12.465 -1.6883  0.2103  1.8715
  699MOL0     H92244  -0.145  10.722  12.526  0.9565 -1.5094 -0.8305
  699MOL0     H92245  -0.150  10.888  12.466 -3.3835 -2.8119  0.3889
  699MOL0     H92246  -0.104  10.863  12.712  0.8544  2.2875 -0.4112
  699MOL0     H92247   0.039  10.767  12.681  1.7547  1.4240  1.2652
  699MOL0     H92248   0.061  11.017  12.742  1.0844  0.8760 -0.2740
  699MOL0     H92249   0.024  11.043  12.568 -1.8545  0.9260  1.4123
  699MOL0     H92250   0.452  10.771  11.877  0.2752  0.8917  0.9087
  699MOL0     H92251   0.692  10.720  11.865 -1.2753  0.9720 -0.2557
  699MOL0     H92252   0.985  10.431  11.750  0.0200 -0.5483 -0.4846
  699MOL0     H92253   1.216  10.372  11.698  0.4283  1.5015 -0.4558
  699MOL0     H92254   3.181  10.446  11.599  0.0418  1.5524 -1.2870
  699MOL0     H92255   3.421  10.479  11.557  1.7495  0.3019 -0.7591
  699MOL0     H92256   3.663  10.564  10.968 -0.1682  0.9650  1.4406
  699MOL0     H92257   3.903  10.584  10.898  1.2652  0.5515 -0.1406
  699MOL0     H92258   4.167  10.311  11.026  0.5193 -0.9825  2.6729
  699MOL0     H92259   4.233  10.408  11.153  0.7387  1.3339  0.5767
  699MOL0     H92260   4.398  10.372  10.976  0.3047  1.2762  0.6321
  699MOL0     H92261   4.290  10.444  10.854 -0.1507  0.0764 -0.0138
  699MOL0     H92262   4.411  10.598  11.078 -0.5530 -0.4213 -0.9408
  699MOL0     H92263   4.297  10.662  10.962  0.4708  2.1095 -0.6311
  699MOL0     H92264   4.466  10.582  10.775  0.9910 -0.8549 -1.3512
  699MOL0     H92265   4.523  10.720  10.881  0.3355 -0.6119 -0.6972
  699MOL0     H92266   4.775  10.379  10.923 -1.0810 -2.5659 -1.0947
  699MOL0     H92267   4.010  10.386  11.270 -3.5280 -3.6396  1.8935
  699MOL0     H92268   3.801  10.360  11.321  0.8647  0.7838  0.8378
  700MOL0     O92269   1.973   4.863   4.210 -0.2423  0.4794  0.5263
  700MOL0     C92270   2.034   4.798   4.297 -0.3612  0.1873  0.5027
  700MOL0     O92271   1.985   4.684   4.361 -0.2032  0.4069 -0.3832
  700MOL0     C92272   1.857   4.631   4.346 -0.2404  0.0060  0.2944
  700MOL0     C92273   1.806   4.612   4.219 -0.0167  0.0849  0.1798
  700MOL0     C92274   1.676   4.564   4.202  0.4077  0.0022 -0.1571
  700MOL0     C92275   1.608   4.515   4.310  0.3409  0.1979 -0.2096
  700MOL0     O92276   1.480   4.466   4.287  0.0677 -0.1265 -0.0481
  700MOL0     C92277   1.468   4.326   4.226 -0.6831  0.2956 -0.3644
  700MOL0     C92278   1.323   4.292   4.205 -0.4866 -0.5497 -0.7242
  700MOL0     C92279   1.236   4.392   4.131  0.1333  1.0363 -0.5856
  700MOL0     C92280   1.099   4.334   4.105  0.3922 -0.0689  0.4633
  700MOL0     C92281   1.003   4.442   4.076 -1.2762  0.3803 -0.7068
  700MOL0     C92282   0.854   4.388   4.086  0.5669  0.1868 -0.1252
  700MOL0     C92283   0.755   4.507   4.110 -0.3115 -1.0441  0.8752
  700MOL0     C92284   0.621   4.447   4.059 -0.4688 -0.4576  0.2966
  700MOL0     N92285   0.552   4.371   4.164  0.0614 -0.4346  0.7703
  700MOL0     C92286   0.514   4.236   4.158 -0.1649 -0.1574 -0.7270
  700MOL0     C92287   0.490   4.204   4.292  0.0285  0.4721  0.1224
  700MOL0     C92288   0.440   4.074   4.341 -0.0333 -0.3255  0.6200
  700MOL0     C92289   0.286   4.063   4.312  0.8292 -0.6806 -0.3597
  700MOL0     C92290   0.231   3.938   4.365 -0.3113  0.2731 -0.0737
  700MOL0     C92291   0.300   3.800   4.343 -0.0596  0.0983 -0.6361
  700MOL0     O92292   0.216   3.712   4.409  0.1461  0.0816 -0.7878
  700MOL0     C92293   0.197   3.584   4.365 -0.9131 -0.2374 -0.0891
  700MOL0     C92294   0.079   3.513   4.415 -0.2785 -0.7298 -0.1441
  700MOL0     C92295   0.044   3.384   4.365 -0.0059  0.4574  0.3431
  700MOL0     C92296   0.129   3.316   4.273  0.3918 -0.5560  0.2740
  700MOL0     C92297   0.094   3.187   4.208  0.4958  1.0661  0.0412
  700MOL0     O92298  -0.036   3.151   4.206  0.1012 -0.5889 -0.0643
  700MOL0     C92299  -0.091   3.026   4.173 -0.8549  0.2932 -0.0864
  700MOL0     C92300  -0.208   3.029   4.093  0.4572 -0.1636  0.1297
  700MOL0     C92301  -0.261   2.910   4.060  0.0142 -0.2100  0.0735
  700MOL0     C92302  -0.204   2.789   4.102 -0.1293  0.1457 -0.0997
  700MOL0     O92303  -0.254   2.662   4.079 -0.0816  0.2012 -0.2052
  700MOL0     C92304  -0.351   2.638   3.979 -0.2956  0.2302 -1.2246
  700MOL0     C92305  -0.495   2.678   4.017 -0.1081 -1.0029  0.2992
  700MOL0     C92306  -0.594   2.622   3.919 -0.5163 -0.0052  0.0690
  700MOL0     C92307  -0.738   2.671   3.954 -0.0414 -0.4367  0.3942
  700MOL0     C92308  -0.845   2.598   3.878 -0.7496 -0.9617  0.5152
  700MOL0     C92309  -0.866   2.450   3.919 -0.0621  0.0281  0.1945
  700MOL0     C92310  -0.885   2.377   3.786  1.0561 -0.1816 -0.2344
  700MOL0     C92311  -0.938   2.236   3.810 -0.7155  0.1677 -0.3351
  700MOL0    Cl92312  -1.094   2.235   3.885  0.5429  0.5218  0.2041
  700MOL0     C92313  -0.099   2.792   4.194 -0.8374  0.3828  0.1741
  700MOL0     C92314  -0.036   2.907   4.233 -0.1172 -0.7953 -0.4581
  700MOL0     O92315   0.187   3.112   4.181 -0.5927  0.0739  0.2379
  700MOL0     C92316   0.240   3.392   4.229  0.5596 -0.0737  0.0623
  700MOL0     C92317   0.279   3.514   4.285 -0.3865  0.0943 -0.7335
  700MOL0     N92318   0.509   4.309   4.371 -0.0300 -0.3067  0.1914
  700MOL0     N92319   0.558   4.406   4.296  0.3249  0.6398  1.0939
  700MOL0     C92320   1.669   4.521   4.446 -0.5513 -0.8881  0.3917
  700MOL0     C92321   1.791   4.589   4.458 -0.7394 -0.1858  0.0596
  700MOL0     C92322   2.168   4.840   4.329 -0.1131  0.0069  0.2903
  700MOL0     C92323   2.246   4.783   4.433 -1.0320  0.6740  0.8906
  700MOL0     C92324   2.375   4.828   4.462 -0.0969 -0.0698  0.0785
  700MOL0     C92325   2.435   4.924   4.384 -0.2651  0.5985  0.1532
  700MOL0     O92326   2.572   4.943   4.413  0.2977 -0.1923 -0.2156
  700MOL0     C92327   2.626   5.065   4.369  0.0485 -0.8317  0.0783
  700MOL0     C92328   2.774   5.054   4.409 -0.7251  0.2108  0.7160
  700MOL0     C92329   2.846   4.963   4.308  0.2573 -0.1672 -0.2181
  700MOL0     C92330   2.999   4.964   4.331 -0.5889  0.0608  0.4232
  700MOL0     C92331   3.032   4.909   4.463  0.3643 -0.4004  0.2971
  700MOL0     C92332   3.067   4.865   4.567  0.1665 -0.0293 -0.4495
  700MOL0     C92333   2.352   4.998   4.293  0.2402  0.4146 -0.1069
  700MOL0     C92334   2.220   4.957   4.262  0.0757 -0.4428 -0.9467
  700MOL0     H92335   1.852   4.649   4.129 -3.8163 -0.0086 -2.0095
  700MOL0     H92336   1.636   4.554   4.101 -1.3982 -2.0821  0.6720
  700MOL0     H92337   1.520   4.255   4.290  0.2916  0.6868 -0.7100
  700MOL0     H92338   1.518   4.327   4.129 -1.0905 -1.2323 -0.6214
  700MOL0     H92339   1.263   4.280   4.296 -1.7151 -0.3163 -1.4762
  700MOL0     H92340   1.323   4.195   4.154  0.0165 -0.3042 -1.2046
  700MOL0     H92341   1.280   4.425   4.037  0.6129  0.2939 -0.6327
  700MOL0     H92342   1.219   4.487   4.184  1.2739  0.5742  0.6743
  700MOL0     H92343   1.091   4.272   4.016 -1.0349  1.4145 -0.5054
  700MOL0     H92344   1.055   4.280   4.189 -1.7593  2.0412  0.8109
  700MOL0     H92345   1.019   4.471   3.972  0.1462 -1.2302 -0.9967
  700MOL0     H92346   1.007   4.528   4.143  2.6097 -2.3807  3.1444
  700MOL0     H92347   0.839   4.328   4.177  1.2562  0.4624  0.1835
  700MOL0     H92348   0.844   4.328   3.996  1.3547  2.5446 -1.8780
  700MOL0     H92349   0.760   4.527   4.218  1.6018  0.6260  0.5457
  700MOL0     H92350   0.772   4.588   4.038 -1.3803 -2.1478 -0.6693
  700MOL0     H92351   0.634   4.392   3.965  1.2064  2.1143 -1.0861
  700MOL0     H92352   0.560   4.534   4.032  1.1298  0.5692 -0.1124
  700MOL0     H92353   0.508   4.171   4.072  0.2192 -0.1337 -0.7742
  700MOL0     H92354   0.446   4.077   4.450 -2.2259 -0.0235  0.7881
  700MOL0     H92355   0.490   3.984   4.305 -1.8239 -0.7593 -0.9521
  700MOL0     H92356   0.274   4.075   4.204  2.8730  2.8508 -0.3317
  700MOL0     H92357   0.231   4.149   4.351 -0.1612  0.1062 -3.2982
  700MOL0     H92358   0.213   3.953   4.472 -0.5777  0.3729 -0.1315
  700MOL0     H92359   0.128   3.928   4.332 -0.6583  3.5177 -0.3422
  700MOL0     H92360   0.398   3.805   4.390 -0.4342  0.5481  0.1189
  700MOL0     H92361   0.308   3.783   4.235 -0.4805  0.1445 -0.6781
  700MOL0     H92362   0.011   3.567   4.481 -1.1484 -0.2798 -1.3621
  700MOL0     H92363  -0.053   3.346   4.394  0.4314  1.2160  3.1426
  700MOL0     H92364  -0.247   3.120   4.050  3.3868  0.7181 -0.8434
  700MOL0     H92365  -0.355   2.924   4.008  0.4008  1.0211 -0.3331
  700MOL0     H92366  -0.366   2.532   3.962 -3.2035  0.7585 -2.4650
  700MOL0     H92367  -0.312   2.684   3.887  0.2868  0.8707 -0.6753
  700MOL0     H92368  -0.507   2.785   4.003 -2.3178 -0.8833  2.2954
  700MOL0     H92369  -0.526   2.651   4.119 -2.2405  2.5507  0.7681
  700MOL0     H92370  -0.582   2.513   3.923  0.6918 -0.1867 -3.8827
  700MOL0     H92371  -0.579   2.662   3.818  0.3114 -0.4772 -0.0124
  700MOL0     H92372  -0.754   2.664   4.062  1.4015 -1.5258  0.5682
  700MOL0     H92373  -0.749   2.777   3.932  0.0117 -0.4018  0.5342
  700MOL0     H92374  -0.830   2.613   3.771  2.3327  2.1090  1.1800
  700MOL0     H92375  -0.937   2.656   3.894  0.1998  0.1255  2.5412
  700MOL0     H92376  -0.963   2.451   3.968  0.0887 -0.5150  0.5160
  700MOL0     H92377  -0.781   2.416   3.979  0.7665  0.2582 -0.8079
  700MOL0     H92378  -0.961   2.438   3.738  1.4791 -0.8490 -1.8265
  700MOL0     H92379  -0.793   2.376   3.726  1.9980 -2.2795  1.1219
  700MOL0     H92380  -0.869   2.188   3.879 -1.1322  0.3020  0.1759
  700MOL0     H92381  -0.936   2.174   3.720 -1.7662 -1.5942  0.8019
  700MOL0     H92382  -0.063   2.702   4.244  2.0602  0.8611 -0.8373
  700MOL0     H92383   0.032   2.898   4.317  2.4752 -0.2806 -2.3756
  700MOL0     H92384   0.298   3.351   4.147  0.7881  2.8702 -1.3914
  700MOL0     H92385   0.376   3.546   4.247  0.1481 -0.9486 -0.2972
  700MOL0     H92386   1.616   4.477   4.530 -0.8753  1.6651  1.6162
  700MOL0     H92387   1.846   4.586   4.552 -0.1790  0.0547 -0.2536
  700MOL0     H92388   2.217   4.696   4.491 -1.1312  0.7626  0.9726
  700MOL0     H92389   2.432   4.773   4.537  1.1718 -0.0857 -0.8473
  700MOL0     H92390   2.570   5.144   4.419  0.4098  0.9139 -2.1089
  700MOL0     H92391   2.607   5.083   4.263 -3.1036 -1.5107  0.4198
  700MOL0     H92392   2.819   5.153   4.411 -0.9539  0.3506 -0.4127
  700MOL0     H92393   2.784   5.015   4.510 -1.4116 -0.0305  0.6993
  700MOL0     H92394   2.833   5.000   4.206 -1.5710  1.5953  0.5726
  700MOL0     H92395   2.804   4.862   4.317  0.8413 -0.3732  0.2597
  700MOL0     H92396   3.050   4.903   4.256  0.4638  1.6771 -0.2343
  700MOL0     H92397   3.046   5.061   4.314  2.2969 -1.5694 -2.0620
  700MOL0     H92398   3.108   4.838   4.662  0.9237  0.7519 -0.5488
  700MOL0     H92399   2.397   5.079   4.238  1.3123  0.4577  0.7990
  700MOL0     H92400   2.160   5.017   4.194  0.6845  0.9209 -0.3188
  701MOL0     O92401   6.380   1.240   8.177 -0.1028 -0.1797  0.2860
  701MOL0     C92402   6.443   1.169   8.249 -0.0169  0.0642  0.3491
  701MOL0     O92403   6.396   1.055   8.308 -0.3823 -0.6101  0.2225
  701MOL0     C92404   6.279   1.005   8.261 -0.5615  0.1444 -0.0176
  701MOL0     C92405   6.272   0.954   8.130 -0.1482 -0.9577 -0.5067
  701MOL0     C92406   6.153   0.888   8.094 -0.4464  0.6346 -0.5881
  701MOL0     C92407   6.041   0.885   8.182 -0.6339 -0.8982 -0.0176
  701MOL0     O92408   5.917   0.853   8.125 -0.6973  0.8429  0.2273
  701MOL0     C92409   5.830   0.774   8.210 -0.2524 -0.9829  0.3094
  701MOL0     C92410   5.778   0.660   8.134 -0.1982  0.6472  0.2883
  701MOL0     C92411   5.717   0.551   8.222 -0.4045  0.4510  0.4493
  701MOL0     C92412   5.751   0.418   8.173 -0.4631  1.6029 -0.1703
  701MOL0     C92413   5.664   0.385   8.046 -0.4014 -0.7655 -0.4177
  701MOL0     C92414   5.527   0.328   8.093 -0.4901 -0.6878 -0.4412
  701MOL0     C92415   5.429   0.335   7.977 -0.4638 -0.8520  0.5070
  701MOL0     C92416   5.306   0.250   8.024  0.9538 -0.0867  0.5952
  701MOL0     N92417   5.164   0.276   7.972  0.1537  0.1196  1.1828
  701MOL0     C92418   5.115   0.403   7.952  0.1397  0.3521 -0.0878
  701MOL0     C92419   4.982   0.381   7.924 -0.4663  0.4658  0.5258
  701MOL0     C92420   4.903   0.502   7.867  0.4387 -0.3713  0.5164
  701MOL0     C92421   4.761   0.490   7.912  0.9161  0.4320  0.2210
  701MOL0     C92422   4.675   0.608   7.860 -0.4150 -0.1151 -0.4419
  701MOL0     C92423   4.661   0.603   7.708 -0.3202 -0.2263  0.5001
  701MOL0     O92424   4.613   0.476   7.644 -0.2218  0.0684  0.3382
  701MOL0     C92425   4.493   0.434   7.697 -0.2067 -0.2840  0.2425
  701MOL0     C92426   4.493   0.310   7.763 -0.3743  0.5639  0.2574
  701MOL0     C92427   4.371   0.255   7.800 -0.3055  0.2440 -0.2899
  701MOL0     C92428   4.251   0.315   7.793 -0.1406  0.2950  0.4116
  701MOL0     C92429   4.127   0.250   7.851 -0.1203  0.6193  0.7191
  701MOL0     O92430   4.009   0.309   7.837 -0.2363 -0.4119 -0.3047
  701MOL0     C92431   3.891   0.246   7.847  0.0263  0.2376  0.5491
  701MOL0     C92432   3.793   0.271   7.757  0.3561 -0.0445  0.5888
  701MOL0     C92433   3.659   0.229   7.779 -0.0865 -0.2726  0.4368
  701MOL0     C92434   3.622   0.153   7.891 -0.1423 -0.5000  0.8920
  701MOL0     O92435   3.495   0.095   7.895  0.4003 -0.3802 -0.4012
  701MOL0     C92436   3.460   0.011   8.006 -0.7150 -0.1859  0.8650
  701MOL0     C92437   3.320  -0.048   7.988 -0.0033  0.5616 -0.0641
  701MOL0     C92438   3.207   0.058   8.005 -0.0475  0.7694 -0.9305
  701MOL0     C92439   3.087  -0.014   8.065  0.8191 -0.2253 -0.4479
  701MOL0     C92440   2.948   0.052   8.028  0.7832  0.1081  0.1648
  701MOL0     C92441   2.850   0.022   8.138 -0.3607 -0.3130 -0.2128
  701MOL0     C92442   2.710   0.065   8.113  1.1474 -0.3088  0.6884
  701MOL0     C92443   2.609   0.058   8.219  0.8964  0.8557 -0.4052
  701MOL0    Cl92444   2.665   0.178   8.344  0.3234  0.2387 -0.2902
  701MOL0     C92445   3.722   0.129   7.984 -0.7414 -0.9321 -0.2296
  701MOL0     C92446   3.856   0.174   7.962  0.2372 -0.9050 -0.0271
  701MOL0     O92447   4.149   0.130   7.896  0.4198  0.1209  0.0255
  701MOL0     C92448   4.254   0.437   7.718  0.6068  0.5041 -0.2305
  701MOL0     C92449   4.374   0.505   7.681  0.4799  1.2931  0.0810
  701MOL0     N92450   4.956   0.250   7.937 -0.0568 -1.2576  0.0238
  701MOL0     N92451   5.063   0.188   7.971 -0.2956 -0.9457 -0.8250
  701MOL0     C92452   6.059   0.935   8.315 -0.3609  0.0732 -0.6885
  701MOL0     C92453   6.182   0.986   8.350  0.2759  0.6322  0.2326
  701MOL0     C92454   6.576   1.215   8.276 -0.0258  0.3110  0.8239
  701MOL0     C92455   6.630   1.343   8.238  0.9226  0.2858 -0.2374
  701MOL0     C92456   6.760   1.378   8.251  0.0814  0.7448  0.6841
  701MOL0     C92457   6.840   1.289   8.314  0.0909  0.0876  0.3947
  701MOL0     O92458   6.980   1.316   8.328 -0.2843 -0.4259 -0.5959
  701MOL0     C92459   7.061   1.223   8.264  0.0208 -0.2067  0.0560
  701MOL0     C92460   7.192   1.285   8.198  0.5747  0.6253 -0.7677
  701MOL0     C92461   7.294   1.327   8.303  0.7099 -0.5979 -0.3396
  701MOL0     C92462   7.378   1.212   8.358 -0.3580  0.3539  0.3373
  701MOL0     C92463   7.478   1.159   8.264  0.9052 -0.3732  0.3007
  701MOL0     C92464   7.550   1.111   8.185  0.2653 -1.5238  0.4679
  701MOL0     C92465   6.799   1.158   8.346  0.6540 -0.1941 -0.7357
  701MOL0     C92466   6.671   1.119   8.321 -0.1371  0.9536 -0.4551
  701MOL0     H92467   6.352   0.964   8.057  0.9149 -1.5326  0.5325
  701MOL0     H92468   6.145   0.846   7.995  0.0003  0.0799 -0.4010
  701MOL0     H92469   5.743   0.835   8.238  1.5033  0.2820  3.4979
  701MOL0     H92470   5.879   0.741   8.301  1.0862 -0.4830 -0.2074
  701MOL0     H92471   5.869   0.609   8.098  0.0839  1.1094  0.3393
  701MOL0     H92472   5.718   0.679   8.044  0.4607  0.2057 -0.2639
  701MOL0     H92473   5.608   0.558   8.224 -0.3055  2.4357  1.4736
  701MOL0     H92474   5.749   0.573   8.324  2.6458 -1.3202  0.0013
  701MOL0     H92475   5.857   0.415   8.144 -0.5435  1.6302 -0.4733
  701MOL0     H92476   5.722   0.348   8.251 -1.7221  2.5684  0.2546
  701MOL0     H92477   5.717   0.321   7.975  0.1874 -2.0413  1.0967
  701MOL0     H92478   5.636   0.476   7.994  3.9062  0.5663 -0.8238
  701MOL0     H92479   5.495   0.380   8.184  0.6102  1.3935 -1.1682
  701MOL0     H92480   5.540   0.223   8.121  0.7503 -0.9571 -1.9115
  701MOL0     H92481   5.391   0.436   7.960 -2.2048 -1.5963 -0.2672
  701MOL0     H92482   5.476   0.286   7.891  0.2486 -0.4850  0.6818
  701MOL0     H92483   5.298   0.231   8.131  0.2769  2.0832  0.9608
  701MOL0     H92484   5.322   0.152   7.976  0.6851  0.1163  0.0832
  701MOL0     H92485   5.176   0.493   7.962  0.0838  0.6848 -2.2119
  701MOL0     H92486   4.916   0.499   7.759  3.5977  0.4159  0.7819
  701MOL0     H92487   4.937   0.601   7.898  2.4354 -1.4110  1.8568
  701MOL0     H92488   4.758   0.480   8.021 -0.7283 -2.2746  0.0215
  701MOL0     H92489   4.725   0.395   7.872  1.6582  0.1934  0.1055
  701MOL0     H92490   4.578   0.599   7.910 -1.5286  3.5328 -1.7000
  701MOL0     H92491   4.719   0.700   7.898  0.5837 -0.7665  0.0285
  701MOL0     H92492   4.754   0.636   7.661  0.1594 -0.2777  1.3789
  701MOL0     H92493   4.590   0.681   7.682  0.8829  0.2787 -1.4676
  701MOL0     H92494   4.587   0.260   7.783 -0.2649  0.5664 -0.2465
  701MOL0     H92495   4.378   0.156   7.845 -0.9448  0.4186  0.2166
  701MOL0     H92496   3.815   0.328   7.667  0.0839  0.1151  0.6228
  701MOL0     H92497   3.575   0.269   7.724 -0.3962 -0.5916  0.6709
  701MOL0     H92498   3.474   0.073   8.095  0.7491 -0.1500  0.6342
  701MOL0     H92499   3.524  -0.077   8.021 -0.7492 -0.0531  1.8522
  701MOL0     H92500   3.293  -0.115   8.070 -0.7933 -0.4731 -1.1350
  701MOL0     H92501   3.315  -0.110   7.898  1.7422  0.9915 -0.4954
  701MOL0     H92502   3.182   0.101   7.908  1.7549 -2.6272 -3.0881
  701MOL0     H92503   3.227   0.136   8.079  2.2146  0.6446 -1.3535
  701MOL0     H92504   3.084  -0.118   8.032 -1.4513 -0.9652  1.7009
  701MOL0     H92505   3.100  -0.019   8.173 -1.4119 -1.9808 -0.1807
  701MOL0     H92506   2.936   0.022   7.923 -0.7370  0.1312  0.3202
  701MOL0     H92507   2.954   0.161   8.021  0.6285  0.0881 -0.2793
  701MOL0     H92508   2.880   0.068   8.233  0.2873  1.3403 -1.1633
  701MOL0     H92509   2.850  -0.087   8.148 -0.1266 -0.1469  2.3353
  701MOL0     H92510   2.702   0.169   8.083  2.4439 -0.0726  1.0902
  701MOL0     H92511   2.669   0.004   8.032  1.2575  1.0043 -0.3749
  701MOL0     H92512   2.610  -0.044   8.260 -0.1116  0.7786 -0.5505
  701MOL0     H92513   2.510   0.087   8.184 -0.2523 -1.1715  0.9465
  701MOL0     H92514   3.706   0.081   8.080 -0.5796  1.3849  1.0254
  701MOL0     H92515   3.939   0.159   8.030 -0.0552  0.3282  0.6393
  701MOL0     H92516   4.160   0.484   7.693 -0.0797 -2.0372 -2.9708
  701MOL0     H92517   4.383   0.594   7.619  1.9146  0.2728 -1.2530
  701MOL0     H92518   5.981   0.934   8.391 -0.0717  1.7540 -0.3209
  701MOL0     H92519   6.203   1.020   8.450  2.1596  2.0517 -0.6022
  701MOL0     H92520   6.564   1.419   8.198 -1.1793 -1.4908 -0.3573
  701MOL0     H92521   6.797   1.469   8.204 -0.1895 -0.7652 -2.7028
  701MOL0     H92522   7.005   1.174   8.185  0.0729  3.1586 -2.2738
  701MOL0     H92523   7.102   1.148   8.333  0.3671 -0.2990 -0.2469
  701MOL0     H92524   7.226   1.200   8.137  0.5826 -1.1773  1.6035
  701MOL0     H92525   7.162   1.363   8.128  0.5223 -0.4948 -2.0439
  701MOL0     H92526   7.246   1.387   8.381  0.0036 -0.5388 -0.8135
  701MOL0     H92527   7.361   1.393   8.249  0.0470  0.4697  0.1167
  701MOL0     H92528   7.414   1.253   8.453 -1.5475  0.6183  0.6858
  701MOL0     H92529   7.315   1.131   8.395  0.2728 -0.4544 -0.3177
  701MOL0     H92530   7.624   1.074   8.117  1.0121 -1.0633  1.0136
  701MOL0     H92531   6.873   1.091   8.389  2.7443  2.0623 -0.6189
  701MOL0     H92532   6.638   1.019   8.347  0.9333  1.5694  4.0287
  702MOL0     O92533   7.931   9.721   1.773 -0.5306  0.2216  0.0258
  702MOL0     C92534   7.935   9.842   1.802 -0.3304 -0.1546 -0.0634
  702MOL0     O92535   7.828   9.921   1.829 -0.2447 -0.2762 -0.8101
  702MOL0     C92536   7.710   9.848   1.821  0.3318 -0.3693 -0.1148
  702MOL0     C92537   7.659   9.780   1.933 -0.2616  0.3941 -0.5611
  702MOL0     C92538   7.547   9.701   1.921  0.3929 -0.6559  0.0653
  702MOL0     C92539   7.466   9.702   1.807 -0.8995 -0.3747 -0.5910
  702MOL0     O92540   7.349   9.642   1.797 -0.3630  0.0176 -0.4006
  702MOL0     C92541   7.235   9.721   1.795 -0.2660  0.6575 -0.1975
  702MOL0     C92542   7.145   9.659   1.682 -0.0713  0.0692  0.6535
  702MOL0     C92543   7.144   9.505   1.698  0.1747 -0.3687 -0.2430
  702MOL0     C92544   7.020   9.451   1.618 -1.2362 -0.4909 -0.7496
  702MOL0     C92545   7.019   9.298   1.614  0.2504 -1.1200 -0.6128
  702MOL0     C92546   6.970   9.246   1.755 -0.3526  0.0208 -0.1089
  702MOL0     C92547   6.809   9.263   1.757 -0.1319  0.2226  0.4905
  702MOL0     C92548   6.761   9.259   1.909  0.2843  0.2097 -0.0113
  702MOL0     N92549   6.618   9.261   1.923 -0.1900  0.5718  0.6456
  702MOL0     C92550   6.552   9.245   2.046 -0.1435 -0.8391  0.3821
  702MOL0     C92551   6.424   9.216   2.025  0.5196 -0.3515  0.2576
  702MOL0     C92552   6.330   9.176   2.133 -0.5830  0.4762  0.1333
  702MOL0     C92553   6.207   9.269   2.138  0.3612  0.1267 -0.6336
  702MOL0     C92554   6.244   9.407   2.107 -0.5270 -0.0613 -0.1583
  702MOL0     C92555   6.146   9.513   2.162  0.3591  0.6870  0.1195
  702MOL0     O92556   6.159   9.538   2.300 -0.0155  0.0307 -0.6509
  702MOL0     C92557   6.047   9.541   2.376 -0.3523 -0.6102  0.1482
  702MOL0     C92558   5.942   9.456   2.357 -0.1613 -0.2900  0.7833
  702MOL0     C92559   5.848   9.433   2.457  0.6814  0.4972  0.7004
  702MOL0     C92560   5.859   9.503   2.581 -0.2782 -0.1461  0.3915
  702MOL0     C92561   5.758   9.486   2.690 -0.6319 -0.8466  1.1291
  702MOL0     O92562   5.755   9.575   2.784  0.0051  0.0832 -0.2173
  702MOL0     C92563   5.648   9.584   2.863  0.8069 -0.5199  0.3627
  702MOL0     C92564   5.616   9.484   2.956  0.2790 -0.4902  0.0163
  702MOL0     C92565   5.497   9.487   3.023  0.3803 -0.2593 -0.7010
  702MOL0     C92566   5.408   9.594   3.014  0.2214 -0.1124 -0.2534
  702MOL0     O92567   5.284   9.603   3.076  0.0762  0.0460  0.0975
  702MOL0     C92568   5.239   9.491   3.143  0.6971  0.3399 -0.2679
  702MOL0     C92569   5.168   9.390   3.052  1.3333  0.7997 -0.4316
  702MOL0     C92570   5.093   9.276   3.130 -0.4904 -0.0621  0.4091
  702MOL0     C92571   5.008   9.318   3.261 -0.3842 -0.0827 -0.6843
  702MOL0     C92572   4.894   9.417   3.219  0.2819  0.2892 -0.4474
  702MOL0     C92573   4.783   9.364   3.122 -0.9843 -0.2885  0.0939
  702MOL0     C92574   4.716   9.232   3.176 -1.3139 -0.5992  0.0853
  702MOL0     C92575   4.648   9.153   3.066  0.3447  0.5668  0.1977
  702MOL0    Cl92576   4.496   9.244   3.020  0.2971  0.0010 -0.2625
  702MOL0     C92577   5.435   9.687   2.918  0.3724  0.0560  0.3333
  702MOL0     C92578   5.556   9.694   2.843  1.1446  0.0079 -0.7619
  702MOL0     O92579   5.675   9.394   2.676  0.1202 -0.7404 -0.4365
  702MOL0     C92580   5.963   9.593   2.600  0.2829  0.0316  0.1610
  702MOL0     C92581   6.058   9.612   2.495  0.0165  0.4115 -0.0220
  702MOL0     N92582   6.404   9.227   1.887 -0.1736  0.3575  0.1433
  702MOL0     N92583   6.522   9.247   1.831  1.3450 -0.4835 -0.3729
  702MOL0     C92584   7.517   9.775   1.694 -0.3050  0.1309 -0.7654
  702MOL0     C92585   7.636   9.848   1.703  0.1951  0.2885 -0.3019
  702MOL0     C92586   8.068   9.907   1.825  0.6361 -0.4441 -0.1616
  702MOL0     C92587   8.179   9.865   1.753 -0.5409 -0.3525  0.4209
  702MOL0     C92588   8.295   9.944   1.749  0.8051 -0.3984 -0.1036
  702MOL0     C92589   8.304  10.066   1.824  0.4583  0.3673  0.4556
  702MOL0     O92590   8.422  10.132   1.795  0.1083  0.3115  0.5898
  702MOL0     C92591   8.450  10.260   1.846  0.4442 -1.0901 -0.6449
  702MOL0     C92592   8.372  10.370   1.776 -0.6987  0.0648  0.0879
  702MOL0     C92593   8.371  10.360   1.624  0.0569 -1.0282 -0.2988
  702MOL0     C92594   8.506  10.410   1.578  0.0891 -0.3702 -0.0585
  702MOL0     C92595   8.482  10.504   1.465  0.0076  0.2376  0.2266
  702MOL0     C92596   8.463  10.564   1.356 -0.0401 -0.0849  0.7296
  702MOL0     C92597   8.191  10.102   1.903 -0.8363 -0.2517  0.7323
  702MOL0     C92598   8.078  10.023   1.899 -0.1346 -0.4209 -0.2253
  702MOL0     H92599   7.719   9.771   2.022  1.6220  1.1789 -1.6943
  702MOL0     H92600   7.522   9.643   2.009 -1.3906  1.4361  1.0543
  702MOL0     H92601   7.255   9.826   1.775 -0.9633  1.0228  0.8965
  702MOL0     H92602   7.185   9.715   1.892 -0.6539  2.3026 -0.2740
  702MOL0     H92603   7.181   9.693   1.584  0.5971 -0.5387  0.6834
  702MOL0     H92604   7.044   9.700   1.696  0.2042  1.1542 -0.3731
  702MOL0     H92605   7.142   9.460   1.798  2.5774 -2.7708 -1.1280
  702MOL0     H92606   7.232   9.457   1.653 -1.6859 -1.8073 -2.5523
  702MOL0     H92607   6.931   9.493   1.666 -1.0324 -0.4056 -0.4453
  702MOL0     H92608   7.013   9.480   1.513 -1.6241  1.2831 -0.2655
  702MOL0     H92609   7.117   9.254   1.593  0.0774 -0.2616 -3.7509
  702MOL0     H92610   6.955   9.261   1.532 -0.5227 -1.3573  0.0785
  702MOL0     H92611   7.019   9.298   1.838  2.6489 -0.2753 -1.5698
  702MOL0     H92612   6.999   9.142   1.766 -0.9328  0.0860  2.6404
  702MOL0     H92613   6.773   9.351   1.703 -2.0565  1.2477  3.2576
  702MOL0     H92614   6.778   9.173   1.703  0.3212  0.1260  0.3889
  702MOL0     H92615   6.806   9.346   1.957  2.6197 -0.8136 -0.2319
  702MOL0     H92616   6.795   9.170   1.963 -0.5044  0.3790  0.7823
  702MOL0     H92617   6.607   9.239   2.140 -0.2748 -1.1026  0.4420
  702MOL0     H92618   6.389   9.170   2.224  3.7221 -2.0359 -2.4913
  702MOL0     H92619   6.286   9.079   2.107 -0.9851  0.3259  1.3080
  702MOL0     H92620   6.155   9.259   2.234  1.0443 -0.0291 -0.2750
  702MOL0     H92621   6.136   9.243   2.059 -0.0831  0.0087 -0.2005
  702MOL0     H92622   6.338   9.432   2.158  0.7301 -1.9696 -1.4562
  702MOL0     H92623   6.256   9.435   2.002  1.8247 -2.0434 -0.4926
  702MOL0     H92624   6.043   9.490   2.132 -1.1972  1.8896  3.9879
  702MOL0     H92625   6.174   9.607   2.113  1.8707  1.1523  1.8061
  702MOL0     H92626   5.940   9.389   2.272  0.5428  0.0595  0.4897
  702MOL0     H92627   5.765   9.365   2.444 -0.0484  1.5329 -0.2657
  702MOL0     H92628   5.688   9.404   2.968  2.6981  1.8593  2.7080
  702MOL0     H92629   5.478   9.402   3.088 -1.4778  0.0436 -0.8043
  702MOL0     H92630   5.161   9.525   3.212  1.9338  1.5441  0.5883
  702MOL0     H92631   5.309   9.424   3.193 -0.8272 -2.3475 -1.5118
  702MOL0     H92632   5.247   9.351   2.987  2.2229 -1.8155  1.9902
  702MOL0     H92633   5.097   9.432   2.980  0.1784 -3.9402 -2.5040
  702MOL0     H92634   5.160   9.193   3.155 -0.0862 -0.2126 -1.1119
  702MOL0     H92635   5.033   9.247   3.043 -1.2088 -1.5762  1.3655
  702MOL0     H92636   4.963   9.228   3.303 -2.1886  1.6970  1.4583
  702MOL0     H92637   5.061   9.361   3.346 -0.4569 -2.7487  0.8037
  702MOL0     H92638   4.938   9.510   3.183  0.2852  0.4603  0.0027
  702MOL0     H92639   4.832   9.438   3.306  1.2181 -4.3765  1.6824
  702MOL0     H92640   4.815   9.349   3.019 -0.9247  1.4387 -0.1527
  702MOL0     H92641   4.708   9.443   3.113 -1.0397 -0.3460  0.0513
  702MOL0     H92642   4.796   9.163   3.206  1.0961  0.3411 -3.5726
  702MOL0     H92643   4.646   9.242   3.260 -1.6387 -1.1572 -0.1139
  702MOL0     H92644   4.610   9.058   3.104 -0.4449  1.0757  0.7029
  702MOL0     H92645   4.708   9.136   2.976 -0.7307 -1.1127 -0.2303
  702MOL0     H92646   5.360   9.756   2.880  0.4379 -0.9258 -1.7473
  702MOL0     H92647   5.559   9.777   2.773 -2.0413  1.2418  0.3830
  702MOL0     H92648   5.971   9.658   2.686  1.3735 -0.0078  0.1008
  702MOL0     H92649   6.146   9.673   2.515 -0.8260  0.7006  3.3895
  702MOL0     H92650   7.451   9.787   1.608 -1.5387  0.5985  0.2115
  702MOL0     H92651   7.677   9.901   1.617 -0.5854 -1.0497 -1.5444
  702MOL0     H92652   8.163   9.776   1.694 -0.7406  0.8179 -1.3752
  702MOL0     H92653   8.383   9.915   1.692  1.0491  0.1922 -0.0307
  702MOL0     H92654   8.557  10.280   1.836  0.7630 -0.1455  3.2445
  702MOL0     H92655   8.435  10.267   1.954 -2.5086 -0.8277 -0.9940
  702MOL0     H92656   8.269  10.349   1.804 -0.0412 -2.9239  0.6576
  702MOL0     H92657   8.405  10.471   1.800 -0.6023  0.7865 -2.7314
  702MOL0     H92658   8.285  10.420   1.595  0.4515 -0.6787 -0.7497
  702MOL0     H92659   8.358  10.260   1.580 -2.0088 -0.3208 -1.4263
  702MOL0     H92660   8.567  10.461   1.653 -0.4400  1.0151 -0.5258
  702MOL0     H92661   8.564  10.325   1.541  1.4456 -1.1460  3.4963
  702MOL0     H92662   8.452  10.617   1.263  2.2044  0.2132  0.5822
  702MOL0     H92663   8.191  10.203   1.944  3.6056 -0.5466  1.8995
  702MOL0     H92664   7.991  10.062   1.952 -1.6309 -4.4219  0.6423
  703MOL0     O92665   3.203   9.291   7.604  0.1449 -0.3990 -0.3449
  703MOL0     C92666   3.217   9.219   7.501  0.8613  0.9191 -0.0018
  703MOL0     O92667   3.172   9.246   7.378 -0.4333 -0.2738 -0.2769
  703MOL0     C92668   3.144   9.375   7.342 -0.6689 -0.4725 -0.9847
  703MOL0     C92669   3.025   9.440   7.361  0.4478 -0.8374 -0.7015
  703MOL0     C92670   3.015   9.573   7.357  0.9558 -0.4370  0.0801
  703MOL0     C92671   3.127   9.649   7.322  0.1804  0.5653  0.0087
  703MOL0     O92672   3.099   9.783   7.327 -0.0650  0.0377 -0.6498
  703MOL0     C92673   3.222   9.872   7.340  0.4890 -0.0271 -0.0497
  703MOL0     C92674   3.191  10.019   7.339 -0.2161 -0.7964  0.1932
  703MOL0     C92675   3.316  10.113   7.337  0.1286 -0.8227 -0.3280
  703MOL0     C92676   3.400  10.118   7.471 -0.7067  0.5874  0.0046
  703MOL0     C92677   3.409  10.264   7.506  0.1424 -0.6924 -0.2559
  703MOL0     C92678   3.274  10.318   7.570  0.7627 -0.1956  0.3974
  703MOL0     C92679   3.267  10.303   7.719 -1.8566 -0.1368 -0.4762
  703MOL0     C92680   3.140  10.358   7.785 -0.1275  0.7441  0.0377
  703MOL0     N92681   3.021  10.268   7.774  0.1761 -0.4554  0.1086
  703MOL0     C92682   2.938  10.253   7.670  0.8903 -1.1223  0.3924
  703MOL0     C92683   2.859  10.148   7.704  0.7739 -0.8994  0.6670
  703MOL0     C92684   2.750  10.081   7.626 -1.0439 -0.2303  0.1998
  703MOL0     C92685   2.832   9.979   7.536 -0.3573 -0.1331  0.4804
  703MOL0     C92686   2.735   9.902   7.436  1.0314  0.1455  0.3127
  703MOL0     C92687   2.605   9.846   7.498  0.9855 -0.4334 -0.1096
  703MOL0     O92688   2.538   9.763   7.412 -0.6714  0.1191  0.4981
  703MOL0     C92689   2.431   9.690   7.454  0.7107  0.1572  0.1364
  703MOL0     C92690   2.337   9.669   7.365  0.4702  0.4314  0.3118
  703MOL0     C92691   2.215   9.613   7.390 -0.5169 -0.6937 -0.3413
  703MOL0     C92692   2.187   9.563   7.515  0.1549  0.5823 -1.0732
  703MOL0     C92693   2.057   9.505   7.543 -0.1569 -0.8305  0.3331
  703MOL0     O92694   2.025   9.459   7.665  0.3679 -0.1623  0.4808
  703MOL0     C92695   1.921   9.368   7.682  0.2984  0.1366 -0.2554
  703MOL0     C92696   1.920   9.235   7.637 -0.8206 -1.3363  0.0891
  703MOL0     C92697   1.805   9.151   7.641  1.1355 -0.7939  0.5574
  703MOL0     C92698   1.685   9.197   7.700  0.2001 -0.8485  0.3298
  703MOL0     O92699   1.565   9.126   7.706 -0.2033 -0.1680 -0.0808
  703MOL0     C92700   1.512   9.096   7.572 -0.5629 -0.1572  0.0483
  703MOL0     C92701   1.381   9.015   7.579 -0.0031 -1.0537 -0.0507
  703MOL0     C92702   1.423   8.876   7.519 -0.0515 -0.5299  1.0562
  703MOL0     C92703   1.299   8.789   7.527 -0.3002  0.6417 -0.2749
  703MOL0     C92704   1.322   8.662   7.443  0.4541  0.6579 -1.3214
  703MOL0     C92705   1.435   8.573   7.512 -0.0222  0.8125  0.4321
  703MOL0     C92706   1.427   8.431   7.440 -0.6607  0.0383  0.1832
  703MOL0     C92707   1.491   8.319   7.532  0.0117  0.1686 -0.7914
  703MOL0    Cl92708   1.363   8.211   7.582  0.3426 -0.0248  0.7624
  703MOL0     C92709   1.675   9.335   7.724 -0.0661  0.0193 -0.9552
  703MOL0     C92710   1.790   9.418   7.717 -0.2754 -1.5112  0.3142
  703MOL0     O92711   1.987   9.497   7.441  0.5576  0.7629 -0.1915
  703MOL0     C92712   2.288   9.572   7.611 -0.5258 -0.9192  0.1553
  703MOL0     C92713   2.408   9.632   7.586  0.4507  0.7147  0.0210
  703MOL0     N92714   2.886  10.118   7.833  1.1047 -0.2032 -0.1783
  703MOL0     N92715   2.977  10.188   7.880 -0.6975 -0.1751 -0.1672
  703MOL0     C92716   3.248   9.590   7.290  0.5663 -0.9060 -0.0834
  703MOL0     C92717   3.251   9.453   7.301 -0.0221 -0.4133  1.0283
  703MOL0     C92718   3.290   9.095   7.523 -0.4738  0.0205  0.0629
  703MOL0     C92719   3.315   9.002   7.423 -0.0313 -0.7240  0.3642
  703MOL0     C92720   3.384   8.882   7.448  0.2845 -1.2177 -0.2384
  703MOL0     C92721   3.442   8.858   7.576  0.1783 -0.2451 -0.3571
  703MOL0     O92722   3.530   8.750   7.588 -0.3829 -0.3523  0.0712
  703MOL0     C92723   3.605   8.731   7.706 -0.8093 -0.2995 -0.1089
  703MOL0     C92724   3.733   8.830   7.719  0.7842  1.0476 -0.5730
  703MOL0     C92725   3.834   8.811   7.604  0.4461  0.0383  0.0709
  703MOL0     C92726   3.889   8.668   7.574  0.0937  0.3130  0.4019
  703MOL0     C92727   3.940   8.596   7.691 -0.0539 -1.0451  0.2909
  703MOL0     C92728   3.982   8.538   7.792  0.6814 -0.9580 -0.1685
  703MOL0     C92729   3.417   8.948   7.676 -0.3574  0.0518  0.4405
  703MOL0     C92730   3.346   9.061   7.646  0.2027 -0.3731  0.5226
  703MOL0     H92731   2.948   9.385   7.414 -0.0444  1.0873  0.6773
  703MOL0     H92732   2.925   9.619   7.398 -0.4162 -2.2466 -0.7409
  703MOL0     H92733   3.288   9.860   7.254  0.4656  2.1310 -0.4035
  703MOL0     H92734   3.276   9.852   7.432 -1.1647 -0.2531  0.9195
  703MOL0     H92735   3.153  10.037   7.440  0.1059 -0.9947  0.3529
  703MOL0     H92736   3.120  10.041   7.259  1.5554  1.3989 -0.8801
  703MOL0     H92737   3.280  10.215   7.321 -2.2851 -1.2203  1.8396
  703MOL0     H92738   3.375  10.079   7.252  0.4213 -0.3357 -0.3212
  703MOL0     H92739   3.362  10.051   7.549  0.3014  0.6406  0.5611
  703MOL0     H92740   3.499  10.082   7.443 -0.5938  3.1436 -3.4411
  703MOL0     H92741   3.429  10.324   7.417 -1.1390 -3.2305 -2.3997
  703MOL0     H92742   3.502  10.271   7.563  1.2266  1.0016 -2.0887
  703MOL0     H92743   3.195  10.250   7.537  2.4908 -1.4703 -1.3256
  703MOL0     H92744   3.259  10.422   7.537  2.2653 -0.3074 -0.7636
  703MOL0     H92745   3.277  10.199   7.751 -1.0056  0.1085  0.0799
  703MOL0     H92746   3.343  10.371   7.757 -2.6190  1.7720 -2.1558
  703MOL0     H92747   3.117  10.456   7.742 -1.3155  0.1112 -0.8328
  703MOL0     H92748   3.165  10.367   7.891  0.2972  0.9190 -0.0784
  703MOL0     H92749   2.950  10.299   7.572  2.1987 -0.3900  0.8706
  703MOL0     H92750   2.695  10.152   7.563  0.4677  0.3411 -0.5076
  703MOL0     H92751   2.679  10.026   7.689 -1.2343  1.3761  1.4423
  703MOL0     H92752   2.851   9.895   7.604 -3.2255 -3.0505 -1.9870
  703MOL0     H92753   2.921  10.013   7.483 -0.3675 -2.2588 -1.0262
  703MOL0     H92754   2.707   9.977   7.362 -1.0884 -1.4403 -0.5782
  703MOL0     H92755   2.791   9.816   7.398 -1.6269 -2.6006  2.1229
  703MOL0     H92756   2.538   9.929   7.526  1.2005 -0.5603  0.8216
  703MOL0     H92757   2.629   9.787   7.587  1.3914  1.3026  0.9767
  703MOL0     H92758   2.355   9.699   7.262 -0.7092 -0.4641 -0.1819
  703MOL0     H92759   2.148   9.602   7.305  0.5375 -0.9182 -1.1817
  703MOL0     H92760   2.004   9.192   7.582  1.4540  1.4630  1.1426
  703MOL0     H92761   1.808   9.045   7.615 -0.9534 -1.2833  2.0858
  703MOL0     H92762   1.578   9.045   7.502 -0.0398  0.3428  0.1712
  703MOL0     H92763   1.475   9.188   7.526  0.2604  0.4555  0.5882
  703MOL0     H92764   1.303   9.065   7.520 -0.9364 -3.4805 -0.9881
  703MOL0     H92765   1.342   9.014   7.682 -0.7503  2.3585 -0.1778
  703MOL0     H92766   1.502   8.821   7.571 -0.1534 -2.2673 -0.5245
  703MOL0     H92767   1.453   8.885   7.415  1.5928 -2.8045  1.2652
  703MOL0     H92768   1.283   8.760   7.631 -1.1314 -0.8695 -0.7944
  703MOL0     H92769   1.203   8.835   7.500 -0.4559  0.8906  0.6664
  703MOL0     H92770   1.342   8.700   7.343  2.2032  0.5104 -1.0544
  703MOL0     H92771   1.236   8.594   7.436  1.5762 -0.7563 -1.8399
  703MOL0     H92772   1.404   8.573   7.616 -0.2551 -0.5199  0.3737
  703MOL0     H92773   1.537   8.611   7.504  0.3269 -0.3853 -1.6359
  703MOL0     H92774   1.328   8.391   7.416 -0.0464 -1.6004  0.2625
  703MOL0     H92775   1.482   8.441   7.346  0.7299 -0.7209  0.8907
  703MOL0     H92776   1.553   8.357   7.614  1.6469  0.2613 -2.0188
  703MOL0     H92777   1.563   8.261   7.472  1.8231 -0.7384  2.0107
  703MOL0     H92778   1.578   9.371   7.758 -1.3395 -0.4017 -3.8581
  703MOL0     H92779   1.773   9.524   7.734 -2.9992 -2.1142  1.8843
  703MOL0     H92780   2.282   9.530   7.711 -4.0260  1.5871  1.2004
  703MOL0     H92781   2.485   9.638   7.662  0.6279 -1.7253  0.1152
  703MOL0     H92782   3.337   9.646   7.264  0.4338 -1.0473 -0.8902
  703MOL0     H92783   3.341   9.400   7.270 -0.3818 -0.3975 -0.0868
  703MOL0     H92784   3.286   9.015   7.320 -2.2389 -1.4455  0.8381
  703MOL0     H92785   3.402   8.812   7.367 -0.4504  0.0904 -1.5726
  703MOL0     H92786   3.647   8.630   7.711  2.0507  0.6685 -2.0519
  703MOL0     H92787   3.533   8.739   7.788 -0.9223  1.9245 -0.3545
  703MOL0     H92788   3.692   8.931   7.714 -0.1623  0.6298 -1.5593
  703MOL0     H92789   3.782   8.821   7.817  0.0605 -0.6686 -0.3249
  703MOL0     H92790   3.917   8.874   7.636 -1.0545  2.4551 -0.5081
  703MOL0     H92791   3.799   8.845   7.506  2.0288 -2.2686 -1.3841
  703MOL0     H92792   3.807   8.614   7.527 -0.3726  0.4745  1.0089
  703MOL0     H92793   3.971   8.681   7.503  1.0541  0.3455  1.4894
  703MOL0     H92794   4.033   8.495   7.876 -0.3514 -2.1474 -0.1328
  703MOL0     H92795   3.457   8.929   7.775  0.0101  0.6597  0.4143
  703MOL0     H92796   3.332   9.130   7.728 -0.9334 -0.8191  0.7297
  704MOL0     O92797   5.760   0.582   5.027 -0.0296 -0.5790  0.6237
  704MOL0     C92798   5.788   0.475   5.086 -0.7400  0.0007  0.3372
  704MOL0     O92799   5.698   0.396   5.147 -0.8073 -0.3388 -0.3679
  704MOL0     C92800   5.569   0.446   5.135  0.4740  0.7900  0.4513
  704MOL0     C92801   5.515   0.545   5.221 -0.4302  0.4960  0.7067
  704MOL0     C92802   5.377   0.573   5.220  0.4901 -0.9104 -0.0820
  704MOL0     C92803   5.300   0.514   5.125  0.3637  0.7606 -0.1136
  704MOL0     O92804   5.161   0.541   5.112 -0.2786  0.2122  0.1816
  704MOL0     C92805   5.093   0.636   5.187 -1.1195 -0.2439  0.1146
  704MOL0     C92806   4.969   0.683   5.111  0.6245 -0.2703 -0.3433
  704MOL0     C92807   4.899   0.791   5.191 -0.4479 -0.7111 -0.0173
  704MOL0     C92808   4.767   0.853   5.127 -0.0837 -0.2275 -1.0676
  704MOL0     C92809   4.660   0.745   5.091 -0.5681  0.3259 -0.2298
  704MOL0     C92810   4.530   0.817   5.041 -0.2343 -0.4242 -0.5135
  704MOL0     C92811   4.417   0.725   4.997  0.7444  0.0719 -0.6918
  704MOL0     C92812   4.284   0.797   4.959 -0.5263  0.6950 -0.2536
  704MOL0     N92813   4.232   0.870   5.075 -0.6992 -0.5204 -0.4275
  704MOL0     C92814   4.195   0.808   5.190 -0.3858  0.1276  0.1099
  704MOL0     C92815   4.138   0.902   5.267  0.1606 -0.2731  0.2810
  704MOL0     C92816   4.076   0.874   5.399 -0.0237  0.3481 -0.2333
  704MOL0     C92817   3.955   0.972   5.418  0.5757  0.7291 -0.0135
  704MOL0     C92818   3.838   0.936   5.322 -0.2942  0.1993 -0.4722
  704MOL0     C92819   3.723   1.037   5.343 -0.3561 -1.0054  0.5970
  704MOL0     O92820   3.625   0.995   5.244  0.1143  0.4563  0.1110
  704MOL0     C92821   3.489   1.015   5.265 -0.4125  0.3041  0.9535
  704MOL0     C92822   3.427   1.085   5.375  0.0999 -1.2579  0.2156
  704MOL0     C92823   3.290   1.084   5.385 -0.6972  0.1879  0.3472
  704MOL0     C92824   3.210   1.023   5.287 -0.0938 -0.5059 -0.1915
  704MOL0     C92825   3.064   1.041   5.292  0.8573  0.7033 -0.0025
  704MOL0     O92826   2.988   0.957   5.204 -0.1837  0.0768 -0.4980
  704MOL0     C92827   2.857   0.957   5.220  0.6725  0.3614 -0.4672
  704MOL0     C92828   2.783   1.008   5.114 -0.1093 -0.0469  0.6489
  704MOL0     C92829   2.642   1.029   5.103  0.6321  0.7080 -0.4637
  704MOL0     C92830   2.569   0.973   5.214  0.3655  0.0959 -0.1177
  704MOL0     O92831   2.437   0.994   5.203  0.2362  0.1826  0.6898
  704MOL0     C92832   2.363   0.994   5.329  0.9060  0.0606 -0.0505
  704MOL0     C92833   2.214   1.000   5.304  0.1709  0.0144  0.4845
  704MOL0     C92834   2.158   1.107   5.213 -0.2401 -0.0840  0.2385
  704MOL0     C92835   2.004   1.107   5.237  0.2179  0.3183 -0.4015
  704MOL0     C92836   1.929   1.213   5.154  0.6612  0.5771 -0.1061
  704MOL0     C92837   1.781   1.228   5.197 -0.4267 -0.3864  0.1378
  704MOL0     C92838   1.696   1.108   5.240  0.9483 -0.0656  0.6990
  704MOL0     C92839   1.541   1.130   5.222  0.2700  0.0844  0.6427
  704MOL0    Cl92840   1.487   1.113   5.054 -0.0047  0.1030 -0.0767
  704MOL0     C92841   2.638   0.894   5.309 -0.4655  0.6723 -0.5025
  704MOL0     C92842   2.781   0.888   5.319  0.2134 -0.4456  0.0288
  704MOL0     O92843   3.014   1.125   5.357  0.0291 -0.7214 -0.4080
  704MOL0     C92844   3.267   0.965   5.173  0.3592 -0.5848 -0.3055
  704MOL0     C92845   3.404   0.963   5.161 -0.3994 -0.1094  0.1283
  704MOL0     N92846   4.141   1.019   5.200  0.0286 -0.2899  0.1937
  704MOL0     N92847   4.206   1.001   5.087 -0.3475 -0.4979 -0.2998
  704MOL0     C92848   5.354   0.412   5.038 -0.5395  0.6286 -0.4063
  704MOL0     C92849   5.492   0.383   5.046  0.1122  0.5018 -0.0623
  704MOL0     C92850   5.929   0.449   5.121  0.2542 -0.3671 -0.2553
  704MOL0     C92851   5.953   0.318   5.179 -0.0921 -0.1892  0.7965
  704MOL0     C92852   6.078   0.301   5.238  0.2215  0.3390  0.1460
  704MOL0     C92853   6.179   0.396   5.237  0.8151  0.7039 -0.3157
  704MOL0     O92854   6.305   0.376   5.283  0.6553  0.0657  0.2163
  704MOL0     C92855   6.329   0.262   5.360  0.7721  0.1918  0.2381
  704MOL0     C92856   6.437   0.295   5.463 -0.1907 -0.1308  0.2117
  704MOL0     C92857   6.443   0.195   5.574 -0.6663  0.7846  0.4356
  704MOL0     C92858   6.550   0.214   5.672 -0.1708  0.1013  0.7013
  704MOL0     C92859   6.686   0.197   5.610  0.4267 -0.0064 -0.1873
  704MOL0     C92860   6.773   0.153   5.541  0.0130 -0.2758  0.7976
  704MOL0     C92861   6.147   0.519   5.181  0.0998 -0.3256  0.9618
  704MOL0     C92862   6.026   0.545   5.123 -0.1861 -0.7549  0.4186
  704MOL0     H92863   5.576   0.589   5.299  0.4469  0.0086  0.3096
  704MOL0     H92864   5.334   0.645   5.289 -0.7435 -2.0008  0.3214
  704MOL0     H92865   5.158   0.723   5.200  2.0681 -2.5638  0.9329
  704MOL0     H92866   5.066   0.583   5.279 -1.0977 -0.4690 -0.0079
  704MOL0     H92867   4.892   0.606   5.111  0.9328 -0.5852  0.2070
  704MOL0     H92868   4.989   0.715   5.008 -1.1436  0.0642 -0.6238
  704MOL0     H92869   4.965   0.876   5.209 -2.6264  1.2652 -0.9173
  704MOL0     H92870   4.888   0.753   5.293  2.0904  0.6921  0.8685
  704MOL0     H92871   4.728   0.933   5.191  2.1314 -0.6087  0.8768
  704MOL0     H92872   4.804   0.900   5.035  4.3053  0.2705  0.7165
  704MOL0     H92873   4.636   0.691   5.183  3.6273 -1.1725  0.2318
  704MOL0     H92874   4.695   0.674   5.015  0.5999 -1.7617  2.1064
  704MOL0     H92875   4.565   0.877   4.956 -1.1499  1.3819  0.3364
  704MOL0     H92876   4.498   0.890   5.116  2.8880 -1.2008  1.7909
  704MOL0     H92877   4.454   0.678   4.905  2.1581  4.5714 -2.6657
  704MOL0     H92878   4.386   0.647   5.067 -0.0021  1.4843  0.5996
  704MOL0     H92879   4.200   0.730   4.938 -0.4141  0.4260  0.1334
  704MOL0     H92880   4.298   0.865   4.874  2.7155  1.2440  0.5896
  704MOL0     H92881   4.214   0.705   5.218 -0.9077  0.5996  2.3912
  704MOL0     H92882   4.146   0.888   5.482 -0.5466  2.0857 -0.0444
  704MOL0     H92883   4.029   0.775   5.405 -0.1596  0.2653 -2.0473
  704MOL0     H92884   3.986   1.073   5.391 -2.4172  1.4583 -1.1996
  704MOL0     H92885   3.916   0.965   5.520  3.5872 -0.4838  1.1603
  704MOL0     H92886   3.869   0.924   5.217 -2.9389 -1.7466 -1.1283
  704MOL0     H92887   3.812   0.833   5.346  1.7169  0.4245  3.5458
  704MOL0     H92888   3.749   1.143   5.338 -0.8029 -0.9664 -1.3583
  704MOL0     H92889   3.680   1.022   5.443  0.2288 -1.0126  0.8542
  704MOL0     H92890   3.490   1.121   5.455  0.5656 -1.4125 -0.0799
  704MOL0     H92891   3.243   1.129   5.472  0.0685 -0.1410  0.9467
  704MOL0     H92892   2.838   1.046   5.028 -0.6309  0.7284  0.6504
  704MOL0     H92893   2.600   1.064   5.009 -1.7086 -1.4847 -0.3315
  704MOL0     H92894   2.393   1.085   5.381 -0.1482  1.6535 -2.1209
  704MOL0     H92895   2.373   0.905   5.392 -0.8417  0.2076  0.4655
  704MOL0     H92896   2.170   1.006   5.404 -0.6789 -1.4366  0.2197
  704MOL0     H92897   2.185   0.910   5.249 -0.0292  0.7472 -0.6445
  704MOL0     H92898   2.188   1.096   5.108  2.2339  1.0028  0.7546
  704MOL0     H92899   2.190   1.205   5.248 -0.3026 -0.1435  0.4583
  704MOL0     H92900   1.954   1.010   5.231 -0.2215  0.2550  2.7385
  704MOL0     H92901   2.006   1.128   5.344  0.9065 -2.1676  0.1465
  704MOL0     H92902   1.943   1.180   5.050 -0.9395 -0.8207  0.0823
  704MOL0     H92903   1.972   1.312   5.175  1.4905  0.1818  0.1079
  704MOL0     H92904   1.727   1.285   5.121  2.1981  2.1667  0.0107
  704MOL0     H92905   1.780   1.300   5.278 -0.7182  0.3359 -0.4977
  704MOL0     H92906   1.729   1.014   5.195  2.4345  0.3864  0.7915
  704MOL0     H92907   1.723   1.082   5.343 -0.7420 -0.8435  0.9778
  704MOL0     H92908   1.508   1.228   5.258 -0.9941  0.5154 -1.5157
  704MOL0     H92909   1.486   1.052   5.277 -1.2602 -0.3159 -1.3236
  704MOL0     H92910   2.579   0.844   5.385  0.5336  0.1204 -0.0570
  704MOL0     H92911   2.837   0.825   5.387 -0.4750 -1.4329 -0.2972
  704MOL0     H92912   3.198   0.934   5.095 -3.6107  1.9275  1.8710
  704MOL0     H92913   3.448   0.910   5.078 -0.0554 -0.9659  0.8403
  704MOL0     H92914   5.288   0.377   4.960 -0.8876  0.7251 -0.1560
  704MOL0     H92915   5.545   0.304   4.994  1.1153  1.5221 -0.6121
  704MOL0     H92916   5.881   0.236   5.177 -2.2331  1.6027  0.4246
  704MOL0     H92917   6.103   0.198   5.265 -1.8757 -0.1718  0.3062
  704MOL0     H92918   6.349   0.187   5.283  1.6074  1.2575 -0.5987
  704MOL0     H92919   6.240   0.227   5.414  0.8717 -1.1605 -0.4137
  704MOL0     H92920   6.527   0.291   5.401 -1.4794 -0.1157 -1.7239
  704MOL0     H92921   6.429   0.400   5.495 -1.4887  0.9793 -3.3067
  704MOL0     H92922   6.451   0.097   5.526  0.9504  1.1165 -0.0446
  704MOL0     H92923   6.352   0.203   5.634 -2.4845 -1.0772 -1.8585
  704MOL0     H92924   6.548   0.322   5.693  1.9626  1.4955 -4.6139
  704MOL0     H92925   6.538   0.140   5.751  2.2317  0.0363  1.0627
  704MOL0     H92926   6.856   0.109   5.491  0.7214  2.3557 -0.4796
  704MOL0     H92927   6.224   0.596   5.177 -0.6234  0.3455 -0.7660
  704MOL0     H92928   6.004   0.647   5.093  0.5432 -0.8667 -0.5506
  705MOL0     O92929   2.583  10.681   5.831  0.1343 -0.5272 -0.1885
  705MOL0     C92930   2.570  10.558   5.819  0.1583 -0.1983  0.5526
  705MOL0     O92931   2.452  10.484   5.810  0.0962 -0.0909  0.8242
  705MOL0     C92932   2.333  10.546   5.819  0.1903 -0.1220 -0.2953
  705MOL0     C92933   2.233  10.488   5.902 -0.6174  0.2480 -0.6310
  705MOL0     C92934   2.106  10.546   5.897  0.0136 -0.2824  0.7817
  705MOL0     C92935   2.074  10.653   5.806  0.0221  0.0170 -0.4534
  705MOL0     O92936   1.949  10.712   5.824 -0.1722 -0.3121 -0.3685
  705MOL0     C92937   1.908  10.814   5.729 -0.7739  1.0467  0.5845
  705MOL0     C92938   1.767  10.865   5.762 -0.3572 -0.4452 -0.6405
  705MOL0     C92939   1.651  10.769   5.742 -0.1888  0.0062  0.6569
  705MOL0     C92940   1.521  10.833   5.693 -0.2144  0.4469  1.1248
  705MOL0     C92941   1.416  10.717   5.681  0.8178 -0.0362 -0.6913
  705MOL0     C92942   1.358  10.667   5.814  0.6259 -0.1450 -0.1782
  705MOL0     C92943   1.231  10.590   5.783 -0.2079  0.1124  0.0535
  705MOL0     C92944   1.109  10.686   5.776  0.1473 -0.5004 -0.0158
  705MOL0     N92945   0.994  10.596   5.748  0.5465 -0.7837  0.3397
  705MOL0     C92946   0.927  10.588   5.629 -0.1315  0.0228  0.3310
  705MOL0     C92947   0.809  10.542   5.652  0.6094 -0.6026 -0.1601
  705MOL0     C92948   0.713  10.509   5.541  0.5394 -1.0918 -0.0329
  705MOL0     C92949   0.561  10.508   5.573 -0.3645 -0.9125  0.1246
  705MOL0     C92950   0.469  10.471   5.468  0.2634  0.6856 -0.0665
  705MOL0     C92951   0.326  10.446   5.525 -0.0676  0.2320 -0.4379
  705MOL0     O92952   0.243  10.405   5.416 -0.2632  0.5080 -0.0664
  705MOL0     C92953   0.109  10.409   5.438  0.0362 -0.7449  0.3243
  705MOL0     C92954   0.042  10.409   5.564 -0.3902  0.0502  0.0947
  705MOL0     C92955  -0.095  10.427   5.571 -0.7144  0.1185  0.3960
  705MOL0     C92956  -0.172  10.435   5.457  0.6097 -0.8214  0.1574
  705MOL0     C92957  -0.326  10.435   5.484  0.2238  0.8445  0.6245
  705MOL0     O92958  -0.385  10.489   5.377 -0.2984  0.0320 -0.1360
  705MOL0     C92959  -0.511  10.530   5.392  0.8412  0.0025 -0.1547
  705MOL0     C92960  -0.551  10.633   5.480 -0.5880 -0.1527  0.4623
  705MOL0     C92961  -0.684  10.683   5.496  0.1686  0.1664  0.0235
  705MOL0     C92962  -0.780  10.628   5.412  0.8835  0.9279 -0.6944
  705MOL0     O92963  -0.909  10.669   5.429  0.7871 -0.8941 -0.7197
  705MOL0     C92964  -0.987  10.682   5.309 -0.1301 -1.3264  0.2757
  705MOL0     C92965  -1.097  10.792   5.313  0.0097  0.1408  0.5088
  705MOL0     C92966  -1.221  10.756   5.395 -0.2746  0.0960  0.5342
  705MOL0     C92967  -1.317  10.870   5.392  0.3980 -0.0461 -0.1108
  705MOL0     C92968  -1.434  10.839   5.486  0.2732  0.2923  0.0424
  705MOL0     C92969  -1.519  10.961   5.485 -0.1814 -0.1096  0.2302
  705MOL0     C92970  -1.662  10.911   5.520 -0.0909  0.0268 -0.2894
  705MOL0     C92971  -1.736  11.028   5.582  1.3178  0.8954 -1.2836
  705MOL0    Cl92972  -1.898  10.990   5.638 -0.0051  0.2866  0.3991
  705MOL0     C92973  -0.745  10.528   5.323 -0.3989 -0.1313 -0.3677
  705MOL0     C92974  -0.615  10.475   5.310 -0.6553 -0.1740 -0.4149
  705MOL0     O92975  -0.375  10.426   5.593 -0.1487 -0.2182 -0.9686
  705MOL0     C92976  -0.110  10.442   5.332 -0.3082  0.4151  0.5493
  705MOL0     C92977   0.031  10.426   5.323  0.1873 -0.2079  0.1571
  705MOL0     N92978   0.797  10.521   5.789  0.2118 -0.3610  0.4899
  705MOL0     N92979   0.907  10.565   5.845 -0.3533 -0.0471 -0.0856
  705MOL0     C92980   2.175  10.705   5.729 -0.6622  0.0990 -0.3234
  705MOL0     C92981   2.306  10.657   5.733 -0.3286 -0.2787 -0.3975
  705MOL0     C92982   2.686  10.480   5.826 -0.2631  0.1009 -0.5217
  705MOL0     C92983   2.693  10.338   5.817  0.4794 -0.0282  0.1034
  705MOL0     C92984   2.806  10.257   5.831  0.5733 -0.0750 -0.0536
  705MOL0     C92985   2.927  10.317   5.864  0.4701  0.3138 -0.3820
  705MOL0     O92986   3.052  10.257   5.882 -0.3988 -0.1886  0.3502
  705MOL0     C92987   3.053  10.120   5.856 -0.7979  0.2958  0.3978
  705MOL0     C92988   3.018  10.032   5.983 -0.0419  0.1886 -0.3202
  705MOL0     C92989   3.114  10.042   6.092 -0.4986  0.2301 -0.0187
  705MOL0     C92990   3.261  10.021   6.069 -0.7148  0.0543  0.0493
  705MOL0     C92991   3.279   9.877   6.037  0.0928 -0.3369  0.0959
  705MOL0     C92992   3.297   9.759   6.014  0.0786  0.3831 -0.7606
  705MOL0     C92993   2.929  10.457   5.869  1.1121  0.4493 -0.1043
  705MOL0     C92994   2.814  10.537   5.849 -0.2632 -0.6833  0.5460
  705MOL0     H92995   2.260  10.412   5.974 -1.0846  2.2957  1.8426
  705MOL0     H92996   2.027  10.498   5.954  0.1404  1.1128  2.1951
  705MOL0     H92997   1.902  10.771   5.629  0.1204  1.4769  0.3299
  705MOL0     H92998   1.978  10.899   5.725  0.0475  0.3358 -2.6225
  705MOL0     H92999   1.755  10.951   5.696 -1.3052  1.6332  2.0669
  705MOL0     H93000   1.757  10.901   5.865  1.8857  0.4503 -0.6720
  705MOL0     H93001   1.639  10.724   5.841  0.0111  1.3711  1.3179
  705MOL0     H93002   1.675  10.693   5.667 -2.4383  1.0879 -1.2585
  705MOL0     H93003   1.485  10.900   5.771 -0.6664  0.7123  0.6965
  705MOL0     H93004   1.536  10.884   5.597 -0.8815 -0.1925  0.6706
  705MOL0     H93005   1.467  10.632   5.634  2.0749  0.6079 -0.5292
  705MOL0     H93006   1.333  10.753   5.619  0.3706  0.8669  0.3915
  705MOL0     H93007   1.334  10.745   5.887 -3.3510 -0.2653 -1.1400
  705MOL0     H93008   1.433  10.596   5.851 -0.0581 -1.7203 -1.6544
  705MOL0     H93009   1.239  10.522   5.697 -3.5687 -2.1924  1.3583
  705MOL0     H93010   1.226  10.524   5.870 -1.2908 -0.9531 -0.7893
  705MOL0     H93011   1.103  10.763   5.698  0.2165  0.5605  0.9984
  705MOL0     H93012   1.101  10.748   5.866  1.6728  3.4674 -2.3547
  705MOL0     H93013   0.969  10.611   5.532  0.9524 -2.1047  0.2313
  705MOL0     H93014   0.733  10.408   5.503 -1.0125 -0.7222 -2.0037
  705MOL0     H93015   0.729  10.575   5.455 -1.6915 -0.6845 -0.2066
  705MOL0     H93016   0.534  10.608   5.607 -0.1526 -0.2724 -1.5165
  705MOL0     H93017   0.553  10.440   5.658  0.0100 -1.1670 -0.0383
  705MOL0     H93018   0.459  10.561   5.407  0.7483  1.9112  1.5930
  705MOL0     H93019   0.522  10.391   5.415  1.5186  0.6744  1.1362
  705MOL0     H93020   0.285  10.531   5.580  0.1726  2.0727 -2.8889
  705MOL0     H93021   0.332  10.362   5.594 -1.8093 -0.1503 -0.7234
  705MOL0     H93022   0.095  10.395   5.658  2.7724 -3.2803 -1.9072
  705MOL0     H93023  -0.145  10.409   5.666  2.0230 -0.4138  1.8255
  705MOL0     H93024  -0.466  10.677   5.531  0.5481 -1.2649 -0.4106
  705MOL0     H93025  -0.707  10.760   5.568  0.9099  0.4432 -0.0268
  705MOL0     H93026  -1.021  10.585   5.271  0.6138 -1.4192 -0.1780
  705MOL0     H93027  -0.924  10.720   5.228  0.5817 -1.4166  0.7818
  705MOL0     H93028  -1.132  10.814   5.212 -0.1629  1.6551  0.8720
  705MOL0     H93029  -1.053  10.888   5.344 -0.2096  0.8177 -1.1460
  705MOL0     H93030  -1.189  10.728   5.496  1.6555 -0.0931 -0.0823
  705MOL0     H93031  -1.276  10.674   5.350 -1.0659  1.4461 -1.0731
  705MOL0     H93032  -1.284  10.973   5.412 -2.3768  1.0789 -0.7628
  705MOL0     H93033  -1.353  10.871   5.289 -0.2964 -0.5169  0.1232
  705MOL0     H93034  -1.398  10.829   5.589 -2.4315  2.9493  1.3801
  705MOL0     H93035  -1.488  10.753   5.446  2.2442 -1.1523  0.3015
  705MOL0     H93036  -1.506  11.011   5.389 -0.2419 -0.2180  0.1651
  705MOL0     H93037  -1.473  11.026   5.560 -1.4733  0.6089  0.4295
  705MOL0     H93038  -1.716  10.877   5.431 -0.6932  2.2427 -0.8415
  705MOL0     H93039  -1.657  10.828   5.591  2.8347 -0.7203 -1.2406
  705MOL0     H93040  -1.737  11.104   5.503  0.3405  2.0644 -0.2046
  705MOL0     H93041  -1.680  11.061   5.671 -0.2189 -1.8856  0.8860
  705MOL0     H93042  -0.816  10.491   5.250  0.8892 -2.0256 -0.7424
  705MOL0     H93043  -0.591  10.400   5.234  1.4138 -2.2694  2.1194
  705MOL0     H93044  -0.166  10.447   5.240  0.5017 -2.1682 -0.1537
  705MOL0     H93045   0.075  10.415   5.224 -2.0405 -1.5040 -0.7672
  705MOL0     H93046   2.158  10.779   5.652  0.9152 -0.4373 -1.2363
  705MOL0     H93047   2.376  10.696   5.660 -0.2348 -0.0576 -0.1894
  705MOL0     H93048   2.608  10.272   5.803 -0.0065  0.9762 -1.9925
  705MOL0     H93049   2.795  10.149   5.825  1.5195 -0.1668 -0.4786
  705MOL0     H93050   3.153  10.095   5.821 -1.8152 -1.4345 -1.4729
  705MOL0     H93051   2.984  10.096   5.775 -0.7436  0.3960  0.3228
  705MOL0     H93052   2.924  10.063   6.029 -0.3166  0.0294 -0.7669
  705MOL0     H93053   3.011   9.925   5.961  1.6549 -0.6118  2.5149
  705MOL0     H93054   3.090   9.964   6.165  2.4017 -0.7318  0.0076
  705MOL0     H93055   3.107  10.139   6.141 -1.8749 -0.0338  0.3579
  705MOL0     H93056   3.291  10.087   5.988 -2.1677 -0.1050 -0.6466
  705MOL0     H93057   3.317  10.044   6.160 -0.3096  1.6945 -0.5817
  705MOL0     H93058   3.311   9.653   6.015 -1.6836  0.0813 -2.0609
  705MOL0     H93059   3.021  10.513   5.885  0.6991  0.5905  1.9568
  705MOL0     H93060   2.826  10.643   5.865 -1.6154 -0.7247  2.0593
  706MOL0     O93061   4.722   7.300  10.698 -0.3055 -0.1065  0.0342
  706MOL0     C93062   4.786   7.300  10.802 -0.2314  0.3778 -0.1323
  706MOL0     O93063   4.726   7.300  10.925  0.9303 -0.4310  0.1946
  706MOL0     C93064   4.589   7.261  10.927 -0.2505 -0.4542 -0.6695
  706MOL0     C93065   4.485   7.355  10.933 -0.0072  0.3254  0.6450
  706MOL0     C93066   4.350   7.316  10.955 -0.2495  0.4735 -0.3790
  706MOL0     C93067   4.318   7.183  10.968  0.2431  0.3910  1.4900
  706MOL0     O93068   4.183   7.162  10.987 -0.5385 -0.3978 -0.4410
  706MOL0     C93069   4.131   7.032  10.938  0.5962 -0.2402 -0.0262
  706MOL0     C93070   3.982   7.028  10.986 -0.1877  0.4397 -0.1624
  706MOL0     C93071   3.913   7.152  10.917  0.1362 -0.1900  0.6360
  706MOL0     C93072   3.777   7.183  10.992 -0.2045 -0.3174 -0.0043
  706MOL0     C93073   3.648   7.121  10.926 -0.2777 -0.4481 -0.0648
  706MOL0     C93074   3.526   7.210  10.947  0.7968  0.1757  0.5196
  706MOL0     C93075   3.467   7.229  11.088  0.7361 -0.0105 -0.0612
  706MOL0     C93076   3.377   7.352  11.093 -0.5770  0.0757  0.3879
  706MOL0     N93077   3.293   7.338  11.206  0.6298 -0.0701 -0.7828
  706MOL0     C93078   3.320   7.394  11.330 -0.1582 -0.4420 -0.3812
  706MOL0     C93079   3.210   7.368  11.406  0.1080 -0.2550  0.1435
  706MOL0     C93080   3.168   7.402  11.541 -0.7677 -0.1787  0.7293
  706MOL0     C93081   3.010   7.422  11.543  0.7235 -0.1140 -0.3987
  706MOL0     C93082   2.964   7.521  11.436  0.0984 -0.6376 -0.5537
  706MOL0     C93083   2.821   7.572  11.476  0.9128  0.2616 -0.5537
  706MOL0     O93084   2.746   7.633  11.371  0.5910  0.7952 -0.3195
  706MOL0     C93085   2.620   7.673  11.414 -0.2847  0.4320  0.6055
  706MOL0     C93086   2.557   7.645  11.537 -1.0119  0.4553 -0.0040
  706MOL0     C93087   2.431   7.686  11.569 -0.1387 -0.3752  0.6023
  706MOL0     C93088   2.347   7.744  11.472  0.0530  0.4943 -0.6626
  706MOL0     C93089   2.208   7.780  11.513 -0.0801 -1.0207 -0.5195
  706MOL0     O93090   2.135   7.864  11.421 -0.4497  0.1926  0.5389
  706MOL0     C93091   1.995   7.881  11.422 -0.5266 -0.2746  1.5048
  706MOL0     C93092   1.906   7.830  11.518 -0.1351  0.5436  0.0724
  706MOL0     C93093   1.768   7.851  11.510 -0.2623 -0.6199 -0.4786
  706MOL0     C93094   1.711   7.918  11.410  0.0940  0.9154  0.0561
  706MOL0     O93095   1.572   7.928  11.413 -0.1585  0.2020  0.0995
  706MOL0     C93096   1.511   8.028  11.332 -0.8820 -0.1686  0.2121
  706MOL0     C93097   1.364   8.055  11.366 -0.6992 -0.0669  0.4691
  706MOL0     C93098   1.292   8.134  11.257 -0.6638  0.4555 -0.2268
  706MOL0     C93099   1.157   8.183  11.310 -0.6154  0.2980 -1.0206
  706MOL0     C93100   1.096   8.296  11.230  0.3045 -0.7086 -0.1679
  706MOL0     C93101   0.941   8.317  11.254 -0.1530  0.9298  0.2939
  706MOL0     C93102   0.866   8.178  11.215  0.6710 -0.1717 -0.9969
  706MOL0     C93103   0.716   8.203  11.169 -0.5190 -0.2841 -0.8041
  706MOL0    Cl93104   0.613   8.266  11.302  0.7487 -0.0380  0.5196
  706MOL0     C93105   1.795   7.971  11.309  0.5122  0.1883  0.1508
  706MOL0     C93106   1.932   7.957  11.315  0.6261  0.1887 -0.6209
  706MOL0     O93107   2.170   7.733  11.621 -0.0962 -0.6919 -0.2569
  706MOL0     C93108   2.393   7.752  11.342  0.3768 -0.5349 -0.3379
  706MOL0     C93109   2.532   7.729  11.314  0.5309 -1.0965  0.3956
  706MOL0     N93110   3.133   7.282  11.333 -1.0220  0.7840 -0.0285
  706MOL0     N93111   3.185   7.265  11.216 -0.4592  0.1513 -0.0589
  706MOL0     C93112   4.419   7.089  10.969 -0.2304  0.6344  0.0374
  706MOL0     C93113   4.551   7.125  10.948 -0.4676 -1.4347  0.5173
  706MOL0     C93114   4.936   7.283  10.792  0.0509 -0.1335  0.2516
  706MOL0     C93115   5.004   7.291  10.675 -0.4453 -0.7242  0.3521
  706MOL0     C93116   5.145   7.291  10.672 -0.4696  0.3139  0.2083
  706MOL0     C93117   5.214   7.264  10.793  0.5311 -0.1048  0.2421
  706MOL0     O93118   5.351   7.264  10.780 -0.2279 -0.1213  0.5192
  706MOL0     C93119   5.432   7.184  10.881  0.6212 -0.3967  0.9492
  706MOL0     C93120   5.580   7.189  10.844  0.1961  0.0967  0.0557
  706MOL0     C93121   5.659   7.072  10.911  0.3648 -0.3735  0.3880
  706MOL0     C93122   5.808   7.073  10.883  0.3425  0.1477 -0.1309
  706MOL0     C93123   5.855   7.099  10.752 -0.3028 -0.4525  0.6839
  706MOL0     C93124   5.910   7.118  10.642 -0.6176  0.4069  0.0017
  706MOL0     C93125   5.152   7.257  10.912 -0.1611  0.9130 -0.0589
  706MOL0     C93126   5.006   7.269  10.916 -0.1506 -0.8730 -0.3851
  706MOL0     H93127   4.516   7.457  10.912  0.5052  0.0285 -0.1061
  706MOL0     H93128   4.272   7.391  10.947 -0.9044 -0.0393  0.9014
  706MOL0     H93129   4.193   6.950  10.976  2.6444  1.5706  0.7445
  706MOL0     H93130   4.130   7.028  10.829 -0.6763 -1.0540 -0.0095
  706MOL0     H93131   3.974   7.038  11.094 -3.6234  2.2830 -0.4633
  706MOL0     H93132   3.943   6.929  10.961  1.3688 -0.4186  0.6835
  706MOL0     H93133   3.913   7.153  10.808 -2.9354  1.2784  0.5341
  706MOL0     H93134   3.971   7.244  10.928 -0.4598  0.6473 -2.2823
  706MOL0     H93135   3.781   7.158  11.098  3.0875 -1.3081 -0.2533
  706MOL0     H93136   3.776   7.292  10.998  1.0676 -0.3388  1.2669
  706MOL0     H93137   3.628   7.029  10.983 -0.6628 -1.1337 -1.2855
  706MOL0     H93138   3.667   7.097  10.821  0.2294  1.2301 -0.3819
  706MOL0     H93139   3.453   7.155  10.887  2.7029 -0.9188 -0.8863
  706MOL0     H93140   3.532   7.308  10.898  0.2511 -0.3023 -0.5586
  706MOL0     H93141   3.415   7.137  11.117 -0.0395  1.0658  2.1801
  706MOL0     H93142   3.551   7.246  11.157  1.6229 -0.7157 -0.9368
  706MOL0     H93143   3.320   7.363  11.000 -2.1121  2.3514  1.5101
  706MOL0     H93144   3.432   7.444  11.114  0.1102 -0.3034  0.2612
  706MOL0     H93145   3.408   7.445  11.370 -1.6651  0.5202  1.9317
  706MOL0     H93146   3.217   7.495  11.573 -0.0149 -0.1751 -0.3622
  706MOL0     H93147   3.211   7.317  11.595 -1.7862 -1.1742  0.0156
  706MOL0     H93148   2.984   7.472  11.637 -0.0508  3.4956 -2.3096
  706MOL0     H93149   2.954   7.329  11.532  1.3092 -0.7243  1.4401
  706MOL0     H93150   3.033   7.605  11.421 -0.2648 -0.3591 -0.6783
  706MOL0     H93151   2.964   7.466  11.342 -0.3319 -0.8165 -0.4518
  706MOL0     H93152   2.837   7.644  11.556  2.5938 -2.3189  1.5741
  706MOL0     H93153   2.766   7.488  11.519  0.9160  1.4750  2.0123
  706MOL0     H93154   2.620   7.618  11.621  1.0841  0.7632 -1.4239
  706MOL0     H93155   2.389   7.678  11.669 -0.2199 -0.2139  0.5824
  706MOL0     H93156   1.951   7.768  11.595  0.5908 -0.7812 -1.3449
  706MOL0     H93157   1.705   7.813  11.589  0.6633 -2.0883 -0.3988
  706MOL0     H93158   1.524   8.002  11.226 -1.1005  0.7647 -0.0572
  706MOL0     H93159   1.578   8.114  11.344 -0.6844 -0.4687  1.3562
  706MOL0     H93160   1.367   8.128  11.447  1.6992  2.0492 -1.3547
  706MOL0     H93161   1.318   7.960  11.396  0.0352 -0.9100 -0.9425
  706MOL0     H93162   1.263   8.078  11.167 -2.1773  0.2059  0.3798
  706MOL0     H93163   1.352   8.220  11.229 -0.0791  0.7235  1.6909
  706MOL0     H93164   1.095   8.093  11.319 -0.3553  0.2121  0.1611
  706MOL0     H93165   1.165   8.232  11.408  0.2713  0.6816 -1.2771
  706MOL0     H93166   1.108   8.295  11.122 -1.1208 -1.3503 -0.3418
  706MOL0     H93167   1.137   8.392  11.263  1.2894 -0.9595 -0.6576
  706MOL0     H93168   0.909   8.394  11.183  1.3577  0.7455 -0.6494
  706MOL0     H93169   0.915   8.349  11.355 -1.8101  0.1834  0.1442
  706MOL0     H93170   0.921   8.127  11.135  2.1948 -1.2619  0.6454
  706MOL0     H93171   0.877   8.110  11.301 -1.0494 -0.0667 -0.6711
  706MOL0     H93172   0.669   8.108  11.142  2.0234 -2.3667  1.4686
  706MOL0     H93173   0.716   8.272  11.085  1.1514  2.5046  1.2880
  706MOL0     H93174   1.757   8.028  11.224  0.3935 -1.4838 -0.9686
  706MOL0     H93175   1.990   8.008  11.239  0.9701  0.8435  0.0658
  706MOL0     H93176   2.340   7.797  11.259 -0.2895 -1.7844 -0.6127
  706MOL0     H93177   2.561   7.746  11.211 -0.9964 -0.8416 -0.0241
  706MOL0     H93178   4.393   6.985  10.979  0.1337 -0.0964 -4.4174
  706MOL0     H93179   4.631   7.052  10.963 -0.3133 -1.4748 -0.4654
  706MOL0     H93180   4.959   7.312  10.578  4.0091 -1.0668 -2.0725
  706MOL0     H93181   5.204   7.318  10.584 -0.5725  1.5411  0.4917
  706MOL0     H93182   5.400   7.079  10.888  0.3203 -0.2660  1.6436
  706MOL0     H93183   5.415   7.226  10.981  0.6987 -2.8707  2.0899
  706MOL0     H93184   5.597   7.167  10.739  2.3848  1.5182  0.0542
  706MOL0     H93185   5.618   7.289  10.868  3.5805 -1.5452  2.2569
  706MOL0     H93186   5.624   6.981  10.863  2.2999  0.0055 -1.9444
  706MOL0     H93187   5.640   7.067  11.019  0.5632 -2.1866  0.3575
  706MOL0     H93188   5.844   7.151  10.951 -2.1403  0.0067  1.4549
  706MOL0     H93189   5.839   6.972  10.910 -2.3812 -0.5478  0.6662
  706MOL0     H93190   5.964   7.136  10.551  0.0657  0.3115  0.3789
  706MOL0     H93191   5.199   7.260  11.009 -0.9721 -1.4735  0.4694
  706MOL0     H93192   4.973   7.270  11.019  0.6681  0.1654 -0.1109
  707MOL0     O93193   1.706   6.144   0.389 -0.0871  0.5373 -0.1054
  707MOL0     C93194   1.770   6.036   0.393  0.0209  0.3029 -0.0716
  707MOL0     O93195   1.716   5.910   0.419 -0.2304  0.4903 -0.2820
  707MOL0     C93196   1.582   5.893   0.423  0.6496 -0.1609  0.7145
  707MOL0     C93197   1.515   5.823   0.315 -0.1234  0.0764 -0.1079
  707MOL0     C93198   1.373   5.829   0.305  0.0083  0.2121 -0.1742
  707MOL0     C93199   1.290   5.891   0.408 -0.3363 -0.1791 -0.5335
  707MOL0     O93200   1.151   5.899   0.413 -0.3951  0.4017 -0.0609
  707MOL0     C93201   1.067   5.802   0.341 -1.2312 -0.3106  0.4538
  707MOL0     C93202   0.922   5.848   0.370  0.7734 -0.1629  1.4831
  707MOL0     C93203   0.881   5.954   0.263 -0.1190  0.2258 -0.8033
  707MOL0     C93204   0.756   6.017   0.303 -0.2006  0.4983  0.5409
  707MOL0     C93205   0.688   6.082   0.184  0.2494 -0.0167 -0.2625
  707MOL0     C93206   0.537   6.091   0.210  0.0050 -0.0125 -0.3456
  707MOL0     C93207   0.476   6.199   0.139  0.4522 -0.7992 -0.1174
  707MOL0     C93208   0.477   6.187  -0.016 -0.5073  0.0021 -0.4689
  707MOL0     N93209   0.375   6.090  -0.054 -0.0540 -0.1588  0.3917
  707MOL0     C93210   0.255   6.126  -0.112  0.8772  0.3592  0.3554
  707MOL0     C93211   0.178   6.012  -0.121 -0.2195 -0.7228 -0.1313
  707MOL0     C93212   0.028   6.011  -0.160 -0.1442 -0.5888  0.4485
  707MOL0     C93213  -0.063   5.975  -0.041  0.2415  1.0381 -0.2738
  707MOL0     C93214  -0.105   6.091   0.041  0.0963  0.2379 -0.4387
  707MOL0     C93215  -0.189   6.191  -0.046 -0.2037  0.5490 -0.6011
  707MOL0     O93216  -0.269   6.269   0.043 -0.0442 -0.0203 -0.5594
  707MOL0     C93217  -0.385   6.214   0.105  0.0184  0.4095  0.6406
  707MOL0     C93218  -0.445   6.302   0.199 -0.0043  0.7551 -0.0496
  707MOL0     C93219  -0.556   6.270   0.274 -0.7628  0.1615 -0.1873
  707MOL0     C93220  -0.610   6.145   0.254 -0.5495 -0.0373  0.3188
  707MOL0     C93221  -0.723   6.102   0.342  0.2231  0.5105  0.4022
  707MOL0     O93222  -0.800   5.994   0.286  0.5608 -0.3318  0.4064
  707MOL0     C93223  -0.924   5.972   0.337 -0.0614  0.1733 -0.4398
  707MOL0     C93224  -1.017   6.067   0.379 -0.3898 -0.4936  0.1234
  707MOL0     C93225  -1.142   6.040   0.429 -0.2336  0.0645  0.7718
  707MOL0     C93226  -1.178   5.899   0.438 -0.0691  0.0808  0.2788
  707MOL0     O93227  -1.307   5.859   0.469  0.3208  0.2148  0.4918
  707MOL0     C93228  -1.381   5.929   0.564  0.4959 -0.3823  0.0082
  707MOL0     C93229  -1.506   6.003   0.507 -1.1368  0.0417  0.4516
  707MOL0     C93230  -1.613   6.055   0.614 -0.4778 -0.2313  0.1665
  707MOL0     C93231  -1.680   5.945   0.695 -0.7621  0.6898  0.1551
  707MOL0     C93232  -1.748   5.996   0.827 -0.7526  0.4630  0.5417
  707MOL0     C93233  -1.867   6.085   0.794  0.3503 -0.2693 -0.0598
  707MOL0     C93234  -1.948   6.116   0.917 -0.7473  0.1817 -0.0860
  707MOL0     C93235  -2.077   6.199   0.878  0.6361  1.0960  0.0629
  707MOL0    Cl93236  -2.023   6.361   0.845 -0.4042  0.0918  0.1448
  707MOL0     C93237  -1.094   5.802   0.379  0.3684 -0.0101 -0.1002
  707MOL0     C93238  -0.965   5.842   0.336 -0.5870  0.3849  0.2087
  707MOL0     O93239  -0.743   6.154   0.448 -0.6695 -0.1865 -0.1336
  707MOL0     C93240  -0.553   6.056   0.162  0.3815 -0.4736 -0.5498
  707MOL0     C93241  -0.444   6.088   0.082  0.5035  0.2037  0.1641
  707MOL0     N93242   0.264   5.910  -0.092  0.3903  0.1797  0.0918
  707MOL0     N93243   0.373   5.963  -0.050 -0.5099  0.3441 -0.0814
  707MOL0     C93244   1.361   5.953   0.507  0.3396 -0.4473 -1.0261
  707MOL0     C93245   1.496   5.952   0.514  0.1492 -0.2261  0.0125
  707MOL0     C93246   1.919   6.056   0.378  1.0342 -0.2610 -0.3925
  707MOL0     C93247   1.975   6.181   0.354 -0.2053  0.0933 -0.1148
  707MOL0     C93248   2.106   6.215   0.364  0.2051  0.0237 -0.5044
  707MOL0     C93249   2.200   6.115   0.396  0.1805  0.5620  0.0313
  707MOL0     O93250   2.329   6.161   0.406 -0.0088  1.0424  0.2495
  707MOL0     C93251   2.431   6.073   0.453 -0.3167 -0.4994  0.3728
  707MOL0     C93252   2.558   6.148   0.477 -0.4163  1.1382 -0.2679
  707MOL0     C93253   2.676   6.068   0.530 -0.7218  0.5271 -0.5739
  707MOL0     C93254   2.800   6.153   0.575  0.3016  0.0521  0.5304
  707MOL0     C93255   2.778   6.253   0.678  0.6126  0.5541 -0.1501
  707MOL0     C93256   2.745   6.320   0.777 -0.1246 -0.6135 -0.1685
  707MOL0     C93257   2.157   5.981   0.415  0.1299  0.2570  0.4635
  707MOL0     C93258   2.018   5.956   0.405 -0.3525 -0.1896  0.2209
  707MOL0     H93259   1.575   5.778   0.236  0.1121  1.8438 -0.9902
  707MOL0     H93260   1.340   5.782   0.213  0.0504  1.5721 -0.9039
  707MOL0     H93261   1.089   5.701   0.378  3.4459 -0.7043 -2.6339
  707MOL0     H93262   1.090   5.800   0.234 -0.9352 -2.0997  0.5125
  707MOL0     H93263   0.910   5.871   0.476 -1.3791  0.8125  1.0805
  707MOL0     H93264   0.855   5.765   0.345 -0.8339  1.4386  0.2585
  707MOL0     H93265   0.878   5.909   0.163 -0.8141 -1.8835  0.1033
  707MOL0     H93266   0.958   6.031   0.255 -0.8317  0.9999 -0.3108
  707MOL0     H93267   0.683   5.948   0.348 -1.3697  1.9737  1.0030
  707MOL0     H93268   0.780   6.100   0.371 -1.5361  0.2815  1.3187
  707MOL0     H93269   0.706   6.031   0.089  2.0414 -0.1282  0.0885
  707MOL0     H93270   0.739   6.177   0.169 -0.2926  0.3895  0.4258
  707MOL0     H93271   0.515   6.088   0.317 -3.3968 -2.5056 -0.9610
  707MOL0     H93272   0.496   5.995   0.178 -0.5309  0.2583 -0.4899
  707MOL0     H93273   0.372   6.218   0.167  0.2295  0.0846 -1.4813
  707MOL0     H93274   0.536   6.288   0.161 -2.4943  1.1376  0.6152
  707MOL0     H93275   0.577   6.167  -0.055 -0.2333  0.2685  0.0914
  707MOL0     H93276   0.448   6.279  -0.067  0.0370  0.2804 -0.2841
  707MOL0     H93277   0.215   6.227  -0.118 -0.6857 -0.1756  1.3641
  707MOL0     H93278   0.021   5.933  -0.236 -0.9143  0.4863 -0.6293
  707MOL0     H93279   0.005   6.109  -0.203 -0.2136  0.1259  2.0284
  707MOL0     H93280  -0.008   5.898   0.013 -2.3357  0.0549  1.1354
  707MOL0     H93281  -0.155   5.926  -0.076  0.0262 -0.2087  1.8543
  707MOL0     H93282  -0.162   6.063   0.130  0.6355  1.7723  0.4347
  707MOL0     H93283  -0.016   6.148   0.069  2.8228 -2.3055 -3.1985
  707MOL0     H93284  -0.263   6.134  -0.103 -0.4873 -0.5167  0.7757
  707MOL0     H93285  -0.127   6.259  -0.105  0.3272  2.9049  2.4161
  707MOL0     H93286  -0.399   6.400   0.208  0.9254  0.4237 -0.9493
  707MOL0     H93287  -0.602   6.338   0.345 -0.0377 -0.8783  1.3391
  707MOL0     H93288  -0.995   6.173   0.386 -1.3413 -0.3046  0.4230
  707MOL0     H93289  -1.215   6.110   0.470 -1.4402 -0.8141  0.1674
  707MOL0     H93290  -1.326   5.997   0.630  0.5664 -0.9973  0.5888
  707MOL0     H93291  -1.417   5.849   0.630 -1.1679  1.3934  1.3916
  707MOL0     H93292  -1.553   5.923   0.449  0.1218 -1.7214  1.7553
  707MOL0     H93293  -1.473   6.082   0.439 -0.5253 -2.0774 -1.8978
  707MOL0     H93294  -1.695   6.104   0.559  0.8620  1.8599 -0.0618
  707MOL0     H93295  -1.576   6.140   0.671 -2.3947  1.3277 -0.7774
  707MOL0     H93296  -1.756   5.891   0.638  0.7872 -0.5971 -0.7556
  707MOL0     H93297  -1.605   5.872   0.725 -1.4254  0.7371  2.1075
  707MOL0     H93298  -1.672   6.054   0.879 -2.0875  2.7852  0.0579
  707MOL0     H93299  -1.772   5.910   0.890 -0.3005  0.3943  0.6173
  707MOL0     H93300  -1.930   6.048   0.713  0.9478 -0.1964 -0.5659
  707MOL0     H93301  -1.820   6.175   0.754  1.0809  0.5231  2.3921
  707MOL0     H93302  -1.969   6.027   0.976  4.2533  0.1540  2.1080
  707MOL0     H93303  -1.880   6.179   0.975  1.5569 -0.3740 -2.0111
  707MOL0     H93304  -2.161   6.199   0.948  0.4081 -0.4553 -0.1587
  707MOL0     H93305  -2.104   6.146   0.786  1.6960 -1.3247  1.0442
  707MOL0     H93306  -1.137   5.707   0.348 -0.2624  0.6704 -1.3656
  707MOL0     H93307  -0.896   5.775   0.284 -2.3985 -0.9267 -0.6228
  707MOL0     H93308  -0.601   5.959   0.149  0.9948 -0.6849 -1.2774
  707MOL0     H93309  -0.412   6.020   0.003  0.7723 -1.5108  1.6946
  707MOL0     H93310   1.313   6.002   0.591 -1.5665  2.5451 -3.6194
  707MOL0     H93311   1.554   5.988   0.599 -0.0945 -2.1875  1.0539
  707MOL0     H93312   1.906   6.261   0.330 -1.5335 -0.6717  0.9890
  707MOL0     H93313   2.146   6.315   0.349 -0.3741  0.2457 -0.6150
  707MOL0     H93314   2.459   5.998   0.378  0.9524 -0.8404  1.1518
  707MOL0     H93315   2.390   6.026   0.543  2.0820  3.9291  4.2062
  707MOL0     H93316   2.584   6.188   0.379 -2.2679 -1.6638 -2.0544
  707MOL0     H93317   2.542   6.229   0.548  2.1143  1.2045  0.3397
  707MOL0     H93318   2.713   6.000   0.453  1.0040 -0.9615  1.4576
  707MOL0     H93319   2.645   6.004   0.612  0.5802 -0.2011 -0.6187
  707MOL0     H93320   2.879   6.087   0.613  1.2520  2.1208  2.3790
  707MOL0     H93321   2.830   6.206   0.484  1.9551  1.5263  1.8684
  707MOL0     H93322   2.729   6.367   0.872  2.4917  0.6627 -0.2614
  707MOL0     H93323   2.227   5.900   0.436 -1.1085 -1.5974 -2.0253
  707MOL0     H93324   2.004   5.849   0.412  0.1726 -0.3127 -0.4267
  708MOL0     O93325   7.133  10.909   9.313  0.1624 -0.2749 -0.0179
  708MOL0     C93326   7.109  10.812   9.252  0.5732  0.9423 -0.1039
  708MOL0     O93327   6.981  10.777   9.204  0.0673 -0.3398  0.9321
  708MOL0     C93328   6.881  10.873   9.215 -0.3237 -1.2813  0.7008
  708MOL0     C93329   6.763  10.835   9.274  0.3745 -0.5574 -0.4615
  708MOL0     C93330   6.657  10.928   9.282  0.3806 -0.3405  0.5021
  708MOL0     C93331   6.655  11.053   9.212  0.6406 -0.0396  0.1683
  708MOL0     O93332   6.535  11.125   9.205 -0.2815  0.1603  0.9467
  708MOL0     C93333   6.515  11.207   9.087 -0.0018 -0.1356 -0.6267
  708MOL0     C93334   6.364  11.236   9.087  0.0425 -0.0593 -0.1191
  708MOL0     C93335   6.287  11.104   9.057  0.2172 -0.6253 -0.0096
  708MOL0     C93336   6.164  11.159   8.982 -0.3849  0.2651 -0.7354
  708MOL0     C93337   6.085  11.048   8.914  0.8454  0.0016  0.3734
  708MOL0     C93338   5.961  11.107   8.843 -0.0875  0.1853 -0.7143
  708MOL0     C93339   5.884  11.005   8.760 -0.0179 -1.1831  0.0648
  708MOL0     C93340   5.752  11.069   8.731  0.8543 -0.6213  0.0294
  708MOL0     N93341   5.677  11.008   8.622  0.5345 -0.1676  0.4884
  708MOL0     C93342   5.707  11.023   8.494  0.1493 -0.5506  0.8351
  708MOL0     C93343   5.621  10.944   8.420  0.2941 -0.1636 -0.0756
  708MOL0     C93344   5.641  10.912   8.276 -0.6753  0.3612  0.0045
  708MOL0     C93345   5.501  10.910   8.212 -0.0849  0.2783  0.0707
  708MOL0     C93346   5.520  10.913   8.062 -0.3996  0.5210  0.4641
  708MOL0     C93347   5.385  10.883   7.994  0.0193 -0.0645 -0.0032
  708MOL0     O93348   5.286  10.972   8.043 -0.0358 -0.2380 -1.0718
  708MOL0     C93349   5.162  10.970   7.983  0.2556 -0.5452 -0.0352
  708MOL0     C93350   5.128  10.893   7.873 -0.7453  1.0268 -0.0427
  708MOL0     C93351   4.999  10.905   7.818 -0.1792  0.5123 -0.9262
  708MOL0     C93352   4.910  11.006   7.860 -0.6579  0.0941 -1.0916
  708MOL0     C93353   4.770  11.007   7.805 -1.1321  0.0862 -0.2414
  708MOL0     O93354   4.682  11.089   7.871 -0.4227 -0.3560  0.2406
  708MOL0     C93355   4.552  11.082   7.819  0.3503  0.2686 -0.4847
  708MOL0     C93356   4.517  11.170   7.718  0.4368 -0.0049  1.0561
  708MOL0     C93357   4.389  11.167   7.663  0.1737 -0.2549  0.3971
  708MOL0     C93358   4.298  11.070   7.707 -0.0683 -0.1430  0.4675
  708MOL0     O93359   4.173  11.055   7.654  0.3361  0.5170  0.8651
  708MOL0     C93360   4.110  11.166   7.590  0.0639 -0.3589 -0.1133
  708MOL0     C93361   3.986  11.110   7.517  0.2375  0.5361 -0.5925
  708MOL0     C93362   3.880  11.071   7.624 -0.1406  0.0278 -0.1886
  708MOL0     C93363   3.760  11.005   7.555 -0.4583  1.1152  0.0098
  708MOL0     C93364   3.694  11.094   7.454  0.3412 -0.4244 -0.0888
  708MOL0     C93365   3.546  11.061   7.448  0.1249  1.5145  0.5390
  708MOL0     C93366   3.473  11.140   7.556 -0.4876 -0.3240  0.1001
  708MOL0     C93367   3.324  11.106   7.552 -0.0641  0.0467 -0.1709
  708MOL0    Cl93368   3.244  11.217   7.675 -0.1195  0.1323  0.1163
  708MOL0     C93369   4.331  10.990   7.812  0.0553 -0.2164 -0.9160
  708MOL0     C93370   4.457  11.001   7.874  0.0824 -0.3410 -0.0048
  708MOL0     O93371   4.745  10.947   7.705  0.2808 -0.5417  0.6820
  708MOL0     C93372   4.950  11.086   7.974  0.3646 -0.6955 -0.5945
  708MOL0     C93373   5.073  11.065   8.025  0.2069  0.2378 -0.0519
  708MOL0     N93374   5.525  10.895   8.510 -0.0819  0.0441  0.0761
  708MOL0     N93375   5.555  10.947   8.630  0.6072 -0.3167  0.4847
  708MOL0     C93376   6.774  11.079   9.143  0.6486 -0.0460 -0.6316
  708MOL0     C93377   6.882  10.994   9.154  0.5947 -0.7042  0.2696
  708MOL0     C93378   7.218  10.705   9.243  0.8197 -0.3096 -0.7492
  708MOL0     C93379   7.352  10.742   9.254  0.3300  0.4096  0.7568
  708MOL0     C93380   7.453  10.650   9.248  0.1339  0.0672  0.1866
  708MOL0     C93381   7.423  10.513   9.225  0.1395 -0.2483 -0.6007
  708MOL0     O93382   7.529  10.424   9.232 -0.3320  0.0150  0.6012
  708MOL0     C93383   7.499  10.285   9.198 -1.0781 -0.1892  0.4130
  708MOL0     C93384   7.635  10.207   9.168  0.4757 -0.3217 -0.0320
  708MOL0     C93385   7.691  10.154   9.298 -0.2928 -0.2243  0.2786
  708MOL0     C93386   7.831  10.085   9.271  0.9965  0.0040 -0.1836
  708MOL0     C93387   7.882  10.012   9.380 -0.3439 -0.6902 -0.6146
  708MOL0     C93388   7.946   9.953   9.470  0.1772  0.1829  0.3401
  708MOL0     C93389   7.282  10.476   9.236 -0.2572  0.3491  0.5599
  708MOL0     C93390   7.181  10.566   9.240 -0.1812 -0.3586  0.1008
  708MOL0     H93391   6.749  10.734   9.311 -0.2910 -0.6250 -0.8731
  708MOL0     H93392   6.569  10.898   9.339 -0.2637  1.7158  0.6774
  708MOL0     H93393   6.543  11.156   8.994  0.5440 -0.8890 -0.0613
  708MOL0     H93394   6.578  11.296   9.095 -2.5568  1.7445 -0.4364
  708MOL0     H93395   6.348  11.315   9.013 -2.9118  1.6276  2.1048
  708MOL0     H93396   6.335  11.279   9.183  0.5532 -0.3299  0.1597
  708MOL0     H93397   6.267  11.058   9.154  3.5057  2.7058  2.5424
  708MOL0     H93398   6.345  11.027   9.006  0.8756  0.7465 -1.4005
  708MOL0     H93399   6.099  11.217   9.047  0.2500  0.8610 -0.6303
  708MOL0     H93400   6.201  11.229   8.906 -1.7165  4.3324  2.0726
  708MOL0     H93401   6.054  10.974   8.989 -1.8498 -0.5860 -1.1563
  708MOL0     H93402   6.154  10.999   8.844  1.2755 -0.9170  1.4078
  708MOL0     H93403   5.985  11.197   8.787 -1.3441  0.4647 -0.8311
  708MOL0     H93404   5.895  11.142   8.922  0.2725  1.2238 -0.8617
  708MOL0     H93405   5.938  10.982   8.667 -1.5183 -1.3747 -0.7916
  708MOL0     H93406   5.868  10.919   8.825  1.3242 -1.2548  0.3384
  708MOL0     H93407   5.773  11.172   8.702  1.7200 -1.0343 -0.9045
  708MOL0     H93408   5.682  11.075   8.815 -0.1681  1.6591 -0.9271
  708MOL0     H93409   5.797  11.069   8.453 -1.0884  1.7549  0.5437
  708MOL0     H93410   5.687  10.813   8.272  2.3596  1.6208  0.7299
  708MOL0     H93411   5.695  10.984   8.213 -0.0800  0.2685  0.3956
  708MOL0     H93412   5.444  10.997   8.246 -0.3955 -0.3665  1.2484
  708MOL0     H93413   5.450  10.820   8.247 -0.2095 -0.5242 -2.0363
  708MOL0     H93414   5.554  11.009   8.023 -0.1635  0.6413  0.9571
  708MOL0     H93415   5.598  10.842   8.033 -1.5670 -1.2577  1.4659
  708MOL0     H93416   5.342  10.783   8.000  2.5423 -1.2866 -0.9935
  708MOL0     H93417   5.401  10.908   7.888 -0.9540  0.2828 -0.0769
  708MOL0     H93418   5.193  10.815   7.835  0.8608  1.7883  1.0392
  708MOL0     H93419   4.979  10.844   7.731  0.7900  2.3355 -2.5078
  708MOL0     H93420   4.588  11.244   7.685  0.1150 -0.1786 -0.0631
  708MOL0     H93421   4.369  11.230   7.576 -1.4752 -0.5016  0.5513
  708MOL0     H93422   4.177  11.217   7.521 -2.9640  0.8803 -2.3255
  708MOL0     H93423   4.060  11.231   7.663 -0.4720 -2.0283  1.0819
  708MOL0     H93424   4.028  11.025   7.464  1.9417 -0.2332  1.8241
  708MOL0     H93425   3.944  11.187   7.451 -0.8070  0.0952 -0.4596
  708MOL0     H93426   3.851  11.149   7.694 -0.1850 -0.1796  0.0291
  708MOL0     H93427   3.918  10.986   7.682 -4.8355 -0.9217  1.9788
  708MOL0     H93428   3.786  10.909   7.511 -3.0289  0.5972 -0.5198
  708MOL0     H93429   3.692  10.989   7.639 -0.7037  0.3598 -0.3301
  708MOL0     H93430   3.742  11.086   7.356 -0.0398  1.9810 -0.5335
  708MOL0     H93431   3.711  11.201   7.468  0.8273  0.2895 -4.6084
  708MOL0     H93432   3.540  10.952   7.459  1.5700  1.6082  2.8375
  708MOL0     H93433   3.508  11.093   7.351 -2.7019 -1.1536  0.6032
  708MOL0     H93434   3.525  11.113   7.648 -0.7276 -0.3318  0.2332
  708MOL0     H93435   3.491  11.245   7.530 -0.1422 -0.3134  0.3738
  708MOL0     H93436   3.320  11.003   7.589 -1.3415  0.1022 -0.1120
  708MOL0     H93437   3.272  11.109   7.456 -1.1095  1.1361  0.3974
  708MOL0     H93438   4.258  10.918   7.846  0.0680 -0.5538 -1.5894
  708MOL0     H93439   4.481  10.933   7.956 -0.1961  1.0461  1.2695
  708MOL0     H93440   4.890  11.166   8.017  2.3903 -0.5452  2.2014
  708MOL0     H93441   5.107  11.131   8.105  1.6412 -2.1650  1.4666
  708MOL0     H93442   6.783  11.170   9.084 -1.0013  1.6305  1.5391
  708MOL0     H93443   6.966  11.049   9.111 -0.6132 -0.5058 -1.9775
  708MOL0     H93444   7.387  10.845   9.264  0.8634  0.1849  1.3001
  708MOL0     H93445   7.554  10.687   9.256  0.5320 -1.0228  0.3401
  708MOL0     H93446   7.432  10.273   9.112 -0.7442 -2.0668  0.3892
  708MOL0     H93447   7.451  10.239   9.285 -0.8197 -3.0657 -0.8629
  708MOL0     H93448   7.610  10.136   9.089  1.9270  1.3060 -2.0609
  708MOL0     H93449   7.709  10.270   9.118 -0.0720  1.6307  1.4735
  708MOL0     H93450   7.620  10.080   9.335  1.2783 -1.8102  0.2449
  708MOL0     H93451   7.696  10.235   9.371 -1.5200  0.7330 -0.6530
  708MOL0     H93452   7.806  10.016   9.189  3.1625  1.3005 -2.0648
  708MOL0     H93453   7.901  10.159   9.231 -2.9257  3.0688 -2.0508
  708MOL0     H93454   7.992   9.915   9.559 -0.8704  0.5312  1.0588
  708MOL0     H93455   7.257  10.371   9.239  1.8754 -0.3975 -2.6337
  708MOL0     H93456   7.077  10.539   9.232 -0.9184  1.5812  2.0238
  709MOL0     O93457   4.541   7.904   4.394 -0.4017  0.1010 -0.0447
  709MOL0     C93458   4.630   7.861   4.318 -0.4924 -0.2880 -0.5202
  709MOL0     O93459   4.612   7.799   4.196  0.1821  0.2881 -0.4687
  709MOL0     C93460   4.481   7.770   4.159 -0.0613  0.0704  0.1078
  709MOL0     C93461   4.375   7.865   4.152  0.6625 -0.4292  0.0771
  709MOL0     C93462   4.241   7.834   4.104 -0.8698  0.5970  1.3510
  709MOL0     C93463   4.211   7.708   4.058 -0.4630 -0.0232 -0.4471
  709MOL0     O93464   4.079   7.697   4.004  0.0299  0.4234  0.3747
  709MOL0     C93465   4.030   7.569   3.961 -0.0351 -0.3343  0.3403
  709MOL0     C93466   4.030   7.568   3.814 -0.6361 -0.0852 -0.4586
  709MOL0     C93467   3.939   7.451   3.761  0.0630  0.2264 -0.1585
  709MOL0     C93468   3.924   7.452   3.603 -0.1363 -0.6900 -0.4484
  709MOL0     C93469   4.055   7.464   3.535  0.6724 -0.1584 -0.2820
  709MOL0     C93470   4.031   7.481   3.385  0.3488  0.3028 -0.2264
  709MOL0     C93471   4.145   7.530   3.298 -0.0948 -0.0297  0.2075
  709MOL0     C93472   4.272   7.447   3.344 -0.4531  0.5755  0.7584
  709MOL0     N93473   4.377   7.444   3.237 -0.1713  0.2293  0.0492
  709MOL0     C93474   4.456   7.554   3.200  1.1190  0.4737  1.2114
  709MOL0     C93475   4.552   7.503   3.123 -0.4108 -0.0941  0.1899
  709MOL0     C93476   4.659   7.578   3.038  0.8068  0.1721  0.5269
  709MOL0     C93477   4.782   7.592   3.114  0.2815 -0.5364  0.4704
  709MOL0     C93478   4.911   7.627   3.039  0.0597 -0.3024  0.7036
  709MOL0     C93479   4.962   7.506   2.956 -0.0403  1.1165  0.8152
  709MOL0     O93480   5.106   7.510   2.952 -0.5044  0.0862  0.1240
  709MOL0     C93481   5.166   7.536   2.830  0.0100  0.4063  0.2444
  709MOL0     C93482   5.159   7.663   2.777 -0.2792  1.3819 -0.1612
  709MOL0     C93483   5.222   7.691   2.654 -0.0970 -0.0564  0.2359
  709MOL0     C93484   5.278   7.590   2.570 -0.3895  0.1714 -1.1981
  709MOL0     C93485   5.345   7.614   2.436  0.7388 -0.1044 -1.0770
  709MOL0     O93486   5.408   7.513   2.385 -0.0422 -0.7271  0.7387
  709MOL0     C93487   5.434   7.517   2.251  0.4873  0.2449 -0.5624
  709MOL0     C93488   5.333   7.496   2.163 -0.2535 -0.4302  0.2624
  709MOL0     C93489   5.361   7.492   2.023  1.0152 -0.4327  0.6485
  709MOL0     C93490   5.496   7.500   1.981 -1.1995 -0.2322  0.6785
  709MOL0     O93491   5.483   7.505   1.849  0.3782 -0.1544  0.5678
  709MOL0     C93492   5.594   7.557   1.774  0.0731 -0.9579 -0.0884
  709MOL0     C93493   5.568   7.563   1.623  0.3790 -0.0048 -0.5778
  709MOL0     C93494   5.434   7.622   1.589  0.7790 -0.4631  0.4972
  709MOL0     C93495   5.323   7.523   1.576  0.4616  1.4354 -1.1068
  709MOL0     C93496   5.322   7.452   1.438 -0.4415 -1.0131  0.0310
  709MOL0     C93497   5.248   7.318   1.435 -0.3585  0.1780 -0.3660
  709MOL0     C93498   5.090   7.309   1.440 -0.5991 -0.3769 -0.4797
  709MOL0     C93499   5.032   7.386   1.324 -0.4307  0.9204 -0.3045
  709MOL0    Cl93500   4.857   7.345   1.324  0.1378  0.3056  0.0448
  709MOL0     C93501   5.600   7.520   2.068 -0.4162 -0.1711  0.1612
  709MOL0     C93502   5.568   7.523   2.207  0.6542 -0.4149 -1.0224
  709MOL0     O93503   5.328   7.720   2.379  0.6309  0.7793  0.4279
  709MOL0     C93504   5.296   7.464   2.633  0.4329 -0.2283 -0.4852
  709MOL0     C93505   5.240   7.433   2.758  0.5905  0.5514 -0.1924
  709MOL0     N93506   4.520   7.371   3.095  0.2648  0.2741 -0.7842
  709MOL0     N93507   4.421   7.337   3.173 -0.2577 -0.1768  0.3694
  709MOL0     C93508   4.309   7.610   4.070  0.1366  0.8131 -0.2112
  709MOL0     C93509   4.442   7.637   4.118  0.1250 -0.8388  0.6263
  709MOL0     C93510   4.767   7.902   4.353 -0.3557  0.0797  0.0304
  709MOL0     C93511   4.874   7.891   4.260  0.1075  0.0489  0.3302
  709MOL0     C93512   5.008   7.921   4.303  0.7230  0.8900  0.0351
  709MOL0     C93513   5.034   7.950   4.436  0.5090  0.1064 -0.2460
  709MOL0     O93514   5.157   7.966   4.496 -0.7202  0.3275  0.6796
  709MOL0     C93515   5.280   7.928   4.422  0.7505  0.5228  0.6582
  709MOL0     C93516   5.284   7.780   4.402  0.8566 -0.1788 -0.2719
  709MOL0     C93517   5.409   7.752   4.311  0.5900 -0.2720 -0.0932
  709MOL0     C93518   5.546   7.775   4.376 -0.1176 -0.9670 -0.0595
  709MOL0     C93519   5.642   7.729   4.269  0.2613  0.0839 -0.2773
  709MOL0     C93520   5.715   7.680   4.181 -0.0766 -0.0058 -0.4171
  709MOL0     C93521   4.923   7.980   4.516 -0.1913  0.2044 -0.9532
  709MOL0     C93522   4.795   7.942   4.480 -0.2483  0.1105  0.3004
  709MOL0     H93523   4.385   7.972   4.168 -0.3729  0.2747 -3.2287
  709MOL0     H93524   4.171   7.916   4.093  2.5411  3.5838 -0.0804
  709MOL0     H93525   3.924   7.569   3.991 -0.4546 -3.0251 -0.9044
  709MOL0     H93526   4.070   7.473   3.993 -4.3476 -2.7667 -0.7257
  709MOL0     H93527   4.136   7.564   3.787 -1.1140  3.1548 -3.6668
  709MOL0     H93528   3.995   7.662   3.768 -1.1421 -0.9203 -1.8421
  709MOL0     H93529   3.842   7.452   3.812  0.3037 -1.1485  0.3532
  709MOL0     H93530   3.980   7.357   3.798 -0.1453  0.6484  1.2168
  709MOL0     H93531   3.861   7.370   3.568 -0.7367 -1.1527  1.6241
  709MOL0     H93532   3.866   7.541   3.576  0.0409 -0.5463 -0.3596
  709MOL0     H93533   4.127   7.385   3.559  1.4717  0.4311 -0.7355
  709MOL0     H93534   4.104   7.554   3.573 -1.1689  0.3850  0.9445
  709MOL0     H93535   3.952   7.554   3.362  0.6268  0.8359  0.4628
  709MOL0     H93536   3.987   7.389   3.345  1.9449  0.5532 -2.7205
  709MOL0     H93537   4.111   7.510   3.196  0.6548 -0.2300 -0.0078
  709MOL0     H93538   4.158   7.638   3.310  0.8623  0.0983 -1.7147
  709MOL0     H93539   4.253   7.340   3.360  2.6455 -1.0469 -4.1029
  709MOL0     H93540   4.314   7.489   3.436  0.3389 -0.5689  0.9379
  709MOL0     H93541   4.451   7.660   3.224  0.3097  0.1549  2.5389
  709MOL0     H93542   4.625   7.680   3.019 -0.0305 -0.3324 -0.7714
  709MOL0     H93543   4.684   7.524   2.947  2.4620  0.9627  0.4675
  709MOL0     H93544   4.796   7.506   3.179 -2.3345  1.6439  4.3324
  709MOL0     H93545   4.765   7.678   3.181 -0.5418  0.6078 -1.1354
  709MOL0     H93546   4.904   7.712   2.971  1.9163 -0.8481 -0.2486
  709MOL0     H93547   4.984   7.650   3.117  2.0716  0.2553 -1.2386
  709MOL0     H93548   4.921   7.507   2.854  0.8003  0.2600  0.4469
  709MOL0     H93549   4.922   7.419   3.010 -2.5078  2.7255  1.7345
  709MOL0     H93550   5.109   7.733   2.843 -0.0294  0.8345  0.6396
  709MOL0     H93551   5.215   7.795   2.624 -1.8659  0.7310  2.9428
  709MOL0     H93552   5.227   7.482   2.178 -0.3794 -3.5998 -2.4582
  709MOL0     H93553   5.270   7.481   1.965  1.0573  2.3100 -0.0566
  709MOL0     H93554   5.682   7.494   1.789 -0.4534 -1.3878  1.3432
  709MOL0     H93555   5.622   7.658   1.808  1.1971 -1.3069  0.0677
  709MOL0     H93556   5.578   7.461   1.587 -0.2488 -0.6822  1.0853
  709MOL0     H93557   5.644   7.630   1.581  0.5527  1.1554  1.4553
  709MOL0     H93558   5.439   7.665   1.488 -0.5695  0.1062  0.6426
  709MOL0     H93559   5.410   7.702   1.659  3.5116  3.1005 -2.2538
  709MOL0     H93560   5.323   7.453   1.661  0.0948  1.4229 -1.1147
  709MOL0     H93561   5.228   7.575   1.589 -0.2538 -0.2626  1.1397
  709MOL0     H93562   5.422   7.417   1.409 -0.4334  0.3117 -1.7364
  709MOL0     H93563   5.286   7.515   1.356  0.1376  0.0449  0.5719
  709MOL0     H93564   5.288   7.255   1.514 -0.1147 -0.8454 -1.2893
  709MOL0     H93565   5.281   7.260   1.348 -1.0943  1.7884 -1.7995
  709MOL0     H93566   5.048   7.209   1.430 -2.0201  0.3981 -3.1522
  709MOL0     H93567   5.058   7.358   1.533  3.0923  2.0299 -0.2714
  709MOL0     H93568   5.073   7.362   1.226 -2.3675  0.4865 -1.0452
  709MOL0     H93569   5.046   7.492   1.348  2.3031  0.4520  0.5753
  709MOL0     H93570   5.706   7.531   2.047 -0.4423  1.8824  0.8813
  709MOL0     H93571   5.644   7.518   2.283 -0.2535 -0.7058 -0.1171
  709MOL0     H93572   5.358   7.387   2.587  0.4214  0.8356 -2.3846
  709MOL0     H93573   5.256   7.330   2.788  2.5563  0.6321 -0.8171
  709MOL0     H93574   4.292   7.510   4.030  0.6517  0.8892 -0.6271
  709MOL0     H93575   4.522   7.564   4.108 -1.6406 -2.9286  0.8371
  709MOL0     H93576   4.855   7.848   4.163  0.9575  0.1649  0.1135
  709MOL0     H93577   5.089   7.916   4.232 -1.3167 -1.4450 -2.3472
  709MOL0     H93578   5.369   7.967   4.472  1.8080 -0.1168 -0.6660
  709MOL0     H93579   5.292   7.983   4.328  0.7245  1.2475  1.0744
  709MOL0     H93580   5.305   7.739   4.501  2.2408  1.3568  0.1243
  709MOL0     H93581   5.197   7.733   4.356  0.1549 -1.0779  1.8805
  709MOL0     H93582   5.389   7.816   4.225  1.2686  0.2558  0.1278
  709MOL0     H93583   5.407   7.645   4.288 -0.6582 -1.1316  3.4479
  709MOL0     H93584   5.551   7.883   4.393 -1.2313 -0.8620 -0.3264
  709MOL0     H93585   5.566   7.709   4.461 -0.2872  0.7163  1.3458
  709MOL0     H93586   5.761   7.623   4.103 -2.4624 -1.5097 -0.8353
  709MOL0     H93587   4.949   8.023   4.612 -0.3802 -0.1525 -0.7404
  709MOL0     H93588   4.708   7.945   4.545 -1.9155 -0.2887 -1.8054
  710MOL0     O93589  11.150   1.674  10.461 -0.3917 -0.3074  0.0478
  710MOL0     C93590  11.099   1.662  10.347 -0.2825  0.0930 -1.3188
  710MOL0     O93591  10.970   1.691  10.312  0.7480  0.2567  0.2654
  710MOL0     C93592  10.889   1.741  10.413 -0.1394 -0.5179 -0.3871
  710MOL0     C93593  10.819   1.648  10.490 -0.1306 -0.2421 -0.2534
  710MOL0     C93594  10.742   1.695  10.601 -0.2634  1.1315  0.7231
  710MOL0     C93595  10.713   1.825  10.629  0.4808  0.3515 -0.5916
  710MOL0     O93596  10.618   1.875  10.716 -0.1626 -0.2632  0.0422
  710MOL0     C93597  10.545   1.783  10.786 -0.2506  0.7434  0.8989
  710MOL0     C93598  10.462   1.861  10.899  0.5829 -0.0033 -0.5797
  710MOL0     C93599  10.358   1.960  10.847  0.0395  0.2543  0.0173
  710MOL0     C93600  10.296   2.012  10.972  0.2383 -0.3132  1.2452
  710MOL0     C93601  10.193   2.119  10.939  0.8177 -0.7429 -0.4601
  710MOL0     C93602  10.102   2.147  11.060  0.0540 -0.5951  0.3031
  710MOL0     C93603   9.992   2.244  11.013  0.6950 -0.6417  0.1097
  710MOL0     C93604   9.918   2.310  11.135  0.3273  0.5941 -0.1884
  710MOL0     N93605   9.783   2.251  11.165 -0.4639  0.3635 -0.0155
  710MOL0     C93606   9.742   2.199  11.285 -0.3737 -0.6135  0.2811
  710MOL0     C93607   9.612   2.178  11.272  1.0501 -0.2758  0.6431
  710MOL0     C93608   9.518   2.104  11.363  0.9716 -0.2646 -0.0358
  710MOL0     C93609   9.548   1.949  11.366 -0.5669 -0.1847  0.6217
  710MOL0     C93610   9.527   1.870  11.233 -0.2967  0.9050  0.4681
  710MOL0     C93611   9.654   1.875  11.153 -0.6579  0.7429 -0.3668
  710MOL0     O93612   9.654   1.789  11.040 -0.3947 -0.1977 -0.2026
  710MOL0     C93613   9.762   1.759  10.962 -0.5608  0.2254 -0.2135
  710MOL0     C93614   9.729   1.676  10.855 -0.6307  0.4692 -0.4333
  710MOL0     C93615   9.827   1.634  10.760 -0.1752  0.3414  0.4265
  710MOL0     C93616   9.960   1.654  10.781  0.1543 -0.2483  0.0995
  710MOL0     C93617  10.061   1.602  10.686  0.1436 -1.1143 -0.0441
  710MOL0     O93618  10.195   1.617  10.719  0.6137  0.0697  0.3488
  710MOL0     C93619  10.293   1.548  10.649  1.7436 -0.1384 -0.2873
  710MOL0     C93620  10.357   1.432  10.704 -0.2987  0.1459 -0.7063
  710MOL0     C93621  10.459   1.369  10.630  0.9320  0.3760  0.3717
  710MOL0     C93622  10.494   1.416  10.504  0.0170 -0.0429 -0.0199
  710MOL0     O93623  10.600   1.354  10.442 -0.3160  0.3795 -0.2575
  710MOL0     C93624  10.630   1.382  10.306  0.0137  0.4247 -0.5333
  710MOL0     C93625  10.756   1.304  10.270 -0.2096  1.3075 -0.0548
  710MOL0     C93626  10.816   1.332  10.130  0.6629  0.0688  0.3161
  710MOL0     C93627  10.958   1.269  10.144  0.3394 -0.6774  0.2667
  710MOL0     C93628  11.037   1.259  10.019  0.2894 -0.4579 -0.3291
  710MOL0     C93629  10.967   1.184   9.905  0.2844 -0.1246  0.4344
  710MOL0     C93630  11.072   1.178   9.791  0.4454 -0.4929  0.4347
  710MOL0     C93631  11.016   1.118   9.663 -0.0497  0.3888 -0.2807
  710MOL0    Cl93632  11.125   1.130   9.516 -0.0510  0.1531 -0.0706
  710MOL0     C93633  10.419   1.533  10.451 -0.0566  0.1930  0.5994
  710MOL0     C93634  10.323   1.596  10.524 -0.3395  0.3736  0.0395
  710MOL0     O93635  10.021   1.546  10.589  0.1375  0.6369  0.0550
  710MOL0     C93636   9.991   1.743  10.894 -0.2964 -0.0784 -0.2667
  710MOL0     C93637   9.903   1.798  10.983  0.0171  0.4738  0.1081
  710MOL0     N93638   9.568   2.228  11.150  0.5467  0.0930 -0.1130
  710MOL0     N93639   9.675   2.271  11.088  0.1616  0.0660 -0.3161
  710MOL0     C93640  10.777   1.917  10.552 -0.0399 -0.2480 -0.5091
  710MOL0     C93641  10.863   1.882  10.452  0.0154  0.5099  0.6618
  710MOL0     C93642  11.201   1.624  10.245  0.4000  0.2709  0.0611
  710MOL0     C93643  11.337   1.605  10.274  0.1549 -0.2475 -0.1232
  710MOL0     C93644  11.420   1.571  10.169 -0.4774 -0.2701 -0.5191
  710MOL0     C93645  11.370   1.556  10.035 -0.0478 -0.2505  0.0492
  710MOL0     O93646  11.447   1.513   9.923  0.2952 -0.0275  0.0231
  710MOL0     C93647  11.591   1.518   9.927  0.1059 -0.2817 -0.4339
  710MOL0     C93648  11.656   1.486   9.785  0.8598 -0.5319 -0.2179
  710MOL0     C93649  11.814   1.506   9.792 -0.3358  0.0357 -0.0501
  710MOL0     C93650  11.871   1.540   9.658 -0.0093  0.3046 -0.0635
  710MOL0     C93651  12.010   1.584   9.672  0.8418 -0.4554  0.0229
  710MOL0     C93652  12.125   1.611   9.664  0.7849  0.8469  0.3556
  710MOL0     C93653  11.240   1.563  10.011 -0.8279  0.1725 -0.2911
  710MOL0     C93654  11.159   1.595  10.117 -0.4901 -0.0336 -0.2454
  710MOL0     H93655  10.829   1.542  10.470  1.2912 -0.3214  0.7464
  710MOL0     H93656  10.694   1.616  10.658 -0.2501 -0.2758 -1.1383
  710MOL0     H93657  10.609   1.708  10.834 -1.6811 -0.9673  0.2547
  710MOL0     H93658  10.470   1.740  10.719  1.1559 -1.1877  0.4942
  710MOL0     H93659  10.533   1.917  10.961  0.5335 -1.8452  1.2555
  710MOL0     H93660  10.419   1.785  10.966 -0.3601  0.1499 -1.0006
  710MOL0     H93661  10.293   1.911  10.774 -0.1208  0.0325  0.3085
  710MOL0     H93662  10.393   2.052  10.798 -0.3816  2.8749  4.1572
  710MOL0     H93663  10.243   1.931  11.022  2.4980 -2.3092  0.5751
  710MOL0     H93664  10.364   2.042  11.052 -1.1665  0.9394  2.0185
  710MOL0     H93665  10.136   2.093  10.849  0.0924 -1.1174  0.0988
  710MOL0     H93666  10.248   2.210  10.911  0.5642 -0.7187 -0.9004
  710MOL0     H93667  10.165   2.196  11.135 -0.2558 -2.3006  1.7159
  710MOL0     H93668  10.045   2.060  11.091 -0.8836 -0.3666 -0.6916
  710MOL0     H93669  10.048   2.323  10.963  1.9841 -2.7908 -2.0934
  710MOL0     H93670   9.921   2.197  10.945 -0.9439 -0.4640  1.6430
  710MOL0     H93671   9.904   2.410  11.093  2.2153  0.7237 -0.5874
  710MOL0     H93672   9.989   2.318  11.218  1.5253 -1.6209 -0.9295
  710MOL0     H93673   9.795   2.161  11.372 -3.0749 -0.3694  2.1649
  710MOL0     H93674   9.415   2.112  11.328  1.6183 -1.6650 -2.5097
  710MOL0     H93675   9.519   2.153  11.461  0.9645  1.2211 -0.7366
  710MOL0     H93676   9.468   1.915  11.432 -1.3064  0.0916 -0.1115
  710MOL0     H93677   9.650   1.937  11.403 -0.9101 -0.3234  1.5614
  710MOL0     H93678   9.514   1.765  11.260  1.5521  0.4810 -0.1802
  710MOL0     H93679   9.448   1.916  11.173 -1.6190 -1.5565  0.2241
  710MOL0     H93680   9.733   1.837  11.219 -0.2735 -0.2018 -1.3377
  710MOL0     H93681   9.669   1.978  11.119 -2.4276  1.1776  0.0475
  710MOL0     H93682   9.632   1.634  10.834 -0.5300 -2.3062  3.5364
  710MOL0     H93683   9.801   1.574  10.673  0.3524  0.0493  0.4706
  710MOL0     H93684  10.325   1.382  10.795  1.2936 -3.4764 -1.9461
  710MOL0     H93685  10.509   1.278  10.662  2.3019  0.9848  0.0472
  710MOL0     H93686  10.656   1.487  10.292  2.1632  0.1336  0.7987
  710MOL0     H93687  10.552   1.343  10.241 -1.1150 -0.6609  1.3532
  710MOL0     H93688  10.736   1.197  10.282  1.6224  1.0179  0.6142
  710MOL0     H93689  10.834   1.347  10.333  1.0367  0.0717 -0.7069
  710MOL0     H93690  10.828   1.439  10.109 -0.2432 -0.3256 -2.4974
  710MOL0     H93691  10.754   1.280  10.057 -0.4986  4.3626 -2.1353
  710MOL0     H93692  11.017   1.338  10.206  1.3036  0.2253 -1.5648
  710MOL0     H93693  10.942   1.169  10.184 -2.7376 -0.8223 -1.1016
  710MOL0     H93694  11.135   1.216  10.043 -0.4728 -0.4585  3.2866
  710MOL0     H93695  11.037   1.364   9.988 -4.1630  0.0859  0.8703
  710MOL0     H93696  10.879   1.240   9.872 -0.1842 -0.4847  1.0475
  710MOL0     H93697  10.931   1.091   9.950 -1.2874  0.8063  1.2005
  710MOL0     H93698  11.107   1.280   9.772 -0.2329 -0.0767  1.3274
  710MOL0     H93699  11.157   1.121   9.830  0.5287  0.2919  1.4481
  710MOL0     H93700  10.931   1.181   9.633 -0.3083 -1.1036 -2.9578
  710MOL0     H93701  10.983   1.015   9.680 -0.6167  0.6978  0.6070
  710MOL0     H93702  10.436   1.566  10.349  0.2907 -0.3533  0.4747
  710MOL0     H93703  10.259   1.678  10.493 -0.3378  0.5375  0.4695
  710MOL0     H93704  10.094   1.775  10.904 -1.2268  2.2777  3.7858
  710MOL0     H93705   9.943   1.854  11.066  0.8351  1.1033 -0.6889
  710MOL0     H93706  10.753   2.021  10.571 -2.5213 -1.1166  1.6571
  710MOL0     H93707  10.908   1.967  10.400 -1.3874  1.5104  1.0218
  710MOL0     H93708  11.371   1.620  10.376 -0.5117  3.3397 -0.2924
  710MOL0     H93709  11.528   1.566  10.181 -0.2281  2.0736 -1.2750
  710MOL0     H93710  11.629   1.440   9.994 -3.4731 -1.6197  0.2966
  710MOL0     H93711  11.620   1.623   9.929 -0.1145  0.0472 -4.7457
  710MOL0     H93712  11.628   1.385   9.752 -2.5772 -0.6646  2.5030
  710MOL0     H93713  11.609   1.555   9.715 -2.3399 -0.1835  2.0561
  710MOL0     H93714  11.862   1.413   9.823  2.9762  1.8349  0.7191
  710MOL0     H93715  11.835   1.581   9.869  0.0152  0.0795 -0.1819
  710MOL0     H93716  11.869   1.454   9.590 -1.2941  0.1489  0.1493
  710MOL0     H93717  11.810   1.613   9.603  1.2777  0.4910 -1.3113
  710MOL0     H93718  12.229   1.633   9.676  1.5913 -1.8320 -0.8308
  710MOL0     H93719  11.198   1.532   9.916 -0.9912 -1.8363  0.3768
  710MOL0     H93720  11.055   1.579  10.093 -0.1947 -1.9944 -0.4221
  711MOL0     O93721   1.409  10.048  10.007  0.5273 -0.4409 -0.6226
  711MOL0     C93722   1.351  10.003  10.107  0.4314  0.3783  0.0340
  711MOL0     O93723   1.259   9.908  10.103  0.6016 -1.6435  0.2860
  711MOL0     C93724   1.207   9.861   9.983 -0.2015 -0.1546  0.1878
  711MOL0     C93725   1.091   9.917   9.940  0.1251 -0.2403  0.5025
  711MOL0     C93726   1.036   9.873   9.822 -0.0269 -0.6916 -0.2953
  711MOL0     C93727   1.102   9.785   9.741 -0.7641 -0.0713 -0.0995
  711MOL0     O93728   1.033   9.732   9.624 -0.0546 -0.9571 -0.3984
  711MOL0     C93729   1.057   9.600   9.576  0.0653 -0.1406 -0.2952
  711MOL0     C93730   0.960   9.567   9.461  0.2707 -0.1960  0.1416
  711MOL0     C93731   0.961   9.423   9.421 -0.5069 -0.1710  1.1134
  711MOL0     C93732   0.882   9.407   9.300  0.5452 -0.2746  0.4828
  711MOL0     C93733   0.837   9.264   9.283  0.6142 -0.5882  0.3183
  711MOL0     C93734   0.717   9.261   9.197  0.6598  0.0626  1.1796
  711MOL0     C93735   0.665   9.118   9.169 -0.5232 -0.4503 -0.1219
  711MOL0     C93736   0.617   9.027   9.293 -0.1356 -0.4463 -0.1878
  711MOL0     N93737   0.488   8.961   9.269  0.6886  0.0152 -0.5404
  711MOL0     C93738   0.445   8.908   9.146  0.2499  0.6504  0.7563
  711MOL0     C93739   0.338   8.825   9.182  0.1201 -0.2293  0.0753
  711MOL0     C93740   0.257   8.737   9.090  0.6997  0.2786 -0.2193
  711MOL0     C93741   0.101   8.769   9.090 -0.0550  0.4778  0.2092
  711MOL0     C93742   0.076   8.879   8.997 -0.0112  0.4779  0.6002
  711MOL0     C93743  -0.077   8.922   8.995 -0.1383  0.3672 -0.1697
  711MOL0     O93744  -0.093   9.013   8.884  0.3997 -0.1716 -0.0871
  711MOL0     C93745  -0.218   9.072   8.859 -0.0923 -0.2826  0.1904
  711MOL0     C93746  -0.222   9.123   8.735 -0.9555 -0.3855  0.3243
  711MOL0     C93747  -0.332   9.191   8.685 -0.7763  0.6404  0.4693
  711MOL0     C93748  -0.441   9.219   8.772 -0.4441  0.1790 -0.3392
  711MOL0     C93749  -0.544   9.300   8.718 -0.0451  1.0020 -0.2828
  711MOL0     O93750  -0.658   9.304   8.781  0.3768  0.1031 -0.5517
  711MOL0     C93751  -0.749   9.383   8.725 -0.3184 -0.6722 -0.2152
  711MOL0     C93752  -0.790   9.495   8.796 -0.6572 -0.2072 -0.6154
  711MOL0     C93753  -0.881   9.584   8.746  1.0210  0.4611  0.2546
  711MOL0     C93754  -0.949   9.553   8.626 -0.6711 -0.5221 -0.4655
  711MOL0     O93755  -1.037   9.637   8.557  0.4106 -0.3527 -0.0960
  711MOL0     C93756  -1.047   9.778   8.574 -0.4458 -0.7863 -0.2629
  711MOL0     C93757  -1.096   9.852   8.446 -0.7397  0.3690  0.1571
  711MOL0     C93758  -1.014   9.804   8.324  0.0878  0.2842  0.6373
  711MOL0     C93759  -1.069   9.869   8.190 -0.7141 -0.3556  0.3178
  711MOL0     C93760  -0.978   9.821   8.073  0.0693 -0.4684  0.4967
  711MOL0     C93761  -0.842   9.905   8.069  0.3663  0.1898  0.1518
  711MOL0     C93762  -0.740   9.875   7.960 -0.1575  0.1145 -0.7399
  711MOL0     C93763  -0.791   9.926   7.821 -0.3487  0.8584  0.7392
  711MOL0    Cl93764  -0.840  10.096   7.817 -0.1371 -0.0163  0.0494
  711MOL0     C93765  -0.908   9.442   8.556 -0.5038  1.1052  0.2541
  711MOL0     C93766  -0.806   9.353   8.599 -0.2103  0.0710  0.0278
  711MOL0     O93767  -0.520   9.342   8.606  0.7311  0.0329  0.3380
  711MOL0     C93768  -0.443   9.161   8.903  0.3742 -0.9679  0.2944
  711MOL0     C93769  -0.326   9.094   8.944 -0.1811 -0.3950 -0.2559
  711MOL0     N93770   0.311   8.849   9.316 -0.1097 -0.1730  0.2230
  711MOL0     N93771   0.396   8.934   9.366 -0.7408  1.0204 -0.3492
  711MOL0     C93772   1.216   9.726   9.784  0.2869  0.5747 -0.0008
  711MOL0     C93773   1.275   9.771   9.908 -1.2147  0.7503  0.5927
  711MOL0     C93774   1.412  10.048  10.241 -0.0660 -0.0322  0.8740
  711MOL0     C93775   1.518  10.138  10.234  0.4997  0.3287 -0.5434
  711MOL0     C93776   1.578  10.182  10.355 -0.6992 -0.3965  0.2975
  711MOL0     C93777   1.535  10.144  10.484  0.2188 -0.4020 -0.0147
  711MOL0     O93778   1.607  10.169  10.599  0.5295 -0.3263 -1.2385
  711MOL0     C93779   1.692  10.284  10.619  0.0371  0.9882  0.4670
  711MOL0     C93780   1.611  10.410  10.631 -0.9490 -1.1714 -0.6047
  711MOL0     C93781   1.699  10.534  10.632  0.1835  0.0814  0.1167
  711MOL0     C93782   1.628  10.664  10.672  0.4303  0.1839  0.1782
  711MOL0     C93783   1.536  10.693  10.567  0.1955  0.7533 -0.3270
  711MOL0     C93784   1.458  10.728  10.482 -0.1639  0.1162 -0.2341
  711MOL0     C93785   1.425  10.060  10.486 -0.8219  0.0589 -0.1102
  711MOL0     C93786   1.361  10.013  10.365 -0.1520  0.4079 -0.0253
  711MOL0     H93787   1.045   9.992  10.005 -2.1704 -0.9873 -0.1581
  711MOL0     H93788   0.936   9.905   9.795 -0.1063  1.9632  2.5834
  711MOL0     H93789   1.028   9.529   9.654 -3.4083  0.7513 -0.6140
  711MOL0     H93790   1.162   9.603   9.544  0.4484 -2.0484  0.6820
  711MOL0     H93791   0.983   9.628   9.374  0.6566 -0.8931 -0.2588
  711MOL0     H93792   0.864   9.604   9.500  0.4283  2.3568 -1.6589
  711MOL0     H93793   0.923   9.360   9.502 -2.8636  0.6797  0.7317
  711MOL0     H93794   1.061   9.392   9.389 -1.2185 -1.2178 -0.1805
  711MOL0     H93795   0.792   9.468   9.313 -0.3016 -1.6378  1.1981
  711MOL0     H93796   0.935   9.435   9.209  2.1011 -2.7960  0.5239
  711MOL0     H93797   0.808   9.226   9.381  0.9063 -0.7074  0.3580
  711MOL0     H93798   0.919   9.201   9.247  0.9118  0.3975 -0.7676
  711MOL0     H93799   0.750   9.313   9.107  3.8846 -1.4811  1.3329
  711MOL0     H93800   0.629   9.307   9.244 -1.0559 -0.3091 -1.4545
  711MOL0     H93801   0.585   9.124   9.095 -0.7505  1.0364  0.2083
  711MOL0     H93802   0.747   9.065   9.119  0.4174 -0.0595  0.9749
  711MOL0     H93803   0.616   9.085   9.386  1.8861 -0.4053 -0.1340
  711MOL0     H93804   0.697   8.954   9.306  1.2385  1.1272  0.7303
  711MOL0     H93805   0.494   8.925   9.051 -0.7025 -1.8904 -0.2793
  711MOL0     H93806   0.267   8.634   9.126 -0.4269  0.5611  1.0133
  711MOL0     H93807   0.305   8.746   8.992  0.3095  1.8743 -0.2974
  711MOL0     H93808   0.077   8.793   9.194  1.0996  0.3917  0.5061
  711MOL0     H93809   0.048   8.682   9.051  0.2719  0.4402 -0.1480
  711MOL0     H93810   0.123   8.970   9.035 -2.7592  1.9870  0.5859
  711MOL0     H93811   0.113   8.846   8.899 -1.2810 -1.1720  0.6294
  711MOL0     H93812  -0.113   8.966   9.089 -2.4870  2.9838 -2.0799
  711MOL0     H93813  -0.132   8.831   8.973  0.1451  0.5277 -1.6217
  711MOL0     H93814  -0.137   9.120   8.667  0.3291  1.4441  1.7253
  711MOL0     H93815  -0.321   9.231   8.585  1.2589 -0.5385  0.1590
  711MOL0     H93816  -0.735   9.513   8.887  1.8708 -0.3964 -2.0253
  711MOL0     H93817  -0.907   9.671   8.806  2.1517  2.4915 -2.0014
  711MOL0     H93818  -0.953   9.820   8.610 -0.2317 -0.6024 -1.0110
  711MOL0     H93819  -1.125   9.806   8.646 -1.8344 -0.6436 -1.7659
  711MOL0     H93820  -1.096   9.958   8.475  1.1289  0.0656  1.4536
  711MOL0     H93821  -1.201   9.826   8.431 -0.9977  1.6385 -0.3823
  711MOL0     H93822  -1.036   9.697   8.326 -1.3955  0.5160 -0.8353
  711MOL0     H93823  -0.908   9.813   8.349  0.2232 -0.9930  0.5620
  711MOL0     H93824  -1.173   9.840   8.175 -0.7755 -0.2499  0.5320
  711MOL0     H93825  -1.068   9.978   8.200  0.6305 -0.3387  0.2894
  711MOL0     H93826  -1.024   9.824   7.974  0.2823 -2.8861  0.2558
  711MOL0     H93827  -0.962   9.713   8.083  1.8396 -0.3991 -1.1196
  711MOL0     H93828  -0.789   9.881   8.162  2.8951  0.7186 -1.0643
  711MOL0     H93829  -0.864  10.012   8.080 -0.4082 -0.1916  2.9811
  711MOL0     H93830  -0.650   9.932   7.985 -1.5364  2.9605 -1.8240
  711MOL0     H93831  -0.711   9.770   7.944 -0.1875  0.2053 -1.4007
  711MOL0     H93832  -0.868   9.860   7.781  0.4471  0.0004  0.5936
  711MOL0     H93833  -0.703   9.908   7.758  0.4874 -1.4939  2.4567
  711MOL0     H93834  -0.940   9.407   8.459  1.6078  1.6001 -0.6826
  711MOL0     H93835  -0.779   9.257   8.557  2.4018  0.3950  0.8003
  711MOL0     H93836  -0.527   9.181   8.969 -1.1517 -2.0834 -1.2374
  711MOL0     H93837  -0.314   9.059   9.046  0.3917  1.5750  0.4043
  711MOL0     H93838   1.246   9.636   9.731 -1.7941 -0.3032  0.2309
  711MOL0     H93839   1.369   9.732   9.945 -2.0929 -2.3883 -0.2005
  711MOL0     H93840   1.547  10.179  10.137  0.4014  1.8614  0.0386
  711MOL0     H93841   1.656  10.259  10.351 -1.4170  0.4079  1.3389
  711MOL0     H93842   1.772  10.282  10.544 -1.1551  0.8705 -0.8528
  711MOL0     H93843   1.731  10.256  10.717 -0.9354  0.9611  0.8565
  711MOL0     H93844   1.546  10.403  10.543 -0.7521  1.5671 -1.0643
  711MOL0     H93845   1.545  10.408  10.718 -0.2749  2.2491  0.1617
  711MOL0     H93846   1.730  10.543  10.527 -0.5053 -0.6335 -0.1630
  711MOL0     H93847   1.786  10.533  10.698  1.1768 -0.9535 -1.1543
  711MOL0     H93848   1.577  10.647  10.767 -1.4045  2.0294 -0.3693
  711MOL0     H93849   1.706  10.740  10.679  0.4862  0.0698  0.8653
  711MOL0     H93850   1.393  10.754  10.400 -2.2755 -3.3644  0.1153
  711MOL0     H93851   1.379  10.018  10.575  1.9883  0.2559  1.5368
  711MOL0     H93852   1.278   9.943  10.372 -1.3855  1.8384  0.2830
  712MOL0     O93853  10.206  10.322   3.535  0.3898  0.3610 -0.0284
  712MOL0     C93854  10.265  10.219   3.564  0.7704  1.2334  0.8207
  712MOL0     O93855  10.215  10.099   3.598 -0.5234 -0.0407 -0.0686
  712MOL0     C93856  10.074  10.109   3.611  0.0322 -0.4593 -0.8475
  712MOL0     C93857  10.002  10.023   3.522 -0.4340 -0.1216  0.4691
  712MOL0     C93858   9.862  10.036   3.515 -0.4263  0.2893 -0.7135
  712MOL0     C93859   9.795  10.099   3.621  1.4353  0.8994 -0.4867
  712MOL0     O93860   9.652  10.108   3.634 -0.5072 -1.3409 -0.3536
  712MOL0     C93861   9.567  10.075   3.525 -0.1305  0.2512 -0.0496
  712MOL0     C93862   9.426  10.052   3.573  0.2695 -0.3346  0.2426
  712MOL0     C93863   9.341  10.054   3.443  0.4246 -0.6023 -0.4727
  712MOL0     C93864   9.208  10.014   3.492  0.6596  0.0115  0.5499
  712MOL0     C93865   9.097  10.049   3.379 -0.1376  0.1767 -0.9148
  712MOL0     C93866   8.961   9.979   3.391 -0.0051  0.1304 -0.3070
  712MOL0     C93867   8.853  10.036   3.293  0.0985 -0.1933  0.2071
  712MOL0     C93868   8.711   9.989   3.319  0.1417  0.0260 -0.4682
  712MOL0     N93869   8.615  10.014   3.212  0.0070  1.1035 -0.9371
  712MOL0     C93870   8.526  10.119   3.217 -0.0217 -0.3551  0.3211
  712MOL0     C93871   8.438  10.091   3.114 -0.3899  1.0422 -1.2195
  712MOL0     C93872   8.313  10.166   3.087  0.0221  0.3597 -0.1317
  712MOL0     C93873   8.185  10.116   3.172 -0.0863  0.3030 -0.3107
  712MOL0     C93874   8.106   9.995   3.108 -0.9337  0.3054 -0.0240
  712MOL0     C93875   7.963   9.969   3.166 -0.2409 -0.0567 -0.5648
  712MOL0     O93876   7.890  10.090   3.189 -0.6206  0.2186  0.4565
  712MOL0     C93877   7.752  10.083   3.174 -0.3447 -1.3385  0.5643
  712MOL0     C93878   7.679   9.971   3.177  0.1035  0.1548  0.3037
  712MOL0     C93879   7.535   9.965   3.159  0.5960 -0.5985 -0.7078
  712MOL0     C93880   7.470  10.085   3.136  0.5023  0.3251 -0.5942
  712MOL0     C93881   7.323  10.085   3.109  0.0663 -0.4495 -0.6280
  712MOL0     O93882   7.258   9.970   3.081  0.1182  0.5096 -1.0020
  712MOL0     C93883   7.118   9.964   3.090  0.6083  0.3099 -0.5994
  712MOL0     C93884   7.048   9.965   3.213 -0.8275  0.0094 -0.0388
  712MOL0     C93885   6.912   9.968   3.218  0.8078 -0.2716  0.4501
  712MOL0     C93886   6.836   9.959   3.096  0.3998 -0.1172 -0.6009
  712MOL0     O93887   6.711   9.974   3.120  0.2731  0.3337 -0.3027
  712MOL0     C93888   6.611  10.000   3.021  0.2746  0.2472 -0.1992
  712MOL0     C93889   6.475   9.940   3.071 -1.0287 -1.0881 -0.4719
  712MOL0     C93890   6.363   9.956   2.967 -0.5416  0.3838  0.0685
  712MOL0     C93891   6.229   9.889   3.000 -0.0743 -0.5372  0.1111
  712MOL0     C93892   6.165   9.948   3.127 -0.9489  0.1874 -0.0983
  712MOL0     C93893   6.012   9.900   3.142  0.3249  0.2980 -0.4383
  712MOL0     C93894   5.920   9.958   3.030 -0.5070 -0.2277  0.7929
  712MOL0     C93895   5.886   9.838   2.936 -0.0794 -1.2043 -0.6106
  712MOL0    Cl93896   5.817   9.926   2.793  0.1720 -0.5303 -0.0744
  712MOL0     C93897   6.905   9.955   2.981  0.2042  0.0437 -0.2582
  712MOL0     C93898   7.046   9.957   2.974 -0.5019  0.7552  0.6822
  712MOL0     O93899   7.276  10.200   3.113  0.0530 -0.3011  0.3753
  712MOL0     C93900   7.547  10.205   3.132  0.7291 -0.3320  0.3806
  712MOL0     C93901   7.682  10.207   3.164  0.2044  0.8450  0.7469
  712MOL0     N93902   8.480   9.985   3.042 -0.2917  0.7060 -0.5292
  712MOL0     N93903   8.595   9.941   3.102 -0.1723  0.1800  0.1114
  712MOL0     C93904   9.870  10.160   3.720  0.0030 -0.2343 -0.1134
  712MOL0     C93905  10.006  10.178   3.714  0.9774 -0.0999 -0.1355
  712MOL0     C93906  10.415  10.225   3.577  0.3142  0.6377 -0.0898
  712MOL0     C93907  10.478  10.350   3.555 -1.1767  0.2872 -0.4454
  712MOL0     C93908  10.620  10.363   3.570 -0.1456  0.2154 -0.3335
  712MOL0     C93909  10.695  10.247   3.607  0.1072  0.3817 -0.8968
  712MOL0     O93910  10.832  10.268   3.608 -0.4750  0.1008 -0.6096
  712MOL0     C93911  10.919  10.162   3.631 -0.6191  0.3455  0.2975
  712MOL0     C93912  11.043  10.221   3.698 -0.8389 -0.1072 -0.1465
  712MOL0     C93913  11.143  10.278   3.599 -0.8052 -0.0806 -0.6145
  712MOL0     C93914  11.253  10.348   3.680 -0.5716 -0.7481  0.3502
  712MOL0     C93915  11.349  10.402   3.582 -0.6714 -0.2133  0.1336
  712MOL0     C93916  11.433  10.424   3.497  0.0746 -0.5204  0.0229
  712MOL0     C93917  10.627  10.133   3.636 -0.6800  0.2759  0.6572
  712MOL0     C93918  10.488  10.120   3.628 -1.0936 -1.1084  0.1740
  712MOL0     H93919  10.067   9.971   3.453  0.6224  3.8270 -1.8374
  712MOL0     H93920   9.815   9.971   3.442  2.0056 -0.2657 -1.9129
  712MOL0     H93921   9.594   9.987   3.466  2.4820 -0.6562  2.3181
  712MOL0     H93922   9.566  10.158   3.453 -1.0563  1.3849  1.2108
  712MOL0     H93923   9.388  10.138   3.629 -0.7661 -0.0926 -0.8125
  712MOL0     H93924   9.419   9.955   3.624  2.2737 -2.0531 -2.4695
  712MOL0     H93925   9.370   9.986   3.363  0.3515  1.6085 -2.5028
  712MOL0     H93926   9.338  10.157   3.405 -1.9223 -1.0168 -1.5809
  712MOL0     H93927   9.217   9.906   3.509 -1.9658 -0.2929  0.4276
  712MOL0     H93928   9.186  10.066   3.586 -2.4038  0.6944 -0.4293
  712MOL0     H93929   9.144  10.039   3.281  0.0180  0.1461 -0.8366
  712MOL0     H93930   9.067  10.153   3.394  0.7665  0.0720  2.2857
  712MOL0     H93931   8.928   9.994   3.494  2.8738 -0.8351  0.8796
  712MOL0     H93932   8.975   9.872   3.371  1.0226  0.3371 -0.7896
  712MOL0     H93933   8.845  10.145   3.302  1.6751 -0.0934  0.6431
  712MOL0     H93934   8.890  10.016   3.192  0.4624  0.1705  0.2653
  712MOL0     H93935   8.670  10.034   3.409  0.6512 -2.7450  1.2803
  712MOL0     H93936   8.717   9.882   3.343 -1.4180  0.4364  1.9919
  712MOL0     H93937   8.512  10.195   3.293  1.2313  0.7513 -0.5171
  712MOL0     H93938   8.285  10.155   2.982 -1.7873  0.5245  0.3003
  712MOL0     H93939   8.340  10.271   3.104  1.4286 -0.4516  3.6575
  712MOL0     H93940   8.123  10.206   3.166  2.9727  2.5065 -2.3194
  712MOL0     H93941   8.212  10.087   3.274 -0.6676 -0.4918 -0.3736
  712MOL0     H93942   8.109  10.009   3.000  1.1883 -0.5437 -0.1296
  712MOL0     H93943   8.159   9.899   3.118 -1.9086 -0.2191  0.2086
  712MOL0     H93944   7.973   9.900   3.250 -1.4151 -0.2536 -0.5721
  712MOL0     H93945   7.918   9.911   3.084  1.3939 -1.6682 -0.3796
  712MOL0     H93946   7.725   9.875   3.195 -0.0946  0.1335  0.7261
  712MOL0     H93947   7.479   9.873   3.167 -2.3299  1.2035  1.5586
  712MOL0     H93948   7.115   9.961   3.299  1.5036 -1.7790 -1.7803
  712MOL0     H93949   6.859   9.968   3.313 -1.7933 -1.9694 -0.8922
  712MOL0     H93950   6.638   9.957   2.924  2.7708 -1.6104  1.1902
  712MOL0     H93951   6.602  10.109   3.021 -0.0181  0.2461  1.6575
  712MOL0     H93952   6.446   9.989   3.165 -1.6140  2.2566 -2.2341
  712MOL0     H93953   6.498   9.839   3.106 -0.3471 -0.8212 -0.1410
  712MOL0     H93954   6.405   9.904   2.880 -0.5286  1.9382 -0.8843
  712MOL0     H93955   6.347  10.056   2.927  0.3203  0.1906 -0.8072
  712MOL0     H93956   6.155   9.905   2.921 -1.4679  0.5897  1.5786
  712MOL0     H93957   6.224   9.782   3.023 -2.5600 -0.7138 -0.9120
  712MOL0     H93958   6.161  10.057   3.118  0.3471  0.3750  1.1401
  712MOL0     H93959   6.227   9.928   3.215 -0.9678  0.0309 -0.1210
  712MOL0     H93960   5.953   9.921   3.232 -2.1599  1.7396 -2.2709
  712MOL0     H93961   6.014   9.791   3.151 -2.3703  0.1196 -1.1075
  712MOL0     H93962   5.832  10.007   3.073 -1.1067 -0.2601 -0.3561
  712MOL0     H93963   5.972  10.037   2.975  0.2242 -0.6513  0.8644
  712MOL0     H93964   5.821   9.762   2.981  1.3910 -2.7021 -0.9106
  712MOL0     H93965   5.980   9.787   2.915 -0.5067 -2.0889 -0.4204
  712MOL0     H93966   6.866   9.945   2.880  1.2673 -2.3333 -0.4916
  712MOL0     H93967   7.091   9.938   2.877  1.7129 -0.6133  1.8952
  712MOL0     H93968   7.510  10.302   3.099  1.9229 -0.2966 -0.9976
  712MOL0     H93969   7.730  10.305   3.162 -1.3417  1.6318  0.0519
  712MOL0     H93970   9.814  10.229   3.783 -3.0060 -2.6570  0.1334
  712MOL0     H93971  10.053  10.241   3.789  0.3282 -1.1123  1.1718
  712MOL0     H93972  10.426  10.440   3.524 -0.9873  0.4785 -0.2097
  712MOL0     H93973  10.669  10.452   3.532 -0.4169  0.6182  0.2490
  712MOL0     H93974  10.949  10.117   3.536  0.8315  0.2435  0.7755
  712MOL0     H93975  10.883  10.072   3.681 -0.7969  0.0885 -0.2915
  712MOL0     H93976  11.012  10.299   3.768  2.2864 -1.0153  2.5043
  712MOL0     H93977  11.091  10.149   3.764  0.2277  0.9697  0.2838
  712MOL0     H93978  11.098  10.354   3.535 -0.0466  0.8764 -0.0280
  712MOL0     H93979  11.175  10.193   3.539 -2.0664 -3.0309  2.5150
  712MOL0     H93980  11.211  10.432   3.736 -3.0592  0.1910 -2.6591
  712MOL0     H93981  11.303  10.270   3.739 -1.0447  0.0136  1.7936
  712MOL0     H93982  11.510  10.445   3.426 -0.6201  2.7223  0.0868
  712MOL0     H93983  10.677  10.050   3.685 -0.5292  0.8611  1.5386
  712MOL0     H93984  10.444  10.021   3.642 -1.8051 -0.6872  0.9509
  713MOL0     O93985   0.280   7.194   7.505 -0.4050 -0.3381 -0.0467
  713MOL0     C93986   0.359   7.098   7.503  0.6442 -0.1969 -0.5318
  713MOL0     O93987   0.350   6.987   7.422  0.9687  0.1619  0.3363
  713MOL0     C93988   0.240   6.969   7.342 -0.8060  0.8645  0.3223
  713MOL0     C93989   0.191   7.075   7.257  0.7219 -0.0819  0.4494
  713MOL0     C93990   0.087   7.049   7.161 -0.2870  0.0516 -0.3915
  713MOL0     C93991   0.042   6.915   7.142  0.0604  0.6043  0.2930
  713MOL0     O93992  -0.057   6.878   7.053  0.1996  0.6944  0.8891
  713MOL0     C93993  -0.144   6.983   6.996 -0.5335  0.1177 -0.2151
  713MOL0     C93994  -0.269   6.928   6.922 -0.4845 -0.3408 -0.0530
  713MOL0     C93995  -0.214   6.849   6.808  0.1060 -0.2782 -0.1869
  713MOL0     C93996  -0.317   6.792   6.720 -0.5338  0.2809 -0.6983
  713MOL0     C93997  -0.416   6.878   6.644 -0.0866  0.3207 -0.2178
  713MOL0     C93998  -0.361   7.005   6.576  0.0286  0.1280 -0.2507
  713MOL0     C93999  -0.476   7.094   6.520 -0.7909  0.4405  0.3771
  713MOL0     C94000  -0.425   7.231   6.468 -0.4626  1.0243 -0.2748
  713MOL0     N94001  -0.534   7.317   6.423  0.0615  0.7593  0.0824
  713MOL0     C94002  -0.589   7.335   6.300  0.1799 -0.5979 -0.6060
  713MOL0     C94003  -0.701   7.410   6.308 -0.6517 -0.6729 -0.0805
  713MOL0     C94004  -0.791   7.471   6.192 -0.1022  0.0226  0.6014
  713MOL0     C94005  -0.865   7.600   6.219 -0.2241  0.3674 -0.9187
  713MOL0     C94006  -0.776   7.720   6.169 -0.0989 -0.3673  0.3102
  713MOL0     C94007  -0.647   7.718   6.254  0.7811  0.8979 -0.2626
  713MOL0     O94008  -0.538   7.636   6.196 -0.0553 -0.4078  0.3842
  713MOL0     C94009  -0.428   7.616   6.266 -0.5198 -0.0193 -0.6617
  713MOL0     C94010  -0.400   7.666   6.401  0.1040  1.1498  0.3736
  713MOL0     C94011  -0.286   7.626   6.470 -1.3008  0.4123  0.6915
  713MOL0     C94012  -0.185   7.536   6.409  0.5658  0.1357 -0.1871
  713MOL0     C94013  -0.071   7.485   6.481 -0.3408 -0.0761 -1.5745
  713MOL0     O94014  -0.060   7.528   6.608  0.1515  0.2780  0.0202
  713MOL0     C94015   0.037   7.479   6.698  0.5129  0.5322 -0.2649
  713MOL0     C94016   0.041   7.343   6.729  0.0327  0.3853 -0.0476
  713MOL0     C94017   0.142   7.299   6.808 -0.1505  0.1468 -0.1088
  713MOL0     C94018   0.235   7.380   6.864  0.4822 -0.2648  0.5434
  713MOL0     O94019   0.333   7.321   6.942 -0.5556  0.7445  0.1205
  713MOL0     C94020   0.433   7.394   7.015  0.2076 -1.0234 -0.1002
  713MOL0     C94021   0.511   7.304   7.107  0.0438 -0.2550 -0.3997
  713MOL0     C94022   0.606   7.379   7.208 -0.0236 -0.4962  0.3707
  713MOL0     C94023   0.672   7.286   7.314 -0.2028 -0.2178 -0.4162
  713MOL0     C94024   0.799   7.336   7.387  0.4037 -0.9770  0.2485
  713MOL0     C94025   0.774   7.442   7.495 -0.2660 -0.4438 -0.2657
  713MOL0     C94026   0.891   7.462   7.587 -0.4402  0.0357 -0.5246
  713MOL0     C94027   0.867   7.570   7.692 -0.6783  0.7304 -0.0570
  713MOL0    Cl94028   1.023   7.603   7.783 -0.1337 -0.3544  0.4342
  713MOL0     C94029   0.230   7.522   6.833 -0.0799 -0.2076 -0.2532
  713MOL0     C94030   0.135   7.570   6.748 -0.1654 -0.8288 -0.5990
  713MOL0     O94031   0.009   7.405   6.432 -0.1188 -0.0397 -0.2218
  713MOL0     C94032  -0.212   7.492   6.278 -0.2231 -0.2961  0.8559
  713MOL0     C94033  -0.328   7.534   6.210 -0.3587 -0.1488 -0.9459
  713MOL0     N94034  -0.714   7.441   6.442  0.1644  0.5806  0.2832
  713MOL0     N94035  -0.620   7.373   6.503  0.7798 -0.3593 -0.1632
  713MOL0     C94036   0.094   6.809   7.214 -0.4614  0.0150 -0.4455
  713MOL0     C94037   0.187   6.837   7.316 -1.0910  0.1665 -0.2956
  713MOL0     C94038   0.479   7.110   7.592  0.1799  0.1612 -0.1451
  713MOL0     C94039   0.490   7.210   7.693 -0.6139 -0.6374 -1.0610
  713MOL0     C94040   0.595   7.231   7.771 -0.4387  0.5868  0.0937
  713MOL0     C94041   0.696   7.138   7.768 -0.2022  0.7950  0.2173
  713MOL0     O94042   0.791   7.157   7.864  0.1272 -0.0918  0.1486
  713MOL0     C94043   0.859   7.033   7.908 -0.3356  0.6289  0.1650
  713MOL0     C94044   0.762   6.926   7.966 -0.0084 -1.0856  0.3060
  713MOL0     C94045   0.831   6.799   8.009 -0.7886  0.1784 -0.0115
  713MOL0     C94046   0.749   6.699   8.074  0.2289  0.6723  0.2127
  713MOL0     C94047   0.641   6.643   7.994  0.6971 -0.3870 -0.7762
  713MOL0     C94048   0.548   6.602   7.926 -0.1087  0.1009  0.1693
  713MOL0     C94049   0.693   7.030   7.681  0.0717  0.3072  0.1895
  713MOL0     C94050   0.578   7.014   7.590 -0.1637 -0.8565 -0.7541
  713MOL0     H94051   0.216   7.181   7.259 -2.3427  0.9083 -3.0614
  713MOL0     H94052   0.047   7.129   7.099 -0.5835  2.0926  2.2613
  713MOL0     H94053  -0.079   7.039   6.928  0.7024 -1.7550 -0.6457
  713MOL0     H94054  -0.180   7.048   7.076 -0.3647  0.3084 -0.2950
  713MOL0     H94055  -0.333   7.013   6.896  0.4069  0.0827 -0.9389
  713MOL0     H94056  -0.334   6.870   6.988 -0.6072 -2.8020 -2.1887
  713MOL0     H94057  -0.167   6.763   6.858  0.8745 -1.1636 -2.2960
  713MOL0     H94058  -0.144   6.903   6.744  1.4184 -0.3382  1.1294
  713MOL0     H94059  -0.262   6.735   6.645 -2.0343 -0.2943 -1.4139
  713MOL0     H94060  -0.378   6.723   6.778 -0.5539  1.8362  1.2159
  713MOL0     H94061  -0.485   6.912   6.722 -0.5835  0.1308 -0.5713
  713MOL0     H94062  -0.480   6.821   6.576  1.2651 -0.4032 -0.9227
  713MOL0     H94063  -0.293   6.974   6.497  1.3139 -0.0461  0.8853
  713MOL0     H94064  -0.303   7.064   6.647  1.1847 -1.0520 -0.1766
  713MOL0     H94065  -0.499   7.050   6.422  0.4131 -1.1881  0.7870
  713MOL0     H94066  -0.565   7.096   6.583 -2.4867 -1.3451 -1.7790
  713MOL0     H94067  -0.355   7.217   6.384  0.5143 -0.8814  0.8068
  713MOL0     H94068  -0.371   7.277   6.552 -2.4742 -0.8994  2.2028
  713MOL0     H94069  -0.544   7.302   6.207  0.8313 -3.7278  0.6844
  713MOL0     H94070  -0.858   7.390   6.162 -0.7507  1.3053 -1.6677
  713MOL0     H94071  -0.740   7.483   6.096  0.7534 -0.5250  0.9723
  713MOL0     H94072  -0.892   7.612   6.325  1.3892  2.2680 -0.6459
  713MOL0     H94073  -0.961   7.603   6.167 -1.9596  1.6547  2.0420
  713MOL0     H94074  -0.748   7.723   6.063 -0.2985  1.8737  0.2681
  713MOL0     H94075  -0.819   7.815   6.201 -2.9555 -1.8913  1.3807
  713MOL0     H94076  -0.688   7.688   6.351  1.6085  0.0372 -0.1638
  713MOL0     H94077  -0.613   7.822   6.263 -0.8896  1.3298  2.3847
  713MOL0     H94078  -0.471   7.728   6.454 -0.2156  0.3510  0.8926
  713MOL0     H94079  -0.268   7.661   6.571 -1.9180  0.8317  0.6591
  713MOL0     H94080  -0.039   7.286   6.682 -0.2187  1.4718 -0.9624
  713MOL0     H94081   0.159   7.192   6.822  2.6238  0.7845  2.3096
  713MOL0     H94082   0.376   7.470   7.071 -1.5856 -0.1811 -2.8806
  713MOL0     H94083   0.487   7.448   6.937  0.2770  0.6748  1.0551
  713MOL0     H94084   0.569   7.235   7.045 -0.7332 -0.6264 -0.7298
  713MOL0     H94085   0.445   7.240   7.167  0.0074  0.4422  0.3215
  713MOL0     H94086   0.545   7.454   7.259  0.3880  0.2941 -0.2912
  713MOL0     H94087   0.689   7.426   7.155 -0.1437 -0.2978  0.3600
  713MOL0     H94088   0.594   7.270   7.388  0.3600 -0.0944  0.2144
  713MOL0     H94089   0.702   7.188   7.275  0.2459 -0.3326  0.2052
  713MOL0     H94090   0.866   7.387   7.317 -1.1667  2.0641  0.7837
  713MOL0     H94091   0.843   7.251   7.440  1.7166 -0.7573 -0.4375
  713MOL0     H94092   0.684   7.409   7.549 -0.9085  0.9235 -0.4736
  713MOL0     H94093   0.744   7.536   7.449  1.2991 -0.1333 -0.7175
  713MOL0     H94094   0.913   7.365   7.633  0.8191 -0.0168 -1.2112
  713MOL0     H94095   0.979   7.483   7.526 -1.0023 -3.3919 -2.7501
  713MOL0     H94096   0.784   7.537   7.755  0.9444 -0.9039  1.3512
  713MOL0     H94097   0.844   7.659   7.633  0.9159 -1.3872 -4.3129
  713MOL0     H94098   0.306   7.585   6.878  1.3068 -2.4831  0.8058
  713MOL0     H94099   0.142   7.667   6.700  0.7456  0.0804  1.2813
  713MOL0     H94100  -0.137   7.427   6.235  0.5715  0.7848  0.5710
  713MOL0     H94101  -0.353   7.490   6.114 -0.4346 -0.9531 -0.5586
  713MOL0     H94102   0.067   6.708   7.186  0.1402 -0.7048  1.4128
  713MOL0     H94103   0.227   6.756   7.376 -1.1116  0.2532 -0.1631
  713MOL0     H94104   0.409   7.281   7.702  0.4233  0.4054  0.2647
  713MOL0     H94105   0.615   7.311   7.841  1.1686 -0.5291  0.9723
  713MOL0     H94106   0.928   7.052   7.991 -1.6078 -0.7454  1.6170
  713MOL0     H94107   0.912   6.992   7.822 -0.8487  1.3863 -0.5157
  713MOL0     H94108   0.711   6.971   8.051  1.2516 -0.4641  0.7710
  713MOL0     H94109   0.684   6.893   7.897 -0.5991 -2.4711  1.5967
  713MOL0     H94110   0.904   6.829   8.085  0.1596  0.2884 -0.9392
  713MOL0     H94111   0.891   6.738   7.940  1.9375  0.6135  1.7934
  713MOL0     H94112   0.812   6.618   8.111  1.0184  0.2381 -1.9295
  713MOL0     H94113   0.693   6.749   8.154 -0.4025 -1.1275  0.9634
  713MOL0     H94114   0.473   6.551   7.868  1.6647 -3.0545  0.4423
  713MOL0     H94115   0.764   6.948   7.688 -1.6938 -1.1394  2.3728
  713MOL0     H94116   0.568   6.932   7.519  0.3938 -1.1815 -0.4628
  714MOL0     O94117   0.996   5.352   2.055  0.1181 -0.0949 -0.0841
  714MOL0     C94118   0.995   5.279   2.156 -0.2845 -0.0389  0.5670
  714MOL0     O94119   0.890   5.191   2.188 -0.1401  0.0159  0.9386
  714MOL0     C94120   0.762   5.223   2.138 -0.2488  0.3249  0.4981
  714MOL0     C94121   0.677   5.113   2.126 -0.3645  0.4998 -0.1544
  714MOL0     C94122   0.539   5.127   2.089  0.0156  0.8653  0.3758
  714MOL0     C94123   0.496   5.261   2.063 -0.7522 -0.4376 -0.1355
  714MOL0     O94124   0.365   5.266   2.048  0.2026  0.2623 -0.0681
  714MOL0     C94125   0.294   5.381   1.979 -0.4710 -0.1356 -0.4870
  714MOL0     C94126   0.162   5.335   1.918 -0.5362  0.3560 -0.1800
  714MOL0     C94127   0.189   5.256   1.773 -0.4896 -0.4529 -0.4593
  714MOL0     C94128   0.057   5.208   1.715  0.0737 -0.2628 -0.6598
  714MOL0     C94129   0.076   5.106   1.594  0.5702  0.1298  0.2463
  714MOL0     C94130  -0.057   5.040   1.560 -0.1209 -0.8067 -0.0406
  714MOL0     C94131  -0.159   5.142   1.518  0.0904 -0.0604  0.6384
  714MOL0     C94132  -0.286   5.092   1.463  0.0263  0.2450  0.7552
  714MOL0     N94133  -0.348   5.000   1.567 -0.2317  0.4986 -0.9065
  714MOL0     C94134  -0.439   5.040   1.661  0.5815 -0.2272 -0.2845
  714MOL0     C94135  -0.477   4.920   1.715 -0.0791  0.1756 -0.3395
  714MOL0     C94136  -0.552   4.905   1.854  0.8752 -0.1787 -0.3540
  714MOL0     C94137  -0.687   4.839   1.840  0.7835  0.0115 -0.3911
  714MOL0     C94138  -0.665   4.688   1.808 -0.2307  0.7469  0.7076
  714MOL0     C94139  -0.793   4.620   1.773 -0.2253  0.4541  0.3238
  714MOL0     O94140  -0.858   4.563   1.892  0.2149 -0.0226  0.2657
  714MOL0     C94141  -0.984   4.517   1.875  0.3187 -0.0275  0.2270
  714MOL0     C94142  -1.038   4.453   1.987  0.5391 -0.5256  0.4285
  714MOL0     C94143  -1.174   4.419   1.998 -0.7303  0.7976  0.4332
  714MOL0     C94144  -1.263   4.418   1.886  0.2479 -0.4906 -0.1621
  714MOL0     C94145  -1.399   4.375   1.898  0.2703  0.2752 -0.1824
  714MOL0     O94146  -1.486   4.424   1.804 -0.1565 -0.2168 -0.1251
  714MOL0     C94147  -1.618   4.392   1.804 -0.2762  0.2101 -0.3722
  714MOL0     C94148  -1.659   4.318   1.694  0.8784  0.3817  0.3910
  714MOL0     C94149  -1.793   4.279   1.684 -0.1026  0.1572 -0.3908
  714MOL0     C94150  -1.881   4.298   1.794 -0.3433 -0.4399 -0.0901
  714MOL0     O94151  -2.014   4.277   1.803  0.0235  0.4873 -0.5647
  714MOL0     C94152  -2.048   4.145   1.770 -0.0469  0.0622  0.6552
  714MOL0     C94153  -2.195   4.106   1.788  0.0869  0.2972 -0.0610
  714MOL0     C94154  -2.223   3.966   1.734  0.0294 -0.0113 -0.0363
  714MOL0     C94155  -2.242   3.857   1.842  0.2705  0.0042  0.9611
  714MOL0     C94156  -2.264   3.715   1.785  0.3016  0.0589  0.2886
  714MOL0     C94157  -2.294   3.614   1.904 -0.2879  0.3855  0.0048
  714MOL0     C94158  -2.319   3.476   1.843 -0.2375  1.0524  0.1743
  714MOL0     C94159  -2.193   3.392   1.817 -0.1480  0.4250 -0.4604
  714MOL0    Cl94160  -2.214   3.233   1.716  0.4608 -0.4900  0.0096
  714MOL0     C94161  -1.839   4.373   1.898  0.3238 -0.5837 -0.1533
  714MOL0     C94162  -1.709   4.420   1.911 -0.0363 -0.6719  0.0499
  714MOL0     O94163  -1.419   4.297   1.986  0.1528 -0.5923  0.4080
  714MOL0     C94164  -1.205   4.468   1.766 -0.2286 -0.3228 -0.3710
  714MOL0     C94165  -1.069   4.521   1.763  0.4942 -0.6124  0.2448
  714MOL0     N94166  -0.422   4.816   1.643 -0.4280 -0.2328 -0.7935
  714MOL0     N94167  -0.335   4.863   1.564 -0.3430 -0.1158  0.2490
  714MOL0     C94168   0.581   5.370   2.081  0.0471 -0.4815 -0.6031
  714MOL0     C94169   0.716   5.354   2.113 -0.1505 -0.2844  0.3874
  714MOL0     C94170   1.106   5.269   2.255 -0.6468 -0.3963  0.5439
  714MOL0     C94171   1.084   5.244   2.393  0.1375 -0.5677 -0.0893
  714MOL0     C94172   1.189   5.221   2.479 -0.1068 -0.1423 -0.2147
  714MOL0     C94173   1.317   5.226   2.436  0.1120  0.1910 -0.2004
  714MOL0     O94174   1.419   5.184   2.511 -0.1691 -0.3170 -0.2259
  714MOL0     C94175   1.454   5.265   2.626 -0.3381 -0.0298  0.4881
  714MOL0     C94176   1.599   5.247   2.672 -0.4247 -0.0725 -0.2277
  714MOL0     C94177   1.697   5.298   2.569  0.3418 -0.3975 -0.6600
  714MOL0     C94178   1.836   5.283   2.627 -0.3250  0.2483 -0.5649
  714MOL0     C94179   1.933   5.361   2.552 -0.2569 -0.8145  0.4201
  714MOL0     C94180   2.021   5.400   2.473  0.8350  0.2608 -0.7761
  714MOL0     C94181   1.338   5.244   2.294  0.2833 -0.3443  0.7397
  714MOL0     C94182   1.240   5.268   2.205  0.7533  0.4008 -1.0044
  714MOL0     H94183   0.718   5.014   2.147  0.8114  0.4573 -2.3365
  714MOL0     H94184   0.480   5.037   2.075  0.3345  0.7366 -0.1735
  714MOL0     H94185   0.353   5.415   1.893 -0.0431  1.2142  0.3174
  714MOL0     H94186   0.285   5.471   2.040  3.0478 -0.3417  0.5566
  714MOL0     H94187   0.114   5.430   1.891  0.6407  1.1202  0.3285
  714MOL0     H94188   0.084   5.295   1.983 -1.3623  0.8974 -0.8096
  714MOL0     H94189   0.256   5.171   1.788  1.9556  1.0231 -2.3399
  714MOL0     H94190   0.255   5.318   1.712  1.0484 -1.7331 -0.1741
  714MOL0     H94191  -0.003   5.152   1.787 -1.9933  0.1594 -1.9565
  714MOL0     H94192   0.006   5.303   1.697  0.9378  1.3500  3.9451
  714MOL0     H94193   0.148   5.031   1.630 -0.3848 -0.8111  0.2321
  714MOL0     H94194   0.117   5.165   1.512 -2.4385  0.6032 -1.0410
  714MOL0     H94195  -0.099   4.985   1.645  0.5062  0.3224  1.0439
  714MOL0     H94196  -0.040   4.969   1.479 -1.5143  0.1435 -1.2207
  714MOL0     H94197  -0.177   5.197   1.611 -2.1570 -1.7252  1.2561
  714MOL0     H94198  -0.114   5.209   1.444 -0.3459  0.7186  1.0732
  714MOL0     H94199  -0.262   5.031   1.375 -0.4939 -0.2406  0.9382
  714MOL0     H94200  -0.362   5.168   1.443 -2.4650 -1.8980  1.4017
  714MOL0     H94201  -0.452   5.141   1.697  0.0933 -1.5987  4.0415
  714MOL0     H94202  -0.572   5.007   1.889 -1.8927 -0.9369  0.5033
  714MOL0     H94203  -0.497   4.851   1.931 -1.2862  0.3548  1.6595
  714MOL0     H94204  -0.734   4.871   1.746 -1.5332  0.0303  0.7234
  714MOL0     H94205  -0.756   4.848   1.924  2.1618 -1.6624  0.9869
  714MOL0     H94206  -0.591   4.664   1.732  0.0538 -1.2087  1.5469
  714MOL0     H94207  -0.628   4.656   1.906  1.6785  1.5766  0.2985
  714MOL0     H94208  -0.772   4.536   1.707 -3.9508  0.9364 -1.7102
  714MOL0     H94209  -0.853   4.692   1.718 -1.2265  1.4778  2.6325
  714MOL0     H94210  -0.982   4.446   2.079  1.0914 -2.1291 -0.0011
  714MOL0     H94211  -1.202   4.389   2.099  1.5589  1.7767  1.4324
  714MOL0     H94212  -1.595   4.308   1.606  3.5949 -0.3106  2.3273
  714MOL0     H94213  -1.830   4.221   1.600 -0.1249 -1.3303  0.6070
  714MOL0     H94214  -2.003   4.079   1.845 -2.0272 -0.8214  1.1239
  714MOL0     H94215  -2.024   4.110   1.669  0.2533 -0.7656  1.0010
  714MOL0     H94216  -2.260   4.176   1.735  0.9450  1.5320  0.4536
  714MOL0     H94217  -2.218   4.119   1.894  1.4673  1.6945  0.1044
  714MOL0     H94218  -2.155   3.933   1.655  0.1157  0.7311 -0.2842
  714MOL0     H94219  -2.319   3.982   1.683  1.4376 -0.4140 -2.9966
  714MOL0     H94220  -2.159   3.856   1.913  1.8387 -2.9824 -0.7307
  714MOL0     H94221  -2.333   3.888   1.894  0.8638  1.0826  1.3889
  714MOL0     H94222  -2.168   3.690   1.738  1.5647  0.8484  2.2999
  714MOL0     H94223  -2.346   3.716   1.712  0.9204  0.0504 -0.4239
  714MOL0     H94224  -2.382   3.643   1.961  0.0857 -0.6427  1.1381
  714MOL0     H94225  -2.214   3.599   1.978 -0.2010 -1.2277 -0.3891
  714MOL0     H94226  -2.377   3.422   1.918  0.2523  2.4521  1.6166
  714MOL0     H94227  -2.374   3.472   1.748  0.0899 -2.7131  0.0165
  714MOL0     H94228  -2.154   3.356   1.913 -1.3948  0.5881  0.1337
  714MOL0     H94229  -2.110   3.451   1.778  1.2080 -0.7203  0.6009
  714MOL0     H94230  -1.914   4.406   1.969  1.4331 -0.9017  1.1916
  714MOL0     H94231  -1.681   4.493   1.987 -3.5804  1.7506 -0.7365
  714MOL0     H94232  -1.270   4.472   1.679 -1.4306  1.1234  0.5662
  714MOL0     H94233  -1.021   4.561   1.674 -0.3122  2.1235  0.9694
  714MOL0     H94234   0.537   5.469   2.089 -3.1835 -1.9147  1.4833
  714MOL0     H94235   0.781   5.438   2.137 -0.2405 -0.5923  1.7894
  714MOL0     H94236   0.980   5.254   2.424  0.7360  0.7348  1.6346
  714MOL0     H94237   1.179   5.189   2.583  1.5218 -0.8410 -0.2422
  714MOL0     H94238   1.384   5.230   2.702  0.2991  2.0912  2.1353
  714MOL0     H94239   1.441   5.369   2.594  2.5933 -0.4866 -2.7656
  714MOL0     H94240   1.606   5.286   2.774  0.0559  1.9409 -0.9784
  714MOL0     H94241   1.613   5.139   2.678  0.9844  0.0769 -0.5720
  714MOL0     H94242   1.680   5.403   2.547  0.7782 -0.6415 -2.3672
  714MOL0     H94243   1.691   5.235   2.479  1.9594 -4.2205  1.6380
  714MOL0     H94244   1.847   5.305   2.734  1.1712  2.2563 -1.0545
  714MOL0     H94245   1.859   5.178   2.610 -1.3892 -0.5278  2.2781
  714MOL0     H94246   2.101   5.425   2.407  1.3269 -0.0837 -0.3214
  714MOL0     H94247   1.441   5.234   2.262  0.6260 -1.6219  2.1269
  714MOL0     H94248   1.269   5.279   2.101 -0.7150  0.7239 -1.4068
  715MOL0     O94249   1.087   6.463   2.775  0.4772 -0.0419  0.1891
  715MOL0     C94250   1.036   6.358   2.814  0.2011  0.3222 -0.5755
  715MOL0     O94251   1.089   6.263   2.906  0.7105 -0.2575  0.8858
  715MOL0     C94252   1.221   6.252   2.953  0.8648 -0.5066 -0.4882
  715MOL0     C94253   1.325   6.336   2.925  0.0560 -0.1769  0.1192
  715MOL0     C94254   1.446   6.322   2.992  0.5543 -0.3310 -0.3636
  715MOL0     C94255   1.455   6.242   3.108  0.5598 -0.8936  0.3652
  715MOL0     O94256   1.572   6.239   3.171 -0.7249 -0.2005  0.2698
  715MOL0     C94257   1.580   6.194   3.307 -0.4322  1.2234 -0.0939
  715MOL0     C94258   1.714   6.231   3.364  0.1990 -0.6891 -0.5383
  715MOL0     C94259   1.749   6.160   3.500  0.3138  0.1612 -0.2076
  715MOL0     C94260   1.658   6.201   3.620 -0.2857  0.4405 -1.2730
  715MOL0     C94261   1.672   6.117   3.746 -0.7792  0.5430  0.1088
  715MOL0     C94262   1.581   6.171   3.859 -0.1952  1.4209  0.1257
  715MOL0     C94263   1.625   6.110   3.993 -0.8551 -0.4656 -0.3396
  715MOL0     C94264   1.536   6.162   4.105  0.8693  0.5693  0.6179
  715MOL0     N94265   1.395   6.186   4.063  0.2845 -0.3967 -0.2020
  715MOL0     C94266   1.357   6.311   4.013 -0.4312  0.2148  0.1399
  715MOL0     C94267   1.222   6.286   3.997 -0.0816  0.1424 -0.1580
  715MOL0     C94268   1.136   6.395   3.951  0.3341 -1.1811 -0.0918
  715MOL0     C94269   1.010   6.337   3.889 -1.0434  0.1111 -0.8308
  715MOL0     C94270   0.933   6.454   3.829  0.3384 -0.0301 -0.2586
  715MOL0     C94271   0.797   6.401   3.768  0.2877  0.0420  0.5418
  715MOL0     O94272   0.727   6.489   3.675  0.6146 -0.6637  0.7871
  715MOL0     C94273   0.585   6.479   3.658 -0.3976  0.3983  0.9090
  715MOL0     C94274   0.521   6.570   3.578 -0.3050 -0.1430  0.3660
  715MOL0     C94275   0.384   6.574   3.568  0.0762  0.3049  0.0491
  715MOL0     C94276   0.303   6.480   3.631  0.0759  0.7980  0.3550
  715MOL0     C94277   0.158   6.472   3.615 -0.0231  0.3985  0.2922
  715MOL0     O94278   0.101   6.556   3.517  0.3551 -0.1697  0.2842
  715MOL0     C94279  -0.033   6.534   3.498 -0.2181  0.7884  0.0218
  715MOL0     C94280  -0.069   6.413   3.436  0.3195  0.4429 -0.8992
  715MOL0     C94281  -0.201   6.377   3.412  0.0137  0.6835  0.0105
  715MOL0     C94282  -0.302   6.447   3.479 -0.0339  0.4142 -0.4640
  715MOL0     O94283  -0.437   6.418   3.463 -0.9129  0.5812  0.0313
  715MOL0     C94284  -0.519   6.521   3.423 -0.0223  0.0949 -0.1197
  715MOL0     C94285  -0.641   6.474   3.350  0.1699 -0.0026  0.6850
  715MOL0     C94286  -0.615   6.385   3.225  0.7358 -0.1612  0.0877
  715MOL0     C94287  -0.730   6.399   3.122 -0.5149  0.1785 -0.0808
  715MOL0     C94288  -0.685   6.342   2.983  0.9562  0.9109  0.3483
  715MOL0     C94289  -0.800   6.357   2.890  0.2815  0.1911  0.4896
  715MOL0     C94290  -0.838   6.497   2.841  0.3924 -0.2076  1.0275
  715MOL0     C94291  -0.896   6.504   2.702 -0.2858  0.8100 -0.3246
  715MOL0    Cl94292  -0.942   6.677   2.657 -0.1546 -0.2438 -0.6110
  715MOL0     C94293  -0.274   6.566   3.552 -0.4838 -0.5109  0.3627
  715MOL0     C94294  -0.137   6.614   3.554  0.7287 -0.0287  0.1491
  715MOL0     O94295   0.098   6.394   3.681 -0.3851 -0.0091  0.1617
  715MOL0     C94296   0.366   6.381   3.710 -0.4465 -0.5557  0.1996
  715MOL0     C94297   0.506   6.379   3.717  0.3848  0.7593  0.2556
  715MOL0     N94298   1.190   6.149   4.024 -0.0153  0.3101  0.0592
  715MOL0     N94299   1.289   6.098   4.078 -0.3910  0.4577  0.0765
  715MOL0     C94300   1.350   6.147   3.130 -0.3520 -0.0012  0.4297
  715MOL0     C94301   1.232   6.157   3.056 -0.4975 -0.0479 -0.0012
  715MOL0     C94302   0.890   6.328   2.790 -0.5358  1.0865 -0.2644
  715MOL0     C94303   0.827   6.388   2.679 -0.1196 -1.1510 -0.1125
  715MOL0     C94304   0.694   6.370   2.661  0.2674 -0.6134  0.6329
  715MOL0     C94305   0.618   6.290   2.750  0.1663  0.4368 -0.2922
  715MOL0     O94306   0.484   6.265   2.731 -0.6951  0.5260  0.6212
  715MOL0     C94307   0.415   6.355   2.652 -0.9173  0.1361 -0.1326
  715MOL0     C94308   0.267   6.347   2.676 -0.3411  0.0952  0.2385
  715MOL0     C94309   0.208   6.217   2.651  0.2036  0.5297 -0.5896
  715MOL0     C94310   0.070   6.190   2.707  0.0969 -0.1265  0.7840
  715MOL0     C94311   0.008   6.066   2.645  0.3403  0.4208  0.2372
  715MOL0     C94312  -0.043   5.957   2.606  0.3816  0.3665  0.2125
  715MOL0     C94313   0.686   6.229   2.859 -0.4782  0.5641  0.4003
  715MOL0     C94314   0.819   6.253   2.877  0.1275 -0.5178 -0.1242
  715MOL0     H94315   1.320   6.406   2.842 -1.9653 -0.8338 -0.3632
  715MOL0     H94316   1.521   6.395   2.964  1.0517 -0.6305  0.1591
  715MOL0     H94317   1.562   6.086   3.312  2.7959  0.6395  1.0250
  715MOL0     H94318   1.508   6.246   3.371  1.5665  0.7700  2.7048
  715MOL0     H94319   1.737   6.335   3.391 -2.3360 -0.8142  2.7543
  715MOL0     H94320   1.793   6.210   3.291  0.8577 -2.8005  0.6966
  715MOL0     H94321   1.855   6.173   3.521  0.7144  0.1328 -2.0459
  715MOL0     H94322   1.730   6.053   3.484 -0.7556  0.1852  0.7847
  715MOL0     H94323   1.672   6.306   3.646 -6.8174  2.1362 -2.7428
  715MOL0     H94324   1.557   6.180   3.581  0.1785 -2.9096 -0.9977
  715MOL0     H94325   1.776   6.102   3.777 -0.6112 -4.0314 -1.8647
  715MOL0     H94326   1.648   6.012   3.725  2.5315 -0.5157  0.9995
  715MOL0     H94327   1.479   6.135   3.844  0.5093 -1.5657  1.5849
  715MOL0     H94328   1.594   6.279   3.860  1.5852  1.2793 -1.2156
  715MOL0     H94329   1.623   6.000   3.986  0.9933 -0.4622 -2.5739
  715MOL0     H94330   1.729   6.132   4.020 -1.6507  0.2163  2.5104
  715MOL0     H94331   1.567   6.259   4.146 -1.5274  0.6647  2.4110
  715MOL0     H94332   1.532   6.087   4.184 -1.8219  1.7849  1.7658
  715MOL0     H94333   1.404   6.408   4.002 -1.0294  0.2471 -2.9960
  715MOL0     H94334   1.185   6.462   3.880  1.6267  1.5035  3.0507
  715MOL0     H94335   1.121   6.457   4.040 -0.4521 -0.4142 -0.7384
  715MOL0     H94336   0.961   6.277   3.966 -2.3234  0.9080 -0.9823
  715MOL0     H94337   1.029   6.266   3.808 -2.9167 -1.0224 -0.3397
  715MOL0     H94338   0.915   6.540   3.895  2.2895  0.8161 -0.7331
  715MOL0     H94339   0.988   6.492   3.742 -2.3203  3.2358 -0.7253
  715MOL0     H94340   0.730   6.377   3.850 -2.6916  0.3143 -1.6534
  715MOL0     H94341   0.825   6.306   3.722  0.1281  0.7869 -1.1608
  715MOL0     H94342   0.579   6.654   3.540 -0.2608  0.7788  2.3664
  715MOL0     H94343   0.337   6.648   3.504  0.7245 -0.7303 -1.6984
  715MOL0     H94344   0.010   6.343   3.412  1.2751  1.1075  0.2402
  715MOL0     H94345  -0.218   6.289   3.352 -1.2202 -1.5236  3.3062
  715MOL0     H94346  -0.471   6.599   3.362 -1.6578  3.6595  2.7525
  715MOL0     H94347  -0.557   6.573   3.511 -0.8715  1.1537 -1.0746
  715MOL0     H94348  -0.699   6.562   3.320  1.0278  0.3672  0.0665
  715MOL0     H94349  -0.701   6.420   3.424  4.0019  0.5306  4.5973
  715MOL0     H94350  -0.588   6.282   3.248  2.8858 -0.2554 -2.3567
  715MOL0     H94351  -0.524   6.417   3.173 -0.0321  1.7136 -0.1817
  715MOL0     H94352  -0.812   6.336   3.158  1.1167 -2.4409 -0.7414
  715MOL0     H94353  -0.770   6.501   3.124  1.3196  0.9397  2.5764
  715MOL0     H94354  -0.677   6.233   2.993 -0.3064  0.8873  1.3737
  715MOL0     H94355  -0.598   6.399   2.950  0.1145  2.6080  0.9235
  715MOL0     H94356  -0.891   6.312   2.931 -0.3544  1.0001 -0.0108
  715MOL0     H94357  -0.757   6.306   2.803  1.1148  2.0269 -0.2093
  715MOL0     H94358  -0.918   6.531   2.908 -0.4718 -1.6886  0.7904
  715MOL0     H94359  -0.749   6.557   2.858  1.3983 -0.5709 -2.3097
  715MOL0     H94360  -0.983   6.439   2.688  1.3360 -0.9417 -3.2315
  715MOL0     H94361  -0.816   6.468   2.636 -1.1256 -0.4008 -0.7193
  715MOL0     H94362  -0.358   6.623   3.591  0.5458  1.7793 -0.5819
  715MOL0     H94363  -0.113   6.713   3.592  2.2351  0.5682 -2.1412
  715MOL0     H94364   0.308   6.305   3.762 -0.4861  1.0787  2.6483
  715MOL0     H94365   0.557   6.297   3.766  2.9398  1.9138 -0.3175
  715MOL0     H94366   1.363   6.072   3.207 -1.0322  0.0185  0.5648
  715MOL0     H94367   1.152   6.091   3.088 -0.9224 -0.1355 -1.1878
  715MOL0     H94368   0.870   6.440   2.594 -2.5307  0.5109 -0.4232
  715MOL0     H94369   0.654   6.421   2.574  1.5725  1.5334  1.2218
  715MOL0     H94370   0.447   6.338   2.549  0.1924 -1.4016  0.4328
  715MOL0     H94371   0.445   6.460   2.667 -0.9002  0.0016  0.8968
  715MOL0     H94372   0.246   6.381   2.778  0.2071  2.1923 -0.2999
  715MOL0     H94373   0.214   6.425   2.620  0.5628  0.1798 -0.5139
  715MOL0     H94374   0.276   6.144   2.696 -0.9833  0.7185  1.6526
  715MOL0     H94375   0.207   6.203   2.542 -1.2502 -0.2974 -0.4931
  715MOL0     H94376   0.070   6.189   2.816 -0.2589 -0.4153  0.7826
  715MOL0     H94377   0.002   6.268   2.672  1.6233  1.0724  0.3546
  715MOL0     H94378  -0.100   5.869   2.585 -0.9241  1.2647 -0.1075
  715MOL0     H94379   0.636   6.174   2.939 -0.5476 -1.2088 -0.8082
  715MOL0     H94380   0.861   6.219   2.971  0.2401  2.0459  0.8216
  716MOL0     O94381   8.570  10.273   9.465 -0.2284 -0.0000 -0.0416
  716MOL0     C94382   8.548  10.158   9.477 -0.7711  0.4420 -0.3139
  716MOL0     O94383   8.442  10.093   9.428 -0.4630  0.0140  0.0112
  716MOL0     C94384   8.370  10.141   9.325  0.8151  0.2889  0.4710
  716MOL0     C94385   8.248  10.075   9.300  0.0449  0.4817  0.9806
  716MOL0     C94386   8.174  10.106   9.183  0.1442 -0.4598 -0.0650
  716MOL0     C94387   8.215  10.214   9.099  0.6724 -0.3681  0.3353
  716MOL0     O94388   8.134  10.236   8.984 -0.3034  0.4849 -0.6675
  716MOL0     C94389   8.134  10.372   8.936 -0.3873  0.2058 -0.5115
  716MOL0     C94390   8.034  10.383   8.823  0.7800 -0.8818  0.2423
  716MOL0     C94391   7.886  10.360   8.867  1.3109  0.5293 -0.1848
  716MOL0     C94392   7.789  10.430   8.767 -0.4637 -0.0259 -0.1252
  716MOL0     C94393   7.655  10.443   8.837 -0.1425  0.6019 -0.0160
  716MOL0     C94394   7.544  10.456   8.743  0.5370 -0.6441 -0.1881
  716MOL0     C94395   7.436  10.532   8.818 -0.8345 -0.9102 -0.1109
  716MOL0     C94396   7.314  10.545   8.732 -0.3508  0.0099  0.5356
  716MOL0     N94397   7.203  10.614   8.785  0.1401 -0.7489 -0.5200
  716MOL0     C94398   7.153  10.740   8.746 -0.7787 -0.3886  0.0574
  716MOL0     C94399   7.046  10.760   8.830 -0.4201  0.5583  0.2228
  716MOL0     C94400   6.959  10.881   8.817 -0.8755 -0.1912 -0.2554
  716MOL0     C94401   6.864  10.877   8.696 -0.1409  0.0132 -0.0620
  716MOL0     C94402   6.732  10.940   8.735 -0.4867 -0.0897 -0.3346
  716MOL0     C94403   6.645  10.939   8.618  1.0339 -0.4178  0.6655
  716MOL0     O94404   6.508  10.970   8.665  0.0854  0.4301  0.0953
  716MOL0     C94405   6.418  10.998   8.561  0.6608 -0.6040  0.3445
  716MOL0     C94406   6.432  10.962   8.428  0.0777  0.5123  0.3691
  716MOL0     C94407   6.328  10.992   8.336  0.0477  0.8704  0.1339
  716MOL0     C94408   6.213  11.053   8.380  0.0208 -0.0801 -0.2623
  716MOL0     C94409   6.100  11.084   8.289 -0.2971 -0.1983  0.8252
  716MOL0     O94410   6.127  11.068   8.159 -0.1505 -0.4221 -0.1679
  716MOL0     C94411   6.026  11.066   8.065  0.2665 -0.3635  0.8522
  716MOL0     C94412   5.951  10.952   8.044 -0.4814  0.8014 -0.9745
  716MOL0     C94413   5.858  10.947   7.947 -0.1992  0.0063 -0.7884
  716MOL0     C94414   5.823  11.066   7.880 -0.2334 -0.7530  0.0162
  716MOL0     O94415   5.710  11.048   7.800  0.4954 -0.4433 -0.0583
  716MOL0     C94416   5.677  11.149   7.701 -0.1074 -0.2818 -0.1103
  716MOL0     C94417   5.547  11.219   7.733 -0.2882  0.5796 -0.0454
  716MOL0     C94418   5.439  11.212   7.618 -0.9682 -0.8929 -0.5806
  716MOL0     C94419   5.304  11.262   7.680 -0.4595  0.0710  1.7334
  716MOL0     C94420   5.195  11.294   7.575  0.5149 -0.7730 -0.3321
  716MOL0     C94421   5.059  11.330   7.641 -0.6613 -0.5417 -0.3764
  716MOL0     C94422   4.949  11.365   7.548  0.2036 -0.1251  0.4722
  716MOL0     C94423   4.823  11.414   7.630 -0.5277  0.3752 -0.9160
  716MOL0    Cl94424   4.687  11.433   7.519 -0.2466 -0.1727  0.3143
  716MOL0     C94425   5.889  11.186   7.908  0.1705  0.1226 -0.5192
  716MOL0     C94426   5.989  11.181   7.999 -0.2409  0.1735  1.1692
  716MOL0     O94427   5.984  11.107   8.332 -0.7658 -0.1865  0.0358
  716MOL0     C94428   6.191  11.081   8.524  0.3370  0.4149  0.3240
  716MOL0     C94429   6.299  11.052   8.605  0.4961 -0.1727 -0.1383
  716MOL0     N94430   7.024  10.636   8.909  0.1821 -0.0438  0.2613
  716MOL0     N94431   7.122  10.559   8.880  0.3318  0.2286  0.3121
  716MOL0     C94432   8.334  10.281   9.128 -0.2609  0.3576 -1.4068
  716MOL0     C94433   8.414  10.245   9.236  0.0818 -0.1885  0.1730
  716MOL0     C94434   8.660  10.079   9.527 -0.4018  1.3716  0.4831
  716MOL0     C94435   8.760  10.136   9.611  0.5461 -0.2287 -0.2915
  716MOL0     C94436   8.863  10.054   9.655 -0.4844  0.1226  0.7876
  716MOL0     C94437   8.886   9.924   9.610  0.1618  0.1013  0.3800
  716MOL0     O94438   8.990   9.838   9.654  0.6671 -0.4256 -0.3526
  716MOL0     C94439   9.116   9.898   9.633  1.2459  0.0940  0.1819
  716MOL0     C94440   9.220   9.805   9.600 -0.3742  0.9817  0.7211
  716MOL0     C94441   9.357   9.883   9.603 -0.0329  0.0887  0.3150
  716MOL0     C94442   9.475   9.813   9.532  0.6245 -0.5438 -0.5298
  716MOL0     C94443   9.605   9.882   9.542 -0.4807 -0.2707  0.8398
  716MOL0     C94444   9.712   9.933   9.571  0.8719 -0.4658  0.2402
  716MOL0     C94445   8.784   9.869   9.530 -0.6090 -0.9372  0.0813
  716MOL0     C94446   8.679   9.948   9.488  0.0710  0.4255  0.4574
  716MOL0     H94447   8.213   9.987   9.354 -4.1508 -0.9510 -3.4093
  716MOL0     H94448   8.075  10.066   9.164 -1.3703  2.3104  1.4369
  716MOL0     H94449   8.234  10.381   8.894 -1.2464 -0.5321 -2.9257
  716MOL0     H94450   8.122  10.432   9.027 -1.1588  1.4368 -1.4045
  716MOL0     H94451   8.058  10.323   8.735 -1.7370  0.1403 -1.2505
  716MOL0     H94452   8.045  10.483   8.779  0.8024 -0.2694  1.5814
  716MOL0     H94453   7.873  10.395   8.970 -0.6904 -2.0163  0.5470
  716MOL0     H94454   7.874  10.251   8.865 -1.0785  0.7536 -1.7241
  716MOL0     H94455   7.823  10.528   8.731  0.0904 -0.2232 -0.1458
  716MOL0     H94456   7.785  10.365   8.679  2.7754  0.4185 -0.7459
  716MOL0     H94457   7.660  10.524   8.910  0.3936  1.3285 -0.8323
  716MOL0     H94458   7.639  10.352   8.895 -0.9001  1.3046  0.8999
  716MOL0     H94459   7.515  10.361   8.698 -0.3704  0.5198 -2.1936
  716MOL0     H94460   7.566  10.522   8.658 -1.9111  1.3520  0.5928
  716MOL0     H94461   7.417  10.478   8.911  3.4473 -1.9736  0.3716
  716MOL0     H94462   7.471  10.632   8.846 -0.3902 -1.6015  2.0135
  716MOL0     H94463   7.288  10.444   8.699  0.2744 -0.7512  2.2721
  716MOL0     H94464   7.342  10.590   8.636 -1.8058 -0.2408 -0.0351
  716MOL0     H94465   7.199  10.802   8.670  1.5149 -0.8516  0.9842
  716MOL0     H94466   7.014  10.975   8.812  0.0151 -0.5884  1.2632
  716MOL0     H94467   6.897  10.886   8.907 -1.5835  1.2209 -0.7971
  716MOL0     H94468   6.839  10.777   8.661  0.8662  0.4421 -2.2416
  716MOL0     H94469   6.912  10.932   8.614  1.1681 -1.8072 -0.5702
  716MOL0     H94470   6.682  10.901   8.825 -2.4773  2.1434 -0.3729
  716MOL0     H94471   6.756  11.043   8.763  0.8149 -0.3886 -0.2850
  716MOL0     H94472   6.652  10.838   8.576 -1.1403 -0.7489  0.9951
  716MOL0     H94473   6.683  11.006   8.540 -2.0765  0.2769 -0.4251
  716MOL0     H94474   6.514  10.906   8.383 -0.0715  0.8557 -0.3548
  716MOL0     H94475   6.327  10.948   8.237 -1.9090 -0.5975  0.7444
  716MOL0     H94476   5.977  10.859   8.093  2.1453  1.8976 -0.1339
  716MOL0     H94477   5.800  10.856   7.935 -2.2624  1.0469  0.6750
  716MOL0     H94478   5.655  11.102   7.605 -1.9578  2.5144 -1.1901
  716MOL0     H94479   5.763  11.213   7.680  0.4578 -0.6467  1.0233
  716MOL0     H94480   5.570  11.322   7.762 -0.8896  0.2095  1.9006
  716MOL0     H94481   5.493  11.168   7.813 -3.1670 -1.3046 -2.9180
  716MOL0     H94482   5.416  11.109   7.587 -1.1158 -0.4417 -2.0209
  716MOL0     H94483   5.469  11.263   7.526 -1.7507 -0.2368 -0.4892
  716MOL0     H94484   5.260  11.186   7.747 -1.8389  2.0650  3.2142
  716MOL0     H94485   5.332  11.351   7.737  0.8196  0.7088  0.1461
  716MOL0     H94486   5.177  11.211   7.505  0.8083 -0.6917 -0.5037
  716MOL0     H94487   5.228  11.382   7.519 -1.1870 -1.4563 -2.5676
  716MOL0     H94488   5.079  11.416   7.706  2.6304 -0.5873 -1.1303
  716MOL0     H94489   5.034  11.241   7.699  1.7480 -0.3960  1.0371
  716MOL0     H94490   4.967  11.446   7.477  0.5173 -0.6202 -0.0142
  716MOL0     H94491   4.928  11.273   7.493  0.3539  0.7156 -1.0595
  716MOL0     H94492   4.839  11.506   7.687 -0.4282 -0.0506 -0.2334
  716MOL0     H94493   4.808  11.337   7.707  4.3009 -0.3048 -0.3732
  716MOL0     H94494   5.846  11.280   7.874  1.8179  1.1545  0.1164
  716MOL0     H94495   6.029  11.273   8.040  2.1374 -1.3245  2.4036
  716MOL0     H94496   6.099  11.121   8.564 -0.2600  0.1815 -0.7954
  716MOL0     H94497   6.292  11.081   8.709 -2.4171 -2.4001  0.4363
  716MOL0     H94498   8.373  10.368   9.077  1.8438  2.5772  3.3551
  716MOL0     H94499   8.505  10.301   9.254  2.1733 -3.5065  0.8651
  716MOL0     H94500   8.757  10.238   9.648  0.5197 -0.6964  1.0387
  716MOL0     H94501   8.929  10.093   9.732  0.6654  1.5505 -0.8432
  716MOL0     H94502   9.127   9.944   9.732 -1.7701 -0.0305  0.6632
  716MOL0     H94503   9.103   9.982   9.564  0.7669  2.2324  2.6936
  716MOL0     H94504   9.217   9.720   9.668  0.3303  2.6049  2.8860
  716MOL0     H94505   9.210   9.767   9.498  0.6447  2.0032  0.2267
  716MOL0     H94506   9.392   9.905   9.705  0.8295 -1.7430  0.4516
  716MOL0     H94507   9.340   9.974   9.545 -0.6685 -0.0384  0.3064
  716MOL0     H94508   9.494   9.716   9.579 -3.1257 -0.4349  1.5804
  716MOL0     H94509   9.445   9.799   9.427  0.5909  0.9211 -0.7419
  716MOL0     H94510   9.808   9.977   9.590  0.1643  2.3022 -1.8722
  716MOL0     H94511   8.791   9.763   9.509 -3.1488 -1.5080  1.6631
  716MOL0     H94512   8.607   9.905   9.420  0.7926  1.6966 -1.1794
  717MOL0     O94513   8.002   4.829   5.295 -0.3906  0.6203 -0.0502
  717MOL0     C94514   8.093   4.892   5.344 -0.2735  0.7104 -1.4557
  717MOL0     O94515   8.078   5.009   5.411  0.2973  0.3526 -0.2003
  717MOL0     C94516   7.951   5.074   5.418  0.5158  0.2253  1.0765
  717MOL0     C94517   7.923   5.191   5.350  0.1761 -0.6757  0.2820
  717MOL0     C94518   7.793   5.257   5.359 -0.6041  0.2152 -0.0763
  717MOL0     C94519   7.695   5.196   5.438  0.4247  0.4927  0.4427
  717MOL0     O94520   7.570   5.247   5.456  0.4910  0.1987 -0.6552
  717MOL0     C94521   7.529   5.373   5.404 -0.0768  0.5759 -0.1197
  717MOL0     C94522   7.378   5.395   5.441  0.2430  0.5874  0.0625
  717MOL0     C94523   7.329   5.527   5.405 -0.0293 -0.6905 -0.0471
  717MOL0     C94524   7.289   5.554   5.257 -0.3634  0.5538  0.7074
  717MOL0     C94525   7.267   5.697   5.211  0.8276 -0.5716 -0.1389
  717MOL0     C94526   7.168   5.775   5.301 -0.1673 -0.7612 -0.6482
  717MOL0     C94527   7.023   5.725   5.276 -0.1705 -0.9361 -0.1522
  717MOL0     C94528   6.931   5.801   5.374 -1.3932  0.9401 -0.0907
  717MOL0     N94529   6.794   5.789   5.328  0.8437 -0.2864 -0.6476
  717MOL0     C94530   6.689   5.876   5.350 -0.2510 -0.0390  0.1796
  717MOL0     C94531   6.581   5.822   5.289 -1.4587  0.4493  0.6072
  717MOL0     C94532   6.439   5.872   5.273 -0.0521  0.2351  0.2145
  717MOL0     C94533   6.392   5.960   5.390  0.0534 -0.1144 -0.7176
  717MOL0     C94534   6.267   6.043   5.351 -0.0993  0.4595  0.2363
  717MOL0     C94535   6.204   6.116   5.462  0.7622  0.0934  0.5711
  717MOL0     O94536   6.155   6.028   5.558 -0.1691  0.1394  0.3763
  717MOL0     C94537   6.042   6.061   5.630 -0.0067 -1.1761  0.3876
  717MOL0     C94538   5.975   5.954   5.689  0.1767 -0.2071 -0.3644
  717MOL0     C94539   5.865   5.976   5.768  0.0098  0.2012 -0.7389
  717MOL0     C94540   5.808   6.104   5.783 -0.1312  0.6221 -0.3674
  717MOL0     C94541   5.683   6.125   5.865 -0.6297  0.0780 -0.3738
  717MOL0     O94542   5.631   6.251   5.855  0.2930 -0.0640 -0.4764
  717MOL0     C94543   5.544   6.312   5.941 -0.1397 -0.1885 -0.4303
  717MOL0     C94544   5.516   6.445   5.903  0.1140  0.1421 -0.1088
  717MOL0     C94545   5.447   6.529   5.990 -0.5869 -0.5622 -0.8836
  717MOL0     C94546   5.387   6.468   6.110 -1.0324  0.8731 -0.9783
  717MOL0     O94547   5.319   6.544   6.202 -0.5233  0.4826  0.1711
  717MOL0     C94548   5.288   6.679   6.177  0.1419 -0.8998  0.4990
  717MOL0     C94549   5.192   6.711   6.288  0.2067  0.0263 -0.2799
  717MOL0     C94550   5.167   6.858   6.290 -0.0781 -0.3394  0.2821
  717MOL0     C94551   5.022   6.895   6.346 -0.5424 -0.7552 -0.0456
  717MOL0     C94552   5.008   7.048   6.370 -0.4143 -0.6816  0.4861
  717MOL0     C94553   5.094   7.089   6.496  0.8508 -0.8472 -0.2767
  717MOL0     C94554   5.053   7.234   6.533  0.0181  0.8539  0.5787
  717MOL0     C94555   5.060   7.267   6.680 -0.4024  0.0473  0.2143
  717MOL0    Cl94556   5.218   7.328   6.713 -0.6147  0.0108 -0.0695
  717MOL0     C94557   5.402   6.330   6.132 -0.0272  0.3080  0.3805
  717MOL0     C94558   5.499   6.258   6.063  0.3447 -0.4570  0.7115
  717MOL0     O94559   5.645   6.032   5.927  0.6049 -0.4446  0.6306
  717MOL0     C94560   5.877   6.215   5.726 -0.0029  0.6140 -0.5154
  717MOL0     C94561   5.998   6.193   5.654  0.0386 -0.1499 -0.4941
  717MOL0     N94562   6.621   5.704   5.236  0.5013  0.5928 -0.3317
  717MOL0     N94563   6.739   5.680   5.261 -0.3146  0.4811 -0.7200
  717MOL0     C94564   7.723   5.078   5.504  0.2905 -0.3387 -0.0719
  717MOL0     C94565   7.848   5.014   5.498 -0.0241  0.0757  0.5955
  717MOL0     C94566   8.224   4.831   5.345 -0.4509  0.2388 -0.2422
  717MOL0     C94567   8.337   4.905   5.360 -0.0491 -0.0467  0.5733
  717MOL0     C94568   8.461   4.841   5.346 -0.2307  0.0002  0.2727
  717MOL0     C94569   8.479   4.702   5.329  0.5306  0.0079 -0.4524
  717MOL0     O94570   8.596   4.634   5.311 -0.1496 -0.4590  0.7477
  717MOL0     C94571   8.722   4.702   5.315  0.5841  0.4061 -1.0011
  717MOL0     C94572   8.769   4.746   5.178  0.5308  0.4300  0.4112
  717MOL0     C94573   8.820   4.617   5.106  0.4653 -0.1967 -0.2350
  717MOL0     C94574   8.968   4.571   5.130  0.7285  0.0322 -0.1783
  717MOL0     C94575   9.069   4.666   5.074  0.4487 -0.5510  0.4851
  717MOL0     C94576   9.154   4.746   5.036  0.6923 -0.3003  0.0876
  717MOL0     C94577   8.362   4.622   5.327  0.9283 -1.6882 -0.2118
  717MOL0     C94578   8.235   4.689   5.331 -0.1698 -0.3972  0.7594
  717MOL0     H94579   8.005   5.235   5.293 -0.7555  1.5314  0.5319
  717MOL0     H94580   7.785   5.356   5.314  1.9093  0.7072  0.4299
  717MOL0     H94581   7.544   5.368   5.296 -1.0061 -0.5218 -0.2177
  717MOL0     H94582   7.598   5.452   5.434  2.3240 -1.4958  0.1928
  717MOL0     H94583   7.367   5.375   5.548  0.2151 -0.4230 -0.1114
  717MOL0     H94584   7.320   5.317   5.392 -0.1368  0.9319 -0.0344
  717MOL0     H94585   7.400   5.603   5.439  0.8910 -0.6726 -1.8931
  717MOL0     H94586   7.240   5.550   5.465  1.2318  0.4282  1.4589
  717MOL0     H94587   7.364   5.514   5.188 -0.4431 -1.6305  1.8116
  717MOL0     H94588   7.199   5.501   5.222 -0.1511  2.8651 -4.2504
  717MOL0     H94589   7.225   5.716   5.112  0.9741  0.6287  0.0031
  717MOL0     H94590   7.366   5.745   5.209 -0.2278  1.7089 -2.2789
  717MOL0     H94591   7.184   5.879   5.272  1.5734 -1.4175 -2.2697
  717MOL0     H94592   7.201   5.774   5.405  3.2320  0.6934 -1.5536
  717MOL0     H94593   6.991   5.735   5.172 -0.6733  1.0792  0.1566
  717MOL0     H94594   7.008   5.618   5.287 -1.7981 -0.8379 -1.0819
  717MOL0     H94595   6.954   5.908   5.386 -0.3388  0.7336 -0.1418
  717MOL0     H94596   6.962   5.761   5.471  1.4038  2.1943 -0.3558
  717MOL0     H94597   6.684   5.974   5.396 -1.3330  0.7285 -1.4745
  717MOL0     H94598   6.380   5.782   5.255 -1.5554  1.4033 -0.9754
  717MOL0     H94599   6.438   5.918   5.174  1.4696 -3.4722 -1.7536
  717MOL0     H94600   6.467   6.032   5.424 -0.2265 -0.2426  0.1916
  717MOL0     H94601   6.367   5.891   5.471 -0.0402  0.9825  0.2062
  717MOL0     H94602   6.293   6.111   5.270  0.2470  0.6664  0.5168
  717MOL0     H94603   6.194   5.972   5.311  0.6655  0.6589 -1.6145
  717MOL0     H94604   6.120   6.163   5.411  1.2516  2.3518  1.7437
  717MOL0     H94605   6.275   6.183   5.511  1.6207 -1.2941  1.3048
  717MOL0     H94606   6.017   5.855   5.683 -1.5837 -1.1675  1.9600
  717MOL0     H94607   5.814   5.896   5.819 -4.5865  3.1894 -0.0405
  717MOL0     H94608   5.552   6.484   5.808  2.6187 -0.3028  0.5652
  717MOL0     H94609   5.430   6.630   5.955  1.6644 -0.4752 -1.9076
  717MOL0     H94610   5.247   6.690   6.076  0.3284 -4.4226 -0.1164
  717MOL0     H94611   5.378   6.739   6.190 -0.9282  1.0995 -0.9387
  717MOL0     H94612   5.231   6.677   6.385 -0.6564  0.4348  0.2233
  717MOL0     H94613   5.094   6.671   6.263  1.3110 -1.6908 -2.1028
  717MOL0     H94614   5.167   6.897   6.188 -1.8145 -0.0323  0.3591
  717MOL0     H94615   5.247   6.907   6.346  0.2923 -0.1187 -0.4367
  717MOL0     H94616   4.941   6.856   6.283 -0.7843  2.9783 -2.3495
  717MOL0     H94617   5.016   6.852   6.447  1.3878  0.5572  0.6778
  717MOL0     H94618   4.908   7.073   6.405  0.3204  2.9337  0.3786
  717MOL0     H94619   5.046   7.106   6.285 -1.4439 -3.1346 -1.7827
  717MOL0     H94620   5.201   7.076   6.482  0.5224 -2.2843 -1.8432
  717MOL0     H94621   5.064   7.021   6.577 -2.2773  1.1674  0.4502
  717MOL0     H94622   5.111   7.312   6.483 -0.6845  0.8414 -0.2863
  717MOL0     H94623   4.949   7.240   6.498  0.5992  1.5553 -1.1668
  717MOL0     H94624   5.022   7.188   6.745  0.4275  0.4732  1.2508
  717MOL0     H94625   5.007   7.363   6.680  0.5976  0.6274 -1.1365
  717MOL0     H94626   5.351   6.285   6.217 -0.5073 -1.5299 -0.8225
  717MOL0     H94627   5.541   6.160   6.083  0.6942 -1.1049 -2.6087
  717MOL0     H94628   5.845   6.318   5.734 -1.6042  0.0102  2.0112
  717MOL0     H94629   6.050   6.271   5.599  0.2542  0.2258  0.2199
  717MOL0     H94630   7.643   5.042   5.568 -1.4737  1.3931 -1.2025
  717MOL0     H94631   7.884   4.923   5.543  3.1880  1.8107  1.9172
  717MOL0     H94632   8.330   5.013   5.367 -3.5645 -0.0918 -0.5342
  717MOL0     H94633   8.549   4.903   5.352  0.8462 -1.5053  0.5293
  717MOL0     H94634   8.798   4.635   5.355  0.5140  1.7137  1.5044
  717MOL0     H94635   8.713   4.786   5.385 -2.5411 -0.8183  0.2718
  717MOL0     H94636   8.680   4.786   5.128  0.1927 -0.9981 -0.1600
  717MOL0     H94637   8.839   4.827   5.200 -0.0268  0.3723  2.6478
  717MOL0     H94638   8.796   4.632   5.000  2.2804 -1.1438 -0.8249
  717MOL0     H94639   8.746   4.541   5.131  0.9943 -1.0385 -1.1285
  717MOL0     H94640   8.980   4.564   5.239 -0.8362  1.7793  0.1429
  717MOL0     H94641   8.981   4.471   5.088  0.5532  0.1099 -0.4189
  717MOL0     H94642   9.229   4.808   4.990 -1.1160  1.8153 -0.1622
  717MOL0     H94643   8.385   4.517   5.312  0.6577 -1.9419  1.0570
  717MOL0     H94644   8.147   4.634   5.299  1.2941 -2.9258  0.8471
  718MOL0     O94645   7.722   5.225   0.643 -0.9115 -0.0499 -0.1352
  718MOL0     C94646   7.813   5.310   0.637 -0.2390  0.0300  0.4087
  718MOL0     O94647   7.797   5.447   0.602 -0.6916  0.4105 -0.1577
  718MOL0     C94648   7.673   5.494   0.581 -0.0210  0.2973 -0.0416
  718MOL0     C94649   7.592   5.537   0.685  0.8398 -0.7875 -0.7753
  718MOL0     C94650   7.463   5.591   0.657 -0.2603 -0.7677  0.4331
  718MOL0     C94651   7.427   5.613   0.526 -0.7425 -0.5993 -0.4414
  718MOL0     O94652   7.308   5.673   0.497 -0.4133 -0.7949 -0.2586
  718MOL0     C94653   7.249   5.677   0.363  0.8350 -0.1882 -0.1139
  718MOL0     C94654   7.108   5.730   0.363  0.9802 -1.4055 -0.9153
  718MOL0     C94655   7.002   5.647   0.424  0.5370 -0.1365 -0.3091
  718MOL0     C94656   6.866   5.721   0.395  0.3618  0.3203 -1.0857
  718MOL0     C94657   6.755   5.645   0.475  1.7553  0.9740 -0.0286
  718MOL0     C94658   6.633   5.737   0.483  0.0402 -0.0944  0.7002
  718MOL0     C94659   6.537   5.661   0.581 -0.6423 -0.1545 -0.4586
  718MOL0     C94660   6.400   5.734   0.588  0.7597  0.5521  0.4623
  718MOL0     N94661   6.318   5.673   0.691 -0.0288  0.3009 -0.6696
  718MOL0     C94662   6.222   5.749   0.764 -0.3609  0.6481 -0.3988
  718MOL0     C94663   6.168   5.661   0.849 -0.2534  1.2421 -0.6212
  718MOL0     C94664   6.061   5.681   0.951 -0.5857  0.0278 -0.0355
  718MOL0     C94665   6.054   5.831   0.998  0.3607  0.4528  0.2590
  718MOL0     C94666   5.958   5.919   0.923  1.2815 -0.0754  0.3006
  718MOL0     C94667   5.809   5.864   0.934 -0.1691 -0.7696 -0.3859
  718MOL0     O94668   5.726   5.971   0.885  1.1604  0.4966 -0.0780
  718MOL0     C94669   5.595   5.981   0.925  0.2593 -0.2696 -0.1390
  718MOL0     C94670   5.539   6.106   0.886  0.1262 -0.0494 -0.6423
  718MOL0     C94671   5.405   6.133   0.898  0.6173 -0.1857 -1.1626
  718MOL0     C94672   5.320   6.029   0.953  0.4515  0.9448  0.8703
  718MOL0     C94673   5.171   6.042   0.957 -0.7286  0.3188  0.0452
  718MOL0     O94674   5.100   5.932   0.951  0.5148  0.0498 -0.1088
  718MOL0     C94675   4.968   5.947   0.928  0.1623  0.5413 -0.1944
  718MOL0     C94676   4.910   5.840   0.856  0.5076  1.2109 -0.2047
  718MOL0     C94677   4.771   5.841   0.814  0.3685 -0.2734 -0.8499
  718MOL0     C94678   4.687   5.952   0.838 -0.5112 -0.1762 -0.4029
  718MOL0     O94679   4.564   5.955   0.778  0.2081 -0.0557  0.1477
  718MOL0     C94680   4.464   5.928   0.884  0.4074  0.2603  0.6911
  718MOL0     C94681   4.376   6.037   0.916  0.3807 -0.2843 -0.4819
  718MOL0     C94682   4.246   6.002   0.987 -0.5730 -0.5248 -0.4597
  718MOL0     C94683   4.188   6.121   1.052  0.0907 -0.3946 -0.5157
  718MOL0     C94684   4.075   6.099   1.144 -0.1069  0.1269  0.1609
  718MOL0     C94685   4.024   6.243   1.200  0.2720  0.3688 -0.4541
  718MOL0     C94686   3.933   6.202   1.326  0.5798  0.2802 -0.1247
  718MOL0     C94687   3.902   6.312   1.419 -0.1729 -0.6594 -0.0492
  718MOL0    Cl94688   3.852   6.252   1.579  0.6062 -0.0934  0.1744
  718MOL0     C94689   4.743   6.051   0.919  0.2564  0.1398  0.0158
  718MOL0     C94690   4.881   6.053   0.968 -0.6620 -0.1773  0.2188
  718MOL0     O94691   5.132   6.156   0.948  0.3264  0.4082 -0.1789
  718MOL0     C94692   5.382   5.905   0.998  0.2350  0.3735 -0.5011
  718MOL0     C94693   5.516   5.886   0.992  0.5471  0.8696 -0.0041
  718MOL0     N94694   6.241   5.543   0.834 -0.6589  0.0948 -0.5723
  718MOL0     N94695   6.305   5.544   0.724  0.3283  0.5787 -0.3437
  718MOL0     C94696   7.512   5.567   0.420  0.9469  0.5856  0.1802
  718MOL0     C94697   7.638   5.519   0.449  0.6960  0.3401  1.0531
  718MOL0     C94698   7.954   5.265   0.666 -0.8239 -0.2984 -0.3617
  718MOL0     C94699   7.992   5.129   0.674 -0.0352  0.7977  0.4107
  718MOL0     C94700   8.127   5.093   0.684 -0.6927  0.0242  0.7650
  718MOL0     C94701   8.224   5.185   0.705  0.3966 -0.2636 -0.0573
  718MOL0     O94702   8.353   5.148   0.723  0.4188 -0.1954  0.7970
  718MOL0     C94703   8.400   5.014   0.720 -0.3004  1.0066 -0.3948
  718MOL0     C94704   8.541   4.997   0.780  0.3326 -0.1119 -0.8206
  718MOL0     C94705   8.649   5.063   0.703 -0.0186  0.2373  0.1212
  718MOL0     C94706   8.801   5.035   0.737  0.0377  0.1777  0.1000
  718MOL0     C94707   8.892   5.077   0.639 -0.2376 -0.2433  1.2045
  718MOL0     C94708   8.973   5.096   0.557  0.0154 -0.2216 -0.1321
  718MOL0     C94709   8.191   5.321   0.693 -0.1611 -0.2274 -0.1858
  718MOL0     C94710   8.058   5.363   0.677 -0.3604  0.0458  0.6500
  718MOL0     H94711   7.636   5.516   0.782  1.4732 -0.3779 -0.9661
  718MOL0     H94712   7.397   5.604   0.742 -0.9244 -0.8141 -0.0694
  718MOL0     H94713   7.234   5.577   0.322 -4.2076 -0.9971  2.8306
  718MOL0     H94714   7.308   5.735   0.291 -1.7951  0.0449 -2.2316
  718MOL0     H94715   7.080   5.735   0.257  0.1024 -1.5758 -0.6919
  718MOL0     H94716   7.117   5.827   0.413 -3.4850  0.0901 -2.5120
  718MOL0     H94717   7.015   5.640   0.533 -3.1899  0.4491  0.3214
  718MOL0     H94718   6.998   5.547   0.380  1.4476  0.6165 -2.1902
  718MOL0     H94719   6.867   5.826   0.426  1.4284 -0.5401  2.1897
  718MOL0     H94720   6.845   5.717   0.287  1.3418  2.2094 -1.3846
  718MOL0     H94721   6.795   5.616   0.573  1.8869 -0.0180 -0.3651
  718MOL0     H94722   6.716   5.561   0.417  3.5855  1.3327 -1.8698
  718MOL0     H94723   6.591   5.758   0.384  1.5191 -2.3127 -0.4742
  718MOL0     H94724   6.664   5.833   0.526 -2.2204  1.4649 -0.8965
  718MOL0     H94725   6.532   5.561   0.538  2.0237 -0.6026  0.1105
  718MOL0     H94726   6.584   5.659   0.680 -1.4821  1.3829  0.0103
  718MOL0     H94727   6.342   5.741   0.496 -4.9491  0.4419  3.6175
  718MOL0     H94728   6.404   5.840   0.614 -1.1439  0.6402  0.5143
  718MOL0     H94729   6.210   5.856   0.747  0.4555  0.8564  0.2751
  718MOL0     H94730   6.079   5.616   1.037 -1.0147 -1.0574 -0.7468
  718MOL0     H94731   5.962   5.649   0.919 -1.6732  1.2156  1.9295
  718MOL0     H94732   6.150   5.882   0.989  0.1064  0.6503 -1.6021
  718MOL0     H94733   6.011   5.838   1.099  1.3357  0.6087  0.6701
  718MOL0     H94734   5.964   6.018   0.970 -0.3884 -0.9187  2.4548
  718MOL0     H94735   5.980   5.936   0.817 -0.3298 -0.8182 -0.1730
  718MOL0     H94736   5.775   5.855   1.038  2.3111  0.9696  0.6763
  718MOL0     H94737   5.779   5.770   0.887 -0.2865 -1.5905  1.2428
  718MOL0     H94738   5.591   6.178   0.824 -5.5024  3.8055 -1.6485
  718MOL0     H94739   5.363   6.228   0.869  0.8037  0.4201  0.4554
  718MOL0     H94740   4.979   5.760   0.832 -0.9719  0.0176 -0.6492
  718MOL0     H94741   4.747   5.765   0.741  0.5664 -2.2729  1.0554
  718MOL0     H94742   4.507   5.881   0.973 -0.5645 -2.2687 -0.0822
  718MOL0     H94743   4.400   5.852   0.838  0.4223  1.1535 -0.8802
  718MOL0     H94744   4.353   6.085   0.820 -1.4698  3.4393  1.5616
  718MOL0     H94745   4.426   6.117   0.971 -2.1842  2.0023 -1.2424
  718MOL0     H94746   4.255   5.917   1.055 -4.1535 -1.2940 -0.7099
  718MOL0     H94747   4.171   5.966   0.915  0.1659  0.4231 -1.7475
  718MOL0     H94748   4.269   6.173   1.103  0.6871 -1.6801 -0.1159
  718MOL0     H94749   4.148   6.186   0.973 -1.0512  1.3065  1.3419
  718MOL0     H94750   4.108   6.039   1.229 -2.1597 -0.7262  0.4182
  718MOL0     H94751   3.997   6.041   1.094  0.2891  1.1603 -1.7540
  718MOL0     H94752   3.973   6.313   1.133  1.0474  1.9932  0.5819
  718MOL0     H94753   4.112   6.299   1.234 -0.0194  1.1966 -1.0307
  718MOL0     H94754   3.836   6.162   1.297 -0.4201  0.2571  2.8837
  718MOL0     H94755   3.978   6.125   1.390 -0.6470 -1.0727 -0.8346
  718MOL0     H94756   3.828   6.382   1.379  0.8479  0.0034 -0.8456
  718MOL0     H94757   3.999   6.359   1.441 -0.7002  0.8941 -0.8554
  718MOL0     H94758   4.672   6.127   0.949 -0.4219  0.4126 -2.1618
  718MOL0     H94759   4.913   6.135   1.031 -0.1284  0.3910 -0.7661
  718MOL0     H94760   5.325   5.820   1.033  1.1708 -0.2066 -0.3504
  718MOL0     H94761   5.564   5.799   1.035  0.7572  0.2118 -1.5017
  718MOL0     H94762   7.476   5.575   0.319 -1.2394  0.3320  0.8895
  718MOL0     H94763   7.697   5.480   0.366  0.1240 -1.7105  1.5296
  718MOL0     H94764   7.912   5.055   0.668 -1.4650  2.3421 -0.4909
  718MOL0     H94765   8.144   4.986   0.696 -1.9294 -0.2265  0.4357
  718MOL0     H94766   8.407   4.985   0.615 -2.1095  2.7892 -1.0757
  718MOL0     H94767   8.347   4.940   0.782  2.9438 -0.9401  0.2709
  718MOL0     H94768   8.526   5.042   0.878 -0.8285 -0.4266 -0.8377
  718MOL0     H94769   8.572   4.892   0.794 -0.6778 -0.5061 -1.4422
  718MOL0     H94770   8.638   5.171   0.700  1.9298  0.4735 -0.0225
  718MOL0     H94771   8.636   5.031   0.599 -0.1084  1.4263 -0.2453
  718MOL0     H94772   8.830   5.085   0.830 -0.3243  0.3490  0.1250
  718MOL0     H94773   8.823   4.930   0.754 -0.2188  0.1034 -0.0179
  718MOL0     H94774   9.039   5.137   0.482  0.7285  1.9539  1.5791
  718MOL0     H94775   8.268   5.398   0.693  0.4347 -0.7890 -1.3618
  718MOL0     H94776   8.037   5.469   0.667  0.5026  0.1255 -0.5157
  719MOL0     O94777   9.144   6.763   8.146 -0.2502 -0.9145 -0.5926
  719MOL0     C94778   9.143   6.652   8.192  0.2427  0.7953 -0.3137
  719MOL0     O94779   9.059   6.551   8.161 -1.1198 -0.2091  0.1116
  719MOL0     C94780   8.974   6.557   8.057  0.1628  0.6726  0.7738
  719MOL0     C94781   8.859   6.473   8.067 -1.0985 -0.4540  0.6355
  719MOL0     C94782   8.755   6.459   7.971 -0.2022  0.1368 -0.3597
  719MOL0     C94783   8.780   6.517   7.845 -0.1908  0.0248 -0.0634
  719MOL0     O94784   8.690   6.512   7.744  0.6684  0.6072  0.0400
  719MOL0     C94785   8.555   6.545   7.778 -0.1695 -0.6650 -1.0835
  719MOL0     C94786   8.475   6.550   7.655  0.0167  1.4293 -0.9322
  719MOL0     C94787   8.528   6.676   7.574  0.7884  1.1305 -1.0896
  719MOL0     C94788   8.437   6.694   7.458  0.5169 -0.1229 -0.6880
  719MOL0     C94789   8.492   6.798   7.355 -0.1842 -0.4818 -0.9075
  719MOL0     C94790   8.502   6.950   7.414 -0.0866 -0.2841  0.7957
  719MOL0     C94791   8.558   7.056   7.317  0.5741  0.7289 -0.4234
  719MOL0     C94792   8.559   7.190   7.387 -0.8178 -0.5288  0.3312
  719MOL0     N94793   8.423   7.245   7.415  0.5511 -0.4844 -0.1891
  719MOL0     C94794   8.323   7.274   7.328 -0.2647 -0.4595  0.4324
  719MOL0     C94795   8.226   7.341   7.402  0.0314  0.1515 -0.5849
  719MOL0     C94796   8.113   7.425   7.350  0.7404  0.3347 -0.3269
  719MOL0     C94797   7.982   7.387   7.419  0.1580  0.0181  0.2487
  719MOL0     C94798   7.966   7.386   7.571 -0.3884  0.7502  1.0753
  719MOL0     C94799   7.817   7.372   7.609 -0.3690 -0.3104  0.1132
  719MOL0     O94800   7.746   7.493   7.577  1.2003 -0.1068 -0.4096
  719MOL0     C94801   7.617   7.492   7.620  0.6542  0.6253  0.6241
  719MOL0     C94802   7.564   7.593   7.705 -0.8375  0.4396  0.7064
  719MOL0     C94803   7.433   7.578   7.751  0.0436 -0.1581 -0.8207
  719MOL0     C94804   7.342   7.489   7.699  1.0209 -0.1399  0.4528
  719MOL0     C94805   7.198   7.473   7.737 -0.2066  0.0830  0.0238
  719MOL0     O94806   7.169   7.549   7.847 -0.0781 -0.2999 -0.3999
  719MOL0     C94807   7.038   7.563   7.878  0.7242  0.4042  0.8777
  719MOL0     C94808   6.971   7.458   7.937 -0.8538  0.7510 -0.5778
  719MOL0     C94809   6.842   7.468   7.956 -0.2946 -1.0963 -1.0966
  719MOL0     C94810   6.767   7.580   7.912  0.5451  0.1770 -1.3828
  719MOL0     O94811   6.637   7.601   7.934  0.2383  0.0037 -0.9852
  719MOL0     C94812   6.565   7.484   7.982  1.3824 -0.2735  0.4266
  719MOL0     C94813   6.420   7.508   7.944 -0.1621 -0.1060 -0.0938
  719MOL0     C94814   6.356   7.600   8.051  0.3696 -0.1947 -0.4519
  719MOL0     C94815   6.209   7.638   8.023  0.7783 -0.0146 -0.7847
  719MOL0     C94816   6.154   7.727   8.134  0.0872 -0.2185  0.1351
  719MOL0     C94817   6.000   7.737   8.131  0.5477  0.3320  0.6356
  719MOL0     C94818   5.944   7.780   7.996  0.0805  0.3498 -0.2972
  719MOL0     C94819   5.800   7.826   7.991 -0.0589 -0.0157 -0.2167
  719MOL0    Cl94820   5.778   7.963   8.097 -0.1841  0.1748  0.0676
  719MOL0     C94821   6.840   7.686   7.868  0.1147 -0.1729  0.5877
  719MOL0     C94822   6.979   7.680   7.847 -0.1472  0.2361 -0.6679
  719MOL0     O94823   7.119   7.406   7.667  0.1976 -0.4661  0.3346
  719MOL0     C94824   7.385   7.391   7.609 -0.1945  0.2764 -1.2441
  719MOL0     C94825   7.525   7.398   7.573 -0.0674 -0.5550 -0.5942
  719MOL0     N94826   8.273   7.351   7.529  0.6435  0.3153 -0.4679
  719MOL0     N94827   8.388   7.298   7.533 -0.4638 -0.2562 -0.6082
  719MOL0     C94828   8.902   6.591   7.827 -0.0352  0.4653  0.4596
  719MOL0     C94829   8.982   6.623   7.934  0.6304 -0.1994  0.5724
  719MOL0     C94830   9.251   6.622   8.297  0.1169  0.0275 -0.1174
  719MOL0     C94831   9.285   6.491   8.340 -0.0957 -0.2729  0.2257
  719MOL0     C94832   9.399   6.468   8.415 -0.1780 -0.3199 -0.7555
  719MOL0     C94833   9.467   6.571   8.480 -0.8323 -0.3606 -0.1107
  719MOL0     O94834   9.578   6.538   8.555  0.5700 -0.3760  0.4200
  719MOL0     C94835   9.676   6.643   8.574 -0.1258 -0.4441  0.0411
  719MOL0     C94836   9.820   6.581   8.571  0.5402  0.0357  0.3208
  719MOL0     C94837   9.842   6.480   8.692  0.0952 -0.3735  0.1305
  719MOL0     C94838   9.974   6.403   8.685  0.0868 -0.7254  0.0043
  719MOL0     C94839   9.969   6.298   8.580  0.1753 -0.1845  0.3019
  719MOL0     C94840   9.962   6.204   8.506  0.3078 -0.3899  0.3888
  719MOL0     C94841   9.432   6.699   8.445  0.7053  0.1409 -0.5260
  719MOL0     C94842   9.329   6.727   8.349  0.7730  0.0799 -0.3652
  719MOL0     H94843   8.835   6.417   8.157  1.3776  0.6338  2.0892
  719MOL0     H94844   8.674   6.391   7.995 -0.6267  1.2444  1.5573
  719MOL0     H94845   8.563   6.647   7.817 -0.8637  0.5318 -3.7873
  719MOL0     H94846   8.504   6.479   7.849 -0.8299  0.2927 -0.6444
  719MOL0     H94847   8.369   6.568   7.678  0.6414  0.4738  3.6908
  719MOL0     H94848   8.491   6.459   7.596 -1.4094  0.8010 -0.3987
  719MOL0     H94849   8.633   6.655   7.549  0.7530  0.5333 -0.7531
  719MOL0     H94850   8.526   6.766   7.635 -0.3210  0.5632 -0.2706
  719MOL0     H94851   8.426   6.601   7.402 -0.3671  0.1851 -1.0443
  719MOL0     H94852   8.335   6.715   7.490 -0.3408  1.3302 -3.9790
  719MOL0     H94853   8.422   6.804   7.271 -0.5140  2.2155 -0.5468
  719MOL0     H94854   8.598   6.775   7.339  0.5494 -0.4367  2.9221
  719MOL0     H94855   8.558   6.953   7.508 -0.7953  0.1928  1.2100
  719MOL0     H94856   8.399   6.974   7.442 -1.3347 -3.7777 -0.2717
  719MOL0     H94857   8.653   7.034   7.267  1.3584 -0.6505  1.5602
  719MOL0     H94858   8.485   7.052   7.236 -0.0313 -2.2257  0.1611
  719MOL0     H94859   8.619   7.266   7.335  0.3479 -1.7755 -0.1985
  719MOL0     H94860   8.605   7.181   7.486 -1.8290 -2.6156  0.6676
  719MOL0     H94861   8.326   7.263   7.221 -0.0167  0.2422  0.3627
  719MOL0     H94862   8.116   7.423   7.241  1.5394  0.4809 -0.3079
  719MOL0     H94863   8.127   7.531   7.372 -2.4414  1.2686 -2.1723
  719MOL0     H94864   7.939   7.295   7.378 -0.8613 -0.7923  2.9402
  719MOL0     H94865   7.919   7.472   7.391  1.5138  1.9912  2.8065
  719MOL0     H94866   8.017   7.299   7.611 -1.2975  0.0609  0.7606
  719MOL0     H94867   8.005   7.484   7.602 -0.0989  1.1260 -0.3524
  719MOL0     H94868   7.811   7.356   7.717 -0.9060  0.6814  0.2477
  719MOL0     H94869   7.776   7.287   7.554  0.5676  0.2085 -1.4399
  719MOL0     H94870   7.640   7.659   7.747  1.5601 -1.4900 -0.4066
  719MOL0     H94871   7.397   7.643   7.830  0.9994 -0.9233  0.2714
  719MOL0     H94872   7.019   7.364   7.965 -1.7308 -0.1621 -2.0169
  719MOL0     H94873   6.783   7.397   8.014 -0.7159  1.5616  2.0591
  719MOL0     H94874   6.573   7.454   8.087  0.0972  0.9740  0.8996
  719MOL0     H94875   6.587   7.394   7.924 -2.4031 -0.6975 -0.5716
  719MOL0     H94876   6.367   7.412   7.943 -0.1004 -0.1432 -1.1142
  719MOL0     H94877   6.400   7.550   7.845  0.7956  0.6328  0.0167
  719MOL0     H94878   6.421   7.687   8.045  2.4529 -1.7504 -2.3870
  719MOL0     H94879   6.367   7.550   8.148 -0.2174 -1.2640 -0.9096
  719MOL0     H94880   6.214   7.699   7.932  1.4616 -1.3508 -1.6799
  719MOL0     H94881   6.147   7.549   8.006 -0.3252  0.8738 -1.5450
  719MOL0     H94882   6.200   7.825   8.123 -0.9168  0.1752 -0.7611
  719MOL0     H94883   6.182   7.684   8.230  0.3753 -2.1687 -0.7656
  719MOL0     H94884   5.969   7.805   8.211 -0.6033 -0.3597  0.8060
  719MOL0     H94885   5.958   7.638   8.152  0.8755 -0.8658 -3.4736
  719MOL0     H94886   6.007   7.851   7.943  0.3231 -0.7519 -1.5151
  719MOL0     H94887   5.947   7.693   7.931 -1.3537  0.0763 -0.0386
  719MOL0     H94888   5.732   7.752   8.035  1.5620 -1.4321 -0.0275
  719MOL0     H94889   5.771   7.858   7.891  0.2125  0.4156 -0.1593
  719MOL0     H94890   6.795   7.768   7.812 -0.7644 -2.5018 -2.3762
  719MOL0     H94891   7.041   7.756   7.802  0.2594 -0.3290 -1.0749
  719MOL0     H94892   7.324   7.315   7.563  0.7007 -2.8308  2.2002
  719MOL0     H94893   7.554   7.312   7.514  0.1364 -0.7037 -0.2808
  719MOL0     H94894   8.895   6.653   7.739  0.0127  1.8068  1.3775
  719MOL0     H94895   9.061   6.695   7.911  0.8805 -1.5313 -3.4875
  719MOL0     H94896   9.233   6.405   8.300  1.6100 -0.7578 -1.0589
  719MOL0     H94897   9.432   6.367   8.441  2.4296  0.6371 -0.0033
  719MOL0     H94898   9.664   6.695   8.669 -0.5686  1.2555 -0.8934
  719MOL0     H94899   9.679   6.722   8.498  0.6605  0.6529  1.1791
  719MOL0     H94900   9.844   6.540   8.473 -1.9609  0.4700 -0.5601
  719MOL0     H94901   9.905   6.648   8.580  3.1200 -2.7270 -1.4484
  719MOL0     H94902   9.756   6.414   8.704 -1.1438  0.6795 -2.3314
  719MOL0     H94903   9.853   6.530   8.789  2.0021 -1.6125  0.6021
  719MOL0     H94904  10.054   6.478   8.681 -0.5672 -0.0696 -1.4700
  719MOL0     H94905   9.973   6.351   8.782 -0.2272 -3.8042 -1.5424
  719MOL0     H94906   9.944   6.121   8.440 -0.7774  1.3345 -1.6114
  719MOL0     H94907   9.475   6.784   8.497 -2.6053  1.2953  0.6308
  719MOL0     H94908   9.290   6.826   8.325  2.1584  0.2834 -1.9752
  720MOL0     O94909   6.453   2.677   4.134  0.4106  0.0264 -0.2910
  720MOL0     C94910   6.518   2.666   4.237  0.7413 -0.6837 -0.6296
  720MOL0     O94911   6.473   2.657   4.365 -0.0884 -0.0876 -0.0684
  720MOL0     C94912   6.341   2.651   4.395  0.1238 -0.4243  0.7364
  720MOL0     C94913   6.286   2.743   4.490 -1.1179 -0.3807  0.0859
  720MOL0     C94914   6.158   2.729   4.546 -0.5501 -0.1127 -0.6687
  720MOL0     C94915   6.076   2.626   4.501 -0.6044 -0.3190  0.0113
  720MOL0     O94916   5.945   2.619   4.548 -0.5724 -0.3284 -0.2418
  720MOL0     C94917   5.853   2.538   4.484  0.3493 -0.0323 -0.3118
  720MOL0     C94918   5.717   2.517   4.562 -0.8476 -1.0205 -0.5578
  720MOL0     C94919   5.619   2.642   4.555 -0.5478 -0.4363  0.2090
  720MOL0     C94920   5.489   2.607   4.618  0.1126 -0.0600  0.5802
  720MOL0     C94921   5.409   2.737   4.658 -0.1586 -0.0260  0.3741
  720MOL0     C94922   5.447   2.806   4.788 -0.1480  0.0880  0.3565
  720MOL0     C94923   5.324   2.873   4.854  0.9735  0.1668 -0.0813
  720MOL0     C94924   5.364   2.923   4.998 -0.3543  0.1579 -0.5278
  720MOL0     N94925   5.454   3.040   5.003  0.0045 -0.1172  0.5665
  720MOL0     C94926   5.589   3.028   4.965 -0.7897 -0.5551  0.7110
  720MOL0     C94927   5.638   3.154   4.979 -0.9161  0.3797  0.2723
  720MOL0     C94928   5.778   3.197   4.954 -0.2502 -0.4203 -0.1114
  720MOL0     C94929   5.874   3.215   5.076 -0.1889  0.4853  0.5141
  720MOL0     C94930   5.898   3.083   5.154  0.4972  0.6090  0.3752
  720MOL0     C94931   6.015   3.098   5.250  0.0396 -0.3488 -0.3709
  720MOL0     O94932   6.026   2.990   5.352  0.5202  0.6466  0.1393
  720MOL0     C94933   6.145   2.981   5.417  0.7637  0.1895  1.0450
  720MOL0     C94934   6.257   3.074   5.401 -0.1326  0.4577  0.3650
  720MOL0     C94935   6.381   3.043   5.461  0.2015  0.3685  0.4420
  720MOL0     C94936   6.391   2.930   5.544 -0.5926 -0.3817  0.2919
  720MOL0     C94937   6.523   2.914   5.606 -0.7616  0.1438  0.5328
  720MOL0     O94938   6.526   2.827   5.711 -1.1669 -0.5732  0.2866
  720MOL0     C94939   6.643   2.804   5.777 -0.2077 -0.4627 -0.3622
  720MOL0     C94940   6.700   2.673   5.770  1.2160  0.2652 -0.6631
  720MOL0     C94941   6.829   2.650   5.829 -0.0542  0.1468 -0.5315
  720MOL0     C94942   6.886   2.750   5.913  0.2543  0.1907  0.7976
  720MOL0     O94943   7.011   2.740   5.969  0.2587 -0.0468 -0.7117
  720MOL0     C94944   7.100   2.628   5.944 -0.3323 -0.4477 -0.6941
  720MOL0     C94945   7.238   2.656   6.016  0.5887  0.9625  0.2414
  720MOL0     C94946   7.325   2.556   5.962 -0.1682  0.1459  0.0312
  720MOL0     C94947   7.462   2.574   6.041  0.3005 -1.6596  0.4580
  720MOL0     C94948   7.551   2.456   6.025 -0.4792 -0.2078 -0.6642
  720MOL0     C94949   7.607   2.435   5.882  0.1491 -0.3435 -0.1899
  720MOL0     C94950   7.747   2.363   5.871 -0.3897  0.5850 -0.4183
  720MOL0     C94951   7.871   2.422   5.942 -0.6471 -0.0039 -0.0546
  720MOL0    Cl94952   7.903   2.588   5.893  0.4581 -0.3183  0.4202
  720MOL0     C94953   6.830   2.881   5.919  0.2549  0.1461  0.5045
  720MOL0     C94954   6.715   2.905   5.845 -0.5354 -0.4110  0.1853
  720MOL0     O94955   6.612   2.989   5.574  0.3902  0.2853 -1.2593
  720MOL0     C94956   6.289   2.839   5.558  0.0172  0.5598  0.2379
  720MOL0     C94957   6.169   2.865   5.494  0.5017 -0.5313 -0.2035
  720MOL0     N94958   5.533   3.231   5.035  0.0651  0.3354  0.0894
  720MOL0     N94959   5.426   3.166   5.049 -0.1442  0.3509  0.0249
  720MOL0     C94960   6.125   2.539   4.402  0.3329  0.7308  0.6780
  720MOL0     C94961   6.258   2.546   4.349 -0.1303  0.0490  0.2849
  720MOL0     C94962   6.664   2.685   4.236  0.7943  0.1812  0.2117
  720MOL0     C94963   6.747   2.653   4.353 -0.2559 -0.8021 -0.0166
  720MOL0     C94964   6.890   2.677   4.342 -0.0550 -0.5430 -0.5899
  720MOL0     C94965   6.941   2.749   4.233 -0.2701  0.7474  1.0608
  720MOL0     O94966   7.073   2.794   4.234  0.2501  0.1029  0.2052
  720MOL0     C94967   7.142   2.796   4.360  0.3999 -0.0783 -0.5697
  720MOL0     C94968   7.260   2.897   4.357  0.7456 -0.4211  0.8162
  720MOL0     C94969   7.335   2.903   4.492  0.5211 -0.5288  0.0232
  720MOL0     C94970   7.480   2.951   4.476  0.7154 -0.4316 -0.0656
  720MOL0     C94971   7.574   2.843   4.504  0.3302  0.0840  0.1970
  720MOL0     C94972   7.648   2.748   4.527 -0.7484  0.0389 -0.0427
  720MOL0     C94973   6.857   2.769   4.119 -0.5113 -0.0112  0.4043
  720MOL0     C94974   6.723   2.731   4.117 -0.2140 -0.3021  0.3902
  720MOL0     H94975   6.349   2.828   4.517  2.3167 -1.4752 -3.4749
  720MOL0     H94976   6.119   2.794   4.623 -1.0038 -1.0505 -0.0837
  720MOL0     H94977   5.894   2.437   4.471  0.9196  0.2883 -1.0406
  720MOL0     H94978   5.818   2.563   4.384  0.4208  0.8839 -0.1129
  720MOL0     H94979   5.746   2.508   4.667  1.6388  1.6227 -0.8877
  720MOL0     H94980   5.663   2.429   4.525 -0.6457 -0.5638 -2.0293
  720MOL0     H94981   5.601   2.673   4.452 -0.5127  0.2425  0.4047
  720MOL0     H94982   5.670   2.719   4.614 -1.0000 -0.9023  1.2324
  720MOL0     H94983   5.443   2.559   4.530 -0.5913 -0.2932  1.0627
  720MOL0     H94984   5.498   2.532   4.696 -3.2989 -1.2775 -0.0188
  720MOL0     H94985   5.306   2.700   4.667 -0.4088  0.7539  0.7580
  720MOL0     H94986   5.393   2.813   4.581 -0.0248 -2.3039 -2.0424
  720MOL0     H94987   5.517   2.882   4.752 -1.7666 -0.1149 -3.6796
  720MOL0     H94988   5.495   2.732   4.852 -0.3144 -0.8711 -0.6151
  720MOL0     H94989   5.288   2.956   4.792 -0.3373 -0.5732 -0.3501
  720MOL0     H94990   5.249   2.795   4.868  0.8571  0.1627 -0.6835
  720MOL0     H94991   5.417   2.851   5.061  0.4768  3.0305  2.2779
  720MOL0     H94992   5.270   2.959   5.040 -0.7779 -0.2552 -1.1129
  720MOL0     H94993   5.645   2.938   4.943 -1.1963  0.0289 -3.4663
  720MOL0     H94994   5.766   3.300   4.919 -3.5177  0.7295  3.5696
  720MOL0     H94995   5.825   3.133   4.879 -3.0383 -1.6548 -0.9120
  720MOL0     H94996   5.829   3.295   5.136 -1.4518 -0.2480  0.5810
  720MOL0     H94997   5.971   3.256   5.047  0.8924 -1.2704  1.4873
  720MOL0     H94998   5.812   3.054   5.215  0.9377 -4.4738 -1.0122
  720MOL0     H94999   5.921   3.010   5.076  1.5312  1.9250 -0.6100
  720MOL0     H95000   6.005   3.195   5.300 -0.3213 -0.5317 -0.0932
  720MOL0     H95001   6.109   3.104   5.194 -0.5598 -0.1400 -1.3777
  720MOL0     H95002   6.246   3.166   5.344 -0.6418 -0.1267 -0.5085
  720MOL0     H95003   6.463   3.109   5.436 -0.9129  0.6169 -3.2709
  720MOL0     H95004   6.651   2.587   5.725  2.2153 -0.4095 -0.4892
  720MOL0     H95005   6.882   2.556   5.826 -1.4065 -0.7418  1.4468
  720MOL0     H95006   7.113   2.617   5.836 -1.0675  1.0718 -0.9665
  720MOL0     H95007   7.046   2.543   5.986 -1.5246  1.3864  1.7731
  720MOL0     H95008   7.218   2.642   6.123 -0.6511 -0.4667 -0.1461
  720MOL0     H95009   7.277   2.751   5.980  3.0470 -0.4270 -0.9911
  720MOL0     H95010   7.338   2.580   5.856 -1.2204  1.5540  0.1831
  720MOL0     H95011   7.296   2.451   5.966 -0.1260  0.1690  1.4657
  720MOL0     H95012   7.509   2.667   6.008 -1.9177 -0.9830 -0.9843
  720MOL0     H95013   7.444   2.583   6.149  0.6518 -3.1879  0.6644
  720MOL0     H95014   7.499   2.366   6.059 -0.4010  0.9120  2.8317
  720MOL0     H95015   7.620   2.467   6.109 -0.3218 -0.7122 -0.7280
  720MOL0     H95016   7.619   2.530   5.827 -1.6165 -0.7454 -1.3530
  720MOL0     H95017   7.530   2.382   5.824 -0.0245 -2.1392  1.5775
  720MOL0     H95018   7.732   2.258   5.898 -3.4408  0.3491 -2.5137
  720MOL0     H95019   7.768   2.355   5.764  0.7295  1.2761 -0.2588
  720MOL0     H95020   7.958   2.365   5.909 -1.0948  0.3102 -1.8451
  720MOL0     H95021   7.858   2.407   6.050 -2.1950 -2.5457 -0.5227
  720MOL0     H95022   6.872   2.965   5.974 -1.4957  1.7811 -0.5067
  720MOL0     H95023   6.681   3.008   5.844 -2.5019 -0.9989  0.4431
  720MOL0     H95024   6.297   2.741   5.604  4.2317  0.2254 -0.8164
  720MOL0     H95025   6.088   2.793   5.485  0.3753 -0.6198  1.3946
  720MOL0     H95026   6.061   2.459   4.367 -1.9836  0.6238  4.5975
  720MOL0     H95027   6.298   2.478   4.275 -3.0097 -0.8827 -0.5517
  720MOL0     H95028   6.699   2.609   4.439 -0.0752 -1.3111 -0.1711
  720MOL0     H95029   6.957   2.643   4.421  4.5633  3.0104 -2.4868
  720MOL0     H95030   7.167   2.694   4.391  1.4490  0.7300  1.4160
  720MOL0     H95031   7.077   2.837   4.438  0.1601 -0.1277 -0.7424
  720MOL0     H95032   7.326   2.877   4.272 -2.3216 -0.1460 -1.8106
  720MOL0     H95033   7.219   2.995   4.332 -4.0195 -2.4798 -0.6668
  720MOL0     H95034   7.314   2.805   4.537 -1.7166  1.2497  3.2465
  720MOL0     H95035   7.274   2.971   4.551  0.7014  0.8144 -1.2883
  720MOL0     H95036   7.493   2.988   4.375  1.8514  0.5887  0.4333
  720MOL0     H95037   7.487   3.037   4.544 -1.2673 -0.5614  0.3601
  720MOL0     H95038   7.722   2.674   4.549 -0.7093  0.5896  1.8938
  720MOL0     H95039   6.902   2.798   4.025 -1.6615 -0.6925 -0.3772
  720MOL0     H95040   6.663   2.735   4.026 -1.1521  1.5388  1.0357
  721MOL0     O95041   0.249   1.433   7.344  0.5520 -1.1635  0.1761
  721MOL0     C95042   0.273   1.500   7.243  0.4002 -0.0455  0.0640
  721MOL0     O95043   0.186   1.593   7.189 -0.1444 -0.6759 -0.4402
  721MOL0     C95044   0.058   1.598   7.248 -0.3787  0.8830 -0.0212
  721MOL0     C95045   0.033   1.676   7.364 -0.4420 -0.1918  0.4313
  721MOL0     C95046  -0.088   1.686   7.428  0.1338  0.0918 -0.1569
  721MOL0     C95047  -0.196   1.616   7.377 -0.3333  0.0092 -0.1073
  721MOL0     O95048  -0.327   1.635   7.425  0.3376 -0.4624 -0.6498
  721MOL0     C95049  -0.423   1.530   7.424  0.3074  0.3894 -0.7937
  721MOL0     C95050  -0.541   1.581   7.513 -0.4981  0.6965 -0.8695
  721MOL0     C95051  -0.663   1.482   7.510 -0.6150  0.0739  0.3258
  721MOL0     C95052  -0.755   1.503   7.624  0.4422  0.0112  1.0599
  721MOL0     C95053  -0.871   1.399   7.623 -0.5485  0.1569 -0.0419
  721MOL0     C95054  -0.999   1.449   7.691 -0.3539 -0.3145  0.5686
  721MOL0     C95055  -1.098   1.338   7.723  0.0460 -0.0819  0.0872
  721MOL0     C95056  -1.232   1.393   7.772 -0.0876  0.3981  0.3459
  721MOL0     N95057  -1.333   1.396   7.667  0.2791 -0.1403  0.2529
  721MOL0     C95058  -1.387   1.501   7.598 -0.1423  0.9851  0.2673
  721MOL0     C95059  -1.471   1.438   7.502  0.3100 -0.1348 -0.6617
  721MOL0     C95060  -1.555   1.507   7.405 -0.2676 -1.7510  0.0338
  721MOL0     C95061  -1.704   1.517   7.442  1.1298 -0.4750 -0.6844
  721MOL0     C95062  -1.735   1.592   7.566 -0.4278 -0.2146 -0.7120
  721MOL0     C95063  -1.722   1.748   7.546  0.7589 -0.5068  0.4767
  721MOL0     O95064  -1.586   1.781   7.547  0.0227 -0.3962  0.3995
  721MOL0     C95065  -1.538   1.848   7.662  0.0501  0.8895 -0.9411
  721MOL0     C95066  -1.585   1.840   7.796  0.1998 -0.4378  0.3437
  721MOL0     C95067  -1.517   1.889   7.909  0.2885 -0.3372  0.4886
  721MOL0     C95068  -1.394   1.957   7.891  0.5356  0.4213  0.8395
  721MOL0     C95069  -1.320   2.008   8.008 -0.4731 -0.4832 -0.3593
  721MOL0     O95070  -1.354   1.972   8.136  0.4284 -0.7010  0.7251
  721MOL0     C95071  -1.271   2.013   8.244  0.2224  0.3502  0.1346
  721MOL0     C95072  -1.134   2.003   8.246 -0.0165 -0.1264  0.6057
  721MOL0     C95073  -1.066   2.024   8.372  0.3782 -0.1742 -0.4544
  721MOL0     C95074  -1.139   2.052   8.488 -0.6719  0.0677 -0.1983
  721MOL0     O95075  -1.078   2.068   8.606  0.5224  1.1421 -0.5974
  721MOL0     C95076  -1.086   2.201   8.661 -0.3170 -0.4944 -0.4057
  721MOL0     C95077  -0.956   2.235   8.731 -1.1240  0.2878  0.2978
  721MOL0     C95078  -0.924   2.137   8.847  0.1430  0.0462 -0.3899
  721MOL0     C95079  -0.785   2.171   8.900 -0.6032  0.6375  0.2858
  721MOL0     C95080  -0.728   2.089   9.015 -0.0591 -0.0198 -0.1816
  721MOL0     C95081  -0.584   2.111   9.059 -0.0217 -0.1572 -0.2785
  721MOL0     C95082  -0.573   2.033   9.187 -0.1340  0.0326 -0.1666
  721MOL0     C95083  -0.429   2.040   9.243  0.8338  1.0678  0.4095
  721MOL0    Cl95084  -0.413   1.950   9.392  0.0217  0.3404  0.6125
  721MOL0     C95085  -1.280   2.045   8.488 -0.6791 -0.1794 -0.7966
  721MOL0     C95086  -1.345   2.027   8.361  0.1045 -0.1439  0.0282
  721MOL0     O95087  -1.230   2.091   7.987  0.2272 -0.0616  0.5783
  721MOL0     C95088  -1.360   1.980   7.756 -0.1085  0.3735 -0.1059
  721MOL0     C95089  -1.422   1.916   7.651  0.3441 -0.2974  0.1807
  721MOL0     N95090  -1.458   1.300   7.509 -0.3738 -0.2711 -0.1170
  721MOL0     N95091  -1.377   1.276   7.604 -0.9034 -0.9403 -0.5111
  721MOL0     C95092  -0.167   1.526   7.276  0.4499  0.6968 -0.7551
  721MOL0     C95093  -0.044   1.516   7.212  0.0922  0.6589 -0.1875
  721MOL0     C95094   0.412   1.494   7.192  0.3868 -0.1454  0.3438
  721MOL0     C95095   0.515   1.424   7.261 -0.2859  0.0539  1.3143
  721MOL0     C95096   0.642   1.411   7.203  0.4481  0.3390  0.3035
  721MOL0     C95097   0.675   1.469   7.079 -0.0203 -0.1142 -0.1842
  721MOL0     O95098   0.800   1.451   7.027  0.2039  0.0218  0.1120
  721MOL0     C95099   0.839   1.518   6.903 -0.2704 -0.4712  0.2316
  721MOL0     C95100   0.986   1.560   6.908  0.1508  0.0569  0.0440
  721MOL0     C95101   1.080   1.439   6.933  0.3316  0.1256 -0.2744
  721MOL0     C95102   1.233   1.487   6.928 -0.2504  0.3787  0.5650
  721MOL0     C95103   1.268   1.566   6.807  0.2565 -0.4387 -0.6203
  721MOL0     C95104   1.310   1.616   6.698 -0.6721  0.3462  0.4852
  721MOL0     C95105   0.573   1.545   7.017  0.5225 -0.4098 -0.9990
  721MOL0     C95106   0.445   1.557   7.071  0.5724  1.3741 -0.1224
  721MOL0     H95107   0.115   1.725   7.415 -0.8372  3.0083 -1.6999
  721MOL0     H95108  -0.096   1.767   7.500  0.4594  0.2649 -0.3107
  721MOL0     H95109  -0.381   1.437   7.463  1.9657  1.3042 -0.2951
  721MOL0     H95110  -0.461   1.495   7.328 -1.8530 -3.3444  1.1901
  721MOL0     H95111  -0.571   1.685   7.498  1.0732  1.3909  0.5202
  721MOL0     H95112  -0.508   1.574   7.617  0.1223 -0.6542 -1.1269
  721MOL0     H95113  -0.638   1.377   7.495 -2.3127 -0.8924  3.2342
  721MOL0     H95114  -0.712   1.512   7.417 -0.4840  0.6041  0.4278
  721MOL0     H95115  -0.713   1.504   7.725 -0.4938  1.7903  1.4768
  721MOL0     H95116  -0.790   1.606   7.609  2.3346  0.4845 -0.5398
  721MOL0     H95117  -0.838   1.304   7.667  1.7893  0.3239 -1.2887
  721MOL0     H95118  -0.891   1.390   7.516  1.6266  1.5595 -0.6341
  721MOL0     H95119  -1.054   1.524   7.633 -3.6615 -3.4903 -0.8079
  721MOL0     H95120  -0.971   1.497   7.785 -0.3266  0.7549  0.0306
  721MOL0     H95121  -1.114   1.276   7.634 -1.5275  2.4246 -1.5119
  721MOL0     H95122  -1.055   1.276   7.802  3.3156 -0.1055 -1.5241
  721MOL0     H95123  -1.211   1.494   7.809  0.8022  0.5831 -0.6207
  721MOL0     H95124  -1.261   1.332   7.858  2.9323 -2.6093 -0.5594
  721MOL0     H95125  -1.368   1.606   7.613  1.3590  1.0694 -1.6683
  721MOL0     H95126  -1.547   1.453   7.310 -1.9108 -1.5117 -0.2695
  721MOL0     H95127  -1.527   1.610   7.379 -0.8906 -1.6727 -0.3716
  721MOL0     H95128  -1.733   1.413   7.458 -0.6973  0.2647  1.3226
  721MOL0     H95129  -1.767   1.548   7.358 -0.6609  0.2244  0.8408
  721MOL0     H95130  -1.840   1.577   7.592 -0.2637  0.7689  0.5952
  721MOL0     H95131  -1.673   1.559   7.650  0.2853  1.4238 -0.5428
  721MOL0     H95132  -1.780   1.806   7.619 -4.0926 -2.8505 -1.0937
  721MOL0     H95133  -1.761   1.771   7.447  3.3665 -0.7096 -0.6802
  721MOL0     H95134  -1.682   1.791   7.805  0.7126 -1.6430 -0.4260
  721MOL0     H95135  -1.563   1.888   8.007  1.6348 -0.0561  1.1560
  721MOL0     H95136  -1.070   1.986   8.160  0.1720  1.7381  0.3184
  721MOL0     H95137  -0.958   2.018   8.382  0.4316 -1.4511 -1.5022
  721MOL0     H95138  -1.169   2.199   8.733 -1.3213  2.7045 -1.3057
  721MOL0     H95139  -1.117   2.278   8.589  0.1954 -0.8902 -1.0589
  721MOL0     H95140  -0.968   2.335   8.773 -1.1800 -0.4928  2.2608
  721MOL0     H95141  -0.876   2.228   8.656 -1.4243  1.5288 -0.1685
  721MOL0     H95142  -0.933   2.031   8.822 -2.1585  0.1412 -0.1260
  721MOL0     H95143  -0.992   2.145   8.932 -0.6148 -1.5469 -0.7967
  721MOL0     H95144  -0.728   2.160   8.808 -0.7150  3.4645 -0.1923
  721MOL0     H95145  -0.790   2.278   8.922 -1.4404  0.8912 -1.0143
  721MOL0     H95146  -0.732   1.981   8.996 -1.0333  0.5509 -3.8910
  721MOL0     H95147  -0.787   2.109   9.105  2.2137 -0.2114  1.4338
  721MOL0     H95148  -0.568   2.218   9.077 -4.3675  0.3095  2.0500
  721MOL0     H95149  -0.519   2.072   8.980 -0.3320  0.7188 -0.9846
  721MOL0     H95150  -0.646   2.080   9.255 -4.2059 -2.6129 -2.2707
  721MOL0     H95151  -0.584   1.925   9.177  3.1057 -0.2924 -1.2367
  721MOL0     H95152  -0.396   2.143   9.260 -1.1946  1.3409  3.5141
  721MOL0     H95153  -0.359   1.996   9.171 -0.9222 -1.5596  0.1633
  721MOL0     H95154  -1.343   2.068   8.573  0.0111  2.3293 -0.9051
  721MOL0     H95155  -1.453   2.032   8.350  0.2597  0.6212 -1.4085
  721MOL0     H95156  -1.280   2.041   7.714  0.1824 -0.7195 -1.1850
  721MOL0     H95157  -1.387   1.927   7.549  1.7226  1.2396  0.7784
  721MOL0     H95158  -0.243   1.457   7.242  2.5049 -1.0409 -2.0718
  721MOL0     H95159  -0.047   1.452   7.124 -1.2839 -2.2095  1.8127
  721MOL0     H95160   0.490   1.377   7.356 -2.5014  0.1513  0.8380
  721MOL0     H95161   0.717   1.364   7.267 -0.7888 -1.8929  0.2175
  721MOL0     H95162   0.780   1.607   6.880 -1.2539 -1.5019 -1.4387
  721MOL0     H95163   0.832   1.450   6.817  0.5146 -0.6100  0.2691
  721MOL0     H95164   1.002   1.614   6.814 -3.0744  0.2079 -0.5293
  721MOL0     H95165   1.000   1.631   6.990 -2.1210 -0.2566  0.7631
  721MOL0     H95166   1.051   1.372   6.851  1.0632  2.5174 -2.6284
  721MOL0     H95167   1.056   1.392   7.029  3.7482  1.6208  1.4851
  721MOL0     H95168   1.253   1.547   7.017  2.4983  0.1009  0.2047
  721MOL0     H95169   1.292   1.396   6.937  1.1785  0.8449 -2.5300
  721MOL0     H95170   1.331   1.652   6.600 -0.0032  0.7342  0.7689
  721MOL0     H95171   0.588   1.600   6.924 -0.9099  1.7219 -0.0486
  721MOL0     H95172   0.368   1.618   7.025 -1.1022 -0.4534  0.0904
  722MOL0     O95173   1.186  10.319   6.588 -0.2134 -0.4807  0.4224
  722MOL0     C95174   1.199  10.223   6.520 -0.4461  0.1050  0.4904
  722MOL0     O95175   1.102  10.126   6.497 -0.0115  0.8128  0.4484
  722MOL0     C95176   0.968  10.134   6.532  0.3268  0.2754 -0.1325
  722MOL0     C95177   0.887  10.249   6.533  0.6546 -0.5533 -0.3703
  722MOL0     C95178   0.741  10.236   6.539  0.3792  0.2767  0.5706
  722MOL0     C95179   0.673  10.110   6.540 -1.1323  0.4549  0.0838
  722MOL0     O95180   0.542  10.087   6.540  0.1251 -0.4414 -0.1060
  722MOL0     C95181   0.454  10.180   6.482 -0.3511 -0.2297  0.3934
  722MOL0     C95182   0.320  10.101   6.471  0.3929 -0.6197  0.3360
  722MOL0     C95183   0.227  10.193   6.406  0.5598  0.3615  0.0161
  722MOL0     C95184   0.087  10.132   6.421  0.4148 -0.5883  0.7596
  722MOL0     C95185  -0.023  10.228   6.362  0.5329  0.1484 -0.3905
  722MOL0     C95186  -0.156  10.142   6.351 -0.3994  0.0298 -0.4359
  722MOL0     C95187  -0.235  10.121   6.477 -0.0075  0.3220 -0.3557
  722MOL0     C95188  -0.328  10.000   6.472 -0.5334  1.0259 -0.2587
  722MOL0     N95189  -0.443  10.018   6.387  0.3578  0.2412 -0.1085
  722MOL0     C95190  -0.451  10.020   6.247 -0.0457  0.0054 -0.0538
  722MOL0     C95191  -0.581  10.012   6.212 -0.5622 -0.8719  0.3004
  722MOL0     C95192  -0.647  10.020   6.071  0.3862  0.4699 -0.5134
  722MOL0     C95193  -0.766   9.917   6.041 -0.1104 -0.2782 -0.0468
  722MOL0     C95194  -0.891   9.958   6.120 -0.3895 -0.3938 -0.4048
  722MOL0     C95195  -1.018   9.903   6.066  0.4411  0.4861  0.2972
  722MOL0     O95196  -1.100   9.868   6.175  0.1088 -1.1162  0.3103
  722MOL0     C95197  -1.201   9.952   6.196 -0.9723  0.6540 -1.0073
  722MOL0     C95198  -1.197  10.092   6.203  0.2615 -0.0946  0.2338
  722MOL0     C95199  -1.316  10.163   6.243  0.6591 -0.0274 -0.4424
  722MOL0     C95200  -1.432  10.098   6.295 -0.2092 -0.1819 -0.5081
  722MOL0     C95201  -1.541  10.170   6.350  0.8197 -0.8230  0.8819
  722MOL0     O95202  -1.519  10.304   6.374 -0.7348 -0.1406  0.0682
  722MOL0     C95203  -1.627  10.385   6.383  0.3208  0.7455  0.1001
  722MOL0     C95204  -1.745  10.389   6.209 -0.8597 -0.4128  0.4119
  722MOL0     C95205  -1.913  10.512   6.200 -0.3301  1.0101  0.1907
  722MOL0     C95206  -1.966  10.632   6.373 -0.0067  0.0996 -0.3151
  722MOL0     O95207  -2.082  10.703   6.369 -1.4486 -0.3290 -0.3754
  722MOL0     C95208  -2.099  10.787   6.482  0.4989 -0.9082 -0.6726
  722MOL0     C95209  -2.241  10.855   6.473 -0.0222  0.4647  0.1424
  722MOL0     C95210  -2.257  10.956   6.578 -0.1414  0.4267  0.3318
  722MOL0     C95211  -2.397  11.017   6.575 -0.6527 -0.6486 -0.8318
  722MOL0     C95212  -2.437  11.089   6.704  1.4509  1.0051 -0.0919
  722MOL0     C95213  -2.331  11.188   6.763  0.2886  0.3965 -0.4064
  722MOL0     C95214  -2.366  11.259   6.896 -0.6926  1.0481  0.1192
  722MOL0     C95215  -2.505  11.328   6.896  0.2980 -0.0327 -0.4726
  722MOL0    Cl95216  -2.527  11.435   6.762  0.3224  0.1942 -0.4187
  722MOL0     C95217  -1.843  10.629   6.541  0.1529 -0.1795  0.4435
  722MOL0     C95218  -1.678  10.499   6.549 -0.8306  0.0497  0.6067
  722MOL0     O95219  -1.655  10.115   6.363  0.0343 -0.3416  0.2357
  722MOL0     C95220  -1.430   9.953   6.293 -0.6368 -1.1005 -0.5284
  722MOL0     C95221  -1.312   9.887   6.249  0.0031 -0.3768  0.2386
  722MOL0     N95222  -0.652  10.011   6.329 -0.7089 -0.3943  0.2981
  722MOL0     N95223  -0.573  10.021   6.432  0.8009 -0.1137 -0.3406
  722MOL0     C95224   0.760   9.998   6.546  0.5069  0.5554  0.4188
  722MOL0     C95225   0.904  10.007   6.545 -0.3399  0.6004  0.0760
  722MOL0     C95226   1.330  10.208   6.462 -0.9344  0.5141 -0.0154
  722MOL0     C95227   1.442  10.290   6.496 -0.9928 -0.0415 -0.3837
  722MOL0     C95228   1.569  10.267   6.450 -0.5021  0.4976 -0.3909
  722MOL0     C95229   1.593  10.157   6.356  0.4017 -0.1608 -0.9711
  722MOL0     O95230   1.726  10.150   6.314  0.2792  0.5163 -0.4610
  722MOL0     C95231   1.755  10.047   6.217  0.1318 -0.8708  0.1024
  722MOL0     C95232   1.904  10.023   6.210  0.2700 -1.0216 -0.4617
  722MOL0     C95233   1.948   9.915   6.116  0.2986  0.2072  0.3552
  722MOL0     C95234   2.096   9.911   6.072  0.0208 -0.0796  0.8966
  722MOL0     C95235   2.128  10.039   5.999  0.5433  0.4276 -0.9904
  722MOL0     C95236   2.140  10.140   5.929 -0.8673  1.0756  0.0846
  722MOL0     C95237   1.482  10.081   6.317  0.7518  1.0879 -0.6594
  722MOL0     C95238   1.349  10.104   6.370  0.1205  0.2782  0.0986
  722MOL0     H95239   0.942  10.342   6.522  0.1417 -0.3698 -1.5346
  722MOL0     H95240   0.682  10.328   6.536  0.4588  0.3133  0.0260
  722MOL0     H95241   0.508  10.199   6.388 -2.0317  4.5942  0.1230
  722MOL0     H95242   0.449  10.272   6.541  0.7560  0.8818 -1.1647
  722MOL0     H95243   0.291  10.074   6.573  0.9662  3.4517  1.7769
  722MOL0     H95244   0.330  10.018   6.401  0.5756 -1.6102  1.5136
  722MOL0     H95245   0.249  10.202   6.300 -1.2231  0.7605 -0.3567
  722MOL0     H95246   0.224  10.290   6.456  1.8586 -1.2868  3.7050
  722MOL0     H95247   0.088  10.035   6.370 -0.9596  0.2792 -1.0369
  722MOL0     H95248   0.048  10.135   6.522  0.4597 -0.1208  0.7645
  722MOL0     H95249   0.004  10.253   6.259 -2.0185 -0.5298 -1.3137
  722MOL0     H95250  -0.051  10.320   6.415  1.6184  0.6857 -0.7295
  722MOL0     H95251  -0.119  10.048   6.310  1.3679  0.4568  0.1152
  722MOL0     H95252  -0.229  10.185   6.281 -1.8569 -1.1833  0.2889
  722MOL0     H95253  -0.163  10.091   6.554 -1.5063 -0.9485  0.6033
  722MOL0     H95254  -0.296  10.205   6.511 -1.3150 -1.0023  0.6826
  722MOL0     H95255  -0.359   9.965   6.571 -1.9309 -3.1995 -1.9377
  722MOL0     H95256  -0.260   9.922   6.435 -2.1809 -0.1961 -0.8599
  722MOL0     H95257  -0.362  10.007   6.186  2.1655 -0.4468  3.0264
  722MOL0     H95258  -0.570   9.997   5.997 -1.0872  1.2893 -2.3938
  722MOL0     H95259  -0.678  10.118   6.034 -0.7461 -0.6520 -2.7183
  722MOL0     H95260  -0.743   9.813   6.062 -1.4853  0.0735  4.0665
  722MOL0     H95261  -0.782   9.930   5.934  0.9123  1.1681 -0.0571
  722MOL0     H95262  -0.872   9.927   6.223  0.9362 -1.4334 -0.9329
  722MOL0     H95263  -0.903  10.066   6.114 -0.7407 -0.3674  0.5334
  722MOL0     H95264  -0.993   9.819   6.001  0.8590  0.4420  0.5141
  722MOL0     H95265  -1.066   9.984   6.009 -0.1518  0.4141  0.6946
  722MOL0     H95266  -1.097  10.130   6.190  0.3200 -0.1748  0.4505
  722MOL0     H95267  -1.312  10.271   6.241 -1.2916  0.1000  0.1607
  722MOL0     H95268  -1.702  10.338   6.123  0.7494  1.1403  0.2273
  722MOL0     H95269  -1.971  10.530   6.110 -2.8484  2.7812  2.0189
  722MOL0     H95270  -2.020  10.862   6.476  1.1440 -1.6689 -2.1755
  722MOL0     H95271  -2.097  10.734   6.578  1.2923 -0.3472 -0.3683
  722MOL0     H95272  -2.317  10.778   6.487 -0.9121  1.0151 -1.3805
  722MOL0     H95273  -2.255  10.907   6.378  2.3469  0.4754 -0.2717
  722MOL0     H95274  -2.177  11.031   6.572 -1.4139  1.7328 -1.2264
  722MOL0     H95275  -2.249  10.903   6.674  2.8434 -0.2525 -0.1859
  722MOL0     H95276  -2.411  11.089   6.494  1.5694  1.7814  0.7912
  722MOL0     H95277  -2.465  10.934   6.556 -0.3255 -0.9257 -0.7977
  722MOL0     H95278  -2.453  11.012   6.780 -2.6110 -1.8037 -3.3240
  722MOL0     H95279  -2.533  11.138   6.689 -0.1230 -1.4328  1.3064
  722MOL0     H95280  -2.317  11.266   6.687 -1.8592  0.0404 -1.2270
  722MOL0     H95281  -2.242  11.126   6.776  1.6409  2.4022  0.3685
  722MOL0     H95282  -2.365  11.183   6.974  2.3459  0.0581 -0.7674
  722MOL0     H95283  -2.296  11.334   6.934  2.8878 -3.2266  2.9731
  722MOL0     H95284  -2.520  11.380   6.991  0.6112 -0.8068  0.0173
  722MOL0     H95285  -2.585  11.254   6.893 -1.9461  2.2418  0.4138
  722MOL0     H95286  -1.872  10.694   6.623 -1.6673 -0.8018  0.3492
  722MOL0     H95287  -1.628  10.486   6.644 -1.4831  0.8593  1.0811
  722MOL0     H95288  -1.517   9.899   6.329  0.1193 -1.6820  0.4704
  722MOL0     H95289  -1.310   9.778   6.241  1.2012 -0.6960  3.4026
  722MOL0     H95290   0.722   9.896   6.542  0.3500  0.5166  2.1115
  722MOL0     H95291   0.967   9.919   6.548 -0.6616  0.3680  0.0283
  722MOL0     H95292   1.425  10.372   6.565  1.9505 -0.2322  0.7369
  722MOL0     H95293   1.652  10.332   6.475 -1.1707  2.0436 -1.9634
  722MOL0     H95294   1.716  10.082   6.121 -0.0406 -1.1542  0.0657
  722MOL0     H95295   1.706   9.953   6.245  0.5785 -1.2716 -0.4337
  722MOL0     H95296   1.949  10.123   6.214 -1.2889 -0.3005  3.2377
  722MOL0     H95297   1.924   9.992   6.313  0.5761 -1.9146 -0.7875
  722MOL0     H95298   1.890   9.907   6.023 -1.9461  0.6554  1.6337
  722MOL0     H95299   1.920   9.831   6.181  0.3528  2.4148  3.4406
  722MOL0     H95300   2.156   9.908   6.163 -0.3211 -0.2723  1.1220
  722MOL0     H95301   2.118   9.825   6.007  1.3779  0.4004  0.7035
  722MOL0     H95302   2.157  10.231   5.875  2.4031  0.8121  0.4926
  722MOL0     H95303   1.499   9.997   6.250  2.0333 -0.1395  1.1057
  722MOL0     H95304   1.267  10.042   6.336  0.9210  0.0166 -1.4179
  723MOL0     O95305  10.938   9.854   7.139 -0.2095  0.3667  0.3339
  723MOL0     C95306  10.982   9.969   7.147  0.2677  0.9955  0.7092
  723MOL0     O95307  10.927  10.073   7.086  0.1522  0.1314 -0.3601
  723MOL0     C95308  10.806  10.054   7.018 -0.4247  0.3983 -0.0092
  723MOL0     C95309  10.693   9.991   7.071  0.0574  0.9895  0.5185
  723MOL0     C95310  10.570   9.983   7.000  0.8081  0.5551  0.5398
  723MOL0     C95311  10.568  10.023   6.863 -0.2313 -0.5728 -0.5440
  723MOL0     O95312  10.460  10.008   6.782 -0.3622 -0.4482  0.3791
  723MOL0     C95313  10.355   9.924   6.829  0.0274  0.7543  0.9617
  723MOL0     C95314  10.240   9.936   6.722 -0.2747 -0.1826  0.0525
  723MOL0     C95315  10.108   9.876   6.760  0.3232  0.1639 -0.2650
  723MOL0     C95316  10.003   9.880   6.651 -0.2570 -0.2486  0.2102
  723MOL0     C95317   9.880   9.822   6.704  0.2536 -0.5043  0.7945
  723MOL0     C95318   9.762   9.836   6.605 -1.5084  0.2227  0.0962
  723MOL0     C95319   9.628   9.796   6.662  0.2144  0.1507  1.0682
  723MOL0     C95320   9.524   9.818   6.556  0.4704  0.4530  0.4085
  723MOL0     N95321   9.396   9.754   6.581  0.0149 -0.7535  1.2856
  723MOL0     C95322   9.271   9.819   6.604 -0.5349  0.6124  0.3907
  723MOL0     C95323   9.185   9.713   6.599 -0.5660 -0.1843 -1.4231
  723MOL0     C95324   9.042   9.740   6.631 -0.3772  0.8770 -0.3772
  723MOL0     C95325   8.937   9.623   6.598 -0.2315 -0.5392 -0.3887
  723MOL0     C95326   8.911   9.581   6.457  0.0523 -0.0123  0.1719
  723MOL0     C95327   8.787   9.489   6.439 -0.9393 -0.9337 -0.1786
  723MOL0     O95328   8.755   9.468   6.298  0.6568  0.3970  0.7377
  723MOL0     C95329   8.681   9.357   6.278 -0.8037 -0.0293 -0.5777
  723MOL0     C95330   8.699   9.279   6.168  0.2443 -0.2526  0.6032
  723MOL0     C95331   8.615   9.166   6.149 -0.3489 -0.2488  0.7071
  723MOL0     C95332   8.487   9.158   6.212 -0.2273  0.3760 -0.8347
  723MOL0     C95333   8.398   9.052   6.176  0.2915 -0.1859  0.2124
  723MOL0     O95334   8.303   9.010   6.263 -0.7612 -0.2838  0.1977
  723MOL0     C95335   8.188   8.937   6.236  0.4755  0.0066 -0.1723
  723MOL0     C95336   8.132   8.930   6.108  0.4821  0.3619  0.1742
  723MOL0     C95337   8.012   8.863   6.094 -0.4143  0.0287  0.2933
  723MOL0     C95338   7.942   8.795   6.189 -0.0244 -0.9258 -0.2011
  723MOL0     O95339   7.827   8.727   6.167  0.4629  0.3835 -0.0397
  723MOL0     C95340   7.770   8.654   6.271  0.2781  0.5618 -0.1773
  723MOL0     C95341   7.657   8.563   6.220  0.6896  0.4529  0.2553
  723MOL0     C95342   7.688   8.459   6.113 -0.4814 -0.0436 -0.6259
  723MOL0     C95343   7.570   8.383   6.071 -0.1324 -0.1738 -0.0989
  723MOL0     C95344   7.605   8.289   5.948 -0.0368 -0.9429 -0.5592
  723MOL0     C95345   7.483   8.222   5.878 -0.3509 -0.6672  0.0160
  723MOL0     C95346   7.519   8.142   5.746 -0.6383  0.0544 -0.5611
  723MOL0     C95347   7.394   8.138   5.660 -0.5528 -0.1701 -0.6145
  723MOL0    Cl95348   7.245   8.092   5.744 -0.0995 -0.7134 -0.0281
  723MOL0     C95349   7.994   8.813   6.317 -0.1980 -1.0075  0.2267
  723MOL0     C95350   8.109   8.887   6.345 -0.2428 -0.0037 -0.1747
  723MOL0     O95351   8.414   9.020   6.055  0.5970  1.1449  0.3838
  723MOL0     C95352   8.469   9.242   6.323  0.5198  0.1965  0.1550
  723MOL0     C95353   8.570   9.336   6.357 -0.7043 -0.9749 -0.6440
  723MOL0     N95354   9.251   9.593   6.587  0.8571  0.7980 -0.2571
  723MOL0     N95355   9.373   9.622   6.567 -0.5704 -0.2068  0.2113
  723MOL0     C95356  10.683  10.086   6.810 -0.2986  0.5992  0.2017
  723MOL0     C95357  10.795  10.097   6.889 -0.2776  0.7914  0.0293
  723MOL0     C95358  11.117   9.996   7.184 -0.5485  1.1274  1.2147
  723MOL0     C95359  11.217   9.890   7.184  0.1911 -0.4837 -0.3461
  723MOL0     C95360  11.339   9.913   7.238 -0.7046 -0.2057 -0.0212
  723MOL0     C95361  11.384  10.030   7.293 -0.4953 -0.7764 -0.0597
  723MOL0     O95362  11.507  10.037   7.350  0.0649 -0.0360 -0.1472
  723MOL0     C95363  11.556  10.162   7.398 -0.3930  0.1461 -0.0932
  723MOL0     C95364  11.704  10.139   7.449 -1.0733 -0.4482  0.4346
  723MOL0     C95365  11.792  10.131   7.322  0.2737  0.2615  0.6094
  723MOL0     C95366  11.943  10.136   7.349 -1.3144 -0.3464 -0.1802
  723MOL0     C95367  11.982  10.269   7.380 -0.2038 -0.2449 -0.7640
  723MOL0     C95368  11.990  10.388   7.416 -0.5086  0.5631  0.1329
  723MOL0     C95369  11.294  10.141   7.282  0.0462  0.1257 -0.0030
  723MOL0     C95370  11.165  10.125   7.220  0.5061  0.5514 -0.2771
  723MOL0     H95371  10.696   9.923   7.156 -0.0751 -1.4966 -1.3507
  723MOL0     H95372  10.483   9.935   7.043 -0.6627 -0.6459 -3.3201
  723MOL0     H95373  10.327   9.960   6.928  2.2038  0.1631  1.8550
  723MOL0     H95374  10.392   9.822   6.847  3.0421  1.6442  0.4509
  723MOL0     H95375  10.266   9.893   6.624 -0.1525 -0.1877  0.0865
  723MOL0     H95376  10.217  10.042   6.708 -0.5398 -0.2876 -0.3321
  723MOL0     H95377  10.061   9.919   6.849 -3.2571 -1.3342 -1.2211
  723MOL0     H95378  10.128   9.769   6.775 -1.5866 -0.4612 -1.8069
  723MOL0     H95379   9.981   9.987   6.642  1.2420  0.3342  2.5150
  723MOL0     H95380  10.038   9.851   6.552 -0.0925  2.0371 -0.4438
  723MOL0     H95381   9.857   9.868   6.800 -2.0778 -0.2899  0.1985
  723MOL0     H95382   9.900   9.717   6.729 -1.0294 -1.1058 -0.5103
  723MOL0     H95383   9.773   9.776   6.514 -1.5106 -0.3824  0.4866
  723MOL0     H95384   9.764   9.941   6.576 -2.8013  0.4290  0.6733
  723MOL0     H95385   9.638   9.692   6.694 -0.2577  0.1398  1.1825
  723MOL0     H95386   9.606   9.865   6.743 -2.4088  1.7029 -0.7937
  723MOL0     H95387   9.557   9.772   6.462 -1.4918 -2.2374  0.9329
  723MOL0     H95388   9.512   9.925   6.535 -2.4947  0.0647 -0.3983
  723MOL0     H95389   9.251   9.925   6.612  1.7520  1.1884 -0.9041
  723MOL0     H95390   9.014   9.835   6.585 -5.1533 -1.1755 -2.3360
  723MOL0     H95391   9.040   9.758   6.739  2.9200 -3.4510  0.6808
  723MOL0     H95392   8.843   9.653   6.645  0.4233  1.2923 -0.1543
  723MOL0     H95393   8.973   9.533   6.648  1.4142  1.0983  1.5964
  723MOL0     H95394   8.883   9.666   6.394  1.0268 -1.5465 -2.4488
  723MOL0     H95395   8.999   9.541   6.406 -0.8255 -0.1570 -1.2564
  723MOL0     H95396   8.705   9.525   6.502 -0.6936 -0.8296  0.0815
  723MOL0     H95397   8.812   9.390   6.480 -1.7369 -0.8518  0.5204
  723MOL0     H95398   8.783   9.300   6.102  1.4890 -2.1967  1.4686
  723MOL0     H95399   8.647   9.082   6.087  1.7022  0.9462  0.0707
  723MOL0     H95400   8.182   8.983   6.027  1.9943 -0.5871  0.4532
  723MOL0     H95401   7.985   8.848   5.990  1.2167 -0.6146 -0.0707
  723MOL0     H95402   7.731   8.717   6.352  1.8702  0.7167  0.4969
  723MOL0     H95403   7.852   8.593   6.309  0.4144  0.8338 -0.0385
  723MOL0     H95404   7.583   8.636   6.185  1.4452  0.1400 -2.1356
  723MOL0     H95405   7.623   8.510   6.309  1.3639 -1.9788 -0.8685
  723MOL0     H95406   7.771   8.402   6.157  1.3608  2.5390 -0.5025
  723MOL0     H95407   7.736   8.513   6.030 -0.8416 -1.0484 -1.5031
  723MOL0     H95408   7.538   8.321   6.155 -2.8435  1.1272 -0.0675
  723MOL0     H95409   7.488   8.450   6.043  0.7191  1.5615  1.3311
  723MOL0     H95410   7.677   8.220   5.995  2.4343  1.6708 -0.2270
  723MOL0     H95411   7.650   8.362   5.880 -1.8413  1.8237  1.0786
  723MOL0     H95412   7.409   8.301   5.863 -0.0376 -0.2403  0.6461
  723MOL0     H95413   7.449   8.152   5.956  0.6442 -0.5894  0.5510
  723MOL0     H95414   7.607   8.191   5.702  0.2403 -1.7382 -0.8814
  723MOL0     H95415   7.546   8.039   5.769 -2.1500 -0.2072  0.1407
  723MOL0     H95416   7.404   8.067   5.577  0.7124 -2.9557  1.7362
  723MOL0     H95417   7.379   8.237   5.616  2.2168  0.1474 -1.0433
  723MOL0     H95418   7.945   8.762   6.400  0.2848 -3.3003 -0.8189
  723MOL0     H95419   8.142   8.890   6.448  1.7909 -1.1310 -0.7414
  723MOL0     H95420   8.379   9.243   6.382 -0.3476  2.7615 -1.0396
  723MOL0     H95421   8.556   9.398   6.445 -0.3017  0.9382 -1.8928
  723MOL0     H95422  10.679  10.127   6.710  0.3704  0.3199  0.0479
  723MOL0     H95423  10.883  10.144   6.845 -0.2872 -0.1007 -0.9596
  723MOL0     H95424  11.186   9.790   7.152 -0.0613 -1.0842  1.6361
  723MOL0     H95425  11.397   9.821   7.235  1.7944  1.2859 -0.5761
  723MOL0     H95426  11.498  10.202   7.482 -0.6102  2.4494 -1.2625
  723MOL0     H95427  11.556  10.231   7.313  1.6780 -1.0110 -1.1014
  723MOL0     H95428  11.734  10.228   7.505 -0.1289 -0.7058  0.3641
  723MOL0     H95429  11.713  10.051   7.513  0.8420 -1.0145 -0.5155
  723MOL0     H95430  11.758  10.198   7.243  1.9201  1.0581  0.5176
  723MOL0     H95431  11.775  10.031   7.281 -1.6053  1.2331 -1.1465
  723MOL0     H95432  11.967  10.067   7.430 -1.2610 -1.5411 -1.1852
  723MOL0     H95433  11.995  10.096   7.261  2.9544  1.2562  1.3743
  723MOL0     H95434  11.996  10.485   7.460 -0.6650  0.3261  0.6860
  723MOL0     H95435  11.312  10.241   7.318 -1.4083  0.8409 -1.1557
  723MOL0     H95436  11.107  10.216   7.218  0.6144  0.6354  0.2587
  724MOL0     O95437   1.168   0.877   2.703 -0.2587 -0.4127 -0.2503
  724MOL0     C95438   1.216   0.813   2.797  0.8484 -0.8604 -0.6998
  724MOL0     O95439   1.137   0.757   2.906  0.2006 -0.3762 -0.5131
  724MOL0     C95440   1.003   0.777   2.902  0.8464 -0.1576  0.5983
  724MOL0     C95441   0.920   0.751   2.791  0.4956 -0.0402  0.3618
  724MOL0     C95442   0.784   0.775   2.804 -0.1587 -0.0861  0.3073
  724MOL0     C95443   0.725   0.828   2.919  0.2026  0.5756 -0.8120
  724MOL0     O95444   0.585   0.839   2.917 -0.8436 -0.0283  1.4229
  724MOL0     C95445   0.499   0.844   3.028 -0.2115  0.2223  0.2596
  724MOL0     C95446   0.352   0.824   2.985  0.6067 -0.0738  0.1682
  724MOL0     C95447   0.321   0.713   2.883  0.0590 -0.8435 -0.0559
  724MOL0     C95448   0.174   0.713   2.846 -0.7032 -0.1522  0.7488
  724MOL0     C95449   0.088   0.647   2.948  0.2335 -0.6707  0.2242
  724MOL0     C95450  -0.056   0.615   2.896 -1.3584  0.1732 -0.8039
  724MOL0     C95451  -0.125   0.745   2.860  0.4914  0.4977 -0.1376
  724MOL0     C95452  -0.271   0.712   2.814  0.9379 -0.4257  0.0337
  724MOL0     N95453  -0.263   0.661   2.681  0.1202 -0.0088 -0.2063
  724MOL0     C95454  -0.255   0.527   2.648 -0.2861  0.0139  0.1383
  724MOL0     C95455  -0.226   0.538   2.515  1.2312  0.5410 -0.0911
  724MOL0     C95456  -0.227   0.429   2.414 -0.0202  0.1071 -0.9807
  724MOL0     C95457  -0.343   0.455   2.319 -0.7101  0.5616  0.9871
  724MOL0     C95458  -0.479   0.459   2.379 -0.0791 -0.1818  0.0339
  724MOL0     C95459  -0.588   0.439   2.277  0.6423 -0.6346 -0.3030
  724MOL0     O95460  -0.715   0.474   2.334 -0.7542 -0.2800  0.0647
  724MOL0     C95461  -0.816   0.483   2.240  0.1877 -0.0283 -0.7796
  724MOL0     C95462  -0.827   0.424   2.107 -0.0618  0.7267  0.1303
  724MOL0     C95463  -0.941   0.453   2.026 -0.1468  0.7964  0.7671
  724MOL0     C95464  -1.045   0.522   2.073  0.4453 -0.1406 -0.0432
  724MOL0     C95465  -1.155   0.558   1.985 -0.4679  0.1446  0.6351
  724MOL0     O95466  -1.264   0.625   2.045 -0.0906  0.4287  0.0804
  724MOL0     C95467  -1.383   0.623   1.985  1.2461 -0.4154 -0.3856
  724MOL0     C95468  -1.404   0.669   1.856 -0.5358 -0.4240  0.0762
  724MOL0     C95469  -1.533   0.680   1.793 -0.5835  0.7251  0.2983
  724MOL0     C95470  -1.640   0.621   1.865 -0.8248 -0.6251  0.8098
  724MOL0     O95471  -1.766   0.645   1.811 -0.2160  0.3663 -0.0151
  724MOL0     C95472  -1.885   0.611   1.884 -0.6718 -0.4369  0.5273
  724MOL0     C95473  -2.000   0.645   1.789 -0.7070  0.2973  0.0565
  724MOL0     C95474  -2.130   0.595   1.849  0.3205  0.1043  0.1593
  724MOL0     C95475  -2.243   0.599   1.746 -0.1396  0.3581  0.5344
  724MOL0     C95476  -2.369   0.542   1.813  0.6373  0.1261  0.0705
  724MOL0     C95477  -2.472   0.522   1.704  0.1968  0.2008  0.3309
  724MOL0     C95478  -2.596   0.441   1.755 -0.5770  0.2806 -0.1935
  724MOL0     C95479  -2.682   0.395   1.638  0.0901  0.1774  0.5176
  724MOL0    Cl95480  -2.727   0.528   1.522 -0.5064  0.0461 -0.2338
  724MOL0     C95481  -1.623   0.581   1.993  0.0673  0.1342  0.2274
  724MOL0     C95482  -1.498   0.579   2.051  0.6412 -0.1987 -0.1688
  724MOL0     O95483  -1.146   0.527   1.866  0.2019  0.3767 -0.0143
  724MOL0     C95484  -1.052   0.569   2.214  0.0772 -0.4705  0.7081
  724MOL0     C95485  -0.935   0.554   2.287  1.1057  0.1391 -0.6471
  724MOL0     N95486  -0.237   0.672   2.468 -0.2064 -0.0709 -0.2121
  724MOL0     N95487  -0.254   0.747   2.572 -0.6964 -0.2368  0.5581
  724MOL0     C95488   0.810   0.861   3.022  0.1873  0.1435  0.7597
  724MOL0     C95489   0.948   0.837   3.019 -0.0019 -0.3852 -0.8807
  724MOL0     C95490   1.359   0.782   2.797 -0.1651 -1.1236  1.5520
  724MOL0     C95491   1.432   0.783   2.675 -0.0393  0.2320  0.0381
  724MOL0     C95492   1.571   0.767   2.678 -0.0897  0.5749 -0.2672
  724MOL0     C95493   1.634   0.734   2.801  0.4153 -0.8589 -0.0878
  724MOL0     O95494   1.768   0.719   2.827 -0.7750  0.3348 -0.4169
  724MOL0     C95495   1.863   0.770   2.725 -1.2295  0.3084 -0.5074
  724MOL0     C95496   2.010   0.739   2.751 -0.1628  0.0783 -0.4567
  724MOL0     C95497   2.051   0.587   2.744 -0.1306 -1.2677  0.1234
  724MOL0     C95498   2.202   0.580   2.770 -0.6031  0.5986  0.1444
  724MOL0     C95499   2.261   0.563   2.903  0.5246  0.3015 -0.5166
  724MOL0     C95500   2.307   0.542   3.019  0.3009  0.2005 -0.1014
  724MOL0     C95501   1.554   0.716   2.918  0.2123  0.1000 -0.2522
  724MOL0     C95502   1.417   0.743   2.913 -0.6510  0.0294  0.3024
  724MOL0     H95503   0.971   0.709   2.705  1.7972  1.6073  0.2617
  724MOL0     H95504   0.708   0.747   2.732 -1.1838 -0.3309  1.4453
  724MOL0     H95505   0.515   0.941   3.077  2.0775  0.9355 -1.7048
  724MOL0     H95506   0.532   0.765   3.096 -2.1558  0.9569  2.1584
  724MOL0     H95507   0.312   0.921   2.955  2.5928  0.7414  0.0111
  724MOL0     H95508   0.298   0.805   3.078  0.6496  0.9398  0.4142
  724MOL0     H95509   0.366   0.623   2.926  0.5486 -0.4453  0.2787
  724MOL0     H95510   0.374   0.735   2.790  0.2600 -2.2187 -0.2774
  724MOL0     H95511   0.149   0.820   2.839  2.3771  0.7041  1.4227
  724MOL0     H95512   0.174   0.666   2.747  0.9395  0.5611  0.3634
  724MOL0     H95513   0.082   0.700   3.043 -0.8321 -0.3472 -0.0097
  724MOL0     H95514   0.140   0.554   2.969 -0.2231 -0.9025  0.3397
  724MOL0     H95515  -0.116   0.563   2.972  1.3319  0.0836  1.4223
  724MOL0     H95516  -0.049   0.553   2.807 -0.8091 -2.9717  1.2544
  724MOL0     H95517  -0.124   0.807   2.949  2.7226  1.5374 -0.8257
  724MOL0     H95518  -0.064   0.785   2.779  0.4939 -1.0429 -0.9438
  724MOL0     H95519  -0.341   0.794   2.828  1.3108  0.0469 -0.7731
  724MOL0     H95520  -0.316   0.635   2.877  2.8370 -1.0278  0.7344
  724MOL0     H95521  -0.260   0.440   2.712 -2.5214 -0.7568 -0.9572
  724MOL0     H95522  -0.217   0.333   2.466  0.7782 -0.3326 -1.9196
  724MOL0     H95523  -0.140   0.421   2.348  1.1788 -1.1125  0.6676
  724MOL0     H95524  -0.340   0.380   2.240 -1.3849  0.8475  0.6777
  724MOL0     H95525  -0.316   0.550   2.272 -0.5627 -0.1752 -0.4645
  724MOL0     H95526  -0.485   0.379   2.454  0.4077  0.0572  0.3332
  724MOL0     H95527  -0.492   0.548   2.442 -0.3791 -0.5847  0.5510
  724MOL0     H95528  -0.589   0.331   2.257  3.0255 -0.6446 -0.7313
  724MOL0     H95529  -0.566   0.484   2.180  0.2643  2.1795  0.8207
  724MOL0     H95530  -0.745   0.373   2.059 -1.3789  1.3672 -3.0567
  724MOL0     H95531  -0.936   0.408   1.927 -1.2802 -1.7868  1.7886
  724MOL0     H95532  -1.320   0.695   1.792  0.4014 -2.4934  0.3856
  724MOL0     H95533  -1.538   0.708   1.689  0.5937 -1.1592 -0.3211
  724MOL0     H95534  -1.900   0.670   1.974  0.7858 -0.2810  0.6937
  724MOL0     H95535  -1.887   0.505   1.911 -0.7958 -0.4591  0.4326
  724MOL0     H95536  -1.984   0.583   1.701  1.6480 -3.9269  3.0698
  724MOL0     H95537  -2.000   0.751   1.762  1.5145 -0.2234 -2.3125
  724MOL0     H95538  -2.165   0.651   1.937 -0.5196 -1.3008  0.7519
  724MOL0     H95539  -2.104   0.492   1.874 -0.0133  0.0959  0.4887
  724MOL0     H95540  -2.249   0.705   1.720 -0.3272  0.1035 -0.4944
  724MOL0     H95541  -2.215   0.543   1.656  0.9972  0.7363  0.6379
  724MOL0     H95542  -2.405   0.609   1.892 -0.4633 -1.4571  0.9714
  724MOL0     H95543  -2.354   0.441   1.851 -4.0175 -0.3688  1.2887
  724MOL0     H95544  -2.426   0.469   1.620  1.2764  1.2313  0.2563
  724MOL0     H95545  -2.493   0.622   1.665  1.2302  1.2746  2.3682
  724MOL0     H95546  -2.560   0.355   1.812 -0.5658 -0.1052 -0.7708
  724MOL0     H95547  -2.647   0.505   1.827 -1.7123 -0.3864 -0.3870
  724MOL0     H95548  -2.774   0.345   1.672 -1.1266  1.1666 -1.1611
  724MOL0     H95549  -2.633   0.314   1.583 -1.2262  0.0461 -0.5381
  724MOL0     H95550  -1.700   0.559   2.065  1.3650 -1.6871  1.1315
  724MOL0     H95551  -1.496   0.545   2.154 -1.9808  1.1621  0.4133
  724MOL0     H95552  -1.135   0.632   2.246  0.0501  0.0995 -0.4510
  724MOL0     H95553  -0.924   0.599   2.385  1.2743  1.0439 -1.0694
  724MOL0     H95554   0.766   0.908   3.110 -3.6642 -0.0367 -0.8378
  724MOL0     H95555   1.012   0.857   3.104  1.5911 -0.1489 -2.0803
  724MOL0     H95556   1.383   0.809   2.582  0.7325 -2.0557 -1.0874
  724MOL0     H95557   1.614   0.797   2.583  0.5081  1.2957  0.2180
  724MOL0     H95558   1.849   0.878   2.735 -0.0596  0.2707  2.7874
  724MOL0     H95559   1.837   0.741   2.623 -3.6653 -0.5063  0.2649
  724MOL0     H95560   2.069   0.797   2.680  0.3533  0.0741 -0.0385
  724MOL0     H95561   2.025   0.767   2.855 -2.9798 -1.4153  0.4637
  724MOL0     H95562   2.030   0.568   2.639 -4.6513 -0.5660  0.6837
  724MOL0     H95563   1.991   0.529   2.815  1.1111 -2.0692  0.5428
  724MOL0     H95564   2.223   0.484   2.721  0.4666  1.5813 -1.4245
  724MOL0     H95565   2.256   0.659   2.717  2.6334  0.6537  3.1338
  724MOL0     H95566   2.363   0.523   3.108  1.2696 -0.0155 -0.7337
  724MOL0     H95567   1.593   0.693   3.016 -0.1854 -0.6194 -0.2544
  724MOL0     H95568   1.359   0.747   3.005 -2.2263  2.1830 -0.6952
  725MOL0     O95569  10.581   0.557   8.340  0.7803 -0.3648  0.0163
  725MOL0     C95570  10.567   0.472   8.427  0.5768  0.1876 -0.4405
  725MOL0     O95571  10.623   0.349   8.427 -0.2574  0.1708  0.5104
  725MOL0     C95572  10.649   0.301   8.301  0.4620 -0.3867 -0.0269
  725MOL0     C95573  10.545   0.265   8.214  0.8897  0.2283 -0.2132
  725MOL0     C95574  10.575   0.219   8.087 -0.2628 -0.0944  0.5919
  725MOL0     C95575  10.714   0.200   8.045 -0.1375 -0.9131  0.1859
  725MOL0     O95576  10.745   0.180   7.912  0.3206 -0.8909 -0.8651
  725MOL0     C95577  10.689   0.283   7.827  0.2757 -0.2725 -0.3118
  725MOL0     C95578  10.771   0.298   7.707  0.1618 -0.1534  0.2419
  725MOL0     C95579  10.913   0.342   7.736 -0.1050 -0.1290 -0.4557
  725MOL0     C95580  10.978   0.367   7.597  0.1848  0.3525 -0.4997
  725MOL0     C95581  11.126   0.385   7.608  0.3454 -0.0050 -0.1001
  725MOL0     C95582  11.192   0.415   7.469  0.4839 -0.1793  0.1738
  725MOL0     C95583  11.341   0.411   7.471  0.0805 -0.5164 -0.1778
  725MOL0     C95584  11.390   0.421   7.325  0.3783  0.1009  0.7612
  725MOL0     N95585  11.342   0.335   7.218  0.4234  0.5416  0.0516
  725MOL0     C95586  11.370   0.202   7.214 -0.1414 -0.6512 -0.0384
  725MOL0     C95587  11.307   0.151   7.106 -0.5438 -0.4027  0.3629
  725MOL0     C95588  11.316   0.015   7.039  0.2962  0.4203  0.4069
  725MOL0     C95589  11.191  -0.073   7.074  0.4077 -0.2132  0.8291
  725MOL0     C95590  11.059  -0.038   6.996  1.0231 -0.1667 -0.1203
  725MOL0     C95591  10.959  -0.149   6.993 -0.3215 -0.0796  0.0506
  725MOL0     O95592  10.894  -0.153   7.117 -0.1454 -0.0282  0.4061
  725MOL0     C95593  10.769  -0.219   7.124  0.4001  0.0457  0.5173
  725MOL0     C95594  10.665  -0.150   7.188  0.2231 -0.2324  0.5560
  725MOL0     C95595  10.539  -0.207   7.178 -0.2228  0.1239 -0.3790
  725MOL0     C95596  10.509  -0.329   7.113 -0.1561 -0.5590 -0.3562
  725MOL0     C95597  10.380  -0.383   7.116 -0.8513  0.0981 -0.2233
  725MOL0     O95598  10.297  -0.353   7.217  0.4459  0.4414  0.0729
  725MOL0     C95599  10.170  -0.414   7.221  0.3121  0.1905  0.6739
  725MOL0     C95600  10.064  -0.357   7.151  0.1307  0.0683 -0.0515
  725MOL0     C95601   9.937  -0.413   7.151 -0.1167 -0.4368 -0.5547
  725MOL0     C95602   9.913  -0.540   7.214 -0.2788  0.9018  0.4756
  725MOL0     O95603   9.790  -0.598   7.205  0.5044  0.5863 -0.2150
  725MOL0     C95604   9.757  -0.727   7.269  0.4030 -0.4240  0.2485
  725MOL0     C95605   9.607  -0.771   7.263 -0.6059 -0.0993 -0.3013
  725MOL0     C95606   9.582  -0.833   7.125 -0.1832 -0.1246  0.9757
  725MOL0     C95607   9.438  -0.856   7.094  0.0138 -0.4630  0.3451
  725MOL0     C95608   9.418  -0.876   6.943 -0.0885  0.0723 -0.7955
  725MOL0     C95609   9.297  -0.972   6.903  0.3598  0.2844 -0.0462
  725MOL0     C95610   9.162  -0.894   6.901  0.2854  0.0552 -0.5764
  725MOL0     C95611   9.052  -0.995   6.936  0.7913 -0.6495 -0.9132
  725MOL0    Cl95612   9.029  -1.113   6.812 -0.1541 -0.0699 -0.2371
  725MOL0     C95613  10.024  -0.596   7.280  0.0552  0.3970 -0.2105
  725MOL0     C95614  10.152  -0.531   7.285 -0.1644  0.7339 -0.0563
  725MOL0     O95615  10.353  -0.453   7.021 -0.6124  0.7687 -0.6281
  725MOL0     C95616  10.619  -0.393   7.055  0.0424 -0.4673  1.0361
  725MOL0     C95617  10.745  -0.336   7.061 -0.1924  1.0850  0.2717
  725MOL0     N95618  11.261   0.257   7.030  0.0480 -0.3573 -0.5456
  725MOL0     N95619  11.286   0.370   7.099  0.2509 -0.2847  0.4412
  725MOL0     C95620  10.819   0.223   8.138 -0.1684 -0.2097  0.5769
  725MOL0     C95621  10.783   0.278   8.261 -0.3557 -0.2569 -0.3872
  725MOL0     C95622  10.452   0.488   8.519 -0.4933 -0.5133  0.6830
  725MOL0     C95623  10.416   0.380   8.591 -0.0185  1.0478 -0.9065
  725MOL0     C95624  10.311   0.380   8.682  0.4539 -1.0805 -0.7250
  725MOL0     C95625  10.236   0.500   8.696  0.7742  0.0918  0.5883
  725MOL0     O95626  10.129   0.518   8.784 -0.8370 -0.4448  0.8049
  725MOL0     C95627  10.086   0.402   8.858  0.1351 -0.7556  1.1442
  725MOL0     C95628   9.955   0.439   8.925 -1.0214  0.2784  0.5495
  725MOL0     C95629   9.880   0.316   8.959  0.3210  0.5378 -0.1186
  725MOL0     C95630   9.784   0.271   8.848 -0.6462  0.2391  0.2616
  725MOL0     C95631   9.675   0.179   8.894 -0.1585 -0.1440 -0.4462
  725MOL0     C95632   9.576   0.120   8.931  0.1714 -0.1951  0.7592
  725MOL0     C95633  10.276   0.606   8.619 -0.0968 -0.1902  0.9185
  725MOL0     C95634  10.386   0.608   8.531  0.7533  0.4773  0.8299
  725MOL0     H95635  10.440   0.268   8.241  0.4371  3.8053 -1.7085
  725MOL0     H95636  10.487   0.202   8.026  0.3889 -2.7231  0.2713
  725MOL0     H95637  10.684   0.382   7.874  0.5259 -0.4316  0.0534
  725MOL0     H95638  10.591   0.237   7.811 -0.2290 -0.1611  1.9787
  725MOL0     H95639  10.731   0.375   7.640  0.6539  1.0074  1.2495
  725MOL0     H95640  10.777   0.209   7.643  3.0556 -0.7596  1.2511
  725MOL0     H95641  10.962   0.268   7.801 -1.7628 -1.6064 -0.8296
  725MOL0     H95642  10.908   0.440   7.784  3.3793 -1.0650  2.2756
  725MOL0     H95643  10.948   0.286   7.530  0.0922 -0.3353  0.3419
  725MOL0     H95644  10.936   0.459   7.557 -1.5924  0.4510  1.4026
  725MOL0     H95645  11.169   0.289   7.638  1.6521  0.0326 -1.7139
  725MOL0     H95646  11.155   0.461   7.681  0.2135  0.6375 -0.7044
  725MOL0     H95647  11.159   0.510   7.426 -3.4464 -0.9444  1.1174
  725MOL0     H95648  11.159   0.338   7.399  0.1106  0.5821 -0.4964
  725MOL0     H95649  11.384   0.500   7.517  1.5753 -0.7945 -0.9548
  725MOL0     H95650  11.371   0.320   7.523 -0.6667  0.0436  1.2810
  725MOL0     H95651  11.498   0.406   7.334  0.6435  0.5310 -1.1471
  725MOL0     H95652  11.378   0.527   7.297 -0.6623 -0.0281  0.6591
  725MOL0     H95653  11.422   0.139   7.285 -1.2944 -1.1983  0.3375
  725MOL0     H95654  11.402  -0.043   7.073  0.7955 -0.4504 -2.1473
  725MOL0     H95655  11.327   0.029   6.932 -1.3623 -0.5225  0.0775
  725MOL0     H95656  11.175  -0.068   7.182  1.4427  0.2046  0.9682
  725MOL0     H95657  11.209  -0.175   7.039 -1.5473 -0.0271 -0.9365
  725MOL0     H95658  11.004   0.042   7.047 -1.4369 -0.4954 -2.1087
  725MOL0     H95659  11.080  -0.005   6.894 -0.0805  0.2062 -0.2339
  725MOL0     H95660  11.003  -0.248   6.982 -0.2213 -0.1683  1.1675
  725MOL0     H95661  10.895  -0.129   6.907  1.9862 -0.7752 -1.9332
  725MOL0     H95662  10.688  -0.054   7.232 -1.2867  0.3365  0.1567
  725MOL0     H95663  10.456  -0.153   7.223 -1.3308 -1.9267  0.1818
  725MOL0     H95664  10.080  -0.258   7.110 -1.9156  1.5162  2.3688
  725MOL0     H95665   9.848  -0.360   7.120 -1.6331 -1.5786  1.5921
  725MOL0     H95666   9.785  -0.724   7.375  2.2866 -2.7443 -0.0837
  725MOL0     H95667   9.820  -0.800   7.217 -0.9167  0.5416 -2.8963
  725MOL0     H95668   9.551  -0.677   7.266 -1.7427 -0.7939  0.9812
  725MOL0     H95669   9.576  -0.838   7.344 -0.2464 -0.8942 -0.8156
  725MOL0     H95670   9.639  -0.925   7.107 -0.4645  0.2490 -2.5192
  725MOL0     H95671   9.627  -0.773   7.046  2.0142 -0.4093  1.9345
  725MOL0     H95672   9.412  -0.950   7.143  2.2965 -2.0005 -1.2018
  725MOL0     H95673   9.373  -0.778   7.136 -2.0807 -0.6108 -2.3351
  725MOL0     H95674   9.512  -0.913   6.902  0.9241  2.6823 -1.0818
  725MOL0     H95675   9.404  -0.777   6.898 -0.1080  0.3173 -0.2653
  725MOL0     H95676   9.288  -1.057   6.971 -1.7925 -0.1475 -0.7920
  725MOL0     H95677   9.312  -1.025   6.808  0.7833 -1.0122  0.7070
  725MOL0     H95678   9.158  -0.814   6.976 -0.8450  0.3494 -0.9278
  725MOL0     H95679   9.133  -0.851   6.804 -0.8973  1.9454  0.5437
  725MOL0     H95680   8.956  -0.944   6.937  1.5165  0.7594  0.2939
  725MOL0     H95681   9.068  -1.032   7.038 -0.0648 -0.1319 -0.5801
  725MOL0     H95682  10.028  -0.697   7.319  3.4454 -1.5549 -4.7041
  725MOL0     H95683  10.232  -0.588   7.332  0.6185  0.3725 -1.7438
  725MOL0     H95684  10.619  -0.485   6.998 -1.4905  1.3230 -2.0528
  725MOL0     H95685  10.827  -0.387   7.011 -0.4166  0.1328  0.8627
  725MOL0     H95686  10.921   0.214   8.101 -0.8226 -0.8337 -1.1920
  725MOL0     H95687  10.858   0.285   8.338 -2.4253  2.0394  1.6177
  725MOL0     H95688  10.474   0.289   8.587  1.2356  1.8102 -0.6120
  725MOL0     H95689  10.290   0.287   8.733 -1.5285 -0.1385  0.2840
  725MOL0     H95690  10.165   0.377   8.930  2.1946 -0.6517 -0.9489
  725MOL0     H95691  10.068   0.321   8.787 -0.7685  0.7291 -0.4136
  725MOL0     H95692   9.994   0.492   9.013 -0.6753  2.0087 -0.5999
  725MOL0     H95693   9.902   0.506   8.857 -0.2644 -0.5426 -0.8952
  725MOL0     H95694   9.821   0.349   9.044 -1.1446 -0.6246 -0.6381
  725MOL0     H95695   9.940   0.232   8.993 -3.4805 -1.6805  1.7724
  725MOL0     H95696   9.746   0.355   8.790  1.2182  1.0030  0.0973
  725MOL0     H95697   9.846   0.211   8.782  0.4795  1.2179  0.4083
  725MOL0     H95698   9.484   0.080   8.969 -2.0981  2.2616 -1.6677
  725MOL0     H95699  10.219   0.699   8.618 -0.5978 -0.4797  1.5930
  725MOL0     H95700  10.421   0.700   8.484 -3.2903  2.4951  1.3025
  726MOL0     O95701   9.981   8.137   7.896  0.3491 -0.5348 -0.2183
  726MOL0     C95702   9.935   8.092   7.787  0.1515  0.5432 -0.8412
  726MOL0     O95703   9.897   8.161   7.680 -0.5579 -0.3510 -0.8622
  726MOL0     C95704   9.928   8.294   7.671  0.6259 -0.6013 -0.1833
  726MOL0     C95705   9.832   8.393   7.651  0.0706  0.1629 -0.1651
  726MOL0     C95706   9.875   8.518   7.609 -0.0231 -0.4722 -0.2845
  726MOL0     C95707  10.012   8.551   7.591  0.1699 -0.5131 -0.1707
  726MOL0     O95708  10.046   8.684   7.554  0.2602  0.5497 -0.5273
  726MOL0     C95709  10.179   8.693   7.492  0.5392 -0.3605  0.0637
  726MOL0     C95710  10.166   8.798   7.378  0.1668  0.3126 -0.7027
  726MOL0     C95711  10.294   8.797   7.289  0.0292  0.1213 -0.1371
  726MOL0     C95712  10.406   8.881   7.361  0.0114  0.1554 -0.7319
  726MOL0     C95713  10.526   8.913   7.263  1.4581  0.2180 -0.1087
  726MOL0     C95714  10.612   8.789   7.230 -0.1272 -0.5094  0.0715
  726MOL0     C95715  10.732   8.830   7.140  0.0498 -0.9268 -0.9883
  726MOL0     C95716  10.835   8.716   7.138 -0.2135 -0.1787  0.2419
  726MOL0     N95717  10.908   8.692   7.265 -0.1456 -0.0063 -0.0193
  726MOL0     C95718  10.975   8.781   7.325 -0.6679 -0.3200  0.1332
  726MOL0     C95719  11.030   8.719   7.425 -0.1609  0.8395 -0.1932
  726MOL0     C95720  11.127   8.777   7.531 -0.1966 -0.1526 -0.9484
  726MOL0     C95721  11.093   8.728   7.678  0.5513  0.6594 -0.1145
  726MOL0     C95722  11.194   8.770   7.785  0.1399  0.0151 -0.3281
  726MOL0     C95723  11.307   8.667   7.791 -0.6173  0.4412  0.4347
  726MOL0     O95724  11.272   8.524   7.792  0.3267 -0.3256 -0.5962
  726MOL0     C95725  11.183   8.479   7.892 -0.1693  0.0387  0.9468
  726MOL0     C95726  11.060   8.424   7.863 -0.6799  0.2022 -0.4815
  726MOL0     C95727  10.993   8.347   7.960  0.6809  0.1004  1.0967
  726MOL0     C95728  11.038   8.330   8.093 -0.0648  0.3736  0.6082
  726MOL0     C95729  10.957   8.253   8.190  0.8262  0.2563  0.3540
  726MOL0     O95730  10.824   8.223   8.152  0.4505 -0.2656  0.0327
  726MOL0     C95731  10.739   8.146   8.227  0.4134  0.3609 -0.1540
  726MOL0     C95732  10.786   8.043   8.303  0.0402 -0.2322 -0.2448
  726MOL0     C95733  10.695   7.962   8.375  1.1822 -0.8337 -0.5536
  726MOL0     C95734  10.554   7.987   8.375  0.6950 -0.4537 -0.1972
  726MOL0     O95735  10.456   7.896   8.411  0.5616 -1.1021  0.6727
  726MOL0     C95736  10.485   7.811   8.522  0.0296 -0.5929 -0.1265
  726MOL0     C95737  10.347   7.777   8.587 -0.5943 -0.7102 -0.2009
  726MOL0     C95738  10.273   7.678   8.499  0.2226  0.4447  1.0985
  726MOL0     C95739  10.143   7.619   8.562 -0.5062 -1.0143 -0.2756
  726MOL0     C95740  10.088   7.517   8.463  0.6195 -0.0463 -0.2675
  726MOL0     C95741   9.955   7.449   8.513 -1.1876  0.2460 -0.0948
  726MOL0     C95742   9.837   7.532   8.453 -0.6898 -0.3205  0.0610
  726MOL0     C95743   9.799   7.504   8.306  0.5898 -0.1352  0.4763
  726MOL0    Cl95744   9.625   7.542   8.292 -0.0760 -0.0222 -0.3336
  726MOL0     C95745  10.511   8.094   8.294 -1.0696 -0.2622  0.6675
  726MOL0     C95746  10.605   8.178   8.229  0.2255  0.8679  0.0714
  726MOL0     O95747  11.003   8.236   8.303  0.0607 -0.9307  0.2619
  726MOL0     C95748  11.161   8.394   8.123  0.5621  0.6124  0.2690
  726MOL0     C95749  11.231   8.462   8.024  0.0848  0.0372 -0.5217
  726MOL0     N95750  10.988   8.581   7.422  0.9228 -0.7220  0.7295
  726MOL0     N95751  10.898   8.574   7.331  0.4594 -0.6910 -0.2729
  726MOL0     C95752  10.104   8.448   7.620  0.4244 -0.6550 -0.1398
  726MOL0     C95753  10.064   8.322   7.657  1.1005  0.1067 -1.0130
  726MOL0     C95754   9.924   7.941   7.778  1.0277 -0.2189  0.9507
  726MOL0     C95755   9.859   7.885   7.659 -0.3731  0.1464  0.2289
  726MOL0     C95756   9.822   7.749   7.650  1.2330  0.2088  0.4190
  726MOL0     C95757   9.850   7.664   7.762 -0.3463  0.2150 -0.3558
  726MOL0     O95758   9.822   7.535   7.747 -0.3607  0.7491 -0.5940
  726MOL0     C95759   9.687   7.490   7.732 -1.0761  0.1890  0.6436
  726MOL0     C95760   9.607   7.511   7.857 -0.3478 -0.1974  0.0552
  726MOL0     C95761   9.467   7.452   7.863 -0.4110 -0.9712 -0.3889
  726MOL0     C95762   9.374   7.499   7.760  0.2323 -0.6925  0.2169
  726MOL0     C95763   9.334   7.640   7.774 -0.3213  0.0139 -0.3296
  726MOL0     C95764   9.300   7.758   7.785 -0.0864 -0.2441  0.3123
  726MOL0     C95765   9.907   7.714   7.876  0.4573 -0.2167 -0.4869
  726MOL0     C95766   9.938   7.853   7.890 -0.1641  0.0794  0.7413
  726MOL0     H95767   9.726   8.374   7.667 -0.4259  1.7444 -1.3270
  726MOL0     H95768   9.793   8.588   7.596 -0.3485 -0.6099  0.9375
  726MOL0     H95769  10.215   8.600   7.448  0.5948 -0.0979 -0.4547
  726MOL0     H95770  10.246   8.734   7.567 -0.7402  1.5708  0.2225
  726MOL0     H95771  10.143   8.897   7.419 -2.5133 -0.4856 -0.0339
  726MOL0     H95772  10.081   8.772   7.314 -2.3395  3.8558  0.8722
  726MOL0     H95773  10.263   8.851   7.198  1.4531 -1.7254 -1.8170
  726MOL0     H95774  10.324   8.696   7.258 -3.9832 -0.7812 -1.8249
  726MOL0     H95775  10.369   8.979   7.390  1.5788  0.1928  1.3423
  726MOL0     H95776  10.439   8.831   7.453 -1.2309 -0.4119 -0.5810
  726MOL0     H95777  10.592   8.984   7.314  2.1733 -0.2001 -0.4262
  726MOL0     H95778  10.486   8.966   7.176  0.6796  1.4045  0.9460
  726MOL0     H95779  10.553   8.702   7.199  0.3818 -0.7266 -0.3166
  726MOL0     H95780  10.665   8.760   7.321  1.0344  2.7042  0.5276
  726MOL0     H95781  10.698   8.843   7.036 -2.1685  0.7529 -0.1291
  726MOL0     H95782  10.786   8.918   7.178  0.8693 -0.7662 -2.4149
  726MOL0     H95783  10.906   8.727   7.055 -0.9276  1.0760 -0.2289
  726MOL0     H95784  10.788   8.624   7.102  1.8404 -0.8398 -0.9682
  726MOL0     H95785  10.994   8.885   7.300  3.5056 -1.6417 -3.4352
  726MOL0     H95786  11.125   8.886   7.543 -2.2393 -0.4453  3.2789
  726MOL0     H95787  11.229   8.742   7.510 -0.2194 -0.6580 -0.2401
  726MOL0     H95788  11.071   8.621   7.675  1.3035  0.5164 -2.1418
  726MOL0     H95789  10.992   8.757   7.709  0.2889 -0.8680  0.5198
  726MOL0     H95790  11.236   8.869   7.767  1.1025 -0.8007 -3.1155
  726MOL0     H95791  11.146   8.775   7.883 -1.9370 -1.0925 -1.2085
  726MOL0     H95792  11.381   8.689   7.868  0.6076 -1.0398 -0.2651
  726MOL0     H95793  11.356   8.673   7.693 -2.9422 -1.9998 -1.0217
  726MOL0     H95794  11.016   8.429   7.764 -1.3670 -0.2090 -0.2025
  726MOL0     H95795  10.895   8.311   7.930 -0.0526  2.3695  0.6190
  726MOL0     H95796  10.889   8.012   8.290  0.0855  0.5327 -1.9871
  726MOL0     H95797  10.735   7.865   8.405 -0.4091 -1.4841 -0.4588
  726MOL0     H95798  10.551   7.862   8.593 -2.7454  0.5931  1.7654
  726MOL0     H95799  10.536   7.717   8.496  0.8741  0.1259 -1.1979
  726MOL0     H95800  10.291   7.870   8.600  1.1138 -0.0239  3.0056
  726MOL0     H95801  10.359   7.727   8.683  0.3458 -0.3822 -0.1370
  726MOL0     H95802  10.328   7.590   8.465 -0.3378  0.2792  0.5991
  726MOL0     H95803  10.252   7.731   8.405 -1.3658  2.3705  2.4383
  726MOL0     H95804  10.169   7.558   8.649  2.4758 -1.4544 -1.3841
  726MOL0     H95805  10.076   7.703   8.584  2.8712  1.8076  0.0641
  726MOL0     H95806  10.164   7.439   8.451  1.4606  0.5942  0.6481
  726MOL0     H95807  10.072   7.570   8.369 -1.9941 -0.8831 -0.3561
  726MOL0     H95808   9.947   7.439   8.622  1.8862 -0.9678  0.1351
  726MOL0     H95809   9.953   7.345   8.477 -0.5050  0.5787 -1.1548
  726MOL0     H95810   9.747   7.504   8.509 -1.0662  0.9426  0.1185
  726MOL0     H95811   9.858   7.638   8.473 -1.1667 -0.1571 -0.2771
  726MOL0     H95812   9.805   7.398   8.281 -0.2892 -0.1345  0.2634
  726MOL0     H95813   9.856   7.561   8.231 -1.8915  3.1069  0.8463
  726MOL0     H95814  10.405   8.106   8.277 -1.3487 -1.4308  1.4065
  726MOL0     H95815  10.564   8.253   8.161 -1.2273 -1.9002 -2.3927
  726MOL0     H95816  11.219   8.370   8.212  2.2683 -2.9509 -1.5987
  726MOL0     H95817  11.334   8.483   8.053  0.0734 -0.3506 -0.1998
  726MOL0     H95818  10.211   8.470   7.622  0.1780  0.8071 -1.1547
  726MOL0     H95819  10.136   8.243   7.675  0.5073  0.2109  2.5243
  726MOL0     H95820   9.841   7.946   7.571  1.4178  0.8635  0.3249
  726MOL0     H95821   9.778   7.722   7.555 -0.7356  4.6771 -0.2164
  726MOL0     H95822   9.685   7.385   7.701 -0.4620  0.6988 -1.1891
  726MOL0     H95823   9.641   7.540   7.647 -0.0179  1.0802  0.5679
  726MOL0     H95824   9.665   7.461   7.935 -1.8879 -2.0414  0.0881
  726MOL0     H95825   9.601   7.619   7.873  0.7630 -0.1014 -0.0824
  726MOL0     H95826   9.422   7.475   7.960 -0.9134  1.2471 -1.0825
  726MOL0     H95827   9.469   7.343   7.860  1.0833 -0.9691 -0.2904
  726MOL0     H95828   9.412   7.475   7.660  0.6939 -1.3578  0.5472
  726MOL0     H95829   9.285   7.437   7.772  0.2661 -0.9280 -0.6905
  726MOL0     H95830   9.288   7.862   7.811 -3.5878 -0.2273 -0.8033
  726MOL0     H95831   9.928   7.644   7.956 -0.6615 -1.9865 -1.6445
  726MOL0     H95832   9.975   7.894   7.983  0.8398 -0.5153  0.6230
  727MOL0     O95833   9.514   3.415   0.966 -0.1028  0.2146 -0.1061
  727MOL0     C95834   9.552   3.298   0.927 -0.0343 -0.3996  0.0184
  727MOL0     O95835   9.474   3.189   0.943  0.3980  1.1338 -0.0211
  727MOL0     C95836   9.355   3.212   1.000 -0.3398 -0.4729 -0.0552
  727MOL0     C95837   9.346   3.239   1.138  0.0196  0.7128  0.6668
  727MOL0     C95838   9.221   3.254   1.200  0.0533 -0.1932 -0.4212
  727MOL0     C95839   9.107   3.259   1.124  0.5603  0.1591  0.8952
  727MOL0     O95840   8.993   3.298   1.185  0.0225  0.1936  0.0470
  727MOL0     C95841   8.901   3.374   1.103 -0.4833  0.4215 -0.6673
  727MOL0     C95842   8.779   3.418   1.184  0.7225 -0.2209  0.1018
  727MOL0     C95843   8.681   3.492   1.094 -0.2623 -0.4833 -0.7943
  727MOL0     C95844   8.566   3.553   1.169  0.8849 -0.2487  0.3352
  727MOL0     C95845   8.481   3.644   1.078  0.2345  0.0750  0.3945
  727MOL0     C95846   8.377   3.718   1.167  1.1878  0.9589  0.1433
  727MOL0     C95847   8.274   3.624   1.228 -0.4645 -0.5480 -0.3539
  727MOL0     C95848   8.171   3.704   1.308  0.2064 -0.4464 -0.0723
  727MOL0     N95849   8.112   3.823   1.239 -0.3980 -0.7495  0.2409
  727MOL0     C95850   8.031   3.818   1.134  0.4398 -0.6877  0.9373
  727MOL0     C95851   8.017   3.956   1.106 -0.1994 -0.2726  0.0484
  727MOL0     C95852   7.941   4.022   0.999  0.0205  0.4751  0.0054
  727MOL0     C95853   7.782   3.993   1.005  0.1261 -0.7458 -0.2638
  727MOL0     C95854   7.717   4.073   1.115 -0.5081  0.3896  0.1045
  727MOL0     C95855   7.567   4.064   1.128 -0.6335  0.0256 -0.5081
  727MOL0     O95856   7.530   4.153   1.227  0.6954 -0.1982 -0.7165
  727MOL0     C95857   7.402   4.123   1.272 -0.2741  0.0687  0.4298
  727MOL0     C95858   7.292   4.154   1.188 -0.4749 -0.0264 -0.9528
  727MOL0     C95859   7.162   4.138   1.239  0.4428  0.2053 -0.1720
  727MOL0     C95860   7.137   4.078   1.360  0.0799  0.4127 -0.7852
  727MOL0     C95861   6.999   4.063   1.407  0.4793 -0.0264 -0.3200
  727MOL0     O95862   6.903   4.085   1.317  0.2970  0.1444 -0.5355
  727MOL0     C95863   6.767   4.087   1.360 -0.0514  0.2634 -0.4393
  727MOL0     C95864   6.667   4.022   1.283  1.0735 -0.1666 -0.1910
  727MOL0     C95865   6.530   4.058   1.307  0.1680 -0.1016  0.0491
  727MOL0     C95866   6.493   4.148   1.402 -0.3036 -0.5279  0.6051
  727MOL0     O95867   6.354   4.171   1.413 -0.7622  0.2000 -0.7775
  727MOL0     C95868   6.303   4.257   1.514 -0.3095  0.5408 -0.1477
  727MOL0     C95869   6.151   4.270   1.473  0.5288 -0.7609 -0.9032
  727MOL0     C95870   6.122   4.397   1.409  0.2744  0.1325 -0.1013
  727MOL0     C95871   6.182   4.403   1.266  0.5061 -0.2782  0.9052
  727MOL0     C95872   6.150   4.538   1.198  0.1701  0.4872  1.0290
  727MOL0     C95873   5.999   4.579   1.177  0.3725  0.2688  0.6834
  727MOL0     C95874   5.974   4.700   1.083 -0.7172 -0.1040  0.5714
  727MOL0     C95875   6.049   4.834   1.115  0.1089 -0.3752  0.7008
  727MOL0    Cl95876   6.017   4.875   1.282 -0.2074  0.1869 -0.3197
  727MOL0     C95877   6.598   4.207   1.486  0.0606  0.1950  0.3035
  727MOL0     C95878   6.730   4.173   1.468 -0.7954  0.1847  0.9621
  727MOL0     O95879   6.976   4.025   1.524 -0.4780  0.0511 -0.1686
  727MOL0     C95880   7.250   4.049   1.445  0.1897  0.3495  0.3522
  727MOL0     C95881   7.376   4.084   1.403 -0.0817  0.2901  0.7077
  727MOL0     N95882   8.079   4.029   1.199  0.0039 -0.3557 -0.6890
  727MOL0     N95883   8.135   3.951   1.283 -0.0547  0.2211 -0.0119
  727MOL0     C95884   9.119   3.224   0.986 -0.0230 -1.2135 -0.6030
  727MOL0     C95885   9.246   3.197   0.925  0.1387 -0.5484 -0.9374
  727MOL0     C95886   9.685   3.279   0.872 -1.0768  0.0048 -0.3081
  727MOL0     C95887   9.774   3.389   0.866 -0.1193 -0.4965 -0.1516
  727MOL0     C95888   9.909   3.371   0.823 -0.0045  0.3111 -0.6487
  727MOL0     C95889   9.962   3.243   0.800  0.4606 -1.1953  1.4442
  727MOL0     O95890  10.092   3.219   0.759  0.1154  0.0084  0.6433
  727MOL0     C95891  10.187   3.323   0.783  0.4710  0.8432  0.5591
  727MOL0     C95892  10.329   3.271   0.760 -0.0488  0.3996  0.3565
  727MOL0     C95893  10.378   3.244   0.617  0.0825  0.8224 -0.5386
  727MOL0     C95894  10.344   3.105   0.553 -1.0001  0.0983  0.2218
  727MOL0     C95895  10.422   3.002   0.614  0.0172  0.9993 -0.2822
  727MOL0     C95896  10.490   2.905   0.649  0.0365 -0.2741 -0.1786
  727MOL0     C95897   9.879   3.133   0.821 -0.8340 -0.4095  0.0438
  727MOL0     C95898   9.746   3.153   0.854  0.1198 -0.0514  0.3391
  727MOL0     H95899   9.435   3.248   1.199  0.1812 -0.2881  0.5962
  727MOL0     H95900   9.224   3.265   1.308 -2.2501 -2.0413 -0.0825
  727MOL0     H95901   8.872   3.313   1.018 -0.1876 -0.9311  0.1715
  727MOL0     H95902   8.958   3.465   1.081  1.8165 -0.8888 -0.5132
  727MOL0     H95903   8.817   3.479   1.266 -0.5486 -1.6761  1.8585
  727MOL0     H95904   8.737   3.322   1.216 -1.8367  0.3967 -1.0763
  727MOL0     H95905   8.649   3.429   1.011 -0.9814 -0.8767 -0.2303
  727MOL0     H95906   8.741   3.569   1.044  2.0904 -0.9623  1.0923
  727MOL0     H95907   8.500   3.482   1.220  2.0043 -1.1970  0.4969
  727MOL0     H95908   8.597   3.618   1.252 -4.3274  1.3613  1.4489
  727MOL0     H95909   8.428   3.574   1.013  0.7509 -0.5967  0.6890
  727MOL0     H95910   8.540   3.708   1.012 -1.6179  0.8354 -0.6051
  727MOL0     H95911   8.331   3.796   1.105  1.0724  2.0636  1.5690
  727MOL0     H95912   8.433   3.765   1.248  1.9077 -1.6967  1.3139
  727MOL0     H95913   8.215   3.559   1.162 -0.8021  1.1114 -1.7506
  727MOL0     H95914   8.335   3.574   1.304 -1.0798 -1.2739 -0.3270
  727MOL0     H95915   8.224   3.740   1.396  0.4924 -0.5782 -0.1886
  727MOL0     H95916   8.087   3.644   1.344 -0.6456  1.5441  1.4332
  727MOL0     H95917   7.983   3.742   1.073 -1.4834 -0.0261  1.5507
  727MOL0     H95918   7.972   3.982   0.902 -1.5524 -0.0928 -0.2797
  727MOL0     H95919   7.960   4.130   1.000 -0.9064  0.6432  0.7548
  727MOL0     H95920   7.772   3.885   1.020 -1.6500 -0.3613  1.7465
  727MOL0     H95921   7.739   4.011   0.906  0.4152 -1.7415 -0.5822
  727MOL0     H95922   7.770   4.037   1.203  0.3899 -0.4896 -0.7801
  727MOL0     H95923   7.736   4.180   1.105 -3.1472  0.9848  0.5061
  727MOL0     H95924   7.543   3.958   1.141  1.9971 -0.5418  0.2667
  727MOL0     H95925   7.539   4.087   1.025 -0.0253 -0.2121 -0.7308
  727MOL0     H95926   7.303   4.201   1.091 -3.2617  0.1296 -1.2860
  727MOL0     H95927   7.081   4.179   1.178 -2.0176  0.0380  2.7498
  727MOL0     H95928   6.695   3.949   1.208  0.3808 -1.2473  0.5809
  727MOL0     H95929   6.457   4.027   1.233 -0.5215  3.1157 -0.7802
  727MOL0     H95930   6.347   4.356   1.524  0.3361  0.1521  0.9953
  727MOL0     H95931   6.309   4.224   1.618  0.2266  1.3310  0.0767
  727MOL0     H95932   6.086   4.272   1.561 -0.9188 -0.1744 -1.9491
  727MOL0     H95933   6.114   4.188   1.411 -2.3161 -0.4765  0.2730
  727MOL0     H95934   6.170   4.474   1.470  0.2361 -0.3750  0.5724
  727MOL0     H95935   6.013   4.409   1.409  0.0416 -1.3733 -2.5969
  727MOL0     H95936   6.289   4.378   1.267  0.1505 -2.4483 -1.7661
  727MOL0     H95937   6.149   4.318   1.204  1.2447  0.0257  0.0625
  727MOL0     H95938   6.210   4.544   1.107  2.6006 -1.1388  2.4227
  727MOL0     H95939   6.196   4.613   1.262  1.1350 -1.1010  2.2562
  727MOL0     H95940   5.937   4.593   1.266 -1.0661 -2.1482  0.1518
  727MOL0     H95941   5.940   4.494   1.142  0.1730  1.5730 -2.4945
  727MOL0     H95942   5.992   4.670   0.980 -0.9018  2.5120 -0.2797
  727MOL0     H95943   5.866   4.717   1.087 -0.8841  0.9789 -3.7749
  727MOL0     H95944   6.015   4.916   1.051 -1.0032 -0.9133  0.5723
  727MOL0     H95945   6.157   4.818   1.107 -0.0299 -1.7906  1.3688
  727MOL0     H95946   6.562   4.272   1.565 -1.9756  0.0601 -0.4579
  727MOL0     H95947   6.810   4.217   1.528  0.3746 -1.1107  0.4087
  727MOL0     H95948   7.231   3.990   1.535 -0.8296 -1.0280 -0.7037
  727MOL0     H95949   7.456   4.078   1.477  0.4732 -0.7152  0.0426
  727MOL0     H95950   9.031   3.226   0.922  0.8897  3.3570 -2.0797
  727MOL0     H95951   9.251   3.177   0.818 -0.9148  0.2170 -1.1519
  727MOL0     H95952   9.747   3.490   0.894  2.5222 -0.5547  3.1281
  727MOL0     H95953   9.971   3.459   0.817  1.9296 -1.0604 -2.0687
  727MOL0     H95954  10.178   3.343   0.890  1.4253  1.5343  0.5263
  727MOL0     H95955  10.165   3.413   0.724 -2.5321  1.2474  2.0959
  727MOL0     H95956  10.390   3.359   0.783 -1.3792  2.0136 -1.8957
  727MOL0     H95957  10.344   3.179   0.817  0.6443  0.6758  0.6208
  727MOL0     H95958  10.486   3.256   0.605  0.6079 -2.1843  0.3724
  727MOL0     H95959  10.324   3.315   0.554  1.5244  1.8848 -0.6259
  727MOL0     H95960  10.241   3.073   0.564 -1.1644  0.1385 -1.0389
  727MOL0     H95961  10.365   3.106   0.445 -0.8167  1.0958  0.2614
  727MOL0     H95962  10.558   2.829   0.683 -1.0599 -1.6632 -0.9930
  727MOL0     H95963   9.923   3.034   0.812 -3.6638 -1.8267  0.7165
  727MOL0     H95964   9.675   3.071   0.857  1.5997 -1.4679 -1.2029
  728MOL0     O95965   5.552   8.032  10.312  0.1653  0.5882  0.0708
  728MOL0     C95966   5.642   8.111  10.322 -0.8372  0.1907  0.4044
  728MOL0     O95967   5.627   8.244  10.351  0.0606  0.2025  0.1741
  728MOL0     C95968   5.504   8.298  10.379  0.2249 -0.1739 -1.1732
  728MOL0     C95969   5.497   8.439  10.354  0.2373 -0.4869  0.3034
  728MOL0     C95970   5.375   8.505  10.366  0.2192 -0.1565  0.5124
  728MOL0     C95971   5.261   8.441  10.413 -0.4434 -0.3103 -0.2183
  728MOL0     O95972   5.138   8.502  10.412  0.3802  0.1047 -0.3802
  728MOL0     C95973   5.103   8.544  10.285 -0.0662 -0.4172  0.2928
  728MOL0     C95974   4.968   8.617  10.300 -0.6762  0.5683  0.2361
  728MOL0     C95975   4.951   8.741  10.210  0.0997  1.3391  0.0668
  728MOL0     C95976   4.823   8.821  10.218  0.3285  0.8482  0.3000
  728MOL0     C95977   4.826   8.941  10.139 -0.0691  0.1292  0.2853
  728MOL0     C95978   4.704   9.024  10.182  0.0274 -0.1544  0.0207
  728MOL0     C95979   4.694   9.146  10.088 -0.1202 -0.2994  0.3513
  728MOL0     C95980   4.617   9.109   9.955 -0.4502 -0.3866 -0.6296
  728MOL0     N95981   4.474   9.089   9.973  0.1053 -0.3126 -0.3745
  728MOL0     C95982   4.396   9.185  10.029 -0.8098  0.5835  0.0192
  728MOL0     C95983   4.263   9.158   9.992  0.5294 -0.7126  0.0356
  728MOL0     C95984   4.142   9.246  10.010 -0.3020  0.5741 -0.1013
  728MOL0     C95985   4.011   9.190   9.938  0.1244  0.1741 -0.5964
  728MOL0     C95986   3.902   9.295   9.957  0.1605  0.2673 -0.6037
  728MOL0     C95987   3.773   9.254   9.893  0.8331  0.5086 -0.0688
  728MOL0     O95988   3.681   9.362   9.905  0.8072  0.0022  0.6583
  728MOL0     C95989   3.549   9.326   9.895  0.5604  0.7379  1.3345
  728MOL0     C95990   3.504   9.204   9.838  0.3107 -0.1592 -0.1618
  728MOL0     C95991   3.364   9.183   9.822 -0.3398  0.5946 -0.1122
  728MOL0     C95992   3.272   9.272   9.864 -0.0152 -0.2676  0.0269
  728MOL0     C95993   3.126   9.268   9.843 -0.6818  0.5613  0.6061
  728MOL0     O95994   3.042   9.346   9.918 -0.1000  0.2846  0.0178
  728MOL0     C95995   2.911   9.371   9.878  0.2129 -0.7431  0.2317
  728MOL0     C95996   2.882   9.504   9.839  0.1535  0.0305 -0.5932
  728MOL0     C95997   2.754   9.532   9.791  0.2632  1.0589 -0.1461
  728MOL0     C95998   2.655   9.436   9.781  0.0294 -0.0968 -0.7312
  728MOL0     O95999   2.528   9.464   9.732  0.2605  0.3440 -0.4421
  728MOL0     C96000   2.425   9.420   9.820  0.4841  0.4761 -1.0838
  728MOL0     C96001   2.289   9.477   9.784  0.0324  0.0812 -0.3914
  728MOL0     C96002   2.186   9.503   9.893  0.0248  0.2979 -0.2089
  728MOL0     C96003   2.152   9.377   9.974  0.1421 -0.0859 -0.2641
  728MOL0     C96004   2.040   9.407  10.077 -0.4034  0.1049 -0.9515
  728MOL0     C96005   1.911   9.452  10.018  0.7321  0.6108 -0.2891
  728MOL0     C96006   1.805   9.479  10.124 -0.1023 -0.4856 -1.1865
  728MOL0     C96007   1.741   9.359  10.187  0.2799 -0.7546 -0.4997
  728MOL0    Cl96008   1.649   9.263  10.053 -0.3658  0.0316  0.0325
  728MOL0     C96009   2.685   9.308   9.821  0.3825  0.2804  0.3272
  728MOL0     C96010   2.819   9.272   9.865  0.0343 -0.1117 -0.2265
  728MOL0     O96011   3.095   9.198   9.751 -0.6775  0.3757  0.4266
  728MOL0     C96012   3.322   9.382   9.929 -0.0145  0.0667 -0.3071
  728MOL0     C96013   3.454   9.411   9.933 -0.0799 -0.3461  0.5676
  728MOL0     N96014   4.270   9.041   9.920 -0.6173  0.1542  0.2717
  728MOL0     N96015   4.392   8.998   9.907  0.0402 -0.6627  0.0930
  728MOL0     C96016   5.272   8.309  10.453 -0.3017  0.0570  0.3913
  728MOL0     C96017   5.396   8.238  10.442 -0.0062  0.3597 -0.9003
  728MOL0     C96018   5.783   8.052  10.307 -0.6645 -0.0507 -0.1108
  728MOL0     C96019   5.809   7.918  10.266  1.0602 -0.7090 -0.2765
  728MOL0     C96020   5.944   7.878  10.250 -0.0868  0.0976  0.6581
  728MOL0     C96021   6.051   7.964  10.290  0.2368  1.0185 -0.4732
  728MOL0     O96022   6.178   7.913  10.291  0.7912 -0.5259  0.4240
  728MOL0     C96023   6.218   7.791  10.230  0.1207 -0.0404  0.3618
  728MOL0     C96024   6.366   7.775  10.263 -0.1324  1.1249 -0.7524
  728MOL0     C96025   6.412   7.785  10.412  0.6040 -0.4428 -1.0761
  728MOL0     C96026   6.354   7.674  10.491  0.9924 -0.5248 -0.7102
  728MOL0     C96027   6.416   7.544  10.480  0.3835 -0.7577 -0.8478
  728MOL0     C96028   6.470   7.435  10.483 -0.9371 -0.8435 -0.2272
  728MOL0     C96029   6.026   8.093  10.340  1.0997 -0.7270  0.5166
  728MOL0     C96030   5.895   8.143  10.329 -0.1075  0.6399 -0.5555
  728MOL0     H96031   5.580   8.503  10.325  0.2508  0.1860  1.7304
  728MOL0     H96032   5.365   8.606  10.327  1.3912  0.2493  1.1999
  728MOL0     H96033   5.083   8.462  10.216  2.2423 -0.1675 -0.7865
  728MOL0     H96034   5.171   8.618  10.241 -0.5320 -0.7749 -1.0732
  728MOL0     H96035   4.962   8.649  10.405 -0.2808  0.0482  0.4203
  728MOL0     H96036   4.881   8.553  10.285 -0.5304  0.3248  0.4247
  728MOL0     H96037   4.978   8.700  10.112  3.7340 -0.7951  1.7310
  728MOL0     H96038   5.039   8.792  10.252  1.0456 -1.5837  1.9176
  728MOL0     H96039   4.748   8.756  10.172  2.2567 -1.5402  0.3580
  728MOL0     H96040   4.794   8.838  10.322 -0.5976  0.7475  0.0759
  728MOL0     H96041   4.828   8.918  10.033 -0.0246  2.5637 -0.3011
  728MOL0     H96042   4.917   8.997  10.164  0.4066 -0.7932  0.6455
  728MOL0     H96043   4.705   9.059  10.285 -3.5356  0.1157  0.0870
  728MOL0     H96044   4.611   8.968  10.170 -1.9692  3.2041 -1.7771
  728MOL0     H96045   4.638   9.223  10.142  0.2197  0.3759 -0.2333
  728MOL0     H96046   4.787   9.194  10.055 -0.3366 -0.1978 -0.1279
  728MOL0     H96047   4.671   9.035   9.895 -0.5059  0.9243 -2.3591
  728MOL0     H96048   4.616   9.204   9.902 -0.1744 -0.8744 -1.5368
  728MOL0     H96049   4.424   9.274  10.085 -2.7226 -1.3110  4.4659
  728MOL0     H96050   4.163   9.346   9.969  2.9470 -0.3172 -0.9190
  728MOL0     H96051   4.133   9.265  10.118  0.0237  0.5712 -0.0732
  728MOL0     H96052   3.994   9.088   9.973  0.4536 -0.0288 -1.0264
  728MOL0     H96053   4.027   9.192   9.830 -0.4878  1.7346 -0.6917
  728MOL0     H96054   3.879   9.340  10.054 -1.1537 -1.3945 -0.1093
  728MOL0     H96055   3.937   9.372   9.887 -0.4219  0.0718 -1.1196
  728MOL0     H96056   3.735   9.159   9.934  1.1849 -0.7850 -2.5520
  728MOL0     H96057   3.777   9.225   9.788  0.4689 -0.9072  0.2840
  728MOL0     H96058   3.581   9.134   9.806  2.3376  0.7279  2.4271
  728MOL0     H96059   3.335   9.084   9.789  0.5721 -0.2563  1.5231
  728MOL0     H96060   2.959   9.577   9.859 -0.0936 -0.0017  0.5409
  728MOL0     H96061   2.724   9.635   9.776 -1.4623  0.9625  2.1359
  728MOL0     H96062   2.447   9.446   9.924  2.8525 -3.2989 -0.4142
  728MOL0     H96063   2.428   9.310   9.818 -1.2704  0.3035  1.4308
  728MOL0     H96064   2.253   9.409   9.706  1.8223 -0.4244 -0.8211
  728MOL0     H96065   2.305   9.570   9.729  0.9039 -0.2034 -0.6350
  728MOL0     H96066   2.103   9.538   9.832  0.5628  1.1737 -0.4516
  728MOL0     H96067   2.210   9.585   9.962 -1.9269  1.2900 -0.6380
  728MOL0     H96068   2.117   9.300   9.904  2.3030  0.6469 -2.2517
  728MOL0     H96069   2.243   9.352  10.028 -0.1508  0.2513  0.3989
  728MOL0     H96070   2.084   9.484  10.141  0.6494  0.5564 -2.1673
  728MOL0     H96071   2.027   9.309  10.123  0.6008 -0.1826 -1.2349
  728MOL0     H96072   1.885   9.386   9.935 -0.2449  3.8915 -2.7775
  728MOL0     H96073   1.924   9.547   9.965 -1.0825  0.2010 -1.5586
  728MOL0     H96074   1.838   9.537  10.210 -4.1006 -0.6981  0.7227
  728MOL0     H96075   1.732   9.541  10.070 -0.1708  0.0387 -0.4981
  728MOL0     H96076   1.678   9.385  10.272 -0.6418  0.1850 -1.4463
  728MOL0     H96077   1.820   9.299  10.235  2.1727 -0.0130 -2.4923
  728MOL0     H96078   2.618   9.223   9.817 -0.1200  0.7093 -0.7541
  728MOL0     H96079   2.836   9.168   9.887 -0.0623 -0.1185 -0.1829
  728MOL0     H96080   3.242   9.449   9.958 -0.6207 -1.9819  3.4489
  728MOL0     H96081   3.492   9.507   9.966  1.1493 -0.4162 -0.5480
  728MOL0     H96082   5.191   8.266  10.511 -0.1717 -1.3044 -0.4063
  728MOL0     H96083   5.415   8.141  10.488 -0.3475  1.1111  0.9374
  728MOL0     H96084   5.724   7.853  10.244  1.7464 -0.7487 -3.3093
  728MOL0     H96085   5.962   7.778  10.211  0.1506 -0.4693  2.1451
  728MOL0     H96086   6.219   7.801  10.121  1.0598 -1.1840  0.2496
  728MOL0     H96087   6.155   7.707  10.261 -1.8352  0.4791 -1.8993
  728MOL0     H96088   6.406   7.683  10.219  1.7087  1.6545 -0.2729
  728MOL0     H96089   6.415   7.853  10.204 -1.1478  0.6742 -2.2530
  728MOL0     H96090   6.387   7.884  10.451 -2.1785 -1.4494  0.0059
  728MOL0     H96091   6.521   7.777  10.413  0.4598 -3.8611 -0.4370
  728MOL0     H96092   6.371   7.711  10.592 -2.3403  0.3993 -0.3786
  728MOL0     H96093   6.246   7.669  10.481  0.4886  2.5429  1.8140
  728MOL0     H96094   6.524   7.344  10.496  2.0404  0.4395 -2.4954
  728MOL0     H96095   6.105   8.159  10.374 -0.2278  0.1639  2.0395
  728MOL0     H96096   5.875   8.247  10.353  1.5505  0.6668  0.9690
  729MOL0     O96097   6.587   4.653   6.852  0.0448  0.6132  0.3585
  729MOL0     C96098   6.656   4.760   6.840 -0.3100 -0.5107  0.4921
  729MOL0     O96099   6.609   4.895   6.849 -0.2546  0.3036  0.0522
  729MOL0     C96100   6.471   4.927   6.849 -0.4129  0.0441  0.5721
  729MOL0     C96101   6.372   4.859   6.918 -0.3334  0.9833  0.0573
  729MOL0     C96102   6.233   4.895   6.920  0.6354 -0.5847 -0.3788
  729MOL0     C96103   6.197   5.012   6.849 -0.2212 -0.2618  0.0836
  729MOL0     O96104   6.064   5.047   6.859 -0.1680  0.8460  0.7385
  729MOL0     C96105   6.027   5.187   6.861 -0.9361  0.5567  0.1460
  729MOL0     C96106   5.879   5.179   6.888  0.2440 -0.1795 -0.0200
  729MOL0     C96107   5.804   5.312   6.888 -0.4028 -0.5022  0.2205
  729MOL0     C96108   5.837   5.392   7.023 -0.3839  0.5797  1.0693
  729MOL0     C96109   5.737   5.498   7.047 -0.0804  0.9752  0.4233
  729MOL0     C96110   5.782   5.582   7.170 -0.0609  0.3639  0.4739
  729MOL0     C96111   5.684   5.698   7.188 -0.3100  0.6091 -1.1885
  729MOL0     C96112   5.552   5.656   7.247 -0.2845  0.1963  0.6495
  729MOL0     N96113   5.456   5.767   7.246 -0.0785  0.1925 -0.1580
  729MOL0     C96114   5.415   5.837   7.134 -0.1050 -0.3340  0.0301
  729MOL0     C96115   5.297   5.882   7.176 -0.2003  0.3364 -0.2224
  729MOL0     C96116   5.208   5.967   7.100 -0.4964 -0.5354  0.7817
  729MOL0     C96117   5.063   5.920   7.078  0.1728  0.5263 -0.1484
  729MOL0     C96118   5.002   6.010   6.984 -0.0127  0.0024  0.3074
  729MOL0     C96119   4.855   5.984   6.947  0.0122  0.8731  0.3133
  729MOL0     O96120   4.842   5.852   6.892 -0.3512 -1.2904 -0.0357
  729MOL0     C96121   4.723   5.813   6.856  0.2669 -0.3634 -0.3399
  729MOL0     C96122   4.738   5.693   6.788 -0.2864  0.1738  0.4464
  729MOL0     C96123   4.629   5.631   6.729  0.6189 -1.0857 -0.1149
  729MOL0     C96124   4.498   5.688   6.748 -1.0875 -0.0029  0.3076
  729MOL0     C96125   4.377   5.629   6.690 -0.0584  0.9027  0.1581
  729MOL0     O96126   4.402   5.531   6.600 -0.2473  0.0004  0.0774
  729MOL0     C96127   4.304   5.455   6.537  0.0273 -0.1523 -0.5119
  729MOL0     C96128   4.172   5.493   6.527 -0.0547  0.3350  0.1568
  729MOL0     C96129   4.080   5.414   6.455 -0.9913  0.4975 -0.4265
  729MOL0     C96130   4.108   5.281   6.408  0.6425 -0.4070  1.1531
  729MOL0     O96131   4.018   5.189   6.355  0.6036 -0.1628  0.5159
  729MOL0     C96132   3.892   5.231   6.315  0.1500 -0.1102 -0.3568
  729MOL0     C96133   3.879   5.247   6.166  0.5587 -0.1678  0.3253
  729MOL0     C96134   3.737   5.292   6.122  0.4343 -0.3068  0.0983
  729MOL0     C96135   3.735   5.359   5.983 -0.5538 -0.0645  0.6811
  729MOL0     C96136   3.600   5.343   5.908 -0.3789 -0.4308 -0.4045
  729MOL0     C96137   3.485   5.418   5.970  0.1274  0.0231  0.2028
  729MOL0     C96138   3.345   5.385   5.901  0.7239 -0.6408 -0.5512
  729MOL0     C96139   3.230   5.467   5.967 -0.5593  0.1486 -0.2698
  729MOL0    Cl96140   3.081   5.466   5.870 -0.0806 -0.0027  0.2221
  729MOL0     C96141   4.245   5.241   6.426 -0.7205 -0.2588  0.2688
  729MOL0     C96142   4.343   5.330   6.482  0.0792  0.4148 -0.8971
  729MOL0     O96143   4.266   5.667   6.736 -0.4590  0.2084  0.4444
  729MOL0     C96144   4.482   5.815   6.815 -0.3764  0.0133  0.3025
  729MOL0     C96145   4.604   5.875   6.868 -0.1252 -0.1886 -0.0425
  729MOL0     N96146   5.275   5.853   7.307 -0.1033 -0.2008  0.5455
  729MOL0     N96147   5.377   5.791   7.349  0.1071 -0.4364 -0.1000
  729MOL0     C96148   6.299   5.090   6.791 -0.0202  0.5012  0.8358
  729MOL0     C96149   6.432   5.041   6.785 -0.3430  0.2040 -0.1904
  729MOL0     C96150   6.799   4.754   6.803 -0.2964  0.3293  0.0127
  729MOL0     C96151   6.845   4.650   6.725 -0.5019 -0.9605  0.4029
  729MOL0     C96152   6.988   4.652   6.690  0.4803  0.2684 -0.1017
  729MOL0     C96153   7.076   4.746   6.742  0.2609 -0.7931  0.3332
  729MOL0     O96154   7.212   4.730   6.733 -0.3343 -0.2805  0.9060
  729MOL0     C96155   7.295   4.787   6.835 -0.3196 -0.5310  0.7995
  729MOL0     C96156   7.425   4.717   6.842  0.4120 -0.2254 -0.3607
  729MOL0     C96157   7.390   4.559   6.825  0.1295 -0.2718 -0.8533
  729MOL0     C96158   7.513   4.478   6.872  0.1762  0.3261  0.5561
  729MOL0     C96159   7.608   4.437   6.767 -0.4975 -0.2570 -0.0207
  729MOL0     C96160   7.689   4.405   6.678  1.0789 -0.3145 -0.3917
  729MOL0     C96161   7.021   4.852   6.815 -0.6048 -0.1053  0.2897
  729MOL0     C96162   6.883   4.857   6.838  0.1985 -0.4772  0.4845
  729MOL0     H96163   6.393   4.769   6.975 -2.6473 -0.4985 -1.2454
  729MOL0     H96164   6.154   4.837   6.967 -0.7102  2.4621  1.4154
  729MOL0     H96165   6.048   5.230   6.762  2.2124 -0.6132  0.1706
  729MOL0     H96166   6.086   5.233   6.941  1.5137 -5.6115  2.4751
  729MOL0     H96167   5.865   5.135   6.987 -0.5319 -0.0658 -0.0735
  729MOL0     H96168   5.826   5.120   6.813  1.9858  1.0907 -2.3884
  729MOL0     H96169   5.696   5.296   6.881 -0.1863 -1.6442 -1.0143
  729MOL0     H96170   5.822   5.371   6.797 -0.1116 -0.4824  0.2897
  729MOL0     H96171   5.838   5.321   7.106 -0.4601 -1.6055 -0.7240
  729MOL0     H96172   5.937   5.436   7.010 -0.4371  0.5730  0.6110
  729MOL0     H96173   5.645   5.450   7.082  0.2320  1.4214  1.9275
  729MOL0     H96174   5.718   5.560   6.959  1.6844  1.7436  0.5341
  729MOL0     H96175   5.880   5.625   7.144 -0.5373  0.0690 -2.1260
  729MOL0     H96176   5.791   5.525   7.263  0.3747 -0.2625  0.0565
  729MOL0     H96177   5.731   5.782   7.240 -0.4118  1.4886 -2.4713
  729MOL0     H96178   5.676   5.732   7.084  1.7164 -0.9969 -1.9474
  729MOL0     H96179   5.571   5.620   7.349  0.0720  1.4587  1.0403
  729MOL0     H96180   5.503   5.582   7.183 -3.5314  0.2578  2.8621
  729MOL0     H96181   5.464   5.834   7.038 -0.6091 -3.4847 -0.2294
  729MOL0     H96182   5.250   5.979   7.000  0.4529 -3.0189  0.8271
  729MOL0     H96183   5.208   6.067   7.144  0.6118 -0.5213  0.7672
  729MOL0     H96184   5.016   5.922   7.176 -0.6926 -0.4275 -0.5190
  729MOL0     H96185   5.065   5.819   7.035  0.3942  0.8474 -0.9097
  729MOL0     H96186   4.997   6.108   7.032 -4.1092 -0.2552  0.7680
  729MOL0     H96187   5.046   6.017   6.884 -0.6516  1.2278  0.0875
  729MOL0     H96188   4.827   6.062   6.876 -0.1467  1.3988  0.9482
  729MOL0     H96189   4.795   5.994   7.038  1.5381  0.1607  1.4677
  729MOL0     H96190   4.839   5.654   6.777 -0.3715 -0.1010  0.6162
  729MOL0     H96191   4.638   5.540   6.670  0.5699  0.1352 -2.0998
  729MOL0     H96192   4.136   5.591   6.560 -1.2670 -0.9230  2.8839
  729MOL0     H96193   3.976   5.442   6.443 -1.1278  0.2915  0.2438
  729MOL0     H96194   3.854   5.323   6.360  1.0611 -1.2538  3.0268
  729MOL0     H96195   3.822   5.152   6.345 -0.0598  0.1880 -0.0645
  729MOL0     H96196   3.896   5.146   6.126 -0.0825 -0.1016 -0.1392
  729MOL0     H96197   3.951   5.316   6.122  0.1022 -0.1552 -0.4300
  729MOL0     H96198   3.696   5.365   6.193 -1.0489 -1.2827  0.2779
  729MOL0     H96199   3.666   5.210   6.126  3.5617 -3.1974  2.4089
  729MOL0     H96200   3.755   5.467   5.991 -2.2548  0.2101  1.7002
  729MOL0     H96201   3.805   5.306   5.917  0.5627 -0.9187  2.4841
  729MOL0     H96202   3.570   5.240   5.885  0.0949 -0.6791  0.0596
  729MOL0     H96203   3.620   5.373   5.805 -1.2875  1.9352  0.0409
  729MOL0     H96204   3.502   5.526   5.977  3.3015 -0.2785 -1.0758
  729MOL0     H96205   3.468   5.383   6.072 -1.5189 -1.8405 -0.6458
  729MOL0     H96206   3.360   5.400   5.794  1.1611 -1.9577 -0.6915
  729MOL0     H96207   3.327   5.279   5.918 -0.0859 -0.3473  0.5662
  729MOL0     H96208   3.261   5.571   5.982 -0.5208 -0.0997  1.6084
  729MOL0     H96209   3.203   5.427   6.066  0.9596  0.3057  0.2276
  729MOL0     H96210   4.284   5.145   6.395  1.5697  0.5737  0.3827
  729MOL0     H96211   4.444   5.295   6.502 -1.2744 -1.9794  2.8672
  729MOL0     H96212   4.387   5.866   6.827 -0.8745 -0.7046 -0.5038
  729MOL0     H96213   4.603   5.971   6.920  0.8033 -0.9506  1.4260
  729MOL0     H96214   6.268   5.179   6.737 -1.3798  0.0267  0.8131
  729MOL0     H96215   6.514   5.089   6.732  1.2950  0.9065  2.7192
  729MOL0     H96216   6.792   4.583   6.658 -0.1213 -0.6496 -0.2248
  729MOL0     H96217   7.037   4.577   6.630  0.2412  0.3359 -0.3841
  729MOL0     H96218   7.235   4.790   6.926 -2.4941 -2.8472 -0.4297
  729MOL0     H96219   7.308   4.891   6.802 -1.7545 -0.2449  1.0802
  729MOL0     H96220   7.504   4.745   6.771  0.9536 -0.1310  0.2705
  729MOL0     H96221   7.464   4.744   6.941 -0.4758  1.0236 -0.3301
  729MOL0     H96222   7.368   4.523   6.725 -1.8991 -0.1477 -0.4866
  729MOL0     H96223   7.306   4.536   6.892 -1.6299 -0.1370 -2.9374
  729MOL0     H96224   7.568   4.522   6.956 -0.5634 -0.6658  1.5835
  729MOL0     H96225   7.480   4.381   6.910 -1.2830  0.5056 -0.1860
  729MOL0     H96226   7.753   4.360   6.605  3.4383  1.4686  0.4362
  729MOL0     H96227   7.093   4.917   6.865  1.3603 -0.7226 -1.5619
  729MOL0     H96228   6.844   4.948   6.884  0.0576 -0.2715 -0.0313
  730MOL0     O96229   2.334   7.983   8.558  0.7407 -0.2805  0.2926
  730MOL0     C96230   2.267   7.896   8.617  0.0917  0.0007 -1.0270
  730MOL0     O96231   2.307   7.840   8.729  0.2256  0.2954 -0.0705
  730MOL0     C96232   2.436   7.847   8.766  0.6518  0.2014  0.6481
  730MOL0     C96233   2.529   7.749   8.730 -0.0783 -0.5119 -0.0856
  730MOL0     C96234   2.666   7.757   8.770  0.5824  0.2348  0.8626
  730MOL0     C96235   2.706   7.854   8.852  0.0215 -0.0765 -0.6220
  730MOL0     O96236   2.832   7.875   8.906  0.0219  0.3643  0.4279
  730MOL0     C96237   2.938   7.771   8.896  0.1827 -0.4160 -0.4281
  730MOL0     C96238   3.017   7.778   8.772 -0.8973 -0.3116  0.9596
  730MOL0     C96239   3.092   7.645   8.751  1.1896 -0.6650  0.2303
  730MOL0     C96240   3.147   7.628   8.607  0.0377  0.2234  0.1065
  730MOL0     C96241   3.254   7.518   8.609 -0.0250  0.6297 -0.0044
  730MOL0     C96242   3.202   7.374   8.573 -0.1590 -0.8148 -0.9073
  730MOL0     C96243   3.299   7.265   8.615 -0.1056 -0.5773  0.3467
  730MOL0     C96244   3.316   7.230   8.767 -0.2228 -0.6877 -0.2328
  730MOL0     N96245   3.187   7.173   8.804  0.3753  0.5687  0.5571
  730MOL0     C96246   3.151   7.042   8.792  0.5256 -0.2858 -0.1223
  730MOL0     C96247   3.036   7.034   8.865 -0.0473  0.5988 -0.6356
  730MOL0     C96248   2.943   6.917   8.896  1.2539  0.2090 -0.8693
  730MOL0     C96249   2.794   6.958   8.902 -0.8172 -0.2811 -0.1354
  730MOL0     C96250   2.711   6.836   8.943 -0.4855  0.5182 -0.1380
  730MOL0     C96251   2.566   6.858   8.936 -0.1879  0.0410  0.5072
  730MOL0     O96252   2.503   6.736   8.972 -0.2736  0.5190 -0.3987
  730MOL0     C96253   2.368   6.724   8.968  0.0615 -0.0966 -0.1017
  730MOL0     C96254   2.281   6.824   8.920 -0.8525 -0.3793  0.8089
  730MOL0     C96255   2.144   6.802   8.903 -0.9871 -0.2934  0.0651
  730MOL0     C96256   2.087   6.674   8.930 -0.7092 -0.8536 -0.0774
  730MOL0     C96257   1.947   6.649   8.934  0.3079  0.5567 -0.2769
  730MOL0     O96258   1.902   6.520   8.970 -0.2393  0.5356  0.0070
  730MOL0     C96259   1.771   6.484   8.973  0.6027 -0.7532  0.0956
  730MOL0     C96260   1.656   6.569   8.998 -0.5316  1.0212  0.1718
  730MOL0     C96261   1.524   6.515   8.980 -0.7404  0.1721 -0.5296
  730MOL0     C96262   1.499   6.382   8.971 -0.1318  0.8838  0.1103
  730MOL0     O96263   1.369   6.330   8.953  0.0864 -0.4075 -0.0482
  730MOL0     C96264   1.254   6.418   8.966 -0.8390 -0.0337  0.6647
  730MOL0     C96265   1.125   6.334   8.952  0.2198  0.2003 -0.6698
  730MOL0     C96266   1.114   6.271   8.812  0.6553  0.1657 -0.2136
  730MOL0     C96267   0.991   6.191   8.786  0.1837 -1.0260  0.3372
  730MOL0     C96268   0.858   6.270   8.809  0.0629 -0.3595  0.9333
  730MOL0     C96269   0.740   6.176   8.766  0.1446  0.7056 -0.0869
  730MOL0     C96270   0.618   6.263   8.755  0.1543  0.6158  1.1236
  730MOL0     C96271   0.494   6.188   8.699  1.1291 -0.1257  0.0457
  730MOL0    Cl96272   0.451   6.065   8.817  0.3702 -0.0416 -0.1639
  730MOL0     C96273   1.608   6.300   8.966  0.5972  0.8421  0.6122
  730MOL0     C96274   1.743   6.348   8.959  0.5003  0.2790 -0.0268
  730MOL0     O96275   1.872   6.739   8.900 -0.2754  0.2252  0.4663
  730MOL0     C96276   2.176   6.575   8.973 -0.0853 -0.6667 -0.0552
  730MOL0     C96277   2.315   6.599   8.983  0.1726  0.8417 -0.1255
  730MOL0     N96278   3.011   7.150   8.921 -0.4950 -0.0118 -0.0923
  730MOL0     N96279   3.104   7.237   8.885 -0.1640  0.3555 -0.7873
  730MOL0     C96280   2.620   7.963   8.882  0.1553  0.1805  0.4501
  730MOL0     C96281   2.483   7.956   8.844 -0.1827  0.2368  0.7232
  730MOL0     C96282   2.143   7.842   8.552  0.6108 -0.5474 -0.6562
  730MOL0     C96283   2.111   7.883   8.424 -0.3569  0.1369 -1.3347
  730MOL0     C96284   2.000   7.828   8.358  0.4440 -1.0055  0.2907
  730MOL0     C96285   1.915   7.733   8.414 -0.7471 -0.7043  0.2997
  730MOL0     O96286   1.798   7.688   8.355 -0.3764 -0.2890 -0.4731
  730MOL0     C96287   1.720   7.794   8.301  0.2068 -0.4583  0.8772
  730MOL0     C96288   1.711   7.792   8.144 -0.2540  1.0187  0.0313
  730MOL0     C96289   1.702   7.655   8.077  0.5539  0.2347  0.7878
  730MOL0     C96290   1.594   7.648   7.967 -0.4478  0.0553  0.1318
  730MOL0     C96291   1.581   7.515   7.902  0.0164  0.3406  0.3128
  730MOL0     C96292   1.580   7.409   7.835  0.1685 -1.6385  0.8880
  730MOL0     C96293   1.938   7.701   8.552  0.1496 -0.5706 -0.0919
  730MOL0     C96294   2.048   7.757   8.620 -0.3455  0.0367 -0.5655
  730MOL0     H96295   2.497   7.662   8.675 -0.3258  0.6772 -1.9088
  730MOL0     H96296   2.733   7.678   8.738 -0.3908  0.2970 -1.5993
  730MOL0     H96297   2.892   7.672   8.888  0.4804 -0.7186  1.2620
  730MOL0     H96298   2.996   7.773   8.989 -0.6326 -0.3528  0.0906
  730MOL0     H96299   3.085   7.864   8.767 -0.1893 -0.9280 -2.3927
  730MOL0     H96300   2.949   7.791   8.687  1.4486 -1.0690 -1.1239
  730MOL0     H96301   3.029   7.556   8.764 -1.6558  1.3821  1.6499
  730MOL0     H96302   3.173   7.641   8.824  2.2191 -1.8495 -0.9201
  730MOL0     H96303   3.067   7.591   8.543 -0.1131  1.1072 -0.2196
  730MOL0     H96304   3.183   7.723   8.568 -0.1404 -0.0801 -0.8094
  730MOL0     H96305   3.313   7.520   8.701  2.7986 -1.0854 -1.6388
  730MOL0     H96306   3.330   7.545   8.535 -0.2769  1.6685  0.0961
  730MOL0     H96307   3.179   7.368   8.466  0.2454  0.8500 -1.1223
  730MOL0     H96308   3.105   7.356   8.619 -0.0638 -4.5722 -1.8503
  730MOL0     H96309   3.279   7.171   8.563 -1.1014 -0.4616  0.5015
  730MOL0     H96310   3.399   7.301   8.590 -0.1298  0.5018  1.7302
  730MOL0     H96311   3.327   7.322   8.826 -0.1611 -0.7860 -0.0905
  730MOL0     H96312   3.406   7.169   8.778 -0.0440 -0.7034 -1.6087
  730MOL0     H96313   3.218   6.966   8.752  1.7423 -0.7696  2.5946
  730MOL0     H96314   2.963   6.869   8.993 -0.1255 -0.4141 -0.8650
  730MOL0     H96315   2.962   6.837   8.824  1.7502  0.1645 -0.6919
  730MOL0     H96316   2.761   6.993   8.804  3.2945  0.9300 -1.2777
  730MOL0     H96317   2.773   7.040   8.971  0.4441 -0.3540  0.3615
  730MOL0     H96318   2.748   6.751   8.885  2.2494  1.4842  0.0766
  730MOL0     H96319   2.740   6.815   9.046  1.1635 -1.9436 -1.0111
  730MOL0     H96320   2.546   6.890   8.833 -1.2911  1.1531  1.0327
  730MOL0     H96321   2.527   6.941   8.995 -1.0270  0.0010  0.0354
  730MOL0     H96322   2.320   6.920   8.891  1.4546 -1.8093 -1.1914
  730MOL0     H96323   2.097   6.894   8.867  0.2897  1.3543  2.3481
  730MOL0     H96324   1.675   6.671   9.028  2.6099  0.1440  1.5569
  730MOL0     H96325   1.444   6.588   8.986  1.2719  2.4281  0.6718
  730MOL0     H96326   1.251   6.503   8.897 -0.8127 -1.0115 -0.5684
  730MOL0     H96327   1.250   6.468   9.063 -3.4178  0.2882  0.4636
  730MOL0     H96328   1.045   6.409   8.964 -1.1188 -1.4138  0.9472
  730MOL0     H96329   1.117   6.264   9.035  0.6386  1.8490  0.8125
  730MOL0     H96330   1.197   6.200   8.805  0.3258 -0.3789  1.1136
  730MOL0     H96331   1.117   6.341   8.728 -0.7469  0.0002 -0.4196
  730MOL0     H96332   0.989   6.180   8.677 -0.0706  1.7422 -0.0116
  730MOL0     H96333   1.005   6.092   8.830  0.0090 -1.2217 -0.0426
  730MOL0     H96334   0.844   6.354   8.741  1.3900 -1.0619 -0.2557
  730MOL0     H96335   0.859   6.305   8.913  1.6243 -1.3334  1.2844
  730MOL0     H96336   0.728   6.095   8.838 -0.6213  0.6511 -0.2682
  730MOL0     H96337   0.756   6.137   8.665  0.2964 -1.5601  0.7521
  730MOL0     H96338   0.596   6.308   8.852  3.0629  1.4023  1.5298
  730MOL0     H96339   0.641   6.348   8.689  1.3693 -0.2753  0.3474
  730MOL0     H96340   0.500   6.147   8.598 -1.8694 -0.6419 -0.0175
  730MOL0     H96341   0.418   6.266   8.703 -2.0179 -2.9465 -0.2014
  730MOL0     H96342   1.609   6.194   8.941  2.4803  0.4105  2.2013
  730MOL0     H96343   1.829   6.283   8.953 -0.2821 -1.0537  2.1025
  730MOL0     H96344   2.139   6.475   8.994  0.2124 -0.7389  0.1313
  730MOL0     H96345   2.390   6.523   9.002  0.4771  0.7180 -1.7358
  730MOL0     H96346   2.662   8.053   8.925 -1.6093  2.1674 -1.6810
  730MOL0     H96347   2.413   8.031   8.880 -0.4523 -1.0862  3.2029
  730MOL0     H96348   2.172   7.957   8.372  0.7407  0.1599 -0.0851
  730MOL0     H96349   1.975   7.867   8.260 -1.1117  0.6021  1.2471
  730MOL0     H96350   1.751   7.898   8.318 -2.0085  1.1533 -3.6220
  730MOL0     H96351   1.619   7.778   8.339 -0.2513 -2.0683 -0.9103
  730MOL0     H96352   1.624   7.847   8.108  0.5758  0.4379 -3.1766
  730MOL0     H96353   1.796   7.854   8.111  0.9304  0.5156  1.9376
  730MOL0     H96354   1.676   7.584   8.157  0.3737  0.1272  0.6327
  730MOL0     H96355   1.798   7.625   8.035  0.3309  1.6927 -0.8269
  730MOL0     H96356   1.492   7.662   8.004 -1.4931  1.4386 -2.9371
  730MOL0     H96357   1.619   7.723   7.891  0.0386 -1.1680 -0.9663
  730MOL0     H96358   1.572   7.326   7.768 -3.7986  0.4714 -1.6045
  730MOL0     H96359   1.875   7.637   8.614 -1.8280  2.1420  0.8963
  730MOL0     H96360   2.071   7.727   8.722  0.5449  0.2250 -0.7008
  731MOL0     O96361   3.057   8.660   0.603 -0.4829 -0.0487 -0.3469
  731MOL0     C96362   3.064   8.556   0.674 -0.1848  0.3456  0.8270
  731MOL0     O96363   3.180   8.494   0.713  0.2252 -0.5361  0.2028
  731MOL0     C96364   3.308   8.531   0.667 -0.4424 -0.1834 -0.0082
  731MOL0     C96365   3.402   8.434   0.682  0.2484  0.7742  0.7093
  731MOL0     C96366   3.544   8.457   0.667  0.3957  0.3588  0.9495
  731MOL0     C96367   3.585   8.584   0.616  0.2641  0.5171  0.4105
  731MOL0     O96368   3.721   8.597   0.601  0.4505  0.5063 -0.2741
  731MOL0     C96369   3.763   8.695   0.507 -1.0275  1.2954 -0.1781
  731MOL0     C96370   3.782   8.639   0.366  0.4532  0.5087  0.1026
  731MOL0     C96371   3.880   8.517   0.366 -0.9825  0.6568 -0.0473
  731MOL0     C96372   4.024   8.573   0.326 -0.2772 -0.0101 -0.0044
  731MOL0     C96373   4.136   8.467   0.319  0.2327 -1.1824  0.6516
  731MOL0     C96374   4.271   8.525   0.266 -0.2065 -0.2503 -0.0414
  731MOL0     C96375   4.334   8.626   0.363 -0.8173  0.8782  0.0220
  731MOL0     C96376   4.475   8.668   0.320 -0.4736 -0.4214 -0.1021
  731MOL0     N96377   4.475   8.727   0.184  0.1101 -0.6187  0.2192
  731MOL0     C96378   4.429   8.849   0.144  1.0285  0.3827 -1.3272
  731MOL0     C96379   4.459   8.856   0.015 -0.7657 -0.6720 -0.2014
  731MOL0     C96380   4.419   8.968  -0.080  0.1174  0.0657  0.4785
  731MOL0     C96381   4.272   8.994  -0.069  0.5152  0.4291 -0.2730
  731MOL0     C96382   4.242   9.113  -0.164 -0.8555 -0.4486  0.2392
  731MOL0     C96383   4.086   9.137  -0.177  0.6377  0.2410  0.1909
  731MOL0     O96384   4.046   9.169  -0.042  0.3974  0.2927  0.0715
  731MOL0     C96385   3.910   9.184  -0.015 -0.6737  0.1893  0.1950
  731MOL0     C96386   3.799   9.166  -0.105 -0.6225  0.2245 -0.7633
  731MOL0     C96387   3.669   9.178  -0.052  0.0544  0.5349  0.6118
  731MOL0     C96388   3.646   9.227   0.073 -0.1068 -0.2086  0.3954
  731MOL0     C96389   3.511   9.251   0.124 -0.2113 -0.5978  0.1383
  731MOL0     O96390   3.496   9.317   0.238 -0.0202  0.2154  0.1722
  731MOL0     C96391   3.364   9.338   0.286 -0.6947  0.8177 -0.9548
  731MOL0     C96392   3.279   9.233   0.297  0.4803  0.3354  0.2356
  731MOL0     C96393   3.145   9.252   0.344 -0.1973 -0.6319 -0.1122
  731MOL0     C96394   3.107   9.382   0.373 -0.5975 -0.3730  0.2361
  731MOL0     O96395   2.982   9.419   0.411 -0.3425  0.3206 -0.3387
  731MOL0     C96396   2.927   9.352   0.530  0.7785  0.6774  0.0396
  731MOL0     C96397   2.779   9.386   0.547  1.0357 -0.2273 -0.0204
  731MOL0     C96398   2.694   9.264   0.579  0.1661  0.9210  0.2364
  731MOL0     C96399   2.545   9.299   0.615  0.1288  0.6759  0.1318
  731MOL0     C96400   2.456   9.360   0.506  0.2476 -0.8844 -0.7326
  731MOL0     C96401   2.437   9.260   0.386  0.0291  0.1858 -0.2442
  731MOL0     C96402   2.340   9.315   0.269 -0.1558 -0.6142 -0.7407
  731MOL0     C96403   2.395   9.433   0.197  0.2379 -0.1494 -0.1737
  731MOL0    Cl96404   2.282   9.475   0.070  0.3620  0.4512  0.1793
  731MOL0     C96405   3.205   9.487   0.370  1.0440  0.6966 -0.2562
  731MOL0     C96406   3.335   9.457   0.336 -0.5145 -0.0207 -0.0778
  731MOL0     O96407   3.419   9.221   0.042  0.1778  0.5727 -0.2495
  731MOL0     C96408   3.757   9.257   0.155 -0.3138  0.5175  0.6665
  731MOL0     C96409   3.893   9.236   0.113  0.2023  1.1089  0.2576
  731MOL0     N96410   4.518   8.739  -0.022  0.7457  0.8065 -0.0525
  731MOL0     N96411   4.527   8.661   0.079  0.6235  0.0458 -0.4325
  731MOL0     C96412   3.488   8.683   0.598 -0.3636  0.2718 -0.2609
  731MOL0     C96413   3.353   8.660   0.621  0.2160  0.3762  0.6533
  731MOL0     C96414   2.932   8.517   0.730  0.1417  0.3776  0.4633
  731MOL0     C96415   2.908   8.387   0.768  0.0135 -0.0520 -0.0291
  731MOL0     C96416   2.784   8.344   0.819  0.0303 -0.0525 -0.3214
  731MOL0     C96417   2.675   8.438   0.831  0.1070  0.4592  0.1192
  731MOL0     O96418   2.556   8.414   0.887  0.2940 -0.2847  0.1793
  731MOL0     C96419   2.499   8.284   0.888  0.0891 -0.5287  0.3633
  731MOL0     C96420   2.349   8.307   0.922  0.0224 -0.8854  0.5293
  731MOL0     C96421   2.258   8.181   0.898  0.2950  0.0033 -1.3835
  731MOL0     C96422   2.140   8.176   0.993  0.5500  0.4696 -0.0033
  731MOL0     C96423   2.176   8.136   1.129 -0.5540  0.7308 -0.3314
  731MOL0     C96424   2.210   8.110   1.241 -0.0987 -0.4522 -0.6313
  731MOL0     C96425   2.706   8.571   0.795 -0.2964 -0.0092  0.8186
  731MOL0     C96426   2.836   8.611   0.751 -0.0320 -0.4519 -0.4068
  731MOL0     H96427   3.382   8.336   0.724 -2.0362 -0.5249 -2.9194
  731MOL0     H96428   3.616   8.377   0.687  4.1912  2.9554 -1.0580
  731MOL0     H96429   3.866   8.725   0.530  0.3812 -3.1020  0.0542
  731MOL0     H96430   3.704   8.787   0.513  0.9574  2.5705  0.8569
  731MOL0     H96431   3.811   8.721   0.299 -2.0672  1.5704  0.2185
  731MOL0     H96432   3.682   8.606   0.334  0.0942  0.3138  1.3791
  731MOL0     H96433   3.840   8.442   0.297  0.2711 -2.1380  2.0607
  731MOL0     H96434   3.887   8.472   0.465 -0.9064 -0.2927 -0.4696
  731MOL0     H96435   4.027   8.622   0.228  2.3220  0.9967  0.5006
  731MOL0     H96436   4.061   8.644   0.400 -1.3965 -1.8438  2.4469
  731MOL0     H96437   4.103   8.384   0.255 -0.2903  1.6623 -3.1086
  731MOL0     H96438   4.160   8.432   0.420  0.9984  0.3958  1.0496
  731MOL0     H96439   4.247   8.558   0.165 -1.8520 -1.0839  0.0385
  731MOL0     H96440   4.339   8.440   0.255 -1.6114 -1.3546 -0.5444
  731MOL0     H96441   4.267   8.713   0.363 -3.0048 -0.7326  0.3606
  731MOL0     H96442   4.339   8.580   0.462 -0.6296 -1.6803 -1.1039
  731MOL0     H96443   4.531   8.575   0.332 -0.6593 -0.2953  2.1573
  731MOL0     H96444   4.512   8.741   0.393  0.6687 -0.1668 -0.9102
  731MOL0     H96445   4.376   8.912   0.214 -0.3432 -1.8404 -0.2525
  731MOL0     H96446   4.434   8.931  -0.182  0.7756 -1.7493  1.1912
  731MOL0     H96447   4.481   9.055  -0.055  0.3987 -0.1781  0.6386
  731MOL0     H96448   4.238   9.008   0.034  2.3897 -0.8728  0.5760
  731MOL0     H96449   4.226   8.900  -0.101  1.9793 -0.5051  0.2943
  731MOL0     H96450   4.287   9.203  -0.122  2.3098 -2.6100  1.9267
  731MOL0     H96451   4.295   9.097  -0.258 -0.6713  0.4922  0.1748
  731MOL0     H96452   4.039   9.050  -0.224  0.8427  1.1230 -1.7188
  731MOL0     H96453   4.073   9.217  -0.250 -0.4494  0.3816  0.5071
  731MOL0     H96454   3.820   9.141  -0.208  3.7777  1.2252 -0.2779
  731MOL0     H96455   3.588   9.165  -0.123  2.0421 -0.9694 -1.5479
  731MOL0     H96456   3.304   9.130   0.271 -2.7833 -0.8809  1.2909
  731MOL0     H96457   3.084   9.163   0.352  0.4014 -0.9521  1.1516
  731MOL0     H96458   2.978   9.400   0.614 -2.1562  0.4362  2.0949
  731MOL0     H96459   2.942   9.244   0.530 -3.0442 -0.0316 -1.5019
  731MOL0     H96460   2.744   9.414   0.447  2.1599  1.5319  0.0336
  731MOL0     H96461   2.759   9.468   0.616  0.1647  0.0187 -0.5563
  731MOL0     H96462   2.740   9.223   0.669  3.0995  1.4204 -0.9126
  731MOL0     H96463   2.709   9.178   0.513  3.3699  0.9711  0.7184
  731MOL0     H96464   2.491   9.210   0.647  1.4300 -0.2183 -0.1163
  731MOL0     H96465   2.558   9.372   0.696  1.1669  0.4077  0.2192
  731MOL0     H96466   2.501   9.452   0.467  0.0434 -1.3875 -2.2489
  731MOL0     H96467   2.359   9.371   0.555  1.3143 -3.0035  2.0595
  731MOL0     H96468   2.395   9.166   0.423  3.5204 -0.2014  3.3996
  731MOL0     H96469   2.536   9.242   0.344  0.5395  1.8638  0.1826
  731MOL0     H96470   2.316   9.238   0.195  2.8790 -1.3926 -1.0636
  731MOL0     H96471   2.244   9.347   0.311  0.3260  1.0213 -0.8028
  731MOL0     H96472   2.492   9.405   0.156  0.8742  1.0782  0.4600
  731MOL0     H96473   2.408   9.519   0.263  0.8179 -1.8414  2.0559
  731MOL0     H96474   3.178   9.587   0.404  3.7767  1.9619 -1.4696
  731MOL0     H96475   3.398   9.545   0.334 -0.1348 -0.0353  3.9235
  731MOL0     H96476   3.741   9.292   0.256 -0.5672  1.6741  0.2492
  731MOL0     H96477   3.978   9.249   0.179  0.2370 -1.4952  0.8143
  731MOL0     H96478   3.515   8.787   0.585 -1.1799  0.3324 -1.5255
  731MOL0     H96479   3.275   8.736   0.632  1.0092  1.5589 -1.3227
  731MOL0     H96480   2.991   8.319   0.780  0.4637  0.6448  0.8463
  731MOL0     H96481   2.763   8.242   0.850  0.5119  0.3296  1.3394
  731MOL0     H96482   2.541   8.217   0.963  2.1846  0.2137 -0.0857
  731MOL0     H96483   2.501   8.247   0.785 -1.5387  1.2402 -0.3748
  731MOL0     H96484   2.350   8.333   1.028  2.0117 -2.1835  0.8948
  731MOL0     H96485   2.320   8.395   0.865  1.4672 -0.9499 -0.3480
  731MOL0     H96486   2.314   8.088   0.908 -0.5684 -0.3360  0.8038
  731MOL0     H96487   2.218   8.187   0.796  1.1314  1.9027 -1.6449
  731MOL0     H96488   2.093   8.275   0.987  1.2615  0.9367  1.4448
  731MOL0     H96489   2.067   8.109   0.947 -0.5816  2.2006 -0.8095
  731MOL0     H96490   2.251   8.110   1.340  1.4805  0.0050 -1.2505
  731MOL0     H96491   2.627   8.644   0.813  0.9091  1.1572  1.5478
  731MOL0     H96492   2.865   8.715   0.737 -0.9893 -0.1203 -0.0131
  732MOL0     O96493   1.075   6.742   7.275 -0.3480  0.0600  0.2236
  732MOL0     C96494   0.977   6.808   7.314  0.0289  0.8068  0.0566
  732MOL0     O96495   0.970   6.892   7.414  0.7166 -0.4181 -0.6877
  732MOL0     C96496   1.076   6.929   7.497  0.5943 -0.8322  0.1131
  732MOL0     C96497   1.054   7.052   7.555  0.5956  0.1434  0.7573
  732MOL0     C96498   1.140   7.108   7.644 -0.0223  0.2053 -0.4762
  732MOL0     C96499   1.266   7.046   7.668 -0.7905  0.5245  0.6557
  732MOL0     O96500   1.366   7.098   7.745  0.5166 -0.1103 -0.1644
  732MOL0     C96501   1.333   7.169   7.865  0.0346  0.4192  0.1968
  732MOL0     C96502   1.257   7.099   7.970 -0.0757 -0.2418  0.0537
  732MOL0     C96503   1.303   6.965   8.010 -0.7992 -0.0652  0.0803
  732MOL0     C96504   1.462   6.953   8.025  0.0105  0.1681 -0.8608
  732MOL0     C96505   1.482   6.819   8.086 -0.0490 -0.1142  0.1368
  732MOL0     C96506   1.622   6.806   8.136  0.0540  0.1299 -0.1516
  732MOL0     C96507   1.733   6.780   8.026  0.1550  0.4047 -0.1025
  732MOL0     C96508   1.871   6.731   8.078  0.4383 -0.1959  0.6460
  732MOL0     N96509   1.854   6.623   8.172 -0.0465 -0.0759 -0.2652
  732MOL0     C96510   1.853   6.631   8.311  0.5378  0.2380  0.0884
  732MOL0     C96511   1.811   6.508   8.348 -0.0418 -0.3528  0.7246
  732MOL0     C96512   1.799   6.460   8.493 -0.7699 -0.1444 -0.2179
  732MOL0     C96513   1.668   6.517   8.565 -0.4244 -0.2715 -0.4571
  732MOL0     C96514   1.591   6.408   8.631  0.1686 -1.2437 -0.3249
  732MOL0     C96515   1.492   6.344   8.542  0.7496 -0.2081  0.2250
  732MOL0     O96516   1.557   6.307   8.420 -1.3370 -0.3199 -0.5648
  732MOL0     C96517   1.492   6.204   8.342 -0.4621 -0.4245 -0.9129
  732MOL0     C96518   1.366   6.161   8.374 -0.0423  0.6860  0.5560
  732MOL0     C96519   1.304   6.051   8.299  0.1109  0.1657  0.5222
  732MOL0     C96520   1.376   5.981   8.200  0.6209 -0.1438 -0.1306
  732MOL0     C96521   1.322   5.863   8.143 -1.4563 -0.0224  0.4922
  732MOL0     O96522   1.189   5.837   8.171 -0.7204 -0.4922  1.0175
  732MOL0     C96523   1.119   5.718   8.144 -0.3013  0.7115  0.3358
  732MOL0     C96524   0.983   5.734   8.147  0.0389  0.0545  0.1658
  732MOL0     C96525   0.898   5.633   8.105 -0.1523 -0.6761 -0.3141
  732MOL0     C96526   0.948   5.506   8.060 -0.2096  0.2123  0.4135
  732MOL0     O96527   0.862   5.416   8.013 -0.6542  0.2027  0.6249
  732MOL0     C96528   0.899   5.289   7.954 -0.0418 -1.0025 -0.9055
  732MOL0     C96529   0.789   5.186   7.973 -0.9944 -0.0958  0.6975
  732MOL0     C96530   0.657   5.232   7.905  0.4301  0.1471 -0.0143
  732MOL0     C96531   0.545   5.131   7.915 -1.1941 -0.3280  0.3546
  732MOL0     C96532   0.410   5.183   7.865  0.4969 -0.4778  0.1240
  732MOL0     C96533   0.309   5.068   7.859 -0.6682 -0.6063  0.5302
  732MOL0     C96534   0.189   5.109   7.774  0.5921  0.2260  0.8725
  732MOL0     C96535   0.118   5.236   7.831 -0.0318 -0.1482  1.1634
  732MOL0    Cl96536  -0.057   5.232   7.780  0.4149 -0.2499  0.1777
  732MOL0     C96537   1.090   5.489   8.071 -0.2794  0.3891  0.5462
  732MOL0     C96538   1.170   5.590   8.107 -1.2600  0.1281  0.6268
  732MOL0     O96539   1.397   5.781   8.079  0.1956 -0.7954 -1.5833
  732MOL0     C96540   1.504   6.026   8.174  1.1099  0.2986  0.5075
  732MOL0     C96541   1.554   6.128   8.246 -1.2198  0.0714  0.5488
  732MOL0     N96542   1.792   6.431   8.241 -0.1354  0.1794  0.1708
  732MOL0     N96543   1.817   6.499   8.136 -0.8585  0.2307 -0.4216
  732MOL0     C96544   1.291   6.928   7.600  0.8985 -0.6067 -0.0564
  732MOL0     C96545   1.197   6.869   7.513 -0.0743  0.5168  0.0979
  732MOL0     C96546   0.856   6.804   7.223 -1.6910  0.0981  0.1825
  732MOL0     C96547   0.742   6.886   7.248  0.5533  0.1167 -0.5259
  732MOL0     C96548   0.639   6.882   7.156 -0.5229 -0.3214  0.9208
  732MOL0     C96549   0.642   6.795   7.048  0.5316 -0.2066 -0.6853
  732MOL0     O96550   0.542   6.786   6.946 -0.2006 -0.9236 -0.2152
  732MOL0     C96551   0.446   6.909   6.940 -0.7249  0.9606 -0.6449
  732MOL0     C96552   0.391   6.935   6.803  0.2234  0.9538  0.1420
  732MOL0     C96553   0.275   6.850   6.777  0.0401  0.1200  0.3180
  732MOL0     C96554   0.235   6.868   6.631 -0.1934  0.0594 -0.1151
  732MOL0     C96555   0.125   6.775   6.593 -0.3147 -0.4544  0.0871
  732MOL0     C96556   0.038   6.692   6.560 -0.9591 -0.5022  1.4625
  732MOL0     C96557   0.748   6.708   7.034 -0.4521 -0.4646  0.0036
  732MOL0     C96558   0.856   6.713   7.117 -0.1800 -0.0894 -0.7083
  732MOL0     H96559   0.965   7.113   7.545  0.9199  0.5759  0.5145
  732MOL0     H96560   1.113   7.201   7.692 -2.8119  0.1746 -1.7968
  732MOL0     H96561   1.284   7.263   7.838  0.5559  1.1226  1.5974
  732MOL0     H96562   1.429   7.196   7.909  0.3050  0.4714 -0.4175
  732MOL0     H96563   1.152   7.099   7.938  0.3929 -0.6459 -1.5732
  732MOL0     H96564   1.252   7.166   8.056 -0.7681  1.1432 -1.0267
  732MOL0     H96565   1.270   6.895   7.933  0.4114 -0.5461 -0.0303
  732MOL0     H96566   1.260   6.931   8.105  2.7990 -2.6942  0.9825
  732MOL0     H96567   1.509   6.948   7.926 -0.0066  0.4255 -0.8814
  732MOL0     H96568   1.507   7.032   8.084 -0.0553 -0.6808  0.3581
  732MOL0     H96569   1.457   6.744   8.011  1.2895  0.6494 -1.1162
  732MOL0     H96570   1.409   6.794   8.163 -2.1615  0.5867 -1.5569
  732MOL0     H96571   1.618   6.722   8.206 -0.6677 -0.4308 -0.8512
  732MOL0     H96572   1.649   6.900   8.186 -0.3028 -0.2577  0.7964
  732MOL0     H96573   1.698   6.689   7.976  0.1879  0.3515 -0.0289
  732MOL0     H96574   1.743   6.869   7.964  0.3820  1.1575  0.9894
  732MOL0     H96575   1.927   6.820   8.109  0.9053 -0.1121 -0.4017
  732MOL0     H96576   1.918   6.687   7.989 -0.4171 -0.7583  0.4638
  732MOL0     H96577   1.886   6.710   8.378 -1.9230 -0.1937  1.9475
  732MOL0     H96578   1.879   6.497   8.557 -0.1090 -2.5679  0.4815
  732MOL0     H96579   1.800   6.350   8.493  1.7052 -0.1909 -1.6267
  732MOL0     H96580   1.606   6.567   8.490 -0.9013 -1.0449 -0.5927
  732MOL0     H96581   1.699   6.570   8.656  2.0743  1.7522 -2.3111
  732MOL0     H96582   1.655   6.331   8.675 -0.6802 -1.4299  0.6381
  732MOL0     H96583   1.531   6.459   8.707 -1.2944 -1.1781 -1.4707
  732MOL0     H96584   1.406   6.407   8.521 -0.2244 -1.4337  0.4299
  732MOL0     H96585   1.444   6.261   8.595 -0.5035  0.3722  0.0290
  732MOL0     H96586   1.300   6.200   8.452 -0.1741 -0.6648  1.1580
  732MOL0     H96587   1.205   6.012   8.322 -0.7282  1.8342 -0.0912
  732MOL0     H96588   0.941   5.828   8.181  0.2701 -0.4960  2.0410
  732MOL0     H96589   0.794   5.661   8.120  0.1522  0.5773 -0.4573
  732MOL0     H96590   0.992   5.257   8.002  1.7367  2.3707 -1.7704
  732MOL0     H96591   0.916   5.295   7.847 -3.3261 -1.7365 -1.5729
  732MOL0     H96592   0.765   5.187   8.080  0.8885 -2.0910  1.1972
  732MOL0     H96593   0.810   5.084   7.939 -0.2294  0.1533  0.3859
  732MOL0     H96594   0.697   5.250   7.805  5.5554 -3.7537  0.8668
  732MOL0     H96595   0.628   5.322   7.960  0.4319 -0.8518  1.7257
  732MOL0     H96596   0.581   5.048   7.852 -0.4237  0.9478 -0.9377
  732MOL0     H96597   0.542   5.098   8.019  1.4922  1.5842  1.1561
  732MOL0     H96598   0.422   5.215   7.761  0.9748 -3.5406 -0.8432
  732MOL0     H96599   0.368   5.261   7.930 -1.4724 -1.7520  0.4505
  732MOL0     H96600   0.274   5.037   7.958 -2.8713  0.9027  0.2978
  732MOL0     H96601   0.351   4.982   7.808  2.2351  1.4170 -0.7803
  732MOL0     H96602   0.218   5.119   7.669  1.0899 -0.0222  0.9833
  732MOL0     H96603   0.121   5.024   7.783  0.4400  0.5098  2.8602
  732MOL0     H96604   0.172   5.314   7.776 -0.7166 -1.5428 -1.6703
  732MOL0     H96605   0.132   5.244   7.940 -0.7854 -1.7807  1.4034
  732MOL0     H96606   1.131   5.390   8.054 -3.3322 -0.8262 -0.4387
  732MOL0     H96607   1.278   5.580   8.094 -1.1028  1.6938  0.5375
  732MOL0     H96608   1.567   5.987   8.095  0.0157  0.1358 -0.3061
  732MOL0     H96609   1.656   6.154   8.218 -2.1619  1.5044 -1.9112
  732MOL0     H96610   1.389   6.882   7.611  0.6678 -0.7775  1.6496
  732MOL0     H96611   1.217   6.777   7.459 -0.9736  0.9056 -0.9397
  732MOL0     H96612   0.741   6.943   7.340  0.4722 -1.0646  0.2317
  732MOL0     H96613   0.562   6.955   7.177  1.3598  0.5893  6.0089
  732MOL0     H96614   0.508   6.996   6.962  1.8491 -0.8014 -0.3833
  732MOL0     H96615   0.370   6.901   7.017  0.1413  0.8133  0.2192
  732MOL0     H96616   0.367   7.041   6.791  4.7106  1.9217 -2.7827
  732MOL0     H96617   0.467   6.915   6.728 -0.0201  0.0552  0.1232
  732MOL0     H96618   0.191   6.877   6.842 -0.6122 -2.5726  0.6909
  732MOL0     H96619   0.298   6.746   6.800 -1.1266 -0.7327 -2.0897
  732MOL0     H96620   0.195   6.969   6.619 -1.1134 -0.1476  0.9657
  732MOL0     H96621   0.309   6.839   6.555 -0.5010 -2.0729  0.3293
  732MOL0     H96622  -0.023   6.614   6.518  2.0342 -0.7486 -3.2415
  732MOL0     H96623   0.744   6.634   6.955  2.9736 -4.5802  3.2174
  732MOL0     H96624   0.942   6.647   7.104  1.1758  1.7017 -1.1671
  733MOL0     O96625   3.175   1.010   4.790  0.0829  0.6852  0.0510
  733MOL0     C96626   3.208   1.124   4.812 -0.8967  0.7376 -0.2337
  733MOL0     O96627   3.134   1.242   4.803 -0.2148  0.7638 -0.3105
  733MOL0     C96628   3.000   1.234   4.805 -0.4833 -0.4430  0.3800
  733MOL0     C96629   2.937   1.329   4.887  0.1057  0.2149  0.8989
  733MOL0     C96630   2.801   1.327   4.912 -0.5537  0.6610 -0.5131
  733MOL0     C96631   2.721   1.239   4.846  0.1527  0.1821 -0.1056
  733MOL0     O96632   2.589   1.238   4.837  0.4851 -0.1233 -0.3429
  733MOL0     C96633   2.504   1.316   4.924 -0.4872 -0.8387 -0.2421
  733MOL0     C96634   2.362   1.311   4.883  0.9474  0.2420 -0.8245
  733MOL0     C96635   2.314   1.168   4.853  0.1860 -0.1742 -0.3750
  733MOL0     C96636   2.167   1.162   4.806 -0.0103 -0.0979 -0.6090
  733MOL0     C96637   2.129   1.012   4.776 -0.0190 -0.1645  0.5327
  733MOL0     C96638   2.014   0.990   4.675 -0.7147 -0.3103  0.5090
  733MOL0     C96639   1.880   1.034   4.728  0.5096 -1.4353  0.9049
  733MOL0     C96640   1.815   0.932   4.832  0.3691  0.0043  0.4084
  733MOL0     N96641   1.792   0.806   4.760  0.1646  0.2806 -0.1867
  733MOL0     C96642   1.867   0.690   4.760 -0.4082  0.0350  1.2075
  733MOL0     C96643   1.798   0.596   4.689 -0.1374 -0.2131  0.1358
  733MOL0     C96644   1.815   0.451   4.651 -0.2401  0.7230 -0.4709
  733MOL0     C96645   1.685   0.381   4.644  0.3182  0.3429  0.1586
  733MOL0     C96646   1.700   0.235   4.616 -0.6935  0.3472  0.7303
  733MOL0     C96647   1.566   0.167   4.582 -0.0830 -0.0407 -0.2730
  733MOL0     O96648   1.519   0.114   4.708  0.4974 -0.3814  0.1528
  733MOL0     C96649   1.394   0.062   4.721  0.6672 -0.0239 -0.3417
  733MOL0     C96650   1.360   0.046   4.858  0.4992  0.9280  0.6164
  733MOL0     C96651   1.231  -0.004   4.901 -0.3014  0.2889  0.5329
  733MOL0     C96652   1.135  -0.047   4.805  0.4603 -0.1894 -0.2022
  733MOL0     C96653   1.006  -0.106   4.845 -0.5586  0.5712  0.2007
  733MOL0     O96654   0.927  -0.155   4.741  0.6425 -0.4683  0.9236
  733MOL0     C96655   0.814  -0.214   4.769  0.8407  0.2673 -0.9181
  733MOL0     C96656   0.710  -0.134   4.821 -0.1759 -0.4855 -0.0226
  733MOL0     C96657   0.588  -0.191   4.840 -0.1934 -0.0505 -0.3413
  733MOL0     C96658   0.556  -0.326   4.814  0.1739  0.3014  0.5003
  733MOL0     O96659   0.441  -0.375   4.861  0.2801  0.9540  0.5158
  733MOL0     C96660   0.371  -0.484   4.788 -0.0251  0.1053  0.1526
  733MOL0     C96661   0.218  -0.443   4.785  0.0422  0.0029  0.4048
  733MOL0     C96662   0.145  -0.530   4.690  0.3723  0.5399  0.8905
  733MOL0     C96663  -0.005  -0.539   4.718 -0.5574  0.1621 -0.1327
  733MOL0     C96664  -0.081  -0.647   4.630  0.8934  0.5617 -0.5124
  733MOL0     C96665  -0.231  -0.647   4.666  0.3880 -0.3095  0.1686
  733MOL0     C96666  -0.309  -0.755   4.580  0.4477 -0.1468 -0.6502
  733MOL0     C96667  -0.468  -0.752   4.604 -0.9731  0.2773 -0.5369
  733MOL0    Cl96668  -0.556  -0.846   4.491 -0.3149  0.0491  0.3454
  733MOL0     C96669   0.660  -0.401   4.755 -0.4685  0.2109  0.4833
  733MOL0     C96670   0.787  -0.346   4.736  0.5247 -0.5708 -0.0424
  733MOL0     O96671   0.982  -0.115   4.965 -0.2747  0.0189 -0.2998
  733MOL0     C96672   1.175  -0.047   4.668  0.2773 -0.4154  0.4076
  733MOL0     C96673   1.300   0.019   4.625 -0.3389 -0.1146 -0.1481
  733MOL0     N96674   1.688   0.663   4.634 -0.8336 -0.7398 -0.8439
  733MOL0     N96675   1.695   0.793   4.677  0.4412  0.5774 -0.3791
  733MOL0     C96676   2.781   1.144   4.759 -0.2209 -0.3133 -0.9379
  733MOL0     C96677   2.920   1.139   4.743  0.1646  0.3444  0.0658
  733MOL0     C96678   3.344   1.150   4.856 -0.1817 -0.5181 -0.1019
  733MOL0     C96679   3.386   1.283   4.888  0.2279 -0.3442 -1.2101
  733MOL0     C96680   3.519   1.304   4.930 -0.5089 -0.1889 -0.7757
  733MOL0     C96681   3.616   1.204   4.917  0.3478 -0.7255  0.2627
  733MOL0     O96682   3.748   1.214   4.940 -0.4414 -0.2127  0.1515
  733MOL0     C96683   3.796   1.329   5.009  0.3923 -0.1695  0.4538
  733MOL0     C96684   3.934   1.300   5.070  0.1095 -0.4703  0.1616
  733MOL0     C96685   4.017   1.439   5.083  0.0612 -0.1433 -0.4377
  733MOL0     C96686   4.159   1.422   5.138 -0.1121  0.0546 -0.5399
  733MOL0     C96687   4.236   1.544   5.129  0.1202  0.0512 -0.0823
  733MOL0     C96688   4.308   1.643   5.118 -0.7111  0.2384  0.8435
  733MOL0     C96689   3.573   1.078   4.890 -0.2956 -0.1196  0.3149
  733MOL0     C96690   3.436   1.052   4.864 -0.2349 -0.5743  1.1919
  733MOL0     H96691   3.003   1.402   4.933  0.6089  0.6977 -0.5484
  733MOL0     H96692   2.765   1.404   4.981  1.7729  1.2947  0.0822
  733MOL0     H96693   2.540   1.419   4.923  0.9559 -1.3190 -2.0215
  733MOL0     H96694   2.519   1.279   5.026  1.8095  2.4193  0.7438
  733MOL0     H96695   2.343   1.354   4.784  0.7967 -3.0156 -2.3117
  733MOL0     H96696   2.306   1.368   4.957 -0.4235  0.9227 -2.3288
  733MOL0     H96697   2.321   1.109   4.945  0.4769 -2.6441 -1.8833
  733MOL0     H96698   2.383   1.117   4.785 -0.6672 -0.3642 -1.1124
  733MOL0     H96699   2.107   1.219   4.877  1.9548  1.9828 -0.5012
  733MOL0     H96700   2.164   1.221   4.714  1.7584 -0.0125 -0.6522
  733MOL0     H96701   2.100   0.962   4.869 -0.3249 -1.3269 -0.1707
  733MOL0     H96702   2.219   0.968   4.732  0.3861 -0.9921  2.1014
  733MOL0     H96703   2.019   0.884   4.649  0.8985 -0.4555  1.3103
  733MOL0     H96704   2.031   1.051   4.586  3.5253 -1.3742  0.3971
  733MOL0     H96705   1.887   1.121   4.794 -0.9529  0.9324 -1.8083
  733MOL0     H96706   1.819   1.064   4.642  0.6159 -0.3998  1.1774
  733MOL0     H96707   1.720   0.968   4.873  1.0434  2.2506  0.1481
  733MOL0     H96708   1.878   0.929   4.922 -0.1200  2.0524  0.8707
  733MOL0     H96709   1.963   0.679   4.809  0.5103 -2.2045 -0.9151
  733MOL0     H96710   1.892   0.403   4.713  1.5535 -0.5434 -3.4259
  733MOL0     H96711   1.869   0.452   4.556  0.5217 -2.3687 -0.1864
  733MOL0     H96712   1.618   0.418   4.566  0.2168 -0.9288 -0.3940
  733MOL0     H96713   1.643   0.383   4.745 -0.3372  1.8517 -0.1286
  733MOL0     H96714   1.759   0.235   4.524  0.6612 -1.2950  1.5344
  733MOL0     H96715   1.752   0.184   4.698 -0.9982 -0.3055  0.5251
  733MOL0     H96716   1.587   0.079   4.521 -0.6881 -0.8735  0.6819
  733MOL0     H96717   1.491   0.224   4.527  1.5712  1.8412 -0.7348
  733MOL0     H96718   1.429   0.065   4.940 -0.8488 -0.1066  2.0538
  733MOL0     H96719   1.205  -0.014   5.006  1.8429 -2.2038  0.9309
  733MOL0     H96720   0.714  -0.029   4.847 -5.0893 -0.9706  4.3874
  733MOL0     H96721   0.510  -0.128   4.884  0.0558 -0.6831  1.0565
  733MOL0     H96722   0.396  -0.587   4.811  2.6826  0.0361 -2.4662
  733MOL0     H96723   0.397  -0.490   4.682 -3.1088  1.2717 -0.7732
  733MOL0     H96724   0.193  -0.337   4.774 -0.3236 -0.1830 -0.7716
  733MOL0     H96725   0.181  -0.459   4.886  1.6222 -1.3469  0.8126
  733MOL0     H96726   0.187  -0.630   4.706 -0.4601  0.3248  1.8149
  733MOL0     H96727   0.161  -0.504   4.585 -0.5467 -0.8649  0.3837
  733MOL0     H96728  -0.029  -0.551   4.824  1.4432  1.9857  0.5897
  733MOL0     H96729  -0.053  -0.442   4.702 -1.7422  0.8665  5.6435
  733MOL0     H96730  -0.042  -0.743   4.664  1.9990  1.3932  0.7120
  733MOL0     H96731  -0.067  -0.633   4.523  2.1776  0.6097 -0.3516
  733MOL0     H96732  -0.282  -0.552   4.645  2.0048  0.3430 -1.0069
  733MOL0     H96733  -0.239  -0.660   4.774 -1.8216 -0.8019 -0.0011
  733MOL0     H96734  -0.299  -0.719   4.477  0.7480  0.5983 -0.3694
  733MOL0     H96735  -0.267  -0.856   4.586  1.0687 -0.0098 -2.2545
  733MOL0     H96736  -0.493  -0.645   4.604 -0.7013  0.3549  1.0218
  733MOL0     H96737  -0.489  -0.790   4.704  3.1170 -0.1097  0.3355
  733MOL0     H96738   0.649  -0.508   4.737  0.6052  0.2163 -0.2967
  733MOL0     H96739   0.866  -0.400   4.687  1.4491 -1.4367  2.2438
  733MOL0     H96740   1.103  -0.084   4.596 -0.4533 -2.7719  2.2470
  733MOL0     H96741   1.333   0.024   4.522 -0.7954  2.0934 -0.2368
  733MOL0     H96742   2.714   1.069   4.718 -1.4014 -0.6485  1.3871
  733MOL0     H96743   2.960   1.055   4.687  0.3144 -1.2801  2.4512
  733MOL0     H96744   3.318   1.367   4.899  0.5510 -0.1410 -0.7330
  733MOL0     H96745   3.542   1.405   4.960 -2.2106 -0.3423  1.2759
  733MOL0     H96746   3.720   1.351   5.084 -0.4958  3.5844 -1.2883
  733MOL0     H96747   3.804   1.416   4.943  3.6470 -0.7534 -0.1366
  733MOL0     H96748   3.917   1.244   5.163  1.3101 -2.5828 -0.8203
  733MOL0     H96749   3.994   1.235   5.007  0.4951  2.4991 -2.8103
  733MOL0     H96750   3.961   1.509   5.144 -0.0647 -2.6056  2.5062
  733MOL0     H96751   4.024   1.468   4.977 -1.1056 -1.0358 -0.7704
  733MOL0     H96752   4.154   1.380   5.238  2.1581  0.6067 -0.1412
  733MOL0     H96753   4.211   1.347   5.078  0.0076 -0.8404  0.6536
  733MOL0     H96754   4.362   1.734   5.098 -1.2284  0.5188  0.7017
  733MOL0     H96755   3.645   0.997   4.898  2.1127  1.9414  0.7848
  733MOL0     H96756   3.409   0.951   4.836  1.9603 -0.1593 -3.3293
  734MOL0     O96757   6.581   7.933   6.627  0.1402  0.0718  0.2198
  734MOL0     C96758   6.467   7.881   6.616  0.2473  0.3020 -0.6949
  734MOL0     O96759   6.443   7.744   6.614 -0.1920 -0.1832  0.0545
  734MOL0     C96760   6.558   7.671   6.628  0.1512  0.4988  0.7120
  734MOL0     C96761   6.605   7.595   6.515 -0.3263 -0.3892  0.2447
  734MOL0     C96762   6.723   7.513   6.526  0.8350  0.0927  0.8220
  734MOL0     C96763   6.784   7.502   6.652 -0.2201  0.4040 -0.1826
  734MOL0     O96764   6.892   7.423   6.684 -0.0389 -0.1633  0.3004
  734MOL0     C96765   6.954   7.354   6.571 -0.0279  0.4366  0.2828
  734MOL0     C96766   7.069   7.270   6.620  0.7315 -0.9059  0.1937
  734MOL0     C96767   7.025   7.163   6.723 -0.3357  0.6825  0.6022
  734MOL0     C96768   7.044   7.204   6.875  0.4824 -0.4202  0.3663
  734MOL0     C96769   6.997   7.094   6.975  0.0181 -0.0845 -0.6526
  734MOL0     C96770   7.086   6.976   6.983  0.2359 -0.4262  0.9105
  734MOL0     C96771   7.041   6.889   7.098  0.3937 -0.9151 -0.3806
  734MOL0     C96772   7.132   6.769   7.106  0.9633  0.0691  0.7991
  734MOL0     N96773   7.119   6.676   7.217  0.1399  0.1760 -0.4544
  734MOL0     C96774   7.200   6.564   7.238 -0.9840  0.0763  0.4044
  734MOL0     C96775   7.136   6.495   7.329 -0.8828 -0.5834  0.5868
  734MOL0     C96776   7.186   6.362   7.392 -0.1823  0.4868  0.6249
  734MOL0     C96777   7.248   6.257   7.297  0.1449 -0.3040  0.3144
  734MOL0     C96778   7.136   6.184   7.225 -0.8236 -0.1639  0.2432
  734MOL0     C96779   7.179   6.080   7.122  0.3917 -0.1420 -0.1314
  734MOL0     O96780   7.268   5.989   7.182 -0.7998 -0.3699  0.4863
  734MOL0     C96781   7.324   5.889   7.110 -0.1149  0.5400 -0.1792
  734MOL0     C96782   7.434   5.820   7.174 -1.1026 -0.6909 -1.1108
  734MOL0     C96783   7.498   5.718   7.111 -0.0728  0.8804 -0.2917
  734MOL0     C96784   7.472   5.694   6.978 -1.5094 -0.3514 -0.2494
  734MOL0     C96785   7.549   5.601   6.897  0.0558  0.6927  0.5003
  734MOL0     O96786   7.653   5.547   6.953  0.1009 -0.3399 -0.4049
  734MOL0     C96787   7.735   5.467   6.873  0.6463 -0.4462 -0.6220
  734MOL0     C96788   7.792   5.499   6.750  0.3351 -0.7635 -0.0248
  734MOL0     C96789   7.867   5.407   6.682 -0.6120  0.5766  0.2203
  734MOL0     C96790   7.906   5.282   6.736  0.7072 -0.0118  0.6544
  734MOL0     O96791   7.974   5.195   6.655  0.1637  0.7630  0.7185
  734MOL0     C96792   8.052   5.089   6.714  1.2674 -0.1181 -0.0415
  734MOL0     C96793   8.140   5.036   6.597 -0.3993 -0.3252  0.2475
  734MOL0     C96794   8.246   4.931   6.639 -0.2927 -0.5284  0.0658
  734MOL0     C96795   8.336   4.906   6.515  0.7541  0.6606 -0.1091
  734MOL0     C96796   8.413   4.773   6.539 -0.1066  0.9649 -1.2128
  734MOL0     C96797   8.513   4.730   6.426  0.6830 -0.8759 -0.3919
  734MOL0     C96798   8.569   4.594   6.475 -0.2122  0.9007  0.2031
  734MOL0     C96799   8.678   4.552   6.385  0.2466  0.6456 -0.4973
  734MOL0    Cl96800   8.611   4.537   6.220 -0.4435  0.2907 -0.0248
  734MOL0     C96801   7.848   5.249   6.854 -0.2464 -0.0309  0.3845
  734MOL0     C96802   7.763   5.338   6.921 -0.1877 -0.6007 -0.1183
  734MOL0     O96803   7.516   5.579   6.781  0.1490 -0.0175 -0.6146
  734MOL0     C96804   7.370   5.761   6.909 -0.1869 -0.2702 -1.4086
  734MOL0     C96805   7.289   5.861   6.979  0.0925 -0.2728 -0.5487
  734MOL0     N96806   7.013   6.552   7.370  0.4004 -0.1282 -0.4832
  734MOL0     N96807   7.019   6.661   7.318 -0.1820  0.1636 -0.4154
  734MOL0     C96808   6.729   7.573   6.759 -0.3565  0.7431  0.2069
  734MOL0     C96809   6.618   7.654   6.753  0.6612 -0.2651  0.8708
  734MOL0     C96810   6.345   7.964   6.611 -0.5567  0.1375  0.0333
  734MOL0     C96811   6.210   7.915   6.621  0.7657 -0.4806 -0.3673
  734MOL0     C96812   6.101   7.987   6.586  0.4407  0.0400 -0.0168
  734MOL0     C96813   6.113   8.121   6.552  0.2958  0.3735 -0.4758
  734MOL0     O96814   6.015   8.210   6.513 -0.2290 -0.4356 -0.0540
  734MOL0     C96815   5.882   8.166   6.495 -0.4329 -0.0338 -0.6247
  734MOL0     C96816   5.863   8.090   6.369  0.3639 -0.2495 -0.2247
  734MOL0     C96817   5.742   7.997   6.380 -0.2183 -0.0823  0.1028
  734MOL0     C96818   5.727   7.923   6.246 -0.3449 -0.6173 -0.6846
  734MOL0     C96819   5.619   7.817   6.256 -0.1758 -0.2517  0.2672
  734MOL0     C96820   5.522   7.743   6.275  0.3899 -0.1867 -0.7155
  734MOL0     C96821   6.240   8.173   6.551 -0.0072 -0.8132  0.3145
  734MOL0     C96822   6.352   8.099   6.585  0.1968  0.4898  1.4059
  734MOL0     H96823   6.533   7.611   6.436  1.6631  0.2012 -1.5386
  734MOL0     H96824   6.760   7.466   6.435  1.6406 -1.9002  2.1181
  734MOL0     H96825   7.005   7.430   6.510  0.8133  0.7401  1.3432
  734MOL0     H96826   6.885   7.288   6.518 -0.6499  1.2379  0.0818
  734MOL0     H96827   7.141   7.341   6.662 -2.1502  0.2500  3.6195
  734MOL0     H96828   7.111   7.207   6.540 -0.7500 -2.6845  0.7449
  734MOL0     H96829   7.082   7.071   6.707  0.1577  1.2601 -1.1087
  734MOL0     H96830   6.922   7.133   6.697  0.4697 -1.4565 -0.3645
  734MOL0     H96831   7.144   7.245   6.895 -1.1945  3.1399  2.2740
  734MOL0     H96832   6.981   7.292   6.890  2.6410  1.0281  1.6672
  734MOL0     H96833   6.893   7.068   6.953 -0.3986  0.7673  0.2595
  734MOL0     H96834   6.999   7.139   7.075  1.0583 -1.5403  0.0076
  734MOL0     H96835   7.184   7.024   6.988 -0.2519  0.8126 -0.5692
  734MOL0     H96836   7.077   6.925   6.886  0.8760  0.5374  0.3349
  734MOL0     H96837   7.042   6.941   7.194  0.1292 -0.6904 -0.4977
  734MOL0     H96838   6.938   6.859   7.077  0.0281 -0.2588  0.4097
  734MOL0     H96839   7.234   6.807   7.112  1.7350 -2.0038  1.5266
  734MOL0     H96840   7.107   6.714   7.015  1.9177  3.1813 -1.5255
  734MOL0     H96841   7.299   6.549   7.194 -0.3017  3.2079  0.6079
  734MOL0     H96842   7.099   6.322   7.445 -1.6028  0.1118 -1.8519
  734MOL0     H96843   7.266   6.382   7.464  0.7057 -2.5712  0.6309
  734MOL0     H96844   7.301   6.194   7.369  2.4447  0.9217 -0.2225
  734MOL0     H96845   7.320   6.289   7.221  0.6560  0.4845  1.1150
  734MOL0     H96846   7.081   6.132   7.304  1.9859  0.7838  3.0471
  734MOL0     H96847   7.061   6.256   7.192 -2.7735 -3.2515 -2.8007
  734MOL0     H96848   7.216   6.129   7.031 -1.6081  0.0972 -0.8770
  734MOL0     H96849   7.088   6.027   7.089  0.2722 -0.1200  0.1634
  734MOL0     H96850   7.452   5.850   7.277  0.1263 -1.0048 -1.2191
  734MOL0     H96851   7.571   5.660   7.168 -1.7715  0.4160  1.5296
  734MOL0     H96852   7.766   5.594   6.705 -1.9498 -1.1563  0.3204
  734MOL0     H96853   7.913   5.420   6.585 -1.4288  1.3806 -0.0679
  734MOL0     H96854   7.985   5.012   6.755  0.6301 -0.1569 -1.1246
  734MOL0     H96855   8.116   5.129   6.793 -0.4029  0.4832  1.0642
  734MOL0     H96856   8.193   5.119   6.550  1.0122 -0.5266  1.4204
  734MOL0     H96857   8.075   4.986   6.525 -0.0256  2.1146 -1.9118
  734MOL0     H96858   8.198   4.836   6.665 -0.2249 -0.4590  0.4608
  734MOL0     H96859   8.299   4.966   6.729  0.4577 -3.6312  0.9530
  734MOL0     H96860   8.269   4.882   6.432  0.4535 -0.6510  0.4959
  734MOL0     H96861   8.408   4.985   6.490  1.2046  1.4417  3.2063
  734MOL0     H96862   8.349   4.690   6.569  2.5077 -0.0086  2.4632
  734MOL0     H96863   8.477   4.785   6.627 -1.7636  1.2690  0.0182
  734MOL0     H96864   8.588   4.803   6.394 -0.4156  0.3923 -0.1950
  734MOL0     H96865   8.453   4.715   6.336  0.1662  1.6635 -0.5489
  734MOL0     H96866   8.608   4.604   6.576 -0.1987 -2.8675  0.7028
  734MOL0     H96867   8.492   4.516   6.479  0.1512  0.3181 -2.3371
  734MOL0     H96868   8.732   4.465   6.422 -1.8379 -0.5466 -0.0629
  734MOL0     H96869   8.749   4.634   6.376  0.6023  0.6306  1.7167
  734MOL0     H96870   7.843   5.149   6.896  0.3380 -0.1687  0.1312
  734MOL0     H96871   7.709   5.305   7.010 -0.8306  2.1287  0.5896
  734MOL0     H96872   7.337   5.744   6.806  1.3024 -2.8123 -1.5471
  734MOL0     H96873   7.212   5.894   6.911 -1.4293 -1.5486  0.4925
  734MOL0     H96874   6.775   7.572   6.857  0.3217  0.1471 -0.1123
  734MOL0     H96875   6.578   7.711   6.837  0.6123  0.8921  0.0792
  734MOL0     H96876   6.193   7.809   6.632 -0.0684 -0.1819  1.5674
  734MOL0     H96877   6.002   7.944   6.581 -0.6560  2.3867  0.3887
  734MOL0     H96878   5.816   8.253   6.490  0.5948  0.8371  0.2150
  734MOL0     H96879   5.859   8.115   6.590  1.8984  0.5447  0.3260
  734MOL0     H96880   5.852   8.158   6.284 -1.5990 -0.5230 -0.2307
  734MOL0     H96881   5.948   8.024   6.348  0.3462  0.0026 -1.1411
  734MOL0     H96882   5.661   8.057   6.424  1.8688  1.8911  1.4830
  734MOL0     H96883   5.769   7.927   6.460  0.3334  1.4290  1.2864
  734MOL0     H96884   5.720   7.988   6.158 -0.3753 -1.0828 -1.0291
  734MOL0     H96885   5.812   7.859   6.223 -0.4524 -1.3075  0.7599
  734MOL0     H96886   5.437   7.678   6.277 -0.4079  0.8328  0.0005
  734MOL0     H96887   6.256   8.278   6.527 -1.6337 -1.0191 -2.0037
  734MOL0     H96888   6.450   8.144   6.574 -0.3884  1.7741  1.2013
  735MOL0     O96889   4.432   0.573  10.137  0.1127 -0.0313  0.4665
  735MOL0     C96890   4.430   0.688  10.100 -0.2188 -0.5533  0.8099
  735MOL0     O96891   4.314   0.766  10.082 -0.4452  0.0574 -0.1446
  735MOL0     C96892   4.191   0.740  10.133 -0.4288 -0.2980  0.0968
  735MOL0     C96893   4.098   0.836  10.087 -0.0347  0.4489 -0.4060
  735MOL0     C96894   3.965   0.835  10.139  0.4067  0.4309 -0.0801
  735MOL0     C96895   3.929   0.741  10.232  1.0100  0.1550  0.1365
  735MOL0     O96896   3.791   0.741  10.249 -0.2158 -0.3470  0.7845
  735MOL0     C96897   3.731   0.627  10.310 -0.2930 -0.5407 -0.1966
  735MOL0     C96898   3.580   0.652  10.337  0.4736 -0.0367 -1.0580
  735MOL0     C96899   3.516   0.531  10.404 -1.2409  0.1222  0.4482
  735MOL0     C96900   3.384   0.563  10.455 -0.2739  0.4751  0.1723
  735MOL0     C96901   3.302   0.453  10.492  0.5298  0.1317  0.2939
  735MOL0     C96902   3.364   0.346  10.584 -0.1210  0.2012  0.2693
  735MOL0     C96903   3.258   0.259  10.652  0.1944 -0.3247  0.1342
  735MOL0     C96904   3.167   0.198  10.542  0.2551  1.1748  0.7305
  735MOL0     N96905   3.065   0.107  10.589  0.0140  0.2818  0.2962
  735MOL0     C96906   3.017  -0.002  10.525  1.0200  0.2889  0.2510
  735MOL0     C96907   2.909  -0.052  10.600 -0.0632  0.1227  0.3776
  735MOL0     C96908   2.830  -0.176  10.551 -0.2389 -0.9536  0.2322
  735MOL0     C96909   2.685  -0.173  10.597  0.6414  0.6029 -0.0973
  735MOL0     C96910   2.619  -0.313  10.595  0.9834  0.5366  0.3888
  735MOL0     C96911   2.465  -0.295  10.589  0.4986  0.3451 -0.5936
  735MOL0     O96912   2.425  -0.236  10.717  0.1742  0.2157  1.1404
  735MOL0     C96913   2.297  -0.233  10.754 -0.5196  0.2140  0.0829
  735MOL0     C96914   2.194  -0.298  10.692 -0.8040 -0.1259 -0.3954
  735MOL0     C96915   2.071  -0.297  10.749  0.3956 -0.6730 -0.7787
  735MOL0     C96916   2.046  -0.235  10.868 -0.3419 -0.2671  1.3402
  735MOL0     C96917   1.902  -0.213  10.912 -0.6292  0.0669  0.8689
  735MOL0     O96918   1.802  -0.246  10.818  0.6096  0.4695 -0.2695
  735MOL0     C96919   1.677  -0.252  10.875  0.0378  0.0713  0.0562
  735MOL0     C96920   1.567  -0.190  10.824  0.2494  0.3393 -0.7894
  735MOL0     C96921   1.437  -0.219  10.860  0.3875 -0.7783  0.7294
  735MOL0     C96922   1.415  -0.311  10.965 -0.0201 -1.1516 -1.1743
  735MOL0     O96923   1.297  -0.345  11.014  0.4203 -0.5284  0.0748
  735MOL0     C96924   1.180  -0.315  10.928  1.1545  0.3277 -0.6999
  735MOL0     C96925   1.109  -0.452  10.895  0.8287  0.0571  0.7654
  735MOL0     C96926   1.185  -0.542  10.798 -0.5489 -0.3583 -0.2748
  735MOL0     C96927   1.116  -0.669  10.766  0.7929  0.7926 -0.5119
  735MOL0     C96928   1.195  -0.766  10.679  0.1691 -0.9946 -0.3315
  735MOL0     C96929   1.134  -0.906  10.680  0.7691 -0.3147  0.3908
  735MOL0     C96930   0.991  -0.901  10.620 -0.0945 -0.9783  0.2454
  735MOL0     C96931   0.942  -1.038  10.644 -0.3175 -0.9827 -0.2819
  735MOL0    Cl96932   0.775  -1.055  10.574  0.4709 -0.2634 -0.0090
  735MOL0     C96933   1.529  -0.372  11.023  0.5707  0.6793 -0.1189
  735MOL0     C96934   1.657  -0.346  10.975 -0.2152  1.0870 -0.3614
  735MOL0     O96935   1.890  -0.183  11.030  0.4178  0.2784  0.2680
  735MOL0     C96936   2.151  -0.165  10.931 -0.1236  0.6468 -0.3435
  735MOL0     C96937   2.280  -0.170  10.878 -0.1075  0.5950  0.3475
  735MOL0     N96938   2.881   0.038  10.699  0.8901  0.0900  0.2156
  735MOL0     N96939   2.974   0.131  10.688 -0.0827 -0.0235  0.7517
  735MOL0     C96940   4.022   0.643  10.282  0.7389 -0.0964  0.5245
  735MOL0     C96941   4.149   0.646  10.228 -0.4773 -0.2267  0.4223
  735MOL0     C96942   4.553   0.757  10.065 -0.0041 -0.9985  0.2512
  735MOL0     C96943   4.553   0.859   9.973 -0.1952  0.4593  0.0331
  735MOL0     C96944   4.668   0.941   9.949 -0.6855  0.2548 -0.8680
  735MOL0     C96945   4.785   0.919  10.027  0.3941 -1.0844 -0.4878
  735MOL0     O96946   4.886   1.014  10.034 -0.4354 -0.1433 -0.0242
  735MOL0     C96947   4.893   1.123   9.942  0.2792 -0.4277  1.0527
  735MOL0     C96948   5.037   1.174   9.914  0.0753 -0.2374 -0.8745
  735MOL0     C96949   5.095   1.222  10.052  0.7779 -0.7660  0.7947
  735MOL0     C96950   5.245   1.253  10.037 -0.1969 -0.3867 -0.4181
  735MOL0     C96951   5.329   1.139  10.017 -0.4186  0.0637  0.1369
  735MOL0     C96952   5.412   1.061   9.987  0.3734 -0.3517 -0.8672
  735MOL0     C96953   4.789   0.809  10.112 -0.8564 -0.4954  0.1172
  735MOL0     C96954   4.672   0.729  10.127 -0.7637  0.1059  0.5643
  735MOL0     H96955   4.114   0.893   9.996 -0.1484  2.8219  0.9942
  735MOL0     H96956   3.887   0.899  10.100  1.5933  1.0872 -1.4832
  735MOL0     H96957   3.781   0.597  10.403 -0.5562  0.4489  0.2874
  735MOL0     H96958   3.729   0.547  10.236 -0.8977  0.0956 -0.8793
  735MOL0     H96959   3.521   0.678  10.249  0.4807  0.8331 -0.8135
  735MOL0     H96960   3.576   0.732  10.411  1.3453 -0.4505 -0.5463
  735MOL0     H96961   3.576   0.491  10.487 -0.8074 -2.6630 -1.0838
  735MOL0     H96962   3.500   0.445  10.339 -0.4658 -1.5834  2.3894
  735MOL0     H96963   3.396   0.623  10.546 -1.1494 -0.2645  0.7940
  735MOL0     H96964   3.323   0.625  10.389 -0.2740 -0.5475 -0.8191
  735MOL0     H96965   3.253   0.417  10.400  0.0007  2.6647 -0.5145
  735MOL0     H96966   3.220   0.495  10.552 -0.0680 -1.1735  0.4241
  735MOL0     H96967   3.429   0.395  10.657  0.8060  0.0599 -0.4430
  735MOL0     H96968   3.433   0.277  10.534 -2.3315 -2.6749  0.9448
  735MOL0     H96969   3.294   0.181  10.719 -1.9661  0.6990  2.7026
  735MOL0     H96970   3.201   0.321  10.723  0.6543 -0.8246  0.9448
  735MOL0     H96971   3.228   0.138  10.474 -2.3983  0.1711 -0.9599
  735MOL0     H96972   3.104   0.260  10.477 -3.3209 -3.1833 -0.4986
  735MOL0     H96973   3.041  -0.047  10.429  0.4273 -0.0371  0.2517
  735MOL0     H96974   2.872  -0.261  10.606  0.6145 -0.2209  0.7433
  735MOL0     H96975   2.834  -0.201  10.445  2.0971  0.2010 -0.0115
  735MOL0     H96976   2.625  -0.098  10.545 -2.4996 -1.1446  0.7344
  735MOL0     H96977   2.676  -0.126  10.696 -0.1443 -0.0412  0.1434
  735MOL0     H96978   2.643  -0.364  10.501 -0.7464  1.3088 -0.5214
  735MOL0     H96979   2.642  -0.373  10.683 -0.8650  1.1215  1.3118
  735MOL0     H96980   2.409  -0.387  10.570  0.1451  0.7762 -1.7527
  735MOL0     H96981   2.441  -0.233  10.502  0.5757  1.3174  0.0644
  735MOL0     H96982   2.193  -0.359  10.603 -1.5834 -0.2342 -0.3162
  735MOL0     H96983   1.997  -0.350  10.690 -1.9911  0.6925  0.8376
  735MOL0     H96984   1.569  -0.124  10.738 -0.4877  2.1438  0.5238
  735MOL0     H96985   1.358  -0.165  10.810  1.6573 -0.4126 -0.9752
  735MOL0     H96986   1.205  -0.283  10.826 -0.2337  1.5336 -0.6868
  735MOL0     H96987   1.116  -0.241  10.977  1.9078 -1.2210  2.9334
  735MOL0     H96988   1.015  -0.422  10.847  0.3052  0.0318  1.7531
  735MOL0     H96989   1.098  -0.500  10.992 -0.6664  2.1640  1.7013
  735MOL0     H96990   1.281  -0.560  10.848 -1.7518  2.4684  3.5439
  735MOL0     H96991   1.212  -0.492  10.705  1.7088 -1.0704 -0.0593
  735MOL0     H96992   1.086  -0.725  10.854 -2.3061  2.2840 -0.5107
  735MOL0     H96993   1.024  -0.642  10.714  0.0430 -1.3739 -0.4134
  735MOL0     H96994   1.298  -0.783  10.711  1.3172  1.5194 -2.3094
  735MOL0     H96995   1.199  -0.720  10.579  4.0086 -1.7747 -0.6605
  735MOL0     H96996   1.128  -0.942  10.784 -1.4068  0.5318  0.5989
  735MOL0     H96997   1.198  -0.971  10.619  1.4768  0.8406 -0.1236
  735MOL0     H96998   0.927  -0.836  10.681 -1.0642 -2.7324  1.1459
  735MOL0     H96999   0.990  -0.869  10.515 -0.9673  1.3187  0.8891
  735MOL0     H97000   0.937  -1.061  10.751 -1.1674 -1.7357 -0.4678
  735MOL0     H97001   1.009  -1.112  10.600  0.2921 -0.7632  0.2556
  735MOL0     H97002   1.513  -0.432  11.111 -0.4267  0.5825 -0.3459
  735MOL0     H97003   1.746  -0.392  11.019 -0.1736  0.6643 -0.8894
  735MOL0     H97004   2.130  -0.107  11.021  0.8024  1.6409 -0.7552
  735MOL0     H97005   2.369  -0.128  10.925  0.4424 -1.0054  0.8214
  735MOL0     H97006   3.988   0.568  10.352 -0.4757 -2.3253 -2.2173
  735MOL0     H97007   4.222   0.577  10.268 -1.7256 -2.8045 -1.4948
  735MOL0     H97008   4.455   0.867   9.929 -1.1198 -0.3206  1.8598
  735MOL0     H97009   4.663   1.030   9.887 -0.7922  0.3979 -0.6553
  735MOL0     H97010   4.830   1.204   9.979  1.4165  1.0508 -0.1117
  735MOL0     H97011   4.854   1.105   9.842  4.2485  2.1246 -1.2353
  735MOL0     H97012   5.093   1.093   9.868  0.7109 -1.5192  1.9749
  735MOL0     H97013   5.035   1.252   9.836  1.2205 -1.2528 -1.9661
  735MOL0     H97014   5.073   1.143  10.124 -0.6711 -2.3778 -1.3123
  735MOL0     H97015   5.031   1.307  10.077  0.4713 -0.5035 -0.7825
  735MOL0     H97016   5.272   1.327   9.962  2.0697  0.8133  1.4629
  735MOL0     H97017   5.276   1.302  10.130 -1.8281  1.6066 -0.8381
  735MOL0     H97018   5.475   0.975   9.971 -1.4871 -1.4954 -2.6094
  735MOL0     H97019   4.877   0.799  10.174 -0.1959 -1.6370 -0.9503
  735MOL0     H97020   4.675   0.644  10.195  0.5382 -0.0532  0.3429
  736MOL0     O97021   5.105  10.096   5.301 -0.3195  0.6628 -0.0600
  736MOL0     C97022   5.186  10.060   5.208  0.0591  0.0974 -0.5450
  736MOL0     O97023   5.142  10.060   5.078 -0.4038  1.2540 -0.3058
  736MOL0     C97024   5.009  10.064   5.056  0.4380 -0.3863  0.4462
  736MOL0     C97025   4.917   9.978   5.108  0.2764  0.7949 -0.3131
  736MOL0     C97026   4.776  10.007   5.114 -0.2358  0.0534  0.1929
  736MOL0     C97027   4.733  10.123   5.043 -0.4857  0.3049  0.5051
  736MOL0     O97028   4.606  10.163   5.024 -0.6004 -0.0632  1.0322
  736MOL0     C97029   4.520  10.131   5.136  0.6179 -0.4907 -0.7835
  736MOL0     C97030   4.379  10.199   5.132  0.2870  0.5819  0.6407
  736MOL0     C97031   4.295  10.130   5.021  0.4685 -0.0665  0.5200
  736MOL0     C97032   4.168  10.212   4.991  1.0113  0.1600  0.7071
  736MOL0     C97033   4.057  10.122   4.944  0.2248 -0.2790  0.2019
  736MOL0     C97034   3.935  10.212   4.908 -0.2327  0.4190 -0.5502
  736MOL0     C97035   3.805  10.133   4.871 -0.4297  0.1563 -0.8602
  736MOL0     C97036   3.766  10.027   4.975  0.3468  0.2761 -0.4396
  736MOL0     N97037   3.634   9.967   4.947 -1.1008 -1.5574  0.0237
  736MOL0     C97038   3.614   9.854   4.873 -0.0701 -0.5516  0.3523
  736MOL0     C97039   3.487   9.822   4.893  0.9655  1.2212 -0.2799
  736MOL0     C97040   3.400   9.712   4.857  0.2123  0.3869  0.5511
  736MOL0     C97041   3.444   9.627   4.743  0.0873  0.2987  0.3263
  736MOL0     C97042   3.355   9.504   4.712  0.1256  0.1003 -0.3417
  736MOL0     C97043   3.238   9.538   4.627 -0.2587 -0.7269  0.4852
  736MOL0     O97044   3.161   9.410   4.626 -0.5344 -0.6131 -0.6964
  736MOL0     C97045   3.040   9.417   4.563  0.2058 -0.7184 -0.2018
  736MOL0     C97046   2.998   9.521   4.478  0.1384  0.3857  0.4688
  736MOL0     C97047   2.870   9.523   4.422 -0.4060 -0.1672  0.8013
  736MOL0     C97048   2.775   9.428   4.465 -0.5038 -0.0750 -0.0131
  736MOL0     C97049   2.636   9.443   4.448  0.1400  0.4917 -0.1837
  736MOL0     O97050   2.588   9.558   4.402 -0.1104  0.0819 -0.9823
  736MOL0     C97051   2.449   9.578   4.382  0.5845  0.3849 -0.7324
  736MOL0     C97052   2.402   9.708   4.409  0.0091  0.7709  1.0591
  736MOL0     C97053   2.275   9.752   4.379  0.4942 -0.5247 -0.2350
  736MOL0     C97054   2.183   9.657   4.332  0.1532 -0.2118 -0.0567
  736MOL0     O97055   2.052   9.703   4.324  0.2561 -0.0302 -0.0576
  736MOL0     C97056   1.952   9.617   4.378 -0.1322  0.7311  0.1826
  736MOL0     C97057   1.837   9.685   4.446  0.0142 -0.1533  0.2365
  736MOL0     C97058   1.896   9.764   4.553 -0.1093  0.6102 -0.6067
  736MOL0     C97059   1.807   9.853   4.635 -0.5418 -0.7069  0.1584
  736MOL0     C97060   1.704   9.782   4.713  0.0509  1.0019 -0.8970
  736MOL0     C97061   1.596   9.871   4.770  0.3013 -0.0312  0.2963
  736MOL0     C97062   1.525   9.960   4.666 -0.1283  0.4872  0.3248
  736MOL0     C97063   1.381   9.978   4.724 -0.3953  0.1415  0.1158
  736MOL0    Cl97064   1.287   9.830   4.694 -0.0921  0.1398 -0.1568
  736MOL0     C97065   2.226   9.527   4.312  1.0162 -0.1900 -0.0305
  736MOL0     C97066   2.352   9.489   4.335 -0.3877 -0.1335  0.1477
  736MOL0     O97067   2.566   9.357   4.499 -0.2603  0.2039  0.0247
  736MOL0     C97068   2.818   9.326   4.557  0.2593  0.2951  1.1076
  736MOL0     C97069   2.955   9.318   4.593  0.8655 -0.6916  0.1880
  736MOL0     N97070   3.426   9.921   4.974  0.5542 -0.0399  0.2831
  736MOL0     N97071   3.520   9.998   5.016  0.2570 -0.6597 -0.1838
  736MOL0     C97072   4.838  10.205   4.975  0.2705 -0.3802  0.4233
  736MOL0     C97073   4.969  10.173   4.982 -0.3915 -0.1374  0.6503
  736MOL0     C97074   5.327  10.032   5.234 -0.2501  0.4902 -1.4947
  736MOL0     C97075   5.435   9.997   5.149 -0.4180 -0.6390  0.2393
  736MOL0     C97076   5.562   9.962   5.200 -0.4458 -0.2067 -0.5289
  736MOL0     C97077   5.585   9.970   5.336  0.3767  0.0522 -0.4696
  736MOL0     O97078   5.705   9.958   5.402  0.2952  0.3458  0.1157
  736MOL0     C97079   5.825   9.904   5.352  0.0519  0.6977 -0.8605
  736MOL0     C97080   5.823   9.750   5.358  0.1807 -0.1483 -0.1703
  736MOL0     C97081   5.947   9.693   5.275  0.3744 -0.4546 -0.5142
  736MOL0     C97082   5.929   9.547   5.266  0.4001  0.0114 -0.0177
  736MOL0     C97083   6.049   9.501   5.191  0.2611  0.3389  0.5664
  736MOL0     C97084   6.140   9.466   5.125 -0.2594 -0.1165 -0.2180
  736MOL0     C97085   5.480  10.021   5.417  0.4801  0.2848 -0.2115
  736MOL0     C97086   5.357  10.046   5.373  0.2632 -0.0448  0.0754
  736MOL0     H97087   4.944   9.894   5.172 -2.3943 -1.3674 -1.8130
  736MOL0     H97088   4.703   9.944   5.165 -0.7396  0.3536 -0.1506
  736MOL0     H97089   4.562  10.161   5.233 -1.5679 -0.1847  0.1182
  736MOL0     H97090   4.510  10.022   5.139  4.7595 -1.0866 -1.9783
  736MOL0     H97091   4.396  10.305   5.114  2.1051  0.7102  2.6752
  736MOL0     H97092   4.322  10.193   5.225 -0.4946  0.3331  0.1504
  736MOL0     H97093   4.283  10.028   5.060  1.5941 -0.3687  0.1285
  736MOL0     H97094   4.358  10.119   4.933  2.8190 -1.1907  2.2045
  736MOL0     H97095   4.131  10.254   5.085  1.2535  0.2613  0.7548
  736MOL0     H97096   4.183  10.288   4.915 -1.9784 -0.7324 -0.9791
  736MOL0     H97097   4.028  10.053   5.024  0.7420  2.1222  2.6093
  736MOL0     H97098   4.086  10.059   4.859  1.2106 -1.5584  1.4317
  736MOL0     H97099   3.954  10.282   4.826  2.6541  1.4110  0.8441
  736MOL0     H97100   3.930  10.278   4.996  0.7610 -0.9259  0.5556
  736MOL0     H97101   3.723  10.204   4.855 -0.4341  0.3351 -0.1022
  736MOL0     H97102   3.826  10.087   4.774  1.5577 -0.9239  0.0280
  736MOL0     H97103   3.750  10.079   5.070 -0.3548  0.5885 -0.7226
  736MOL0     H97104   3.840   9.946   4.982 -0.3605 -0.3020  0.5685
  736MOL0     H97105   3.690   9.796   4.822  0.7112  2.0717 -1.6438
  736MOL0     H97106   3.304   9.757   4.831 -0.8716 -0.2062  3.2413
  736MOL0     H97107   3.379   9.653   4.947 -2.1272  1.4960  0.7915
  736MOL0     H97108   3.547   9.599   4.767  0.4974  1.3807 -0.1139
  736MOL0     H97109   3.451   9.692   4.656 -0.3754  2.4524  1.8187
  736MOL0     H97110   3.415   9.435   4.652 -2.4732 -0.5504 -2.4060
  736MOL0     H97111   3.319   9.465   4.807  0.3967 -1.0150 -0.6775
  736MOL0     H97112   3.266   9.582   4.531  1.3801 -2.0136  0.3294
  736MOL0     H97113   3.190   9.621   4.679  2.1877 -0.0934  1.8817
  736MOL0     H97114   3.060   9.609   4.464 -1.5704  1.7030  0.8104
  736MOL0     H97115   2.840   9.611   4.367 -1.2474 -1.9735 -1.8273
  736MOL0     H97116   2.472   9.776   4.455  3.0730  0.0614 -2.1165
  736MOL0     H97117   2.244   9.852   4.407  3.7866 -0.1334  2.6488
  736MOL0     H97118   1.996   9.560   4.461 -2.3019  0.4926  1.2404
  736MOL0     H97119   1.921   9.542   4.305 -2.9313 -0.0306  2.0066
  736MOL0     H97120   1.768   9.618   4.497  0.3058  0.9316  2.1333
  736MOL0     H97121   1.782   9.752   4.379  0.3416 -2.5730 -2.6849
  736MOL0     H97122   1.957   9.840   4.503 -0.5560  0.9831 -0.5938
  736MOL0     H97123   1.959   9.704   4.619 -0.2093  1.6887  0.4978
  736MOL0     H97124   1.866   9.924   4.693 -0.4369 -0.1364 -0.6352
  736MOL0     H97125   1.756   9.910   4.557 -0.3174 -1.0862 -0.2699
  736MOL0     H97126   1.759   9.738   4.796  1.4455  2.4064 -1.0238
  736MOL0     H97127   1.655   9.705   4.653  1.0646 -0.4080  0.0349
  736MOL0     H97128   1.648   9.941   4.837  0.2078  0.8174 -0.4906
  736MOL0     H97129   1.534   9.808   4.834 -0.8689  1.3708  0.5971
  736MOL0     H97130   1.584  10.052   4.667  2.1734 -0.9090  0.4640
  736MOL0     H97131   1.521   9.923   4.563 -2.1687  1.9886 -0.1877
  736MOL0     H97132   1.340  10.066   4.673  0.9791 -0.5716 -2.4223
  736MOL0     H97133   1.393  10.003   4.830 -2.0125 -0.0108  0.3608
  736MOL0     H97134   2.154   9.455   4.275  1.4857 -1.3259  1.1530
  736MOL0     H97135   2.372   9.383   4.317 -1.7906 -0.8229  2.3704
  736MOL0     H97136   2.754   9.244   4.589  0.8921 -0.3413  0.7939
  736MOL0     H97137   2.988   9.242   4.663 -1.3796 -0.2987  1.7816
  736MOL0     H97138   4.824  10.298   4.920  2.0816 -0.0144  0.5297
  736MOL0     H97139   5.047  10.238   4.945  1.6439 -1.9652  1.4709
  736MOL0     H97140   5.419  10.002   5.042  0.8373 -2.7405 -0.1157
  736MOL0     H97141   5.642   9.943   5.129  0.1747  4.0284 -1.2156
  736MOL0     H97142   5.904   9.932   5.422 -2.2566  0.1797  2.1861
  736MOL0     H97143   5.848   9.940   5.252  3.1300  1.8984  0.1592
  736MOL0     H97144   5.835   9.715   5.461  0.1339 -2.9496 -1.0377
  736MOL0     H97145   5.730   9.705   5.322  0.5613 -1.4388  0.3924
  736MOL0     H97146   6.046   9.714   5.317  0.5828 -0.1154 -1.1615
  736MOL0     H97147   5.937   9.742   5.178 -0.4264  1.9818  0.7246
  736MOL0     H97148   5.912   9.510   5.368 -0.5516  0.1125 -0.1329
  736MOL0     H97149   5.839   9.526   5.208 -1.3754  0.5544  2.3673
  736MOL0     H97150   6.226   9.444   5.065  0.1276  0.4790  0.1012
  736MOL0     H97151   5.500  10.036   5.523  0.1031  1.3686 -0.2732
  736MOL0     H97152   5.288  10.071   5.453  0.7268  0.8074  0.2167
  737MOL0     O97153   9.239  10.795   7.805 -0.0161  0.3165 -0.2966
  737MOL0     C97154   9.184  10.685   7.837 -0.5231 -0.1994 -0.7904
  737MOL0     O97155   9.069  10.642   7.795 -0.1649  0.2601 -0.2977
  737MOL0     C97156   8.976  10.716   7.731 -0.2429 -0.6945  0.0151
  737MOL0     C97157   8.918  10.829   7.783 -0.2808  0.2463  0.0723
  737MOL0     C97158   8.836  10.912   7.703  0.5948  0.6986 -0.3551
  737MOL0     C97159   8.819  10.887   7.561  0.7035  0.0503  0.0083
  737MOL0     O97160   8.730  10.943   7.472 -0.2879 -0.3905  0.0975
  737MOL0     C97161   8.673  11.065   7.529 -0.4166  0.4167  0.1023
  737MOL0     C97162   8.634  11.144   7.406  0.0675  0.6516  0.9033
  737MOL0     C97163   8.561  11.270   7.445  0.3528  0.3075 -0.0517
  737MOL0     C97164   8.524  11.363   7.318 -0.1763  0.2729 -0.8323
  737MOL0     C97165   8.473  11.497   7.373 -0.1652  0.2729 -0.2221
  737MOL0     C97166   8.423  11.593   7.259 -0.7077  0.5946 -0.6549
  737MOL0     C97167   8.415  11.739   7.312 -0.3630 -0.5796 -0.6496
  737MOL0     C97168   8.281  11.757   7.373  1.4800 -0.3574 -0.2255
  737MOL0     N97169   8.264  11.894   7.417  0.1044 -0.6212 -0.0439
  737MOL0     C97170   8.329  12.001   7.371  1.2577 -0.1178  0.9605
  737MOL0     C97171   8.289  12.101   7.439 -0.1740 -1.3803 -0.3325
  737MOL0     C97172   8.337  12.243   7.411 -0.1715  0.6994 -0.0180
  737MOL0     C97173   8.232  12.305   7.317  0.2684 -0.0546 -0.9485
  737MOL0     C97174   8.268  12.449   7.263 -0.6397  0.0894  0.8323
  737MOL0     C97175   8.178  12.508   7.155  0.0603  0.0472 -0.2140
  737MOL0     O97176   8.228  12.448   7.028  0.4522  0.6377 -0.3887
  737MOL0     C97177   8.148  12.460   6.916  0.7708  0.5780 -0.1119
  737MOL0     C97178   8.219  12.433   6.796 -0.0844  0.1485  0.3187
  737MOL0     C97179   8.149  12.439   6.674  0.5945  0.1057  0.6376
  737MOL0     C97180   8.007  12.461   6.671  0.1699  0.1822  0.4478
  737MOL0     C97181   7.939  12.484   6.533  0.5654 -0.0750 -0.4722
  737MOL0     O97182   7.799  12.491   6.544  1.0476 -0.0132  0.4751
  737MOL0     C97183   7.723  12.501   6.430 -0.0089  0.3548 -0.3341
  737MOL0     C97184   7.617  12.408   6.414 -0.9253  0.0652 -0.7449
  737MOL0     C97185   7.531  12.419   6.310 -0.0766 -0.1984 -0.5707
  737MOL0     C97186   7.539  12.531   6.221 -0.1638 -0.2105  0.3745
  737MOL0     O97187   7.441  12.566   6.134  0.4481  0.0759 -0.0338
  737MOL0     C97188   7.338  12.471   6.090  0.2697 -0.2598  0.5783
  737MOL0     C97189   7.243  12.547   5.994 -0.5367 -0.2758  0.4068
  737MOL0     C97190   7.155  12.645   6.079 -0.2268 -0.0816 -0.2205
  737MOL0     C97191   7.092  12.747   5.976  0.9844  0.7427 -0.4432
  737MOL0     C97192   6.994  12.679   5.872 -0.1022 -0.0498 -0.5218
  737MOL0     C97193   6.860  12.644   5.940 -0.5039 -0.3755 -0.3031
  737MOL0     C97194   6.763  12.609   5.826  1.0431 -0.0221  0.1453
  737MOL0     C97195   6.631  12.565   5.888 -1.1419 -0.6205  0.0383
  737MOL0    Cl97196   6.497  12.591   5.777  0.0350 -0.1346  0.7248
  737MOL0     C97197   7.641  12.627   6.245  0.1643  0.4963  0.8452
  737MOL0     C97198   7.729  12.614   6.350  0.4333 -0.0132  0.1524
  737MOL0     O97199   8.012  12.485   6.433 -0.2874  0.0975 -0.1784
  737MOL0     C97200   7.934  12.488   6.792 -0.2485 -0.1224 -0.1222
  737MOL0     C97201   8.007  12.485   6.911 -0.6720  0.0755 -0.7062
  737MOL0     N97202   8.209  12.060   7.538  0.9009  0.3329 -0.3261
  737MOL0     N97203   8.182  11.934   7.523 -0.3271  0.0751 -0.2813
  737MOL0     C97204   8.886  10.782   7.516 -0.7752 -0.1466  0.2743
  737MOL0     C97205   8.965  10.700   7.596 -0.8829 -0.0286  0.4667
  737MOL0     C97206   9.268  10.587   7.919 -0.2093 -0.1099  0.0889
  737MOL0     C97207   9.400  10.617   7.955 -0.8917 -0.6100  0.2176
  737MOL0     C97208   9.474  10.512   8.023  0.7374  0.4050  0.2950
  737MOL0     C97209   9.411  10.394   8.070 -0.4319 -0.6626  0.2392
  737MOL0     O97210   9.479  10.288   8.127  0.5653 -0.5832 -0.0298
  737MOL0     C97211   9.552  10.322   8.246 -0.4960 -0.3765  0.6657
  737MOL0     C97212   9.666  10.223   8.265  0.2358  0.1108  1.2280
  737MOL0     C97213   9.790  10.248   8.174 -0.0799 -0.2639  0.4677
  737MOL0     C97214   9.895  10.140   8.180 -0.2027  0.4483  0.0508
  737MOL0     C97215   9.841  10.017   8.112  0.3720 -0.3979  0.2315
  737MOL0     C97216   9.793   9.922   8.051 -0.1391 -0.3604 -0.2674
  737MOL0     C97217   9.281  10.376   8.043  0.0207  0.5257  0.8069
  737MOL0     C97218   9.209  10.467   7.963  0.0901  0.2450 -0.2904
  737MOL0     H97219   8.933  10.844   7.890  1.2743 -1.0257  0.0668
  737MOL0     H97220   8.781  10.996   7.744 -0.0357  0.4452 -0.6741
  737MOL0     H97221   8.752  11.122   7.579  2.2144 -1.0644 -2.0176
  737MOL0     H97222   8.585  11.048   7.590 -1.7474 -2.8224 -2.4040
  737MOL0     H97223   8.564  11.088   7.343  0.4345  0.4033  0.7096
  737MOL0     H97224   8.719  11.163   7.340 -0.8132 -0.8272 -0.7304
  737MOL0     H97225   8.625  11.318   7.520  1.4104 -3.5152  1.7471
  737MOL0     H97226   8.470  11.240   7.498 -0.2340  3.3456  0.8599
  737MOL0     H97227   8.609  11.369   7.249 -0.5233  0.3207 -1.2550
  737MOL0     H97228   8.447  11.322   7.252  1.5036  2.2838 -4.3651
  737MOL0     H97229   8.554  11.543   7.429  0.8985 -1.6376 -0.1055
  737MOL0     H97230   8.395  11.468   7.444 -0.8403  0.1853 -0.9779
  737MOL0     H97231   8.326  11.568   7.216 -0.8223 -0.1953  0.0338
  737MOL0     H97232   8.490  11.587   7.173  1.7504 -4.1029  1.1859
  737MOL0     H97233   8.488  11.762   7.389  2.0647  1.6232 -3.4190
  737MOL0     H97234   8.445  11.807   7.232  1.5677 -0.9213 -0.2478
  737MOL0     H97235   8.265  11.686   7.455 -0.5663 -2.1488 -2.0757
  737MOL0     H97236   8.204  11.735   7.299 -1.0648 -1.2492  2.4768
  737MOL0     H97237   8.400  12.007   7.288 -0.3671  1.5550 -0.4061
  737MOL0     H97238   8.431  12.234   7.356 -1.2647 -1.6934 -1.6368
  737MOL0     H97239   8.344  12.303   7.502 -2.2325 -1.1451  1.4793
  737MOL0     H97240   8.139  12.313   7.375  0.7072  0.6441 -0.3273
  737MOL0     H97241   8.225  12.237   7.232  1.8756 -2.8861  1.0158
  737MOL0     H97242   8.274  12.513   7.351 -0.1106 -0.6449  1.3318
  737MOL0     H97243   8.370  12.445   7.226  0.1252  2.2454  2.4937
  737MOL0     H97244   8.198  12.615   7.156  0.4270 -0.0228 -0.0214
  737MOL0     H97245   8.073  12.488   7.181 -0.1531 -0.2765 -1.2609
  737MOL0     H97246   8.321  12.396   6.804  0.1498  0.8727  0.8240
  737MOL0     H97247   8.206  12.432   6.582 -0.5805 -0.8576 -0.0472
  737MOL0     H97248   7.626  12.333   6.492  0.1182  1.0164  0.0919
  737MOL0     H97249   7.452  12.346   6.300 -0.3578  0.0660 -0.2849
  737MOL0     H97250   7.273  12.432   6.168 -0.4424  1.2052  0.7577
  737MOL0     H97251   7.396  12.397   6.034 -0.7639 -0.2695 -0.5299
  737MOL0     H97252   7.184  12.465   5.952 -1.6613  0.0510  1.3258
  737MOL0     H97253   7.300  12.599   5.916 -0.0841 -0.4180  0.6348
  737MOL0     H97254   7.206  12.710   6.149 -2.5919  2.4371 -0.6552
  737MOL0     H97255   7.082  12.583   6.132 -0.7298  1.6090  1.1431
  737MOL0     H97256   7.036  12.823   6.031 -1.3564  0.3292 -2.0750
  737MOL0     H97257   7.170  12.797   5.919 -0.2132  1.2763 -1.6697
  737MOL0     H97258   7.039  12.589   5.830 -0.5312  0.6424 -2.5877
  737MOL0     H97259   6.978  12.748   5.789  1.7157  2.6634  1.2151
  737MOL0     H97260   6.825  12.725   6.005  0.3883  1.5705 -2.1041
  737MOL0     H97261   6.879  12.554   6.000  0.6392  0.6033  0.8721
  737MOL0     H97262   6.728  12.694   5.767  1.6858  0.0007 -0.2180
  737MOL0     H97263   6.796  12.530   5.757 -0.6729 -0.3406 -0.3408
  737MOL0     H97264   6.618  12.614   5.985  2.5393  1.4224 -0.3288
  737MOL0     H97265   6.640  12.457   5.904 -0.2713 -1.0207 -2.7171
  737MOL0     H97266   7.659  12.717   6.187  0.0760  1.2486  1.9423
  737MOL0     H97267   7.808  12.687   6.365  0.6545 -0.0111 -0.9686
  737MOL0     H97268   7.828  12.512   6.783 -0.2502  0.3218  0.9801
  737MOL0     H97269   7.953  12.520   6.998 -0.8515  3.7050 -2.0951
  737MOL0     H97270   8.880  10.747   7.413  0.5916 -0.1350  0.1789
  737MOL0     H97271   9.013  10.613   7.552  1.4966  1.2986  0.2933
  737MOL0     H97272   9.451  10.699   7.906 -0.8172 -1.1215 -0.5812
  737MOL0     H97273   9.581  10.526   8.028  1.7160 -4.9557  0.1901
  737MOL0     H97274   9.477  10.317   8.325 -2.8899 -1.0104 -1.4932
  737MOL0     H97275   9.595  10.422   8.246 -0.1513 -0.5064  1.9193
  737MOL0     H97276   9.698  10.213   8.369  0.3957  1.6352  1.3505
  737MOL0     H97277   9.612  10.132   8.238  1.4836  0.0162 -1.2994
  737MOL0     H97278   9.828  10.347   8.199  0.7128 -0.5335  0.3546
  737MOL0     H97279   9.753  10.238   8.072 -0.5289 -0.3627  0.6357
  737MOL0     H97280   9.992  10.164   8.136 -0.3752 -3.1269 -2.7257
  737MOL0     H97281   9.913  10.115   8.285  1.4591 -0.4483 -0.4135
  737MOL0     H97282   9.751   9.857   7.977 -2.3630  0.2783  0.3374
  737MOL0     H97283   9.233  10.280   8.053 -1.6049  0.5752 -4.0691
  737MOL0     H97284   9.109  10.434   7.938  0.6692 -0.7215 -1.4008
  738MOL0     O97285   9.106   8.654   0.305  0.0592  0.5242 -0.3441
  738MOL0     C97286   9.108   8.566   0.400 -0.7708  0.3728  0.0307
  738MOL0     O97287   9.014   8.476   0.431 -0.4117 -0.4611  0.9527
  738MOL0     C97288   8.901   8.467   0.350 -0.4138 -0.0934 -0.1544
  738MOL0     C97289   8.907   8.429   0.215 -0.4008 -0.6883 -0.7155
  738MOL0     C97290   8.790   8.429   0.141  0.3454 -0.3838 -0.7691
  738MOL0     C97291   8.662   8.441   0.204 -0.7038 -0.7157  0.8241
  738MOL0     O97292   8.542   8.407   0.148 -0.0722  0.1646 -0.2062
  738MOL0     C97293   8.516   8.412   0.002 -0.5508 -0.1307 -1.0287
  738MOL0     C97294   8.378   8.369  -0.029  0.0584  0.1848  0.5601
  738MOL0     C97295   8.341   8.226   0.016 -0.2966  0.0893  1.0391
  738MOL0     C97296   8.229   8.162  -0.076 -0.0491 -0.4766  0.0265
  738MOL0     C97297   8.282   8.118  -0.220  0.0783  0.3147 -0.1532
  738MOL0     C97298   8.170   8.028  -0.286  0.4876  0.4198  0.0682
  738MOL0     C97299   8.063   8.116  -0.359  0.6042  0.6494 -0.0517
  738MOL0     C97300   7.943   8.031  -0.408  0.1014  0.6464  0.0850
  738MOL0     N97301   7.967   7.979  -0.546 -0.2907  0.1576 -0.1999
  738MOL0     C97302   7.937   8.033  -0.667  0.1839  0.5715 -0.3351
  738MOL0     C97303   7.993   7.943  -0.754  0.0784 -0.3375 -0.1983
  738MOL0     C97304   7.993   7.976  -0.902 -0.0016 -0.2175  0.3073
  738MOL0     C97305   7.914   7.878  -0.985  0.9181  0.5522  0.1545
  738MOL0     C97306   7.869   7.952  -1.115 -0.5589  0.0854  0.4492
  738MOL0     C97307   7.794   7.854  -1.206  0.1340  0.4909  0.6441
  738MOL0     O97308   7.745   7.915  -1.330  0.3908  0.0184 -0.2217
  738MOL0     C97309   7.615   7.954  -1.327  0.3516  0.3384  0.4843
  738MOL0     C97310   7.545   7.984  -1.210  0.5374 -0.3578  0.9660
  738MOL0     C97311   7.411   8.022  -1.225 -0.1935 -0.7639 -0.4898
  738MOL0     C97312   7.339   8.008  -1.345  0.2305 -0.6308 -0.4186
  738MOL0     C97313   7.197   8.022  -1.346 -0.2998 -0.3126  0.1467
  738MOL0     O97314   7.141   8.056  -1.228  0.2795 -0.3116  0.3594
  738MOL0     C97315   7.002   8.054  -1.219 -0.8171  1.3203  0.2879
  738MOL0     C97316   6.954   8.014  -1.092 -0.2556  0.1211 -0.4134
  738MOL0     C97317   6.818   8.024  -1.066 -0.2910 -0.0114  0.7568
  738MOL0     C97318   6.730   8.072  -1.158 -0.2881  0.4746 -0.2104
  738MOL0     O97319   6.595   8.053  -1.127  0.0773 -0.6956  0.4326
  738MOL0     C97320   6.499   8.099  -1.224 -0.5900 -0.3521 -0.5773
  738MOL0     C97321   6.358   8.073  -1.179 -0.3729 -0.5268  0.3909
  738MOL0     C97322   6.256   8.140  -1.265 -0.2076  0.6308  0.4093
  738MOL0     C97323   6.118   8.119  -1.219 -0.3400  0.6962  0.2938
  738MOL0     C97324   6.011   8.183  -1.316 -0.3819  0.2312  0.3081
  738MOL0     C97325   5.873   8.177  -1.248 -0.2011  0.7512 -0.1563
  738MOL0     C97326   5.752   8.202  -1.338  1.2708  0.0625 -0.0806
  738MOL0     C97327   5.618   8.209  -1.262  0.1828  0.2907  0.6380
  738MOL0    Cl97328   5.483   8.230  -1.372  0.4412  0.0170  0.0776
  738MOL0     C97329   6.772   8.123  -1.288 -0.1446  0.8042  0.2539
  738MOL0     C97330   6.916   8.115  -1.317 -0.7001 -0.2386  0.4058
  738MOL0     O97331   7.141   7.987  -1.453 -0.6020 -0.1563 -0.0689
  738MOL0     C97332   7.408   7.980  -1.460 -0.3306  0.0502  0.1080
  738MOL0     C97333   7.549   7.954  -1.450 -0.6937 -0.0412 -0.7145
  738MOL0     N97334   8.064   7.837  -0.684 -0.0446  0.0461  0.3495
  738MOL0     N97335   8.041   7.864  -0.559  0.9579  0.4059  0.1373
  738MOL0     C97336   8.663   8.478   0.335  0.5926 -0.2481 -0.3969
  738MOL0     C97337   8.778   8.484   0.412  0.2339 -0.1169  0.2330
  738MOL0     C97338   9.232   8.565   0.484  0.0791  0.0528 -0.3723
  738MOL0     C97339   9.349   8.628   0.440  0.2932  0.2649 -0.1497
  738MOL0     C97340   9.469   8.627   0.516 -0.5857  0.6259 -0.7431
  738MOL0     C97341   9.475   8.546   0.630 -0.5784  0.5162 -0.2999
  738MOL0     O97342   9.584   8.531   0.723  0.2292  0.5739  0.6444
  738MOL0     C97343   9.706   8.600   0.682  0.1531 -0.4125 -0.8980
  738MOL0     C97344   9.817   8.556   0.781  0.5354  0.7120  0.2475
  738MOL0     C97345   9.961   8.584   0.723 -0.1239 -0.2543 -0.0101
  738MOL0     C97346  10.053   8.519   0.828 -0.9319 -0.4526  0.9339
  738MOL0     C97347  10.191   8.533   0.775  0.5007  0.0780  0.1586
  738MOL0     C97348  10.307   8.544   0.744 -0.1159  0.3300 -0.2356
  738MOL0     C97349   9.356   8.480   0.674 -0.6649  0.2756 -0.2673
  738MOL0     C97350   9.232   8.487   0.606 -0.0098 -0.3989  0.9707
  738MOL0     H97351   8.998   8.401   0.163  0.3725 -1.7684  1.1309
  738MOL0     H97352   8.814   8.406   0.037  1.1230  1.3169 -0.9880
  738MOL0     H97353   8.568   8.329  -0.047 -0.2639  1.0940 -2.8993
  738MOL0     H97354   8.535   8.508  -0.048  0.4533  0.6477  0.7291
  738MOL0     H97355   8.370   8.372  -0.138  2.6478  2.9774  0.2995
  738MOL0     H97356   8.305   8.438   0.016 -0.9977 -0.7102  0.2789
  738MOL0     H97357   8.315   8.224   0.122  0.1540 -4.4169  1.2380
  738MOL0     H97358   8.426   8.157   0.011 -1.3193 -1.2640  1.5816
  738MOL0     H97359   8.192   8.077  -0.018 -2.0097  1.1089  1.2263
  738MOL0     H97360   8.139   8.223  -0.088  0.0400 -0.6252 -1.5764
  738MOL0     H97361   8.377   8.066  -0.204  0.6512  1.4557  0.2705
  738MOL0     H97362   8.317   8.205  -0.277  3.5097 -0.4779  0.5318
  738MOL0     H97363   8.125   7.966  -0.208 -0.0374  1.4066  0.5672
  738MOL0     H97364   8.213   7.958  -0.358  0.6163  1.9071 -1.3603
  738MOL0     H97365   8.028   8.181  -0.278 -0.4281 -1.3434  1.1765
  738MOL0     H97366   8.110   8.169  -0.443 -2.5004  1.1515 -1.6029
  738MOL0     H97367   7.856   8.098  -0.408 -0.1379  0.3804  1.5349
  738MOL0     H97368   7.912   7.957  -0.334 -3.9105  1.1742 -0.8604
  738MOL0     H97369   7.887   8.128  -0.680 -0.7432  0.5184  2.3189
  738MOL0     H97370   8.100   7.971  -0.927  0.1214  0.5920  0.6373
  738MOL0     H97371   7.954   8.076  -0.921  1.8390  0.2180 -1.5565
  738MOL0     H97372   7.823   7.846  -0.933  0.2161  1.0551 -0.7204
  738MOL0     H97373   7.977   7.791  -1.005  2.1080  0.7434  2.7214
  738MOL0     H97374   7.800   8.035  -1.099 -0.1349  0.0621  2.8034
  738MOL0     H97375   7.959   7.988  -1.166  0.1702 -0.6989  1.1559
  738MOL0     H97376   7.712   7.808  -1.150 -0.8928  0.9844 -0.4074
  738MOL0     H97377   7.863   7.771  -1.223  0.7437  1.0802  0.2020
  738MOL0     H97378   7.602   7.988  -1.118  2.3077  1.1710 -0.0929
  738MOL0     H97379   7.363   8.059  -1.135  2.3075  1.3582  0.1039
  738MOL0     H97380   7.024   7.976  -1.019 -1.3019 -2.0877 -0.4633
  738MOL0     H97381   6.787   7.978  -0.972  0.5795 -2.4373 -0.0576
  738MOL0     H97382   6.524   8.043  -1.315 -0.3133 -0.1511 -0.6238
  738MOL0     H97383   6.511   8.206  -1.242  1.7968 -0.9556 -3.2967
  738MOL0     H97384   6.347   8.117  -1.079  3.4149  0.1726  0.6357
  738MOL0     H97385   6.342   7.965  -1.171  3.0380 -1.0148  2.1420
  738MOL0     H97386   6.267   8.097  -1.365  0.5389 -0.3345  0.8865
  738MOL0     H97387   6.278   8.247  -1.276  3.4205 -0.1109 -0.7793
  738MOL0     H97388   6.101   8.011  -1.213 -0.4373  0.5296 -2.1080
  738MOL0     H97389   6.115   8.162  -1.118  0.4659  3.3152 -0.7086
  738MOL0     H97390   6.002   8.123  -1.408  1.4711  0.5295 -0.0892
  738MOL0     H97391   6.042   8.280  -1.354  4.0314 -0.9229  0.4788
  738MOL0     H97392   5.879   8.252  -1.168  1.9968 -0.3757  0.8261
  738MOL0     H97393   5.870   8.077  -1.203 -0.6954 -0.1231 -2.0585
  738MOL0     H97394   5.756   8.298  -1.390 -4.8467  0.2576 -0.9509
  738MOL0     H97395   5.754   8.124  -1.415 -0.7452 -0.7263  0.5852
  738MOL0     H97396   5.612   8.285  -1.184 -1.1082 -1.1041  1.9681
  738MOL0     H97397   5.603   8.114  -1.209  1.6675 -0.2040  0.2409
  738MOL0     H97398   6.711   8.163  -1.368  0.1335  0.6612 -0.0323
  738MOL0     H97399   6.952   8.158  -1.410 -2.4472  0.0911 -0.1530
  738MOL0     H97400   7.362   7.970  -1.557  2.2606 -0.1737 -1.1953
  738MOL0     H97401   7.615   7.935  -1.535  2.4482  2.4020  0.9376
  738MOL0     H97402   8.573   8.487   0.396 -0.5496 -0.0285 -2.0387
  738MOL0     H97403   8.766   8.511   0.516 -2.3641 -0.5980  0.1165
  738MOL0     H97404   9.349   8.700   0.359  0.2198 -2.1627 -2.4427
  738MOL0     H97405   9.556   8.684   0.484 -1.3145  0.9412 -2.2333
  738MOL0     H97406   9.698   8.709   0.688  1.2550 -0.0815 -3.5849
  738MOL0     H97407   9.743   8.576   0.581  0.7673 -0.7552 -0.5971
  738MOL0     H97408   9.800   8.594   0.882  0.8257  1.3437  0.0605
  738MOL0     H97409   9.817   8.447   0.794  4.1404  0.2152 -2.2952
  738MOL0     H97410   9.984   8.691   0.717 -1.6783  0.1019 -0.0965
  738MOL0     H97411   9.970   8.525   0.631 -1.2786  0.0073 -0.3169
  738MOL0     H97412  10.034   8.551   0.931 -0.9221 -0.5831  0.9772
  738MOL0     H97413  10.035   8.411   0.823 -2.1519 -0.2035 -0.4552
  738MOL0     H97414  10.412   8.539   0.723  0.0828 -0.6406  0.8807
  738MOL0     H97415   9.350   8.440   0.775  0.0443  1.1336  0.1270
  738MOL0     H97416   9.137   8.448   0.642 -1.4266  0.5732 -1.5044
  739MOL0     O97417   6.401   0.252   1.274 -0.1986  0.3041 -0.5791
  739MOL0     C97418   6.467   0.363   1.288 -0.0794 -0.1036 -0.7846
  739MOL0     O97419   6.415   0.461   1.363 -0.4830  0.3552 -0.0533
  739MOL0     C97420   6.292   0.439   1.420  0.7411 -0.0283  0.5884
  739MOL0     C97421   6.179   0.465   1.336 -0.0087  0.5538  0.0859
  739MOL0     C97422   6.053   0.451   1.396  0.4250  0.5369  0.9878
  739MOL0     C97423   6.034   0.426   1.529 -0.2613 -0.2826 -0.4243
  739MOL0     O97424   5.909   0.438   1.584  0.1101 -0.4975  0.6540
  739MOL0     C97425   5.874   0.369   1.704  0.0440 -0.4728  0.8247
  739MOL0     C97426   5.720   0.368   1.717  0.7891  0.1906 -0.5907
  739MOL0     C97427   5.657   0.493   1.786  0.0133  1.3393  1.2017
  739MOL0     C97428   5.510   0.475   1.799  0.3690  0.1991 -0.3010
  739MOL0     C97429   5.430   0.508   1.675 -0.1108  0.1154  0.3293
  739MOL0     C97430   5.291   0.449   1.689  0.0049 -0.5667 -0.0888
  739MOL0     C97431   5.278   0.312   1.616  0.3629  0.5692 -0.3458
  739MOL0     C97432   5.145   0.249   1.630  0.3001 -0.0836 -0.6476
  739MOL0     N97433   5.121   0.166   1.755 -0.9828 -0.0065 -0.3354
  739MOL0     C97434   5.071   0.041   1.767  0.2369 -0.7029 -0.2108
  739MOL0     C97435   5.058   0.022   1.897  0.3338 -0.6087 -0.3042
  739MOL0     C97436   4.977  -0.083   1.960  0.2682  0.3071 -0.2310
  739MOL0     C97437   4.822  -0.068   1.942 -0.4448  0.3022  0.6795
  739MOL0     C97438   4.757   0.033   2.030  0.5243 -0.2371  0.0494
  739MOL0     C97439   4.614   0.067   1.985  0.3526 -0.0116 -0.3578
  739MOL0     O97440   4.531  -0.040   1.941 -0.2989 -0.5283 -0.6775
  739MOL0     C97441   4.400  -0.024   1.940 -1.2119  0.5854  0.1008
  739MOL0     C97442   4.329  -0.138   1.977  0.2261  0.3276  0.2381
  739MOL0     C97443   4.189  -0.135   1.976  0.3914 -0.3977 -0.6520
  739MOL0     C97444   4.124  -0.013   1.947  0.7059  0.7191 -0.0356
  739MOL0     C97445   3.979  -0.007   1.963  0.0442  0.4550 -0.5569
  739MOL0     O97446   3.920  -0.125   1.991  0.8641  0.4060  0.1343
  739MOL0     C97447   3.790  -0.112   2.021 -0.2073 -0.6030  0.1844
  739MOL0     C97448   3.748  -0.058   2.141 -0.9161 -0.3458 -0.1762
  739MOL0     C97449   3.613  -0.034   2.169  0.0247 -0.3997 -0.9156
  739MOL0     C97450   3.510  -0.082   2.095  0.1016 -0.0056  0.9070
  739MOL0     O97451   3.384  -0.056   2.137  0.6102 -0.1549  0.7434
  739MOL0     C97452   3.284  -0.033   2.041 -1.0743 -0.3846  0.2761
  739MOL0     C97453   3.153  -0.031   2.110 -0.1053 -0.4954 -0.2371
  739MOL0     C97454   3.140   0.057   2.235  0.6356 -0.2231  0.1441
  739MOL0     C97455   2.989   0.062   2.274 -0.1606 -1.0052  0.1700
  739MOL0     C97456   2.976   0.158   2.394  0.1642  0.6766  0.6600
  739MOL0     C97457   2.828   0.189   2.429  0.7479  0.4366 -0.3815
  739MOL0     C97458   2.755   0.257   2.308  0.3122 -0.7526  0.8999
  739MOL0     C97459   2.609   0.306   2.349  0.1107  0.3311 -0.1849
  739MOL0    Cl97460   2.512   0.165   2.406 -0.6677 -0.6240 -0.0724
  739MOL0     C97461   3.554  -0.149   1.972 -0.9842  0.5954 -0.2089
  739MOL0     C97462   3.691  -0.166   1.933  0.1096  0.5082  0.0097
  739MOL0     O97463   3.928   0.104   1.957  0.4410  0.1990  0.1346
  739MOL0     C97464   4.201   0.098   1.918 -1.2899 -0.5282 -0.1864
  739MOL0     C97465   4.339   0.096   1.913  0.6734 -0.9494 -1.0731
  739MOL0     N97466   5.124   0.122   1.964 -0.0392 -0.4091  0.1389
  739MOL0     N97467   5.157   0.207   1.878 -0.1269 -0.5377 -0.1882
  739MOL0     C97468   6.144   0.413   1.610 -0.7124  0.1838  0.0222
  739MOL0     C97469   6.273   0.414   1.556  0.6889  0.7270 -0.2924
  739MOL0     C97470   6.602   0.380   1.231  0.6056  0.0818 -0.3520
  739MOL0     C97471   6.692   0.473   1.287 -0.2491 -0.3674 -0.5035
  739MOL0     C97472   6.815   0.492   1.234 -0.8881 -0.0018 -0.1846
  739MOL0     C97473   6.855   0.417   1.124 -0.3965  0.2103 -0.6157
  739MOL0     O97474   6.985   0.439   1.071 -1.1182 -0.5743 -0.7062
  739MOL0     C97475   7.045   0.328   0.998  0.4687 -0.2809 -0.7773
  739MOL0     C97476   7.195   0.336   1.019 -0.4436 -0.8026 -0.7394
  739MOL0     C97477   7.273   0.211   0.970  0.7081  0.3729  1.4093
  739MOL0     C97478   7.218   0.170   0.829 -0.3971  0.2089 -0.3897
  739MOL0     C97479   7.307   0.073   0.750 -0.1232 -0.5894  0.0916
  739MOL0     C97480   7.401   0.026   0.681  0.2651  0.1334  1.3439
  739MOL0     C97481   6.773   0.316   1.070 -0.6835 -0.0417  0.3206
  739MOL0     C97482   6.644   0.298   1.120  0.1821  0.6371 -0.8140
  739MOL0     H97483   6.191   0.479   1.229  0.6527  0.7900  0.1835
  739MOL0     H97484   5.971   0.468   1.327  1.2596  3.3818  0.5578
  739MOL0     H97485   5.912   0.436   1.783  3.9530  1.3698 -2.2710
  739MOL0     H97486   5.918   0.269   1.710  2.4567  0.5353  1.3810
  739MOL0     H97487   5.695   0.283   1.782  2.2184  0.1759 -0.0108
  739MOL0     H97488   5.675   0.335   1.623  1.9016 -1.7210 -0.5159
  739MOL0     H97489   5.673   0.580   1.722 -0.2462  2.2274  2.3206
  739MOL0     H97490   5.715   0.509   1.878  3.0752 -0.7987 -0.1868
  739MOL0     H97491   5.502   0.369   1.824  2.6925 -0.3364 -1.5557
  739MOL0     H97492   5.476   0.541   1.880  3.5174  2.0253 -0.3329
  739MOL0     H97493   5.473   0.460   1.586 -1.1743 -1.5270  0.6574
  739MOL0     H97494   5.434   0.616   1.658  0.4660 -0.4685 -5.0162
  739MOL0     H97495   5.217   0.520   1.651  2.5046  1.7815 -0.8908
  739MOL0     H97496   5.269   0.430   1.795 -1.0574 -0.6952 -0.3134
  739MOL0     H97497   5.300   0.317   1.509  2.5849  2.0770  0.1107
  739MOL0     H97498   5.358   0.250   1.658  0.0008  0.3555  0.0422
  739MOL0     H97499   5.124   0.184   1.544  4.6487 -1.4538 -0.9234
  739MOL0     H97500   5.065   0.323   1.625  0.6563  0.3161 -0.5063
  739MOL0     H97501   5.040  -0.022   1.684 -0.0869 -1.7248  0.6708
  739MOL0     H97502   4.997  -0.090   2.067  1.1564 -0.2397 -0.4302
  739MOL0     H97503   5.013  -0.173   1.910  0.7223  0.1592  0.3554
  739MOL0     H97504   4.777  -0.163   1.971  0.1950 -0.0540  0.5242
  739MOL0     H97505   4.793  -0.054   1.837 -1.9193 -1.5431  0.7819
  739MOL0     H97506   4.759   0.004   2.135 -2.5438  0.2790  0.3456
  739MOL0     H97507   4.806   0.127   2.004  0.9713 -0.7262 -0.9263
  739MOL0     H97508   4.617   0.138   1.902  0.5583  0.0422 -0.3042
  739MOL0     H97509   4.567   0.117   2.070 -0.2568  1.4868 -1.5357
  739MOL0     H97510   4.375  -0.228   2.014 -0.3799  1.0241  2.9423
  739MOL0     H97511   4.138  -0.224   2.012 -0.3571 -0.2393 -1.2896
  739MOL0     H97512   3.827  -0.026   2.210  1.0160 -1.2644 -1.8558
  739MOL0     H97513   3.589   0.018   2.261  1.8837  1.0169 -1.1703
  739MOL0     H97514   3.283  -0.108   1.962  0.8873  0.0418 -0.1986
  739MOL0     H97515   3.308   0.063   1.995 -3.7594 -0.4985 -1.6173
  739MOL0     H97516   3.126  -0.132   2.141 -0.2944 -0.3302  0.1455
  739MOL0     H97517   3.092   0.011   2.029  1.8583  1.8300 -0.6156
  739MOL0     H97518   3.173   0.156   2.203 -1.3142  0.5142  0.2921
  739MOL0     H97519   3.210   0.023   2.312  0.3221  1.7773  1.3729
  739MOL0     H97520   2.943   0.116   2.191 -1.4284  0.2966  1.6463
  739MOL0     H97521   2.951  -0.040   2.285 -1.1747 -0.4930  1.7069
  739MOL0     H97522   3.031   0.247   2.363  0.2399 -0.1150 -1.6818
  739MOL0     H97523   3.025   0.123   2.486 -2.0023  0.1709  1.6845
  739MOL0     H97524   2.815   0.259   2.512  0.8259  0.1903 -0.1635
  739MOL0     H97525   2.777   0.099   2.464  2.9183 -0.3659  0.8537
  739MOL0     H97526   2.804   0.345   2.266 -3.2290 -0.5114 -3.4472
  739MOL0     H97527   2.745   0.189   2.224  1.3573  1.2907 -0.9889
  739MOL0     H97528   2.565   0.351   2.260 -2.0731 -1.4319 -0.0801
  739MOL0     H97529   2.615   0.386   2.424 -1.3394  0.1927  0.1189
  739MOL0     H97530   3.488  -0.196   1.900  0.8622 -1.3187 -0.7319
  739MOL0     H97531   3.718  -0.208   1.837 -0.0034  2.5908 -0.9829
  739MOL0     H97532   4.155   0.196   1.902  3.2473  2.1275  1.1943
  739MOL0     H97533   4.386   0.188   1.877 -2.7808  1.0957 -0.8093
  739MOL0     H97534   6.143   0.411   1.718  1.5745 -0.9927  0.0847
  739MOL0     H97535   6.364   0.407   1.615  0.6957 -0.7181 -0.4342
  739MOL0     H97536   6.671   0.542   1.367  1.7098  1.4881 -1.4846
  739MOL0     H97537   6.882   0.568   1.274  0.1589 -1.8953  1.8592
  739MOL0     H97538   7.018   0.341   0.892  0.0379  1.5259 -0.4734
  739MOL0     H97539   7.015   0.225   1.018  0.3324 -0.1330 -0.2001
  739MOL0     H97540   7.227   0.422   0.961 -0.4103 -1.8458 -2.3439
  739MOL0     H97541   7.226   0.364   1.120  1.1975 -2.1101 -0.8311
  739MOL0     H97542   7.252   0.124   1.033  1.1446 -1.1928 -0.5022
  739MOL0     H97543   7.382   0.224   0.971  1.0119 -0.0368 -2.9714
  739MOL0     H97544   7.119   0.123   0.827  0.6439 -2.1140 -2.7037
  739MOL0     H97545   7.205   0.259   0.768 -0.0204  0.6171  0.1197
  739MOL0     H97546   7.490  -0.011   0.636  0.2566 -2.0773  2.9663
  739MOL0     H97547   6.801   0.265   0.978  1.8926 -1.0938  1.5911
  739MOL0     H97548   6.582   0.222   1.073  1.1154  0.5680 -1.9656
  740MOL0     O97549   1.104   8.499   5.779  0.4277  0.0543 -0.8084
  740MOL0     C97550   1.099   8.610   5.831 -1.1004  0.1149 -0.8647
  740MOL0     O97551   0.998   8.695   5.835 -0.1792 -0.2721  0.5271
  740MOL0     C97552   0.868   8.649   5.825 -1.6071  0.1992 -0.3389
  740MOL0     C97553   0.799   8.689   5.712 -0.9088 -0.1816  0.8427
  740MOL0     C97554   0.666   8.649   5.690  1.1036  0.3938  1.3447
  740MOL0     C97555   0.604   8.555   5.783 -0.5149 -0.4445  0.4160
  740MOL0     O97556   0.474   8.507   5.767  1.4634  0.6729 -0.2933
  740MOL0     C97557   0.407   8.501   5.639  0.4710 -0.4703  0.1218
  740MOL0     C97558   0.275   8.430   5.664  0.7581  0.6075  0.5592
  740MOL0     C97559   0.194   8.440   5.529  0.3154  0.3362 -0.1597
  740MOL0     C97560   0.066   8.377   5.541  0.4331  0.1075 -1.0804
  740MOL0     C97561  -0.003   8.379   5.413  0.0351  0.3770 -0.7258
  740MOL0     C97562  -0.141   8.302   5.410 -0.3450 -0.2656  0.3068
  740MOL0     C97563  -0.218   8.296   5.284  0.5946  0.1330  0.0765
  740MOL0     C97564  -0.299   8.425   5.258  0.7660  0.4067  0.2759
  740MOL0     N97565  -0.399   8.408   5.153 -0.7238 -0.1427 -0.2022
  740MOL0     C97566  -0.394   8.486   5.038  0.7149 -0.0363 -0.1545
  740MOL0     C97567  -0.514   8.472   4.982  0.6140  0.3449  0.0916
  740MOL0     C97568  -0.562   8.524   4.850  0.4505 -0.5132  0.8059
  740MOL0     C97569  -0.600   8.674   4.857  0.7341 -0.1990 -0.8443
  740MOL0     C97570  -0.470   8.764   4.878  0.4706 -0.7724 -0.3294
  740MOL0     C97571  -0.492   8.915   4.865  0.4781 -0.2779  0.7957
  740MOL0     O97572  -0.402   8.966   4.761 -0.2809 -0.5434 -0.2235
  740MOL0     C97573  -0.271   9.000   4.794 -0.2362 -0.8196 -0.3059
  740MOL0     C97574  -0.201   8.952   4.900 -0.3542  0.2498 -0.1884
  740MOL0     C97575  -0.064   8.987   4.915 -0.5157 -0.0566 -0.2776
  740MOL0     C97576   0.008   9.065   4.818 -0.1149  0.4332 -0.6846
  740MOL0     C97577   0.152   9.094   4.839  0.5648  0.0413  0.5661
  740MOL0     O97578   0.219   9.025   4.933  0.9091 -0.0594 -0.2459
  740MOL0     C97579   0.349   9.055   4.953  1.0405 -0.6233 -0.6019
  740MOL0     C97580   0.444   9.027   4.853 -0.4801 -0.4182  0.9041
  740MOL0     C97581   0.577   9.057   4.871  0.0204  0.8965 -0.7094
  740MOL0     C97582   0.625   9.109   4.992  0.3123 -0.2299  0.3383
  740MOL0     O97583   0.760   9.148   5.018 -0.0312  0.4778 -0.3490
  740MOL0     C97584   0.856   9.106   4.918 -0.0681  0.1556 -0.0393
  740MOL0     C97585   1.009   9.149   4.950  0.6305  0.5015 -0.0353
  740MOL0     C97586   1.031   9.097   5.091 -0.5237 -0.2778 -0.4328
  740MOL0     C97587   1.182   9.122   5.135 -0.2389  0.1882 -0.0506
  740MOL0     C97588   1.218   9.032   5.263 -0.9133  0.7606 -0.5508
  740MOL0     C97589   1.348   9.090   5.320 -0.1553  0.4491 -0.0944
  740MOL0     C97590   1.471   9.041   5.248 -0.7796 -0.1899 -0.0363
  740MOL0     C97591   1.590   9.104   5.314 -0.4481  0.4937  0.2917
  740MOL0    Cl97592   1.735   9.066   5.223 -0.0781  0.2179 -0.1041
  740MOL0     C97593   0.528   9.129   5.096  0.0088  0.0449  0.1983
  740MOL0     C97594   0.394   9.106   5.074  0.4662 -0.6304 -0.0963
  740MOL0     O97595   0.200   9.179   4.771 -0.2705 -0.1977  0.3284
  740MOL0     C97596  -0.067   9.114   4.715  0.5997 -0.1763 -0.4369
  740MOL0     C97597  -0.205   9.080   4.700 -0.6433 -0.5093 -0.0074
  740MOL0     N97598  -0.588   8.388   5.062  0.0420 -0.1766  0.6326
  740MOL0     N97599  -0.516   8.354   5.165 -0.2304 -0.3497  0.1247
  740MOL0     C97600   0.680   8.517   5.901  0.4016  0.0865 -0.0740
  740MOL0     C97601   0.810   8.557   5.919  0.5744  0.2743 -0.0183
  740MOL0     C97602   1.234   8.667   5.881  0.4392  0.4429  0.0609
  740MOL0     C97603   1.240   8.802   5.932  0.4766  0.7182  0.8515
  740MOL0     C97604   1.361   8.850   5.973 -0.6401 -0.2911 -0.4584
  740MOL0     C97605   1.477   8.782   5.970 -0.6995 -0.5694  0.1919
  740MOL0     O97606   1.593   8.840   6.013  0.2654  0.1757  0.5134
  740MOL0     C97607   1.715   8.778   5.983  0.7829  0.0172 -0.1224
  740MOL0     C97608   1.828   8.882   6.001 -0.1813 -0.2943  0.2757
  740MOL0     C97609   1.959   8.810   5.977 -0.4345 -0.2797 -0.4225
  740MOL0     C97610   2.091   8.887   6.036  0.8782  0.4017  1.3250
  740MOL0     C97611   2.079   8.903   6.175 -0.1383  1.0924  0.8135
  740MOL0     C97612   2.065   8.918   6.287 -0.8107  0.7024  0.3056
  740MOL0     C97613   1.472   8.653   5.926  0.0868 -0.6834  0.3640
  740MOL0     C97614   1.354   8.594   5.878  0.1347  1.1053  0.7687
  740MOL0     H97615   0.843   8.753   5.636 -2.4140  1.3074  1.1775
  740MOL0     H97616   0.603   8.677   5.607  0.1381 -1.0433  1.5539
  740MOL0     H97617   0.461   8.440   5.566 -1.0114 -0.9691 -0.6005
  740MOL0     H97618   0.389   8.604   5.606  1.1668  0.4864  2.4956
  740MOL0     H97619   0.217   8.478   5.743 -0.2871 -1.5235  1.1607
  740MOL0     H97620   0.289   8.324   5.686  0.6311  0.0299 -1.8613
  740MOL0     H97621   0.253   8.390   5.452 -0.1847 -1.2755  0.4694
  740MOL0     H97622   0.183   8.544   5.494 -0.9018  0.2073 -0.2116
  740MOL0     H97623   0.065   8.274   5.577 -0.6111  0.9816  1.6270
  740MOL0     H97624   0.012   8.440   5.613  0.9599 -1.0306  0.3635
  740MOL0     H97625   0.067   8.327   5.346 -1.0238 -2.5616  0.2763
  740MOL0     H97626  -0.007   8.483   5.380 -2.9018  0.6415  0.1746
  740MOL0     H97627  -0.206   8.342   5.488  0.3181  1.5152 -0.0121
  740MOL0     H97628  -0.114   8.199   5.438 -0.7315 -0.3892  0.2328
  740MOL0     H97629  -0.159   8.276   5.195 -0.4755  1.9411 -1.1094
  740MOL0     H97630  -0.290   8.214   5.282  0.5412  0.1496  0.9304
  740MOL0     H97631  -0.235   8.512   5.241  0.9133 -0.2891 -3.5626
  740MOL0     H97632  -0.354   8.457   5.347  2.3640  2.3516  0.6349
  740MOL0     H97633  -0.311   8.549   5.006 -0.8227  1.3318 -1.6793
  740MOL0     H97634  -0.647   8.460   4.826  1.5195 -1.5916 -0.3150
  740MOL0     H97635  -0.486   8.510   4.772  1.7656  0.3808  1.8799
  740MOL0     H97636  -0.655   8.678   4.951 -0.5685 -0.1082 -1.5837
  740MOL0     H97637  -0.661   8.712   4.774 -1.2488 -1.6935 -0.1452
  740MOL0     H97638  -0.438   8.745   4.981  1.5840 -2.6326 -0.9784
  740MOL0     H97639  -0.385   8.734   4.816  1.1418  1.5788 -0.6452
  740MOL0     H97640  -0.471   8.952   4.965  0.0265  1.1304  0.3988
  740MOL0     H97641  -0.595   8.943   4.839 -0.4189 -1.7044  2.5698
  740MOL0     H97642  -0.249   8.908   4.987 -0.5269  1.0022  0.1126
  740MOL0     H97643  -0.008   8.939   4.994  0.5998  1.1381 -0.3118
  740MOL0     H97644   0.413   8.979   4.761 -1.2525  3.4889 -1.0571
  740MOL0     H97645   0.654   9.027   4.801  1.2244 -1.4048  1.4627
  740MOL0     H97646   0.845   9.157   4.822  2.3299  0.9099  0.0263
  740MOL0     H97647   0.860   8.999   4.896  1.2368  0.5081 -1.7442
  740MOL0     H97648   1.013   9.258   4.944 -4.2707  0.8856 -0.4373
  740MOL0     H97649   1.073   9.104   4.873 -2.4897 -1.3771 -1.7609
  740MOL0     H97650   1.020   8.989   5.099  1.3219 -0.3901  1.3526
  740MOL0     H97651   0.966   9.144   5.165 -0.6793  0.6880 -1.1638
  740MOL0     H97652   1.252   9.101   5.053 -0.1815 -1.2719  0.3468
  740MOL0     H97653   1.194   9.226   5.166  4.8880 -1.0304  3.2056
  740MOL0     H97654   1.219   8.925   5.239 -2.1120  0.8038 -0.8653
  740MOL0     H97655   1.137   9.034   5.337 -0.4506 -3.6014  0.3397
  740MOL0     H97656   1.351   9.062   5.425  1.7509  1.3999  0.1626
  740MOL0     H97657   1.346   9.199   5.315  1.4660  0.5669  0.9183
  740MOL0     H97658   1.462   8.934   5.266 -1.1682  0.3506  3.9068
  740MOL0     H97659   1.476   9.056   5.140  2.5392  0.7281  0.1341
  740MOL0     H97660   1.603   9.073   5.418  1.9699  0.7729  0.1195
  740MOL0     H97661   1.570   9.211   5.313  2.0224  1.0183 -0.6879
  740MOL0     H97662   0.569   9.167   5.188  3.6747 -0.9631 -0.8586
  740MOL0     H97663   0.323   9.120   5.154  0.6109 -1.4140  0.1698
  740MOL0     H97664  -0.018   9.161   4.630 -1.1879  1.8268 -0.4408
  740MOL0     H97665  -0.259   9.115   4.613  1.7315 -2.6235 -2.5442
  740MOL0     H97666   0.627   8.463   5.978 -1.3671  1.4939 -0.2563
  740MOL0     H97667   0.861   8.516   6.006  1.0924 -0.2949 -0.5869
  740MOL0     H97668   1.155   8.869   5.931 -0.2725 -0.2019  1.5237
  740MOL0     H97669   1.373   8.950   6.013 -0.6205 -0.4264 -0.1280
  740MOL0     H97670   1.721   8.736   5.882  2.1639  1.7514 -0.8162
  740MOL0     H97671   1.725   8.700   6.059 -4.1871 -0.3937  0.4639
  740MOL0     H97672   1.814   8.964   5.930 -1.7814 -2.2577 -1.8433
  740MOL0     H97673   1.834   8.924   6.102  1.9597 -0.6700  0.3545
  740MOL0     H97674   1.971   8.782   5.872  0.3423 -0.3057 -0.3326
  740MOL0     H97675   1.952   8.717   6.033 -0.7427 -0.2855 -0.4681
  740MOL0     H97676   2.177   8.827   6.005 -0.6414 -0.7350 -0.9840
  740MOL0     H97677   2.110   8.977   5.976 -1.7796 -1.0312 -2.0561
  740MOL0     H97678   2.048   8.934   6.392 -2.2299  0.1534  0.1775
  740MOL0     H97679   1.560   8.591   5.922  0.0150 -0.7601 -0.1015
  740MOL0     H97680   1.361   8.491   5.847 -0.0086  0.5948  2.3320
  741MOL0     O97681   5.014   2.442   9.891 -0.1023  0.5837  0.0218
  741MOL0     C97682   4.987   2.531   9.967  0.4630 -0.7587 -0.3016
  741MOL0     O97683   4.859   2.571   9.999  0.7065  0.6521 -0.2450
  741MOL0     C97684   4.754   2.490   9.946  0.3495  0.4989 -0.7805
  741MOL0     C97685   4.744   2.347   9.968 -1.0148  0.9572  0.2675
  741MOL0     C97686   4.622   2.283   9.921 -0.7642 -0.0494 -0.1899
  741MOL0     C97687   4.514   2.356   9.863 -0.6478  0.5099  0.0648
  741MOL0     O97688   4.398   2.284   9.840  0.0085  0.5851  0.3875
  741MOL0     C97689   4.278   2.361   9.817 -0.0488 -0.0304  0.5867
  741MOL0     C97690   4.162   2.266   9.792 -0.1817 -0.1485  0.4019
  741MOL0     C97691   4.026   2.334   9.778  0.0321  0.0681  0.3259
  741MOL0     C97692   3.902   2.250   9.760 -0.7058 -0.2779  0.5094
  741MOL0     C97693   3.772   2.320   9.803 -0.2953  0.2529 -0.6976
  741MOL0     C97694   3.654   2.237   9.777  1.4928  0.1659  0.8932
  741MOL0     C97695   3.523   2.314   9.801  0.4306 -0.5542  0.0166
  741MOL0     C97696   3.408   2.237   9.740  0.4834 -0.1906  0.0232
  741MOL0     N97697   3.386   2.097   9.784  0.0525  0.4864 -0.0470
  741MOL0     C97698   3.361   2.061   9.913  0.4705  0.4993  0.1870
  741MOL0     C97699   3.341   1.924   9.910 -0.4317 -1.2847  0.7293
  741MOL0     C97700   3.309   1.839  10.022 -0.1694 -0.2317 -0.7511
  741MOL0     C97701   3.177   1.885  10.084  1.0033 -0.0551 -0.7494
  741MOL0     C97702   3.146   1.795  10.195  0.2911 -0.0363 -0.1124
  741MOL0     C97703   3.003   1.799  10.251  0.4737  0.1102  0.3303
  741MOL0     O97704   2.919   1.743  10.151 -0.5016  0.6091  0.3894
  741MOL0     C97705   2.790   1.733  10.189 -1.4794  0.1925 -0.4020
  741MOL0     C97706   2.697   1.711  10.090 -0.2987 -0.1149 -0.1732
  741MOL0     C97707   2.563   1.689  10.115 -0.2201 -0.1315  0.6000
  741MOL0     C97708   2.511   1.687  10.241 -0.4885 -0.2059 -0.4856
  741MOL0     C97709   2.373   1.667  10.272  0.4416 -0.2549 -0.6869
  741MOL0     O97710   2.340   1.673  10.406  0.5118  0.4592  0.0156
  741MOL0     C97711   2.209   1.666  10.436 -0.8889 -0.1164 -0.4061
  741MOL0     C97712   2.160   1.753  10.535  0.6409  0.6048  0.0410
  741MOL0     C97713   2.017   1.754  10.572 -0.8548 -0.9383 -1.5342
  741MOL0     C97714   1.939   1.654  10.527 -0.1841  0.2000 -0.0937
  741MOL0     O97715   1.806   1.642  10.561  0.2293 -0.5684  0.1542
  741MOL0     C97716   1.736   1.755  10.615  0.7922  0.1310 -0.0093
  741MOL0     C97717   1.582   1.714  10.641  0.2846  0.1953 -0.9108
  741MOL0     C97718   1.486   1.699  10.523  0.3071 -0.8597  0.4756
  741MOL0     C97719   1.547   1.629  10.406 -0.4951 -0.1710 -0.0963
  741MOL0     C97720   1.439   1.588  10.299 -0.1286  0.8421  0.3030
  741MOL0     C97721   1.495   1.489  10.202 -0.0159  0.4293  0.1898
  741MOL0     C97722   1.561   1.566  10.085  0.6822  0.9119 -0.4847
  741MOL0     C97723   1.594   1.482   9.959  0.4011  0.4301  0.2454
  741MOL0    Cl97724   1.657   1.316  10.003  0.2836 -0.0976 -0.0062
  741MOL0     C97725   1.987   1.564  10.435 -0.4986 -0.2100 -0.4933
  741MOL0     C97726   2.122   1.570  10.391  0.5763  0.5057 -0.0541
  741MOL0     O97727   2.294   1.665  10.179  0.1965 -0.3183 -0.4368
  741MOL0     C97728   2.609   1.710  10.339 -0.1285  0.1681 -0.9250
  741MOL0     C97729   2.745   1.734  10.316  0.5295  0.5183  0.2791
  741MOL0     N97730   3.365   1.877   9.780  0.5429 -0.2177  0.8483
  741MOL0     N97731   3.393   1.983   9.712  0.7235 -0.2161 -0.5442
  741MOL0     C97732   4.536   2.487   9.837  0.0256 -0.7798 -0.7573
  741MOL0     C97733   4.661   2.555   9.867  0.6946 -0.2120 -0.2232
  741MOL0     C97734   5.099   2.609  10.031  0.7516  0.5544 -0.0873
  741MOL0     C97735   5.076   2.694  10.140  0.4545  0.2930 -0.8036
  741MOL0     C97736   5.182   2.760  10.206 -0.0409  0.0188  0.7298
  741MOL0     C97737   5.306   2.750  10.161  0.4038  0.4263  0.0087
  741MOL0     O97738   5.391   2.828  10.230  0.1930 -0.3539  0.4014
  741MOL0     C97739   5.527   2.791  10.230  0.3116 -0.0550  0.1321
  741MOL0     C97740   5.620   2.879  10.319 -0.4523 -0.4184  0.0382
  741MOL0     C97741   5.580   2.883  10.465  0.2692  0.1771  0.3606
  741MOL0     C97742   5.708   2.925  10.546 -0.1352 -0.6637  1.0501
  741MOL0     C97743   5.765   3.052  10.495 -0.5186 -0.2462  0.3602
  741MOL0     C97744   5.826   3.152  10.472 -0.2738  0.1339 -1.1832
  741MOL0     C97745   5.338   2.676  10.044  0.3099  0.0253  0.2250
  741MOL0     C97746   5.228   2.611   9.976  0.4619 -0.0321 -0.4668
  741MOL0     H97747   4.819   2.285  10.016  0.5777  2.5090 -0.1552
  741MOL0     H97748   4.602   2.178   9.940  1.0885 -0.9185 -2.5420
  741MOL0     H97749   4.287   2.432   9.734  0.7631  0.4041  1.0306
  741MOL0     H97750   4.255   2.419   9.907  0.9984 -1.4150  1.8049
  741MOL0     H97751   4.154   2.187   9.868 -0.4210 -1.1944 -0.6781
  741MOL0     H97752   4.190   2.204   9.707  2.3448 -0.6624  1.4930
  741MOL0     H97753   4.026   2.412   9.701 -0.4146  0.6533  0.8967
  741MOL0     H97754   4.011   2.384   9.875 -0.7333  0.1574  0.1638
  741MOL0     H97755   3.897   2.222   9.654 -1.4215 -0.3178  0.5550
  741MOL0     H97756   3.904   2.151   9.808  0.5394 -0.8955 -0.7369
  741MOL0     H97757   3.762   2.418   9.756  0.4594  1.3643  1.3044
  741MOL0     H97758   3.771   2.334   9.912 -0.9981 -1.5903 -0.4193
  741MOL0     H97759   3.655   2.143   9.835 -0.7896  0.5291  1.6368
  741MOL0     H97760   3.647   2.206   9.673 -1.3801  0.3580  0.9471
  741MOL0     H97761   3.513   2.323   9.910  2.3849 -0.9069  0.2560
  741MOL0     H97762   3.529   2.415   9.760 -0.1572 -1.1638 -1.6458
  741MOL0     H97763   3.421   2.245   9.631  0.0945 -0.4815 -0.0434
  741MOL0     H97764   3.318   2.294   9.762  1.2254  1.1374 -0.2386
  741MOL0     H97765   3.357   2.125  10.000 -1.6596 -0.5591  0.9336
  741MOL0     H97766   3.391   1.834  10.094  0.2852  0.6261 -1.1879
  741MOL0     H97767   3.300   1.738   9.981  1.7741  0.2323 -2.5236
  741MOL0     H97768   3.092   1.884  10.015  0.9665  0.3559 -0.7112
  741MOL0     H97769   3.197   1.984  10.127  3.3005 -1.1845  0.9978
  741MOL0     H97770   3.171   1.691  10.174 -3.2640 -1.9757  3.7918
  741MOL0     H97771   3.212   1.829  10.276 -0.7953  1.0817  0.3414
  741MOL0     H97772   2.981   1.904  10.275  1.2616 -0.0290  1.7586
  741MOL0     H97773   3.009   1.748  10.348 -1.0028  2.0665  1.5179
  741MOL0     H97774   2.731   1.710   9.987  0.4878  0.3584  0.0742
  741MOL0     H97775   2.505   1.658  10.028 -0.2516  0.4763  0.4034
  741MOL0     H97776   2.224   1.836  10.561  2.1387 -0.5745  0.2903
  741MOL0     H97777   1.977   1.833  10.635 -0.3040  1.2381 -3.7323
  741MOL0     H97778   1.743   1.836  10.541  2.6187 -1.8559 -2.1543
  741MOL0     H97779   1.771   1.797  10.710 -1.7543  2.4587  0.0309
  741MOL0     H97780   1.541   1.798  10.698 -1.5341 -0.3489 -1.3258
  741MOL0     H97781   1.563   1.625  10.703 -2.8954  0.6004 -1.1101
  741MOL0     H97782   1.456   1.802  10.500  1.5809 -0.5290  0.2651
  741MOL0     H97783   1.392   1.648  10.548  0.9251 -2.6894 -0.7043
  741MOL0     H97784   1.626   1.688  10.359  1.2821 -1.0436  1.6512
  741MOL0     H97785   1.587   1.541  10.458 -4.5684 -1.2106  1.6206
  741MOL0     H97786   1.407   1.679  10.248 -1.8898  0.4307  0.5934
  741MOL0     H97787   1.356   1.539  10.350  1.0070  0.2272  1.6288
  741MOL0     H97788   1.408   1.437  10.160 -0.0850 -0.0257  0.8752
  741MOL0     H97789   1.561   1.417  10.252  0.3551  0.5469 -0.1233
  741MOL0     H97790   1.475   1.627  10.055 -1.2743 -1.4083  0.0994
  741MOL0     H97791   1.651   1.622  10.113  0.0867  0.8957  1.6758
  741MOL0     H97792   1.674   1.520   9.895 -0.1318 -0.0070 -0.6957
  741MOL0     H97793   1.497   1.478   9.908  1.1330  0.1959 -1.1721
  741MOL0     H97794   1.919   1.480  10.425 -0.0474 -0.4578 -1.6248
  741MOL0     H97795   2.169   1.491  10.333  1.0638  0.5949  0.2144
  741MOL0     H97796   2.569   1.714  10.440  0.9382 -0.3358 -0.4577
  741MOL0     H97797   2.813   1.756  10.398 -0.1412 -2.1069  1.6473
  741MOL0     H97798   4.459   2.550   9.793  1.2832  1.0277 -0.4778
  741MOL0     H97799   4.670   2.661   9.843 -1.9099  0.0878 -0.1468
  741MOL0     H97800   4.979   2.701  10.188 -0.6742  1.4961 -3.1375
  741MOL0     H97801   5.170   2.831  10.288 -0.8085 -0.4210  1.0085
  741MOL0     H97802   5.558   2.806  10.126  0.3588  0.2621  0.1900
  741MOL0     H97803   5.541   2.684  10.249  0.1046 -0.2253 -0.6109
  741MOL0     H97804   5.716   2.827  10.307 -0.9872 -1.3336 -0.3720
  741MOL0     H97805   5.642   2.975  10.273  1.5252  0.6636  2.9124
  741MOL0     H97806   5.554   2.785  10.504 -0.5273  0.2765  0.0862
  741MOL0     H97807   5.499   2.953  10.488  1.1861  1.8058 -1.1157
  741MOL0     H97808   5.671   2.949  10.646 -4.1337  0.3137 -0.4655
  741MOL0     H97809   5.781   2.845  10.537  0.6332  0.2001 -1.3770
  741MOL0     H97810   5.885   3.240  10.456  1.2760 -0.4477  0.9009
  741MOL0     H97811   5.440   2.668  10.007  0.5854  2.1670  0.3588
  741MOL0     H97812   5.262   2.558   9.887  2.0712 -1.9078  1.1531
  742MOL0     O97813   7.623  11.097   5.268 -0.5507 -0.5944 -0.1109
  742MOL0     C97814   7.743  11.096   5.298  0.0780 -0.3064  0.5407
  742MOL0     O97815   7.793  11.035   5.409 -0.2177 -0.4147  0.3263
  742MOL0     C97816   7.694  10.992   5.500 -0.0658  0.9389  0.1277
  742MOL0     C97817   7.634  11.089   5.582  0.5564 -0.1140  0.2016
  742MOL0     C97818   7.549  11.056   5.679  0.0641 -0.3711 -0.1682
  742MOL0     C97819   7.506  10.923   5.702 -0.1148 -0.2087 -0.0515
  742MOL0     O97820   7.419  10.886   5.804 -0.5098 -0.4005 -0.4185
  742MOL0     C97821   7.282  10.925   5.787  0.8027  0.2516  0.2233
  742MOL0     C97822   7.200  10.844   5.887 -0.4540 -0.9908  0.1341
  742MOL0     C97823   7.220  10.903   6.028 -0.2447 -1.0281  0.7005
  742MOL0     C97824   7.127  10.848   6.133 -0.0406  0.4248 -0.0211
  742MOL0     C97825   6.983  10.883   6.124  1.1901  0.0535  0.7941
  742MOL0     C97826   6.910  10.833   6.246  0.1968 -0.5658 -0.0126
  742MOL0     C97827   6.767  10.896   6.258 -0.0489  0.1413  0.6815
  742MOL0     C97828   6.704  10.847   6.385  0.6123 -0.7684  0.3552
  742MOL0     N97829   6.565  10.870   6.413 -0.3984  0.4547 -0.1524
  742MOL0     C97830   6.511  10.986   6.446  1.1360 -0.0817  0.6133
  742MOL0     C97831   6.378  10.967   6.459 -0.5113  0.8219  0.5015
  742MOL0     C97832   6.281  11.068   6.512  0.4974  0.5457  0.0716
  742MOL0     C97833   6.277  11.086   6.660  0.2382 -0.3572  0.6360
  742MOL0     C97834   6.215  10.977   6.744  0.7333 -0.0977  0.2772
  742MOL0     C97835   6.080  10.925   6.705  0.6995  0.3013  1.2078
  742MOL0     O97836   5.983  11.028   6.679  0.2329 -0.4532 -0.0319
  742MOL0     C97837   5.849  10.997   6.695  0.9061 -0.3616  0.3980
  742MOL0     C97838   5.760  11.111   6.719 -0.2279 -0.4381  0.1411
  742MOL0     C97839   5.625  11.095   6.745 -0.7192 -0.6364  0.2158
  742MOL0     C97840   5.563  10.976   6.724  0.8821 -0.0624 -0.1104
  742MOL0     C97841   5.413  10.954   6.723 -0.5654  0.2466 -0.7305
  742MOL0     O97842   5.373  10.830   6.672 -1.3791  0.1669  0.7032
  742MOL0     C97843   5.242  10.797   6.649 -0.4844 -0.1759 -0.4104
  742MOL0     C97844   5.167  10.873   6.557 -0.2577 -0.3948 -0.7702
  742MOL0     C97845   5.028  10.857   6.551  0.2175 -0.2904 -0.3645
  742MOL0     C97846   4.970  10.750   6.622 -0.3440  0.2803 -0.6979
  742MOL0     O97847   4.835  10.734   6.601 -0.0916  0.2296  0.4114
  742MOL0     C97848   4.768  10.647   6.694  0.3766  0.1680 -0.1199
  742MOL0     C97849   4.624  10.635   6.641  0.4639  0.1128  0.3484
  742MOL0     C97850   4.544  10.765   6.655  0.6993  0.0949  0.3018
  742MOL0     C97851   4.425  10.754   6.564  0.2844 -0.0827 -0.3175
  742MOL0     C97852   4.340  10.887   6.576 -1.2244  0.5168  0.0622
  742MOL0     C97853   4.235  10.905   6.466 -0.0652  0.5529  0.3634
  742MOL0     C97854   4.151  10.784   6.431 -0.3210 -0.2529  0.3021
  742MOL0     C97855   4.035  10.820   6.336 -1.7377 -1.1806 -0.3602
  742MOL0    Cl97856   3.917  10.938   6.399  0.4690 -0.3865  0.0174
  742MOL0     C97857   5.050  10.678   6.711 -0.8154  0.0075  0.3325
  742MOL0     C97858   5.183  10.706   6.734 -0.2517  0.0226 -0.5169
  742MOL0     O97859   5.333  11.034   6.768 -0.2555  0.3436 -0.4700
  742MOL0     C97860   5.648  10.868   6.686 -1.1634  0.3229 -0.1910
  742MOL0     C97861   5.788  10.879   6.679 -0.4659  0.1575 -0.1726
  742MOL0     N97862   6.352  10.836   6.422  0.4145 -0.5005  0.3688
  742MOL0     N97863   6.465  10.778   6.390  1.0515 -0.0152 -0.0159
  742MOL0     C97864   7.560  10.821   5.623  0.2120 -0.4383  0.2802
  742MOL0     C97865   7.651  10.861   5.519  0.1526  0.2315  0.5679
  742MOL0     C97866   7.839  11.157   5.201  0.2520 -0.4896 -0.6292
  742MOL0     C97867   7.978  11.141   5.215 -0.9334 -0.0737 -0.9642
  742MOL0     C97868   8.065  11.221   5.143  0.3868  0.3655  0.5894
  742MOL0     C97869   8.015  11.309   5.042  0.0788  0.0249 -0.0201
  742MOL0     O97870   8.095  11.395   4.972  0.0438 -0.4593  0.3864
  742MOL0     C97871   8.241  11.390   4.979  0.2468  0.6726 -0.3655
  742MOL0     C97872   8.302  11.459   5.101 -0.5303  0.2580  0.2917
  742MOL0     C97873   8.253  11.603   5.101  0.6622  0.7978 -0.5929
  742MOL0     C97874   8.312  11.687   5.225  0.2244 -0.4849 -0.1332
  742MOL0     C97875   8.220  11.792   5.272  0.3783 -0.2387 -0.2092
  742MOL0     C97876   8.147  11.875   5.323  0.3024 -0.1988  0.0350
  742MOL0     C97877   7.880  11.312   5.023  0.5582 -0.2932  1.1354
  742MOL0     C97878   7.795  11.244   5.101  1.4522 -0.3099 -0.2602
  742MOL0     H97879   7.654  11.195   5.573  0.8269 -0.2007 -0.3109
  742MOL0     H97880   7.519  11.135   5.747 -0.0251  0.5649 -1.2680
  742MOL0     H97881   7.245  10.894   5.689 -0.7884  0.3922  0.7461
  742MOL0     H97882   7.268  11.033   5.803 -1.0568 -0.0213  0.7111
  742MOL0     H97883   7.222  10.737   5.879  0.5573 -0.8106  0.3541
  742MOL0     H97884   7.092  10.852   5.870 -1.3577  1.4700  5.0551
  742MOL0     H97885   7.199  11.010   6.015 -3.6720 -1.8130 -1.4168
  742MOL0     H97886   7.324  10.900   6.062  0.7139  2.0424 -1.4682
  742MOL0     H97887   7.131  10.739   6.140  0.5963  0.5652  2.7930
  742MOL0     H97888   7.169  10.873   6.231  1.6728 -0.0316 -0.6016
  742MOL0     H97889   6.934  10.843   6.036  0.7566  1.2448  0.4715
  742MOL0     H97890   6.980  10.992   6.113  4.7784  0.4808  2.3961
  742MOL0     H97891   6.956  10.858   6.342 -0.7301  1.5153 -0.0578
  742MOL0     H97892   6.902  10.726   6.223  3.0547 -0.7191 -0.5743
  742MOL0     H97893   6.770  11.005   6.257 -0.3688  0.2460  3.3132
  742MOL0     H97894   6.703  10.866   6.174  2.0042  0.1379 -0.9443
  742MOL0     H97895   6.766  10.885   6.466 -0.1181 -3.5764  2.3877
  742MOL0     H97896   6.720  10.739   6.393 -2.4777 -1.4499 -0.9361
  742MOL0     H97897   6.574  11.073   6.465  1.5658 -0.5564  1.4263
  742MOL0     H97898   6.178  11.057   6.478  0.0161  3.1524  0.4275
  742MOL0     H97899   6.310  11.161   6.461  0.7936  0.3433 -0.1338
  742MOL0     H97900   6.211  11.169   6.687 -0.1774 -0.6801  0.6284
  742MOL0     H97901   6.377  11.102   6.701 -0.3897  2.3441  1.3024
  742MOL0     H97902   6.291  10.898   6.753  3.1470  1.9603 -0.6422
  742MOL0     H97903   6.214  11.022   6.843 -2.8689 -1.5119  1.0206
  742MOL0     H97904   6.049  10.850   6.778  2.6979 -2.1150 -0.2354
  742MOL0     H97905   6.092  10.862   6.616  1.5424  0.6376  1.0747
  742MOL0     H97906   5.807  11.209   6.724 -0.1229 -0.5336  1.4945
  742MOL0     H97907   5.564  11.179   6.776  0.1571  0.3106 -0.5593
  742MOL0     H97908   5.220  10.955   6.508 -0.6129  0.5392  0.3681
  742MOL0     H97909   4.961  10.922   6.495  0.2731 -1.2620 -1.6185
  742MOL0     H97910   4.769  10.689   6.795  0.0468 -2.6165  1.1423
  742MOL0     H97911   4.809  10.546   6.705 -0.3775 -0.1037  0.2029
  742MOL0     H97912   4.575  10.557   6.700 -0.2533 -0.1793 -0.6003
  742MOL0     H97913   4.630  10.603   6.536 -2.0547 -1.1467  0.5139
  742MOL0     H97914   4.602  10.845   6.610  1.1747 -0.3501  0.1169
  742MOL0     H97915   4.512  10.783   6.759 -2.5284  1.2995 -0.7705
  742MOL0     H97916   4.467  10.761   6.464  0.9553  5.8087 -0.0071
  742MOL0     H97917   4.356  10.672   6.583  0.5382  0.0358  1.2751
  742MOL0     H97918   4.405  10.974   6.571  0.3160 -0.5730  0.3646
  742MOL0     H97919   4.289  10.881   6.672 -3.1624 -2.6105 -1.0070
  742MOL0     H97920   4.281  10.941   6.373 -0.1801 -1.0648 -0.3678
  742MOL0     H97921   4.171  10.987   6.499 -0.7725 -0.5560  1.8382
  742MOL0     H97922   4.228  10.721   6.386  0.2624 -0.6761  1.8344
  742MOL0     H97923   4.108  10.739   6.520 -0.0617  0.9167  1.0498
  742MOL0     H97924   3.990  10.726   6.304 -0.4738 -1.4422 -1.4400
  742MOL0     H97925   4.094  10.862   6.254 -1.8638  0.7208  0.4492
  742MOL0     H97926   5.019  10.597   6.776 -1.3902  0.4388  0.6123
  742MOL0     H97927   5.229  10.652   6.815 -3.1029 -0.9830  0.5365
  742MOL0     H97928   5.605  10.770   6.666  1.3122 -0.9181  0.1499
  742MOL0     H97929   5.837  10.785   6.653 -1.6610 -0.7262  0.6416
  742MOL0     H97930   7.532  10.719   5.649  0.8749 -0.4457  0.9920
  742MOL0     H97931   7.708  10.786   5.466 -1.2135  0.1122 -0.7936
  742MOL0     H97932   8.030  11.082   5.289  0.3222  0.3662 -1.4751
  742MOL0     H97933   8.172  11.224   5.161  1.0289  2.2724 -2.7154
  742MOL0     H97934   8.289  11.445   4.898  1.2559  0.0280 -0.2124
  742MOL0     H97935   8.272  11.286   4.966 -0.7930  0.5846 -2.5887
  742MOL0     H97936   8.267  11.409   5.192  1.3637  2.0093  2.1038
  742MOL0     H97937   8.411  11.461   5.094 -0.6588  2.5441 -3.3708
  742MOL0     H97938   8.145  11.606   5.115  0.8504  0.6538  1.1095
  742MOL0     H97939   8.289  11.662   5.017 -1.8997  0.8479 -1.7503
  742MOL0     H97940   8.323  11.631   5.318 -0.7761  0.2614  0.4467
  742MOL0     H97941   8.409  11.733   5.202  0.1970  1.8317  3.4970
  742MOL0     H97942   8.077  11.942   5.369 -0.0792 -1.8198  1.9942
  742MOL0     H97943   7.837  11.378   4.948  1.1210  0.4776  1.4788
  742MOL0     H97944   7.688  11.263   5.099  1.5610  0.3091 -1.6710
  743MOL0     O97945   1.275   8.908   1.676  0.3334  0.3793 -0.0587
  743MOL0     C97946   1.186   8.850   1.743  0.2143  0.4402 -0.5080
  743MOL0     O97947   1.204   8.726   1.797  0.2088  0.1345 -0.5667
  743MOL0     C97948   1.325   8.667   1.775 -0.0126  0.0641 -0.0016
  743MOL0     C97949   1.425   8.673   1.872 -0.2022 -0.7762  0.3972
  743MOL0     C97950   1.547   8.605   1.837 -0.1233  0.9481 -0.0564
  743MOL0     C97951   1.563   8.516   1.725 -0.3620  0.7411  0.7085
  743MOL0     O97952   1.685   8.438   1.717  0.3578  0.3705  0.0434
  743MOL0     C97953   1.739   8.423   1.588  0.2315  0.3032  0.3211
  743MOL0     C97954   1.858   8.327   1.604 -0.0200 -0.6007  0.2405
  743MOL0     C97955   1.795   8.194   1.637  0.4711 -0.2755  0.0502
  743MOL0     C97956   1.905   8.083   1.625  0.5697  0.2687  0.6524
  743MOL0     C97957   1.927   8.048   1.472 -0.0006  0.2205  0.3004
  743MOL0     C97958   1.812   7.953   1.406 -1.0176  0.1361 -0.5258
  743MOL0     C97959   1.855   7.915   1.252  0.5521 -1.1660 -0.1446
  743MOL0     C97960   1.768   7.802   1.198  0.1429 -0.5595 -0.7183
  743MOL0     N97961   1.621   7.841   1.207 -1.2414  0.2437  0.1024
  743MOL0     C97962   1.543   7.918   1.125 -0.3607 -0.2126  0.2549
  743MOL0     C97963   1.417   7.908   1.175  0.0348 -0.4443 -0.5930
  743MOL0     C97964   1.301   7.989   1.112 -0.7919  1.0633 -0.4399
  743MOL0     C97965   1.222   7.912   0.997 -1.0352  0.2722  0.1998
  743MOL0     C97966   1.137   7.788   1.050  0.1433 -0.0663 -0.1281
  743MOL0     C97967   1.058   7.815   1.173 -0.4315 -0.0555 -0.6270
  743MOL0     O97968   0.976   7.705   1.216 -0.1622 -0.0231 -0.4706
  743MOL0     C97969   0.850   7.676   1.163  0.3288  0.0681 -0.0481
  743MOL0     C97970   0.780   7.764   1.077  0.0678 -0.2746  0.2079
  743MOL0     C97971   0.644   7.737   1.046 -0.0038 -0.3058  0.0017
  743MOL0     C97972   0.589   7.616   1.085  0.4657 -0.3359  0.0300
  743MOL0     C97973   0.444   7.582   1.055 -1.0552  0.5438 -0.5820
  743MOL0     O97974   0.389   7.459   1.111  0.3866 -0.0574 -0.0357
  743MOL0     C97975   0.253   7.420   1.104 -0.7514 -0.0831  0.3582
  743MOL0     C97976   0.144   7.501   1.095  0.0245  0.1228  0.3676
  743MOL0     C97977   0.013   7.453   1.106  0.0480 -0.6390  0.4589
  743MOL0     C97978  -0.015   7.318   1.106 -1.0355  1.2073  0.1039
  743MOL0     O97979  -0.143   7.278   1.112  0.0735  0.1561 -0.3597
  743MOL0     C97980  -0.173   7.155   1.189 -0.2068  0.1117  0.5659
  743MOL0     C97981  -0.321   7.122   1.156 -0.4723 -0.1653 -0.6666
  743MOL0     C97982  -0.374   6.993   1.227  0.6013 -0.1640  0.1916
  743MOL0     C97983  -0.514   6.973   1.186 -0.2826 -0.3228  0.7002
  743MOL0     C97984  -0.578   6.842   1.246 -0.5975 -0.3946  0.0243
  743MOL0     C97985  -0.719   6.823   1.191 -0.2883 -0.5936  0.2043
  743MOL0     C97986  -0.779   6.694   1.237 -0.7889  0.0670 -0.6011
  743MOL0     C97987  -0.922   6.654   1.182 -0.8002  0.4673 -0.2952
  743MOL0    Cl97988  -1.018   6.543   1.280  0.0611 -0.1306  0.2471
  743MOL0     C97989   0.100   7.234   1.117 -0.5562 -0.2082  0.2898
  743MOL0     C97990   0.236   7.279   1.121 -0.5690 -0.8140 -0.0425
  743MOL0     O97991   0.389   7.658   0.981 -0.6019 -0.7864  0.3154
  743MOL0     C97992   0.659   7.527   1.170  0.6873  0.3573 -0.6333
  743MOL0     C97993   0.789   7.559   1.205 -1.1121 -0.2932  0.1998
  743MOL0     N97994   1.437   7.850   1.299 -0.2024 -0.4115  0.3009
  743MOL0     N97995   1.549   7.792   1.302  0.1824  0.1885  0.5382
  743MOL0     C97996   1.450   8.520   1.637  0.0102  0.3807 -0.4661
  743MOL0     C97997   1.337   8.589   1.668  0.5645 -0.5106 -0.1730
  743MOL0     C97998   1.053   8.924   1.744  0.1435 -0.2747  0.0640
  743MOL0     C97999   0.953   8.866   1.822  0.1598 -0.4739 -0.6581
  743MOL0     C98000   0.823   8.926   1.825 -0.1972  0.3534  0.0962
  743MOL0     C98001   0.791   9.031   1.739 -0.1317  0.4841 -0.2326
  743MOL0     O98002   0.666   9.078   1.752  0.3078  0.0219 -0.1092
  743MOL0     C98003   0.645   9.219   1.773  0.0557  0.4350  1.0037
  743MOL0     C98004   0.494   9.249   1.784  0.2913  0.9718 -0.0512
  743MOL0     C98005   0.419   9.214   1.650 -0.3471 -0.2660 -0.0753
  743MOL0     C98006   0.267   9.199   1.675 -0.4172 -0.9357  0.8608
  743MOL0     C98007   0.210   9.323   1.698 -0.0784 -0.7520  0.1472
  743MOL0     C98008   0.140   9.425   1.712 -0.3084 -0.1784  0.3710
  743MOL0     C98009   0.890   9.092   1.664 -0.2357 -0.1657  0.0854
  743MOL0     C98010   1.019   9.039   1.668  0.3331 -1.0983 -0.0732
  743MOL0     H98011   1.434   8.742   1.955  1.2028  0.4820 -0.7442
  743MOL0     H98012   1.632   8.612   1.904 -0.3228  1.3856  0.1575
  743MOL0     H98013   1.772   8.522   1.555 -0.3015  0.8150  1.2688
  743MOL0     H98014   1.667   8.389   1.513 -0.3811  0.6126  0.7642
  743MOL0     H98015   1.919   8.372   1.683 -1.3286  1.5545  0.0859
  743MOL0     H98016   1.904   8.319   1.506 -0.4800 -3.8181  0.1559
  743MOL0     H98017   1.705   8.176   1.577  0.1379 -1.7410  0.9359
  743MOL0     H98018   1.764   8.193   1.742  2.1346 -4.0149  0.6774
  743MOL0     H98019   2.000   8.121   1.661  2.3017  0.1064 -3.1927
  743MOL0     H98020   1.874   7.989   1.671  1.9537 -0.6471 -0.2089
  743MOL0     H98021   2.024   8.000   1.457  0.4977  1.0774  0.7266
  743MOL0     H98022   1.944   8.135   1.409 -1.0271  1.3801  1.5665
  743MOL0     H98023   1.716   8.004   1.418 -0.4422  1.1639 -0.1253
  743MOL0     H98024   1.799   7.869   1.475  0.3429 -0.7158 -1.2704
  743MOL0     H98025   1.845   7.997   1.180 -1.8366 -3.5179 -2.7199
  743MOL0     H98026   1.960   7.887   1.261  1.3251  1.8057  1.5770
  743MOL0     H98027   1.785   7.715   1.262 -0.6502  0.2581  0.6607
  743MOL0     H98028   1.793   7.774   1.096  3.0344 -0.7904 -0.0502
  743MOL0     H98029   1.577   7.973   1.038  0.6449 -1.2460 -0.0312
  743MOL0     H98030   1.350   8.079   1.073  0.1049  0.8921  0.2641
  743MOL0     H98031   1.226   8.012   1.188  0.4210 -0.3965  1.2950
  743MOL0     H98032   1.299   7.881   0.926 -2.7333  1.6053 -2.4180
  743MOL0     H98033   1.162   7.983   0.939 -1.2834 -0.2844 -0.2312
  743MOL0     H98034   1.065   7.763   0.972 -3.0969  3.8764  1.2064
  743MOL0     H98035   1.201   7.702   1.070 -1.5782 -1.9027 -2.0130
  743MOL0     H98036   0.998   7.906   1.164  1.5267  1.2212 -1.2824
  743MOL0     H98037   1.135   7.831   1.249  1.5191 -0.5957 -2.4109
  743MOL0     H98038   0.823   7.856   1.038  1.7725 -2.2041 -2.7647
  743MOL0     H98039   0.595   7.816   0.990  4.1595  1.4407 -1.6100
  743MOL0     H98040   0.161   7.608   1.097  1.1015 -0.0415  1.0708
  743MOL0     H98041  -0.064   7.529   1.104  1.9008  1.3622  0.8164
  743MOL0     H98042  -0.159   7.164   1.297 -1.2069 -0.3716  0.7444
  743MOL0     H98043  -0.114   7.071   1.151 -0.5850  0.4212 -0.7516
  743MOL0     H98044  -0.335   7.100   1.050 -1.7807 -0.3554 -0.4771
  743MOL0     H98045  -0.374   7.216   1.175 -1.9849 -0.6480 -2.2703
  743MOL0     H98046  -0.353   6.985   1.334  2.8978  4.5367  0.3681
  743MOL0     H98047  -0.306   6.919   1.183  0.3091 -0.6270  0.5203
  743MOL0     H98048  -0.580   7.059   1.206  0.7473  0.5702  0.3781
  743MOL0     H98049  -0.535   6.959   1.080  0.0377 -2.8429  0.9073
  743MOL0     H98050  -0.588   6.859   1.354  0.0351  1.8085 -0.2096
  743MOL0     H98051  -0.523   6.750   1.226  0.1532 -0.0375  0.4113
  743MOL0     H98052  -0.734   6.844   1.085 -0.9426  4.8035  1.0981
  743MOL0     H98053  -0.788   6.897   1.230 -0.9975 -0.1328 -1.8081
  743MOL0     H98054  -0.703   6.621   1.207 -0.1947 -0.8673  2.7010
  743MOL0     H98055  -0.782   6.701   1.346 -0.4672  2.1298 -0.6895
  743MOL0     H98056  -0.912   6.616   1.080 -1.3369 -1.1187  0.2114
  743MOL0     H98057  -0.977   6.748   1.174 -2.1119  0.0520  2.5078
  743MOL0     H98058   0.096   7.127   1.134 -1.0922 -0.3180 -0.5055
  743MOL0     H98059   0.319   7.218   1.155 -2.1271 -3.2045 -0.3017
  743MOL0     H98060   0.611   7.433   1.198  0.3768  0.4671 -0.7886
  743MOL0     H98061   0.840   7.480   1.259 -2.0663 -0.4723  0.8610
  743MOL0     H98062   1.442   8.454   1.551 -0.1445  0.1859 -0.3034
  743MOL0     H98063   1.250   8.588   1.602 -0.1193  4.1598  0.3029
  743MOL0     H98064   0.978   8.779   1.882  0.2959  0.4634  0.6796
  743MOL0     H98065   0.741   8.881   1.878 -0.9859  1.0129 -0.5373
  743MOL0     H98066   0.674   9.279   1.686 -1.8407 -1.1245 -0.8029
  743MOL0     H98067   0.700   9.253   1.861  2.1231 -0.6545  0.1903
  743MOL0     H98068   0.454   9.183   1.862 -0.6756 -0.8458 -1.9923
  743MOL0     H98069   0.470   9.352   1.814 -2.2320 -0.0986  2.0172
  743MOL0     H98070   0.462   9.120   1.615 -1.7362 -1.5253  1.4598
  743MOL0     H98071   0.437   9.298   1.582  0.1553 -0.4156 -0.1316
  743MOL0     H98072   0.222   9.138   1.596 -1.1952  0.5997  0.0901
  743MOL0     H98073   0.254   9.134   1.763 -0.8045 -2.0114  0.0364
  743MOL0     H98074   0.078   9.509   1.734  0.8078  0.9132 -0.4446
  743MOL0     H98075   0.864   9.178   1.603 -1.9072  0.0381  1.0220
  743MOL0     H98076   1.106   9.083   1.620  1.0578  0.8644  2.7942
  744MOL0     O98077   9.924   9.138   1.046 -0.7125  0.1745 -0.2235
  744MOL0     C98078   9.961   9.027   1.009  0.0084  0.5799 -1.7209
  744MOL0     O98079   9.884   8.920   0.990 -0.1505  0.1859  0.5937
  744MOL0     C98080   9.751   8.944   0.977  0.7336 -0.2191  0.7684
  744MOL0     C98081   9.656   8.932   1.079  0.6387 -0.6215 -0.4578
  744MOL0     C98082   9.517   8.938   1.054  0.7268  0.8200  0.1099
  744MOL0     C98083   9.475   8.958   0.923 -0.0623 -0.7270  0.3541
  744MOL0     O98084   9.341   8.960   0.889  0.1123 -0.1577 -1.0697
  744MOL0     C98085   9.281   9.095   0.874 -0.2154  0.3166  0.2569
  744MOL0     C98086   9.153   9.076   0.790 -0.0779 -0.6124  0.2531
  744MOL0     C98087   9.098   9.210   0.733 -0.2861  0.2484  0.4403
  744MOL0     C98088   8.959   9.183   0.669  0.1745 -0.6840 -0.3105
  744MOL0     C98089   8.900   9.317   0.628 -0.0730 -0.5220 -0.2870
  744MOL0     C98090   8.754   9.323   0.637 -0.2046 -0.7324 -0.2496
  744MOL0     C98091   8.706   9.241   0.518  0.5914  0.3552  0.1915
  744MOL0     C98092   8.555   9.252   0.513 -0.2448 -0.3164  0.1474
  744MOL0     N98093   8.510   9.357   0.424  0.3017  0.1745  0.0124
  744MOL0     C98094   8.507   9.335   0.288 -0.4087 -0.1621 -0.3282
  744MOL0     C98095   8.489   9.457   0.242 -0.0841  0.4289  0.9055
  744MOL0     C98096   8.490   9.489   0.095  0.1416 -0.5497 -0.9277
  744MOL0     C98097   8.353   9.457   0.028 -0.6394  0.3323 -0.0114
  744MOL0     C98098   8.234   9.557   0.069  0.3381 -0.0581 -0.2841
  744MOL0     C98099   8.106   9.504   0.015 -0.2907  0.2415 -0.2288
  744MOL0     O98100   8.091   9.536  -0.122 -0.2272 -0.7711  0.1920
  744MOL0     C98101   7.961   9.557  -0.165 -0.1660 -0.4384 -0.3197
  744MOL0     C98102   7.889   9.673  -0.149  0.6816 -0.3685 -0.1284
  744MOL0     C98103   7.753   9.674  -0.156 -0.5145  0.5626 -0.5013
  744MOL0     C98104   7.678   9.556  -0.190 -0.3092  0.2800 -0.2951
  744MOL0     C98105   7.526   9.559  -0.201 -0.0155  0.1367 -0.1232
  744MOL0     O98106   7.472   9.672  -0.251 -0.2618  0.0010 -0.0418
  744MOL0     C98107   7.336   9.673  -0.255  0.2221  0.3805  0.1138
  744MOL0     C98108   7.269   9.688  -0.142 -0.9641  0.1302 -0.5812
  744MOL0     C98109   7.125   9.704  -0.133 -0.1243  0.6878 -0.0835
  744MOL0     C98110   7.061   9.705  -0.254 -0.0737  0.9369  0.0039
  744MOL0     O98111   6.930   9.715  -0.278 -0.1638  0.3644 -0.1329
  744MOL0     C98112   6.858   9.783  -0.173  0.3737  0.1078  0.0250
  744MOL0     C98113   6.732   9.855  -0.204  1.6830 -0.8974 -0.3470
  744MOL0     C98114   6.763   9.982  -0.290 -0.3748 -0.3958  0.5357
  744MOL0     C98115   6.654  10.054  -0.362  0.4451  0.7952  0.3377
  744MOL0     C98116   6.687  10.199  -0.402 -0.5877  0.2201 -0.1180
  744MOL0     C98117   6.824  10.218  -0.469 -0.6355 -0.0355 -0.2879
  744MOL0     C98118   6.855  10.135  -0.600  0.0128 -0.4046  0.2165
  744MOL0     C98119   6.833  10.222  -0.720  0.7526  0.2517  0.8978
  744MOL0    Cl98120   6.861  10.120  -0.853 -0.2747  0.2973  0.6106
  744MOL0     C98121   7.133   9.697  -0.374  0.6148 -0.3870 -0.4254
  744MOL0     C98122   7.270   9.676  -0.380 -0.5497  0.3574 -0.3727
  744MOL0     O98123   7.463   9.456  -0.159 -1.0023 -0.0065 -0.2341
  744MOL0     C98124   7.754   9.437  -0.218 -0.0757 -0.2684 -0.1005
  744MOL0     C98125   7.896   9.442  -0.209  0.1771  0.1364 -0.4605
  744MOL0     N98126   8.472   9.548   0.348  0.7845 -0.0590 -0.4914
  744MOL0     N98127   8.477   9.483   0.456 -0.6504 -0.5755  0.1952
  744MOL0     C98128   9.569   8.959   0.818 -0.8103 -0.4271  0.6491
  744MOL0     C98129   9.706   8.954   0.846 -0.3721 -0.5506  0.0292
  744MOL0     C98130  10.108   9.003   0.992 -0.1105 -0.7915  0.8122
  744MOL0     C98131  10.159   8.868   0.984  0.5107  0.1311  0.0586
  744MOL0     C98132  10.300   8.853   0.978  0.5697 -0.4579 -0.0374
  744MOL0     C98133  10.387   8.960   0.982 -0.9112  1.1133 -0.4123
  744MOL0     O98134  10.526   8.941   0.979 -1.0269 -0.6490  0.0036
  744MOL0     C98135  10.597   8.974   0.857  0.5801 -0.5303 -0.2791
  744MOL0     C98136  10.590   8.853   0.759  0.0724 -0.3580  0.6903
  744MOL0     C98137  10.642   8.728   0.821  0.6047  0.2794 -0.7027
  744MOL0     C98138  10.795   8.730   0.864  0.3577 -0.6756  0.0125
  744MOL0     C98139  10.878   8.799   0.768 -0.6682 -0.5556 -0.4761
  744MOL0     C98140  10.964   8.858   0.696 -0.4374  0.5587  0.2933
  744MOL0     C98141  10.343   9.088   0.975  0.2615 -0.3055 -0.0689
  744MOL0     C98142  10.203   9.108   0.987 -1.0251 -0.5533  0.7482
  744MOL0     H98143   9.690   8.921   1.182  2.1239  0.9880 -0.7394
  744MOL0     H98144   9.450   8.939   1.140  1.5212 -1.8656  0.8714
  744MOL0     H98145   9.348   9.167   0.826  0.4285 -0.4059  0.0627
  744MOL0     H98146   9.256   9.136   0.972 -2.6569  0.5232 -0.3973
  744MOL0     H98147   9.078   9.034   0.858 -0.8253  0.7201  0.2955
  744MOL0     H98148   9.166   9.001   0.711 -2.5150 -0.9647  0.1170
  744MOL0     H98149   9.159   9.260   0.657 -0.7653  0.9420  0.4932
  744MOL0     H98150   9.097   9.285   0.813 -1.5776 -1.1211  1.7724
  744MOL0     H98151   8.977   9.117   0.584  1.3002 -1.3070  0.3892
  744MOL0     H98152   8.897   9.130   0.742  1.3541 -2.1932 -0.3776
  744MOL0     H98153   8.924   9.343   0.525  2.9192 -0.6015  0.2854
  744MOL0     H98154   8.948   9.394   0.689 -0.9149  0.8766 -1.3439
  744MOL0     H98155   8.713   9.424   0.624  1.7457 -0.2511 -3.8566
  744MOL0     H98156   8.718   9.275   0.729 -1.1100 -2.1893 -1.3381
  744MOL0     H98157   8.747   9.265   0.419 -1.2741  1.9787 -0.2573
  744MOL0     H98158   8.729   9.136   0.538 -1.6858  0.2556  2.8505
  744MOL0     H98159   8.512   9.267   0.612  0.1492  0.3518  0.2185
  744MOL0     H98160   8.514   9.158   0.473 -1.2726  1.5552 -3.6591
  744MOL0     H98161   8.532   9.251   0.224 -0.7483 -0.6689  0.1871
  744MOL0     H98162   8.572   9.433   0.050  1.5438 -1.2697  2.2609
  744MOL0     H98163   8.511   9.592   0.065 -0.5379 -1.0480 -3.4128
  744MOL0     H98164   8.312   9.362   0.063 -0.2248  0.6135  1.2811
  744MOL0     H98165   8.373   9.446  -0.079 -0.0347  0.8112  0.0441
  744MOL0     H98166   8.224   9.567   0.177  1.7895 -0.2659 -0.1083
  744MOL0     H98167   8.249   9.658   0.029 -0.6861 -0.1168 -0.8610
  744MOL0     H98168   8.024   9.553   0.068 -0.9309  1.0703 -1.9128
  744MOL0     H98169   8.092   9.399   0.042 -1.4184  0.1646 -1.0376
  744MOL0     H98170   7.951   9.755  -0.115 -0.1797  0.2346  0.0288
  744MOL0     H98171   7.704   9.770  -0.143 -1.5694  0.1684 -1.4031
  744MOL0     H98172   7.313   9.685  -0.042  0.7904 -0.4801 -1.3269
  744MOL0     H98173   7.075   9.720  -0.038 -0.4340  0.0454 -0.1346
  744MOL0     H98174   6.929   9.837  -0.111  3.1927 -2.6259 -0.5679
  744MOL0     H98175   6.835   9.694  -0.114  1.2470 -2.6037 -3.3662
  744MOL0     H98176   6.679   9.896  -0.118  0.1291  1.9228 -2.4734
  744MOL0     H98177   6.665   9.784  -0.252 -0.3178  0.6827 -0.0029
  744MOL0     H98178   6.841   9.957  -0.362  0.5175  0.6394  1.1146
  744MOL0     H98179   6.806  10.050  -0.216  0.4125  0.8794 -1.0351
  744MOL0     H98180   6.619  10.003  -0.452  3.1200 -0.2038 -0.2163
  744MOL0     H98181   6.566  10.062  -0.297 -0.8865  1.9392 -1.4994
  744MOL0     H98182   6.691  10.246  -0.303 -1.0509  0.5027 -0.2311
  744MOL0     H98183   6.620  10.242  -0.476  1.2824  0.3318 -1.8450
  744MOL0     H98184   6.898  10.195  -0.392 -1.6960 -0.2185  0.7175
  744MOL0     H98185   6.838  10.322  -0.501  0.2844 -0.2230 -0.5067
  744MOL0     H98186   6.961  10.106  -0.598  0.5376  1.0025 -2.3173
  744MOL0     H98187   6.784  10.053  -0.612 -3.1648  2.1185  0.4065
  744MOL0     H98188   6.901  10.307  -0.711  1.2155  0.1652 -1.3714
  744MOL0     H98189   6.730  10.260  -0.714  1.6770  2.9558  0.5887
  744MOL0     H98190   7.075   9.697  -0.466  0.8893  0.8274 -0.6105
  744MOL0     H98191   7.331   9.664  -0.469  0.7454 -3.5125  0.8541
  744MOL0     H98192   7.711   9.345  -0.256 -0.7211 -0.6796  1.5319
  744MOL0     H98193   7.949   9.354  -0.244  1.7039  0.7956  0.1020
  744MOL0     H98194   9.533   8.971   0.716 -2.0743  2.7033  1.3227
  744MOL0     H98195   9.776   8.956   0.763  0.0376  1.2375  0.3693
  744MOL0     H98196  10.094   8.781   0.975 -0.4550  0.8292  0.2110
  744MOL0     H98197  10.347   8.755   0.975 -2.4121 -2.1402  2.4832
  744MOL0     H98198  10.703   8.987   0.877  0.6743  0.6775 -1.4284
  744MOL0     H98199  10.567   9.065   0.805  1.6940  0.2510  0.4115
  744MOL0     H98200  10.484   8.839   0.736 -0.3890 -0.3460  2.6558
  744MOL0     H98201  10.652   8.880   0.672  1.4150 -3.0767  0.7197
  744MOL0     H98202  10.638   8.647   0.747  0.5344  0.2170 -0.6312
  744MOL0     H98203  10.588   8.699   0.912  2.4536 -2.6667 -0.3998
  744MOL0     H98204  10.804   8.780   0.961 -0.5113  0.3763 -0.4360
  744MOL0     H98205  10.841   8.631   0.874  0.9984 -0.3226  0.6478
  744MOL0     H98206  11.045   8.904   0.644  0.6455 -0.6408  0.8567
  744MOL0     H98207  10.407   9.175   0.989 -1.4179  0.6239  2.5232
  744MOL0     H98208  10.169   9.210   1.001 -0.7622 -0.5688  1.5143
  745MOL0     O98209   8.299   8.717  10.478 -0.3611  0.4926 -0.4630
  745MOL0     C98210   8.386   8.682  10.403 -0.1479 -0.1676  0.4985
  745MOL0     O98211   8.404   8.733  10.275  0.1051  0.6781 -0.1463
  745MOL0     C98212   8.316   8.828  10.236 -0.5030  0.1552 -0.5101
  745MOL0     C98213   8.196   8.795  10.165 -0.1827 -0.4349 -1.3304
  745MOL0     C98214   8.115   8.891  10.118 -0.1592 -0.3154 -0.3731
  745MOL0     C98215   8.142   9.032  10.135  0.6763 -0.0668  0.7889
  745MOL0     O98216   8.055   9.138  10.105 -0.8496 -0.3549  0.0068
  745MOL0     C98217   7.912   9.119  10.095 -0.2161 -0.3708 -0.2262
  745MOL0     C98218   7.840   9.260  10.108 -0.1882 -0.2141  0.4732
  745MOL0     C98219   7.693   9.244  10.129 -0.2574 -0.0797  0.1921
  745MOL0     C98220   7.603   9.370  10.102 -0.1944  0.6830 -0.0089
  745MOL0     C98221   7.455   9.361  10.138  0.6213  0.4022 -0.3176
  745MOL0     C98222   7.378   9.475  10.077  0.5123  0.3519 -0.5660
  745MOL0     C98223   7.235   9.437  10.100  0.3504  0.3878  0.0717
  745MOL0     C98224   7.143   9.572  10.084 -0.6315 -0.3326  0.9426
  745MOL0     N98225   7.002   9.554  10.095 -0.1776  0.0963 -0.7010
  745MOL0     C98226   6.915   9.657  10.112 -0.1998  0.6861  0.1196
  745MOL0     C98227   6.801   9.603  10.070 -0.1326  0.3163 -0.1884
  745MOL0     C98228   6.672   9.677  10.080 -0.0544  0.2540  0.4796
  745MOL0     C98229   6.649   9.778  10.193  0.0570  0.7073  0.1664
  745MOL0     C98230   6.515   9.838  10.199  0.6274 -0.8355 -0.8664
  745MOL0     C98231   6.519   9.973  10.281 -0.2131 -0.4480  0.1479
  745MOL0     O98232   6.380  10.008  10.292 -0.3624 -0.3922  0.1351
  745MOL0     C98233   6.336  10.062  10.415 -0.3514  0.4838 -0.3720
  745MOL0     C98234   6.393  10.055  10.539 -0.3173 -0.1131  0.2398
  745MOL0     C98235   6.329  10.116  10.650  0.6418  0.0282  0.5232
  745MOL0     C98236   6.205  10.182  10.632 -0.7867 -0.4364 -0.1175
  745MOL0     C98237   6.137  10.246  10.743  0.2228  0.1060 -0.0998
  745MOL0     O98238   6.055  10.349  10.714  0.5155 -0.5344 -0.0610
  745MOL0     C98239   5.994  10.403  10.830 -0.4749  0.5495 -0.1161
  745MOL0     C98240   5.891  10.327  10.891 -0.7029  0.9031 -0.1602
  745MOL0     C98241   5.841  10.360  11.015 -0.4872  0.3562  0.5110
  745MOL0     C98242   5.878  10.486  11.074 -0.4373  0.1552 -0.0465
  745MOL0     O98243   5.808  10.513  11.192  0.0316 -0.4932 -0.2748
  745MOL0     C98244   5.855  10.622  11.272  0.0442  0.2149 -0.3571
  745MOL0     C98245   5.777  10.650  11.398 -0.3420  0.0873 -0.1548
  745MOL0     C98246   5.626  10.649  11.366  0.1121 -0.7046  0.4673
  745MOL0     C98247   5.538  10.721  11.469 -1.2040  0.2064  0.1358
  745MOL0     C98248   5.388  10.718  11.441  0.0530  0.4833  0.2468
  745MOL0     C98249   5.331  10.840  11.516  0.2442 -0.1833 -0.0513
  745MOL0     C98250   5.183  10.835  11.548 -0.2880 -0.1235 -0.4092
  745MOL0     C98251   5.102  10.838  11.412 -0.0219 -0.0796  0.7453
  745MOL0    Cl98252   4.930  10.858  11.437 -0.2823  0.0509  0.0417
  745MOL0     C98253   5.987  10.554  11.017 -0.1507 -0.2317 -0.3407
  745MOL0     C98254   6.039  10.514  10.895  0.1925  0.6941 -0.2268
  745MOL0     O98255   6.161  10.197  10.856  0.4502  0.3095  0.6507
  745MOL0     C98256   6.140  10.179  10.502  0.6959 -0.0339 -0.0087
  745MOL0     C98257   6.208  10.117  10.396 -0.5064  0.1074 -0.6036
  745MOL0     N98258   6.819   9.467  10.030  0.4462 -0.0020  0.1401
  745MOL0     N98259   6.943   9.442  10.045 -0.4084  1.3309  0.1659
  745MOL0     C98260   8.267   9.065  10.188  0.4513 -0.7309 -0.5474
  745MOL0     C98261   8.352   8.963  10.239 -0.3887 -0.2790 -0.4440
  745MOL0     C98262   8.488   8.575  10.449  0.3569  0.0283 -0.4611
  745MOL0     C98263   8.532   8.491  10.347  0.0669  0.1986 -0.4407
  745MOL0     C98264   8.618   8.385  10.382  0.1446 -0.3401  0.4612
  745MOL0     C98265   8.663   8.371  10.516  0.3577  0.0710 -0.0317
  745MOL0     O98266   8.762   8.279  10.553 -0.5832  0.4625 -0.3417
  745MOL0     C98267   8.841   8.213  10.457  0.2971  0.4952 -0.4901
  745MOL0     C98268   8.969   8.298  10.422 -0.8932  0.7072 -0.2266
  745MOL0     C98269   9.073   8.314  10.534 -0.8072  0.7042  0.1437
  745MOL0     C98270   9.195   8.407  10.505 -0.5358 -0.4850 -0.4205
  745MOL0     C98271   9.292   8.413  10.613  0.5269 -0.1080  0.7858
  745MOL0     C98272   9.384   8.424  10.691  0.2512 -0.6419 -0.1827
  745MOL0     C98273   8.627   8.470  10.607  0.5320 -0.0220  0.1372
  745MOL0     C98274   8.538   8.568  10.578  0.9437  0.4679  0.0194
  745MOL0     H98275   8.176   8.689  10.156 -0.7849 -0.9004  3.1418
  745MOL0     H98276   8.019   8.863  10.076 -1.0481 -0.6112  1.7422
  745MOL0     H98277   7.873   9.057  10.176  1.0243 -1.5325 -0.4848
  745MOL0     H98278   7.892   9.061  10.005  2.8415 -2.5132  0.3000
  745MOL0     H98279   7.854   9.316  10.015 -0.6718 -1.2129 -0.2253
  745MOL0     H98280   7.886   9.318  10.188 -2.8491  0.3188  1.7228
  745MOL0     H98281   7.675   9.222  10.235 -1.9652 -1.8814 -0.4074
  745MOL0     H98282   7.655   9.154  10.080 -2.5448  1.1792 -0.4937
  745MOL0     H98283   7.650   9.457  10.148 -3.2171  1.6346  1.5341
  745MOL0     H98284   7.608   9.383   9.993 -0.8958  2.8819  0.1695
  745MOL0     H98285   7.445   9.368  10.246 -2.3828  0.6865 -0.5524
  745MOL0     H98286   7.415   9.262  10.117  0.5322  0.5380 -0.8071
  745MOL0     H98287   7.383   9.499   9.971 -1.8129  2.5970 -0.2535
  745MOL0     H98288   7.407   9.570  10.125  2.8900  0.8085 -2.6547
  745MOL0     H98289   7.198   9.356  10.036  2.2991 -1.8623  1.6662
  745MOL0     H98290   7.220   9.397  10.200 -2.2003 -3.6080 -1.6550
  745MOL0     H98291   7.163   9.625   9.990 -1.4176 -3.2766 -1.0146
  745MOL0     H98292   7.174   9.636  10.167  2.0953 -0.6561  0.2750
  745MOL0     H98293   6.932   9.752  10.160  1.8864  0.1192  0.6123
  745MOL0     H98294   6.591   9.603  10.081 -0.6193  0.8558  0.5621
  745MOL0     H98295   6.664   9.723   9.982  1.0399  0.0823  0.2965
  745MOL0     H98296   6.723   9.858  10.188 -2.2632  2.9492 -1.2267
  745MOL0     H98297   6.662   9.722  10.285  2.2659 -1.2357 -1.2141
  745MOL0     H98298   6.479   9.856  10.097 -0.7341 -0.6870 -0.3696
  745MOL0     H98299   6.444   9.778  10.257 -0.9312  2.4264  0.8373
  745MOL0     H98300   6.576  10.053  10.231 -0.2324 -1.1138 -0.9724
  745MOL0     H98301   6.570   9.947  10.375  0.5600  0.6541  0.0589
  745MOL0     H98302   6.488  10.006  10.558 -0.1275  0.8725  2.1276
  745MOL0     H98303   6.381  10.121  10.745 -1.7881  0.2073  1.9220
  745MOL0     H98304   5.862  10.234  10.843  1.4306  0.5082 -0.7736
  745MOL0     H98305   5.761  10.295  11.048 -0.7452 -2.1269 -4.1251
  745MOL0     H98306   5.865  10.715  11.215  1.7231 -1.0275 -2.2248
  745MOL0     H98307   5.959  10.598  11.297  0.3400 -0.1784 -1.8595
  745MOL0     H98308   5.817  10.740  11.446 -0.5133  1.6723 -2.8147
  745MOL0     H98309   5.793  10.578  11.479  0.3827  2.5811  2.0848
  745MOL0     H98310   5.601  10.543  11.355 -0.2086 -0.4760 -1.2406
  745MOL0     H98311   5.611  10.706  11.275  1.4746  1.8495  1.7317
  745MOL0     H98312   5.564  10.680  11.567 -3.2426 -1.3279  0.1165
  745MOL0     H98313   5.569  10.826  11.474 -0.2018 -0.0545 -0.2921
  745MOL0     H98314   5.347  10.627  11.484 -1.1662 -0.0178 -1.8721
  745MOL0     H98315   5.361  10.719  11.335 -2.9855 -1.6754  0.8733
  745MOL0     H98316   5.343  10.929  11.452 -2.7721  1.1104  0.9806
  745MOL0     H98317   5.388  10.856  11.608 -0.9164 -1.8988  1.0188
  745MOL0     H98318   5.151  10.742  11.597 -0.4268 -0.2102 -0.6618
  745MOL0     H98319   5.164  10.917  11.618  0.7056 -1.2048  1.2205
  745MOL0     H98320   5.119  10.749  11.352 -3.5450 -0.5494  0.1846
  745MOL0     H98321   5.131  10.929  11.360 -2.6383  1.3502  1.5968
  745MOL0     H98322   6.034  10.635  11.073  2.7665  0.2917 -3.2365
  745MOL0     H98323   6.131  10.553  10.854  1.1339 -0.8489  0.3128
  745MOL0     H98324   6.051  10.238  10.482  1.4390  0.6005 -1.6822
  745MOL0     H98325   6.155  10.120  10.301 -0.5288  0.5628 -0.5789
  745MOL0     H98326   8.289   9.171  10.195  3.4278 -1.2358 -0.7525
  745MOL0     H98327   8.442   8.993  10.293  1.1207  2.3008 -3.9641
  745MOL0     H98328   8.498   8.505  10.245 -0.7626  0.7345 -0.1026
  745MOL0     H98329   8.640   8.318  10.300  1.0779 -0.2056  0.5949
  745MOL0     H98330   8.786   8.188  10.366  0.3470  1.7026 -0.8720
  745MOL0     H98331   8.870   8.111  10.486  0.5809  0.0174 -2.3116
  745MOL0     H98332   9.014   8.255  10.333  0.2803  1.6969 -0.1347
  745MOL0     H98333   8.927   8.393  10.389 -0.5110  0.4388 -1.5368
  745MOL0     H98334   9.112   8.214  10.557 -1.7879  0.5310  1.1095
  745MOL0     H98335   9.024   8.334  10.629  2.1884 -2.1531  2.5479
  745MOL0     H98336   9.252   8.365  10.421  0.2333 -2.0108  0.8067
  745MOL0     H98337   9.160   8.507  10.478  1.0943 -0.4563 -2.7790
  745MOL0     H98338   9.459   8.433  10.767 -0.6326  0.8238  0.5758
  745MOL0     H98339   8.667   8.467  10.708 -0.9906 -0.1202  0.7680
  745MOL0     H98340   8.504   8.632  10.660 -5.5616 -1.4263 -0.6513
  746MOL0     O98341   6.848   5.243   5.888 -0.2611 -0.4425  0.8033
  746MOL0     C98342   6.864   5.141   5.952  0.5921 -0.2440  0.3643
  746MOL0     O98343   6.770   5.079   6.036  0.5118 -0.3049 -0.5925
  746MOL0     C98344   6.639   5.116   6.058  0.3328 -0.3273  0.1426
  746MOL0     C98345   6.566   5.050   6.163  0.0635 -0.9584 -0.2627
  746MOL0     C98346   6.444   5.092   6.204 -0.3311 -0.2113 -0.6688
  746MOL0     C98347   6.377   5.190   6.132  0.3239 -0.3296 -0.8416
  746MOL0     O98348   6.254   5.246   6.165 -0.0634  1.0563 -0.6666
  746MOL0     C98349   6.175   5.184   6.266  0.0073  0.1839 -0.1065
  746MOL0     C98350   6.030   5.240   6.282  0.1795 -0.9347  0.4982
  746MOL0     C98351   6.006   5.321   6.405 -0.1642 -0.2694 -0.5878
  746MOL0     C98352   6.083   5.452   6.389  0.0629  0.7308 -0.4204
  746MOL0     C98353   6.075   5.537   6.520  0.5130  0.7911  0.2045
  746MOL0     C98354   5.928   5.583   6.537  0.0632  0.2416 -0.1154
  746MOL0     C98355   5.927   5.681   6.651 -0.3401 -0.6299  0.5057
  746MOL0     C98356   5.781   5.702   6.708 -0.3346  0.2160  0.2009
  746MOL0     N98357   5.774   5.812   6.793 -0.4165  0.1833  0.0506
  746MOL0     C98358   5.886   5.876   6.843  0.6484 -0.3602  0.2229
  746MOL0     C98359   5.831   5.967   6.935  0.2189  0.6601  0.2634
  746MOL0     C98360   5.910   6.053   7.039 -0.1096 -0.5373  0.6460
  746MOL0     C98361   5.923   6.201   6.994  0.0950  0.4732  0.3879
  746MOL0     C98362   5.822   6.300   7.046  0.1720 -0.0575 -0.1063
  746MOL0     C98363   5.674   6.275   7.025  0.2565 -0.2316 -0.2883
  746MOL0     O98364   5.608   6.400   7.064  0.4812  0.3083 -0.2216
  746MOL0     C98365   5.472   6.400   7.057  0.6854 -0.6219  0.6883
  746MOL0     C98366   5.387   6.307   6.993 -1.4616  0.6757  0.0176
  746MOL0     C98367   5.246   6.308   6.992  0.6532 -0.3183  0.3341
  746MOL0     C98368   5.180   6.415   7.056 -0.1696  0.3551  0.1940
  746MOL0     C98369   5.030   6.431   7.046  0.0365 -0.7106 -0.3535
  746MOL0     O98370   4.971   6.386   6.938  0.2415 -0.0558 -0.0923
  746MOL0     C98371   4.837   6.363   6.936 -0.2701  0.2545 -0.0762
  746MOL0     C98372   4.776   6.279   7.041  0.2455 -0.0269  1.1794
  746MOL0     C98373   4.642   6.244   7.036  0.1284  0.4516  0.1302
  746MOL0     C98374   4.563   6.291   6.937 -0.3635  0.2625  0.3166
  746MOL0     O98375   4.433   6.249   6.941  0.2101 -0.8770 -0.5186
  746MOL0     C98376   4.374   6.195   6.822 -0.0421 -0.1730  0.1251
  746MOL0     C98377   4.244   6.108   6.860  0.2617  0.0681  0.6005
  746MOL0     C98378   4.183   6.048   6.729 -0.5055 -1.1754  0.2915
  746MOL0     C98379   4.083   5.940   6.756  0.6414  0.1750 -1.0618
  746MOL0     C98380   4.011   5.884   6.633 -0.4915 -1.4693 -0.2403
  746MOL0     C98381   3.911   5.775   6.651 -0.0351  0.8986  0.2597
  746MOL0     C98382   3.862   5.716   6.516 -0.8402 -0.6473  0.4445
  746MOL0     C98383   3.768   5.595   6.537  1.0254 -0.7382  0.8927
  746MOL0    Cl98384   3.598   5.621   6.585 -0.0605  0.0793 -0.0434
  746MOL0     C98385   4.614   6.374   6.836 -0.1840 -0.6508 -0.0357
  746MOL0     C98386   4.754   6.411   6.833 -0.2904  0.1433 -0.2587
  746MOL0     O98387   4.973   6.484   7.142 -0.0682  0.2653  0.0156
  746MOL0     C98388   5.264   6.516   7.114  0.1135  0.3808 -0.5336
  746MOL0     C98389   5.403   6.510   7.112 -0.4593  0.0666 -0.0981
  746MOL0     N98390   5.695   5.962   6.925 -0.8253 -0.1743  0.1186
  746MOL0     N98391   5.659   5.872   6.839  0.2971 -0.9802  0.5843
  746MOL0     C98392   6.434   5.244   6.015  0.7292  0.0289 -0.1514
  746MOL0     C98393   6.567   5.211   5.987  0.1376 -0.2169 -0.2528
  746MOL0     C98394   7.004   5.089   5.940  0.4631 -0.1867  0.7579
  746MOL0     C98395   7.100   5.141   5.856 -0.9184 -0.1091  0.8152
  746MOL0     C98396   7.221   5.081   5.841 -0.1717  0.0961  0.6831
  746MOL0     C98397   7.254   4.966   5.917  0.8751  0.1772  1.4551
  746MOL0     O98398   7.370   4.893   5.892  0.1219  0.2901  0.1130
  746MOL0     C98399   7.453   4.934   5.786 -0.2694 -0.2734  0.1635
  746MOL0     C98400   7.544   4.808   5.749 -0.3298  0.1612 -0.1025
  746MOL0     C98401   7.623   4.754   5.865 -0.4282  0.2473 -0.0515
  746MOL0     C98402   7.709   4.631   5.816 -0.3150  0.2541 -0.7580
  746MOL0     C98403   7.826   4.665   5.733  0.0177 -0.1099  0.3764
  746MOL0     C98404   7.903   4.689   5.640 -0.4614 -0.2959  0.8541
  746MOL0     C98405   7.167   4.927   6.016  0.7038  0.0748  0.7738
  746MOL0     C98406   7.041   4.976   6.024 -0.4266 -1.0662 -0.1893
  746MOL0     H98407   6.609   4.965   6.215  4.0126  1.5529  0.9873
  746MOL0     H98408   6.394   5.036   6.281 -0.5085  0.8002 -0.0259
  746MOL0     H98409   6.229   5.183   6.361  1.3214 -0.1637 -0.8344
  746MOL0     H98410   6.172   5.078   6.238  0.8242 -0.3525  1.6731
  746MOL0     H98411   5.957   5.159   6.277 -2.0184  1.0465 -1.6785
  746MOL0     H98412   5.998   5.291   6.192  0.6969 -3.3124 -1.1312
  746MOL0     H98413   6.042   5.273   6.496  0.2026  3.4912  1.4326
  746MOL0     H98414   5.899   5.342   6.397 -0.2361  0.0117  0.9266
  746MOL0     H98415   6.190   5.430   6.381 -0.3053 -1.7046  0.3368
  746MOL0     H98416   6.048   5.502   6.298 -1.3883 -1.7114 -1.3015
  746MOL0     H98417   6.141   5.623   6.532 -2.2499  3.1082  0.0864
  746MOL0     H98418   6.094   5.479   6.610 -0.5212  0.1422  0.0236
  746MOL0     H98419   5.868   5.495   6.561  0.2519  0.0563 -0.3267
  746MOL0     H98420   5.886   5.611   6.439  1.9377  2.0714 -0.4840
  746MOL0     H98421   5.983   5.650   6.739 -1.6425 -0.8116  1.2962
  746MOL0     H98422   5.973   5.775   6.618  1.6921 -2.6633 -3.0702
  746MOL0     H98423   5.750   5.615   6.766 -1.0882  1.5745  1.9211
  746MOL0     H98424   5.709   5.704   6.626  0.0153 -1.3422 -0.1664
  746MOL0     H98425   5.993   5.858   6.833  0.7983  0.1094  0.9632
  746MOL0     H98426   6.013   6.018   7.046  1.8850  3.8215 -2.1312
  746MOL0     H98427   5.855   6.060   7.133 -0.2567  0.1133  0.5155
  746MOL0     H98428   5.933   6.207   6.885  0.4370  0.5115  0.4187
  746MOL0     H98429   6.022   6.233   7.031 -1.2367  1.8699  3.0288
  746MOL0     H98430   5.832   6.317   7.153 -1.7733 -0.8029  0.2244
  746MOL0     H98431   5.856   6.394   7.001 -0.1746 -0.3369 -0.9692
  746MOL0     H98432   5.641   6.190   7.086  0.4223  0.7517  1.2327
  746MOL0     H98433   5.649   6.269   6.919 -2.0415  1.1511  0.1013
  746MOL0     H98434   5.435   6.223   6.944  0.8020  1.4770  0.7324
  746MOL0     H98435   5.189   6.228   6.946 -0.8830 -0.0162  1.6377
  746MOL0     H98436   4.842   6.236   7.115  0.7540 -3.0142 -0.8060
  746MOL0     H98437   4.605   6.182   7.117  0.9634 -1.3806 -0.8581
  746MOL0     H98438   4.445   6.121   6.786  1.1237  0.0710  1.8015
  746MOL0     H98439   4.355   6.273   6.748 -1.8911  0.3963  1.1186
  746MOL0     H98440   4.172   6.175   6.909  1.2484  1.3247  0.3782
  746MOL0     H98441   4.281   6.031   6.929  1.0686  0.5370  0.6944
  746MOL0     H98442   4.259   6.008   6.661  2.2321  0.4880  2.1836
  746MOL0     H98443   4.136   6.133   6.679  0.4029 -0.1713  1.0904
  746MOL0     H98444   4.127   5.850   6.801 -1.1246  0.2351  0.9130
  746MOL0     H98445   4.013   5.975   6.832 -0.1035 -0.8698 -1.2600
  746MOL0     H98446   4.091   5.846   6.568 -0.8148  1.9162 -2.8669
  746MOL0     H98447   3.967   5.970   6.582 -1.5804 -1.6477  0.3618
  746MOL0     H98448   3.826   5.814   6.708  0.8188  0.0254  2.2405
  746MOL0     H98449   3.965   5.691   6.696 -1.3824 -2.7479 -4.1664
  746MOL0     H98450   3.816   5.798   6.460 -1.8956  1.2275  3.8297
  746MOL0     H98451   3.942   5.683   6.449 -1.6066 -1.0986 -0.2802
  746MOL0     H98452   3.816   5.537   6.616  0.4157  0.8939  2.5159
  746MOL0     H98453   3.762   5.538   6.444 -1.3214  0.9654 -0.1020
  746MOL0     H98454   4.538   6.399   6.762  0.0629  0.1170 -0.0395
  746MOL0     H98455   4.788   6.480   6.756  4.3702 -0.9724  0.4508
  746MOL0     H98456   5.202   6.600   7.143 -0.1915  0.0453 -0.1906
  746MOL0     H98457   5.462   6.587   7.158 -0.7610 -1.5036  3.1720
  746MOL0     H98458   6.386   5.319   5.953  1.6991 -0.7068 -1.8770
  746MOL0     H98459   6.618   5.249   5.899 -0.9656  1.1133 -0.3485
  746MOL0     H98460   7.082   5.227   5.792  2.7372 -0.9889 -1.6727
  746MOL0     H98461   7.289   5.125   5.769 -2.6048 -2.9176 -3.9662
  746MOL0     H98462   7.511   5.021   5.817 -0.7615  0.1221 -0.0150
  746MOL0     H98463   7.404   4.960   5.692  3.4707  4.5098 -0.8610
  746MOL0     H98464   7.467   4.738   5.717 -0.1799  0.0919 -0.3113
  746MOL0     H98465   7.607   4.837   5.665 -4.4412 -1.1966 -4.0184
  746MOL0     H98466   7.548   4.727   5.941 -0.7695 -0.0792 -0.4979
  746MOL0     H98467   7.684   4.836   5.903 -0.2986  1.5478 -2.8680
  746MOL0     H98468   7.744   4.584   5.908  0.7348 -0.2981 -1.4163
  746MOL0     H98469   7.641   4.559   5.769 -0.1743 -0.7606  0.5160
  746MOL0     H98470   7.975   4.713   5.565 -0.8233 -0.5645  0.4133
  746MOL0     H98471   7.194   4.839   6.075  1.3664  0.5389  1.1728
  746MOL0     H98472   6.964   4.937   6.089 -1.4475  0.1177 -0.6692
  747MOL0     O98473   0.344   2.150   9.641  0.1266 -0.3172 -0.2846
  747MOL0     C98474   0.411   2.046   9.641  0.2759  0.1020 -0.1020
  747MOL0     O98475   0.364   1.923   9.683  0.4280 -0.3461 -0.0246
  747MOL0     C98476   0.252   1.928   9.747 -0.5473  1.0690  0.4517
  747MOL0     C98477   0.131   1.964   9.684 -0.8325  0.2247 -0.2832
  747MOL0     C98478   0.010   1.977   9.748 -0.3201 -1.0029  0.4405
  747MOL0     C98479   0.011   1.940   9.886  0.8173 -0.3290 -0.1389
  747MOL0     O98480  -0.107   1.945   9.951  0.0320  0.6413 -0.2878
  747MOL0     C98481  -0.125   2.000  10.083  0.6082  0.1037  0.0770
  747MOL0     C98482  -0.227   2.113  10.094  0.5789 -0.8347 -0.6096
  747MOL0     C98483  -0.375   2.064  10.086 -0.0556  0.1071  0.4259
  747MOL0     C98484  -0.477   2.176  10.106  0.2882  0.9233 -0.0578
  747MOL0     C98485  -0.622   2.118  10.131 -0.5643  0.7265  0.1164
  747MOL0     C98486  -0.711   2.236  10.113 -0.6483 -0.0917  0.6641
  747MOL0     C98487  -0.851   2.201  10.162  0.1664 -0.1408 -0.3520
  747MOL0     C98488  -0.967   2.304  10.124 -0.2687 -0.3438 -0.1751
  747MOL0     N98489  -1.105   2.245  10.141  0.0630 -0.4515  0.2609
  747MOL0     C98490  -1.172   2.191  10.037 -0.3082  0.4441 -0.2307
  747MOL0     C98491  -1.282   2.136  10.101 -0.0927 -0.0695  0.5918
  747MOL0     C98492  -1.390   2.069  10.019 -0.5325 -0.6212 -0.0887
  747MOL0     C98493  -1.526   2.130  10.057  0.1762  0.9300 -0.0285
  747MOL0     C98494  -1.645   2.067   9.979  0.0817  0.9415 -0.0768
  747MOL0     C98495  -1.782   2.109  10.034  0.0790  0.0043 -0.1891
  747MOL0     O98496  -1.799   2.251   9.980 -0.2085 -0.4381 -0.0178
  747MOL0     C98497  -1.922   2.311   9.998 -0.4582  0.5429 -0.4226
  747MOL0     C98498  -2.041   2.247  10.052  0.2267 -0.0109  0.4062
  747MOL0     C98499  -2.160   2.317  10.069  0.2736  0.9017  0.3308
  747MOL0     C98500  -2.170   2.450  10.022  0.4657  0.6576 -0.0871
  747MOL0     C98501  -2.305   2.517  10.036  0.2244 -0.4029  0.1118
  747MOL0     O98502  -2.399   2.469  10.127  0.0091 -0.2374 -0.2939
  747MOL0     C98503  -2.522   2.524  10.145 -0.7646 -0.0205  0.1399
  747MOL0     C98504  -2.623   2.426  10.177 -1.0667 -0.8752 -0.3845
  747MOL0     C98505  -2.756   2.467  10.212  0.5724  0.1049 -0.5916
  747MOL0     C98506  -2.779   2.606  10.215  0.0524 -0.7896 -0.1779
  747MOL0     O98507  -2.903   2.636  10.261 -0.0159 -0.1302  0.1312
  747MOL0     C98508  -2.972   2.740  10.179 -0.0141 -1.0945  0.4971
  747MOL0     C98509  -3.124   2.751  10.202  0.4266 -0.7886 -0.1728
  747MOL0     C98510  -3.196   2.618  10.188  0.0285  0.0738 -0.0139
  747MOL0     C98511  -3.343   2.629  10.154 -0.0954 -0.7132  0.7334
  747MOL0     C98512  -3.421   2.498  10.155 -0.6386  0.4365  0.3041
  747MOL0     C98513  -3.562   2.526  10.094  0.0616  0.0657  0.0157
  747MOL0     C98514  -3.651   2.408  10.065  0.4888 -0.1807  0.4788
  747MOL0     C98515  -3.767   2.450   9.980 -0.1931 -0.8090  0.0806
  747MOL0    Cl98516  -3.890   2.321   9.973  0.2908  0.1987 -0.1415
  747MOL0     C98517  -2.678   2.702  10.181  0.3047  0.6259 -0.0182
  747MOL0     C98518  -2.552   2.662  10.145  0.5386 -0.0801 -0.1986
  747MOL0     O98519  -2.327   2.611   9.964 -0.1353 -0.0699  0.1403
  747MOL0     C98520  -2.061   2.509   9.953 -0.3624  0.1048 -0.0323
  747MOL0     C98521  -1.934   2.442   9.953 -0.4836 -0.4567  0.1865
  747MOL0     N98522  -1.276   2.162  10.237  0.2850 -0.6685  0.4191
  747MOL0     N98523  -1.172   2.231  10.257  0.1339 -0.3445  0.3284
  747MOL0     C98524   0.127   1.904   9.953  0.1824 -0.0488 -0.0267
  747MOL0     C98525   0.245   1.898   9.879  0.4700  0.2291 -1.5207
  747MOL0     C98526   0.548   2.054   9.582 -0.3888 -0.2408 -0.1838
  747MOL0     C98527   0.639   1.950   9.590 -0.2922 -0.0845  0.4283
  747MOL0     C98528   0.769   1.969   9.539  0.2621  0.7320 -0.4766
  747MOL0     C98529   0.812   2.091   9.491  0.0154  0.4299  0.4998
  747MOL0     O98530   0.952   2.124   9.482  0.1874  0.1087 -0.1376
  747MOL0     C98531   1.011   2.040   9.387 -0.3844 -0.5899  0.2835
  747MOL0     C98532   1.154   2.099   9.376  0.3216 -0.2210  0.5518
  747MOL0     C98533   1.155   2.201   9.252 -0.6043 -0.0545  0.5433
  747MOL0     C98534   1.058   2.330   9.252 -0.7962  0.3242  0.0572
  747MOL0     C98535   1.087   2.409   9.128  0.2683  0.5875  0.0504
  747MOL0     C98536   1.115   2.484   9.038  0.1595  0.0225 -0.1049
  747MOL0     C98537   0.721   2.189   9.466  0.1004 -0.1753 -0.5990
  747MOL0     C98538   0.590   2.174   9.515 -0.3555 -0.1993  0.3393
  747MOL0     H98539   0.126   1.988   9.578 -2.4742  0.9303 -0.0736
  747MOL0     H98540  -0.078   2.016   9.699 -1.3197 -1.3270  1.9007
  747MOL0     H98541  -0.026   2.030  10.117  0.5735 -1.3888  1.6173
  747MOL0     H98542  -0.151   1.920  10.153  0.0311  0.6378  0.4817
  747MOL0     H98543  -0.206   2.196  10.027 -0.3227  0.6036  0.8069
  747MOL0     H98544  -0.208   2.153  10.195  1.7352 -2.0713 -0.2980
  747MOL0     H98545  -0.396   1.979  10.151  2.3583 -1.8025 -1.1226
  747MOL0     H98546  -0.384   2.018   9.987  2.4055  0.3039  0.0487
  747MOL0     H98547  -0.451   2.249  10.182 -2.0592  1.2248  0.5295
  747MOL0     H98548  -0.471   2.223  10.008 -0.3529 -0.3504 -0.7423
  747MOL0     H98549  -0.617   2.090  10.237  2.3627  2.5822  0.5880
  747MOL0     H98550  -0.640   2.034  10.062  0.0380  0.4696  0.2603
  747MOL0     H98551  -0.722   2.254  10.006  1.2689 -2.3758  0.0046
  747MOL0     H98552  -0.670   2.325  10.162  5.3420 -1.6711 -0.6693
  747MOL0     H98553  -0.881   2.101  10.130 -2.4980  0.9010 -1.3359
  747MOL0     H98554  -0.851   2.188  10.271 -0.4195  0.7129 -0.2379
  747MOL0     H98555  -0.960   2.333  10.019  0.3271  2.9324  0.6453
  747MOL0     H98556  -0.969   2.402  10.174 -3.6307 -0.0696 -0.6024
  747MOL0     H98557  -1.163   2.180   9.929 -2.6851 -2.3570 -0.2688
  747MOL0     H98558  -1.375   1.966  10.050  2.9583 -0.7806 -1.7651
  747MOL0     H98559  -1.366   2.079   9.913  1.1422  1.7441  0.4130
  747MOL0     H98560  -1.526   2.238  10.038 -0.8342  0.9257 -0.1042
  747MOL0     H98561  -1.550   2.106  10.161  1.2109  0.7856  0.1828
  747MOL0     H98562  -1.637   2.079   9.870 -2.8613 -1.5712 -0.6775
  747MOL0     H98563  -1.634   1.964  10.014  2.4879  1.6431  1.4465
  747MOL0     H98564  -1.785   2.102  10.143 -0.5443 -0.5237 -0.2367
  747MOL0     H98565  -1.859   2.045   9.989 -0.5175 -0.7957  1.8208
  747MOL0     H98566  -2.019   2.146  10.085 -0.4503 -0.4015 -0.3194
  747MOL0     H98567  -2.241   2.268  10.123  2.1205  0.2775  2.7260
  747MOL0     H98568  -2.605   2.320  10.171 -0.8441 -0.9519  1.2784
  747MOL0     H98569  -2.826   2.388  10.235  0.2673  0.6663  0.4721
  747MOL0     H98570  -2.961   2.701  10.077  0.4778 -1.9830  0.8753
  747MOL0     H98571  -2.934   2.840  10.200 -2.3961 -0.1267  0.5528
  747MOL0     H98572  -3.165   2.823  10.131 -1.4597 -2.3801 -0.7697
  747MOL0     H98573  -3.149   2.786  10.303  4.4178 -1.8170  1.3825
  747MOL0     H98574  -3.185   2.564  10.282  0.7459  2.2765  1.2349
  747MOL0     H98575  -3.160   2.554  10.107  1.0950 -0.6372  0.9935
  747MOL0     H98576  -3.398   2.698  10.218  0.5880  2.0815 -1.4967
  747MOL0     H98577  -3.349   2.678  10.056 -0.5295 -0.9122  0.6568
  747MOL0     H98578  -3.431   2.465  10.259  0.1270 -1.6279 -0.2294
  747MOL0     H98579  -3.364   2.420  10.103 -2.4380 -0.8431  0.1842
  747MOL0     H98580  -3.549   2.579   9.999  0.0725 -0.5183 -0.3126
  747MOL0     H98581  -3.628   2.591  10.152  0.8749  0.2583  0.7471
  747MOL0     H98582  -3.614   2.320  10.012 -0.5303 -0.8148  0.8161
  747MOL0     H98583  -3.677   2.371  10.164  0.1781  1.4805  1.0454
  747MOL0     H98584  -3.741   2.492   9.882  0.3175 -0.9331  0.1616
  747MOL0     H98585  -3.804   2.536  10.036  1.5203  1.5104 -2.1487
  747MOL0     H98586  -2.696   2.809  10.192 -0.6658  0.5756 -0.9748
  747MOL0     H98587  -2.478   2.739  10.125  2.3438 -0.5444  3.5937
  747MOL0     H98588  -2.064   2.607   9.907 -2.4328  0.1053  0.0344
  747MOL0     H98589  -1.850   2.496   9.911 -0.0015 -0.1755  1.4872
  747MOL0     H98590   0.113   1.870  10.055 -3.8252 -2.3433 -1.1268
  747MOL0     H98591   0.334   1.866   9.934  0.7199  1.3300 -1.2576
  747MOL0     H98592   0.613   1.857   9.639 -4.1149  0.5966 -0.0402
  747MOL0     H98593   0.843   1.891   9.551  0.5965  0.6622 -2.6436
  747MOL0     H98594   0.966   2.046   9.288 -1.1085 -2.4155  0.4508
  747MOL0     H98595   1.015   1.935   9.421 -2.2449 -0.5287  0.8061
  747MOL0     H98596   1.190   2.148   9.467 -0.1938  0.9347  0.1543
  747MOL0     H98597   1.230   2.025   9.352  0.2436 -0.1544  0.0806
  747MOL0     H98598   1.148   2.141   9.161 -0.4702 -1.4877  1.4396
  747MOL0     H98599   1.258   2.238   9.252 -1.1632  1.5720  0.3457
  747MOL0     H98600   0.950   2.317   9.250 -1.1506  2.5355 -3.4705
  747MOL0     H98601   1.100   2.385   9.337 -0.6658  0.5833 -0.1750
  747MOL0     H98602   1.142   2.566   8.975  0.0649  0.5783  0.5601
  747MOL0     H98603   0.749   2.285   9.423 -0.5028  0.2946  0.0284
  747MOL0     H98604   0.520   2.256   9.503 -1.3638 -0.9769  0.7844
  748MOL0     O98605   9.654   1.385  10.467 -0.2145 -0.5640  0.5005
  748MOL0     C98606   9.596   1.347  10.568 -0.0644 -0.5829 -0.3268
  748MOL0     O98607   9.617   1.225  10.625 -0.3447 -0.1039  0.3122
  748MOL0     C98608   9.737   1.168  10.597 -0.3667  0.0700 -0.0673
  748MOL0     C98609   9.859   1.239  10.573  0.1531  0.4284  0.0514
  748MOL0     C98610   9.976   1.169  10.561 -0.3332  0.3320 -1.0682
  748MOL0     C98611   9.982   1.023  10.551 -1.2143  0.6411  0.0347
  748MOL0     O98612  10.093   0.942  10.549 -0.1531 -0.6564 -0.1831
  748MOL0     C98613  10.215   1.018  10.532 -0.7989  0.0795 -0.4943
  748MOL0     C98614  10.329   0.919  10.543 -0.5090  0.5387 -0.1452
  748MOL0     C98615  10.452   0.979  10.479 -0.3506 -0.1152 -0.4474
  748MOL0     C98616  10.547   0.859  10.453 -0.2960 -0.1430 -0.1066
  748MOL0     C98617  10.678   0.912  10.426 -1.1918 -0.2204  0.0581
  748MOL0     C98618  10.792   0.812  10.405  0.5946  0.2650  0.0600
  748MOL0     C98619  10.934   0.881  10.401 -0.0865  0.0643  0.2678
  748MOL0     C98620  11.042   0.794  10.337 -0.2197 -0.1483  0.3204
  748MOL0     N98621  11.036   0.765  10.191  0.6570  0.7814  0.0340
  748MOL0     C98622  10.953   0.824  10.097 -0.0785 -0.6951  0.2695
  748MOL0     C98623  10.969   0.740   9.996 -1.1829 -0.1481 -0.0354
  748MOL0     C98624  10.896   0.730   9.866 -0.2863  0.2669  0.6402
  748MOL0     C98625  10.821   0.605   9.836  0.0406  0.4274 -0.1297
  748MOL0     C98626  10.726   0.624   9.719  0.4814 -0.7718  0.6553
  748MOL0     C98627  10.629   0.513   9.686  0.1677 -0.1189 -0.2194
  748MOL0     O98628  10.569   0.540   9.561  0.1405  0.5489 -0.2494
  748MOL0     C98629  10.445   0.486   9.531  0.8669 -0.1652 -0.4466
  748MOL0     C98630  10.386   0.371   9.590  0.0958  0.7330 -0.0128
  748MOL0     C98631  10.265   0.322   9.538 -0.0946  0.1880 -1.0888
  748MOL0     C98632  10.199   0.385   9.441  0.9703 -0.2326  0.5657
  748MOL0     C98633  10.067   0.343   9.396 -0.1934  0.6103 -0.4572
  748MOL0     O98634   9.996   0.241   9.461  0.7174  0.2913 -0.0963
  748MOL0     C98635   9.869   0.225   9.425  0.3801  0.9302  0.1306
  748MOL0     C98636   9.832   0.137   9.321  0.6097 -0.1871  0.1176
  748MOL0     C98637   9.694   0.122   9.289 -0.9165  0.5104  0.1781
  748MOL0     C98638   9.592   0.177   9.370 -0.0767 -0.1826 -0.5312
  748MOL0     O98639   9.454   0.173   9.358  0.1456 -0.3345 -0.1435
  748MOL0     C98640   9.419   0.157   9.217 -0.1443  1.4256 -0.0007
  748MOL0     C98641   9.270   0.184   9.190 -0.2324  0.8067 -0.0148
  748MOL0     C98642   9.171   0.096   9.266 -0.1402 -0.1832 -0.4778
  748MOL0     C98643   9.030   0.098   9.209 -0.1190  0.6307 -0.6296
  748MOL0     C98644   8.933   0.020   9.307  0.1562  0.6483 -0.0082
  748MOL0     C98645   8.794  -0.011   9.253 -0.2267  0.0976  0.8203
  748MOL0     C98646   8.718  -0.098   9.358 -0.1301  0.4325 -0.6373
  748MOL0     C98647   8.568  -0.090   9.347 -0.5716  1.0832 -0.1467
  748MOL0    Cl98648   8.496   0.075   9.338  0.2043 -0.3100  0.3430
  748MOL0     C98649   9.633   0.269   9.466  0.5297  0.9811 -0.4433
  748MOL0     C98650   9.769   0.291   9.486 -0.5302 -0.7083  0.5381
  748MOL0     O98651  10.021   0.410   9.300  0.1167 -0.2017  0.0311
  748MOL0     C98652  10.262   0.493   9.377  0.6209 -0.7333  0.0872
  748MOL0     C98653  10.380   0.540   9.418  0.0570 -0.0188 -0.3602
  748MOL0     N98654  11.063   0.641  10.030 -1.6173  0.2556  0.0725
  748MOL0     N98655  11.107   0.657  10.144  0.3806 -0.1121  0.5702
  748MOL0     C98656   9.860   0.951  10.565 -0.0785 -0.4976 -0.4981
  748MOL0     C98657   9.743   1.028  10.586 -0.2251 -0.1739  0.0877
  748MOL0     C98658   9.509   1.449  10.636  0.2740  0.2740 -0.3286
  748MOL0     C98659   9.489   1.574  10.579  1.0309  0.8954 -0.1790
  748MOL0     C98660   9.411   1.676  10.639 -0.5924 -0.7548  0.0971
  748MOL0     C98661   9.356   1.657  10.768  0.1299  0.4286  1.1125
  748MOL0     O98662   9.287   1.762  10.822 -0.1270  0.4862 -0.0194
  748MOL0     C98663   9.195   1.736  10.931  0.2675 -0.4098  0.7782
  748MOL0     C98664   9.250   1.776  11.065 -0.3832  0.2735  0.8201
  748MOL0     C98665   9.164   1.746  11.186  0.6717  0.0554 -0.0944
  748MOL0     C98666   9.112   1.866  11.260  0.5541 -0.3132 -0.1269
  748MOL0     C98667   9.003   1.822  11.348  0.2568  0.1697 -0.3601
  748MOL0     C98668   8.910   1.776  11.407 -0.6033  0.2445  0.2922
  748MOL0     C98669   9.382   1.538  10.835  0.0182 -0.4373  0.2923
  748MOL0     C98670   9.454   1.431  10.768 -0.0315 -0.1234 -0.5662
  748MOL0     H98671   9.871   1.347  10.578  2.3357  0.2322 -0.0492
  748MOL0     H98672  10.066   1.230  10.560 -0.6541  1.0374  1.8467
  748MOL0     H98673  10.230   1.091  10.611  1.3871 -1.0588  0.2274
  748MOL0     H98674  10.227   1.073  10.438  3.3759 -3.1225 -2.1523
  748MOL0     H98675  10.295   0.828  10.492 -0.2104 -0.0908  0.7451
  748MOL0     H98676  10.342   0.907  10.651 -0.9232  0.1582 -0.1333
  748MOL0     H98677  10.486   1.054  10.550  1.3428 -1.7106  0.5194
  748MOL0     H98678  10.427   1.017  10.380  0.4713 -2.6267 -1.7194
  748MOL0     H98679  10.543   0.779  10.528  0.1381  1.7333  1.9925
  748MOL0     H98680  10.512   0.815  10.359  0.3913 -0.9760  0.0169
  748MOL0     H98681  10.711   0.979  10.505 -2.2804 -0.1041  0.4394
  748MOL0     H98682  10.665   0.969  10.334  2.2977  2.8861  1.2455
  748MOL0     H98683  10.771   0.755  10.314 -2.0868  1.1999  0.0087
  748MOL0     H98684  10.790   0.731  10.479  0.7226 -0.3120 -0.5596
  748MOL0     H98685  10.937   0.981  10.355  1.3168  1.5512  3.2822
  748MOL0     H98686  10.975   0.893  10.502  0.6014  0.8380 -0.0936
  748MOL0     H98687  11.055   0.696  10.382  0.5959 -1.6134 -2.8072
  748MOL0     H98688  11.130   0.856  10.355  0.3324 -1.1282  1.0704
  748MOL0     H98689  10.881   0.905  10.096  2.5597  1.8355 -1.7424
  748MOL0     H98690  10.964   0.752   9.783 -1.3254  0.0366 -0.3018
  748MOL0     H98691  10.825   0.813   9.876 -0.9534 -0.4038  1.6375
  748MOL0     H98692  10.764   0.574   9.925 -1.3862  0.1240 -1.1201
  748MOL0     H98693  10.891   0.521   9.826 -1.0494 -0.4476 -0.6635
  748MOL0     H98694  10.670   0.717   9.733  1.7650  0.0849  0.2200
  748MOL0     H98695  10.792   0.643   9.634  0.4825 -0.9798  0.6081
  748MOL0     H98696  10.549   0.498   9.759 -0.0530 -0.7881 -0.5875
  748MOL0     H98697  10.682   0.417   9.678 -2.2769 -1.4094 -3.4200
  748MOL0     H98698  10.439   0.307   9.660 -0.7544 -1.9918 -1.6862
  748MOL0     H98699  10.217   0.232   9.577 -3.3544  1.9394 -0.6997
  748MOL0     H98700   9.911   0.084   9.269  1.5697  1.5418 -0.2732
  748MOL0     H98701   9.667   0.063   9.203  2.0320  0.3024 -0.7159
  748MOL0     H98702   9.442   0.055   9.186 -2.3868  0.8382  0.0659
  748MOL0     H98703   9.471   0.224   9.149  1.9787 -1.4666 -1.4150
  748MOL0     H98704   9.249   0.169   9.084  0.0167  0.9780 -0.0908
  748MOL0     H98705   9.256   0.286   9.226  0.0228  0.6174  0.6472
  748MOL0     H98706   9.170   0.124   9.371  0.8622 -0.5313 -0.3670
  748MOL0     H98707   9.210  -0.006   9.263  1.9858  0.5853 -2.1669
  748MOL0     H98708   8.993   0.200   9.198  0.6844  0.8687 -1.2040
  748MOL0     H98709   9.033   0.053   9.109 -1.9162  0.2218 -0.5405
  748MOL0     H98710   8.920   0.078   9.399  1.8560  1.3191 -0.1619
  748MOL0     H98711   8.980  -0.072   9.343 -0.7621 -0.5214 -1.6675
  748MOL0     H98712   8.805  -0.076   9.167  3.2702  0.2411  1.0072
  748MOL0     H98713   8.738   0.082   9.240  0.7860  0.6348  0.1276
  748MOL0     H98714   8.752  -0.201   9.367 -0.9250  0.3389  1.8776
  748MOL0     H98715   8.740  -0.044   9.451 -0.6421  1.1415 -0.9149
  748MOL0     H98716   8.535  -0.150   9.432  0.7876 -2.5829 -1.9702
  748MOL0     H98717   8.544  -0.151   9.259  0.1528 -0.3332  0.5894
  748MOL0     H98718   9.557   0.323   9.522 -0.3701 -0.6305 -0.0410
  748MOL0     H98719   9.803   0.376   9.544 -1.4449  1.1942 -1.5373
  748MOL0     H98720  10.215   0.541   9.292 -1.2892  1.1536  2.0664
  748MOL0     H98721  10.425   0.620   9.361 -2.8183  2.1342  0.1345
  748MOL0     H98722   9.859   0.843  10.551 -1.2863 -0.4968 -0.5252
  748MOL0     H98723   9.648   0.977  10.602 -0.1150  0.1992  2.2477
  748MOL0     H98724   9.518   1.600  10.477 -1.2444 -0.2668 -1.1968
  748MOL0     H98725   9.399   1.771  10.587  0.2862 -1.0928 -0.7322
  748MOL0     H98726   9.166   1.631  10.928 -0.0751 -0.3215  0.9415
  748MOL0     H98727   9.104   1.795  10.927  0.2261 -0.5219 -0.2066
  748MOL0     H98728   9.343   1.722  11.080 -1.0666 -0.3752  3.0656
  748MOL0     H98729   9.268   1.883  11.051 -2.7763  0.6531  0.1551
  748MOL0     H98730   9.229   1.682  11.246  2.9036 -1.0935 -3.4194
  748MOL0     H98731   9.082   1.681  11.155  0.0435  0.7783  0.0430
  748MOL0     H98732   9.194   1.921  11.307 -1.9841  1.5536  2.5593
  748MOL0     H98733   9.071   1.942  11.194 -2.8609 -1.2961  0.6313
  748MOL0     H98734   8.834   1.735  11.470 -0.1610  2.6065  2.5181
  748MOL0     H98735   9.360   1.514  10.939 -0.8350  3.9462  1.3179
  748MOL0     H98736   9.481   1.341  10.823  0.8646 -0.0010 -0.8038
  749MOL0     O98737   9.577   7.255  10.683 -0.0754 -0.4147  0.2193
  749MOL0     C98738   9.582   7.152  10.608  0.2723  0.3116  0.1693
  749MOL0     O98739   9.471   7.077  10.565 -0.5675  0.1798  0.0250
  749MOL0     C98740   9.355   7.130  10.596  1.7305  0.0513  0.0398
  749MOL0     C98741   9.314   7.117  10.730  0.2249  0.0060 -0.7447
  749MOL0     C98742   9.189   7.176  10.767 -0.1237  0.5534  0.5869
  749MOL0     C98743   9.114   7.251  10.670  0.5061  0.6488  0.6161
  749MOL0     O98744   8.991   7.292  10.716 -0.2611 -0.1661  0.1201
  749MOL0     C98745   8.899   7.336  10.620 -0.7836  0.0281  1.2647
  749MOL0     C98746   8.777   7.367  10.702 -1.0182  0.0151 -0.2293
  749MOL0     C98747   8.671   7.433  10.615  0.4827 -0.1310  0.4069
  749MOL0     C98748   8.537   7.443  10.686 -0.5455  0.8353 -0.3164
  749MOL0     C98749   8.422   7.426  10.591  0.1719 -0.0666 -0.0733
  749MOL0     C98750   8.281   7.405  10.655 -0.4450 -0.2999 -0.6932
  749MOL0     C98751   8.160   7.465  10.580 -0.2327  0.5955 -0.0574
  749MOL0     C98752   8.030   7.443  10.655 -0.2518 -0.4686 -0.0810
  749MOL0     N98753   7.918   7.459  10.567 -0.5052 -0.1076  0.0455
  749MOL0     C98754   7.893   7.553  10.468  0.0645  0.6211 -0.5504
  749MOL0     C98755   7.760   7.534  10.448  0.4324 -0.8109 -0.3396
  749MOL0     C98756   7.665   7.619  10.368  0.4197  0.2045 -0.3605
  749MOL0     C98757   7.609   7.734  10.443 -0.4115 -0.3627 -0.1233
  749MOL0     C98758   7.493   7.799  10.362 -0.1852  0.0972  0.4899
  749MOL0     C98759   7.420   7.898  10.453 -0.0585 -0.6941  0.7620
  749MOL0     O98760   7.357   7.999  10.366  0.2043  0.5500 -0.1002
  749MOL0     C98761   7.248   8.062  10.416  0.2953 -0.6095 -0.4408
  749MOL0     C98762   7.194   8.050  10.551 -0.0815 -0.8670 -0.2340
  749MOL0     C98763   7.092   8.138  10.592  0.2676  1.0896  0.0615
  749MOL0     C98764   7.026   8.223  10.506  0.0526  0.2530  0.0192
  749MOL0     C98765   6.896   8.285  10.538 -0.8897 -0.0189  0.3047
  749MOL0     O98766   6.815   8.335  10.438  0.0003  0.2392  0.4756
  749MOL0     C98767   6.684   8.348  10.468 -0.6651  0.0454  0.1539
  749MOL0     C98768   6.608   8.234  10.465  0.1416  0.0894 -0.1753
  749MOL0     C98769   6.470   8.244  10.470 -0.2075 -1.4794 -0.4350
  749MOL0     C98770   6.413   8.366  10.513 -0.5039 -0.0901  0.0564
  749MOL0     O98771   6.280   8.361  10.545 -0.7224 -0.5223  0.5156
  749MOL0     C98772   6.211   8.487  10.511  0.5807 -0.0501  0.4994
  749MOL0     C98773   6.065   8.474  10.516  0.7317  0.3325  0.3993
  749MOL0     C98774   5.993   8.604  10.483 -0.5207  0.2005  0.0348
  749MOL0     C98775   5.845   8.606  10.463 -0.2984  0.0784  0.1536
  749MOL0     C98776   5.799   8.740  10.407  0.4968 -0.0129  0.2821
  749MOL0     C98777   5.654   8.767  10.416  1.2591  0.0326 -0.5759
  749MOL0     C98778   5.634   8.917  10.429 -1.2212 -0.2414  0.5374
  749MOL0     C98779   5.495   8.957  10.480  0.0609  0.4479  0.6238
  749MOL0    Cl98780   5.375   8.868  10.380 -0.2019  0.2202  0.0447
  749MOL0     C98781   6.496   8.478  10.535 -0.0923  0.2609  1.0099
  749MOL0     C98782   6.631   8.468  10.496  0.9433  0.3973 -0.0939
  749MOL0     O98783   6.862   8.275  10.656  0.1979  0.7018 -1.0154
  749MOL0     C98784   7.072   8.228  10.375 -0.2540  0.2205 -0.2821
  749MOL0     C98785   7.183   8.151  10.330 -0.0412 -0.4262  0.1600
  749MOL0     N98786   7.711   7.435  10.529  0.6873 -0.1972 -0.3502
  749MOL0     N98787   7.809   7.383  10.594 -0.0739  0.6867  0.0427
  749MOL0     C98788   9.163   7.263  10.541 -0.2677 -0.1434  0.1592
  749MOL0     C98789   9.286   7.206  10.504 -0.2306 -0.8169 -0.6862
  749MOL0     C98790   9.716   7.109  10.556  0.2131  0.4946 -0.0865
  749MOL0     C98791   9.714   7.023  10.440  1.0819  0.7980 -0.5435
  749MOL0     C98792   9.840   6.980  10.394 -0.1220 -0.1691 -0.6417
  749MOL0     C98793   9.968   6.999  10.462  0.6815  0.1034  0.9277
  749MOL0     O98794  10.072   6.921  10.404  0.6187  0.1385 -0.3049
  749MOL0     C98795  10.204   6.944  10.475 -0.0415 -0.0261 -0.3191
  749MOL0     C98796  10.219   6.866  10.608 -0.2826  0.6610  0.1088
  749MOL0     C98797  10.212   6.720  10.592 -0.6527  0.4066 -0.4214
  749MOL0     C98798  10.212   6.636  10.725 -0.0155 -0.3616  0.7144
  749MOL0     C98799  10.350   6.658  10.785  0.7641  0.0776  0.8092
  749MOL0     C98800  10.448   6.670  10.848  0.6773  0.2863 -0.6736
  749MOL0     C98801   9.958   7.083  10.574 -0.0887  0.0578 -0.3930
  749MOL0     C98802   9.840   7.135  10.622  0.9117  0.0230 -0.2840
  749MOL0     H98803   9.380   7.080  10.808 -1.9887 -0.5377  0.9686
  749MOL0     H98804   9.146   7.155  10.865  3.6500 -0.7908  2.1289
  749MOL0     H98805   8.869   7.255  10.554 -0.6177  0.2769  0.8805
  749MOL0     H98806   8.931   7.421  10.558  0.2557 -1.5064 -0.4247
  749MOL0     H98807   8.812   7.422  10.790 -1.6500 -1.9693  1.3394
  749MOL0     H98808   8.735   7.272  10.736 -2.9826  0.8824 -0.0992
  749MOL0     H98809   8.652   7.376  10.524 -3.1607  0.1826  0.8224
  749MOL0     H98810   8.706   7.534  10.591  0.4389  0.1487  1.4648
  749MOL0     H98811   8.530   7.354  10.750  0.4392 -1.0983 -2.7211
  749MOL0     H98812   8.534   7.532  10.749  0.2756  0.7352 -0.1218
  749MOL0     H98813   8.434   7.337  10.529 -1.4253  1.7587 -3.2578
  749MOL0     H98814   8.420   7.513  10.524  0.5163  0.6414  0.8099
  749MOL0     H98815   8.271   7.449  10.755  1.1803 -1.0401 -0.1754
  749MOL0     H98816   8.262   7.298  10.667 -0.5847 -0.2895 -0.8284
  749MOL0     H98817   8.189   7.570  10.565  0.1297  0.1010 -3.7762
  749MOL0     H98818   8.159   7.412  10.485 -0.4243  0.3175  0.1009
  749MOL0     H98819   8.029   7.523  10.730  1.8795 -0.1114 -0.3896
  749MOL0     H98820   8.032   7.345  10.704  1.6593 -0.1566  0.5493
  749MOL0     H98821   7.960   7.629  10.429 -2.0666  1.2118 -3.3432
  749MOL0     H98822   7.582   7.555  10.334  0.8362 -0.0947 -0.8301
  749MOL0     H98823   7.718   7.666  10.285 -0.8453 -1.5817 -2.2825
  749MOL0     H98824   7.691   7.804  10.460 -0.0724 -0.9308  0.6544
  749MOL0     H98825   7.562   7.702  10.536  0.9732  3.7352  2.2208
  749MOL0     H98826   7.524   7.863  10.279 -3.5583 -2.0266 -2.6663
  749MOL0     H98827   7.425   7.721  10.328 -1.1378  0.6584  1.0556
  749MOL0     H98828   7.492   7.955  10.512  1.3406 -0.6667 -0.8841
  749MOL0     H98829   7.355   7.842  10.520 -0.6022 -1.0127 -0.0145
  749MOL0     H98830   7.233   7.981  10.625 -0.1464  0.4702  1.0799
  749MOL0     H98831   7.049   8.119  10.690 -0.2131  1.8540  0.0080
  749MOL0     H98832   6.648   8.136  10.439 -1.8955 -0.4449 -1.5299
  749MOL0     H98833   6.406   8.159  10.452 -0.1172 -1.2808 -1.8668
  749MOL0     H98834   6.243   8.509  10.408  1.4035 -2.7170  0.0993
  749MOL0     H98835   6.239   8.566  10.582  0.0810 -0.1724  0.8339
  749MOL0     H98836   6.039   8.430  10.612 -0.1726  1.7105  0.8248
  749MOL0     H98837   6.050   8.409  10.429 -0.1375  0.2433  0.6029
  749MOL0     H98838   6.023   8.637  10.384 -2.4264  1.8926 -0.0512
  749MOL0     H98839   6.017   8.680  10.557 -0.6211  0.6432 -0.3846
  749MOL0     H98840   5.821   8.521  10.398  0.4778 -0.0043 -0.0405
  749MOL0     H98841   5.797   8.594  10.561  2.5866 -1.0815  1.5459
  749MOL0     H98842   5.834   8.747  10.304 -0.2779 -0.6445 -0.0312
  749MOL0     H98843   5.856   8.818  10.459 -0.1844  0.9214 -0.3438
  749MOL0     H98844   5.619   8.715  10.506 -1.9747 -0.8270 -2.1891
  749MOL0     H98845   5.602   8.725  10.330  1.5439 -1.5193 -0.0252
  749MOL0     H98846   5.703   8.962  10.500 -1.3203 -0.0347  0.5046
  749MOL0     H98847   5.655   8.973  10.337  2.3873  0.6043  1.7312
  749MOL0     H98848   5.493   9.066  10.473  3.1591  0.6627  1.4660
  749MOL0     H98849   5.479   8.923  10.583  3.6750 -2.4941  0.4357
  749MOL0     H98850   6.453   8.575  10.559 -0.3077  0.6617 -0.8825
  749MOL0     H98851   6.703   8.549  10.490  1.8168 -0.4564 -2.5577
  749MOL0     H98852   7.026   8.279  10.291  1.9421 -0.4194 -1.9891
  749MOL0     H98853   7.214   8.141  10.226  0.9932  0.2022  0.4010
  749MOL0     H98854   9.113   7.323  10.465  2.0005  2.4902  0.5534
  749MOL0     H98855   9.335   7.221  10.409  3.0795  2.4316  1.2729
  749MOL0     H98856   9.626   6.985  10.391  0.4563  3.8199 -1.9548
  749MOL0     H98857   9.837   6.905  10.316  1.0047 -0.5993 -0.2906
  749MOL0     H98858  10.205   7.052  10.489 -0.4693 -0.0720  0.0875
  749MOL0     H98859  10.286   6.927  10.405  1.7103 -1.0425  1.8642
  749MOL0     H98860  10.314   6.896  10.655 -0.9571  0.1592  1.8787
  749MOL0     H98861  10.132   6.891  10.668 -0.5126  1.8052 -0.6695
  749MOL0     H98862  10.293   6.691  10.525 -2.2581 -0.3937 -2.1067
  749MOL0     H98863  10.123   6.699  10.531  0.8437 -0.2665 -2.4652
  749MOL0     H98864  10.135   6.669  10.795 -0.0575 -3.3946  2.2667
  749MOL0     H98865  10.197   6.529  10.706  1.2295 -0.3047 -0.8345
  749MOL0     H98866  10.544   6.685  10.893 -0.7019  0.3150  2.5304
  749MOL0     H98867  10.045   7.098  10.636 -2.4811  0.6965  3.1241
  749MOL0     H98868   9.838   7.199  10.709 -0.7334  0.4814 -0.6246
  750MOL0     O98869   2.842   4.781   5.569  0.0634 -0.0234 -0.0547
  750MOL0     C98870   2.865   4.894   5.603 -0.1379  0.1005 -0.0774
  750MOL0     O98871   2.797   5.005   5.569  0.4312 -0.4380 -0.5563
  750MOL0     C98872   2.694   4.985   5.480 -0.5715  0.0070  0.5480
  750MOL0     C98873   2.558   4.963   5.516  0.7501  0.0065 -0.0999
  750MOL0     C98874   2.459   4.928   5.423 -0.6428  0.7921 -0.2007
  750MOL0     C98875   2.496   4.911   5.289 -0.1130 -0.0388 -0.1798
  750MOL0     O98876   2.403   4.889   5.190  0.6219 -0.0055  0.0617
  750MOL0     C98877   2.296   4.802   5.219 -0.7232  0.3301 -0.6263
  750MOL0     C98878   2.159   4.870   5.218 -0.3362 -0.2195 -0.4273
  750MOL0     C98879   2.052   4.767   5.243 -0.1430 -0.1053 -0.6556
  750MOL0     C98880   1.915   4.833   5.237 -0.1431  0.2833  0.2369
  750MOL0     C98881   1.813   4.733   5.306  0.8917 -0.2369  0.0450
  750MOL0     C98882   1.674   4.794   5.306 -0.0649  0.5913 -0.1589
  750MOL0     C98883   1.576   4.716   5.391 -0.1300 -0.0227 -0.0021
  750MOL0     C98884   1.431   4.772   5.370  0.0643  0.2393  0.2456
  750MOL0     N98885   1.319   4.683   5.402  0.3404 -0.6684  0.5245
  750MOL0     C98886   1.305   4.545   5.368  0.4158 -0.4939 -0.5443
  750MOL0     C98887   1.187   4.510   5.430  0.3653  0.2227 -0.6089
  750MOL0     C98888   1.126   4.379   5.422  0.3155 -0.4593  0.4493
  750MOL0     C98889   1.057   4.324   5.546 -0.0153  0.2323 -0.0050
  750MOL0     C98890   1.014   4.174   5.531 -0.1423  0.4033 -0.1228
  750MOL0     C98891   0.944   4.117   5.653  0.4809 -0.4391 -0.3972
  750MOL0     O98892   0.810   4.160   5.645 -0.1783 -0.4372 -0.7392
  750MOL0     C98893   0.704   4.099   5.706  0.0475 -0.4216 -0.0888
  750MOL0     C98894   0.701   3.977   5.785  0.2251 -0.2077 -0.0975
  750MOL0     C98895   0.592   3.920   5.838 -0.1315  0.6119  0.9308
  750MOL0     C98896   0.468   3.972   5.801 -0.5738 -0.6080 -0.6993
  750MOL0     C98897   0.340   3.917   5.841  0.2511 -0.2875 -0.1534
  750MOL0     O98898   0.234   4.003   5.859  0.1162  0.5277  0.0713
  750MOL0     C98899   0.104   3.954   5.867  0.2475 -0.1588 -0.8757
  750MOL0     C98900   0.021   4.004   5.975  0.5885  0.1544  0.3060
  750MOL0     C98901  -0.107   3.962   5.994 -0.1370 -0.7503  0.5300
  750MOL0     C98902  -0.168   3.873   5.909 -0.5687 -0.2371  0.5107
  750MOL0     O98903  -0.289   3.826   5.951 -0.3150  0.2766  0.2960
  750MOL0     C98904  -0.386   3.834   5.846  0.0939 -0.1520 -0.4787
  750MOL0     C98905  -0.521   3.803   5.915  0.1883  0.1975  0.0533
  750MOL0     C98906  -0.628   3.770   5.806 -0.0701  0.1838 -0.5891
  750MOL0     C98907  -0.760   3.720   5.876 -0.7106  0.2623  0.2199
  750MOL0     C98908  -0.868   3.676   5.780  0.5362 -0.2093  0.3394
  750MOL0     C98909  -0.972   3.597   5.857 -0.1710 -0.4743  0.6347
  750MOL0     C98910  -1.097   3.573   5.759  0.0762 -0.1434  0.4563
  750MOL0     C98911  -1.209   3.480   5.817  0.0144 -0.4759 -0.0750
  750MOL0    Cl98912  -1.311   3.439   5.684  0.5028 -0.3970 -0.2905
  750MOL0     C98913  -0.087   3.819   5.807 -0.9452 -0.2685 -0.0520
  750MOL0     C98914   0.051   3.856   5.784 -0.1120  0.1590  0.7931
  750MOL0     O98915   0.337   3.794   5.855 -0.2036 -0.2971 -0.4181
  750MOL0     C98916   0.468   4.097   5.737 -0.6579 -0.2289  0.1549
  750MOL0     C98917   0.589   4.163   5.690  1.0703 -0.0215  0.2427
  750MOL0     N98918   1.142   4.621   5.502  0.9397  1.4545  0.3472
  750MOL0     N98919   1.223   4.721   5.484 -0.1681  0.0098  0.0019
  750MOL0     C98920   2.630   4.936   5.256 -0.0826 -0.1971 -0.0872
  750MOL0     C98921   2.721   4.986   5.350 -1.0075 -0.2850 -0.2789
  750MOL0     C98922   2.984   4.924   5.688 -0.2475  0.9743  0.1784
  750MOL0     C98923   2.978   4.995   5.805 -0.0319  0.6006  0.0895
  750MOL0     C98924   3.092   5.023   5.879  1.0617 -0.6933  0.5660
  750MOL0     C98925   3.217   4.975   5.838  0.7144  0.4955  0.7837
  750MOL0     O98926   3.325   4.998   5.917 -0.0412 -0.4557  0.0217
  750MOL0     C98927   3.448   4.924   5.893  0.1627 -0.4849  0.4950
  750MOL0     C98928   3.521   4.903   6.029 -0.9929  0.1568  0.4865
  750MOL0     C98929   3.619   4.787   6.003 -0.0623 -0.5816  0.7644
  750MOL0     C98930   3.710   4.767   6.118 -0.0169  0.7246 -0.1111
  750MOL0     C98931   3.810   4.662   6.088 -0.4584 -0.7894  0.7136
  750MOL0     C98932   3.906   4.588   6.073  0.3413 -0.3957 -0.0927
  750MOL0     C98933   3.225   4.902   5.720  0.0329 -0.7388 -0.7292
  750MOL0     C98934   3.108   4.875   5.649 -0.4970  0.3905 -0.5198
  750MOL0     H98935   2.542   4.970   5.623  1.2900  2.1812 -0.1026
  750MOL0     H98936   2.355   4.911   5.450 -0.0505 -1.5023  0.8766
  750MOL0     H98937   2.318   4.747   5.311  1.4029  1.6023 -0.2888
  750MOL0     H98938   2.302   4.733   5.135  1.6125 -1.7388  1.1059
  750MOL0     H98939   2.144   4.925   5.125 -0.3125 -0.3432 -0.5044
  750MOL0     H98940   2.158   4.944   5.299  1.3286  0.8921 -1.3555
  750MOL0     H98941   2.067   4.723   5.342 -0.1903 -0.0508 -0.6248
  750MOL0     H98942   2.061   4.683   5.173 -0.7358  0.2098 -1.1182
  750MOL0     H98943   1.915   4.931   5.284  4.7062  1.5569 -1.8641
  750MOL0     H98944   1.885   4.850   5.133  0.0800 -2.8905 -0.4688
  750MOL0     H98945   1.846   4.708   5.407  2.0648  0.8301 -0.0540
  750MOL0     H98946   1.817   4.632   5.262 -0.5778 -0.5431  0.5596
  750MOL0     H98947   1.648   4.807   5.201  0.8589  2.2338 -0.2194
  750MOL0     H98948   1.683   4.892   5.352 -2.6440  0.7419  0.2055
  750MOL0     H98949   1.579   4.611   5.358  4.0434 -0.1804  0.3184
  750MOL0     H98950   1.605   4.724   5.496 -0.6757 -0.4097  0.1842
  750MOL0     H98951   1.421   4.799   5.264  2.6533  0.4507 -0.0067
  750MOL0     H98952   1.414   4.867   5.421 -0.8933  0.1613  0.0851
  750MOL0     H98953   1.370   4.481   5.310 -0.7442 -2.5651  0.3545
  750MOL0     H98954   1.204   4.312   5.383  0.6450 -0.8729  1.7689
  750MOL0     H98955   1.054   4.378   5.340  0.2475  3.2106  0.3361
  750MOL0     H98956   0.972   4.392   5.561  0.4855  1.2265 -1.4039
  750MOL0     H98957   1.128   4.325   5.628  0.6485 -1.5108 -0.5207
  750MOL0     H98958   0.947   4.155   5.446  0.6892  0.3325 -0.7718
  750MOL0     H98959   1.105   4.120   5.505  1.0163  2.6710 -1.1101
  750MOL0     H98960   0.986   4.159   5.745 -2.4281  1.6033  0.1643
  750MOL0     H98961   0.953   4.009   5.658  0.7602 -0.6571 -3.5682
  750MOL0     H98962   0.793   3.921   5.805  0.6435  0.7847  0.8288
  750MOL0     H98963   0.601   3.824   5.888 -0.3801 -0.2634 -0.6429
  750MOL0     H98964   0.062   4.063   6.056 -0.9265 -1.7435  2.6021
  750MOL0     H98965  -0.140   4.005   6.088 -0.2415  0.4151 -0.0272
  750MOL0     H98966  -0.365   3.761   5.768 -0.2842 -2.0510  1.1046
  750MOL0     H98967  -0.386   3.934   5.800  1.2466  1.6848  3.1192
  750MOL0     H98968  -0.551   3.893   5.969  0.8386  0.4633 -0.0193
  750MOL0     H98969  -0.517   3.711   5.975  1.8499  0.7563  0.8766
  750MOL0     H98970  -0.586   3.698   5.735 -0.7639  0.1436 -0.9682
  750MOL0     H98971  -0.642   3.853   5.736  1.4964  0.0161 -1.1576
  750MOL0     H98972  -0.740   3.640   5.948 -3.5171  1.3756  2.4251
  750MOL0     H98973  -0.795   3.803   5.938 -1.1349  2.8147 -3.1418
  750MOL0     H98974  -0.820   3.613   5.705  0.6909  2.0755 -1.5990
  750MOL0     H98975  -0.907   3.763   5.727  0.1498 -1.1701 -0.9954
  750MOL0     H98976  -1.007   3.655   5.943  0.0783  0.6806 -0.0308
  750MOL0     H98977  -0.936   3.501   5.895  1.3448  0.0841  0.6682
  750MOL0     H98978  -1.149   3.663   5.726 -2.6156 -2.4312 -2.0463
  750MOL0     H98979  -1.055   3.523   5.671  3.3581  0.1775  1.6744
  750MOL0     H98980  -1.251   3.543   5.897  2.4478  1.8246 -0.4852
  750MOL0     H98981  -1.150   3.398   5.860  2.2134  1.3185  0.4957
  750MOL0     H98982  -0.129   3.741   5.745  0.8906 -0.2242 -1.4506
  750MOL0     H98983   0.111   3.812   5.705  1.1303  2.2047  0.5183
  750MOL0     H98984   0.381   4.157   5.713  1.0509  1.6793 -1.8581
  750MOL0     H98985   0.571   4.250   5.628 -3.2959 -0.2002  0.8805
  750MOL0     H98986   2.663   4.928   5.153 -0.8985  1.1662 -0.4862
  750MOL0     H98987   2.819   5.008   5.310 -2.1162  1.3232 -2.3505
  750MOL0     H98988   2.881   5.033   5.836 -0.1034  0.4975 -0.0063
  750MOL0     H98989   3.074   5.081   5.969 -2.9561 -1.2305  0.2865
  750MOL0     H98990   3.508   4.975   5.817  0.9210  0.2209  1.5364
  750MOL0     H98991   3.423   4.824   5.857 -2.6541  0.5352 -0.6077
  750MOL0     H98992   3.573   4.995   6.057 -1.5433  1.1190 -1.4222
  750MOL0     H98993   3.462   4.885   6.119 -0.8882  0.3107  0.5872
  750MOL0     H98994   3.668   4.807   5.907  1.5443 -0.1550  1.6385
  750MOL0     H98995   3.568   4.693   5.980 -1.0353 -0.0802  0.8390
  750MOL0     H98996   3.761   4.861   6.145  1.7208 -0.9482  3.0046
  750MOL0     H98997   3.659   4.729   6.207  2.5330 -0.5645  0.9023
  750MOL0     H98998   3.985   4.518   6.052  0.2956 -0.3356 -0.4638
  750MOL0     H98999   3.317   4.861   5.680  0.8522 -2.6466  2.6533
  750MOL0     H99000   3.123   4.824   5.554  2.3990 -0.5339  0.3351
  751MOL0     O99001   7.904   1.652  10.514 -0.7521 -0.6179  0.4845
  751MOL0     C99002   7.918   1.590  10.409  0.0291 -0.0874 -0.9279
  751MOL0     O99003   7.830   1.500  10.354  0.5911 -0.3793  0.4161
  751MOL0     C99004   7.709   1.467  10.410  0.3387  0.7777 -0.4708
  751MOL0     C99005   7.663   1.332  10.402  0.6707 -0.1514  0.0090
  751MOL0     C99006   7.555   1.291  10.471 -0.9242 -0.0075 -0.7448
  751MOL0     C99007   7.472   1.394  10.532 -0.0675  0.1949  0.6252
  751MOL0     O99008   7.353   1.348  10.585 -0.3404 -0.2215 -0.3131
  751MOL0     C99009   7.247   1.445  10.614 -0.6456 -0.8116 -0.8350
  751MOL0     C99010   7.136   1.365  10.692  0.3691 -0.0955  0.7231
  751MOL0     C99011   7.015   1.453  10.684 -0.6303 -0.2110  0.0142
  751MOL0     C99012   6.895   1.374  10.733 -1.0024 -0.7235  0.5148
  751MOL0     C99013   6.776   1.447  10.698  0.6856  0.1250  0.2452
  751MOL0     C99014   6.649   1.361  10.707  0.0061  0.2110  0.6632
  751MOL0     C99015   6.523   1.421  10.639 -0.4676 -0.8558 -0.2200
  751MOL0     C99016   6.479   1.546  10.707 -0.0978 -0.4048 -0.6338
  751MOL0     N99017   6.348   1.591  10.657 -0.5104  0.3592 -0.0521
  751MOL0     C99018   6.237   1.612  10.732  0.4267 -0.1313  0.6465
  751MOL0     C99019   6.145   1.633  10.636  0.9178 -0.4175  0.2000
  751MOL0     C99020   6.010   1.690  10.669  0.4867  0.3657  0.6582
  751MOL0     C99021   5.904   1.624  10.577  0.3749 -0.5544  0.2651
  751MOL0     C99022   5.766   1.699  10.581  0.5518  0.5826 -0.8263
  751MOL0     C99023   5.643   1.628  10.495  0.5488 -0.1101 -0.2267
  751MOL0     O99024   5.625   1.502  10.561  0.3313 -0.0657  0.3388
  751MOL0     C99025   5.513   1.441  10.524  0.1844  0.3419 -0.0122
  751MOL0     C99026   5.473   1.325  10.592  0.6627  0.2068  0.1109
  751MOL0     C99027   5.345   1.268  10.571 -0.5151 -0.8120 -0.1259
  751MOL0     C99028   5.265   1.307  10.460 -0.0239  0.3159  0.7195
  751MOL0     C99029   5.130   1.253  10.444 -0.2610 -0.0641  0.2494
  751MOL0     O99030   5.052   1.308  10.358  0.1035  0.3357  0.1806
  751MOL0     C99031   4.916   1.312  10.369 -1.2285  0.7536  0.2109
  751MOL0     C99032   4.842   1.408  10.437 -0.0431 -0.5645  0.4966
  751MOL0     C99033   4.706   1.396  10.458  0.7075 -0.0256 -0.0060
  751MOL0     C99034   4.633   1.282  10.413 -0.5326 -0.1046  0.4559
  751MOL0     O99035   4.499   1.256  10.429 -0.2854  0.4433  0.3831
  751MOL0     C99036   4.467   1.176  10.550  0.8908 -0.0282 -0.1594
  751MOL0     C99037   4.445   1.023  10.519  0.1775 -0.3834  0.3657
  751MOL0     C99038   4.349   0.991  10.406  0.8415  0.1728 -0.1613
  751MOL0     C99039   4.201   1.026  10.440  0.8647  0.3318 -0.2565
  751MOL0     C99040   4.123   0.934  10.537  0.5855  0.0332  0.0623
  751MOL0     C99041   3.968   0.958  10.536 -0.1458  0.4053  0.4376
  751MOL0     C99042   3.897   0.859  10.630  0.4162  0.2855  0.2083
  751MOL0     C99043   3.829   0.917  10.751  0.1583 -0.1890  0.0347
  751MOL0    Cl99044   3.694   1.032  10.704 -0.0004  0.1386  0.0951
  751MOL0     C99045   4.706   1.192  10.338  0.8242  0.1315  0.7633
  751MOL0     C99046   4.849   1.204  10.315  0.2302  0.5628  0.8996
  751MOL0     O99047   5.092   1.160  10.518 -0.2668  0.4291 -0.2994
  751MOL0     C99048   5.305   1.413  10.383 -0.3720  0.5083  0.1930
  751MOL0     C99049   5.433   1.474  10.412  0.2501  0.4719  0.4183
  751MOL0     N99050   6.200   1.628  10.508 -0.2526  1.0788 -0.7896
  751MOL0     N99051   6.323   1.608  10.522 -0.1601 -0.4322 -0.3724
  751MOL0     C99052   7.512   1.532  10.534 -0.2760 -0.6180  0.0780
  751MOL0     C99053   7.634   1.566  10.475  0.6812  0.2253 -0.7771
  751MOL0     C99054   8.041   1.599  10.326 -0.4232 -0.1853 -0.1689
  751MOL0     C99055   8.077   1.498  10.234 -0.3883 -0.6643 -0.3338
  751MOL0     C99056   8.193   1.510  10.157  0.6754  0.0743 -0.1380
  751MOL0     C99057   8.270   1.626  10.164  0.4561  0.4760  0.3835
  751MOL0     O99058   8.360   1.654  10.068  0.7794  0.5347  0.2695
  751MOL0     C99059   8.476   1.576  10.065  0.4118  0.0717  0.1163
  751MOL0     C99060   8.600   1.652  10.052  0.5845 -0.0000  0.8877
  751MOL0     C99061   8.724   1.597   9.976  0.1532 -0.2407  0.3932
  751MOL0     C99062   8.767   1.459  10.022  0.1923 -0.2196 -0.3684
  751MOL0     C99063   8.819   1.465  10.158  0.3376  0.1432 -0.2468
  751MOL0     C99064   8.869   1.447  10.267  1.1306  0.1233  0.1503
  751MOL0     C99065   8.243   1.725  10.256 -0.2818 -0.1100 -1.1134
  751MOL0     C99066   8.130   1.709  10.332  0.8430 -0.3556  0.3758
  751MOL0     H99067   7.712   1.259  10.338 -3.3083 -3.2871  0.1748
  751MOL0     H99068   7.516   1.190  10.483  1.1299 -0.6250  1.7415
  751MOL0     H99069   7.199   1.485  10.524 -4.3339  0.2980  1.3843
  751MOL0     H99070   7.283   1.531  10.672  1.6492 -0.9756 -1.8964
  751MOL0     H99071   7.170   1.359  10.796  0.7951 -3.7318  0.4942
  751MOL0     H99072   7.117   1.265  10.653 -0.5086 -1.1086  3.5091
  751MOL0     H99073   7.004   1.486  10.580  3.2650 -2.2567 -1.2353
  751MOL0     H99074   7.021   1.538  10.753 -0.3123 -0.0831 -0.1724
  751MOL0     H99075   6.897   1.285  10.670  1.4290  0.2688 -0.9181
  751MOL0     H99076   6.895   1.357  10.841 -0.9448 -0.9028  0.4871
  751MOL0     H99077   6.780   1.489  10.597  0.4922  0.5848  0.4225
  751MOL0     H99078   6.773   1.535  10.763  1.7677 -1.3646  2.4579
  751MOL0     H99079   6.615   1.339  10.809 -0.3400  2.2255  1.0298
  751MOL0     H99080   6.682   1.275  10.649 -0.1310 -0.2669  1.2785
  751MOL0     H99081   6.547   1.442  10.534  2.6976 -2.9003 -0.0164
  751MOL0     H99082   6.444   1.346  10.629 -1.6406  0.1641  0.9853
  751MOL0     H99083   6.546   1.630  10.688 -0.6642  0.0613 -0.6100
  751MOL0     H99084   6.474   1.546  10.817  0.8172  2.3324 -0.5109
  751MOL0     H99085   6.222   1.635  10.837  1.0817  2.0986  0.2927
  751MOL0     H99086   6.013   1.797  10.646  1.4449  0.1217 -0.4272
  751MOL0     H99087   5.994   1.668  10.775  3.7941  2.2958  1.7316
  751MOL0     H99088   5.892   1.520  10.609  1.4908 -1.4786 -2.1247
  751MOL0     H99089   5.942   1.621  10.475 -1.5342  1.9103 -0.6424
  751MOL0     H99090   5.736   1.706  10.686  2.1028  0.1115 -0.3186
  751MOL0     H99091   5.780   1.801  10.544 -0.4959  0.7569 -0.7729
  751MOL0     H99092   5.661   1.611  10.389  0.2668  0.6209 -0.4008
  751MOL0     H99093   5.557   1.694  10.511 -0.2276 -1.4343  1.3157
  751MOL0     H99094   5.529   1.294  10.679  0.2951 -0.9155 -0.0435
  751MOL0     H99095   5.318   1.190  10.642 -0.7643  1.4221  2.3709
  751MOL0     H99096   4.900   1.493  10.472  1.3084 -2.0225  1.9633
  751MOL0     H99097   4.646   1.474  10.504 -1.7472 -0.8017 -1.6932
  751MOL0     H99098   4.375   1.210  10.598  0.9592  0.6636 -0.5083
  751MOL0     H99099   4.537   1.184  10.634 -0.3723  1.4209  0.8203
  751MOL0     H99100   4.400   0.985  10.612 -0.4731  0.7933  0.5476
  751MOL0     H99101   4.541   0.973  10.505 -1.5507 -3.3747 -1.9032
  751MOL0     H99102   4.340   0.883  10.395  1.1236  0.2102 -0.8310
  751MOL0     H99103   4.373   1.046  10.314  4.3438 -0.4967  0.2471
  751MOL0     H99104   4.204   1.131  10.469  0.6736 -0.2945  2.2504
  751MOL0     H99105   4.150   1.025  10.343  0.0089  3.1780  0.0935
  751MOL0     H99106   4.158   0.962  10.637 -2.9868  3.1707  0.6519
  751MOL0     H99107   4.155   0.829  10.530 -0.9705 -0.4998  0.5728
  751MOL0     H99108   3.940   0.946  10.431 -0.1035 -1.3632  0.6036
  751MOL0     H99109   3.954   1.063  10.565  0.6830  0.6074  0.1374
  751MOL0     H99110   3.818   0.802  10.580  1.6756  1.0219 -2.8506
  751MOL0     H99111   3.964   0.784  10.675 -1.9436 -1.0177  1.7150
  751MOL0     H99112   3.893   0.971  10.821 -1.3655 -0.0635  1.3926
  751MOL0     H99113   3.790   0.841  10.820  1.7695  0.6382  1.9740
  751MOL0     H99114   4.654   1.106  10.296  1.7654 -0.4026  0.6749
  751MOL0     H99115   4.902   1.125  10.263 -2.1652 -0.3488 -0.2566
  751MOL0     H99116   5.248   1.448  10.298  0.6400 -2.2847 -1.7750
  751MOL0     H99117   5.454   1.549  10.337 -2.2332  0.5035 -0.3164
  751MOL0     H99118   7.446   1.607  10.577 -0.4536 -1.3601  1.1325
  751MOL0     H99119   7.662   1.671  10.463  1.2612 -0.0777 -2.2092
  751MOL0     H99120   8.021   1.405  10.242 -1.1607 -0.1237  0.6870
  751MOL0     H99121   8.209   1.441  10.075  0.2053  1.3639 -1.3638
  751MOL0     H99122   8.466   1.509   9.979  0.4453  0.0122  0.1589
  751MOL0     H99123   8.487   1.509  10.151  3.1947  2.1832  1.5792
  751MOL0     H99124   8.580   1.734   9.983  0.1729 -1.9517 -1.4584
  751MOL0     H99125   8.631   1.693  10.149 -0.1123  2.7872  0.0223
  751MOL0     H99126   8.799   1.677   9.967 -1.6684  1.3081 -3.0082
  751MOL0     H99127   8.699   1.587   9.870 -0.8626 -0.4551  0.6466
  751MOL0     H99128   8.679   1.395  10.013  0.3390 -0.2305 -2.1240
  751MOL0     H99129   8.855   1.429   9.963 -0.7782  0.0605 -2.0388
  751MOL0     H99130   8.900   1.428  10.368  1.7521  1.8028  0.3094
  751MOL0     H99131   8.294   1.816  10.286 -2.3843  0.8657 -0.3155
  751MOL0     H99132   8.121   1.785  10.410  2.1317  2.1263 -1.7349
  752MOL0     O99133   2.448   4.786   6.589 -0.2103  0.5299 -0.6928
  752MOL0     C99134   2.477   4.710   6.684 -1.0254 -0.7398 -0.5336
  752MOL0     O99135   2.459   4.727   6.817  0.4734  0.2748  0.0687
  752MOL0     C99136   2.375   4.836   6.846 -0.2355  0.6920 -0.0441
  752MOL0     C99137   2.417   4.970   6.846 -0.6263 -1.0264 -0.7317
  752MOL0     C99138   2.335   5.080   6.882  0.0130  0.3798 -0.0555
  752MOL0     C99139   2.201   5.051   6.925 -0.5488 -0.5752 -0.5703
  752MOL0     O99140   2.117   5.146   6.962  0.3327  0.2352 -0.1179
  752MOL0     C99141   2.167   5.216   7.077 -0.0247  0.7943 -0.2059
  752MOL0     C99142   2.048   5.260   7.160  0.8119 -0.7284  0.8184
  752MOL0     C99143   1.963   5.155   7.223 -0.4086  0.1625 -0.7515
  752MOL0     C99144   1.851   5.210   7.310  0.2572  0.3817 -0.4452
  752MOL0     C99145   1.767   5.089   7.363 -0.0632 -1.6861  0.3081
  752MOL0     C99146   1.644   5.150   7.432  0.3697  0.3448 -0.3422
  752MOL0     C99147   1.673   5.238   7.562  0.1272 -0.3925  0.2704
  752MOL0     C99148   1.761   5.158   7.662 -0.5582 -0.4050  0.0165
  752MOL0     N99149   1.687   5.037   7.714 -0.3324  0.1001  1.0940
  752MOL0     C99150   1.584   5.043   7.808 -0.6317  0.4955  0.2224
  752MOL0     C99151   1.532   4.921   7.807 -0.2506  0.4823 -0.0301
  752MOL0     C99152   1.414   4.878   7.885  0.3055  0.5399  0.3389
  752MOL0     C99153   1.317   4.796   7.790 -0.2420  0.3030 -0.2890
  752MOL0     C99154   1.183   4.773   7.853 -0.1588  0.0889  0.2241
  752MOL0     C99155   1.096   4.678   7.764 -0.0041  0.0505 -0.1639
  752MOL0     O99156   0.958   4.710   7.792  0.3461 -0.3689  0.3379
  752MOL0     C99157   0.859   4.628   7.733 -0.2976 -0.3081 -1.2342
  752MOL0     C99158   0.877   4.558   7.604  0.5212  0.1045 -0.6379
  752MOL0     C99159   0.775   4.487   7.542 -0.2919  0.8310 -0.2006
  752MOL0     C99160   0.654   4.473   7.609  0.7757  0.7953  0.4305
  752MOL0     C99161   0.545   4.404   7.543  0.3489  0.0241  0.1409
  752MOL0     O99162   0.426   4.416   7.600 -0.8092  0.5328 -0.1233
  752MOL0     C99163   0.318   4.355   7.544 -0.1353  0.6240  0.1301
  752MOL0     C99164   0.318   4.223   7.490  0.0014  0.3419 -0.1829
  752MOL0     C99165   0.208   4.173   7.429 -0.3181  0.2753  0.0073
  752MOL0     C99166   0.085   4.243   7.423 -0.5898  0.3121  0.4799
  752MOL0     O99167  -0.015   4.172   7.374 -0.1830 -0.6451  0.4579
  752MOL0     C99168  -0.143   4.184   7.432 -0.3093  0.7804 -0.2502
  752MOL0     C99169  -0.235   4.075   7.373 -0.4438 -0.5549 -0.0921
  752MOL0     C99170  -0.380   4.070   7.425  0.8307  0.6052  0.0811
  752MOL0     C99171  -0.374   4.013   7.569 -0.4653 -0.6659  0.0001
  752MOL0     C99172  -0.514   3.971   7.615  0.6308 -0.4536 -0.0910
  752MOL0     C99173  -0.591   4.103   7.632 -0.2318 -0.5909 -0.8423
  752MOL0     C99174  -0.727   4.063   7.686  0.2705  0.9295  0.0480
  752MOL0     C99175  -0.809   4.177   7.742 -0.2446 -0.3246 -0.0402
  752MOL0    Cl99176  -0.728   4.240   7.897  0.2297 -0.2379  0.1815
  752MOL0     C99177   0.082   4.368   7.487  0.2804 -0.0618 -0.4609
  752MOL0     C99178   0.198   4.430   7.545  0.4086 -0.6037  0.0960
  752MOL0     O99179   0.566   4.330   7.445 -1.1801  0.0035  0.5793
  752MOL0     C99180   0.642   4.522   7.741  0.3011  0.7660 -0.0817
  752MOL0     C99181   0.743   4.599   7.800  1.3222 -0.0416  0.3804
  752MOL0     N99182   1.601   4.840   7.725  1.1662  0.7959  0.0279
  752MOL0     N99183   1.697   4.907   7.673  0.0844 -0.5397  0.5131
  752MOL0     C99184   2.167   4.915   6.940  0.7374 -1.6690  0.2185
  752MOL0     C99185   2.249   4.810   6.901  0.1934 -0.8153  0.2961
  752MOL0     C99186   2.547   4.582   6.658 -0.0192  0.4103  0.1800
  752MOL0     C99187   2.558   4.482   6.749 -0.0014 -0.2970  0.4606
  752MOL0     C99188   2.625   4.363   6.719 -0.5743 -0.0872  0.4580
  752MOL0     C99189   2.675   4.332   6.592 -0.0412  0.5700  0.3333
  752MOL0     O99190   2.740   4.212   6.569  0.0080  0.6640  0.1400
  752MOL0     C99191   2.726   4.156   6.439  0.0821  0.0207 -0.1715
  752MOL0     C99192   2.591   4.084   6.425  0.1758 -0.5739  0.3679
  752MOL0     C99193   2.532   4.006   6.549  0.3154  0.3213 -0.2152
  752MOL0     C99194   2.604   3.877   6.583 -0.3482  0.7026  0.4307
  752MOL0     C99195   2.616   3.773   6.479 -0.6763  0.4931 -0.5754
  752MOL0     C99196   2.632   3.681   6.398 -0.4580  0.1395  0.1296
  752MOL0     C99197   2.651   4.428   6.496 -0.5103 -0.2423  0.5414
  752MOL0     C99198   2.598   4.553   6.531 -0.4432 -0.6573 -0.2631
  752MOL0     H99199   2.521   4.983   6.815 -0.3702 -0.0766  0.4392
  752MOL0     H99200   2.367   5.183   6.870 -0.5598  0.9695  2.7146
  752MOL0     H99201   2.225   5.304   7.048 -1.4530  1.9912  0.4318
  752MOL0     H99202   2.227   5.156   7.145  1.0571  0.7958 -1.1335
  752MOL0     H99203   1.986   5.320   7.093 -0.7046 -3.6713 -0.6249
  752MOL0     H99204   2.092   5.327   7.234 -2.2847  0.2913  1.8721
  752MOL0     H99205   2.023   5.100   7.297  0.5935  0.9902 -0.9163
  752MOL0     H99206   1.929   5.084   7.148  1.0158 -2.9747  1.3527
  752MOL0     H99207   1.898   5.259   7.396 -2.0861  0.3426  0.9381
  752MOL0     H99208   1.791   5.281   7.253  0.8240  2.5299  1.4686
  752MOL0     H99209   1.817   5.026   7.437 -1.8512 -2.5676  0.8009
  752MOL0     H99210   1.744   5.029   7.275 -1.0792  0.3699 -0.9000
  752MOL0     H99211   1.580   5.064   7.455 -0.5538  0.2540 -2.8808
  752MOL0     H99212   1.601   5.209   7.350  0.5205  1.9601  0.7071
  752MOL0     H99213   1.725   5.328   7.529 -0.1578 -0.5637 -0.6871
  752MOL0     H99214   1.575   5.269   7.600 -1.3165 -1.0487 -2.6368
  752MOL0     H99215   1.795   5.206   7.753 -4.2498 -1.9639  2.4310
  752MOL0     H99216   1.855   5.127   7.614 -0.2814  2.7356 -1.7408
  752MOL0     H99217   1.551   5.128   7.867 -1.3348  0.7756 -0.5527
  752MOL0     H99218   1.365   4.968   7.924  1.3084  1.4160 -0.3743
  752MOL0     H99219   1.443   4.808   7.964  2.3031  1.4975  0.5116
  752MOL0     H99220   1.361   4.699   7.769 -3.1430 -1.2564  0.3230
  752MOL0     H99221   1.300   4.842   7.692 -1.7393 -3.0442 -1.7414
  752MOL0     H99222   1.198   4.726   7.950 -3.7003  0.5532  1.1337
  752MOL0     H99223   1.134   4.871   7.860  1.7827  1.0265  1.8545
  752MOL0     H99224   1.110   4.573   7.792 -3.0843 -0.8900 -1.5766
  752MOL0     H99225   1.120   4.697   7.659 -2.9546  0.8382 -0.7881
  752MOL0     H99226   0.976   4.565   7.559  1.3415 -0.2489  1.0221
  752MOL0     H99227   0.798   4.433   7.451  0.1648 -1.7076  1.3399
  752MOL0     H99228   0.405   4.164   7.515  0.7614  1.6914  0.5320
  752MOL0     H99229   0.213   4.077   7.379 -1.6846  0.3726 -0.3600
  752MOL0     H99230  -0.185   4.283   7.411 -0.2548  1.8167  3.7520
  752MOL0     H99231  -0.147   4.174   7.541 -0.5857  0.7410 -0.2613
  752MOL0     H99232  -0.195   3.975   7.391  0.2249 -0.1733  0.6039
  752MOL0     H99233  -0.237   4.095   7.266  0.4259  2.3850  0.3581
  752MOL0     H99234  -0.435   4.010   7.352  0.6984  1.2518 -0.3691
  752MOL0     H99235  -0.426   4.170   7.421  0.2320  0.3069 -1.0324
  752MOL0     H99236  -0.316   3.920   7.565 -0.1893 -0.5326  0.7444
  752MOL0     H99237  -0.326   4.080   7.641 -1.4858  2.4025 -1.9805
  752MOL0     H99238  -0.506   3.911   7.705 -1.3574 -1.0242 -0.2415
  752MOL0     H99239  -0.563   3.908   7.540  0.8992  1.4249 -1.9693
  752MOL0     H99240  -0.609   4.162   7.541 -0.0350 -0.4951 -0.8204
  752MOL0     H99241  -0.527   4.164   7.696 -0.4756  0.0847 -1.2298
  752MOL0     H99242  -0.777   4.017   7.601  3.0570  1.0035 -1.7637
  752MOL0     H99243  -0.721   3.990   7.767 -1.1764 -1.0771 -1.5752
  752MOL0     H99244  -0.911   4.149   7.772 -0.8250  2.0950  0.4557
  752MOL0     H99245  -0.811   4.256   7.667  2.8974  0.7195  0.8051
  752MOL0     H99246  -0.011   4.422   7.505 -1.3466 -2.5088 -1.0244
  752MOL0     H99247   0.200   4.528   7.592  1.1762 -0.1010 -0.9405
  752MOL0     H99248   0.543   4.526   7.785 -1.5138 -3.5757 -3.0835
  752MOL0     H99249   0.740   4.648   7.897  0.5731  0.7272 -0.0192
  752MOL0     H99250   2.063   4.890   6.960  0.9650 -2.9753 -0.1019
  752MOL0     H99251   2.199   4.714   6.902 -1.4866 -0.0992  4.2412
  752MOL0     H99252   2.534   4.490   6.854  0.5002 -1.4818  0.6835
  752MOL0     H99253   2.631   4.291   6.799 -0.5465  2.0805  2.5022
  752MOL0     H99254   2.810   4.087   6.428 -0.3715 -0.8405  1.5379
  752MOL0     H99255   2.729   4.219   6.350  0.3007 -0.4383 -0.4962
  752MOL0     H99256   2.515   4.159   6.402  0.2303 -0.0502  1.7926
  752MOL0     H99257   2.606   4.016   6.341 -2.2182 -0.4917 -0.1998
  752MOL0     H99258   2.430   3.980   6.521 -0.5193  1.1159  1.9337
  752MOL0     H99259   2.529   4.063   6.642 -0.2518 -0.6570  0.3877
  752MOL0     H99260   2.708   3.905   6.602 -0.5472  1.4922  0.4104
  752MOL0     H99261   2.555   3.825   6.666  1.1151 -0.1594  0.7950
  752MOL0     H99262   2.643   3.593   6.338  0.7906  0.0658  0.4405
  752MOL0     H99263   2.683   4.419   6.392  0.2860 -0.8888  0.8373
  752MOL0     H99264   2.619   4.637   6.465 -0.3931 -0.2152  0.3045
  753MOL0     O99265  11.142   0.705   0.362  0.4934 -0.0649  0.4342
  753MOL0     C99266  11.167   0.582   0.360  1.0874 -0.8364  0.0172
  753MOL0     O99267  11.073   0.491   0.315  0.7766  0.4178 -0.2748
  753MOL0     C99268  10.965   0.541   0.245  1.3291  0.6320  0.6402
  753MOL0     C99269  10.862   0.630   0.287 -0.2593 -0.2436 -0.5631
  753MOL0     C99270  10.750   0.653   0.214  0.0469  0.1478  0.3547
  753MOL0     C99271  10.735   0.593   0.083 -0.3252 -0.2426  0.0075
  753MOL0     O99272  10.621   0.605   0.005  0.1777  0.1768  0.6621
  753MOL0     C99273  10.508   0.675   0.059  1.1568 -0.0060 -0.4182
  753MOL0     C99274  10.405   0.638  -0.051  0.8357  0.0159  0.4008
  753MOL0     C99275  10.266   0.680  -0.012  0.2364  0.7508  0.4245
  753MOL0     C99276  10.195   0.714  -0.140 -0.5623 -0.8467  0.0622
  753MOL0     C99277  10.066   0.786  -0.104  0.4049  0.9184  0.1146
  753MOL0     C99278   9.974   0.812  -0.222  0.4034  0.0211  0.6658
  753MOL0     C99279   9.853   0.890  -0.164  0.6807  0.1403  0.1326
  753MOL0     C99280   9.777   0.958  -0.279 -0.8892  0.7596 -0.4062
  753MOL0     N99281   9.667   1.035  -0.227  0.0503 -1.1326 -0.5293
  753MOL0     C99282   9.535   0.996  -0.234  0.1424  0.5208  0.4582
  753MOL0     C99283   9.466   1.099  -0.192  0.6991  0.8032 -0.3337
  753MOL0     C99284   9.317   1.107  -0.185  0.0865 -0.2289  0.1248
  753MOL0     C99285   9.254   1.071  -0.324  0.1588 -0.0655 -0.7145
  753MOL0     C99286   9.107   1.040  -0.315 -0.1354  0.0018  0.1417
  753MOL0     C99287   9.027   1.124  -0.234  0.1651 -0.3970  0.0287
  753MOL0     O99288   9.000   1.246  -0.311 -0.7905  0.8224  0.0887
  753MOL0     C99289   8.914   1.329  -0.249  0.4909  0.2403 -0.3984
  753MOL0     C99290   8.943   1.408  -0.129  1.3049  0.8860  0.0230
  753MOL0     C99291   8.853   1.502  -0.086  0.5397 -0.7783  0.3640
  753MOL0     C99292   8.727   1.521  -0.154 -0.3994  0.4763  0.0713
  753MOL0     C99293   8.630   1.616  -0.104 -0.4260 -0.5563 -0.2294
  753MOL0     O99294   8.679   1.715  -0.029 -0.1081  0.3793  0.0315
  753MOL0     C99295   8.581   1.799   0.013  0.2484  0.0705  0.7353
  753MOL0     C99296   8.539   1.900  -0.076 -0.1359 -0.6884 -0.2517
  753MOL0     C99297   8.429   1.980  -0.029 -0.3322 -0.1801 -0.0290
  753MOL0     C99298   8.364   1.958   0.091  0.3997  0.5264 -0.2555
  753MOL0     O99299   8.258   2.021   0.145 -0.4660  0.1958 -0.0319
  753MOL0     C99300   8.177   2.107   0.059 -0.2472 -0.1890 -0.3493
  753MOL0     C99301   8.084   2.200   0.140 -0.1103  0.3715 -0.3308
  753MOL0     C99302   7.988   2.126   0.226 -1.1580 -0.0319  0.4334
  753MOL0     C99303   7.894   2.215   0.308 -0.3783 -0.1849  0.7767
  753MOL0     C99304   7.776   2.127   0.350 -0.2070 -0.7420 -0.4787
  753MOL0     C99305   7.690   2.193   0.465  0.6703 -0.5577  0.2418
  753MOL0     C99306   7.648   2.334   0.427  0.6489  0.2224 -0.1800
  753MOL0     C99307   7.585   2.343   0.292  0.3184 -0.6290  0.1077
  753MOL0    Cl99308   7.425   2.246   0.293  0.3223 -0.0947  0.2885
  753MOL0     C99309   8.416   1.860   0.176 -0.4817  0.2383  0.8193
  753MOL0     C99310   8.524   1.785   0.139 -0.6719 -0.7452 -0.2075
  753MOL0     O99311   8.508   1.605  -0.141 -0.0435  0.2345  0.5244
  753MOL0     C99312   8.699   1.439  -0.265  0.3172 -0.0280 -0.4636
  753MOL0     C99313   8.788   1.341  -0.309  0.8383 -0.0639  0.4680
  753MOL0     N99314   9.554   1.198  -0.147  0.6952 -0.0377  0.6178
  753MOL0     N99315   9.674   1.156  -0.172 -0.9397 -0.7148 -0.2972
  753MOL0     C99316  10.829   0.498   0.043  0.9462 -1.0277  0.2694
  753MOL0     C99317  10.933   0.466   0.130 -0.1663 -0.0756 -0.6471
  753MOL0     C99318  11.302   0.533   0.414  0.8261  0.4716 -0.4204
  753MOL0     C99319  11.330   0.401   0.427 -0.5903  0.6312 -0.3642
  753MOL0     C99320  11.454   0.356   0.483  0.2348 -0.0723  0.0560
  753MOL0     C99321  11.558   0.451   0.495 -0.1771  0.3377 -0.2301
  753MOL0     O99322  11.676   0.397   0.536  0.0801  0.6552  0.4591
  753MOL0     C99323  11.749   0.481   0.622 -1.3244 -1.0019  0.0451
  753MOL0     C99324  11.858   0.561   0.540  0.7363 -0.7399 -0.1566
  753MOL0     C99325  11.867   0.717   0.579  0.2988  0.8771  0.4120
  753MOL0     C99326  11.889   0.741   0.733 -0.1045 -0.4259  1.0631
  753MOL0     C99327  11.998   0.670   0.789 -0.2460 -0.3221 -0.4836
  753MOL0     C99328  12.106   0.617   0.820  0.8676  0.7387  0.4155
  753MOL0     C99329  11.533   0.586   0.463 -0.0291  0.5062  0.5272
  753MOL0     C99330  11.402   0.634   0.428 -0.1784  0.6546  0.3542
  753MOL0     H99331  10.883   0.679   0.382  2.0969 -3.7049  0.9230
  753MOL0     H99332  10.675   0.723   0.250  1.2185  2.1013 -0.8126
  753MOL0     H99333  10.518   0.783   0.058 -3.3355  0.6235 -0.6153
  753MOL0     H99334  10.480   0.639   0.159 -1.0204 -1.3038 -1.4050
  753MOL0     H99335  10.414   0.539  -0.096  1.1027  0.6425 -0.9577
  753MOL0     H99336  10.438   0.706  -0.130 -1.6747  3.4448  2.0345
  753MOL0     H99337  10.263   0.767   0.054 -2.1113  1.3435 -0.3764
  753MOL0     H99338  10.223   0.593   0.038 -3.0805  1.7864 -0.3979
  753MOL0     H99339  10.261   0.786  -0.189  0.3064  0.6762  3.2131
  753MOL0     H99340  10.177   0.620  -0.194  1.2332 -1.2753  0.1328
  753MOL0     H99341  10.106   0.877  -0.058 -0.5123  0.8095  1.1649
  753MOL0     H99342  10.016   0.719  -0.033 -0.9440  0.4916 -1.2050
  753MOL0     H99343   9.935   0.720  -0.265 -1.3881  1.8857 -1.9809
  753MOL0     H99344  10.029   0.859  -0.305 -0.6159 -2.6245 -1.6344
  753MOL0     H99345   9.790   0.819  -0.109  1.9526 -1.5995 -0.5664
  753MOL0     H99346   9.886   0.972  -0.099  1.2367 -0.1131  0.1774
  753MOL0     H99347   9.736   0.882  -0.346 -1.4677 -1.4808  2.2762
  753MOL0     H99348   9.846   1.021  -0.335  0.9467  0.8178  1.7848
  753MOL0     H99349   9.501   0.901  -0.276  0.3733  0.3846  0.5718
  753MOL0     H99350   9.287   1.207  -0.150 -0.9513 -0.6598  0.4933
  753MOL0     H99351   9.282   1.046  -0.102 -2.4514  1.0656  0.1404
  753MOL0     H99352   9.302   0.986  -0.374  1.1411  2.0431 -3.6613
  753MOL0     H99353   9.270   1.156  -0.392 -1.8403 -0.0045 -1.1602
  753MOL0     H99354   9.080   1.049  -0.421  1.5526  0.0146 -0.3113
  753MOL0     H99355   9.089   0.935  -0.292 -2.1304 -0.3510 -2.5095
  753MOL0     H99356   9.060   1.153  -0.134 -2.6434  1.3347  0.5837
  753MOL0     H99357   8.935   1.067  -0.215  1.5085 -1.9492  2.4184
  753MOL0     H99358   9.044   1.405  -0.088  2.6992 -0.8716 -3.1005
  753MOL0     H99359   8.886   1.544   0.008  0.7709  1.1826 -0.5441
  753MOL0     H99360   8.580   1.911  -0.176  1.6052 -2.8666  0.1598
  753MOL0     H99361   8.380   2.043  -0.102  0.5684 -1.0567 -1.4488
  753MOL0     H99362   8.118   2.055  -0.017  1.0120  1.1388 -2.3222
  753MOL0     H99363   8.248   2.178   0.017  0.6602 -0.9880 -0.2045
  753MOL0     H99364   8.031   2.257   0.062  1.2865  1.9093 -0.1962
  753MOL0     H99365   8.149   2.269   0.194  1.0320 -3.0155  3.0464
  753MOL0     H99366   8.053   2.073   0.296  1.6255  1.6783 -0.7249
  753MOL0     H99367   7.945   2.060   0.150  1.9351  1.3641 -2.8132
  753MOL0     H99368   7.947   2.255   0.394  2.5719 -1.1865 -0.4618
  753MOL0     H99369   7.863   2.300   0.247 -0.5850 -2.5861 -2.8411
  753MOL0     H99370   7.818   2.036   0.394 -2.3019 -1.1408  0.8439
  753MOL0     H99371   7.723   2.093   0.260 -1.5794 -4.1965  1.4509
  753MOL0     H99372   7.753   2.197   0.554 -1.7135 -2.3454  2.1826
  753MOL0     H99373   7.607   2.123   0.482 -0.6091  0.7783 -0.2514
  753MOL0     H99374   7.568   2.355   0.499  1.2888  0.0753  0.5881
  753MOL0     H99375   7.734   2.400   0.445  0.9059 -0.2435  0.3321
  753MOL0     H99376   7.653   2.317   0.211  0.1318 -0.1857 -0.1953
  753MOL0     H99377   7.558   2.447   0.270 -2.1181 -0.5677  2.7340
  753MOL0     H99378   8.378   1.841   0.276  1.2024  1.4291  1.7307
  753MOL0     H99379   8.568   1.709   0.202 -0.3339  0.0208  0.5024
  753MOL0     H99380   8.597   1.453  -0.298 -1.2447  3.3797  4.6365
  753MOL0     H99381   8.770   1.294  -0.405 -0.8275 -0.2460  0.8359
  753MOL0     H99382  10.803   0.454  -0.053 -2.7522  2.9722 -0.8768
  753MOL0     H99383  11.013   0.399   0.099 -1.5890 -2.2328  0.0988
  753MOL0     H99384  11.265   0.316   0.409  2.2565 -1.2445 -2.6961
  753MOL0     H99385  11.466   0.250   0.501 -0.5532 -1.1273 -4.3929
  753MOL0     H99386  11.803   0.417   0.692  0.0153 -2.6301 -2.2948
  753MOL0     H99387  11.687   0.559   0.667  0.0863  0.8412 -1.0685
  753MOL0     H99388  11.960   0.525   0.555  0.0895 -1.9446  1.8114
  753MOL0     H99389  11.829   0.558   0.435 -2.7320 -3.2592  0.6777
  753MOL0     H99390  11.768   0.752   0.549 -0.7688 -1.3168  1.1681
  753MOL0     H99391  11.950   0.760   0.523  0.3172 -0.9422 -1.0207
  753MOL0     H99392  11.901   0.848   0.754 -0.7555 -0.3212  0.9250
  753MOL0     H99393  11.793   0.711   0.776 -0.7304  0.4110  0.3097
  753MOL0     H99394  12.197   0.569   0.850  0.0257 -1.5184 -0.4331
  753MOL0     H99395  11.614   0.657   0.455  0.8395 -0.6848 -2.7074
  753MOL0     H99396  11.378   0.734   0.393  1.4881  0.4154 -1.6809
  754MOL0     O99397   9.846   7.058   9.297  0.2966  0.0077 -0.0813
  754MOL0     C99398   9.805   6.990   9.203 -0.7907  0.9741 -0.2542
  754MOL0     O99399   9.876   6.891   9.129  0.0744 -0.0815 -0.3549
  754MOL0     C99400  10.011   6.887   9.153  0.6198  0.8830  0.1233
  754MOL0     C99401  10.089   6.995   9.119  0.3516 -0.1787 -0.3682
  754MOL0     C99402  10.225   6.999   9.156  0.0747 -0.5447 -0.7103
  754MOL0     C99403  10.291   6.889   9.219 -0.4788 -0.4051 -1.3536
  754MOL0     O99404  10.426   6.906   9.256 -0.1346 -0.5777 -0.1751
  754MOL0     C99405  10.512   6.795   9.284 -0.0945  0.0243  0.0892
  754MOL0     C99406  10.505   6.718   9.414  0.4497  0.0384 -0.3297
  754MOL0     C99407  10.563   6.799   9.533  0.2387 -0.0378 -0.4924
  754MOL0     C99408  10.471   6.914   9.587 -0.2553  1.1043 -0.2580
  754MOL0     C99409  10.518   6.944   9.730  0.3917 -0.1158 -0.2088
  754MOL0     C99410  10.676   6.957   9.745 -0.4780  0.4121  0.8926
  754MOL0     C99411  10.729   6.993   9.882  0.2235 -0.3051 -0.1835
  754MOL0     C99412  10.782   7.135   9.910  0.0628  0.5708  0.4105
  754MOL0     N99413  10.688   7.228   9.851 -0.3920 -0.4273  0.3806
  754MOL0     C99414  10.560   7.264   9.893 -0.2463 -0.1458 -0.3799
  754MOL0     C99415  10.522   7.371   9.814 -0.1009 -0.2467 -0.3960
  754MOL0     C99416  10.397   7.446   9.825  0.5146  0.2686 -0.1055
  754MOL0     C99417  10.281   7.363   9.756 -0.6308 -0.5215 -0.4839
  754MOL0     C99418  10.320   7.340   9.606 -1.0429 -0.2961 -0.8185
  754MOL0     C99419  10.192   7.331   9.514  0.8736  1.0810 -0.3251
  754MOL0     O99420  10.124   7.459   9.519 -0.8479  0.0901 -0.5865
  754MOL0     C99421   9.995   7.474   9.466 -0.2566 -0.4283 -0.0268
  754MOL0     C99422   9.937   7.390   9.372  0.4366  0.6142  0.5355
  754MOL0     C99423   9.809   7.415   9.325 -0.4604  0.6437 -0.0807
  754MOL0     C99424   9.743   7.541   9.359 -0.1395  0.4377  0.0396
  754MOL0     C99425   9.615   7.576   9.293 -0.2468  0.0919 -0.0273
  754MOL0     O99426   9.557   7.690   9.338 -0.3637  0.4295 -0.0059
  754MOL0     C99427   9.432   7.731   9.301  0.6366  0.2979 -0.1100
  754MOL0     C99428   9.340   7.777   9.395  0.7720 -0.2721 -0.7801
  754MOL0     C99429   9.216   7.829   9.372 -0.6136 -0.2208 -0.3705
  754MOL0     C99430   9.165   7.808   9.246 -0.1875  0.1414 -0.5342
  754MOL0     O99431   9.040   7.848   9.203 -0.1909  0.3967 -1.0134
  754MOL0     C99432   8.947   7.915   9.287 -0.5516 -0.3139  0.3215
  754MOL0     C99433   8.802   7.892   9.224 -0.6901  0.3223 -0.1088
  754MOL0     C99434   8.781   7.993   9.112 -0.3825 -0.4010  0.3029
  754MOL0     C99435   8.646   7.971   9.046 -0.0087  0.0370  0.4001
  754MOL0     C99436   8.532   8.013   9.146 -0.2932 -0.2243  0.5797
  754MOL0     C99437   8.388   8.021   9.087  1.0780  0.1776  0.6815
  754MOL0     C99438   8.288   8.064   9.198 -0.1711  0.0667 -1.2208
  754MOL0     C99439   8.144   8.045   9.153  0.2490  0.3259  0.1650
  754MOL0    Cl99440   8.096   8.158   9.025 -0.0502  0.4387 -0.6245
  754MOL0     C99441   9.256   7.760   9.151  0.7957  0.4586  0.1882
  754MOL0     C99442   9.387   7.735   9.176  0.6314  0.2156 -0.3940
  754MOL0     O99443   9.567   7.498   9.215  0.1427 -0.2001  0.7700
  754MOL0     C99444   9.813   7.630   9.448  0.5960 -0.5611  0.0511
  754MOL0     C99445   9.929   7.588   9.503  0.1352  0.2910  1.2385
  754MOL0     N99446  10.621   7.396   9.720 -0.6652  0.6041  0.2758
  754MOL0     N99447  10.719   7.313   9.746  0.1571  0.3187  0.7359
  754MOL0     C99448  10.211   6.781   9.232 -0.5584 -0.5460  0.0361
  754MOL0     C99449  10.072   6.776   9.212 -0.4527  0.3920  0.2446
  754MOL0     C99450   9.669   7.020   9.149 -0.3521 -0.4050 -0.6288
  754MOL0     C99451   9.592   7.121   9.215 -0.1729 -0.0428 -0.3763
  754MOL0     C99452   9.466   7.153   9.181 -0.0078  0.3778 -1.1696
  754MOL0     C99453   9.409   7.092   9.068  0.1646 -0.3262 -0.6645
  754MOL0     O99454   9.284   7.121   9.021  0.8085 -0.0503  0.0382
  754MOL0     C99455   9.215   7.234   9.081 -0.3948 -0.2282  0.3232
  754MOL0     C99456   9.083   7.251   9.022  0.4050  0.8203  0.5635
  754MOL0     C99457   9.100   7.269   8.874 -0.1215 -0.2830  0.1419
  754MOL0     C99458   8.981   7.273   8.777  0.1398 -0.2975 -0.8624
  754MOL0     C99459   8.866   7.205   8.831 -0.1149  0.2152  0.0066
  754MOL0     C99460   8.774   7.144   8.879 -0.9632 -0.1875  0.0918
  754MOL0     C99461   9.486   7.002   8.992  0.2656 -0.0725  0.2843
  754MOL0     C99462   9.606   6.958   9.042 -0.1877  0.0521 -0.4305
  754MOL0     H99463  10.037   7.078   9.072  1.7582  0.1730 -1.3550
  754MOL0     H99464  10.285   7.085   9.129 -0.8590  0.1884 -0.5255
  754MOL0     H99465  10.613   6.834   9.269  0.7197 -2.0605 -0.1367
  754MOL0     H99466  10.481   6.719   9.211  2.6295 -0.9691 -0.1409
  754MOL0     H99467  10.565   6.627   9.406  1.5234  0.4446  2.2006
  754MOL0     H99468  10.402   6.694   9.442  0.2624  0.4073 -0.6812
  754MOL0     H99469  10.659   6.834   9.495  2.5518 -2.9760  2.0888
  754MOL0     H99470  10.581   6.733   9.619 -1.6670  3.6479  3.0438
  754MOL0     H99471  10.475   7.003   9.524  0.3198  2.1270  1.1740
  754MOL0     H99472  10.369   6.878   9.572  0.2831  0.2452 -2.1547
  754MOL0     H99473  10.493   6.857   9.792  1.4006  0.0510  0.4750
  754MOL0     H99474  10.467   7.034   9.766 -1.7525 -0.4331 -2.2642
  754MOL0     H99475  10.710   7.029   9.670 -2.4855 -1.3588 -1.9063
  754MOL0     H99476  10.718   6.859   9.721  0.3953  1.2191 -1.1858
  754MOL0     H99477  10.638   6.979   9.942  0.5582  0.7233  0.6011
  754MOL0     H99478  10.808   6.924   9.913 -2.6187 -1.8715  4.8151
  754MOL0     H99479  10.873   7.142   9.849 -0.3744  0.9024 -0.2238
  754MOL0     H99480  10.803   7.165  10.013  0.1506  2.1545 -0.0508
  754MOL0     H99481  10.508   7.218   9.977  1.6956  1.3938  1.8037
  754MOL0     H99482  10.418   7.547   9.789 -3.1737  0.7713 -1.3491
  754MOL0     H99483  10.373   7.449   9.932 -1.2500 -0.9559 -0.4236
  754MOL0     H99484  10.194   7.429   9.764 -2.0366 -2.5231  3.4462
  754MOL0     H99485  10.258   7.271   9.811 -2.1089  0.4660  0.6390
  754MOL0     H99486  10.379   7.426   9.573 -0.1874 -0.7389 -0.4684
  754MOL0     H99487  10.378   7.250   9.584 -2.4643 -0.7667 -3.0264
  754MOL0     H99488  10.129   7.245   9.539  1.4718 -0.2137 -2.9216
  754MOL0     H99489  10.229   7.305   9.415 -2.4936 -2.0018 -0.9405
  754MOL0     H99490   9.991   7.303   9.336 -2.6661 -1.2076 -0.0734
  754MOL0     H99491   9.754   7.362   9.247 -1.3680  1.3822  0.0430
  754MOL0     H99492   9.369   7.761   9.499 -2.8486 -1.3747  0.2242
  754MOL0     H99493   9.156   7.879   9.448 -2.3468  1.0770 -2.4928
  754MOL0     H99494   8.965   8.021   9.306 -1.1314  0.5401 -3.2796
  754MOL0     H99495   8.946   7.854   9.378 -3.1179 -0.3381  0.3633
  754MOL0     H99496   8.720   7.906   9.295  0.3890  1.6006  0.9324
  754MOL0     H99497   8.787   7.798   9.170  3.2101  0.7780 -2.4235
  754MOL0     H99498   8.858   7.977   9.036 -0.3604  3.5023 -0.7031
  754MOL0     H99499   8.800   8.098   9.136  2.0045  0.2342 -3.4813
  754MOL0     H99500   8.636   8.032   8.956  1.2728 -0.1000  0.1436
  754MOL0     H99501   8.634   7.865   9.022  0.7171 -0.3945  1.8223
  754MOL0     H99502   8.547   8.109   9.196 -2.3284  1.0485 -1.1136
  754MOL0     H99503   8.536   7.945   9.232  2.6552 -0.0441  0.6783
  754MOL0     H99504   8.368   7.924   9.040  2.2681 -0.0417  0.6030
  754MOL0     H99505   8.386   8.094   9.006 -0.9541 -0.6837 -0.1232
  754MOL0     H99506   8.288   7.996   9.283 -2.5739  2.0486  0.5356
  754MOL0     H99507   8.301   8.167   9.234  0.0831 -0.6062  0.7500
  754MOL0     H99508   8.069   8.052   9.232  2.0555  2.6184  1.8576
  754MOL0     H99509   8.131   7.943   9.117 -1.3805 -0.4241  2.6486
  754MOL0     H99510   9.213   7.750   9.052  0.2769 -0.2315  0.4729
  754MOL0     H99511   9.454   7.697   9.099  0.8280 -0.2447  0.0049
  754MOL0     H99512   9.784   7.732   9.470  1.6549 -0.3352  0.4552
  754MOL0     H99513   9.978   7.668   9.557  0.4428  0.7660  0.2708
  754MOL0     H99514  10.236   6.693   9.292 -1.3007 -0.5913  0.3011
  754MOL0     H99515  10.018   6.685   9.237  0.7544 -0.4814 -0.2384
  754MOL0     H99516   9.625   7.169   9.306 -0.6702 -3.1859  1.5997
  754MOL0     H99517   9.414   7.233   9.233  0.1349 -0.8625  0.9698
  754MOL0     H99518   9.271   7.326   9.062 -0.8116 -0.0461 -0.0317
  754MOL0     H99519   9.206   7.220   9.189  0.0320 -0.2700  0.3566
  754MOL0     H99520   9.016   7.172   9.057  0.9770  0.0951  0.0176
  754MOL0     H99521   9.049   7.348   9.062 -0.2832 -0.4218  3.2034
  754MOL0     H99522   9.170   7.199   8.828 -0.0724  0.0320 -0.2733
  754MOL0     H99523   9.153   7.364   8.863  0.7090 -0.8271 -0.7108
  754MOL0     H99524   8.943   7.375   8.787 -2.3631 -1.2797  0.9610
  754MOL0     H99525   8.992   7.244   8.673 -0.0439 -1.0138 -0.6855
  754MOL0     H99526   8.694   7.079   8.909  0.2135 -1.4425  0.6505
  754MOL0     H99527   9.451   6.958   8.899  0.6972  1.6610 -0.7388
  754MOL0     H99528   9.668   6.874   9.010  0.1413  0.3934 -0.6897
  755MOL0     O99529  10.540   1.403   8.481  0.3898  0.2721  0.5392
  755MOL0     C99530  10.442   1.328   8.490  0.1309  0.7608 -0.2317
  755MOL0     O99531  10.430   1.202   8.431  0.4479  0.0579 -0.1426
  755MOL0     C99532  10.538   1.125   8.380  0.3917  0.1864 -0.1020
  755MOL0     C99533  10.672   1.163   8.372  0.2947  0.4027 -0.6659
  755MOL0     C99534  10.763   1.077   8.326 -0.2273  0.3560 -0.0454
  755MOL0     C99535  10.724   0.953   8.278 -0.7700  0.2887  0.6629
  755MOL0     O99536  10.825   0.884   8.221 -0.2549 -0.1774 -0.2877
  755MOL0     C99537  10.800   0.758   8.167  0.8231 -0.6470  0.4467
  755MOL0     C99538  10.926   0.676   8.164  0.8280 -0.1350 -0.4276
  755MOL0     C99539  11.007   0.715   8.037 -0.0381  0.6951  0.4372
  755MOL0     C99540  11.146   0.639   8.030 -0.7137 -0.2275  0.1494
  755MOL0     C99541  11.221   0.689   7.904 -0.6668  0.1380 -0.4391
  755MOL0     C99542  11.360   0.627   7.888  0.1388 -0.3769  0.7656
  755MOL0     C99543  11.478   0.701   7.813 -0.1691  0.2407 -0.3266
  755MOL0     C99544  11.574   0.592   7.765 -0.4535 -0.3545  0.5897
  755MOL0     N99545  11.699   0.649   7.694 -0.1451  0.6091  0.1307
  755MOL0     C99546  11.791   0.721   7.770  0.8137 -0.7228  1.0082
  755MOL0     C99547  11.865   0.780   7.673  0.0121  0.0370  0.3311
  755MOL0     C99548  11.993   0.842   7.696 -0.4724 -0.2602 -0.4575
  755MOL0     C99549  12.017   0.956   7.601  0.1906  0.3123 -0.5281
  755MOL0     C99550  11.899   1.053   7.591 -0.9969  0.6018 -0.3072
  755MOL0     C99551  11.860   1.085   7.443  0.0405 -0.7542  0.1600
  755MOL0     O99552  11.737   1.166   7.454  0.1424  0.1192  0.9724
  755MOL0     C99553  11.611   1.109   7.468 -0.7131 -0.7042  0.2021
  755MOL0     C99554  11.588   0.976   7.474  0.8132 -0.0747  0.0659
  755MOL0     C99555  11.469   0.914   7.500  0.3963 -0.3645 -0.0544
  755MOL0     C99556  11.360   0.999   7.531  0.5525  0.2655  0.4429
  755MOL0     C99557  11.230   0.929   7.566 -0.6515 -0.1442  0.1234
  755MOL0     O99558  11.131   1.008   7.631  0.0927 -0.3714 -0.2848
  755MOL0     C99559  11.000   0.961   7.653  0.0174 -0.9330 -0.3017
  755MOL0     C99560  10.954   0.980   7.785  0.4604  0.3911 -0.2926
  755MOL0     C99561  10.831   0.928   7.823 -0.1788 -0.1722 -0.8175
  755MOL0     C99562  10.757   0.848   7.739  0.6751  0.1899  0.5691
  755MOL0     O99563  10.652   0.781   7.798 -0.2936 -0.8239  0.2975
  755MOL0     C99564  10.561   0.700   7.720 -0.4734 -0.2627 -0.5280
  755MOL0     C99565  10.429   0.680   7.792 -0.7125 -0.9203 -0.2101
  755MOL0     C99566  10.350   0.550   7.750 -0.0506 -0.1078 -0.8532
  755MOL0     C99567  10.238   0.517   7.847  0.8166 -0.0778 -0.5672
  755MOL0     C99568  10.280   0.427   7.964 -0.5330  0.4898 -0.6628
  755MOL0     C99569  10.151   0.391   8.040  0.2609  0.7214 -0.1830
  755MOL0     C99570  10.177   0.318   8.174 -0.8918 -0.0839 -0.5009
  755MOL0     C99571  10.047   0.319   8.256  0.2724 -0.3177  1.2556
  755MOL0    Cl99572  10.084   0.282   8.421 -0.1707 -0.0712  0.0220
  755MOL0     C99573  10.799   0.842   7.607 -0.3608  0.1648  0.3775
  755MOL0     C99574  10.920   0.898   7.567  0.2273  0.1298  0.9895
  755MOL0     O99575  11.210   0.812   7.525  0.4950  0.1089 -0.7350
  755MOL0     C99576  11.376   1.144   7.530  0.5336  0.1540  0.0633
  755MOL0     C99577  11.504   1.200   7.500 -0.2640  0.9725  0.8379
  755MOL0     N99578  11.824   0.735   7.554 -0.0961 -0.0664  0.0308
  755MOL0     N99579  11.721   0.661   7.565 -0.2642 -0.3566 -0.0430
  755MOL0     C99580  10.595   0.908   8.292  1.3190  0.1901 -0.3585
  755MOL0     C99581  10.505   0.991   8.353  1.0973 -0.1852 -0.3716
  755MOL0     C99582  10.323   1.394   8.537 -0.2185 -0.6908  0.1069
  755MOL0     C99583  10.317   1.535   8.531  0.7175  0.3269 -0.1746
  755MOL0     C99584  10.197   1.601   8.566 -0.3910  0.0342 -0.0931
  755MOL0     C99585  10.092   1.526   8.628  0.4820  0.0281  0.4853
  755MOL0     O99586   9.977   1.578   8.684 -1.2675 -0.0880  0.3693
  755MOL0     C99587   9.950   1.714   8.659 -0.2671 -0.1653 -0.9303
  755MOL0     C99588   9.814   1.754   8.728 -0.8727 -1.3266 -0.1618
  755MOL0     C99589   9.812   1.729   8.877  1.0773  0.1134  0.2024
  755MOL0     C99590   9.724   1.829   8.948  0.8644 -0.7492 -0.5278
  755MOL0     C99591   9.712   1.809   9.096  0.0521  0.0334 -0.3721
  755MOL0     C99592   9.698   1.795   9.216 -0.1208 -0.0438  0.3160
  755MOL0     C99593  10.114   1.389   8.647 -0.4554  0.0548 -0.3144
  755MOL0     C99594  10.225   1.323   8.607  0.3553 -0.2654  0.6515
  755MOL0     H99595  10.698   1.258   8.418 -1.9209  0.1889  1.2395
  755MOL0     H99596  10.865   1.113   8.331 -0.2160  0.1672  2.5225
  755MOL0     H99597  10.757   0.761   8.066 -2.2699  0.0276  1.6700
  755MOL0     H99598  10.738   0.700   8.235 -0.6607  2.6373  2.1113
  755MOL0     H99599  10.896   0.571   8.173  1.6786 -0.5772 -2.2613
  755MOL0     H99600  10.991   0.700   8.248 -1.2078 -0.0994  1.2120
  755MOL0     H99601  11.023   0.823   8.033  3.2232  0.3495  1.4516
  755MOL0     H99602  10.948   0.688   7.949 -1.6946 -0.2950  1.7877
  755MOL0     H99603  11.197   0.660   8.125 -0.5671  2.3143 -0.4041
  755MOL0     H99604  11.139   0.532   8.007 -2.0723 -0.2907  0.7387
  755MOL0     H99605  11.220   0.799   7.905 -1.1762  0.1367 -0.0750
  755MOL0     H99606  11.167   0.662   7.813 -2.0507 -3.8935  1.3626
  755MOL0     H99607  11.351   0.530   7.839  4.3064 -0.4764 -0.1871
  755MOL0     H99608  11.402   0.622   7.989  0.2770  2.1881  0.8983
  755MOL0     H99609  11.426   0.757   7.734  1.0572  0.0900 -1.2616
  755MOL0     H99610  11.532   0.768   7.880 -0.6289 -0.5861  0.8942
  755MOL0     H99611  11.528   0.529   7.689  1.1023  1.7830 -2.3284
  755MOL0     H99612  11.622   0.536   7.846  0.5889  1.6482  1.4139
  755MOL0     H99613  11.809   0.738   7.875  0.8221  0.8831  0.7708
  755MOL0     H99614  12.073   0.770   7.678  0.8006  0.7802  0.7299
  755MOL0     H99615  12.006   0.870   7.801  1.4367  1.2856 -1.0427
  755MOL0     H99616  12.030   0.910   7.503 -1.7335 -1.6674  0.0385
  755MOL0     H99617  12.108   1.003   7.638 -0.4581  1.2223 -0.0392
  755MOL0     H99618  11.813   1.022   7.652 -1.3254  0.7676 -0.6849
  755MOL0     H99619  11.938   1.146   7.632  2.1126 -0.7927  0.2752
  755MOL0     H99620  11.832   0.989   7.399  0.5831 -0.7003 -0.3160
  755MOL0     H99621  11.941   1.140   7.394  0.2154 -1.0200  0.1443
  755MOL0     H99622  11.674   0.910   7.462 -0.1998 -1.0301 -2.6589
  755MOL0     H99623  11.476   0.806   7.505  2.7305 -0.5122 -3.3366
  755MOL0     H99624  11.012   1.030   7.861 -1.5816  1.6841  0.5031
  755MOL0     H99625  10.802   0.933   7.927  3.2357  1.9575  0.1713
  755MOL0     H99626  10.616   0.607   7.700 -0.1354 -0.4578  1.1735
  755MOL0     H99627  10.536   0.751   7.626  0.8405 -2.7573 -2.3505
  755MOL0     H99628  10.369   0.769   7.770  1.0083 -0.2280 -2.4165
  755MOL0     H99629  10.441   0.683   7.901 -0.5041 -3.3227 -0.1081
  755MOL0     H99630  10.414   0.462   7.740 -0.9507 -0.6967 -1.5219
  755MOL0     H99631  10.305   0.566   7.652 -2.5244  2.9223  0.5969
  755MOL0     H99632  10.194   0.608   7.888  0.4958  0.7912 -2.7105
  755MOL0     H99633  10.157   0.472   7.789 -0.1051  1.5838 -0.6284
  755MOL0     H99634  10.358   0.480   8.021 -0.7803 -0.0632  0.2146
  755MOL0     H99635  10.327   0.338   7.921 -1.1930  0.1664 -0.7236
  755MOL0     H99636  10.094   0.325   7.974  0.5388 -1.3652  1.5529
  755MOL0     H99637  10.092   0.480   8.064 -0.6804 -0.0390  0.3371
  755MOL0     H99638  10.218   0.219   8.150  1.0811  1.4883 -4.4168
  755MOL0     H99639  10.257   0.367   8.231 -0.9418  0.9462 -1.3104
  755MOL0     H99640   9.982   0.246   8.206  0.0813  0.3939  0.4470
  755MOL0     H99641  10.009   0.421   8.250 -0.1036 -0.4958  0.4035
  755MOL0     H99642  10.748   0.786   7.529 -1.5113  4.1917 -2.0853
  755MOL0     H99643  10.946   0.883   7.463 -1.2086 -0.5785  0.7123
  755MOL0     H99644  11.302   1.219   7.555 -0.0935  0.2913 -1.9711
  755MOL0     H99645  11.499   1.307   7.517 -0.7056  0.7385  2.3471
  755MOL0     H99646  10.556   0.810   8.267 -1.1940  1.2570 -0.9464
  755MOL0     H99647  10.407   0.954   8.382  0.9619  0.9121  0.6045
  755MOL0     H99648  10.391   1.603   8.491  0.8630  0.0742 -0.3358
  755MOL0     H99649  10.187   1.708   8.554  0.0030  0.3758  2.1702
  755MOL0     H99650   9.948   1.740   8.553  3.5370 -0.1609 -1.1323
  755MOL0     H99651  10.031   1.769   8.708  0.3322 -1.7547 -0.0535
  755MOL0     H99652   9.783   1.853   8.693  1.9825 -0.5961 -0.8767
  755MOL0     H99653   9.735   1.701   8.675 -0.7158 -0.9130 -0.8218
  755MOL0     H99654   9.917   1.736   8.910  1.8194 -2.2244 -1.3743
  755MOL0     H99655   9.779   1.629   8.905  0.2819  0.5175  0.7514
  755MOL0     H99656   9.761   1.930   8.925  2.7295 -1.4231 -0.6662
  755MOL0     H99657   9.622   1.816   8.910  1.0350 -2.3192 -0.5264
  755MOL0     H99658   9.680   1.788   9.321 -0.0785 -1.0956  0.2641
  755MOL0     H99659  10.038   1.354   8.716 -1.4889  1.9854 -0.3970
  755MOL0     H99660  10.248   1.218   8.625 -3.0107 -1.4003 -0.8861
  756MOL0     O99661   1.845   2.050   5.029 -1.0408  0.4513 -0.3435
  756MOL0     C99662   1.935   1.994   5.086  0.2897  0.2918 -0.3319
  756MOL0     O99663   1.924   1.911   5.197  0.2593 -0.3385 -0.4011
  756MOL0     C99664   1.799   1.889   5.251  0.0403  0.0210  0.0841
  756MOL0     C99665   1.785   1.762   5.313  0.2911  0.5533  0.4722
  756MOL0     C99666   1.672   1.727   5.385  0.5441  0.4251  0.3159
  756MOL0     C99667   1.574   1.825   5.401  0.3112 -0.3903 -0.4209
  756MOL0     O99668   1.458   1.820   5.476  0.4167  0.1449 -0.2902
  756MOL0     C99669   1.443   1.718   5.578  0.4951 -0.2628  0.0869
  756MOL0     C99670   1.295   1.738   5.632 -0.1906 -0.3089 -0.3230
  756MOL0     C99671   1.247   1.617   5.714  0.5602 -0.1375  0.5132
  756MOL0     C99672   1.109   1.647   5.776  0.7737  0.6896  0.0158
  756MOL0     C99673   1.102   1.764   5.868 -0.0189 -0.5788 -0.9757
  756MOL0     C99674   0.977   1.758   5.954  0.4958 -0.0031 -0.3541
  756MOL0     C99675   0.840   1.740   5.880  0.5313  0.0943  0.3518
  756MOL0     C99676   0.730   1.684   5.984  1.2723 -0.5786 -0.0225
  756MOL0     N99677   0.683   1.800   6.065 -0.6290  0.0161  0.3877
  756MOL0     C99678   0.586   1.890   6.035 -0.5283 -0.5809  0.9936
  756MOL0     C99679   0.584   1.972   6.142  0.6445 -0.1734  0.3378
  756MOL0     C99680   0.501   2.090   6.168 -1.0451  0.2404  0.1935
  756MOL0     C99681   0.356   2.088   6.113  0.1919  0.6509 -0.4309
  756MOL0     C99682   0.264   1.982   6.178 -0.1371  0.0859  0.1325
  756MOL0     C99683   0.204   2.053   6.305  0.6140  0.7740 -0.0901
  756MOL0     O99684   0.121   1.966   6.377 -0.1680  0.7920 -0.1433
  756MOL0     C99685   0.003   1.917   6.332  0.5706 -0.3415 -0.6290
  756MOL0     C99686  -0.048   1.795   6.385 -0.6545 -0.9693  0.0292
  756MOL0     C99687  -0.176   1.757   6.348  0.1667  0.0269  0.1162
  756MOL0     C99688  -0.252   1.830   6.255 -0.6097  0.3885 -1.0629
  756MOL0     C99689  -0.388   1.785   6.238 -0.7045  0.2359 -0.1909
  756MOL0     O99690  -0.412   1.657   6.277 -0.0231 -0.6862 -0.2040
  756MOL0     C99691  -0.539   1.609   6.285 -0.4075  0.4087 -0.7473
  756MOL0     C99692  -0.560   1.475   6.249  0.3568  0.6117  0.6770
  756MOL0     C99693  -0.691   1.425   6.252  0.0675 -0.1043  0.3669
  756MOL0     C99694  -0.802   1.494   6.287  0.1099 -0.1949  0.7834
  756MOL0     O99695  -0.932   1.441   6.261 -0.4514  0.4516  0.4056
  756MOL0     C99696  -1.006   1.411   6.381  0.2425  0.6193 -0.1015
  756MOL0     C99697  -1.125   1.325   6.346  0.1552 -0.8330 -1.1706
  756MOL0     C99698  -1.089   1.230   6.227  0.0079 -0.5460 -0.5712
  756MOL0     C99699  -1.178   1.108   6.216  0.4986 -0.9700  0.9584
  756MOL0     C99700  -1.136   1.017   6.096 -0.6908  0.4282  0.3331
  756MOL0     C99701  -1.007   0.927   6.114  0.6606  0.1738 -0.2723
  756MOL0     C99702  -1.036   0.817   6.200 -0.6456 -0.7479  0.0706
  756MOL0     C99703  -0.904   0.727   6.215  0.1524 -0.2809 -0.4836
  756MOL0    Cl99704  -0.862   0.659   6.049 -0.5607 -0.1652  0.5250
  756MOL0     C99705  -0.779   1.625   6.325  0.2632  0.2875  0.3198
  756MOL0     C99706  -0.650   1.681   6.328  0.0596 -0.2259 -0.0114
  756MOL0     O99707  -0.473   1.866   6.190 -0.4616 -0.3550  0.0832
  756MOL0     C99708  -0.208   1.955   6.210 -0.5084  0.3490  0.8662
  756MOL0     C99709  -0.082   1.999   6.253  0.7400  0.5700  0.2528
  756MOL0     N99710   0.682   1.926   6.229  0.9098 -1.4941  0.1924
  756MOL0     N99711   0.745   1.833   6.179 -1.0169  0.6343 -0.1993
  756MOL0     C99712   1.581   1.953   5.337  0.7090 -0.7547 -0.7121
  756MOL0     C99713   1.695   1.984   5.261  0.2320 -0.4699 -0.9093
  756MOL0     C99714   2.061   2.007   5.010 -0.4313  0.3520 -0.5931
  756MOL0     C99715   2.175   1.956   5.077 -0.2243 -0.1515  0.2329
  756MOL0     C99716   2.300   1.977   5.016 -0.8363  0.4475  0.3793
  756MOL0     C99717   2.310   2.043   4.904 -0.0686 -0.5104  1.7029
  756MOL0     O99718   2.443   2.063   4.865  0.6109  0.5648 -0.6945
  756MOL0     C99719   2.471   2.114   4.733  0.7036 -0.3645 -0.0658
  756MOL0     C99720   2.561   2.239   4.752 -0.2378 -0.0592  0.4121
  756MOL0     C99721   2.696   2.221   4.821 -0.0578 -0.3621 -0.7683
  756MOL0     C99722   2.781   2.114   4.746  0.2532 -0.3924 -0.9262
  756MOL0     C99723   2.909   2.094   4.811 -0.2880 -0.0539  0.5533
  756MOL0     C99724   3.015   2.059   4.844 -0.5910 -0.2081  0.6730
  756MOL0     C99725   2.198   2.101   4.839  0.5198 -0.0284 -0.0449
  756MOL0     C99726   2.075   2.072   4.888 -0.4881 -0.8684  0.3306
  756MOL0     H99727   1.870   1.698   5.291  1.4687  2.8750 -2.3308
  756MOL0     H99728   1.655   1.629   5.428 -0.7960 -0.0873 -1.2612
  756MOL0     H99729   1.511   1.738   5.662  2.2823 -2.2282 -0.7978
  756MOL0     H99730   1.455   1.618   5.537 -0.2201 -1.0452  1.6816
  756MOL0     H99731   1.220   1.758   5.555 -0.3852  1.9293  0.3535
  756MOL0     H99732   1.299   1.826   5.697  1.4355  1.1684 -2.2852
  756MOL0     H99733   1.316   1.601   5.796  0.9298  0.7041  0.3763
  756MOL0     H99734   1.232   1.525   5.656  0.8544  0.7162 -0.9843
  756MOL0     H99735   1.047   1.650   5.687 -0.6957 -1.4422  0.8941
  756MOL0     H99736   1.077   1.562   5.836 -1.7212 -0.7543 -3.1093
  756MOL0     H99737   1.100   1.859   5.814  2.7423 -0.1096 -0.3869
  756MOL0     H99738   1.187   1.769   5.936  0.3987 -1.6784 -1.4020
  756MOL0     H99739   0.975   1.853   6.009 -2.3370 -0.1550 -0.0744
  756MOL0     H99740   0.985   1.678   6.028 -3.6980 -0.7996 -0.5393
  756MOL0     H99741   0.801   1.833   5.837 -1.2489  1.0596  3.6933
  756MOL0     H99742   0.844   1.665   5.801  0.0138 -0.8903  1.2350
  756MOL0     H99743   0.775   1.602   6.041  0.1953 -2.0347 -1.2103
  756MOL0     H99744   0.638   1.647   5.937  1.2697  1.3405 -1.6487
  756MOL0     H99745   0.520   1.897   5.949  0.2078 -2.7146  0.1957
  756MOL0     H99746   0.555   2.165   6.110  2.7729 -1.4858  1.1833
  756MOL0     H99747   0.495   2.127   6.271  1.7006  0.5376  0.3266
  756MOL0     H99748   0.358   2.075   6.005 -0.1242 -0.9633 -0.2658
  756MOL0     H99749   0.304   2.184   6.123 -0.4174  0.2532  0.3342
  756MOL0     H99750   0.183   1.962   6.106 -0.1201 -1.9808  0.6228
  756MOL0     H99751   0.320   1.893   6.207 -0.2636 -0.7597 -1.9654
  756MOL0     H99752   0.140   2.141   6.292  0.6499  0.8373  0.1427
  756MOL0     H99753   0.285   2.082   6.373 -1.3281  2.4726  1.6434
  756MOL0     H99754   0.014   1.739   6.454  2.2162 -1.1843 -2.5054
  756MOL0     H99755  -0.216   1.663   6.384  0.3015 -0.7691 -1.6852
  756MOL0     H99756  -0.481   1.418   6.201  1.0390  2.1368 -0.0855
  756MOL0     H99757  -0.707   1.323   6.219  0.1449 -0.3546  1.0897
  756MOL0     H99758  -1.033   1.501   6.437  0.8932 -0.7293  2.5260
  756MOL0     H99759  -0.947   1.345   6.446 -1.8552 -0.0133  1.2357
  756MOL0     H99760  -1.201   1.399   6.319  2.3299  2.0156  0.0454
  756MOL0     H99761  -1.154   1.268   6.435 -0.2714 -3.5416 -2.9281
  756MOL0     H99762  -0.984   1.201   6.241  0.6426  1.7105 -0.2468
  756MOL0     H99763  -1.085   1.286   6.133 -1.0662  1.4664  0.5164
  756MOL0     H99764  -1.172   1.054   6.311  0.9127 -0.7749  1.0468
  756MOL0     H99765  -1.275   1.147   6.186  1.2057 -0.6595 -1.1114
  756MOL0     H99766  -1.119   1.083   6.010  0.5816  0.3499  0.5092
  756MOL0     H99767  -1.222   0.952   6.076 -1.3762  1.8270 -1.6526
  756MOL0     H99768  -0.926   0.990   6.153  2.1992  0.7902 -4.0128
  756MOL0     H99769  -0.992   0.888   6.013  0.8157 -1.4438  0.3557
  756MOL0     H99770  -1.069   0.854   6.298  1.3049  1.9361 -0.1521
  756MOL0     H99771  -1.117   0.772   6.143  0.8491 -1.0062 -1.9795
  756MOL0     H99772  -0.933   0.641   6.276 -0.0967  0.8220  1.0284
  756MOL0     H99773  -0.818   0.773   6.263 -1.4029  1.9912  0.3067
  756MOL0     H99774  -0.869   1.679   6.356  0.5215  1.9814 -1.6427
  756MOL0     H99775  -0.625   1.780   6.365  2.5852 -0.9669  0.4427
  756MOL0     H99776  -0.271   2.024   6.155  2.3219  2.3509 -0.0894
  756MOL0     H99777  -0.056   2.096   6.213 -0.2069  0.2316 -1.2781
  756MOL0     H99778   1.504   2.029   5.339  2.8488  1.5330  0.1711
  756MOL0     H99779   1.712   2.084   5.223  1.9505  0.1379  1.2311
  756MOL0     H99780   2.163   1.882   5.155  0.1870 -0.3528  0.1044
  756MOL0     H99781   2.388   1.934   5.064 -1.1347 -1.6019 -0.7772
  756MOL0     H99782   2.385   2.147   4.674 -0.3152 -3.9459 -0.8226
  756MOL0     H99783   2.519   2.038   4.671  0.6472  0.6225 -1.3739
  756MOL0     H99784   2.579   2.285   4.655  2.5971 -2.9846 -0.6276
  756MOL0     H99785   2.507   2.313   4.811  1.8886  1.3459  0.7327
  756MOL0     H99786   2.669   2.184   4.920  2.7333  1.3345  0.7818
  756MOL0     H99787   2.737   2.319   4.850 -0.1751 -0.9144  1.4292
  756MOL0     H99788   2.731   2.018   4.733 -1.8945  0.7686 -1.7161
  756MOL0     H99789   2.803   2.158   4.648  0.4178  1.2044 -0.2017
  756MOL0     H99790   3.110   2.037   4.886 -0.8623  0.5232  1.7129
  756MOL0     H99791   2.204   2.171   4.755 -2.1992  1.0197  0.5249
  756MOL0     H99792   1.998   2.133   4.840  0.5678  1.1542  1.0641
  757MOL0     O99793   8.781   1.710   3.476  0.8586  0.5228 -0.0647
  757MOL0     C99794   8.773   1.818   3.537  0.8053  0.5553  0.4443
  757MOL0     O99795   8.872   1.917   3.539  0.5371  0.4554 -0.8688
  757MOL0     C99796   8.995   1.876   3.502  0.4764  0.3614  1.1952
  757MOL0     C99797   9.023   1.852   3.371 -0.4965  0.6585  0.3806
  757MOL0     C99798   9.155   1.816   3.325  0.2627 -0.2944 -0.0851
  757MOL0     C99799   9.257   1.810   3.423 -0.5833  0.2065  0.6478
  757MOL0     O99800   9.389   1.787   3.395 -0.2475  0.4123 -0.2905
  757MOL0     C99801   9.440   1.875   3.296 -0.0853  0.3795  0.0923
  757MOL0     C99802   9.583   1.836   3.254  0.3409  0.4501  0.7601
  757MOL0     C99803   9.689   1.929   3.310  0.9050 -0.4479  0.3049
  757MOL0     C99804   9.826   1.856   3.321 -0.0307 -0.1098 -0.0004
  757MOL0     C99805   9.889   1.808   3.195 -0.1501 -0.3064 -0.0773
  757MOL0     C99806   9.977   1.686   3.218 -0.1684 -0.5824 -0.0631
  757MOL0     C99807  10.057   1.648   3.096  0.1672 -1.2804 -0.2076
  757MOL0     C99808   9.974   1.587   2.985 -0.6199  0.0772 -0.1467
  757MOL0     N99809   9.942   1.447   3.027  0.0623  0.0415 -0.1820
  757MOL0     C99810   9.821   1.416   3.083  0.2712 -0.2493  0.0169
  757MOL0     C99811   9.835   1.291   3.133 -0.4129  0.0834 -0.6388
  757MOL0     C99812   9.725   1.210   3.211  0.0709 -0.2016  1.3372
  757MOL0     C99813   9.631   1.139   3.118  0.1108 -0.8871 -0.0467
  757MOL0     C99814   9.553   1.244   3.034  0.0988 -0.1781  0.2439
  757MOL0     C99815   9.439   1.193   2.951 -0.3804 -0.2044  1.2146
  757MOL0     O99816   9.350   1.120   3.040 -0.3060  0.2162 -0.2167
  757MOL0     C99817   9.225   1.090   2.993  0.3556 -0.5907 -0.7119
  757MOL0     C99818   9.170   1.134   2.873  0.7402 -0.3008  0.9578
  757MOL0     C99819   9.038   1.115   2.835 -0.5739  0.3998 -0.4809
  757MOL0     C99820   8.957   1.054   2.934 -0.0499  0.0066  1.4570
  757MOL0     C99821   8.818   1.016   2.903 -0.4150  0.0632 -0.4693
  757MOL0     O99822   8.738   1.000   3.007 -0.4893  0.0984 -0.0157
  757MOL0     C99823   8.607   0.960   2.982 -0.8733 -0.5946 -0.0993
  757MOL0     C99824   8.572   0.862   2.890 -0.6279 -0.5287 -0.2714
  757MOL0     C99825   8.438   0.835   2.858 -0.2441  0.0958 -0.6724
  757MOL0     C99826   8.332   0.905   2.921 -0.3739  0.1971  0.2824
  757MOL0     O99827   8.195   0.896   2.895  0.5001 -0.8226  0.6465
  757MOL0     C99828   8.146   0.776   2.826 -0.2052 -0.3781  0.5300
  757MOL0     C99829   8.000   0.800   2.816 -0.0568  1.0452 -0.2697
  757MOL0     C99830   7.927   0.671   2.850  0.0202 -0.1903 -0.1641
  757MOL0     C99831   7.777   0.686   2.836  0.3541  0.1394  0.5551
  757MOL0     C99832   7.699   0.568   2.870  0.0630 -0.2766 -0.1911
  757MOL0     C99833   7.553   0.614   2.874  0.4892  0.5103  0.3579
  757MOL0     C99834   7.457   0.499   2.872  0.2781 -0.0589  0.5350
  757MOL0     C99835   7.307   0.551   2.868 -0.5205  0.3864 -0.0361
  757MOL0    Cl99836   7.195   0.420   2.804  0.0714  0.1185  0.2803
  757MOL0     C99837   8.368   1.005   3.019  0.8976 -0.4269  0.4750
  757MOL0     C99838   8.501   1.028   3.044  0.3144 -0.0034 -1.0571
  757MOL0     O99839   8.787   1.016   2.785  0.5295  0.1063 -0.9684
  757MOL0     C99840   9.001   1.014   3.058 -0.3990  0.1076 -0.8046
  757MOL0     C99841   9.139   1.022   3.085  0.2705 -0.0668 -0.7886
  757MOL0     N99842   9.956   1.245   3.095 -0.0390  0.4418 -0.3375
  757MOL0     N99843  10.020   1.334   3.026 -0.5280  0.3203 -0.4708
  757MOL0     C99844   9.228   1.829   3.559  0.5075  0.1669  0.0295
  757MOL0     C99845   9.099   1.860   3.598  1.3859 -0.0286  0.2043
  757MOL0     C99846   8.643   1.846   3.596  0.0283  1.2274 -0.2714
  757MOL0     C99847   8.613   1.986   3.616 -0.2362  0.5860  0.0964
  757MOL0     C99848   8.483   2.012   3.641  0.3266  0.0680  0.0217
  757MOL0     C99849   8.386   1.912   3.655  0.4822 -0.3280  1.3469
  757MOL0     O99850   8.258   1.967   3.675 -0.1404  0.7073  0.0127
  757MOL0     C99851   8.137   1.890   3.678  0.0641  0.5891  0.2903
  757MOL0     C99852   8.017   1.976   3.689  0.2957  0.5407  0.1110
  757MOL0     C99853   7.896   1.899   3.734 -0.6475  0.0610 -0.2061
  757MOL0     C99854   7.761   1.985   3.736  0.4569  0.0497  0.6769
  757MOL0     C99855   7.728   2.023   3.595 -0.0366  0.4155  0.6512
  757MOL0     C99856   7.702   2.046   3.482 -0.9211  0.3928  0.2610
  757MOL0     C99857   8.417   1.781   3.625  0.2190  0.4565 -0.3467
  757MOL0     C99858   8.546   1.747   3.603  0.1150 -0.4157 -0.4570
  757MOL0     H99859   8.944   1.866   3.298 -0.7727  0.1670  0.5728
  757MOL0     H99860   9.172   1.807   3.218  0.1682  0.4113 -0.1636
  757MOL0     H99861   9.436   1.983   3.315 -1.7899  0.7432 -1.9951
  757MOL0     H99862   9.373   1.869   3.210  0.4519 -1.6102 -0.2359
  757MOL0     H99863   9.590   1.841   3.145  1.2293 -1.1079  0.7221
  757MOL0     H99864   9.601   1.736   3.293  0.0765  0.5617  1.1782
  757MOL0     H99865   9.656   1.967   3.406  1.3231  0.8774 -0.0615
  757MOL0     H99866   9.699   2.015   3.243 -0.2439 -0.7193 -0.2427
  757MOL0     H99867   9.888   1.934   3.368  2.3501 -1.7054 -0.3384
  757MOL0     H99868   9.806   1.775   3.391  1.8347  1.0544  2.0126
  757MOL0     H99869   9.955   1.882   3.151  0.3193  0.1135  1.2986
  757MOL0     H99870   9.811   1.776   3.124  0.4687  3.4985 -2.7522
  757MOL0     H99871   9.911   1.601   3.241  0.8085 -1.0105  1.3004
  757MOL0     H99872  10.047   1.701   3.300  0.6300 -0.1759 -0.8081
  757MOL0     H99873  10.108   1.736   3.057  0.8431 -2.0097 -1.0028
  757MOL0     H99874  10.130   1.574   3.129 -0.0298 -0.5807  2.0029
  757MOL0     H99875  10.036   1.582   2.895 -2.0970  0.0649 -1.1963
  757MOL0     H99876   9.888   1.648   2.957  0.2498  1.5406  0.2707
  757MOL0     H99877   9.740   1.487   3.098 -0.9720 -2.0827  2.8443
  757MOL0     H99878   9.665   1.292   3.252 -4.0005  0.7159 -5.0299
  757MOL0     H99879   9.774   1.148   3.287  1.5219 -0.8112 -0.0318
  757MOL0     H99880   9.576   1.075   3.188 -0.0145  0.9863  1.6664
  757MOL0     H99881   9.683   1.069   3.052  0.3350 -2.3599  1.6156
  757MOL0     H99882   9.511   1.317   3.104 -2.1015 -2.2002  1.1346
  757MOL0     H99883   9.625   1.300   2.972  0.8515 -0.9917  0.3670
  757MOL0     H99884   9.479   1.125   2.876  1.0932  1.2593  0.5940
  757MOL0     H99885   9.390   1.277   2.901  0.7249 -0.6846 -0.7366
  757MOL0     H99886   9.227   1.177   2.791 -4.2726  1.4256 -2.1530
  757MOL0     H99887   8.999   1.134   2.736  2.8970  3.3677 -1.5181
  757MOL0     H99888   8.649   0.799   2.848  1.5832  2.0339 -0.2944
  757MOL0     H99889   8.421   0.755   2.786 -1.3529 -1.1571  0.9084
  757MOL0     H99890   8.162   0.678   2.873  0.6055 -0.8591 -0.6872
  757MOL0     H99891   8.192   0.777   2.727 -0.7322  0.2858  0.2878
  757MOL0     H99892   7.983   0.827   2.712  1.6621 -3.4876 -1.9797
  757MOL0     H99893   7.973   0.881   2.886 -2.2347  1.6974 -1.7686
  757MOL0     H99894   7.945   0.637   2.952  1.9732 -2.4023 -1.1531
  757MOL0     H99895   7.963   0.587   2.789 -1.1301  0.1737 -1.4169
  757MOL0     H99896   7.743   0.778   2.885 -0.8164 -0.6239  1.2124
  757MOL0     H99897   7.757   0.707   2.730 -0.5660 -2.2996  0.1816
  757MOL0     H99898   7.717   0.526   2.969 -2.7002 -0.6871  0.2367
  757MOL0     H99899   7.718   0.487   2.799  1.2096 -1.4697  1.4080
  757MOL0     H99900   7.538   0.678   2.786 -1.9638 -0.3086  0.0939
  757MOL0     H99901   7.528   0.665   2.967 -2.4416  0.0665 -0.0755
  757MOL0     H99902   7.473   0.440   2.782 -0.4964  2.2371 -1.2138
  757MOL0     H99903   7.474   0.440   2.963 -0.2420  0.1739  0.7906
  757MOL0     H99904   7.302   0.632   2.795  0.2901  0.7874  0.3426
  757MOL0     H99905   7.284   0.585   2.970  1.6578  1.3393  0.1969
  757MOL0     H99906   8.294   1.071   3.063 -2.2269 -3.6012  0.5094
  757MOL0     H99907   8.530   1.114   3.103  0.7970 -2.5760  2.8232
  757MOL0     H99908   8.930   0.975   3.130  0.0212  2.9015  1.3113
  757MOL0     H99909   9.179   0.984   3.178  1.5296  1.1609 -0.7861
  757MOL0     H99910   9.310   1.814   3.628  1.2521  0.4925 -0.7690
  757MOL0     H99911   9.076   1.881   3.702  2.9944  0.2854  0.5144
  757MOL0     H99912   8.694   2.057   3.607  1.1303 -0.9773 -0.4007
  757MOL0     H99913   8.453   2.116   3.636  1.3028  0.3321 -4.2354
  757MOL0     H99914   8.147   1.821   3.762 -1.0879 -0.5246 -0.4648
  757MOL0     H99915   8.133   1.821   3.593  0.2025  1.0029 -0.0622
  757MOL0     H99916   8.048   2.060   3.751  1.8270 -0.0552  0.2093
  757MOL0     H99917   7.993   2.031   3.597 -0.2269 -0.0531 -0.1171
  757MOL0     H99918   7.913   1.871   3.839  0.1915 -0.4654 -0.4722
  757MOL0     H99919   7.878   1.809   3.674  0.3260  0.3424 -0.9432
  757MOL0     H99920   7.688   1.914   3.775 -1.0628 -0.2584 -2.4063
  757MOL0     H99921   7.776   2.076   3.795  2.3252 -0.3496  0.8717
  757MOL0     H99922   7.692   2.054   3.375  3.4493  1.2496 -0.2772
  757MOL0     H99923   8.347   1.699   3.617 -1.9145  2.1960 -0.5521
  757MOL0     H99924   8.566   1.643   3.584 -0.1259 -0.9821  2.0714
  758MOL0     O99925   9.127   2.367   2.715  0.0403  0.3273 -0.6279
  758MOL0     C99926   9.124   2.478   2.664 -0.3047 -0.6103 -0.2112
  758MOL0     O99927   9.033   2.517   2.562  0.3224  0.0514 -0.2188
  758MOL0     C99928   8.924   2.432   2.533  0.1337 -0.3301 -0.2901
  758MOL0     C99929   8.845   2.375   2.629 -0.3269 -0.4297 -0.3207
  758MOL0     C99930   8.730   2.298   2.590  1.1202 -0.3091  0.1401
  758MOL0     C99931   8.704   2.287   2.452  0.5243  0.0166 -0.1553
  758MOL0     O99932   8.596   2.212   2.415  0.5736  0.0454 -0.0850
  758MOL0     C99933   8.526   2.241   2.295  0.0734 -0.2148  0.4798
  758MOL0     C99934   8.404   2.163   2.317  0.9704 -0.1390  0.2166
  758MOL0     C99935   8.304   2.238   2.402  1.1399  0.1113 -0.5853
  758MOL0     C99936   8.168   2.160   2.405 -0.5225  0.1747 -0.8601
  758MOL0     C99937   8.055   2.241   2.458  0.1569 -0.6835  0.5155
  758MOL0     C99938   7.927   2.156   2.460 -0.3288 -0.0152 -0.1585
  758MOL0     C99939   7.818   2.220   2.539  0.5108  0.2258  0.5834
  758MOL0     C99940   7.674   2.176   2.504 -0.7576  1.1924  0.7823
  758MOL0     N99941   7.573   2.233   2.591  0.6446 -0.1250 -0.1815
  758MOL0     C99942   7.563   2.368   2.624 -0.3365  0.0588  0.1081
  758MOL0     C99943   7.448   2.386   2.687  0.9458 -1.2153 -0.5145
  758MOL0     C99944   7.386   2.523   2.732  0.0967  0.4391 -1.0684
  758MOL0     C99945   7.234   2.529   2.693  0.0404  0.2593  0.5569
  758MOL0     C99946   7.144   2.464   2.799  0.2532 -0.5577  0.4641
  758MOL0     C99947   6.995   2.483   2.774 -0.1829  0.3002 -0.3330
  758MOL0     O99948   6.964   2.615   2.797 -0.0652  0.3235  0.4274
  758MOL0     C99949   6.829   2.659   2.774 -0.8930  0.3200  0.1867
  758MOL0     C99950   6.810   2.795   2.742  0.4832  0.3012 -0.2582
  758MOL0     C99951   6.689   2.845   2.719  0.7449  0.6826  0.8830
  758MOL0     C99952   6.568   2.773   2.751 -0.9724  0.5023 -0.4639
  758MOL0     C99953   6.439   2.830   2.714  0.4404  0.2668  0.4037
  758MOL0     O99954   6.327   2.759   2.748 -0.3619  0.0942 -0.0912
  758MOL0     C99955   6.220   2.788   2.682  0.8860 -0.3154 -0.2460
  758MOL0     C99956   6.172   2.711   2.575  0.2378 -0.2808 -0.3575
  758MOL0     C99957   6.060   2.757   2.498  1.0514 -0.1316  0.0655
  758MOL0     C99958   5.990   2.878   2.524  0.2969  0.8525 -0.7741
  758MOL0     O99959   5.879   2.904   2.453 -0.4931  0.4085  0.5709
  758MOL0     C99960   5.775   2.976   2.510 -0.2021  0.2422 -0.1057
  758MOL0     C99961   5.664   3.011   2.408 -0.7070 -0.0250 -0.4070
  758MOL0     C99962   5.519   2.987   2.473  0.3680 -0.0189 -0.4523
  758MOL0     C99963   5.401   3.010   2.372 -0.5594 -0.4497  0.6029
  758MOL0     C99964   5.273   2.999   2.449 -0.2987  0.7298  0.3363
  758MOL0     C99965   5.153   2.996   2.358  0.9584 -0.3219  0.2181
  758MOL0     C99966   5.116   2.860   2.303 -0.1420 -0.3525  0.3300
  758MOL0     C99967   4.980   2.877   2.231  0.9496  0.1688  1.1184
  758MOL0    Cl99968   4.840   2.854   2.344  0.0099  0.2792  0.0271
  758MOL0     C99969   6.043   2.950   2.632  0.2448 -0.5258  0.4205
  758MOL0     C99970   6.149   2.906   2.710 -0.5036 -1.0485 -0.1312
  758MOL0     O99971   6.439   2.932   2.646  0.1788 -0.3447  0.3562
  758MOL0     C99972   6.589   2.634   2.782 -0.1921 -0.6690  0.4556
  758MOL0     C99973   6.720   2.580   2.792  0.7538  0.0390 -0.0700
  758MOL0     N99974   7.390   2.261   2.716 -1.0344 -0.2472  0.3145
  758MOL0     N99975   7.471   2.180   2.663  0.5294 -0.0721  0.1875
  758MOL0     C99976   8.791   2.344   2.360 -0.1793 -0.3962  0.1326
  758MOL0     C99977   8.895   2.426   2.396 -0.3632 -0.1207 -0.4864
  758MOL0     C99978   9.226   2.576   2.717  0.3743  0.7137  0.2138
  758MOL0     C99979   9.226   2.710   2.676  0.5912 -0.7373 -0.6734
  758MOL0     C99980   9.329   2.801   2.716  0.0242  0.4284 -0.3537
  758MOL0     C99981   9.430   2.754   2.801  0.1188 -0.5758  0.0728
  758MOL0     O99982   9.528   2.845   2.820  0.2568 -0.4210 -0.2120
  758MOL0     C99983   9.627   2.839   2.719 -0.4139 -0.5550 -0.3898
  758MOL0     C99984   9.709   2.966   2.703  1.3264 -0.7841  0.1955
  758MOL0     C99985   9.818   2.946   2.597  0.0079  0.5522  0.1291
  758MOL0     C99986   9.957   2.972   2.647 -0.2208 -0.7688  0.2236
  758MOL0     C99987   9.958   3.109   2.687 -0.6516 -0.1905 -0.0425
  758MOL0     C99988   9.948   3.226   2.719 -0.1187  0.1263  0.7940
  758MOL0     C99989   9.431   2.618   2.839  0.1826 -0.1664 -1.1253
  758MOL0     C99990   9.325   2.539   2.804  0.2109 -0.8269  0.3395
  758MOL0     H99991   8.865   2.403   2.732 -0.9547 -2.7225  0.4710
  758MOL0     H99992   8.677   2.260   2.677 -1.4798  2.8174  0.1232
  758MOL0     H99993   8.579   2.194   2.211 -1.2020  0.5301 -0.7799
  758MOL0     H99994   8.505   2.348   2.282 -0.3820 -0.3376  0.1921
  758MOL0     H99995   8.431   2.064   2.354  3.2659  0.2847 -0.2075
  758MOL0     H99996   8.349   2.147   2.224 -0.8253 -3.6374  1.6709
  758MOL0     H99997   8.290   2.337   2.358 -0.3861 -0.7606 -2.1959
  758MOL0     H99998   8.346   2.235   2.503  1.8278 -2.7297 -0.8531
  758MOL0     H99999   8.146   2.122   2.304  0.1604  1.6560 -1.5979
  758MOL0     H    0   8.177   2.072   2.468  0.5232 -0.0096 -1.2458
  758MOL0     H    1   8.040   2.329   2.394  0.4943 -0.5245  0.6578
  758MOL0     H    2   8.081   2.275   2.559 -0.0256 -0.2141  0.4113
  758MOL0     H    3   7.958   2.068   2.516  1.8985  2.6569  3.2686
  758MOL0     H    4   7.905   2.140   2.354 -1.9098  0.9393 -0.0207
  758MOL0     H    5   7.838   2.202   2.645  1.7764 -0.0712  0.3100
  758MOL0     H    6   7.821   2.330   2.535  3.6099  0.2601  1.4760
  758MOL0     H    7   7.667   2.066   2.503 -1.3894  1.2353 -0.3901
  758MOL0     H    8   7.662   2.212   2.402  3.1771 -1.8447 -1.0097
  758MOL0     H    9   7.641   2.441   2.606  1.5039 -1.6515  0.8139
  758MOL0     H   10   7.422   2.613   2.681 -1.2319  0.4162 -2.1132
  758MOL0     H   11   7.394   2.537   2.840 -0.0284 -0.7977 -0.8826
  758MOL0     H   12   7.222   2.488   2.593  1.5149  0.6621  0.1819
  758MOL0     H   13   7.211   2.636   2.696  2.3265  0.9915 -2.8369
  758MOL0     H   14   7.167   2.358   2.813  1.9073 -0.2429  0.2321
  758MOL0     H   15   7.164   2.513   2.895 -0.8799 -1.4636  1.1902
  758MOL0     H   16   6.942   2.424   2.849  0.7763  1.6615  1.4690
  758MOL0     H   17   6.966   2.442   2.676 -0.2396  2.5883 -1.3348
  758MOL0     H   18   6.890   2.868   2.738  0.4015  0.3909 -0.2730
  758MOL0     H   19   6.675   2.946   2.683  0.0010  0.2082 -0.2002
  758MOL0     H   20   6.225   2.625   2.537 -1.2795 -0.6673 -1.7229
  758MOL0     H   21   6.028   2.695   2.415  1.2400  1.6139 -1.3612
  758MOL0     H   22   5.815   3.069   2.550 -1.5701  0.9015 -0.2156
  758MOL0     H   23   5.738   2.918   2.595 -0.0454  0.3123  0.0112
  758MOL0     H   24   5.677   2.948   2.319 -1.6185 -1.0949  0.1982
  758MOL0     H   25   5.668   3.115   2.374  1.9171  0.0512 -0.1028
  758MOL0     H   26   5.513   3.060   2.554 -2.1166 -0.8139  0.1592
  758MOL0     H   27   5.524   2.887   2.517  0.3970 -0.0482 -0.5209
  758MOL0     H   28   5.411   3.106   2.321 -0.1683 -1.8636 -2.1287
  758MOL0     H   29   5.415   2.934   2.295 -0.5157 -1.9732  2.0769
  758MOL0     H   30   5.268   3.080   2.521 -0.1426 -0.9882  2.3689
  758MOL0     H   31   5.278   2.906   2.507  0.3790  0.8993  0.5560
  758MOL0     H   32   5.165   3.068   2.276  0.0521  0.6315  0.8862
  758MOL0     H   33   5.074   3.032   2.425 -0.1128 -0.6068 -0.8588
  758MOL0     H   34   5.198   2.834   2.235 -0.6769  1.3365 -1.0364
  758MOL0     H   35   5.107   2.783   2.380 -0.7041 -0.5307  0.0913
  758MOL0     H   36   4.977   2.801   2.153  0.2130  3.3599 -2.2625
  758MOL0     H   37   4.964   2.972   2.178  0.2355 -1.8554 -2.6521
  758MOL0     H   38   5.991   3.038   2.669 -0.4251 -1.0504  0.7450
  758MOL0     H   39   6.192   2.963   2.792 -0.1105 -1.2977 -0.1620
  758MOL0     H   40   6.502   2.570   2.794 -0.8320 -0.5501 -2.6099
  758MOL0     H   41   6.734   2.474   2.813 -1.4276 -0.6841 -1.7507
  758MOL0     H   42   8.784   2.328   2.253  0.1740 -0.9422  0.1859
  758MOL0     H   43   8.958   2.479   2.325 -0.8694  0.7225 -0.3290
  758MOL0     H   44   9.143   2.736   2.610 -0.7973  0.5852  1.4402
  758MOL0     H   45   9.332   2.907   2.693 -2.3472 -0.1863 -4.3656
  758MOL0     H   46   9.591   2.816   2.619 -1.3899  1.9836 -0.6931
  758MOL0     H   47   9.699   2.758   2.738 -1.3294 -0.9820  1.5932
  758MOL0     H   48   9.638   3.040   2.663  0.3119 -2.0263 -0.3771
  758MOL0     H   49   9.741   2.997   2.803 -2.8116 -0.2921  1.5622
  758MOL0     H   50   9.789   3.019   2.520 -0.4649  3.3925  2.8057
  758MOL0     H   51   9.814   2.845   2.556  2.8816 -0.4829  2.0926
  758MOL0     H   52   9.982   2.912   2.735  0.2106  1.8846  2.0595
  758MOL0     H   53  10.024   2.965   2.561  0.6469 -2.9976  1.0040
  758MOL0     H   54   9.938   3.329   2.745 -1.8864  0.1839  0.0891
  758MOL0     H   55   9.515   2.583   2.899 -1.4790  2.8345  3.4933
  758MOL0     H   56   9.337   2.436   2.833  0.6492 -1.5201 -2.0533
  759MOL0     O   57   0.214   9.304  10.709 -0.6681 -0.2592  0.0513
  759MOL0     C   58   0.313   9.303  10.636 -0.3605  0.3059  0.0728
  759MOL0     O   59   0.376   9.189  10.602  0.3096  0.5893  0.1210
  759MOL0     C   60   0.331   9.059  10.637  0.6312 -0.5062  0.7106
  759MOL0     C   61   0.321   9.024  10.766 -0.3258 -0.2661 -0.0962
  759MOL0     C   62   0.268   8.902  10.811  0.8174  0.2244 -0.4992
  759MOL0     C   63   0.236   8.810  10.716  0.0231 -0.5244  0.6298
  759MOL0     O   64   0.186   8.686  10.759 -0.3454  0.2791 -0.4066
  759MOL0     C   65   0.046   8.669  10.745  0.0828 -0.2452 -1.3875
  759MOL0     C   66   0.004   8.528  10.734  0.8165 -0.6148  0.1531
  759MOL0     C   67  -0.150   8.515  10.708 -1.4444  0.0891  0.8174
  759MOL0     C   68  -0.190   8.363  10.708 -0.1379 -0.1895  0.0655
  759MOL0     C   69  -0.338   8.339  10.720 -0.4626  0.5479 -0.2688
  759MOL0     C   70  -0.373   8.205  10.672 -0.1828  0.7447  0.4250
  759MOL0     C   71  -0.524   8.174  10.678 -0.0713  0.0453 -0.5925
  759MOL0     C   72  -0.559   8.038  10.619  0.4266 -0.7763  0.9091
  759MOL0     N   73  -0.584   7.950  10.732 -0.3910  0.4403 -0.0211
  759MOL0     C   74  -0.705   7.918  10.788  0.2254  0.1889  0.8135
  759MOL0     C   75  -0.683   7.807  10.852  0.8864  0.7018  0.6194
  759MOL0     C   76  -0.792   7.727  10.925 -0.3077 -1.0163 -0.8505
  759MOL0     C   77  -0.848   7.826  11.040 -0.7313 -0.2113  0.3118
  759MOL0     C   78  -0.980   7.789  11.099  0.5304 -0.0731 -0.6871
  759MOL0     C   79  -0.967   7.680  11.207  0.2687  0.4643  0.0454
  759MOL0     O   80  -1.076   7.584  11.209 -0.3616 -0.3147 -0.1461
  759MOL0     C   81  -1.209   7.625  11.233  0.0253  0.8679 -0.3419
  759MOL0     C   82  -1.250   7.760  11.251 -0.6165  0.2940  0.1789
  759MOL0     C   83  -1.381   7.795  11.276 -0.1463  0.1767  0.6373
  759MOL0     C   84  -1.479   7.698  11.278 -0.7480  0.4187  0.0389
  759MOL0     C   85  -1.623   7.728  11.308  0.1961 -0.1347  0.3628
  759MOL0     O   86  -1.710   7.624  11.283 -0.1296  0.6025  1.3199
  759MOL0     C   87  -1.844   7.623  11.304 -0.2376  0.1738 -0.3362
  759MOL0     C   88  -1.912   7.697  11.402 -0.5541 -0.3475 -0.3548
  759MOL0     C   89  -2.048   7.682  11.419 -1.2897  0.8685  0.2254
  759MOL0     C   90  -2.114   7.584  11.344  0.1812 -0.4363  0.4712
  759MOL0     O   91  -2.248   7.561  11.344 -0.3981 -0.3007 -0.3700
  759MOL0     C   92  -2.321   7.649  11.437 -0.6463  0.5975 -0.2689
  759MOL0     C   93  -2.458   7.596  11.461 -0.4309  0.7859 -0.5522
  759MOL0     C   94  -2.442   7.455  11.533  0.2016  0.5494  0.0047
  759MOL0     C   95  -2.582   7.404  11.560 -0.0618 -0.7531  0.7511
  759MOL0     C   96  -2.590   7.255  11.589  0.5768  0.2944  0.2469
  759MOL0     C   97  -2.735   7.210  11.622  0.2520 -0.1250 -0.2350
  759MOL0     C   98  -2.747   7.066  11.652 -0.8494  0.8876  0.2745
  759MOL0     C   99  -2.735   6.957  11.539 -0.3363  0.1060  0.2140
  759MOL0    Cl  100  -2.801   6.999  11.381 -0.1585  0.2157 -0.1633
  759MOL0     C  101  -2.046   7.506  11.248  1.2126  0.4239 -0.0568
  759MOL0     C  102  -1.910   7.526  11.225 -0.2900  0.1215 -1.0619
  759MOL0     O  103  -1.651   7.843  11.348 -0.2240  0.5795 -0.2898
  759MOL0     C  104  -1.441   7.567  11.245 -0.2185 -0.1223 -0.2202
  759MOL0     C  105  -1.312   7.533  11.222 -0.1324 -0.1303 -0.2425
  759MOL0     N  106  -0.554   7.770  10.838  0.2459  0.5916 -0.6685
  759MOL0     N  107  -0.493   7.846  10.761 -0.3398 -0.5073  0.6185
  759MOL0     C  108   0.252   8.843  10.581 -0.1203 -0.7681  0.1998
  759MOL0     C  109   0.290   8.972  10.542  0.0447 -0.4522 -0.2102
  759MOL0     C  110   0.362   9.436  10.581 -0.4799 -0.2268 -0.5571
  759MOL0     C  111   0.289   9.557  10.587 -0.1095  0.0863  0.8044
  759MOL0     C  112   0.343   9.669  10.526  0.1672 -0.7227 -0.5238
  759MOL0     C  113   0.469   9.664  10.471  0.0329 -0.1828 -0.4746
  759MOL0     O  114   0.517   9.787  10.432 -0.0926  0.3914 -0.0275
  759MOL0     C  115   0.649   9.798  10.367 -0.2389  0.4426  0.0250
  759MOL0     C  116   0.761   9.824  10.466 -0.4834 -0.4565 -0.2097
  759MOL0     C  117   0.903   9.841  10.397  0.2627 -0.0936  0.2517
  759MOL0     C  118   0.923   9.958  10.288 -0.5141 -0.5494 -0.4182
  759MOL0     C  119   0.845   9.925  10.165  0.4763 -0.5925 -0.5203
  759MOL0     C  120   0.794   9.908  10.063  0.4780 -0.1586  0.3861
  759MOL0     C  121   0.538   9.545  10.455 -0.7951  0.5850 -0.3843
  759MOL0     C  122   0.480   9.429  10.508  0.3323  0.1541  0.0710
  759MOL0     H  123   0.364   9.102  10.827 -0.8256  0.8569 -1.1269
  759MOL0     H  124   0.274   8.870  10.915 -0.4581 -0.5114 -0.6331
  759MOL0     H  125   0.021   8.731  10.659  3.9416  0.0722 -2.4380
  759MOL0     H  126  -0.006   8.714  10.831  1.5456 -0.7006 -0.2255
  759MOL0     H  127   0.037   8.483  10.828  1.8657  0.4157  0.3046
  759MOL0     H  128   0.055   8.490  10.645  1.1763 -0.5905  0.3448
  759MOL0     H  129  -0.163   8.554  10.606  2.7685  3.8752  1.4077
  759MOL0     H  130  -0.215   8.574  10.772  0.5414  1.0442  2.0356
  759MOL0     H  131  -0.155   8.318  10.615 -0.5355 -2.9433  1.1618
  759MOL0     H  132  -0.133   8.315  10.787 -0.0977  0.5273  0.4849
  759MOL0     H  133  -0.393   8.421  10.672  0.6148  1.4680  0.0317
  759MOL0     H  134  -0.370   8.346  10.825  1.0723 -2.1083  0.4437
  759MOL0     H  135  -0.307   8.128  10.713  0.5982  0.9730 -0.3701
  759MOL0     H  136  -0.343   8.194  10.567  1.2645  0.4868  0.8567
  759MOL0     H  137  -0.557   8.185  10.781 -0.8746 -0.9889 -0.7265
  759MOL0     H  138  -0.570   8.249  10.613 -0.8339 -0.6506 -0.8780
  759MOL0     H  139  -0.480   7.996  10.555 -0.6484  1.3296 -2.0321
  759MOL0     H  140  -0.651   8.053  10.562  0.4881 -1.2726  0.6728
  759MOL0     H  141  -0.794   7.980  10.781 -0.2997 -0.6606 -0.4947
  759MOL0     H  142  -0.740   7.647  10.978 -2.1039 -0.5165  1.8635
  759MOL0     H  143  -0.870   7.688  10.859 -0.5997 -2.1529  0.1240
  759MOL0     H  144  -0.854   7.925  10.993 -0.2403 -0.3441 -0.0375
  759MOL0     H  145  -0.780   7.850  11.122 -1.1165 -0.4403  0.6978
  759MOL0     H  146  -1.023   7.880  11.141 -0.8923 -0.5301 -1.1004
  759MOL0     H  147  -1.046   7.759  11.017 -1.0181  1.0259  0.1280
  759MOL0     H  148  -0.961   7.723  11.307  0.4220  1.2984 -0.3150
  759MOL0     H  149  -0.876   7.620  11.190  0.3048  0.5638 -0.1183
  759MOL0     H  150  -1.172   7.835  11.254  2.6336 -2.8828  2.4684
  759MOL0     H  151  -1.414   7.897  11.294 -1.9507 -0.6268  2.2337
  759MOL0     H  152  -1.864   7.766  11.471 -2.6030 -0.3250  1.1058
  759MOL0     H  153  -2.085   7.748  11.497 -1.2298 -1.0807  1.9984
  759MOL0     H  154  -2.325   7.742  11.379 -1.4618  0.5155 -0.3562
  759MOL0     H  155  -2.278   7.667  11.536 -2.2681  0.7230  0.4391
  759MOL0     H  156  -2.509   7.588  11.365  4.0384  0.8445 -3.1526
  759MOL0     H  157  -2.507   7.665  11.530  0.5563 -1.1307  2.2595
  759MOL0     H  158  -2.392   7.455  11.630 -1.1920 -0.3522  0.7631
  759MOL0     H  159  -2.400   7.378  11.467 -1.2544  0.0980 -0.4331
  759MOL0     H  160  -2.625   7.462  11.642 -1.1686  0.6893 -0.7844
  759MOL0     H  161  -2.643   7.424  11.472  1.1357  3.0800  0.6035
  759MOL0     H  162  -2.525   7.224  11.671  1.9977  2.5346  0.0451
  759MOL0     H  163  -2.558   7.204  11.497 -1.4037  1.6804 -1.3261
  759MOL0     H  164  -2.807   7.242  11.545 -0.1030  0.6719  0.4153
  759MOL0     H  165  -2.764   7.261  11.714  2.2563  1.7151 -0.5489
  759MOL0     H  166  -2.666   7.051  11.724 -1.4948 -0.7379  0.6886
  759MOL0     H  167  -2.845   7.060  11.699 -1.1018 -2.7809 -0.4429
  759MOL0     H  168  -2.767   6.856  11.566  0.0409 -0.3712 -1.0378
  759MOL0     H  169  -2.628   6.944  11.520 -0.9251 -0.1817 -3.5281
  759MOL0     H  170  -2.107   7.445  11.183  1.9830 -0.7200  0.2616
  759MOL0     H  171  -1.850   7.461  11.163  1.5628  0.8343 -0.0868
  759MOL0     H  172  -1.501   7.478  11.238  1.3145 -1.0448 -3.5637
  759MOL0     H  173  -1.289   7.429  11.203  0.7747  0.1119 -0.4974
  759MOL0     H  174   0.230   8.779  10.496 -1.5855  2.0799 -1.7198
  759MOL0     H  175   0.287   8.989  10.435  0.1230  1.8768  0.1015
  759MOL0     H  176   0.195   9.563  10.640  0.9169 -1.2680  2.9369
  759MOL0     H  177   0.291   9.763  10.542  0.7291 -0.7335  1.7895
  759MOL0     H  178   0.629   9.885  10.303  1.0574  2.5972  2.3591
  759MOL0     H  179   0.670   9.710  10.306 -1.4172  0.1442  0.0255
  759MOL0     H  180   0.742   9.916  10.523 -1.6136 -1.0510  0.4081
  759MOL0     H  181   0.771   9.739  10.534  0.1211 -0.6456 -0.5253
  759MOL0     H  182   0.939   9.748  10.353  1.5954  0.3194  0.4297
  759MOL0     H  183   0.972   9.867  10.478  0.3681 -1.3321  0.5831
  759MOL0     H  184   0.892  10.056  10.326 -0.2829 -0.2410 -1.0145
  759MOL0     H  185   1.029   9.960  10.261 -0.5445  0.1106 -0.5114
  759MOL0     H  186   0.735   9.887   9.976 -0.2146 -0.2648  0.8679
  759MOL0     H  187   0.638   9.532  10.414 -0.2870 -0.3188  1.0777
  759MOL0     H  188   0.528   9.332  10.497 -3.2369 -1.5671 -2.0541
  760MOL0     O  189   9.760   1.002   8.978 -0.7117  0.1858 -0.1882
  760MOL0     C  190   9.855   0.921   8.952 -0.1618  0.5543  0.0383
  760MOL0     O  191   9.843   0.784   8.939  0.6656 -0.0302 -0.0342
  760MOL0     C  192   9.722   0.727   8.971  0.7521  0.3863 -0.1025
  760MOL0     C  193   9.636   0.697   8.864 -0.5087 -0.0032 -0.1632
  760MOL0     C  194   9.521   0.623   8.893  0.8021 -0.4842  0.2379
  760MOL0     C  195   9.497   0.574   9.032 -0.1766  0.1442  0.7358
  760MOL0     O  196   9.387   0.497   9.064 -0.4539 -0.6012 -0.6674
  760MOL0     C  197   9.261   0.553   9.016 -0.5472  0.0404  0.2457
  760MOL0     C  198   9.132   0.474   9.048  1.5769  0.3187 -0.1356
  760MOL0     C  199   9.016   0.520   8.959  0.2045 -0.4207  0.5975
  760MOL0     C  200   8.970   0.659   9.007  0.4191 -0.6732  0.0328
  760MOL0     C  201   8.844   0.699   8.933  0.3568 -0.4679  0.5202
  760MOL0     C  202   8.790   0.830   8.976 -0.2621 -0.2781 -0.6825
  760MOL0     C  203   8.644   0.852   8.927 -0.2158 -0.3840  0.2508
  760MOL0     C  204   8.600   1.003   8.914  0.2131  0.0821 -0.0584
  760MOL0     N  205   8.642   1.079   9.040  0.2200 -0.8601 -0.0704
  760MOL0     C  206   8.589   1.059   9.163 -0.4768 -0.2366 -0.3235
  760MOL0     C  207   8.669   1.136   9.246  0.6686  0.0841 -0.4385
  760MOL0     C  208   8.659   1.133   9.403  0.3585 -0.5475  0.1540
  760MOL0     C  209   8.768   1.197   9.480  0.3027  0.4776  0.3109
  760MOL0     C  210   8.716   1.207   9.631 -0.3065 -0.0450  0.4649
  760MOL0     C  211   8.723   1.071   9.705  0.3017  0.4683 -0.1345
  760MOL0     O  212   8.687   1.106   9.833 -0.0863 -0.0350 -0.0412
  760MOL0     C  213   8.558   1.116   9.864  0.5144  0.9317 -0.4774
  760MOL0     C  214   8.540   1.124   9.998  0.3229  0.3206 -0.0691
  760MOL0     C  215   8.418   1.137  10.063  0.1190  0.4052  0.7173
  760MOL0     C  216   8.301   1.113   9.984  0.1274  0.3105  0.0377
  760MOL0     C  217   8.168   1.113  10.048  0.7841 -0.7575 -0.6435
  760MOL0     O  218   8.060   1.063   9.983  0.1274 -0.5788  0.0749
  760MOL0     C  219   7.935   1.076  10.041 -0.6494 -0.3745 -0.4318
  760MOL0     C  220   7.821   1.104   9.969  0.8664  0.3167  0.4960
  760MOL0     C  221   7.689   1.078  10.028 -0.1468  0.5846 -0.2333
  760MOL0     C  222   7.675   1.025  10.156 -0.1299 -0.4413 -0.2348
  760MOL0     O  223   7.566   1.021  10.237  0.7147 -0.2247  0.0316
  760MOL0     C  224   7.441   1.063  10.182  0.0822  0.1932 -0.0286
  760MOL0     C  225   7.328   1.091  10.282  0.2517 -0.5020  0.5410
  760MOL0     C  226   7.194   1.071  10.225  0.5539  0.2299 -0.3835
  760MOL0     C  227   7.094   1.097  10.336 -0.3264 -0.8942 -0.4367
  760MOL0     C  228   6.947   1.059  10.287  1.1581  0.1912  0.7918
  760MOL0     C  229   6.834   1.126  10.375  0.2948 -1.0383 -0.4739
  760MOL0     C  230   6.698   1.089  10.316  0.0980  1.0065  0.1791
  760MOL0     C  231   6.587   1.109  10.416  0.6388  0.0505 -0.4200
  760MOL0    Cl  232   6.413   1.115  10.343  0.0741  0.4651 -0.3201
  760MOL0     C  233   7.787   1.013  10.235 -0.3613  0.5730  0.1704
  760MOL0     C  234   7.914   1.036  10.176 -0.4085  0.2015  0.1158
  760MOL0     O  235   8.163   1.170  10.156 -0.5358 -0.4634 -0.0631
  760MOL0     C  236   8.315   1.097   9.841  0.8174  0.1761  0.0793
  760MOL0     C  237   8.441   1.104   9.781 -0.6165  1.4738 -0.0187
  760MOL0     N  238   8.761   1.207   9.172 -0.0279 -1.2043  0.9192
  760MOL0     N  239   8.748   1.167   9.051 -0.5116 -0.6356 -0.9826
  760MOL0     C  240   9.588   0.606   9.133  0.3315  0.3952 -0.5237
  760MOL0     C  241   9.692   0.693   9.102  0.0015  0.0925 -0.3923
  760MOL0     C  242   9.989   0.984   8.932  0.1383  0.3241 -0.4046
  760MOL0     C  243  10.043   1.090   9.005 -0.2566  0.3735 -0.4218
  760MOL0     C  244  10.164   1.140   8.975 -0.0592 -0.8868  0.4100
  760MOL0     C  245  10.250   1.079   8.875  0.0933  0.6841 -0.7552
  760MOL0     O  246  10.368   1.131   8.828  0.1694 -0.2433  0.7538
  760MOL0     C  247  10.415   1.249   8.886 -1.1008 -0.2115 -0.1983
  760MOL0     C  248  10.562   1.259   8.846 -0.1687 -0.4764  0.1447
  760MOL0     C  249  10.654   1.157   8.917  0.5922 -0.8949  0.4018
  760MOL0     C  250  10.798   1.196   8.918  0.3778  0.1508 -0.7110
  760MOL0     C  251  10.848   1.219   8.775  0.4151  1.0719 -0.0138
  760MOL0     C  252  10.891   1.248   8.662  0.0244 -0.0882 -0.8517
  760MOL0     C  253  10.195   0.967   8.807  0.1739 -0.2684  0.3323
  760MOL0     C  254  10.069   0.917   8.842 -0.2345  0.9680  0.6989
  760MOL0     H  255   9.644   0.740   8.765 -1.6926  1.0471  0.1704
  760MOL0     H  256   9.463   0.591   8.807  0.7833  0.4338 -0.0994
  760MOL0     H  257   9.271   0.558   8.907 -2.1450  2.4044  0.1411
  760MOL0     H  258   9.268   0.656   9.050  2.0751  0.0391 -0.0560
  760MOL0     H  259   9.107   0.495   9.152  2.9600  3.7690 -0.3266
  760MOL0     H  260   9.157   0.370   9.027  0.7430  0.1225 -0.1544
  760MOL0     H  261   8.934   0.448   8.958 -1.7454  1.7078 -0.6587
  760MOL0     H  262   9.040   0.524   8.853 -0.1736 -0.9618  0.4855
  760MOL0     H  263   8.954   0.667   9.115  0.6111  1.8848 -0.0602
  760MOL0     H  264   9.045   0.734   8.978 -2.7132  3.0060  0.6148
  760MOL0     H  265   8.763   0.637   8.973 -2.9491  3.6425  0.9221
  760MOL0     H  266   8.858   0.706   8.824 -2.0231  2.7003  0.2456
  760MOL0     H  267   8.859   0.908   8.943  1.1217 -1.1806 -0.0258
  760MOL0     H  268   8.783   0.835   9.085  2.1740 -0.6130 -0.4661
  760MOL0     H  269   8.621   0.803   8.831 -0.8178  0.9835 -0.3368
  760MOL0     H  270   8.576   0.799   8.995  0.5679 -0.9936  0.5712
  760MOL0     H  271   8.491   1.010   8.907  0.1606  2.4426  1.8506
  760MOL0     H  272   8.644   1.056   8.829 -2.0389  3.0635  0.5073
  760MOL0     H  273   8.502   1.000   9.190 -0.0370 -0.8071 -0.1524
  760MOL0     H  274   8.643   1.029   9.433 -0.4157 -0.3236  0.5513
  760MOL0     H  275   8.569   1.193   9.424  1.1995 -0.1995  3.2398
  760MOL0     H  276   8.809   1.294   9.452  0.5084  1.1021  2.5717
  760MOL0     H  277   8.853   1.127   9.478 -0.6119 -0.6391 -0.6184
  760MOL0     H  278   8.779   1.274   9.691 -0.8021 -0.6198  1.6589
  760MOL0     H  279   8.616   1.250   9.635  0.6392  2.3184  0.3771
  760MOL0     H  280   8.824   1.031   9.694  0.3604  0.4381  0.4885
  760MOL0     H  281   8.651   0.999   9.666  2.1190  0.0465 -3.0343
  760MOL0     H  282   8.630   1.134  10.057  1.0685 -0.9229 -0.9542
  760MOL0     H  283   8.420   1.154  10.170  0.3746  3.8463  0.2607
  760MOL0     H  284   7.833   1.128   9.864 -2.8438 -0.7973 -0.3322
  760MOL0     H  285   7.605   1.097   9.962  1.0754 -0.1122 -2.0598
  760MOL0     H  286   7.403   0.983  10.118 -1.4106  0.2816  0.6952
  760MOL0     H  287   7.456   1.159  10.131  0.7052 -0.7105 -1.6120
  760MOL0     H  288   7.331   1.197  10.308 -0.4534  0.9727 -4.3548
  760MOL0     H  289   7.341   1.023  10.367 -0.0250 -0.6410  0.4718
  760MOL0     H  290   7.186   0.975  10.172 -2.2242  1.7192 -3.0017
  760MOL0     H  291   7.179   1.145  10.146 -1.4853 -0.4499 -0.6967
  760MOL0     H  292   7.107   1.036  10.426 -1.6559  1.2114  1.2910
  760MOL0     H  293   7.103   1.204  10.356 -0.7243 -1.1593  1.3183
  760MOL0     H  294   6.924   0.952  10.283  0.0455  0.3882  1.5198
  760MOL0     H  295   6.933   1.098  10.186  0.4587 -1.0512  0.3840
  760MOL0     H  296   6.841   1.235  10.384 -2.7142 -0.5329 -2.6748
  760MOL0     H  297   6.841   1.076  10.472 -0.5010 -0.5857 -0.1752
  760MOL0     H  298   6.676   1.159  10.234  0.6498  2.5655  1.3146
  760MOL0     H  299   6.686   0.988  10.277 -2.1197  0.3639  2.3113
  760MOL0     H  300   6.612   1.205  10.462  0.1028 -0.1155  0.2522
  760MOL0     H  301   6.574   1.037  10.498  1.6572  1.1984  0.7912
  760MOL0     H  302   7.787   0.979  10.338 -0.2946 -0.6473 -0.2113
  760MOL0     H  303   7.998   1.006  10.239 -0.9689 -1.0879  0.2802
  760MOL0     H  304   8.225   1.085   9.781 -0.8367 -0.2206  2.5068
  760MOL0     H  305   8.456   1.095   9.674 -0.3836 -0.3822  0.1377
  760MOL0     H  306   9.578   0.553   9.228  1.7797 -0.6009 -0.9016
  760MOL0     H  307   9.773   0.693   9.175 -0.7423  0.7391  0.4464
  760MOL0     H  308   9.990   1.142   9.084  0.9450  3.5846 -1.5918
  760MOL0     H  309  10.196   1.230   9.025 -0.6525  1.0731 -2.4658
  760MOL0     H  310  10.409   1.243   8.995  0.1295  0.9553 -0.0292
  760MOL0     H  311  10.357   1.338   8.864 -0.5769  0.1417 -0.1784
  760MOL0     H  312  10.570   1.249   8.737 -0.4858 -4.0048  0.3419
  760MOL0     H  313  10.585   1.361   8.878  1.0401 -1.2625  1.9421
  760MOL0     H  314  10.649   1.063   8.862  1.4109 -1.8862  1.9364
  760MOL0     H  315  10.630   1.141   9.023  1.9683  0.6383  0.9747
  760MOL0     H  316  10.812   1.290   8.973 -0.1573  1.0554 -2.0540
  760MOL0     H  317  10.850   1.115   8.969  1.5416  0.7519 -0.8941
  760MOL0     H  318  10.937   1.275   8.569 -1.2497  0.8798 -1.2312
  760MOL0     H  319  10.237   0.914   8.722 -0.6584  0.7658 -0.7428
  760MOL0     H  320  10.034   0.827   8.793  1.7027 -0.8475  2.4754
  761MOL0     O  321   5.566  10.436   2.053 -0.0977  0.3310 -0.2632
  761MOL0     C  322   5.601  10.328   2.115 -0.0311 -0.4429  0.8295
  761MOL0     O  323   5.526  10.255   2.201 -0.9784 -0.3631 -0.5074
  761MOL0     C  324   5.416  10.301   2.257  0.6410 -0.5924 -0.1576
  761MOL0     C  325   5.340  10.187   2.287  0.2379 -0.3502  0.0433
  761MOL0     C  326   5.218  10.199   2.359 -0.0856 -0.1432  1.0505
  761MOL0     C  327   5.175  10.330   2.399 -0.2426  0.1338 -0.2904
  761MOL0     O  328   5.068  10.354   2.475  0.5869  0.2365 -0.2883
  761MOL0     C  329   4.977  10.250   2.502  0.3729 -0.3193 -0.1335
  761MOL0     C  330   4.887  10.304   2.616 -0.1262 -0.6755 -0.0935
  761MOL0     C  331   4.965  10.326   2.743 -0.7826 -0.2045  0.3353
  761MOL0     C  332   4.894  10.415   2.842 -0.0498  0.3577  0.2008
  761MOL0     C  333   4.961  10.411   2.979  0.4323  0.6182  0.1754
  761MOL0     C  334   4.913  10.528   3.065 -0.2497 -0.2172  0.7227
  761MOL0     C  335   4.970  10.521   3.213  0.4728 -0.4992 -0.2153
  761MOL0     C  336   4.943  10.643   3.299  0.5444 -0.9398  0.5068
  761MOL0     N  337   4.813  10.700   3.275  0.6007  1.0707  0.0465
  761MOL0     C  338   4.690  10.653   3.331 -0.2217 -0.4896  0.3298
  761MOL0     C  339   4.588  10.713   3.265  0.3169 -0.4227 -0.4005
  761MOL0     C  340   4.441  10.685   3.294  0.1071  0.1443 -0.3220
  761MOL0     C  341   4.361  10.682   3.168  0.3438 -0.2819  0.2097
  761MOL0     C  342   4.215  10.636   3.179  0.6609  0.3232  0.1592
  761MOL0     C  343   4.128  10.707   3.276  0.7435 -0.1590 -0.4025
  761MOL0     O  344   3.992  10.673   3.250 -0.0241 -0.0483 -0.1208
  761MOL0     C  345   3.889  10.749   3.290  0.1922 -0.3105 -0.5191
  761MOL0     C  346   3.768  10.693   3.254  0.3697  0.3766 -0.3981
  761MOL0     C  347   3.646  10.750   3.290  0.5256  0.1582 -0.2702
  761MOL0     C  348   3.643  10.864   3.380 -0.0159 -0.6088  0.0854
  761MOL0     C  349   3.508  10.917   3.432 -0.9732 -0.2802 -0.3471
  761MOL0     O  350   3.402  10.846   3.386  0.1705  0.7707  0.3029
  761MOL0     C  351   3.265  10.887   3.406  0.3099 -0.5739  0.1140
  761MOL0     C  352   3.159  10.790   3.428  0.0583 -0.4648 -0.4695
  761MOL0     C  353   3.025  10.841   3.446 -0.5149  0.4073 -0.4737
  761MOL0     C  354   2.995  10.970   3.415  0.1728  0.0567 -0.8901
  761MOL0     O  355   2.869  11.002   3.407  0.4509  0.0832 -0.5449
  761MOL0     C  356   2.826  11.131   3.350 -0.0492 -0.0369 -0.7439
  761MOL0     C  357   2.674  11.153   3.357  0.1320 -0.0391  0.6568
  761MOL0     C  358   2.633  11.277   3.269  0.9950  0.8150 -0.6289
  761MOL0     C  359   2.661  11.250   3.120 -0.3932 -0.2786  0.4283
  761MOL0     C  360   2.618  11.358   3.016  0.0676  0.2076 -0.0226
  761MOL0     C  361   2.679  11.492   3.048 -0.4551  1.0066 -0.4183
  761MOL0     C  362   2.658  11.606   2.950  0.2843  0.1186  0.2814
  761MOL0     C  363   2.730  11.582   2.822  0.4939 -0.4652  1.0653
  761MOL0    Cl  364   2.736  11.732   2.718  0.2226 -0.1145 -0.2968
  761MOL0     C  365   3.093  11.065   3.400  0.4425  0.6206 -0.3674
  761MOL0     C  366   3.231  11.024   3.390 -0.3826  0.0849  0.4652
  761MOL0     O  367   3.508  11.012   3.509 -0.8067 -0.3516 -0.0214
  761MOL0     C  368   3.763  10.927   3.407  0.7387  1.2474  0.0672
  761MOL0     C  369   3.883  10.866   3.368 -0.4272 -0.3740 -0.5961
  761MOL0     N  370   4.656  10.804   3.175  0.5427  0.0854  0.0264
  761MOL0     N  371   4.781  10.803   3.186  0.2108 -0.1053 -0.0766
  761MOL0     C  372   5.255  10.440   2.365 -0.3830 -0.2829  0.0908
  761MOL0     C  373   5.378  10.426   2.300  0.0144  0.5220 -0.0811
  761MOL0     C  374   5.738  10.274   2.075 -1.0003 -0.0027 -0.8754
  761MOL0     C  375   5.817  10.337   1.983  0.1872 -0.9624  0.0826
  761MOL0     C  376   5.941  10.293   1.941  0.4593 -0.1046 -0.0808
  761MOL0     C  377   6.000  10.186   2.012 -0.0039  0.3042  0.4191
  761MOL0     O  378   6.124  10.139   1.987 -0.0818  0.8708  0.2804
  761MOL0     C  379   6.211  10.243   1.928 -0.0767  0.0327  0.5592
  761MOL0     C  380   6.352  10.191   1.930  0.5792  0.1303 -0.2449
  761MOL0     C  381   6.455  10.286   1.868  0.2304 -0.7087 -0.1337
  761MOL0     C  382   6.599  10.223   1.882  0.4583 -0.1411 -0.8823
  761MOL0     C  383   6.705  10.314   1.826  0.0209 -0.0449 -0.7369
  761MOL0     C  384   6.783  10.390   1.774 -0.3774  0.5429 -0.5783
  761MOL0     C  385   5.925  10.124   2.119 -0.4373 -0.5532  0.1621
  761MOL0     C  386   5.789  10.169   2.150  0.1917  0.9637 -0.3348
  761MOL0     H  387   5.381  10.092   2.254 -0.8593 -0.4922 -1.0016
  761MOL0     H  388   5.161  10.107   2.369 -2.0996  0.8033 -0.8399
  761MOL0     H  389   5.029  10.158   2.529 -3.0436 -1.6707  2.6843
  761MOL0     H  390   4.918  10.235   2.411  1.7720 -0.4691 -1.0369
  761MOL0     H  391   4.798  10.242   2.633 -0.4456 -0.4252 -0.7932
  761MOL0     H  392   4.849  10.405   2.595  2.5286  0.6740  1.2001
  761MOL0     H  393   5.061  10.375   2.724  1.4767 -3.2107  2.9362
  761MOL0     H  394   4.996  10.229   2.783  0.2844 -1.3958 -3.0718
  761MOL0     H  395   4.901  10.515   2.797  1.5719 -0.5970 -1.8439
  761MOL0     H  396   4.789  10.387   2.851  0.1071  0.4417  2.9581
  761MOL0     H  397   5.067  10.436   2.966  0.7034 -0.1253  0.9271
  761MOL0     H  398   4.939  10.317   3.029 -2.2978  0.7372 -0.6414
  761MOL0     H  399   4.806  10.504   3.067 -0.5393  0.3616 -2.5316
  761MOL0     H  400   4.924  10.626   3.019  1.8864 -1.0104 -0.6342
  761MOL0     H  401   4.927  10.436   3.267 -0.4186 -0.9604 -1.5991
  761MOL0     H  402   5.079  10.506   3.216  0.5192 -0.6106 -1.7985
  761MOL0     H  403   5.020  10.720   3.286  0.5478 -0.3022  3.5412
  761MOL0     H  404   4.949  10.616   3.404  0.1575 -0.1263  0.7446
  761MOL0     H  405   4.687  10.572   3.404 -1.4887 -1.6203 -0.9102
  761MOL0     H  406   4.406  10.767   3.357 -1.9499  0.2941 -1.5629
  761MOL0     H  407   4.431  10.595   3.355 -1.2683  0.1214 -0.5413
  761MOL0     H  408   4.418  10.611   3.108 -2.4035 -3.1621  0.7253
  761MOL0     H  409   4.357  10.781   3.121 -2.4624 -1.3821 -2.1846
  761MOL0     H  410   4.168  10.647   3.081  0.6435 -0.8681  0.0237
  761MOL0     H  411   4.220  10.530   3.206 -1.8769  0.2479  0.5858
  761MOL0     H  412   4.142  10.815   3.267  0.1311  0.5072  4.2316
  761MOL0     H  413   4.163  10.692   3.379 -0.1378  0.8165  0.0573
  761MOL0     H  414   3.771  10.603   3.194 -0.4739  0.8356 -1.1451
  761MOL0     H  415   3.553  10.704   3.257 -0.7273  3.2868 -1.4273
  761MOL0     H  416   3.195  10.689   3.448  1.6793 -0.0115 -0.8894
  761MOL0     H  417   2.947  10.766   3.452 -0.6874  0.2679 -3.1323
  761MOL0     H  418   2.863  11.125   3.248 -2.8272  1.5029 -1.9699
  761MOL0     H  419   2.877  11.215   3.399  0.1742 -0.6040  0.0158
  761MOL0     H  420   2.659  11.168   3.464 -3.5852  1.3955  0.1004
  761MOL0     H  421   2.621  11.060   3.335 -1.0859  0.5337  1.0868
  761MOL0     H  422   2.686  11.363   3.311  1.5941 -0.2380  0.8389
  761MOL0     H  423   2.525  11.285   3.279  0.0562 -2.6810 -4.8950
  761MOL0     H  424   2.770  11.237   3.112 -0.4378 -2.0964  2.0829
  761MOL0     H  425   2.620  11.156   3.083  0.2406  0.6464 -3.0464
  761MOL0     H  426   2.508  11.359   3.017  0.0177 -0.7579 -1.7093
  761MOL0     H  427   2.656  11.316   2.922  0.6339  0.7199 -0.0268
  761MOL0     H  428   2.787  11.477   3.061 -0.7129  1.2379  2.5503
  761MOL0     H  429   2.639  11.515   3.147 -1.3438 -0.8116 -0.3045
  761MOL0     H  430   2.551  11.624   2.934  0.2299 -1.6204 -1.7074
  761MOL0     H  431   2.698  11.691   3.006  1.8321 -1.4806  1.7481
  761MOL0     H  432   2.671  11.504   2.772 -0.9063  2.2875 -1.9539
  761MOL0     H  433   2.830  11.542   2.837  0.1563 -1.1535  1.5317
  761MOL0     H  434   3.074  11.172   3.393  0.7911  0.6450 -1.1067
  761MOL0     H  435   3.302  11.106   3.388 -0.2681 -0.0345 -0.3976
  761MOL0     H  436   3.769  11.027   3.451  2.2388  0.9090  0.6965
  761MOL0     H  437   3.974  10.919   3.394 -0.6993  1.1390 -2.5302
  761MOL0     H  438   5.223  10.542   2.384  1.0837  1.0681 -3.6125
  761MOL0     H  439   5.436  10.516   2.282  1.3392 -0.4360 -0.7969
  761MOL0     H  440   5.776  10.429   1.941 -0.1636 -0.8691  0.6144
  761MOL0     H  441   5.997  10.350   1.868 -0.5496  0.2578 -0.5848
  761MOL0     H  442   6.201  10.334   1.987 -1.3600 -0.9541  1.9569
  761MOL0     H  443   6.181  10.269   1.826 -2.1387 -0.9729  0.8533
  761MOL0     H  444   6.373  10.159   2.033  1.5420 -0.5566 -0.6427
  761MOL0     H  445   6.347  10.096   1.877  0.8562  0.0299 -0.0937
  761MOL0     H  446   6.455  10.381   1.922  1.3170 -0.1185 -1.1049
  761MOL0     H  447   6.430  10.302   1.763  0.4183  2.1239  0.1706
  761MOL0     H  448   6.621  10.222   1.989  1.9266  1.9430 -1.0912
  761MOL0     H  449   6.608  10.126   1.831  1.7384 -0.9378  0.7801
  761MOL0     H  450   6.846  10.459   1.722 -0.6157  0.0842 -1.4783
  761MOL0     H  451   5.970  10.046   2.178 -4.6534 -2.6694  0.9204
  761MOL0     H  452   5.732  10.119   2.228  0.5160  2.7898  1.1562
  762MOL0     O  453   3.564   7.892   0.792  0.1405 -0.0827  0.0240
  762MOL0     C  454   3.569   7.963   0.692  0.4137  0.0173 -0.2195
  762MOL0     O  455   3.464   8.032   0.651  0.2904 -0.2820  0.0832
  762MOL0     C  456   3.359   8.061   0.737 -0.4648  1.4605  1.1227
  762MOL0     C  457   3.364   8.082   0.875  0.1630 -0.9993  0.3011
  762MOL0     C  458   3.245   8.094   0.954 -0.4379  0.4974  0.2928
  762MOL0     C  459   3.121   8.062   0.888  0.2303 -0.3307 -0.4131
  762MOL0     O  460   3.020   8.049   0.984 -0.0487  0.1081  0.3971
  762MOL0     C  461   2.900   7.988   0.939 -0.4204 -0.5155 -0.2485
  762MOL0     C  462   2.809   7.968   1.056 -0.2858  0.5431  0.1528
  762MOL0     C  463   2.674   7.904   1.024 -0.0528 -0.0881  0.5174
  762MOL0     C  464   2.620   7.818   1.139 -0.1447 -0.0153 -0.5860
  762MOL0     C  465   2.490   7.746   1.103 -0.7127  0.5187  0.1891
  762MOL0     C  466   2.425   7.699   1.229 -0.3044  0.4483  0.1526
  762MOL0     C  467   2.343   7.796   1.303  0.7210 -0.2512 -0.2973
  762MOL0     C  468   2.284   7.745   1.436 -0.1054 -0.6739  0.6043
  762MOL0     N  469   2.200   7.621   1.421  0.3078  0.9309  0.0296
  762MOL0     C  470   2.204   7.510   1.511  1.2913 -0.2021  0.7106
  762MOL0     C  471   2.107   7.428   1.464 -0.4301  0.5054 -0.4194
  762MOL0     C  472   2.055   7.305   1.538 -0.4069  0.5191 -0.0469
  762MOL0     C  473   1.931   7.236   1.491 -0.1610 -0.9902 -0.3729
  762MOL0     C  474   1.807   7.329   1.519  0.7659  0.7320 -0.4816
  762MOL0     C  475   1.680   7.271   1.466  0.0562 -0.1570 -0.6985
  762MOL0     O  476   1.570   7.374   1.466  0.5422  0.1172 -0.1248
  762MOL0     C  477   1.435   7.328   1.450 -0.6290  0.3535  0.1240
  762MOL0     C  478   1.402   7.194   1.458  0.8891  0.0489 -0.1637
  762MOL0     C  479   1.277   7.142   1.433 -0.1172 -0.3417 -0.9308
  762MOL0     C  480   1.174   7.232   1.411 -0.6429 -0.8928 -0.3523
  762MOL0     C  481   1.031   7.193   1.397  0.0358 -0.8651  0.2528
  762MOL0     O  482   0.931   7.286   1.382 -0.4600  1.2887  0.1063
  762MOL0     C  483   0.798   7.247   1.377 -0.1983  0.3283  0.1544
  762MOL0     C  484   0.745   7.136   1.312  0.3747  0.3271  0.0732
  762MOL0     C  485   0.600   7.119   1.303  0.3284 -0.0974  0.8494
  762MOL0     C  486   0.524   7.211   1.380  0.9752  0.8565 -0.2888
  762MOL0     O  487   0.398   7.165   1.414 -0.8860  0.2304  0.0899
  762MOL0     C  488   0.312   7.258   1.473 -0.6818 -0.5311  0.0674
  762MOL0     C  489   0.171   7.195   1.476 -0.8654 -0.0881 -0.0164
  762MOL0     C  490   0.061   7.299   1.504 -0.2162 -0.2291 -0.1617
  762MOL0     C  491  -0.062   7.239   1.569  0.1815  1.0569  0.6732
  762MOL0     C  492  -0.167   7.352   1.589 -0.4593 -0.0709  0.7950
  762MOL0     C  493  -0.310   7.300   1.622 -0.8317 -0.6908 -0.0118
  762MOL0     C  494  -0.318   7.204   1.731  1.0944 -0.1783 -0.6905
  762MOL0     C  495  -0.468   7.173   1.769 -0.3404  0.2633 -0.0367
  762MOL0    Cl  496  -0.537   7.085   1.631 -0.4177 -0.0814 -0.9176
  762MOL0     C  497   0.585   7.315   1.455  0.0671  0.4497 -0.1258
  762MOL0     C  498   0.719   7.335   1.454 -0.1267 -0.0599  0.1001
  762MOL0     O  499   1.014   7.072   1.392 -0.4254 -0.6738 -0.2767
  762MOL0     C  500   1.200   7.371   1.416 -0.4021 -0.2886  0.6893
  762MOL0     C  501   1.330   7.415   1.426 -0.5484 -0.1366 -0.4702
  762MOL0     N  502   2.043   7.488   1.356 -0.2511 -0.2404 -0.8055
  762MOL0     N  503   2.095   7.608   1.335 -0.0966  0.2558  0.2938
  762MOL0     C  504   3.116   8.048   0.747  0.3180 -0.1390 -0.1702
  762MOL0     C  505   3.236   8.045   0.674  0.5288 -0.4789 -0.0194
  762MOL0     C  506   3.695   7.962   0.614 -0.0738  0.7730  0.5525
  762MOL0     C  507   3.718   8.074   0.527  0.1683 -0.2614  0.1251
  762MOL0     C  508   3.823   8.078   0.443 -0.5343 -0.8219  0.7012
  762MOL0     C  509   3.923   7.976   0.447 -0.3287 -0.0063 -0.1855
  762MOL0     O  510   4.037   7.967   0.372  0.2948 -0.1780 -0.3085
  762MOL0     C  511   4.083   8.071   0.297 -0.1793 -0.0550  1.0953
  762MOL0     C  512   4.208   8.022   0.220  0.0433 -0.4268  0.3345
  762MOL0     C  513   4.279   8.137   0.152  0.1698  0.3587  0.3436
  762MOL0     C  514   4.413   8.091   0.099 -0.3545 -0.3095  0.6473
  762MOL0     C  515   4.502   8.206   0.091  0.4739 -0.4758 -0.2610
  762MOL0     C  516   4.560   8.310   0.082  0.2050 -0.8509 -0.0372
  762MOL0     C  517   3.916   7.880   0.542  0.1990  0.0879 -0.2386
  762MOL0     C  518   3.805   7.874   0.625  0.3417  1.0691  0.0754
  762MOL0     H  519   3.464   8.096   0.916 -0.8310  0.9407  2.2629
  762MOL0     H  520   3.241   8.090   1.062 -0.7239 -0.3946  0.2596
  762MOL0     H  521   2.929   7.892   0.895 -0.9432 -0.2691 -1.1782
  762MOL0     H  522   2.848   8.053   0.867 -1.5441 -0.2735  0.7603
  762MOL0     H  523   2.803   8.064   1.107 -0.5797 -0.2187  1.6074
  762MOL0     H  524   2.858   7.901   1.128 -1.1026  1.3248  1.4847
  762MOL0     H  525   2.677   7.843   0.933  0.5032  0.5785  0.0766
  762MOL0     H  526   2.608   7.984   0.990 -0.1526 -0.7153 -0.8412
  762MOL0     H  527   2.693   7.742   1.167 -2.6741 -1.6927  2.0476
  762MOL0     H  528   2.614   7.881   1.228 -0.9172 -0.8732 -0.0098
  762MOL0     H  529   2.511   7.661   1.038 -0.4913  0.6175  0.1319
  762MOL0     H  530   2.423   7.815   1.050  0.4742  0.2251 -1.7664
  762MOL0     H  531   2.499   7.656   1.298  1.5174  0.0948 -1.9006
  762MOL0     H  532   2.358   7.620   1.195  1.6828 -0.8613 -0.9110
  762MOL0     H  533   2.402   7.885   1.325 -0.8518  0.8803 -0.4995
  762MOL0     H  534   2.259   7.833   1.244 -0.3176 -1.2146  0.5517
  762MOL0     H  535   2.216   7.821   1.475  0.4799 -0.2121  0.7322
  762MOL0     H  536   2.357   7.736   1.516  0.3899 -2.0515  0.0257
  762MOL0     H  537   2.262   7.497   1.602  0.5281 -2.9895  0.8932
  762MOL0     H  538   2.043   7.331   1.643 -2.3980 -1.0543  0.1756
  762MOL0     H  539   2.130   7.224   1.537  0.6707  1.2918 -4.5579
  762MOL0     H  540   1.915   7.141   1.542  1.1942 -1.0925 -0.0984
  762MOL0     H  541   1.925   7.220   1.383 -3.2074 -3.1811 -0.0147
  762MOL0     H  542   1.785   7.343   1.625 -4.5367  2.8109 -1.5528
  762MOL0     H  543   1.808   7.428   1.472 -1.9649  1.5329  0.9711
  762MOL0     H  544   1.656   7.181   1.524  1.0310  0.6329  1.0268
  762MOL0     H  545   1.691   7.232   1.364 -3.5017 -0.6280 -1.0189
  762MOL0     H  546   1.479   7.119   1.473  3.3232  2.1290 -1.6089
  762MOL0     H  547   1.262   7.035   1.445 -0.3243 -0.5072 -2.5579
  762MOL0     H  548   0.817   7.068   1.268 -2.1442 -0.8915 -2.5390
  762MOL0     H  549   0.556   7.036   1.248 -1.5341  0.6643  1.0923
  762MOL0     H  550   0.304   7.345   1.407  1.5168 -1.6589 -1.8010
  762MOL0     H  551   0.334   7.281   1.577 -0.3443 -0.4108 -0.0291
  762MOL0     H  552   0.160   7.118   1.553 -1.6845 -2.3308 -2.2424
  762MOL0     H  553   0.147   7.135   1.388  1.1141 -1.9624  0.6384
  762MOL0     H  554   0.029   7.349   1.411  1.9820  0.0976 -0.8098
  762MOL0     H  555   0.098   7.378   1.570 -1.9397  1.0028 -0.5936
  762MOL0     H  556  -0.093   7.164   1.496  0.5269  1.4740  0.0892
  762MOL0     H  557  -0.039   7.185   1.661 -0.4891 -0.1642  0.1437
  762MOL0     H  558  -0.169   7.402   1.491  3.4771 -1.0034  0.0870
  762MOL0     H  559  -0.133   7.417   1.670 -1.7128  2.1549 -0.3508
  762MOL0     H  560  -0.342   7.239   1.537  0.6178  1.0895 -1.9170
  762MOL0     H  561  -0.374   7.383   1.653 -0.3669 -0.1709 -0.4342
  762MOL0     H  562  -0.273   7.108   1.702 -1.7281 -1.7275 -0.2353
  762MOL0     H  563  -0.261   7.240   1.817  1.4380 -0.1252 -0.9363
  762MOL0     H  564  -0.535   7.255   1.798  0.8482  1.5797 -0.8886
  762MOL0     H  565  -0.472   7.107   1.856  1.4960 -0.1837 -0.2434
  762MOL0     H  566   0.531   7.381   1.521  2.8065  3.0284 -0.2660
  762MOL0     H  567   0.767   7.412   1.513 -2.2879 -0.6263  2.8231
  762MOL0     H  568   1.116   7.438   1.399 -0.6939 -1.0579 -1.1644
  762MOL0     H  569   1.359   7.519   1.431 -1.0421 -0.0424  0.5289
  762MOL0     H  570   3.021   8.021   0.702  1.1932 -1.2314 -1.4673
  762MOL0     H  571   3.232   8.009   0.571 -1.7645  2.1015 -0.9637
  762MOL0     H  572   3.652   8.160   0.524 -0.3218 -0.6182  0.4388
  762MOL0     H  573   3.838   8.167   0.382  1.0779 -1.1210  0.6375
  762MOL0     H  574   4.114   8.154   0.361  3.2157 -0.2891 -0.0125
  762MOL0     H  575   4.008   8.112   0.228 -0.2823 -3.4710 -1.0405
  762MOL0     H  576   4.277   7.978   0.292  0.8267 -2.2716 -1.4271
  762MOL0     H  577   4.178   7.946   0.147  2.8472 -1.0970 -0.2363
  762MOL0     H  578   4.288   8.212   0.231 -0.6229  0.0043  0.7855
  762MOL0     H  579   4.220   8.175   0.069  3.5999  2.7586 -1.2067
  762MOL0     H  580   4.471   8.011   0.146 -1.2509 -1.3068  0.1177
  762MOL0     H  581   4.388   8.055  -0.002  0.9291  0.0906  0.1697
  762MOL0     H  582   4.614   8.401   0.066 -0.1976 -0.5561  0.2533
  762MOL0     H  583   4.003   7.815   0.545  0.8330  0.9217  1.4853
  762MOL0     H  584   3.794   7.797   0.700  2.4863  2.1512  1.5887
  763MOL0     O  585   3.613   7.465   8.623 -0.0605 -0.1517  0.3707
  763MOL0     C  586   3.713   7.423   8.562 -0.3453 -0.0976 -0.4240
  763MOL0     O  587   3.751   7.459   8.432  0.1478  0.1623 -0.2505
  763MOL0     C  588   3.666   7.544   8.355 -0.5304 -0.3391  0.1561
  763MOL0     C  589   3.528   7.517   8.341  0.4702  1.0173  0.7467
  763MOL0     C  590   3.434   7.611   8.282 -0.8764  0.3071  0.5062
  763MOL0     C  591   3.492   7.732   8.231  0.0440  0.4423 -0.0435
  763MOL0     O  592   3.402   7.824   8.178 -0.0452 -0.4275 -0.2062
  763MOL0     C  593   3.450   7.911   8.073 -0.6583  0.3770  0.3192
  763MOL0     C  594   3.323   7.965   7.998  0.3217  0.3896 -0.0608
  763MOL0     C  595   3.236   8.052   8.080 -0.6515 -0.1998  0.6120
  763MOL0     C  596   3.130   8.118   7.984  0.1998  1.1308  0.4364
  763MOL0     C  597   3.050   8.233   8.047  0.7468  0.3990 -0.3920
  763MOL0     C  598   2.982   8.333   7.932 -0.5888  0.6032 -0.1764
  763MOL0     C  599   2.890   8.437   8.003  1.0186 -0.6542 -0.5351
  763MOL0     C  600   2.822   8.547   7.919 -0.4628  0.7486  0.3613
  763MOL0     N  601   2.741   8.639   8.003  0.3691  0.7745 -0.0893
  763MOL0     C  602   2.677   8.609   8.114  0.1431  0.0134  0.0864
  763MOL0     C  603   2.636   8.730   8.173  0.6994 -0.8877 -0.1780
  763MOL0     C  604   2.551   8.735   8.295  0.1570 -0.2620  0.1710
  763MOL0     C  605   2.411   8.776   8.257  1.2297  0.2453  0.3810
  763MOL0     C  606   2.304   8.739   8.368 -0.6483 -0.1447 -0.2783
  763MOL0     C  607   2.343   8.799   8.509  0.2656  0.0117  0.8722
  763MOL0     O  608   2.344   8.950   8.503  0.4572  0.1752  0.0213
  763MOL0     C  609   2.227   9.019   8.495  0.2873 -0.1803  0.1174
  763MOL0     C  610   2.100   8.967   8.523 -0.3773  0.6041  0.7264
  763MOL0     C  611   1.986   9.044   8.510 -0.5392 -0.2339  0.8659
  763MOL0     C  612   1.998   9.185   8.471 -0.4479 -0.1528 -1.4776
  763MOL0     C  613   1.877   9.273   8.461 -0.3325 -0.9524  0.2611
  763MOL0     O  614   1.914   9.399   8.471 -0.3040  0.1400 -0.0063
  763MOL0     C  615   1.822   9.513   8.457 -0.5838 -0.0346 -0.3491
  763MOL0     C  616   1.685   9.520   8.468 -0.0880  0.8441  0.0822
  763MOL0     C  617   1.614   9.635   8.489 -0.3854  0.2729  0.1930
  763MOL0     C  618   1.676   9.757   8.470  0.0810 -0.0899 -0.2046
  763MOL0     O  619   1.595   9.866   8.466 -0.5795  0.1711  0.6648
  763MOL0     C  620   1.650   9.982   8.525  0.7205 -0.0921 -0.2025
  763MOL0     C  621   1.535  10.082   8.524 -0.3305 -0.3551  0.1436
  763MOL0     C  622   1.591  10.212   8.574  0.4575 -0.0572  0.1422
  763MOL0     C  623   1.478  10.317   8.552 -0.2493 -0.2522 -0.4256
  763MOL0     C  624   1.525  10.467   8.580  0.8751 -0.0901 -0.2747
  763MOL0     C  625   1.605  10.544   8.470 -0.1743 -0.6656 -0.8721
  763MOL0     C  626   1.750  10.504   8.473  0.1201 -0.2207  0.1109
  763MOL0     C  627   1.829  10.617   8.389  0.9267  0.0789 -0.2113
  763MOL0    Cl  628   1.856  10.754   8.501  0.1219 -0.0928 -0.3289
  763MOL0     C  629   1.814   9.752   8.448 -0.5671  0.4331 -0.4427
  763MOL0     C  630   1.884   9.638   8.443  0.4511  0.5147  0.2391
  763MOL0     O  631   1.770   9.227   8.428 -1.3145 -1.0694 -0.1684
  763MOL0     C  632   2.132   9.239   8.450  0.7370 -0.4292 -0.6512
  763MOL0     C  633   2.239   9.157   8.466 -0.1151  0.0611  0.7063
  763MOL0     N  634   2.681   8.827   8.081  0.8617  0.9288 -0.4304
  763MOL0     N  635   2.736   8.772   7.983  0.6066 -0.6077 -0.5065
  763MOL0     C  636   3.624   7.761   8.246 -0.0042  1.1202 -0.0464
  763MOL0     C  637   3.712   7.674   8.306 -0.3128 -0.1454 -0.4380
  763MOL0     C  638   3.807   7.335   8.638  0.0012  0.0772 -0.2322
  763MOL0     C  639   3.763   7.278   8.762 -0.3915  0.5939  0.4577
  763MOL0     C  640   3.858   7.211   8.838  0.4866 -1.2605  0.2247
  763MOL0     C  641   3.986   7.186   8.790 -0.0159  0.5587  0.1931
  763MOL0     O  642   4.079   7.107   8.853 -0.0271  0.2600 -0.1181
  763MOL0     C  643   4.052   7.046   8.983 -0.2058 -0.1006  0.7541
  763MOL0     C  644   3.973   6.916   8.971  1.3504 -0.7084 -0.9992
  763MOL0     C  645   4.005   6.838   9.094 -0.1517  0.2144 -0.1560
  763MOL0     C  646   3.927   6.703   9.106 -0.3300  0.8864 -0.3544
  763MOL0     C  647   3.790   6.728   9.134  1.4078 -0.4307 -0.2449
  763MOL0     C  648   3.667   6.739   9.153 -0.1976 -0.4397 -0.6939
  763MOL0     C  649   4.027   7.222   8.657 -0.0636  0.6328  0.2370
  763MOL0     C  650   3.936   7.306   8.588 -0.0659 -0.9812 -0.8269
  763MOL0     H  651   3.500   7.420   8.382  2.7014 -0.1596 -0.3189
  763MOL0     H  652   3.328   7.592   8.271 -0.8530  1.2262 -2.2234
  763MOL0     H  653   3.506   7.851   8.001 -1.3753  0.8494 -0.6657
  763MOL0     H  654   3.512   7.994   8.108  1.1245 -1.0439  0.6781
  763MOL0     H  655   3.263   7.887   7.951  2.5157  0.7178 -3.8227
  763MOL0     H  656   3.364   8.024   7.915  2.5743  3.1550  2.7840
  763MOL0     H  657   3.295   8.131   8.129 -1.2241 -0.9136  2.5554
  763MOL0     H  658   3.188   8.000   8.163 -0.6383  1.0986  1.4602
  763MOL0     H  659   3.172   8.163   7.894 -3.0825  2.0027 -0.8066
  763MOL0     H  660   3.057   8.043   7.952  2.5518  0.6723 -5.1552
  763MOL0     H  661   3.117   8.290   8.113  0.6641 -0.4622  0.4539
  763MOL0     H  662   2.969   8.182   8.101  1.6651 -0.3437  0.3335
  763MOL0     H  663   2.925   8.275   7.860 -2.1864  0.5577  1.0604
  763MOL0     H  664   3.065   8.381   7.880 -0.1693 -0.7644 -0.8145
  763MOL0     H  665   2.816   8.380   8.060  1.8472  0.6148  1.9857
  763MOL0     H  666   2.963   8.480   8.072  0.0136 -0.3238  0.3445
  763MOL0     H  667   2.763   8.496   7.843 -0.3471  0.0297  0.7476
  763MOL0     H  668   2.900   8.608   7.872  1.7048 -0.6169  1.9697
  763MOL0     H  669   2.658   8.512   8.161 -0.8321 -0.7589 -1.7973
  763MOL0     H  670   2.592   8.804   8.370  0.3324  0.5333 -0.6368
  763MOL0     H  671   2.541   8.635   8.337  0.3516 -0.9555 -1.3917
  763MOL0     H  672   2.376   8.717   8.172 -0.6804 -0.3130  1.4843
  763MOL0     H  673   2.410   8.881   8.226 -1.2623  0.0243 -0.5309
  763MOL0     H  674   2.209   8.785   8.337 -0.1072  0.7917 -0.5886
  763MOL0     H  675   2.290   8.631   8.382  0.1950  0.0882  3.1685
  763MOL0     H  676   2.438   8.759   8.547  0.7772  0.1386 -0.2351
  763MOL0     H  677   2.270   8.770   8.585 -0.9707 -0.8185 -0.5698
  763MOL0     H  678   2.097   8.863   8.553  1.0774  0.1114 -0.6483
  763MOL0     H  679   1.889   9.002   8.535 -1.3912  1.4152  0.4564
  763MOL0     H  680   1.622   9.431   8.476  0.0857  0.6671 -0.5352
  763MOL0     H  681   1.506   9.635   8.501 -0.5011  0.8966 -0.7024
  763MOL0     H  682   1.730  10.019   8.460 -0.2200  0.4421 -1.0768
  763MOL0     H  683   1.675   9.975   8.632 -2.5895  0.6841  0.7383
  763MOL0     H  684   1.467  10.041   8.599  0.7850 -1.4150  0.6031
  763MOL0     H  685   1.488  10.084   8.426 -0.8739 -1.1654  0.3784
  763MOL0     H  686   1.680  10.241   8.518  0.4931  1.9995  1.1642
  763MOL0     H  687   1.609  10.192   8.681 -1.4045 -0.2899  0.4426
  763MOL0     H  688   1.454  10.307   8.446 -1.3356  2.3799 -0.5174
  763MOL0     H  689   1.389  10.288   8.607  0.9785 -1.2212  1.1236
  763MOL0     H  690   1.576  10.464   8.677 -0.1249 -3.6609  0.2902
  763MOL0     H  691   1.433  10.517   8.609  0.9645 -0.1842  0.1773
  763MOL0     H  692   1.601  10.649   8.498  1.5661 -0.0513 -2.6685
  763MOL0     H  693   1.562  10.537   8.370  0.6653  3.1418 -1.6650
  763MOL0     H  694   1.784  10.500   8.577 -1.0722  0.3696  0.5426
  763MOL0     H  695   1.761  10.408   8.422  2.7558  0.2547 -0.3486
  763MOL0     H  696   1.779  10.650   8.297  1.1280 -1.4057 -0.8912
  763MOL0     H  697   1.921  10.566   8.358  0.3120 -0.1239 -1.7989
  763MOL0     H  698   1.877   9.840   8.438  1.1012 -0.3791  1.9170
  763MOL0     H  699   1.991   9.637   8.430  0.5287  1.2552  0.7551
  763MOL0     H  700   2.136   9.340   8.411 -0.9798 -0.8593 -2.0470
  763MOL0     H  701   2.337   9.198   8.445 -0.9045  2.7459  1.8065
  763MOL0     H  702   3.671   7.857   8.226  2.8482 -0.6142 -2.4665
  763MOL0     H  703   3.809   7.710   8.336 -1.3010  2.1576  0.2400
  763MOL0     H  704   3.659   7.283   8.793 -0.6734  0.7910 -0.4783
  763MOL0     H  705   3.826   7.157   8.926 -0.5881  0.6361  1.0451
  763MOL0     H  706   4.013   7.119   9.056  1.9709 -1.4094  3.4223
  763MOL0     H  707   4.152   7.026   9.021  0.2640  2.9379  1.3978
  763MOL0     H  708   3.864   6.921   8.963  0.8433 -2.9499  2.3264
  763MOL0     H  709   4.005   6.857   8.885 -1.4459 -1.4042 -1.6694
  763MOL0     H  710   3.987   6.897   9.185  0.7500 -0.3973  0.4323
  763MOL0     H  711   4.112   6.821   9.085 -0.4190 -0.7190 -2.3075
  763MOL0     H  712   3.943   6.638   9.019  2.3278 -0.1002  0.7577
  763MOL0     H  713   3.968   6.653   9.194  2.4530  0.5371 -1.7278
  763MOL0     H  714   3.562   6.734   9.174  0.0918  2.2186  2.0802
  763MOL0     H  715   4.119   7.190   8.609 -0.2294 -0.8606  0.8568
  763MOL0     H  716   3.978   7.352   8.499  1.0530 -0.8500 -0.2486
  764MOL0     O  717   5.372   9.943   2.034 -0.3519  0.8784 -0.2039
  764MOL0     C  718   5.354   9.911   1.918  1.3573  0.6626 -0.7079
  764MOL0     O  719   5.260   9.817   1.886 -0.4852 -0.1485  0.1317
  764MOL0     C  720   5.172   9.774   1.985  0.6584 -0.7998  0.0907
  764MOL0     C  721   5.202   9.643   2.046 -0.7441 -0.4941  0.6546
  764MOL0     C  722   5.101   9.594   2.131  1.0911 -0.2318  0.0354
  764MOL0     C  723   4.990   9.676   2.166 -0.5450  0.1612  0.6843
  764MOL0     O  724   4.902   9.645   2.262 -0.3270 -0.4808  0.0452
  764MOL0     C  725   4.838   9.523   2.243 -0.4994  0.8257  0.4425
  764MOL0     C  726   4.695   9.541   2.263 -0.1459 -0.0211 -0.5315
  764MOL0     C  727   4.623   9.606   2.139  0.1948 -0.1464 -0.2900
  764MOL0     C  728   4.481   9.637   2.179 -0.7726  0.8231  0.9297
  764MOL0     C  729   4.415   9.710   2.062 -0.1035  0.5668 -0.3199
  764MOL0     C  730   4.267   9.737   2.101  0.5158 -0.1886  0.3430
  764MOL0     C  731   4.194   9.812   1.980 -0.0229 -0.1340  0.1674
  764MOL0     C  732   4.234   9.964   1.982 -0.9135  0.5796 -0.1418
  764MOL0     N  733   4.175  10.034   1.871 -0.0652 -0.2047  0.0869
  764MOL0     C  734   4.040  10.061   1.863 -0.1678 -0.1572  0.5204
  764MOL0     C  735   4.018  10.146   1.763  0.1947  0.7289 -0.8064
  764MOL0     C  736   3.880  10.192   1.716  0.0870  0.7427 -0.2823
  764MOL0     C  737   3.770  10.143   1.797 -0.1758  0.5006 -0.0689
  764MOL0     C  738   3.642  10.205   1.742  0.5120  0.2020  0.6929
  764MOL0     C  739   3.520  10.184   1.836  0.0060 -0.5465 -0.3171
  764MOL0     O  740   3.530  10.050   1.896  0.3198 -0.1589 -0.5721
  764MOL0     C  741   3.429   9.999   1.976  0.1639 -0.7028  0.4640
  764MOL0     C  742   3.424   9.864   1.996  0.3350 -0.5886 -0.3033
  764MOL0     C  743   3.334   9.800   2.091 -0.0056  0.0561 -0.2731
  764MOL0     C  744   3.240   9.880   2.159  0.1712 -0.1671 -0.2092
  764MOL0     C  745   3.134   9.809   2.238 -0.4287  0.6603  0.3598
  764MOL0     O  746   3.048   9.889   2.298  0.5905  0.5978 -0.5527
  764MOL0     C  747   2.962   9.849   2.395  0.0052  0.7235 -0.1478
  764MOL0     C  748   2.863   9.750   2.374 -0.0852 -0.0750  1.0086
  764MOL0     C  749   2.769   9.724   2.479  0.3354  0.8857 -0.7053
  764MOL0     C  750   2.761   9.800   2.593 -0.5735 -0.8774  0.2008
  764MOL0     O  751   2.671   9.768   2.695 -0.0825 -0.0766 -0.1122
  764MOL0     C  752   2.537   9.730   2.668  0.2228  0.0842 -0.1273
  764MOL0     C  753   2.456   9.710   2.800 -0.2520 -0.2464 -0.0919
  764MOL0     C  754   2.311   9.666   2.772 -0.2393 -0.1743 -0.7537
  764MOL0     C  755   2.247   9.639   2.906 -0.2150  0.2985  0.0624
  764MOL0     C  756   2.111   9.575   2.882  0.2937 -0.7184 -0.2550
  764MOL0     C  757   2.050   9.532   3.016  0.1211  0.8323 -0.0203
  764MOL0     C  758   1.904   9.486   3.000  0.6431 -0.2700  0.0200
  764MOL0     C  759   1.844   9.432   3.124 -0.2842  0.6981 -0.7405
  764MOL0    Cl  760   1.847   9.561   3.256  0.0019  0.0714 -0.3900
  764MOL0     C  761   2.860   9.895   2.606  0.0306 -0.3517  0.1265
  764MOL0     C  762   2.966   9.913   2.514  0.8548 -0.0026  0.5958
  764MOL0     O  763   3.134   9.689   2.244  0.2201  0.1292  0.6222
  764MOL0     C  764   3.241  10.015   2.131 -0.4917 -0.0392  0.4259
  764MOL0     C  765   3.337  10.073   2.052  0.4790 -0.6098  0.5278
  764MOL0     N  766   4.142  10.168   1.703  0.1698 -0.8775 -0.3974
  764MOL0     N  767   4.230  10.112   1.774  0.1232 -0.0054  0.3768
  764MOL0     C  768   4.972   9.798   2.104 -1.1203  1.0408  0.3060
  764MOL0     C  769   5.055   9.846   2.011 -0.2057 -0.0468  0.5228
  764MOL0     C  770   5.421   9.988   1.815  0.2139  1.2787 -1.1744
  764MOL0     C  771   5.396   9.952   1.677  0.5930  0.3256 -0.0387
  764MOL0     C  772   5.460  10.025   1.577  0.2341  0.4169 -0.1710
  764MOL0     C  773   5.558  10.126   1.604  0.5654 -0.2705  0.1892
  764MOL0     O  774   5.625  10.208   1.510 -0.1310 -0.3939  0.2163
  764MOL0     C  775   5.561  10.221   1.384 -1.3422 -0.2896  0.5619
  764MOL0     C  776   5.631  10.324   1.293 -0.2305  0.5708  0.2825
  764MOL0     C  777   5.782  10.305   1.276 -0.4056 -0.4631  0.2986
  764MOL0     C  778   5.826  10.382   1.152 -0.1084 -0.3129 -0.2805
  764MOL0     C  779   5.968  10.346   1.128 -0.0062 -0.8278 -0.5152
  764MOL0     C  780   6.077  10.297   1.117  0.0776 -0.4982  0.4776
  764MOL0     C  781   5.577  10.154   1.737  0.0569  0.4164 -0.1895
  764MOL0     C  782   5.515  10.086   1.839  0.1399 -0.1466  0.6021
  764MOL0     H  783   5.297   9.590   2.039 -1.2565 -1.6213  1.6555
  764MOL0     H  784   5.104   9.494   2.173  1.3035 -0.0164  0.5469
  764MOL0     H  785   4.875   9.450   2.315  0.8590  0.8193 -0.2412
  764MOL0     H  786   4.862   9.484   2.144  0.2789 -1.0217  1.3095
  764MOL0     H  787   4.681   9.596   2.357 -0.3243 -2.7676  1.1402
  764MOL0     H  788   4.655   9.442   2.286  1.4750 -0.3431  1.1470
  764MOL0     H  789   4.623   9.541   2.051 -1.0314  2.4816 -2.3796
  764MOL0     H  790   4.657   9.703   2.099 -0.2427 -0.2855 -1.0225
  764MOL0     H  791   4.414   9.553   2.198 -0.8884  0.5932 -0.3991
  764MOL0     H  792   4.488   9.702   2.267  1.1144  0.1466  1.3316
  764MOL0     H  793   4.420   9.638   1.980  0.2745 -0.5777  0.6697
  764MOL0     H  794   4.463   9.805   2.035 -2.2863  1.6201 -0.6790
  764MOL0     H  795   4.256   9.785   2.199 -3.4368 -2.7283  1.3996
  764MOL0     H  796   4.218   9.640   2.112  0.5140 -0.1319  0.8447
  764MOL0     H  797   4.217   9.767   1.883  1.4978 -1.6248  1.1402
  764MOL0     H  798   4.087   9.805   2.002 -0.0472 -0.7941 -0.1139
  764MOL0     H  799   4.343   9.970   1.987 -1.0580  2.9827  2.4248
  764MOL0     H  800   4.206  10.003   2.080  0.8378 -3.6986  2.3297
  764MOL0     H  801   3.962  10.013   1.922 -0.4809 -0.5247 -0.1820
  764MOL0     H  802   3.878  10.144   1.618  0.7154 -1.3260  0.6522
  764MOL0     H  803   3.878  10.301   1.712 -0.8920  0.6994 -1.6751
  764MOL0     H  804   3.793  10.166   1.902 -1.5729 -0.4672  0.4866
  764MOL0     H  805   3.762  10.035   1.783 -1.1896  0.6238 -0.5253
  764MOL0     H  806   3.659  10.312   1.734  0.0968  0.1322 -1.8015
  764MOL0     H  807   3.609  10.164   1.646 -0.1632 -0.9251  1.3717
  764MOL0     H  808   3.424  10.208   1.791  0.0712  1.6141  0.5644
  764MOL0     H  809   3.532  10.252   1.921  3.9271 -0.0529 -1.0610
  764MOL0     H  810   3.495   9.806   1.937  0.1568 -3.6703  2.2172
  764MOL0     H  811   3.335   9.692   2.083  1.1247  0.2274 -4.2590
  764MOL0     H  812   2.868   9.697   2.280 -0.2715  3.4407 -1.1734
  764MOL0     H  813   2.705   9.636   2.471 -0.0057  0.8226  1.9054
  764MOL0     H  814   2.539   9.635   2.614 -0.2396 -0.3699  0.6339
  764MOL0     H  815   2.492   9.803   2.600 -0.3440 -0.9287 -0.8697
  764MOL0     H  816   2.446   9.809   2.845 -0.9462 -0.3171 -0.0731
  764MOL0     H  817   2.511   9.651   2.873 -2.4590  0.1746  2.0528
  764MOL0     H  818   2.313   9.571   2.717 -0.1386 -0.6485  0.0578
  764MOL0     H  819   2.259   9.742   2.712  0.1268  0.0389 -0.8021
  764MOL0     H  820   2.305   9.571   2.969 -2.2939 -0.2926  1.4611
  764MOL0     H  821   2.235   9.733   2.959  0.7374  1.8492 -2.3052
  764MOL0     H  822   2.118   9.493   2.810  1.0340  0.2790 -1.3389
  764MOL0     H  823   2.047   9.650   2.835  0.9095 -1.0642 -1.6996
  764MOL0     H  824   2.035   9.616   3.085 -1.6621  0.1526  0.4872
  764MOL0     H  825   2.113   9.460   3.069 -0.3998  0.4595  0.1001
  764MOL0     H  826   1.845   9.571   2.965  3.1165  0.5309 -2.5715
  764MOL0     H  827   1.888   9.416   2.918  0.5837  1.3230 -1.3766
  764MOL0     H  828   1.886   9.339   3.163 -2.1846  0.0281 -0.1782
  764MOL0     H  829   1.741   9.400   3.101  0.4057 -1.3029 -1.2443
  764MOL0     H  830   2.861   9.962   2.691 -1.1939 -1.5052  1.1093
  764MOL0     H  831   3.046   9.987   2.521  1.6034 -0.5437 -1.3563
  764MOL0     H  832   3.158  10.073   2.171 -1.3128 -0.4633 -0.6086
  764MOL0     H  833   3.324  10.180   2.036  0.1948 -0.6134  0.7222
  764MOL0     H  834   4.910   9.872   2.154  0.0301  2.6784 -0.6218
  764MOL0     H  835   5.029   9.940   1.964  0.8558  0.5730  1.1333
  764MOL0     H  836   5.323   9.877   1.651  1.5277 -1.0871  1.1995
  764MOL0     H  837   5.437   9.990   1.477 -2.9715  1.1629  0.1809
  764MOL0     H  838   5.459  10.256   1.400 -1.1725  0.2510  0.5013
  764MOL0     H  839   5.557  10.131   1.322 -0.9061  1.3034 -1.9395
  764MOL0     H  840   5.592  10.314   1.191 -1.7222  0.1172  0.8735
  764MOL0     H  841   5.612  10.426   1.325 -1.9183  0.5327 -0.4863
  764MOL0     H  842   5.801  10.197   1.273 -0.5430 -0.4719 -0.3170
  764MOL0     H  843   5.832  10.352   1.361 -2.5800  1.2131  0.7388
  764MOL0     H  844   5.768  10.352   1.065  0.0263 -0.1292 -0.4358
  764MOL0     H  845   5.815  10.490   1.172 -4.1835 -1.1160  3.3198
  764MOL0     H  846   6.176  10.257   1.106  0.0160 -1.0841  1.8841
  764MOL0     H  847   5.655  10.226   1.760 -0.1619  0.7006 -0.3382
  764MOL0     H  848   5.531  10.110   1.944 -2.3852  2.7947  0.4448
  765MOL0     O  849  10.196   0.176  10.750 -0.9585  0.2199  0.0459
  765MOL0     C  850  10.225   0.236  10.854 -0.1997 -0.6321 -0.2909
  765MOL0     O  851  10.153   0.343  10.905 -0.6922 -0.0068  0.6235
  765MOL0     C  852  10.036   0.380  10.828 -0.8258 -0.1805  0.4579
  765MOL0     C  853  10.033   0.420  10.696  0.4242  0.6227  0.9013
  765MOL0     C  854   9.914   0.464  10.637  0.4182 -0.1947 -0.7563
  765MOL0     C  855   9.798   0.491  10.721 -0.0619 -0.1984  0.4439
  765MOL0     O  856   9.669   0.531  10.675  0.5239  0.4080 -0.3126
  765MOL0     C  857   9.648   0.534  10.537 -0.7753 -0.3105  0.7587
  765MOL0     C  858   9.506   0.578  10.499 -0.4836 -0.1967 -0.1035
  765MOL0     C  859   9.500   0.735  10.506 -0.6620  0.0224  0.1463
  765MOL0     C  860   9.350   0.778  10.528  0.8921 -0.5200 -0.3563
  765MOL0     C  861   9.261   0.725  10.410 -0.1944 -0.4014 -0.4449
  765MOL0     C  862   9.121   0.760  10.429  0.9803 -0.6840 -0.2850
  765MOL0     C  863   9.047   0.733  10.303 -0.1360  1.6182 -0.1295
  765MOL0     C  864   9.074   0.813  10.182 -0.3173  0.2778  0.4097
  765MOL0     N  865   8.955   0.830  10.094  0.0076  0.2426 -0.0662
  765MOL0     C  866   8.904   0.734  10.014 -0.2272 -0.5138 -1.0757
  765MOL0     C  867   8.791   0.779   9.974 -0.5405  0.2831 -0.4564
  765MOL0     C  868   8.703   0.697   9.885  0.9701 -0.5611 -0.1165
  765MOL0     C  869   8.555   0.744   9.880  0.1752 -0.3164 -0.1295
  765MOL0     C  870   8.476   0.661   9.775 -0.1833  0.0269 -0.1895
  765MOL0     C  871   8.331   0.702   9.745 -0.2517  0.1257  0.0276
  765MOL0     O  872   8.239   0.683   9.854  0.0817  0.0311  0.4553
  765MOL0     C  873   8.100   0.690   9.817  0.3549 -0.8419  0.1908
  765MOL0     C  874   8.042   0.640   9.694  0.2633  0.1572 -0.3478
  765MOL0     C  875   7.901   0.661   9.678 -0.0077 -0.8698  0.5653
  765MOL0     C  876   7.827   0.728   9.771 -0.0580  0.5546  0.3462
  765MOL0     C  877   7.676   0.736   9.749 -0.0349 -0.1951  0.8825
  765MOL0     O  878   7.607   0.812   9.846 -0.3103  0.8271 -0.4306
  765MOL0     C  879   7.475   0.791   9.860  0.0090 -0.3629 -0.2893
  765MOL0     C  880   7.430   0.728   9.975  1.2312  0.3976  0.1105
  765MOL0     C  881   7.293   0.707   9.993  0.4099 -0.0928 -0.0221
  765MOL0     C  882   7.203   0.760   9.895 -1.0243  0.6427  0.0746
  765MOL0     O  883   7.065   0.753   9.894 -0.1618  0.3069 -0.6788
  765MOL0     C  884   6.996   0.721  10.015  0.3701 -0.3391 -0.8085
  765MOL0     C  885   6.843   0.689   9.989 -0.3366 -0.1179 -0.6011
  765MOL0     C  886   6.752   0.695  10.111  0.0787 -0.3284 -0.7205
  765MOL0     C  887   6.608   0.681  10.072  0.1079  0.2249  0.2786
  765MOL0     C  888   6.518   0.744  10.181  0.2025  0.5456  0.0904
  765MOL0     C  889   6.377   0.695  10.150  1.0037  0.2736 -0.8145
  765MOL0     C  890   6.284   0.774  10.241  0.0654 -0.2178 -0.0545
  765MOL0     C  891   6.149   0.706  10.263 -0.8372  0.1406  0.3843
  765MOL0    Cl  892   6.059   0.694  10.114 -0.3261  0.1703  0.3669
  765MOL0     C  893   7.253   0.804   9.771  0.0127 -0.9946  0.8070
  765MOL0     C  894   7.391   0.831   9.759  0.4322  0.5871  0.4116
  765MOL0     O  895   7.621   0.663   9.660 -0.0622 -0.0950 -0.5364
  765MOL0     C  896   7.892   0.773   9.894  0.3790 -0.4960  0.4060
  765MOL0     C  897   8.027   0.757   9.912 -0.4629 -0.0801 -0.3052
  765MOL0     N  898   8.757   0.896  10.035 -0.8709 -0.2915  0.0710
  765MOL0     N  899   8.868   0.933  10.099  0.9273 -0.9165  0.3387
  765MOL0     C  900   9.808   0.468  10.858 -0.3186  0.8099 -0.9003
  765MOL0     C  901   9.928   0.412  10.908  0.0972 -0.3873 -0.1329
  765MOL0     C  902  10.340   0.188  10.939 -0.1356  0.4387  0.3446
  765MOL0     C  903  10.404   0.072  10.901 -0.1074  0.3775 -0.2957
  765MOL0     C  904  10.512   0.030  10.972  0.0786  1.1347 -0.9748
  765MOL0     C  905  10.558   0.094  11.086  0.3969 -0.3513  1.2523
  765MOL0     O  906  10.674   0.062  11.156 -0.2055 -0.3325 -0.2975
  765MOL0     C  907  10.698  -0.072  11.165  0.0650 -0.4481 -0.2964
  765MOL0     C  908  10.784  -0.086  11.289 -0.5343  0.4967 -0.6130
  765MOL0     C  909  10.836  -0.234  11.297  0.2480 -0.2574 -0.2241
  765MOL0     C  910  10.911  -0.260  11.430 -0.2551 -0.1114  0.2346
  765MOL0     C  911  10.961  -0.394  11.430  0.1244 -0.0197  0.3291
  765MOL0     C  912  11.010  -0.506  11.425  0.4046 -0.1830 -0.6829
  765MOL0     C  913  10.490   0.211  11.119  0.0007 -0.0668  0.1181
  765MOL0     C  914  10.381   0.260  11.050 -0.1811 -1.0569 -0.9197
  765MOL0     H  915  10.122   0.402  10.636 -0.7792 -4.0945  0.1288
  765MOL0     H  916   9.918   0.500  10.535  4.1106 -0.3705 -0.7866
  765MOL0     H  917   9.661   0.430  10.506 -1.5653  0.0563 -0.9714
  765MOL0     H  918   9.714   0.598  10.477  0.1345 -0.9201  1.0955
  765MOL0     H  919   9.429   0.541  10.566 -1.1340  1.8241  0.3231
  765MOL0     H  920   9.481   0.543  10.398  0.0125 -1.6562  0.2512
  765MOL0     H  921   9.544   0.769  10.412 -0.7223 -1.9252 -0.6207
  765MOL0     H  922   9.561   0.766  10.592  1.1455  0.1488 -1.1324
  765MOL0     H  923   9.303   0.742  10.620  0.2511  1.3679  0.1003
  765MOL0     H  924   9.348   0.887  10.537  0.7314 -0.7206  3.0029
  765MOL0     H  925   9.277   0.619  10.386  0.2240 -0.3373 -0.4700
  765MOL0     H  926   9.300   0.783  10.326 -1.8825  2.3123  0.5249
  765MOL0     H  927   9.099   0.866  10.447 -2.2014 -1.2844 -0.0859
  765MOL0     H  928   9.072   0.701  10.507 -1.9938  0.6491 -0.9719
  765MOL0     H  929   9.067   0.629  10.277 -3.7456  1.0870 -1.3832
  765MOL0     H  930   8.940   0.739  10.327 -0.1450  1.8798 -0.2303
  765MOL0     H  931   9.157   0.770  10.126  0.9658  0.5254  2.0615
  765MOL0     H  932   9.103   0.914  10.213  1.2914 -0.6188  1.9879
  765MOL0     H  933   8.949   0.639   9.989 -0.0560 -1.1687  1.4679
  765MOL0     H  934   8.700   0.592   9.915  0.8644 -0.4430  0.2931
  765MOL0     H  935   8.746   0.709   9.785 -0.5143  1.4190 -0.5746
  765MOL0     H  936   8.562   0.850   9.857  2.1888 -0.3392  0.2258
  765MOL0     H  937   8.517   0.729   9.982  0.7346  2.3756  0.5390
  765MOL0     H  938   8.535   0.663   9.683  2.3957  1.8434  1.3711
  765MOL0     H  939   8.490   0.557   9.806 -0.5745 -0.5700 -1.8912
  765MOL0     H  940   8.287   0.648   9.660 -0.0300  1.8106 -1.2005
  765MOL0     H  941   8.341   0.808   9.721 -0.6323  0.8796  2.8324
  765MOL0     H  942   8.091   0.572   9.624  0.6571  0.3628 -0.2711
  765MOL0     H  943   7.850   0.634   9.586  0.6658  1.0718 -0.4318
  765MOL0     H  944   7.511   0.686  10.033  3.4944  1.4794 -2.0852
  765MOL0     H  945   7.251   0.653  10.077  1.0907 -2.4810 -1.1345
  765MOL0     H  946   7.007   0.806  10.084  2.2201 -0.9395 -0.3052
  765MOL0     H  947   7.043   0.640  10.071 -0.3243 -0.3217 -0.1783
  765MOL0     H  948   6.847   0.587   9.948  1.8328 -0.8258  1.1804
  765MOL0     H  949   6.804   0.758   9.913 -0.4206 -0.8948 -1.2791
  765MOL0     H  950   6.765   0.784  10.174 -0.5768 -1.2286  0.7247
  765MOL0     H  951   6.785   0.617  10.180 -1.1868  0.8161  1.2763
  765MOL0     H  952   6.586   0.727   9.975 -1.3134 -3.9220 -1.5879
  765MOL0     H  953   6.587   0.574  10.071 -0.8616  0.3779  1.6000
  765MOL0     H  954   6.527   0.852  10.171 -1.5783  0.8185  0.9699
  765MOL0     H  955   6.555   0.722  10.281  0.9729  0.4419 -0.2162
  765MOL0     H  956   6.370   0.589  10.178 -0.8697  0.1931 -1.4361
  765MOL0     H  957   6.345   0.692  10.045  1.7934 -3.2315 -1.0837
  765MOL0     H  958   6.329   0.787  10.340  0.3944 -1.3379 -0.0416
  765MOL0     H  959   6.254   0.870  10.198 -2.2212 -1.4840 -1.5240
  765MOL0     H  960   6.086   0.767  10.328  2.5313  2.5484  1.7073
  765MOL0     H  961   6.168   0.606  10.303  2.6090 -0.0824 -1.3988
  765MOL0     H  962   7.184   0.840   9.696  2.8446 -0.2520 -1.6522
  765MOL0     H  963   7.429   0.882   9.671  2.1736  1.1403  1.4370
  765MOL0     H  964   7.829   0.820   9.970  0.3936  1.0306 -0.4931
  765MOL0     H  965   8.063   0.789  10.009  0.5087 -0.4359 -0.5406
  765MOL0     H  966   9.733   0.493  10.932  1.5167 -1.7262  2.0493
  765MOL0     H  967   9.944   0.383  11.012 -1.0886  2.4794  0.9492
  765MOL0     H  968  10.372   0.002  10.824 -4.0242  1.8993 -0.2642
  765MOL0     H  969  10.553  -0.064  10.938  3.4775  2.1112  0.1124
  765MOL0     H  970  10.751  -0.108  11.076  1.0063  0.1244  0.0211
  765MOL0     H  971  10.609  -0.134  11.182 -1.3072  1.0038 -1.7144
  765MOL0     H  972  10.862  -0.010  11.291 -0.6082  0.5942  1.7215
  765MOL0     H  973  10.713  -0.088  11.372  0.0197 -2.7012 -0.0825
  765MOL0     H  974  10.901  -0.247  11.210 -0.0161 -2.2668 -0.1695
  765MOL0     H  975  10.755  -0.307  11.285  0.5163 -0.1146 -4.5531
  765MOL0     H  976  11.000  -0.197  11.441  0.6063 -0.6680 -2.6644
  765MOL0     H  977  10.842  -0.250  11.515  0.8142 -3.8997  1.7456
  765MOL0     H  978  11.047  -0.606  11.423 -0.5117 -0.5313 -2.7523
  765MOL0     H  979  10.533   0.260  11.206 -1.5056 -2.1497  2.1594
  765MOL0     H  980  10.324   0.347  11.081  1.0109 -0.7139  0.4310
  766MOL0     O  981   5.651   0.218  10.726 -0.3142  0.2276  0.2652
  766MOL0     C  982   5.669   0.141  10.629  1.0920  0.6559  0.8334
  766MOL0     O  983   5.587   0.141  10.514 -0.0596  0.0656 -0.2564
  766MOL0     C  984   5.473   0.205  10.524  0.0118  0.1610 -0.3014
  766MOL0     C  985   5.444   0.314  10.442 -0.4228  0.1762  0.1547
  766MOL0     C  986   5.322   0.377  10.436  0.6479  0.5050  0.8982
  766MOL0     C  987   5.211   0.344  10.519 -0.3406 -0.7457  0.4294
  766MOL0     O  988   5.095   0.420  10.519 -0.2204 -0.6891 -0.2029
  766MOL0     C  989   4.972   0.355  10.488 -0.2350  1.0273 -0.0334
  766MOL0     C  990   4.917   0.363  10.345 -0.3114  0.1331  0.2386
  766MOL0     C  991   4.996   0.279  10.245  0.0671  0.5633  0.0849
  766MOL0     C  992   4.977   0.308  10.102  0.3458 -0.3372 -0.9557
  766MOL0     C  993   5.043   0.203  10.004  1.2593  0.2941 -0.0167
  766MOL0     C  994   5.000   0.222   9.859  0.7335  0.0971 -0.3467
  766MOL0     C  995   4.855   0.170   9.825 -0.7940 -0.8135  0.8260
  766MOL0     C  996   4.812   0.223   9.691  0.3754 -0.2540  0.4519
  766MOL0     N  997   4.687   0.162   9.634 -1.2631 -0.1125 -0.3570
  766MOL0     C  998   4.593   0.235   9.565 -0.2008 -0.2204  0.6381
  766MOL0     C  999   4.497   0.147   9.524  0.0724  0.4469  0.6936
  766MOL0     C 1000   4.383   0.185   9.437 -0.2569  0.1052  0.4056
  766MOL0     C 1001   4.275   0.097   9.483 -0.0442  0.0973 -0.0363
  766MOL0     C 1002   4.159   0.093   9.373  0.2816 -0.3481 -0.2903
  766MOL0     C 1003   4.039   0.002   9.396 -0.1586  0.7676  0.7083
  766MOL0     O 1004   3.991   0.013   9.530 -0.4274 -0.2440  0.3868
  766MOL0     C 1005   3.861  -0.029   9.549 -0.1275 -0.0399 -1.0534
  766MOL0     C 1006   3.793  -0.129   9.471 -0.1750  0.0156 -0.0136
  766MOL0     C 1007   3.656  -0.165   9.491 -0.7811 -0.7731  0.3905
  766MOL0     C 1008   3.590  -0.114   9.603  0.7269 -0.3485 -0.7343
  766MOL0     C 1009   3.447  -0.145   9.629  0.8706 -0.2873  0.3996
  766MOL0     O 1010   3.385  -0.219   9.538  0.5007 -0.1426  0.6449
  766MOL0     C 1011   3.262  -0.275   9.567 -0.7154  0.2697 -0.1974
  766MOL0     C 1012   3.143  -0.226   9.510 -0.7690 -0.3097 -0.2240
  766MOL0     C 1013   3.014  -0.273   9.553 -0.1453  0.0208  0.0219
  766MOL0     C 1014   3.007  -0.374   9.649  0.1791 -0.5473 -0.4705
  766MOL0     O 1015   2.877  -0.407   9.689 -0.3187 -0.0058  0.0997
  766MOL0     C 1016   2.861  -0.527   9.758  0.2188  0.1908 -0.7331
  766MOL0     C 1017   2.704  -0.552   9.767 -0.2706  0.3611 -0.2056
  766MOL0     C 1018   2.684  -0.700   9.802 -0.5356 -0.7346  0.0635
  766MOL0     C 1019   2.577  -0.721   9.911 -1.3579  0.6800  0.9810
  766MOL0     C 1020   2.646  -0.742  10.044  0.0341  0.3969 -0.8801
  766MOL0     C 1021   2.546  -0.801  10.156 -0.3965 -0.6074 -0.3187
  766MOL0     C 1022   2.610  -0.793  10.293 -0.0716  0.1273  0.1418
  766MOL0     C 1023   2.556  -0.907  10.389  0.6248 -0.0168  0.5051
  766MOL0    Cl 1024   2.627  -1.064  10.339 -0.1487 -0.1088  0.0879
  766MOL0     C 1025   3.129  -0.435   9.688 -0.1880  0.6757 -0.1334
  766MOL0     C 1026   3.254  -0.384   9.652  0.0517  0.4315 -0.8810
  766MOL0     O 1027   3.396  -0.100   9.735 -0.7608  0.2313 -1.0322
  766MOL0     C 1028   3.660  -0.021   9.679  0.3891  0.3548  0.8487
  766MOL0     C 1029   3.789   0.021   9.657 -0.1785  0.7611  0.4288
  766MOL0     N 1030   4.530   0.021   9.576  0.7924 -0.1559 -0.0884
  766MOL0     N 1031   4.644   0.033   9.637 -0.3364  1.0608  0.2582
  766MOL0     C 1032   5.230   0.221  10.594 -0.0958 -0.5460  0.5437
  766MOL0     C 1033   5.363   0.158  10.587  0.6676  0.4262  0.2637
  766MOL0     C 1034   5.777   0.045  10.643  0.3597 -0.4157 -1.0705
  766MOL0     C 1035   5.819  -0.046  10.543  0.4148 -0.0891  0.2280
  766MOL0     C 1036   5.915  -0.144  10.573 -0.0121 -0.9483 -0.5471
  766MOL0     C 1037   5.972  -0.153  10.701 -0.0498 -0.5229 -0.3101
  766MOL0     O 1038   6.044  -0.264  10.726 -0.1393  0.0545 -0.7860
  766MOL0     C 1039   6.157  -0.243  10.804 -0.2093 -0.1494  0.3986
  766MOL0     C 1040   6.264  -0.151  10.737  0.6612  0.6462  0.2656
  766MOL0     C 1041   6.303  -0.186  10.597 -0.9671 -0.3839 -0.1746
  766MOL0     C 1042   6.393  -0.313  10.605  1.1390  0.3318  0.1455
  766MOL0     C 1043   6.526  -0.293  10.660  0.2253  0.4577  0.9126
  766MOL0     C 1044   6.637  -0.280  10.701 -0.5629 -0.1364  0.0135
  766MOL0     C 1045   5.944  -0.056  10.797  0.1352  0.2340 -1.5974
  766MOL0     C 1046   5.850   0.043  10.763  0.4923 -0.3216  0.2810
  766MOL0     H 1047   5.532   0.354  10.393  0.9392 -1.3776  1.2196
  766MOL0     H 1048   5.298   0.456  10.366 -2.2704 -1.0577 -0.0043
  766MOL0     H 1049   4.896   0.396  10.556  0.4645 -0.7406  1.9235
  766MOL0     H 1050   4.988   0.250  10.511  1.4546  0.4720 -3.2173
  766MOL0     H 1051   4.936   0.468  10.322  3.1242  0.0449  2.0403
  766MOL0     H 1052   4.812   0.334  10.341 -0.9677  2.0038  2.1657
  766MOL0     H 1053   4.971   0.174  10.263 -0.1899  0.0523 -2.8018
  766MOL0     H 1054   5.103   0.289  10.265  0.2810 -1.1596 -0.0471
  766MOL0     H 1055   4.870   0.311  10.081  0.7652  0.9894 -3.2821
  766MOL0     H 1056   5.015   0.408  10.079 -0.3391 -0.1826 -1.4284
  766MOL0     H 1057   5.027   0.099  10.031  0.5418  0.3701 -0.1509
  766MOL0     H 1058   5.151   0.221  10.003  1.0797  1.4677 -0.7595
  766MOL0     H 1059   5.072   0.179   9.788  0.5349 -0.3904 -0.2581
  766MOL0     H 1060   4.996   0.330   9.842  0.9554 -0.0784 -1.6243
  766MOL0     H 1061   4.857   0.061   9.819  1.0882 -0.7133 -1.7239
  766MOL0     H 1062   4.794   0.201   9.911 -0.2504 -2.2675  1.7719
  766MOL0     H 1063   4.884   0.204   9.611 -1.3016 -0.1131 -1.1639
  766MOL0     H 1064   4.808   0.331   9.705  3.8609  0.1826 -0.9625
  766MOL0     H 1065   4.596   0.339   9.535 -3.1081  0.3160  1.8939
  766MOL0     H 1066   4.406   0.184   9.330 -1.4935 -0.5690  0.1245
  766MOL0     H 1067   4.343   0.284   9.462 -0.7795 -0.0879  0.3485
  766MOL0     H 1068   4.233   0.120   9.581 -1.5658  0.0894 -0.6484
  766MOL0     H 1069   4.307  -0.007   9.487 -0.4389  0.0058  0.8298
  766MOL0     H 1070   4.126   0.194   9.347  2.0364  0.3439  0.0131
  766MOL0     H 1071   4.188   0.050   9.276  0.9094 -0.8903  0.1221
  766MOL0     H 1072   4.057  -0.103   9.373 -1.3255  0.9182 -1.0337
  766MOL0     H 1073   3.973   0.046   9.322  2.4546 -1.3803 -3.2394
  766MOL0     H 1074   3.848  -0.183   9.395  0.3409  0.5440 -0.0219
  766MOL0     H 1075   3.622  -0.252   9.436  0.5158 -0.9215 -0.2097
  766MOL0     H 1076   3.150  -0.141   9.442  3.5068  0.6436  1.0911
  766MOL0     H 1077   2.928  -0.216   9.519  0.0172  0.0654 -0.3137
  766MOL0     H 1078   2.911  -0.518   9.855  1.9240 -0.7230 -1.4786
  766MOL0     H 1079   2.897  -0.614   9.701 -3.2778 -1.7304 -0.3155
  766MOL0     H 1080   2.664  -0.525   9.669  2.5115 -0.0479 -1.5574
  766MOL0     H 1081   2.671  -0.487   9.849 -1.1806 -0.1494 -0.1597
  766MOL0     H 1082   2.775  -0.747   9.840  0.4016  1.4611  0.7316
  766MOL0     H 1083   2.669  -0.743   9.703  0.9912  1.6273 -1.2706
  766MOL0     H 1084   2.500  -0.643   9.918 -1.4071  0.5972  1.3843
  766MOL0     H 1085   2.518  -0.809   9.885  0.1228 -0.0231 -0.1314
  766MOL0     H 1086   2.692  -0.650  10.080 -0.9325  0.1719  1.0465
  766MOL0     H 1087   2.719  -0.821  10.025 -2.3305 -1.9013 -1.0718
  766MOL0     H 1088   2.505  -0.898  10.126  2.8400 -2.3621  0.4814
  766MOL0     H 1089   2.466  -0.727  10.161  0.0512 -0.2207  1.9259
  766MOL0     H 1090   2.718  -0.806  10.279 -0.1713 -0.6777  0.0346
  766MOL0     H 1091   2.597  -0.690  10.326  1.2440 -0.4341  2.6584
  766MOL0     H 1092   2.447  -0.902  10.384  0.7061  2.0431 -0.4020
  766MOL0     H 1093   2.576  -0.873  10.491 -0.2354  0.0831  0.6468
  766MOL0     H 1094   3.129  -0.506   9.770  1.2132  1.1320  0.2810
  766MOL0     H 1095   3.349  -0.409   9.698  0.0327  1.6717 -0.1230
  766MOL0     H 1096   3.605   0.024   9.761 -0.7277  3.5214 -1.4405
  766MOL0     H 1097   3.838   0.099   9.716 -0.7486 -0.2978  2.3939
  766MOL0     H 1098   5.150   0.183  10.656  0.0722  2.6889  2.9971
  766MOL0     H 1099   5.389   0.067  10.641  0.6435 -1.2425 -2.3236
  766MOL0     H 1100   5.767  -0.052  10.448  1.3347  0.1276 -0.3064
  766MOL0     H 1101   5.941  -0.230  10.512 -0.1425 -1.1416 -0.3300
  766MOL0     H 1102   6.201  -0.335  10.844  0.3696 -0.1148 -0.1483
  766MOL0     H 1103   6.127  -0.191  10.896  2.1526 -1.5151  2.0761
  766MOL0     H 1104   6.225  -0.049  10.730  0.6743  0.6371  0.0163
  766MOL0     H 1105   6.352  -0.144  10.802  1.7147 -1.9322 -0.7350
  766MOL0     H 1106   6.365  -0.101  10.566 -0.8315  0.4131  2.0554
  766MOL0     H 1107   6.207  -0.191  10.543 -1.8030  1.7693  0.9649
  766MOL0     H 1108   6.350  -0.399  10.658  2.1911 -0.7120 -0.6345
  766MOL0     H 1109   6.399  -0.358  10.506  1.3648  0.8076 -0.0580
  766MOL0     H 1110   6.730  -0.281  10.754 -0.3037 -1.5353 -0.4399
  766MOL0     H 1111   5.977  -0.047  10.900 -1.5265  3.9566 -1.2201
  766MOL0     H 1112   5.822   0.113  10.841 -2.1038  0.0200 -0.8665
  767MOL0     O 1113   5.366   6.580  10.058  0.3359  0.4669 -0.3928
  767MOL0     C 1114   5.422   6.472  10.038 -0.5164 -0.3285  0.2128
  767MOL0     O 1115   5.372   6.353  10.059  0.2206  0.1675  0.0762
  767MOL0     C 1116   5.243   6.330  10.110 -0.1207 -0.5587 -0.0940
  767MOL0     C 1117   5.225   6.205  10.163 -0.2264  0.0467 -0.9486
  767MOL0     C 1118   5.107   6.165  10.218 -0.8087  0.3402  0.7148
  767MOL0     C 1119   5.001   6.252  10.216 -0.5204 -0.2299  0.7080
  767MOL0     O 1120   4.888   6.206  10.279 -0.2670 -0.1960 -0.4824
  767MOL0     C 1121   4.766   6.270  10.250  1.1493  1.0255  0.2649
  767MOL0     C 1122   4.645   6.202  10.309 -0.1416 -0.4874 -0.3937
  767MOL0     C 1123   4.518   6.266  10.261 -0.3707  0.9039  0.7417
  767MOL0     C 1124   4.397   6.175  10.292  0.3354  0.4940 -0.6298
  767MOL0     C 1125   4.266   6.236  10.256  0.6368  1.1329 -0.5410
  767MOL0     C 1126   4.220   6.328  10.372 -0.1048 -0.6569 -0.3558
  767MOL0     C 1127   4.090   6.411  10.347  0.1145  0.2475 -0.1297
  767MOL0     C 1128   3.955   6.339  10.321 -0.0794  0.2805 -0.2074
  767MOL0     N 1129   3.947   6.285  10.183  0.2011  0.0961 -0.1937
  767MOL0     C 1130   3.975   6.355  10.065  0.1764  0.3375 -0.7459
  767MOL0     C 1131   3.980   6.265   9.965 -0.3152  0.2195 -0.2191
  767MOL0     C 1132   3.982   6.287   9.814 -0.4650 -0.4542 -0.2138
  767MOL0     C 1133   4.119   6.311   9.760  0.0634 -0.2757 -0.5561
  767MOL0     C 1134   4.128   6.304   9.609  0.8616 -0.2409  0.5451
  767MOL0     C 1135   4.279   6.290   9.557 -0.1939  0.6131 -0.5637
  767MOL0     O 1136   4.362   6.402   9.594 -0.2437  0.2217  0.1716
  767MOL0     C 1137   4.500   6.395   9.553  1.2495 -0.1527 -1.1107
  767MOL0     C 1138   4.545   6.373   9.422 -0.2196 -0.2473  0.3448
  767MOL0     C 1139   4.687   6.372   9.400  0.5404 -0.6803 -0.2139
  767MOL0     C 1140   4.778   6.404   9.504 -0.4862  0.2663  0.7277
  767MOL0     C 1141   4.922   6.405   9.477 -0.3651 -0.6090 -0.0635
  767MOL0     O 1142   4.973   6.349   9.358  0.2987  0.3965  0.0241
  767MOL0     C 1143   5.108   6.339   9.335 -0.9863  0.5059 -0.1535
  767MOL0     C 1144   5.212   6.417   9.391 -0.6712 -0.6084 -0.1463
  767MOL0     C 1145   5.343   6.383   9.374  0.6732 -0.7881 -0.8038
  767MOL0     C 1146   5.385   6.264   9.312 -0.5849  0.4833 -0.8400
  767MOL0     O 1147   5.518   6.237   9.280  0.2768  0.2984  0.3407
  767MOL0     C 1148   5.615   6.328   9.316 -0.3325  0.1540 -0.5994
  767MOL0     C 1149   5.752   6.288   9.283  0.0153 -0.4817  0.1585
  767MOL0     C 1150   5.773   6.288   9.131  0.0691 -0.1389 -0.0249
  767MOL0     C 1151   5.900   6.204   9.107  0.4512 -0.2929 -0.4027
  767MOL0     C 1152   6.032   6.259   9.170  0.1650 -0.4379 -0.1411
  767MOL0     C 1153   6.157   6.182   9.120 -0.5601 -0.0435  0.0037
  767MOL0     C 1154   6.288   6.238   9.176  0.1298 -0.4350  0.0922
  767MOL0     C 1155   6.305   6.214   9.325  0.6410 -0.2989  0.4176
  767MOL0    Cl 1156   6.312   6.050   9.379 -0.5130 -0.2928  0.1549
  767MOL0     C 1157   5.284   6.186   9.248 -0.1041  0.9049  0.4124
  767MOL0     C 1158   5.150   6.232   9.263 -0.2119 -0.5418 -0.4695
  767MOL0     O 1159   4.989   6.456   9.566 -0.3763  0.2210 -0.3393
  767MOL0     C 1160   4.724   6.423   9.634  0.4303  0.0533 -0.1081
  767MOL0     C 1161   4.585   6.409   9.656 -0.5031 -0.0570 -0.7148
  767MOL0     N 1162   3.946   6.141  10.015  0.3546  0.2142 -0.1455
  767MOL0     N 1163   3.926   6.153  10.141  0.6507  0.0347 -0.1347
  767MOL0     C 1164   5.010   6.373  10.147 -0.2974  0.3679  0.1571
  767MOL0     C 1165   5.130   6.414  10.097 -0.6782 -0.3613 -0.1176
  767MOL0     C 1166   5.566   6.481  10.008  0.3117 -0.2858 -0.1509
  767MOL0     C 1167   5.642   6.598  10.017  0.7011  0.2608 -0.1290
  767MOL0     C 1168   5.770   6.594   9.969 -0.3943 -0.7561 -0.0712
  767MOL0     C 1169   5.842   6.481   9.940  0.6515  0.2847  0.1262
  767MOL0     O 1170   5.974   6.487   9.895 -0.8507  0.0151  0.2513
  767MOL0     C 1171   6.073   6.394   9.936 -0.4475 -0.0532 -0.0084
  767MOL0     C 1172   6.175   6.470  10.026 -0.0117  0.0970 -0.1614
  767MOL0     C 1173   6.212   6.610   9.977 -0.4729 -0.2939 -0.8001
  767MOL0     C 1174   6.295   6.609   9.846  0.6086  0.0386  0.5709
  767MOL0     C 1175   6.441   6.607   9.864  0.0521  0.3321 -0.3918
  767MOL0     C 1176   6.566   6.617   9.874 -0.1862 -0.4291 -0.1219
  767MOL0     C 1177   5.767   6.367   9.928  0.0788 -0.1285 -0.2219
  767MOL0     C 1178   5.631   6.363   9.962 -0.5801 -0.2566 -0.5574
  767MOL0     H 1179   5.311   6.138  10.170  0.1257  0.5701 -0.0792
  767MOL0     H 1180   5.084   6.065  10.255  1.8043 -0.7182 -0.3212
  767MOL0     H 1181   4.754   6.264  10.141  0.1488 -3.4923  0.4562
  767MOL0     H 1182   4.760   6.373  10.287  1.1763  1.7264 -1.5399
  767MOL0     H 1183   4.639   6.206  10.418 -1.5808  2.7687 -0.4757
  767MOL0     H 1184   4.648   6.096  10.280  2.8345 -0.6444  0.1881
  767MOL0     H 1185   4.524   6.286  10.154  2.2113 -2.6968  0.0209
  767MOL0     H 1186   4.509   6.364  10.309 -0.0095  0.3459  1.9876
  767MOL0     H 1187   4.401   6.079  10.240  2.2612  0.2533 -0.0982
  767MOL0     H 1188   4.397   6.150  10.398  1.0756  0.6282 -0.5975
  767MOL0     H 1189   4.198   6.152  10.241 -0.6626  2.2137 -0.8915
  767MOL0     H 1190   4.265   6.275  10.154 -2.3606 -0.8537 -1.4005
  767MOL0     H 1191   4.301   6.398  10.393  1.0331 -2.7028  2.7560
  767MOL0     H 1192   4.192   6.265  10.457 -0.7454 -4.2429 -2.9768
  767MOL0     H 1193   4.070   6.484  10.426 -4.5524  1.5717 -2.2213
  767MOL0     H 1194   4.115   6.469  10.258  2.4212  1.2056  1.0570
  767MOL0     H 1195   3.876   6.413  10.335 -1.8865 -1.4273 -0.8902
  767MOL0     H 1196   3.930   6.272  10.404 -2.5455  2.1395  0.6700
  767MOL0     H 1197   3.987   6.463  10.057  2.2403  0.2705  0.5639
  767MOL0     H 1198   3.916   6.369   9.783 -0.6675 -2.0141 -4.5657
  767MOL0     H 1199   3.944   6.193   9.774 -1.2549  0.0546 -0.6993
  767MOL0     H 1200   4.187   6.241   9.809  0.8869  1.4252  0.8265
  767MOL0     H 1201   4.144   6.409   9.801 -0.5067 -0.2530 -0.2575
  767MOL0     H 1202   4.059   6.227   9.573 -1.5035  2.2843 -0.6961
  767MOL0     H 1203   4.084   6.388   9.554 -0.8481 -2.1668 -1.2477
  767MOL0     H 1204   4.273   6.282   9.448 -3.2881 -1.5144 -0.3799
  767MOL0     H 1205   4.314   6.196   9.600 -1.8457  0.4304  0.4882
  767MOL0     H 1206   4.472   6.357   9.343 -2.0314 -1.8718  2.2453
  767MOL0     H 1207   4.717   6.363   9.296 -0.8041 -0.7486 -0.6266
  767MOL0     H 1208   5.187   6.505   9.449  0.4084 -1.4528  1.6639
  767MOL0     H 1209   5.418   6.451   9.415 -0.8698  0.3821  0.1963
  767MOL0     H 1210   5.596   6.352   9.421 -2.5867  3.9645 -1.6900
  767MOL0     H 1211   5.601   6.421   9.260 -0.7935  0.8437  0.6172
  767MOL0     H 1212   5.771   6.190   9.328  1.9812 -0.6499 -0.9446
  767MOL0     H 1213   5.819   6.360   9.331  0.9341  0.0613 -1.8240
  767MOL0     H 1214   5.786   6.391   9.097  2.5735 -0.9088 -1.6052
  767MOL0     H 1215   5.694   6.229   9.084  0.8964 -0.9866 -0.3760
  767MOL0     H 1216   5.865   6.106   9.140 -0.7442  0.3349  0.2379
  767MOL0     H 1217   5.925   6.195   9.000  4.1503  0.8521  0.2033
  767MOL0     H 1218   6.025   6.245   9.278 -2.4021  1.2237 -0.0003
  767MOL0     H 1219   6.043   6.365   9.146 -0.1628 -0.6409 -1.2430
  767MOL0     H 1220   6.155   6.200   9.012 -2.0841  1.8255  0.2692
  767MOL0     H 1221   6.146   6.075   9.142  0.8589 -0.3829 -0.8350
  767MOL0     H 1222   6.363   6.187   9.114 -1.0287 -0.8782 -0.9870
  767MOL0     H 1223   6.291   6.346   9.156 -0.9733 -0.0842  1.6299
  767MOL0     H 1224   6.229   6.271   9.378  2.2138  1.2357  1.1142
  767MOL0     H 1225   6.399   6.262   9.354  0.0604  2.1815 -1.5029
  767MOL0     H 1226   5.321   6.112   9.178 -1.9554 -1.0202  1.3735
  767MOL0     H 1227   5.082   6.163   9.214  0.0466 -0.9874 -0.1979
  767MOL0     H 1228   4.790   6.446   9.717 -0.3402 -1.5554  0.9886
  767MOL0     H 1229   4.551   6.424   9.759  0.8169 -1.9357  0.0494
  767MOL0     H 1230   4.931   6.446  10.135 -0.8406 -0.0587  1.0645
  767MOL0     H 1231   5.143   6.511  10.050  5.6079 -1.1353 -0.7961
  767MOL0     H 1232   5.592   6.692  10.038  1.9786  0.5866  1.7913
  767MOL0     H 1233   5.830   6.684   9.966  1.0314 -1.6983 -0.6417
  767MOL0     H 1234   6.109   6.360   9.839 -0.6108  2.3202 -0.9640
  767MOL0     H 1235   6.037   6.315  10.002 -0.1236 -0.9090 -0.8374
  767MOL0     H 1236   6.133   6.479  10.127 -2.1562  1.4634 -1.1206
  767MOL0     H 1237   6.265   6.408  10.040  1.2955  2.2468  1.8314
  767MOL0     H 1238   6.273   6.670  10.044  0.1041  1.3233 -2.6787
  767MOL0     H 1239   6.123   6.673   9.966 -1.1122 -1.4904 -3.3886
  767MOL0     H 1240   6.254   6.529   9.783 -1.0898  2.6237 -1.8785
  767MOL0     H 1241   6.258   6.688   9.780  0.4743 -0.1646  0.4012
  767MOL0     H 1242   6.672   6.616   9.861 -0.2745  0.7354 -1.1256
  767MOL0     H 1243   5.813   6.273   9.900  3.2404 -1.1955  6.5620
  767MOL0     H 1244   5.571   6.275   9.944 -1.8902  0.2149  1.2548
  768MOL0     O 1245   4.998   0.774   3.012  0.6438 -0.1373  0.8715
  768MOL0     C 1246   5.004   0.661   2.968 -0.6211  1.8901 -0.0436
  768MOL0     O 1247   4.897   0.573   2.972 -0.4277  0.0104  0.0258
  768MOL0     C 1248   4.790   0.614   3.054  0.5775 -0.7854  0.8430
  768MOL0     C 1249   4.697   0.708   3.009 -0.5012 -0.1529  0.0902
  768MOL0     C 1250   4.591   0.759   3.087  0.1125 -0.2065 -0.5098
  768MOL0     C 1251   4.581   0.724   3.218  0.7500 -0.6286 -0.3008
  768MOL0     O 1252   4.487   0.778   3.300  0.1773 -0.2911 -0.8619
  768MOL0     C 1253   4.366   0.842   3.245  0.5060 -0.0103 -0.9026
  768MOL0     C 1254   4.283   0.925   3.346  0.1437 -0.2163 -0.6335
  768MOL0     C 1255   4.221   0.832   3.456 -0.6684  0.0468  0.3885
  768MOL0     C 1256   4.127   0.919   3.539  0.6580 -0.7107  0.5051
  768MOL0     C 1257   4.108   0.865   3.684 -0.0170  0.3521  0.2392
  768MOL0     C 1258   4.067   0.713   3.685  0.6156  0.1959  0.7490
  768MOL0     C 1259   3.982   0.679   3.810 -0.1681  0.1529 -0.1109
  768MOL0     C 1260   3.923   0.536   3.808  0.5329  0.7624  0.3268
  768MOL0     N 1261   3.848   0.501   3.935  0.4560 -0.1763  1.5831
  768MOL0     C 1262   3.720   0.538   3.960  0.2076 -0.3089 -0.6817
  768MOL0     C 1263   3.692   0.514   4.085 -0.4138  0.1257  0.3704
  768MOL0     C 1264   3.565   0.536   4.151 -0.2642  0.2630 -0.0990
  768MOL0     C 1265   3.459   0.589   4.062 -0.0989 -0.0845 -0.9379
  768MOL0     C 1266   3.332   0.609   4.140 -0.7749 -0.1846  0.9931
  768MOL0     C 1267   3.217   0.659   4.048  1.0193 -0.1366  0.0604
  768MOL0     O 1268   3.099   0.667   4.125 -0.8773 -0.1340  0.1044
  768MOL0     C 1269   2.984   0.681   4.063 -0.6010  0.0576  0.6678
  768MOL0     C 1270   2.958   0.682   3.919 -0.3732  0.6959 -0.2889
  768MOL0     C 1271   2.827   0.702   3.866 -0.2179  0.2425  0.1699
  768MOL0     C 1272   2.719   0.720   3.953  0.1700 -0.0322 -0.0009
  768MOL0     C 1273   2.588   0.748   3.893  0.1954 -0.4543  0.2901
  768MOL0     O 1274   2.476   0.746   3.973 -0.6229  0.3230 -0.0816
  768MOL0     C 1275   2.355   0.773   3.914  0.2862  0.0458  0.6129
  768MOL0     C 1276   2.249   0.688   3.944 -0.2166  1.2059 -0.6293
  768MOL0     C 1277   2.123   0.731   3.905 -0.2004  0.2860  0.8260
  768MOL0     C 1278   2.088   0.842   3.830  0.2875 -1.2271  0.4294
  768MOL0     O 1279   1.970   0.882   3.781  1.5511  0.3834  0.0784
  768MOL0     C 1280   1.865   0.900   3.876 -0.3017 -0.1566  0.0687
  768MOL0     C 1281   1.756   0.990   3.804  0.6416 -0.2907  0.1288
  768MOL0     C 1282   1.636   1.006   3.894  0.6164 -0.4176  0.8001
  768MOL0     C 1283   1.546   0.883   3.878  0.0582  0.0858  0.3528
  768MOL0     C 1284   1.419   0.882   3.965  0.2566  0.4884  0.5121
  768MOL0     C 1285   1.341   0.760   3.914  1.0430  0.6165 -0.3059
  768MOL0     C 1286   1.218   0.742   4.018  0.2527 -0.5414  0.8000
  768MOL0     C 1287   1.133   0.622   3.987 -0.5525  0.8790 -0.2029
  768MOL0    Cl 1288   1.024   0.637   3.847 -0.0541  0.0810 -0.2738
  768MOL0     C 1289   2.201   0.925   3.802  0.5496 -0.7261 -0.7257
  768MOL0     C 1290   2.333   0.891   3.844  0.1663 -0.4137  0.1428
  768MOL0     O 1291   2.581   0.754   3.771  0.1484 -0.3711  0.3513
  768MOL0     C 1292   2.736   0.707   4.091  0.4492 -0.5191  0.1816
  768MOL0     C 1293   2.872   0.690   4.148  0.7455 -0.0757 -0.3236
  768MOL0     N 1294   3.800   0.455   4.133  0.1390  0.3007  0.2557
  768MOL0     N 1295   3.899   0.445   4.049 -0.1040  0.1979 -0.2482
  768MOL0     C 1296   4.673   0.638   3.268  0.7812  0.3710 -0.5056
  768MOL0     C 1297   4.769   0.579   3.186 -0.1154 -0.1442 -0.8633
  768MOL0     C 1298   5.130   0.616   2.911  0.0595 -0.6959  0.8268
  768MOL0     C 1299   5.237   0.706   2.889  0.1898 -0.2766 -0.8692
  768MOL0     C 1300   5.359   0.662   2.844 -0.4401 -0.1659 -0.1868
  768MOL0     C 1301   5.380   0.530   2.800  0.0370 -0.1199 -0.7115
  768MOL0     O 1302   5.508   0.500   2.766  0.8707 -0.4449  0.0872
  768MOL0     C 1303   5.533   0.421   2.651 -0.7418  0.5351  0.3025
  768MOL0     C 1304   5.670   0.355   2.650 -0.3355 -0.0056 -0.1787
  768MOL0     C 1305   5.685   0.259   2.539  0.3144  0.0144 -0.0959
  768MOL0     C 1306   5.832   0.207   2.533  0.1652  0.4520 -0.3075
  768MOL0     C 1307   5.861   0.075   2.598  0.9850 -0.7046  0.2266
  768MOL0     C 1308   5.879  -0.023   2.664  0.3372  0.8783  0.5893
  768MOL0     C 1309   5.282   0.440   2.831  0.3368  0.6247 -0.2904
  768MOL0     C 1310   5.150   0.482   2.873 -0.3835  0.1049  0.5397
  768MOL0     H 1311   4.711   0.736   2.905 -0.0159 -0.7711 -0.0110
  768MOL0     H 1312   4.524   0.831   3.040 -1.4219 -1.1047  0.2283
  768MOL0     H 1313   4.303   0.768   3.195 -3.4864  3.8461 -2.1568
  768MOL0     H 1314   4.393   0.918   3.172  0.5256 -0.0620 -0.9491
  768MOL0     H 1315   4.195   0.977   3.307  0.4086  3.4539  2.9200
  768MOL0     H 1316   4.343   1.004   3.393  0.1770 -0.0294 -0.9901
  768MOL0     H 1317   4.303   0.796   3.520  0.2074  0.9163 -0.2053
  768MOL0     H 1318   4.181   0.740   3.413 -0.5943  0.1981 -0.0095
  768MOL0     H 1319   4.184   1.012   3.549  1.4309 -1.2562  1.3774
  768MOL0     H 1320   4.034   0.939   3.485  0.7991  1.6080  0.9996
  768MOL0     H 1321   4.031   0.924   3.735 -1.8241  0.2564 -2.1708
  768MOL0     H 1322   4.202   0.875   3.739 -0.5500 -3.3105  2.1177
  768MOL0     H 1323   4.155   0.649   3.688 -0.6346 -1.5968  1.3118
  768MOL0     H 1324   4.015   0.687   3.592 -2.2945  0.9089  2.0452
  768MOL0     H 1325   4.047   0.688   3.897  1.4865 -2.3784 -0.9521
  768MOL0     H 1326   3.893   0.742   3.806  0.2274  0.6586 -1.9602
  768MOL0     H 1327   4.002   0.461   3.814  1.0219  1.3884  2.3311
  768MOL0     H 1328   3.859   0.528   3.719 -0.3274  2.7897  0.6963
  768MOL0     H 1329   3.653   0.593   3.895  0.2411  2.9598  1.7756
  768MOL0     H 1330   3.576   0.601   4.238  1.7010 -2.9963  2.3070
  768MOL0     H 1331   3.526   0.441   4.189 -2.8203  1.4387  0.4389
  768MOL0     H 1332   3.433   0.517   3.984  1.1890  0.5976 -2.0325
  768MOL0     H 1333   3.491   0.680   4.012 -1.5788  1.3418  0.6022
  768MOL0     H 1334   3.300   0.510   4.172 -0.9056 -1.5549 -2.8266
  768MOL0     H 1335   3.346   0.685   4.217  0.9483  1.4180 -0.7672
  768MOL0     H 1336   3.210   0.577   3.976  0.1554  1.4924 -1.7968
  768MOL0     H 1337   3.241   0.754   3.999 -0.5363 -0.5980 -1.7250
  768MOL0     H 1338   3.045   0.685   3.854 -0.0259 -0.9758  0.0653
  768MOL0     H 1339   2.807   0.705   3.759  0.1831  1.4071  0.1160
  768MOL0     H 1340   2.264   0.591   3.990 -1.1742  0.3091 -2.1107
  768MOL0     H 1341   2.050   0.663   3.947 -0.1630 -1.1611 -1.3199
  768MOL0     H 1342   1.906   0.967   3.953  2.0870 -0.7214 -0.6343
  768MOL0     H 1343   1.828   0.808   3.921 -0.2133  0.3193  1.1523
  768MOL0     H 1344   1.731   0.941   3.710 -0.0437 -1.4544  0.8901
  768MOL0     H 1345   1.799   1.088   3.779  1.0584 -0.4312  0.2793
  768MOL0     H 1346   1.574   1.090   3.861 -0.1181 -0.2217  2.5537
  768MOL0     H 1347   1.661   1.029   3.999  1.2337 -1.1100  0.8100
  768MOL0     H 1348   1.512   0.886   3.774  0.6945  3.4392  0.1153
  768MOL0     H 1349   1.598   0.791   3.904 -0.1801  0.4350  2.1781
  768MOL0     H 1350   1.358   0.970   3.941  0.1317  0.0605 -0.8440
  768MOL0     H 1351   1.446   0.879   4.071 -1.6269 -2.1163  1.0016
  768MOL0     H 1352   1.402   0.669   3.914  0.7387  0.3947  1.0378
  768MOL0     H 1353   1.300   0.775   3.813 -0.8754 -2.9699 -0.2528
  768MOL0     H 1354   1.272   0.732   4.113  0.2788  1.3759  1.0201
  768MOL0     H 1355   1.157   0.831   4.031  2.5950  0.8267  3.7218
  768MOL0     H 1356   1.065   0.602   4.070 -1.8598  1.0767 -1.1795
  768MOL0     H 1357   1.197   0.534   3.982  0.6569  1.5957  1.8389
  768MOL0     H 1358   2.174   1.014   3.746 -0.0775 -0.3237  0.1915
  768MOL0     H 1359   2.411   0.966   3.833  1.4073 -1.9953 -2.8698
  768MOL0     H 1360   2.657   0.708   4.166 -0.3289 -1.9856 -0.5890
  768MOL0     H 1361   2.881   0.679   4.256  2.1521 -0.5278 -0.4646
  768MOL0     H 1362   4.660   0.624   3.375 -1.8657 -0.1930 -0.8251
  768MOL0     H 1363   4.856   0.529   3.226 -0.8437 -2.3291 -1.8107
  768MOL0     H 1364   5.229   0.811   2.915  1.6076 -0.0648 -1.2211
  768MOL0     H 1365   5.446   0.725   2.826  0.4501 -0.8583  1.5041
  768MOL0     H 1366   5.519   0.475   2.557 -1.8769 -0.1763  0.0451
  768MOL0     H 1367   5.463   0.337   2.651 -1.2982  0.8288  4.1351
  768MOL0     H 1368   5.753   0.426   2.637 -0.2626  0.3385  1.8207
  768MOL0     H 1369   5.680   0.298   2.743 -1.0591  1.4659  0.8436
  768MOL0     H 1370   5.653   0.306   2.446  0.2804  1.8891  0.8214
  768MOL0     H 1371   5.616   0.178   2.565  1.4664 -1.5666 -1.7870
  768MOL0     H 1372   5.844   0.213   2.425  0.5517  0.3858 -0.2698
  768MOL0     H 1373   5.905   0.279   2.569  3.1117 -1.2526 -2.4607
  768MOL0     H 1374   5.897  -0.106   2.729  1.0435 -0.5013 -1.2695
  768MOL0     H 1375   5.303   0.338   2.798 -0.6329  0.3331 -0.0345
  768MOL0     H 1376   5.069   0.411   2.862 -0.0934 -0.0958 -0.3736
  769MOL0     O 1377   9.230   7.931  10.043 -0.0260  0.1578  0.0652
  769MOL0     C 1378   9.311   7.874   9.970  0.2073  0.6910  0.0009
  769MOL0     O 1379   9.279   7.791   9.860  0.1098 -0.1416 -0.1604
  769MOL0     C 1380   9.145   7.769   9.830 -0.0933 -0.5126  0.2012
  769MOL0     C 1381   9.116   7.715   9.710 -0.3874  0.4661 -0.2951
  769MOL0     C 1382   8.985   7.682   9.661 -0.0899  0.6916  0.4749
  769MOL0     C 1383   8.876   7.710   9.737  0.1229  0.3666 -0.8403
  769MOL0     O 1384   8.744   7.679   9.708  0.2930  0.3329  0.1909
  769MOL0     C 1385   8.716   7.672   9.570  0.0778 -0.4704  0.2800
  769MOL0     C 1386   8.566   7.660   9.557 -0.0465 -0.2504  0.0161
  769MOL0     C 1387   8.523   7.655   9.406  0.5289 -0.2550  0.5064
  769MOL0     C 1388   8.369   7.650   9.398  0.1371 -0.0993  0.2370
  769MOL0     C 1389   8.323   7.650   9.255 -0.2786 -0.7614  0.5453
  769MOL0     C 1390   8.172   7.663   9.247  1.0194  0.3338  0.0281
  769MOL0     C 1391   8.113   7.635   9.106 -0.4233  0.2351  0.2512
  769MOL0     C 1392   7.958   7.629   9.097 -0.6306 -0.4597  0.9345
  769MOL0     N 1393   7.902   7.763   9.105  0.3125 -0.6616 -0.0566
  769MOL0     C 1394   7.854   7.847   9.006  0.5501  0.2955 -0.3462
  769MOL0     C 1395   7.794   7.951   9.075 -0.9532  0.4313 -0.4084
  769MOL0     C 1396   7.730   8.075   9.017 -0.1483 -0.7372  0.4887
  769MOL0     C 1397   7.587   8.060   8.970  0.1575 -0.0663  0.3705
  769MOL0     C 1398   7.535   8.195   8.903  0.6263 -0.1206 -0.0935
  769MOL0     C 1399   7.393   8.172   8.847  0.0666 -0.5880  0.1761
  769MOL0     O 1400   7.307   8.155   8.957 -0.4052  1.2136 -0.8100
  769MOL0     C 1401   7.182   8.217   8.949 -0.0317 -0.1369  0.2555
  769MOL0     C 1402   7.119   8.252   8.828 -1.0524  0.8567  0.7391
  769MOL0     C 1403   6.993   8.299   8.835  0.4760 -0.2501  0.1342
  769MOL0     C 1404   6.921   8.318   8.955  0.4557  0.0177  0.1003
  769MOL0     C 1405   6.778   8.354   8.960  0.1760 -0.0708  1.3849
  769MOL0     O 1406   6.735   8.379   9.084  0.4639  0.3351  0.1316
  769MOL0     C 1407   6.602   8.413   9.094  0.3454  0.5883 -0.4935
  769MOL0     C 1408   6.547   8.524   9.028 -0.4775 -0.1235  0.0758
  769MOL0     C 1409   6.412   8.546   9.043  0.4611 -0.5280  0.0476
  769MOL0     C 1410   6.332   8.468   9.132 -0.4007 -0.1499  0.2711
  769MOL0     O 1411   6.197   8.502   9.131  0.4756 -0.7990  0.3589
  769MOL0     C 1412   6.139   8.524   9.265  0.2448  0.2519 -0.5980
  769MOL0     C 1413   5.991   8.544   9.243 -0.6615 -0.9048  0.0133
  769MOL0     C 1414   5.948   8.699   9.247  0.3090 -0.0822 -0.3312
  769MOL0     C 1415   5.809   8.715   9.177 -0.1336 -0.3670 -0.3506
  769MOL0     C 1416   5.691   8.667   9.273 -0.7870  0.2924  0.6672
  769MOL0     C 1417   5.559   8.651   9.194 -0.7225 -0.6423 -0.4609
  769MOL0     C 1418   5.457   8.606   9.303  0.0525  0.0925  0.8132
  769MOL0     C 1419   5.320   8.622   9.241 -0.0726  0.0567  0.1429
  769MOL0    Cl 1420   5.303   8.558   9.079 -0.2335 -0.4333 -0.2013
  769MOL0     C 1421   6.388   8.361   9.209  0.1586 -0.1416 -0.0692
  769MOL0     C 1422   6.518   8.334   9.181 -0.4520 -0.6512  0.0464
  769MOL0     O 1423   6.717   8.346   8.855  0.3855 -0.2838  0.7430
  769MOL0     C 1424   6.996   8.293   9.077  0.1792 -1.0435 -0.1170
  769MOL0     C 1425   7.123   8.243   9.070  0.2916 -0.5205 -0.9064
  769MOL0     N 1426   7.803   7.919   9.205  0.0655 -1.0257 -0.1246
  769MOL0     N 1427   7.864   7.805   9.226  0.4754 -0.8504 -0.0982
  769MOL0     C 1428   8.904   7.748   9.866 -0.6512 -0.6119  0.5842
  769MOL0     C 1429   9.032   7.778   9.914 -0.7973  0.2891 -0.0396
  769MOL0     C 1430   9.449   7.901   9.995  0.3281  0.6168 -0.6483
  769MOL0     C 1431   9.495   7.947  10.119 -0.1831 -0.3392 -0.1150
  769MOL0     C 1432   9.627   7.981  10.142 -0.5435 -0.6012 -0.1250
  769MOL0     C 1433   9.718   7.956  10.041  0.5400  0.5187  1.2077
  769MOL0     O 1434   9.851   7.981  10.052 -0.0274 -0.5969 -0.0372
  769MOL0     C 1435   9.932   7.948  10.159 -0.8054  0.7040 -0.3297
  769MOL0     C 1436  10.068   7.944  10.094 -0.1087 -0.5282  0.3554
  769MOL0     C 1437  10.166   7.882  10.199 -0.0392  0.2076  0.1030
  769MOL0     C 1438  10.306   7.873  10.131  0.5617 -0.9180  0.0433
  769MOL0     C 1439  10.411   7.844  10.235 -0.3488  0.4870 -0.2709
  769MOL0     C 1440  10.476   7.823  10.335 -0.0040  0.2211 -0.3399
  769MOL0     C 1441   9.673   7.905   9.921  0.0392 -0.3268 -1.1525
  769MOL0     C 1442   9.547   7.887   9.893  0.6942  0.2244  0.0154
  769MOL0     H 1443   9.204   7.698   9.648 -0.1466 -1.2630  0.4540
  769MOL0     H 1444   8.975   7.643   9.560  1.6764  2.7829 -0.5960
  769MOL0     H 1445   8.764   7.585   9.524 -1.4250 -1.0660 -0.2384
  769MOL0     H 1446   8.748   7.757   9.509  2.6186 -2.5103 -1.4838
  769MOL0     H 1447   8.527   7.746   9.612  1.6743  0.5567  0.0489
  769MOL0     H 1448   8.538   7.567   9.606 -0.0980 -0.4645 -0.4131
  769MOL0     H 1449   8.578   7.575   9.357  1.8484  1.2892 -0.6355
  769MOL0     H 1450   8.552   7.746   9.352 -0.3247 -0.4550 -0.3097
  769MOL0     H 1451   8.342   7.554   9.443 -1.2709 -0.2244 -0.8120
  769MOL0     H 1452   8.319   7.730   9.454  0.0894  0.1879 -0.2167
  769MOL0     H 1453   8.354   7.564   9.195  3.3979  1.8176 -1.7055
  769MOL0     H 1454   8.371   7.731   9.199  0.4814 -0.4177  1.6519
  769MOL0     H 1455   8.142   7.759   9.288  0.4090 -0.8730  2.5954
  769MOL0     H 1456   8.115   7.593   9.309 -1.0312  1.4392 -0.5494
  769MOL0     H 1457   8.153   7.716   9.044 -4.7008  0.8013 -2.1755
  769MOL0     H 1458   8.159   7.544   9.068  0.8622  0.9123  0.1339
  769MOL0     H 1459   7.925   7.571   9.184 -0.0938 -0.9034  0.8496
  769MOL0     H 1460   7.924   7.584   9.003 -1.1937 -0.1271  0.9735
  769MOL0     H 1461   7.867   7.822   8.901  2.0929 -3.1492  0.5110
  769MOL0     H 1462   7.799   8.121   8.946  0.1246  0.6638  1.6113
  769MOL0     H 1463   7.728   8.142   9.104  3.4012  2.2485 -1.4230
  769MOL0     H 1464   7.525   8.031   9.055  0.5843  3.0808  1.9235
  769MOL0     H 1465   7.588   7.976   8.900  0.6109 -0.4164  0.7899
  769MOL0     H 1466   7.534   8.277   8.975 -1.1933 -0.2755  0.1230
  769MOL0     H 1467   7.610   8.207   8.824 -0.4917 -1.9851 -1.5525
  769MOL0     H 1468   7.385   8.085   8.781  0.4111  1.0284 -2.1059
  769MOL0     H 1469   7.369   8.257   8.782 -0.1047 -1.7878 -1.4108
  769MOL0     H 1470   7.173   8.229   8.737 -1.9441  0.3664  0.3212
  769MOL0     H 1471   6.950   8.319   8.737  0.7021  0.4856  0.1788
  769MOL0     H 1472   6.611   8.587   8.966 -1.1714  1.7763  1.1888
  769MOL0     H 1473   6.368   8.632   8.995 -0.2184  0.2541  1.9601
  769MOL0     H 1474   6.170   8.621   9.305 -0.1651 -0.3909  1.3909
  769MOL0     H 1475   6.160   8.446   9.339 -1.5725 -0.0315 -0.3344
  769MOL0     H 1476   5.937   8.488   9.320 -1.7697 -0.9071 -0.7303
  769MOL0     H 1477   5.971   8.496   9.147 -1.6697  2.2086 -1.4713
  769MOL0     H 1478   6.024   8.750   9.188 -0.2312 -0.7435 -1.6422
  769MOL0     H 1479   5.949   8.732   9.352  0.5312 -0.1452 -0.3129
  769MOL0     H 1480   5.787   8.818   9.144 -1.6291 -1.0796 -1.7160
  769MOL0     H 1481   5.807   8.657   9.085 -3.8295 -1.9916  0.5769
  769MOL0     H 1482   5.673   8.742   9.350  0.2925  1.9052 -0.5675
  769MOL0     H 1483   5.720   8.568   9.312 -1.7854  0.1665  1.1055
  769MOL0     H 1484   5.558   8.579   9.111 -0.1793 -2.0340  0.6892
  769MOL0     H 1485   5.537   8.751   9.156 -1.8768 -0.7756 -0.1833
  769MOL0     H 1486   5.472   8.501   9.329 -1.7082 -0.4285 -0.1121
  769MOL0     H 1487   5.467   8.673   9.389 -0.0651  1.2321 -0.0340
  769MOL0     H 1488   5.296   8.728   9.229 -3.9945 -0.4556  2.0304
  769MOL0     H 1489   5.252   8.568   9.307  0.2498 -0.6499 -0.0974
  769MOL0     H 1490   6.324   8.312   9.282  0.3312  3.0810  2.5165
  769MOL0     H 1491   6.577   8.253   9.223  1.3171 -0.5755 -2.1055
  769MOL0     H 1492   6.954   8.307   9.176  1.0286  3.2837 -0.1648
  769MOL0     H 1493   7.181   8.224   9.159 -3.4746  0.3679  1.9921
  769MOL0     H 1494   8.821   7.760   9.936  0.3464 -1.5315  1.9938
  769MOL0     H 1495   9.039   7.817  10.015  0.0291 -0.9157  0.3870
  769MOL0     H 1496   9.436   7.949  10.210 -0.7821  0.8873 -0.5006
  769MOL0     H 1497   9.653   8.031  10.234  0.1242 -0.6954 -0.2555
  769MOL0     H 1498   9.912   7.848  10.198  1.4079  1.2318  2.5139
  769MOL0     H 1499   9.916   8.021  10.238 -1.4987  2.5897 -2.1174
  769MOL0     H 1500  10.077   7.891   9.998  0.4638 -0.7956  0.5506
  769MOL0     H 1501  10.092   8.050  10.082 -0.9512  0.0285  3.0112
  769MOL0     H 1502  10.137   7.784  10.237 -0.2160  0.0764 -0.3762
  769MOL0     H 1503  10.173   7.946  10.288 -0.0365  0.0629  0.2062
  769MOL0     H 1504  10.308   7.801  10.049 -0.8936 -0.7774 -0.1463
  769MOL0     H 1505  10.328   7.968  10.081 -0.1925  0.1579  1.6546
  769MOL0     H 1506  10.537   7.808  10.421 -2.9612 -0.9941  1.7314
  769MOL0     H 1507   9.752   7.888   9.848  1.4124 -0.1226  0.2448
  769MOL0     H 1508   9.530   7.865   9.788  2.1380 -0.3731 -0.1192
  770MOL0     O 1509   2.252   9.146   2.448 -0.3775  0.3671 -0.2242
  770MOL0     C 1510   2.205   9.104   2.552 -0.6159  0.3296 -1.0375
  770MOL0     O 1511   2.263   9.116   2.677  0.0444 -0.6513 -0.0982
  770MOL0     C 1512   2.387   9.164   2.682 -0.8142 -0.0197 -0.1182
  770MOL0     C 1513   2.496   9.109   2.601 -0.1761 -0.0124 -0.2068
  770MOL0     C 1514   2.619   9.169   2.617  0.9291  0.1308 -0.2185
  770MOL0     C 1515   2.641   9.288   2.691 -0.0603 -0.4577 -0.7616
  770MOL0     O 1516   2.767   9.345   2.692  0.6922  0.9774  0.0507
  770MOL0     C 1517   2.792   9.450   2.784  0.0362 -0.1520 -0.4224
  770MOL0     C 1518   2.946   9.459   2.806 -0.6445  0.1946  0.1223
  770MOL0     C 1519   3.022   9.503   2.685 -0.3849  0.7756  0.3544
  770MOL0     C 1520   3.169   9.524   2.700 -0.0509 -0.5481 -0.1496
  770MOL0     C 1521   3.219   9.598   2.582  0.2747 -0.3925  0.5733
  770MOL0     C 1522   3.354   9.670   2.605  0.0678 -1.1675 -0.1461
  770MOL0     C 1523   3.389   9.747   2.477 -0.5400  0.1903 -0.6427
  770MOL0     C 1524   3.524   9.817   2.480 -0.3287  0.0484  0.4469
  770MOL0     N 1525   3.539   9.937   2.563  0.6460 -0.5016 -0.5275
  770MOL0     C 1526   3.529   9.949   2.700 -0.4337  0.4138 -0.1925
  770MOL0     C 1527   3.546  10.077   2.729  0.4177  0.1176 -0.0285
  770MOL0     C 1528   3.549  10.118   2.876 -0.0365 -0.0381 -0.3011
  770MOL0     C 1529   3.410  10.101   2.944  0.3867  0.9374  0.5269
  770MOL0     C 1530   3.288  10.160   2.864  0.1882 -0.3953 -0.4323
  770MOL0     C 1531   3.157  10.137   2.942 -0.5114  0.2948  0.8340
  770MOL0     O 1532   3.118  10.004   2.930 -0.1355  0.4168 -0.5112
  770MOL0     C 1533   3.002   9.952   2.986  0.7019 -0.0503  0.0551
  770MOL0     C 1534   2.964   9.815   2.959  0.4342  0.5167  0.3548
  770MOL0     C 1535   2.837   9.765   3.003 -0.4372 -0.6583  0.3655
  770MOL0     C 1536   2.753   9.836   3.093 -0.9268 -0.8821 -0.2783
  770MOL0     C 1537   2.632   9.773   3.164 -0.0746  0.5468  0.7013
  770MOL0     O 1538   2.567   9.850   3.254  0.2860  0.3618  0.2145
  770MOL0     C 1539   2.460   9.795   3.323 -0.0452  0.6015  0.7421
  770MOL0     C 1540   2.332   9.795   3.261  0.1625  0.3609 -0.1643
  770MOL0     C 1541   2.217   9.754   3.341  0.0221  0.7990 -0.4854
  770MOL0     C 1542   2.240   9.713   3.477 -0.3724 -0.1328 -0.1453
  770MOL0     O 1543   2.129   9.686   3.542  0.3514  0.9737  0.1796
  770MOL0     C 1544   2.131   9.634   3.678 -0.6854  0.2735 -0.5336
  770MOL0     C 1545   1.986   9.636   3.738 -1.1439  0.6049  0.2593
  770MOL0     C 1546   1.901   9.531   3.664  0.0921 -0.6746  0.2694
  770MOL0     C 1547   1.761   9.505   3.718 -0.2539  0.0241 -0.5308
  770MOL0     C 1548   1.750   9.421   3.860  0.4079  0.3371 -0.1266
  770MOL0     C 1549   1.812   9.279   3.841  0.2982  0.3743 -0.6515
  770MOL0     C 1550   1.769   9.201   3.964 -0.3359 -0.1314  0.2437
  770MOL0     C 1551   1.804   9.056   3.965  0.4596 -0.6900 -0.6424
  770MOL0    Cl 1552   1.772   8.991   4.126 -0.2857 -0.1081 -0.3121
  770MOL0     C 1553   2.369   9.709   3.526 -0.1150 -0.3807 -0.1806
  770MOL0     C 1554   2.475   9.754   3.454  0.1143 -0.4637  0.4542
  770MOL0     O 1555   2.612   9.647   3.145  0.0264 -0.5662  0.2666
  770MOL0     C 1556   2.795   9.967   3.120  0.1003  0.5914 -0.2922
  770MOL0     C 1557   2.917  10.016   3.079 -0.1437  0.0116  0.6237
  770MOL0     N 1558   3.568  10.152   2.619  0.5090  0.0161  0.0517
  770MOL0     N 1559   3.563  10.062   2.522 -0.3670 -0.7121 -0.2387
  770MOL0     C 1560   2.536   9.339   2.770 -0.6176  0.3872  0.3870
  770MOL0     C 1561   2.416   9.269   2.778  0.9390  0.8563  0.3507
  770MOL0     C 1562   2.064   9.067   2.554  0.4588 -0.0683 -0.0394
  770MOL0     C 1563   1.991   9.028   2.666  0.3380 -0.0509  0.6216
  770MOL0     C 1564   1.849   8.992   2.666 -0.0536  0.9791  0.1259
  770MOL0     C 1565   1.783   8.985   2.539  0.5561 -0.3305 -0.6827
  770MOL0     O 1566   1.648   8.957   2.520 -0.6160 -0.0397 -0.1407
  770MOL0     C 1567   1.574   8.906   2.632 -0.2345  0.2973  0.7499
  770MOL0     C 1568   1.618   8.772   2.692 -0.5744 -0.9383 -0.5505
  770MOL0     C 1569   1.582   8.651   2.614 -0.3756 -0.1763  0.3785
  770MOL0     C 1570   1.639   8.516   2.672 -0.1866 -0.2003 -0.2388
  770MOL0     C 1571   1.606   8.397   2.592 -0.6826 -0.5893 -0.3086
  770MOL0     C 1572   1.623   8.294   2.529 -0.3413  0.2582  0.7032
  770MOL0     C 1573   1.864   9.004   2.426  0.5481  0.5648 -0.4874
  770MOL0     C 1574   1.997   9.045   2.431  0.1422 -0.0717 -0.6114
  770MOL0     H 1575   2.470   9.024   2.538 -1.5271 -1.6411  2.3496
  770MOL0     H 1576   2.700   9.125   2.560 -0.0751  0.0432 -1.6268
  770MOL0     H 1577   2.756   9.431   2.886  0.8940  0.5846  0.0342
  770MOL0     H 1578   2.747   9.543   2.750 -2.5056 -0.4538  1.7768
  770MOL0     H 1579   2.976   9.360   2.841 -0.5723  0.5290  1.0279
  770MOL0     H 1580   2.977   9.527   2.885 -1.7252  0.0498  0.6837
  770MOL0     H 1581   2.985   9.605   2.667  1.6879  2.4264  4.1883
  770MOL0     H 1582   3.007   9.435   2.601 -0.8777  1.2176  0.0782
  770MOL0     H 1583   3.194   9.581   2.790 -2.1883 -2.1026  1.5440
  770MOL0     H 1584   3.225   9.430   2.715  0.1184 -0.2836  1.0044
  770MOL0     H 1585   3.149   9.669   2.538  1.4104 -1.3458 -3.1705
  770MOL0     H 1586   3.226   9.529   2.497  2.7988  2.5422 -1.8561
  770MOL0     H 1587   3.427   9.589   2.607  0.1506 -1.2254 -2.6050
  770MOL0     H 1588   3.362   9.732   2.695  3.0522  2.7537 -2.7509
  770MOL0     H 1589   3.395   9.674   2.395 -0.9550 -2.5142  1.5950
  770MOL0     H 1590   3.310   9.820   2.462 -1.7526 -1.1897 -1.2037
  770MOL0     H 1591   3.569   9.841   2.383 -0.3998 -2.3748 -0.2549
  770MOL0     H 1592   3.601   9.747   2.515  2.0509  1.9013 -0.8260
  770MOL0     H 1593   3.515   9.867   2.770  0.9838 -1.7173 -2.2401
  770MOL0     H 1594   3.580  10.222   2.889 -2.8481  1.0086 -1.1044
  770MOL0     H 1595   3.626  10.065   2.932 -0.3434  0.1732  0.3266
  770MOL0     H 1596   3.413  10.147   3.044  1.5235 -1.2547  1.5813
  770MOL0     H 1597   3.395   9.993   2.959  0.0369  1.0920  1.3914
  770MOL0     H 1598   3.301  10.267   2.849  0.6635 -0.2989  0.5629
  770MOL0     H 1599   3.282  10.119   2.762 -1.8080 -1.1912 -0.0439
  770MOL0     H 1600   3.076  10.202   2.909  0.4552  1.0413 -0.1526
  770MOL0     H 1601   3.189  10.162   3.043  2.5149  0.7924 -0.1325
  770MOL0     H 1602   3.038   9.766   2.897 -1.2812 -1.2629 -0.3580
  770MOL0     H 1603   2.801   9.668   2.969 -0.4672 -0.5017 -0.0661
  770MOL0     H 1604   2.326   9.817   3.155  0.4274  0.2977 -0.1918
  770MOL0     H 1605   2.114   9.745   3.309  0.0802  0.4645 -0.5769
  770MOL0     H 1606   2.209   9.687   3.734  0.3758 -0.4325 -1.3018
  770MOL0     H 1607   2.164   9.530   3.686 -1.9080  0.0110  2.4075
  770MOL0     H 1608   1.942   9.736   3.732 -0.0174  1.0246 -2.7543
  770MOL0     H 1609   1.979   9.602   3.841 -0.7599 -0.1117  0.0527
  770MOL0     H 1610   1.955   9.436   3.650  0.2560 -0.3616 -1.4620
  770MOL0     H 1611   1.903   9.574   3.564  0.8350  1.1125  1.0054
  770MOL0     H 1612   1.715   9.603   3.735  1.0305  0.4148  0.9338
  770MOL0     H 1613   1.704   9.457   3.638  0.5750  1.1791 -1.8723
  770MOL0     H 1614   1.644   9.413   3.886  0.8077 -1.1035  1.2525
  770MOL0     H 1615   1.794   9.477   3.943  0.5489 -0.5048  0.3801
  770MOL0     H 1616   1.920   9.281   3.822  0.3160  1.3441 -0.4805
  770MOL0     H 1617   1.757   9.239   3.755 -1.4628  0.8283  0.2203
  770MOL0     H 1618   1.833   9.248   4.038 -0.6720  1.8984 -0.6991
  770MOL0     H 1619   1.662   9.212   3.983 -1.1867 -1.9575 -2.7934
  770MOL0     H 1620   1.910   9.048   3.937  0.8984  0.7174  0.4928
  770MOL0     H 1621   1.732   9.005   3.901 -0.9928 -0.4402  0.7293
  770MOL0     H 1622   2.397   9.674   3.625  2.7664 -0.8996 -1.0874
  770MOL0     H 1623   2.569   9.753   3.510  0.0906 -2.9684  0.5717
  770MOL0     H 1624   2.731  10.026   3.184 -1.0745 -1.5601  0.6063
  770MOL0     H 1625   2.941  10.116   3.113  0.0014  0.3871 -0.5726
  770MOL0     H 1626   2.548   9.426   2.833  1.8851 -0.1492  0.7609
  770MOL0     H 1627   2.343   9.304   2.850 -1.7077 -3.8843  0.3718
  770MOL0     H 1628   2.031   9.041   2.766  1.2003 -0.9209  0.3980
  770MOL0     H 1629   1.794   8.960   2.753 -0.0796 -2.7505 -1.0935
  770MOL0     H 1630   1.473   8.899   2.591 -0.6825  2.0726  1.4330
  770MOL0     H 1631   1.575   8.986   2.708 -0.7786  1.6673 -0.6346
  770MOL0     H 1632   1.725   8.770   2.717 -0.7498  0.4728  0.3973
  770MOL0     H 1633   1.566   8.766   2.788 -0.6382  0.2670 -0.4966
  770MOL0     H 1634   1.622   8.666   2.513  0.7619 -0.2104  0.8059
  770MOL0     H 1635   1.473   8.650   2.620 -0.7286  0.8269 -3.2131
  770MOL0     H 1636   1.746   8.526   2.693 -0.4815  0.6242  0.9624
  770MOL0     H 1637   1.596   8.520   2.773  0.4515  0.5005  0.0153
  770MOL0     H 1638   1.638   8.204   2.474 -2.4941  0.8979 -1.1066
  770MOL0     H 1639   1.821   8.995   2.327 -1.0312 -0.2460  0.2402
  770MOL0     H 1640   2.059   9.071   2.345 -0.2606  1.3319 -0.5073
  771MOL0     O 1641  10.032   7.407  10.626  0.3717  0.0547  0.4666
  771MOL0     C 1642  10.086   7.438  10.730 -0.2914 -0.8995  0.7386
  771MOL0     O 1643  10.043   7.536  10.811 -0.1795  0.2067 -0.4164
  771MOL0     C 1644   9.913   7.575  10.823  0.4174 -0.4401  0.1165
  771MOL0     C 1645   9.803   7.513  10.769 -0.0841 -0.2868 -0.1242
  771MOL0     C 1646   9.676   7.575  10.787 -0.1961  0.6323 -0.3365
  771MOL0     C 1647   9.666   7.693  10.857  0.1325  0.3036 -0.1151
  771MOL0     O 1648   9.546   7.753  10.877  0.7433  0.6784  0.2815
  771MOL0     C 1649   9.427   7.687  10.918  0.1822  0.4683  0.5290
  771MOL0     C 1650   9.330   7.660  10.801  0.5755  0.5169  0.0247
  771MOL0     C 1651   9.198   7.603  10.852 -0.3029 -0.5885 -0.2485
  771MOL0     C 1652   9.110   7.712  10.922  0.5075  1.0462 -0.0145
  771MOL0     C 1653   8.975   7.645  10.983  0.2967 -0.0487  0.3428
  771MOL0     C 1654   8.860   7.744  10.975  0.7229  0.0503 -0.0886
  771MOL0     C 1655   8.726   7.686  11.012 -0.0134  0.4812 -0.8207
  771MOL0     C 1656   8.619   7.796  10.995  0.2945  0.1441  0.5654
  771MOL0     N 1657   8.493   7.758  11.064 -0.5695  0.0843  0.1825
  771MOL0     C 1658   8.395   7.679  11.008 -0.1511  0.2532 -0.4217
  771MOL0     C 1659   8.300   7.669  11.103  0.8503 -0.1288 -0.1429
  771MOL0     C 1660   8.178   7.585  11.099 -0.6232  1.1521 -0.5313
  771MOL0     C 1661   8.039   7.653  11.113  0.3039  0.1601  0.9614
  771MOL0     C 1662   8.015   7.726  11.252 -0.3149  0.1845  0.2892
  771MOL0     C 1663   7.867   7.766  11.254  0.3092 -0.6878 -0.6041
  771MOL0     O 1664   7.828   7.804  11.383 -0.5082 -0.0352 -0.2041
  771MOL0     C 1665   7.703   7.861  11.402  0.2757  0.6825 -0.8854
  771MOL0     C 1666   7.660   7.897  11.538 -0.2015 -0.3961  0.1584
  771MOL0     C 1667   7.526   7.928  11.576 -0.7801 -0.8988 -0.1143
  771MOL0     C 1668   7.428   7.934  11.481 -0.6855 -0.1098  0.1739
  771MOL0     C 1669   7.301   7.995  11.509 -0.7163 -1.0175 -0.3433
  771MOL0     O 1670   7.219   8.017  11.398 -0.6900  0.9060  0.3970
  771MOL0     C 1671   7.090   8.034  11.398  0.2543 -0.4119 -0.2532
  771MOL0     C 1672   7.029   8.110  11.294  0.1360  1.1109  0.3333
  771MOL0     C 1673   6.894   8.130  11.283 -0.3246  0.3596  0.2979
  771MOL0     C 1674   6.810   8.076  11.380  0.0092 -0.2751  0.1242
  771MOL0     O 1675   6.674   8.110  11.389 -0.0110 -0.2196  0.0510
  771MOL0     C 1676   6.600   8.138  11.269 -1.7647 -0.1689  0.4050
  771MOL0     C 1677   6.452   8.133  11.291 -0.0663 -0.4780  0.3582
  771MOL0     C 1678   6.394   7.989  11.280  0.7800 -0.5037  0.9711
  771MOL0     C 1679   6.239   8.016  11.284  0.2908 -0.8056  1.0654
  771MOL0     C 1680   6.166   7.892  11.306 -0.1393 -0.4573 -0.0460
  771MOL0     C 1681   6.162   7.808  11.168  0.0757  1.3157 -0.3471
  771MOL0     C 1682   6.040   7.711  11.159 -0.4733  0.2204 -0.2548
  771MOL0     C 1683   6.060   7.592  11.252  0.5112  0.3680 -0.4871
  771MOL0    Cl 1684   6.191   7.477  11.191  0.3698 -0.1468 -0.2898
  771MOL0     C 1685   6.872   8.001  11.484  0.2544  0.0403 -0.2834
  771MOL0     C 1686   7.006   7.974  11.487  0.7063 -0.5245  0.0981
  771MOL0     O 1687   7.273   8.022  11.627 -0.3431 -0.4709 -0.0780
  771MOL0     C 1688   7.465   7.901  11.345 -0.6538  0.6466  0.0212
  771MOL0     C 1689   7.597   7.865  11.306  0.5744  0.0059  0.2383
  771MOL0     N 1690   8.347   7.732  11.220  0.2163 -0.0784  0.3810
  771MOL0     N 1691   8.456   7.785  11.194 -0.3621  0.2904 -0.2788
  771MOL0     C 1692   9.770   7.756  10.917 -0.0922 -0.0654  0.0415
  771MOL0     C 1693   9.897   7.697  10.892  0.3169  0.1565  0.2747
  771MOL0     C 1694  10.203   7.366  10.764  0.0488  0.1546  0.0475
  771MOL0     C 1695  10.256   7.380  10.890  0.0788  0.3543  0.0696
  771MOL0     C 1696  10.383   7.321  10.922  0.1489  0.0960 -0.1965
  771MOL0     C 1697  10.453   7.250  10.825 -1.4890 -0.8543  0.3141
  771MOL0     O 1698  10.575   7.214  10.877 -0.2982 -0.2776 -0.2607
  771MOL0     C 1699  10.647   7.111  10.815  0.7739 -1.0384  0.5741
  771MOL0     C 1700  10.746   7.042  10.905 -0.4757  0.1112 -0.1450
  771MOL0     C 1701  10.892   7.014  10.855 -0.7085  0.3646  0.2523
  771MOL0     C 1702  10.901   6.943  10.720 -0.6467  0.2814 -0.8441
  771MOL0     C 1703  10.826   6.813  10.720 -0.3728 -0.0903  0.5595
  771MOL0     C 1704  10.747   6.716  10.707 -0.3976  0.6664 -0.3903
  771MOL0     C 1705  10.398   7.238  10.697 -1.1077  0.3985 -0.4118
  771MOL0     C 1706  10.274   7.291  10.667 -0.4112  0.7186 -0.6266
  771MOL0     H 1707   9.799   7.428  10.701 -0.9757  0.4991 -1.0835
  771MOL0     H 1708   9.599   7.524  10.731  0.5395 -1.0133  0.0876
  771MOL0     H 1709   9.379   7.759  10.985  0.1031 -0.9083  1.9763
  771MOL0     H 1710   9.447   7.600  10.980  0.3409 -1.3318 -1.8859
  771MOL0     H 1711   9.389   7.592  10.739 -0.4551  0.8477 -1.3706
  771MOL0     H 1712   9.323   7.757  10.751  2.3090  0.4852 -0.3473
  771MOL0     H 1713   9.206   7.522  10.925 -0.2600 -0.2975  0.0793
  771MOL0     H 1714   9.134   7.555  10.777 -1.1373 -1.0533  0.7312
  771MOL0     H 1715   9.158   7.757  11.009 -1.0051  2.0364  0.3371
  771MOL0     H 1716   9.071   7.784  10.850 -2.2044 -1.8230 -1.6923
  771MOL0     H 1717   8.980   7.605  11.085 -2.6666 -0.7841  0.2857
  771MOL0     H 1718   8.958   7.553  10.926 -0.3908  0.3388 -0.0913
  771MOL0     H 1719   8.850   7.782  10.873  0.7985  0.3559  0.0166
  771MOL0     H 1720   8.889   7.813  11.055 -2.1038  1.4075 -0.1135
  771MOL0     H 1721   8.708   7.603  10.943 -1.6053 -1.8895  2.1936
  771MOL0     H 1722   8.727   7.646  11.114  1.0459 -1.7716 -1.6466
  771MOL0     H 1723   8.607   7.811  10.887  2.1012 -0.4149  0.2665
  771MOL0     H 1724   8.652   7.885  11.049  0.1982 -1.4632  3.5090
  771MOL0     H 1725   8.391   7.627  10.913 -3.2536  1.4496 -1.0475
  771MOL0     H 1726   8.201   7.510  11.176  3.5214  1.4940 -1.2151
  771MOL0     H 1727   8.182   7.530  11.005 -1.1675 -0.2527  0.2356
  771MOL0     H 1728   7.959   7.582  11.093 -2.6097  3.4809 -0.2379
  771MOL0     H 1729   8.037   7.729  11.034  0.1655 -0.2860  0.5323
  771MOL0     H 1730   8.033   7.660  11.337 -3.3864 -0.1499  0.7902
  771MOL0     H 1731   8.088   7.808  11.252  0.2605 -0.3046 -0.7989
  771MOL0     H 1732   7.809   7.679  11.222 -0.3804  0.1856 -1.8136
  771MOL0     H 1733   7.854   7.844  11.178  3.3783 -0.2929 -0.8366
  771MOL0     H 1734   7.730   7.885  11.620 -1.3007 -0.4758  1.1144
  771MOL0     H 1735   7.512   7.960  11.678 -1.0117  1.7787 -0.9125
  771MOL0     H 1736   7.099   8.147  11.219 -0.3945  1.5495  0.0460
  771MOL0     H 1737   6.854   8.193  11.204 -1.5600 -0.2984  0.3771
  771MOL0     H 1738   6.626   8.054  11.204  0.7388 -1.5343  2.9348
  771MOL0     H 1739   6.644   8.231  11.231 -1.7624 -0.7055 -0.9727
  771MOL0     H 1740   6.423   8.184  11.199  1.6835  2.0978  1.1136
  771MOL0     H 1741   6.415   8.196  11.372  0.0737  0.0992 -0.0214
  771MOL0     H 1742   6.421   7.925  11.364  1.6982 -0.9568  0.3397
  771MOL0     H 1743   6.419   7.944  11.184 -1.0302  0.9849 -0.2937
  771MOL0     H 1744   6.208   8.087  11.361 -2.4389 -0.1296 -0.5225
  771MOL0     H 1745   6.202   8.062  11.192 -1.2182 -1.9976  1.0471
  771MOL0     H 1746   6.062   7.925  11.319 -0.4178 -0.6560 -1.5084
  771MOL0     H 1747   6.194   7.829  11.391 -0.9576 -0.0424  0.5485
  771MOL0     H 1748   6.255   7.750  11.162 -1.1778 -0.6300 -2.3252
  771MOL0     H 1749   6.157   7.872  11.080  0.7709  1.0559 -0.5862
  771MOL0     H 1750   5.956   7.777  11.183 -1.2960  0.1078 -2.5368
  771MOL0     H 1751   6.026   7.666  11.060  0.2651 -2.2859  0.6899
  771MOL0     H 1752   5.961   7.546  11.246 -0.2416  1.3926  2.3713
  771MOL0     H 1753   6.091   7.617  11.354  0.6278  0.0133 -0.4345
  771MOL0     H 1754   6.806   7.947  11.551 -0.0619  0.3367 -0.3548
  771MOL0     H 1755   7.037   7.900  11.560 -1.0133 -1.0609  0.3378
  771MOL0     H 1756   7.398   7.908  11.260  1.6939  0.0858 -1.9660
  771MOL0     H 1757   7.606   7.836  11.202  0.6332 -0.0763  0.2663
  771MOL0     H 1758   9.759   7.843  10.981  1.8900  1.5570 -1.6760
  771MOL0     H 1759   9.983   7.750  10.930  2.4354 -1.4452 -1.9732
  771MOL0     H 1760  10.207   7.425  10.976 -1.3662 -1.7027  0.4172
  771MOL0     H 1761  10.427   7.320  11.021 -1.2434 -1.4822  0.4344
  771MOL0     H 1762  10.701   7.156  10.730 -2.2055  2.7322  0.4052
  771MOL0     H 1763  10.579   7.038  10.769  1.6952 -1.3632 -0.3206
  771MOL0     H 1764  10.755   7.096  11.000  0.5268 -1.1183  0.4986
  771MOL0     H 1765  10.704   6.944  10.930 -1.6486  0.3435 -1.1099
  771MOL0     H 1766  10.943   6.961  10.937 -1.8920  2.1605  2.2697
  771MOL0     H 1767  10.948   7.106  10.839  1.6215 -1.3510 -2.3974
  771MOL0     H 1768  10.855   7.005  10.642 -1.5030 -1.2960 -1.6500
  771MOL0     H 1769  11.005   6.924  10.691 -1.1038 -0.4346 -2.0836
  771MOL0     H 1770  10.687   6.627  10.703 -0.8259  0.9782 -0.8798
  771MOL0     H 1771  10.459   7.184  10.626 -1.4680 -0.8596  0.2128
  771MOL0     H 1772  10.245   7.284  10.563 -2.2354  1.9917 -0.2533
  772MOL0     O 1773   8.526  10.962   3.564 -0.4645 -0.0085  0.2839
  772MOL0     C 1774   8.510  10.899   3.667 -0.8119 -0.4505  0.3433
  772MOL0     O 1775   8.394  10.832   3.709 -0.1411  0.3329  0.2152
  772MOL0     C 1776   8.294  10.852   3.626  0.0224 -0.5872 -0.3815
  772MOL0     C 1777   8.230  10.974   3.620  0.6949 -0.0859 -1.0477
  772MOL0     C 1778   8.112  10.989   3.560  0.6876  0.5665  0.2280
  772MOL0     C 1779   8.047  10.874   3.507  0.7026  0.3953 -0.0728
  772MOL0     O 1780   7.920  10.869   3.460  0.0252 -0.5091  0.6479
  772MOL0     C 1781   7.831  10.972   3.497  0.0812 -0.6402 -0.0700
  772MOL0     C 1782   7.676  10.938   3.481  0.5654 -0.3217  0.1116
  772MOL0     C 1783   7.631  10.826   3.573  0.8411 -0.2288  0.0389
  772MOL0     C 1784   7.503  10.842   3.663 -0.2898 -0.2390  0.4119
  772MOL0     C 1785   7.377  10.843   3.581  0.5848  0.0186 -0.2387
  772MOL0     C 1786   7.263  10.874   3.668  0.5053  0.4920 -0.4613
  772MOL0     C 1787   7.124  10.857   3.590 -0.1866  0.4144  0.1884
  772MOL0     C 1788   7.008  10.927   3.661 -0.2346 -0.2752 -0.8243
  772MOL0     N 1789   6.880  10.940   3.604 -0.0232 -0.0002  0.2556
  772MOL0     C 1790   6.775  10.858   3.615 -0.1705  0.8092 -0.1994
  772MOL0     C 1791   6.669  10.914   3.565 -0.3206  0.3029 -0.3096
  772MOL0     C 1792   6.521  10.870   3.553  0.1106 -0.2539  0.4235
  772MOL0     C 1793   6.450  10.851   3.690  0.8802  0.4997 -0.2190
  772MOL0     C 1794   6.314  10.783   3.666  0.6900  0.0245  0.4334
  772MOL0     C 1795   6.238  10.767   3.795  0.0558  0.0536 -0.6835
  772MOL0     O 1796   6.129  10.667   3.782  0.5675 -0.6166 -0.2280
  772MOL0     C 1797   5.997  10.701   3.757  0.1520  0.2131 -1.1870
  772MOL0     C 1798   5.918  10.621   3.674  0.1141  0.3028  0.7570
  772MOL0     C 1799   5.778  10.640   3.661 -0.6860 -0.5825 -0.1067
  772MOL0     C 1800   5.723  10.751   3.725  0.7209 -0.1400  0.5798
  772MOL0     C 1801   5.572  10.775   3.721  0.1275  0.2216 -0.4372
  772MOL0     O 1802   5.514  10.887   3.786  0.9502  0.0570  0.0311
  772MOL0     C 1803   5.378  10.894   3.804  0.4015  0.4099  0.2257
  772MOL0     C 1804   5.312  10.803   3.895  0.9111 -0.1713  0.3510
  772MOL0     C 1805   5.174  10.830   3.928  0.2606 -0.4560 -0.1865
  772MOL0     C 1806   5.104  10.939   3.867 -0.1710  0.2108 -0.7257
  772MOL0     O 1807   4.969  10.946   3.903 -0.2354 -0.4908  0.1847
  772MOL0     C 1808   4.902  11.068   3.874  0.4677 -0.6179 -0.2981
  772MOL0     C 1809   4.754  11.079   3.938 -0.7120  0.5233 -0.0870
  772MOL0     C 1810   4.701  11.221   3.917  0.6007 -0.1991 -0.5095
  772MOL0     C 1811   4.556  11.214   3.978 -0.2100  1.0909  0.3531
  772MOL0     C 1812   4.479  11.344   3.945  0.9024  0.6364  0.3755
  772MOL0     C 1813   4.355  11.362   4.035 -0.7365  0.3232 -0.2618
  772MOL0     C 1814   4.287  11.508   4.041  0.4908  0.0096 -1.1551
  772MOL0     C 1815   4.284  11.588   3.913 -0.5969  1.1582  0.5807
  772MOL0    Cl 1816   4.200  11.507   3.787 -0.2375 -0.1196 -0.1176
  772MOL0     C 1817   5.181  11.021   3.774  0.7939 -0.6814 -0.0045
  772MOL0     C 1818   5.311  11.005   3.746 -0.4443 -0.1505  0.3753
  772MOL0     O 1819   5.508  10.694   3.652 -0.6010  0.4394  0.5163
  772MOL0     C 1820   5.803  10.836   3.794 -0.2390  0.4118 -0.2824
  772MOL0     C 1821   5.939  10.812   3.814 -0.7900 -0.2977  0.5812
  772MOL0     N 1822   6.714  11.039   3.526  0.3484  0.1019 -0.6865
  772MOL0     N 1823   6.837  11.051   3.551 -0.0290 -0.4168  0.8847
  772MOL0     C 1824   8.110  10.748   3.495  0.2767  0.2243 -0.5351
  772MOL0     C 1825   8.237  10.740   3.557  0.4260  0.1168  0.4623
  772MOL0     C 1826   8.628  10.913   3.754  0.3215 -0.3326 -0.4988
  772MOL0     C 1827   8.620  10.886   3.899 -0.4739  0.0820  0.0337
  772MOL0     C 1828   8.733  10.882   3.979 -0.1566 -0.7294 -0.9101
  772MOL0     C 1829   8.865  10.911   3.915 -1.0426  0.3818 -0.7027
  772MOL0     O 1830   8.976  10.919   3.994 -0.4689  0.5223  0.8257
  772MOL0     C 1831   9.108  10.944   3.941 -0.2749  0.4028  0.9116
  772MOL0     C 1832   9.210  10.917   4.049  0.1856  0.8494 -0.0769
  772MOL0     C 1833   9.354  10.928   4.005  0.1818 -0.6307  0.3266
  772MOL0     C 1834   9.387  10.831   3.890 -0.1629  0.0573 -0.0314
  772MOL0     C 1835   9.530  10.806   3.868 -0.5515 -0.0345 -0.2582
  772MOL0     C 1836   9.648  10.789   3.860 -0.7865  0.3205  0.0758
  772MOL0     C 1837   8.868  10.946   3.780  0.2542 -0.1042 -1.4756
  772MOL0     C 1838   8.749  10.959   3.704 -0.3254 -0.7834  0.0288
  772MOL0     H 1839   8.260  11.062   3.675 -2.1981 -1.3100  2.9427
  772MOL0     H 1840   8.052  11.078   3.568 -0.1131  0.2066 -1.3573
  772MOL0     H 1841   7.852  11.047   3.420  1.0112 -1.8674 -1.0423
  772MOL0     H 1842   7.842  10.999   3.602 -1.3032 -0.9748  0.1792
  772MOL0     H 1843   7.667  10.914   3.375  1.3972  2.5557 -0.7000
  772MOL0     H 1844   7.609  11.024   3.495 -0.6320 -1.0321 -0.9712
  772MOL0     H 1845   7.709  10.819   3.649  0.4627 -1.3996  0.3485
  772MOL0     H 1846   7.641  10.726   3.529 -4.9095 -0.7749 -0.8013
  772MOL0     H 1847   7.497  10.769   3.745  0.9621  0.5703  1.2574
  772MOL0     H 1848   7.503  10.939   3.713  1.5856 -0.7758  1.5531
  772MOL0     H 1849   7.361  10.748   3.530  1.0325  0.3643 -1.0443
  772MOL0     H 1850   7.382  10.913   3.497 -0.8058  2.5361  1.6578
  772MOL0     H 1851   7.280  10.972   3.713  0.4528  0.6769 -0.8353
  772MOL0     H 1852   7.261  10.797   3.745 -1.5968  1.9471  1.0164
  772MOL0     H 1853   7.150  10.898   3.492 -1.2922  3.6909  1.1132
  772MOL0     H 1854   7.097  10.752   3.577  0.4825  0.3712 -0.9312
  772MOL0     H 1855   7.039  11.028   3.690  1.3437 -0.4613 -1.7508
  772MOL0     H 1856   6.988  10.860   3.745  1.8313 -0.8564 -0.7511
  772MOL0     H 1857   6.779  10.766   3.672  0.6591  0.9240 -0.0637
  772MOL0     H 1858   6.507  10.774   3.502  2.5743 -1.0037  1.0064
  772MOL0     H 1859   6.472  10.950   3.497 -3.2311 -1.3463  1.5382
  772MOL0     H 1860   6.443  10.947   3.742  3.7394  1.1670 -0.8906
  772MOL0     H 1861   6.504  10.780   3.753 -1.6433  0.3806  2.0153
  772MOL0     H 1862   6.251  10.843   3.600  0.0306 -2.2781 -1.1502
  772MOL0     H 1863   6.330  10.683   3.625  2.6187  0.4694  0.0047
  772MOL0     H 1864   6.192  10.864   3.813  0.5667  0.2432 -0.3824
  772MOL0     H 1865   6.296  10.750   3.886 -1.3732 -0.9210  0.0857
  772MOL0     H 1866   5.963  10.530   3.637  0.5155  0.1606  1.5616
  772MOL0     H 1867   5.722  10.567   3.603  0.6565 -3.2431  1.7285
  772MOL0     H 1868   5.375  10.726   3.940  1.9785  1.0498  1.0099
  772MOL0     H 1869   5.122  10.755   3.987 -1.9645  3.3846  3.3200
  772MOL0     H 1870   4.898  11.076   3.765  2.1053 -0.5319 -0.3655
  772MOL0     H 1871   4.962  11.152   3.910 -0.6533 -0.2342  0.7527
  772MOL0     H 1872   4.765  11.056   4.044  0.3975  1.3887 -0.0029
  772MOL0     H 1873   4.694  10.997   3.897 -1.8568  0.0682  2.3442
  772MOL0     H 1874   4.705  11.255   3.813 -1.2387  2.0282  0.0583
  772MOL0     H 1875   4.772  11.280   3.976  1.1530 -3.5630  2.5854
  772MOL0     H 1876   4.513  11.122   3.938 -0.8666  1.1029  1.0243
  772MOL0     H 1877   4.553  11.195   4.086  1.9120 -1.9232  0.0084
  772MOL0     H 1878   4.452  11.333   3.840  1.7474  0.4180  0.1770
  772MOL0     H 1879   4.537  11.436   3.958 -2.1429  2.3913  3.0576
  772MOL0     H 1880   4.362  11.324   4.137 -2.9613 -0.1808 -0.2512
  772MOL0     H 1881   4.282  11.295   3.989 -1.4100  1.6069 -1.1507
  772MOL0     H 1882   4.187  11.486   4.078 -0.0520 -1.1940 -3.1830
  772MOL0     H 1883   4.345  11.560   4.118  0.1558  1.7589 -2.0489
  772MOL0     H 1884   4.386  11.616   3.885 -0.0754  0.5110  1.7449
  772MOL0     H 1885   4.226  11.678   3.936 -3.6584 -0.8704  1.4748
  772MOL0     H 1886   5.130  11.103   3.723  0.4646 -1.4758 -0.9882
  772MOL0     H 1887   5.367  11.064   3.674 -1.2317 -1.1761 -1.1492
  772MOL0     H 1888   5.758  10.916   3.852 -2.3720 -0.1826 -1.0518
  772MOL0     H 1889   5.991  10.885   3.875 -1.4021 -2.9245  4.6926
  772MOL0     H 1890   8.070  10.657   3.451  0.4945  0.6055 -1.5659
  772MOL0     H 1891   8.295  10.649   3.571  0.4589  0.2999  1.5557
  772MOL0     H 1892   8.526  10.868   3.949 -0.8076  0.4786 -0.4348
  772MOL0     H 1893   8.720  10.860   4.085  0.8918 -1.6026 -0.9467
  772MOL0     H 1894   9.114  11.048   3.907  0.4885  0.2994  0.7036
  772MOL0     H 1895   9.129  10.875   3.858 -0.0852  0.2183  1.1122
  772MOL0     H 1896   9.188  10.978   4.137 -0.3107  0.6869 -0.0921
  772MOL0     H 1897   9.194  10.816   4.086  1.3079  0.7748  0.2496
  772MOL0     H 1898   9.427  10.931   4.086 -0.3344  0.0095  0.7734
  772MOL0     H 1899   9.368  11.027   3.961  1.0834 -1.8901 -2.4677
  772MOL0     H 1900   9.334  10.736   3.902 -0.8643  0.1373 -1.9968
  772MOL0     H 1901   9.351  10.879   3.798 -0.1753  0.8814  0.3983
  772MOL0     H 1902   9.755  10.788   3.866 -0.7196 -1.3242 -0.6236
  772MOL0     H 1903   8.964  10.968   3.736  0.1187  0.2062 -1.6142
  772MOL0     H 1904   8.761  10.991   3.601 -1.2302  0.4747  0.2912
  773MOL0     O 1905   9.396   4.842   2.283  0.6780  0.1999 -0.8142
  773MOL0     C 1906   9.402   4.722   2.247  0.5599  0.4777  0.7213
  773MOL0     O 1907   9.516   4.654   2.214 -0.5982  0.2757 -1.0970
  773MOL0     C 1908   9.636   4.714   2.211 -1.7673  0.4183 -0.2093
  773MOL0     C 1909   9.673   4.850   2.210 -0.1795 -0.5118  0.5655
  773MOL0     C 1910   9.805   4.892   2.187  0.2928 -0.4686 -0.6816
  773MOL0     C 1911   9.908   4.797   2.187  0.4042 -0.3647  0.7893
  773MOL0     O 1912  10.033   4.839   2.150 -0.3907  0.6450 -0.3748
  773MOL0     C 1913  10.087   4.785   2.022 -0.3083 -1.0048  0.0824
  773MOL0     C 1914  10.163   4.884   1.938 -0.6701 -0.4672  0.2735
  773MOL0     C 1915  10.070   4.998   1.876 -0.0946 -0.4820  0.6020
  773MOL0     C 1916  10.161   5.080   1.778 -0.7785 -0.2638 -0.2666
  773MOL0     C 1917  10.099   5.201   1.707 -0.0649  0.5758  0.1525
  773MOL0     C 1918  10.062   5.304   1.816  0.0893  0.1315 -0.0159
  773MOL0     C 1919  10.031   5.432   1.743  0.2383 -0.0136  0.2310
  773MOL0     C 1920  10.016   5.551   1.843 -0.3712  0.2284 -0.2008
  773MOL0     N 1921   9.935   5.663   1.784  0.3386  0.6085  1.1029
  773MOL0     C 1922   9.820   5.718   1.843 -0.0343  0.6896 -0.5600
  773MOL0     C 1923   9.780   5.822   1.769  0.8655 -0.2598  0.0852
  773MOL0     C 1924   9.663   5.904   1.785 -0.4799  0.3658 -0.1398
  773MOL0     C 1925   9.565   5.841   1.879 -0.5806  0.9731 -0.2069
  773MOL0     C 1926   9.434   5.923   1.894  0.8157  0.1676 -0.7332
  773MOL0     C 1927   9.304   5.858   1.953  0.2073 -0.1700  0.1399
  773MOL0     O 1928   9.213   5.970   1.941  0.5306  0.0786  0.0180
  773MOL0     C 1929   9.083   5.955   1.989 -0.0518  0.2438  1.6873
  773MOL0     C 1930   9.036   5.834   2.026  0.1909 -0.6235 -0.3789
  773MOL0     C 1931   8.907   5.823   2.084  0.3048 -0.4967  0.3914
  773MOL0     C 1932   8.820   5.937   2.076 -0.5220 -0.5763 -0.3307
  773MOL0     C 1933   8.689   5.927   2.134  0.2365  0.4800 -0.9375
  773MOL0     O 1934   8.606   6.036   2.115  0.7736 -0.8474  0.3826
  773MOL0     C 1935   8.472   6.051   2.142  0.6701  0.3029  0.0031
  773MOL0     C 1936   8.417   6.181   2.125 -0.0482 -0.1317 -0.0497
  773MOL0     C 1937   8.285   6.206   2.151  0.2974  0.0188 -0.7115
  773MOL0     C 1938   8.197   6.104   2.194 -1.1074 -0.0628 -0.5198
  773MOL0     O 1939   8.066   6.139   2.203 -0.1396  0.0819  0.8664
  773MOL0     C 1940   7.985   6.058   2.287  0.2765 -0.1074 -0.0211
  773MOL0     C 1941   7.842   6.114   2.287 -0.2319  0.2995  0.0914
  773MOL0     C 1942   7.767   6.049   2.403  0.9376 -0.5534  0.0673
  773MOL0     C 1943   7.613   6.071   2.367  0.3052 -1.2409 -0.4134
  773MOL0     C 1944   7.527   6.037   2.493 -0.2370 -0.0310  0.0454
  773MOL0     C 1945   7.379   5.994   2.447 -0.2902  0.3834 -0.4968
  773MOL0     C 1946   7.317   6.113   2.379  0.4600 -0.3374  0.5349
  773MOL0     C 1947   7.167   6.084   2.353  0.4887  0.2181  0.8546
  773MOL0    Cl 1948   7.127   5.958   2.249  0.3533  0.2210  0.0402
  773MOL0     C 1949   8.244   5.970   2.219  0.3820  0.1471 -0.0879
  773MOL0     C 1950   8.381   5.943   2.180 -0.2698 -0.6477 -0.1768
  773MOL0     O 1951   8.663   5.824   2.198 -0.1089  0.0810  0.2953
  773MOL0     C 1952   8.868   6.057   2.016 -0.3520 -0.5903 -0.8959
  773MOL0     C 1953   8.996   6.065   1.973 -0.4693 -0.7697 -0.2106
  773MOL0     N 1954   9.884   5.837   1.665  0.3878  0.3082  0.3746
  773MOL0     N 1955   9.969   5.744   1.685 -0.2994  0.0030 -0.0397
  773MOL0     C 1956   9.882   4.664   2.201  0.0736  0.5220 -0.0297
  773MOL0     C 1957   9.747   4.620   2.206  0.2084  0.2793 -0.1150
  773MOL0     C 1958   9.276   4.665   2.231 -0.4057  0.3212  0.5735
  773MOL0     C 1959   9.166   4.741   2.182  0.6530  0.3147  0.0716
  773MOL0     C 1960   9.040   4.678   2.167  0.0778 -0.5199  0.0641
  773MOL0     C 1961   9.027   4.539   2.190 -0.1983  0.3843 -0.2225
  773MOL0     O 1962   8.904   4.486   2.163  0.1757  0.3290 -0.4461
  773MOL0     C 1963   8.897   4.347   2.157 -1.0993 -0.5084 -0.4536
  773MOL0     C 1964   8.760   4.295   2.117  0.3720 -0.2122 -0.0071
  773MOL0     C 1965   8.661   4.304   2.229 -0.3196  1.0540 -0.2548
  773MOL0     C 1966   8.521   4.329   2.189  0.5509 -0.0845  0.5808
  773MOL0     C 1967   8.452   4.232   2.100 -0.5120  0.0513  0.0528
  773MOL0     C 1968   8.399   4.161   2.018 -0.1658 -0.0311 -0.3513
  773MOL0     C 1969   9.139   4.470   2.233  0.3070  0.1596 -0.4853
  773MOL0     C 1970   9.264   4.529   2.252  0.0050  0.4077 -0.1228
  773MOL0     H 1971   9.597   4.927   2.220 -1.1773 -1.2627 -0.9224
  773MOL0     H 1972   9.830   4.994   2.163  0.8085 -0.4519 -0.0976
  773MOL0     H 1973  10.009   4.735   1.964 -1.4435  0.4283  0.3156
  773MOL0     H 1974  10.162   4.713   2.056  0.6073  1.0058  2.6794
  773MOL0     H 1975  10.209   4.829   1.856 -1.1003 -1.5222  0.7164
  773MOL0     H 1976  10.248   4.928   1.992 -0.8317  0.1043  0.0721
  773MOL0     H 1977  10.024   5.065   1.949  0.8385  2.8498 -1.6666
  773MOL0     H 1978   9.994   4.952   1.813  0.2901  2.4196 -2.2221
  773MOL0     H 1979  10.255   5.104   1.829 -0.3521 -3.4248  0.6537
  773MOL0     H 1980  10.188   5.003   1.705  0.7769 -2.7670  2.7092
  773MOL0     H 1981  10.007   5.164   1.662 -0.0507 -1.2278  1.5162
  773MOL0     H 1982  10.170   5.238   1.632 -1.6617  0.9033 -1.2441
  773MOL0     H 1983  10.150   5.330   1.877  0.6742  0.1561 -0.8511
  773MOL0     H 1984   9.979   5.272   1.880 -1.5799  1.1736 -1.5645
  773MOL0     H 1985  10.120   5.453   1.682  0.9151  0.4569  1.3600
  773MOL0     H 1986   9.943   5.423   1.679 -1.1298  0.4418  1.9651
  773MOL0     H 1987  10.118   5.587   1.858 -0.9246  1.7285  0.1247
  773MOL0     H 1988   9.963   5.513   1.931 -0.6067  0.1091 -0.3941
  773MOL0     H 1989   9.767   5.683   1.930  0.3978  1.7766  0.1673
  773MOL0     H 1990   9.620   5.913   1.685  1.3627 -1.0203 -1.1053
  773MOL0     H 1991   9.696   5.996   1.834 -1.0756 -0.9671  3.0391
  773MOL0     H 1992   9.602   5.817   1.979 -1.0711 -0.0484 -0.2544
  773MOL0     H 1993   9.538   5.740   1.846 -0.9237 -0.5479  4.0879
  773MOL0     H 1994   9.446   6.014   1.953  0.7128 -0.7048  0.6696
  773MOL0     H 1995   9.419   5.958   1.791  2.1895  1.2979 -0.5734
  773MOL0     H 1996   9.322   5.817   2.052  2.7843 -1.3786 -0.7464
  773MOL0     H 1997   9.283   5.766   1.897  2.1364 -0.2197 -0.5910
  773MOL0     H 1998   9.091   5.741   2.037 -1.6376 -1.5811  1.2651
  773MOL0     H 1999   8.880   5.734   2.140 -0.2515  0.3772  1.5682
  773MOL0     H 2000   8.467   6.271   2.091  0.9755  0.2946  2.3443
  773MOL0     H 2001   8.243   6.304   2.129  2.8039  0.7652 -2.6577
  773MOL0     H 2002   8.037   6.058   2.383 -1.0192  0.1702  0.7004
  773MOL0     H 2003   7.981   5.955   2.250  1.8171  0.0970 -0.8581
  773MOL0     H 2004   7.802   6.088   2.188 -1.6417  1.9259  0.1802
  773MOL0     H 2005   7.849   6.223   2.294 -0.5929  0.3728 -0.5870
  773MOL0     H 2006   7.784   6.104   2.496 -1.2703  3.6405 -1.7393
  773MOL0     H 2007   7.793   5.943   2.412  0.3480 -0.6780  0.3789
  773MOL0     H 2008   7.591   6.174   2.338 -1.0540 -1.5172 -0.4181
  773MOL0     H 2009   7.593   6.008   2.280  0.1016 -2.4837  0.5108
  773MOL0     H 2010   7.539   6.130   2.549  1.0054  0.7123 -1.3809
  773MOL0     H 2011   7.566   5.952   2.550 -1.4002 -1.5991 -1.3810
  773MOL0     H 2012   7.317   5.956   2.528 -0.9380  1.8966 -0.2358
  773MOL0     H 2013   7.386   5.909   2.379  0.8754  1.3303 -1.6133
  773MOL0     H 2014   7.317   6.205   2.437 -1.3005  1.6783 -2.4097
  773MOL0     H 2015   7.363   6.130   2.281  2.2278 -0.4544  1.3127
  773MOL0     H 2016   7.122   6.176   2.315  1.1426  0.2475  0.1263
  773MOL0     H 2017   7.124   6.060   2.451  0.1963 -0.4498  0.5682
  773MOL0     H 2018   8.186   5.881   2.241 -0.5214  0.9663  0.9244
  773MOL0     H 2019   8.407   5.839   2.197 -1.9119 -0.9773  0.4921
  773MOL0     H 2020   8.819   6.154   2.016  0.3715 -0.1877  0.4846
  773MOL0     H 2021   9.046   6.147   1.922  0.4827 -1.1237  0.1242
  773MOL0     H 2022   9.957   4.586   2.189 -3.1270 -2.7088 -0.7703
  773MOL0     H 2023   9.726   4.515   2.219 -1.4102  0.6495  0.5978
  773MOL0     H 2024   9.175   4.848   2.172  2.1051  0.4768  2.2434
  773MOL0     H 2025   8.950   4.729   2.133  1.5812  2.9251  0.8442
  773MOL0     H 2026   8.920   4.307   2.256 -0.3862  0.7446 -0.0964
  773MOL0     H 2027   8.973   4.306   2.091  0.7314  1.6083  0.2289
  773MOL0     H 2028   8.723   4.358   2.035 -1.8835 -0.2055  0.9525
  773MOL0     H 2029   8.765   4.194   2.075 -1.2254  0.7258 -2.7594
  773MOL0     H 2030   8.684   4.385   2.300 -1.4759  2.2061 -1.1320
  773MOL0     H 2031   8.674   4.210   2.283 -1.3542  1.1902  0.2705
  773MOL0     H 2032   8.466   4.336   2.283  0.5856  1.4648  0.5089
  773MOL0     H 2033   8.523   4.427   2.141 -0.4655 -0.9972 -1.4570
  773MOL0     H 2034   8.362   4.089   1.949  1.1903 -0.4902 -0.6352
  773MOL0     H 2035   9.133   4.363   2.252  3.8873 -0.1393 -0.3246
  773MOL0     H 2036   9.352   4.476   2.287  0.3204 -0.4392 -2.0481
  774MOL0     O 2037   2.625  11.011   5.112  0.0993 -0.3727  0.3883
  774MOL0     C 2038   2.623  10.886   5.105  0.5382 -0.4348  0.6603
  774MOL0     O 2039   2.514  10.815   5.065  0.4610  0.1243  0.2477
  774MOL0     C 2040   2.406  10.879   5.019  0.0806  0.0884 -0.9170
  774MOL0     C 2041   2.288  10.875   5.091 -0.1058  0.1124 -0.1054
  774MOL0     C 2042   2.182  10.959   5.055 -0.6434 -0.4622  0.1744
  774MOL0     C 2043   2.184  11.029   4.928 -1.2541 -0.6554  0.0223
  774MOL0     O 2044   2.082  11.096   4.857  0.7445  1.0429 -0.1648
  774MOL0     C 2045   1.949  11.058   4.895  0.5927 -0.0510 -0.4692
  774MOL0     C 2046   1.854  11.091   4.781 -1.3316  0.4943 -0.4905
  774MOL0     C 2047   1.706  11.046   4.821 -0.9319 -0.0534  0.0289
  774MOL0     C 2048   1.690  10.897   4.814  0.2221 -0.4952 -0.5975
  774MOL0     C 2049   1.546  10.847   4.806 -0.2885  0.6507  0.8377
  774MOL0     C 2050   1.435  10.924   4.878  0.2053  0.3434 -0.0726
  774MOL0     C 2051   1.316  10.842   4.923  0.3306  0.0771 -0.2843
  774MOL0     C 2052   1.228  10.801   4.799 -0.6746 -0.0694 -0.7647
  774MOL0     N 2053   1.123  10.705   4.837 -0.4973 -0.2200  0.5036
  774MOL0     C 2054   1.051  10.691   4.957  0.5755 -0.0400  0.2225
  774MOL0     C 2055   0.972  10.578   4.936 -0.3192 -0.5327 -0.3508
  774MOL0     C 2056   0.877  10.522   5.040 -0.1743  0.4577  0.2795
  774MOL0     C 2057   0.742  10.534   4.986 -0.3299  0.4276  0.6164
  774MOL0     C 2058   0.651  10.504   5.105  0.1047 -0.1763  0.4260
  774MOL0     C 2059   0.511  10.521   5.056  0.1515 -0.0525 -0.4463
  774MOL0     O 2060   0.471  10.430   4.955 -0.1124  0.2038 -0.1816
  774MOL0     C 2061   0.338  10.384   4.950 -0.9262 -0.4938 -0.1279
  774MOL0     C 2062   0.302  10.271   4.877  0.4648  0.0414 -0.7387
  774MOL0     C 2063   0.171  10.230   4.879  0.0906 -0.5363 -0.2966
  774MOL0     C 2064   0.064  10.298   4.933  0.2217  0.2033 -0.8497
  774MOL0     C 2065  -0.079  10.247   4.910 -0.4343 -0.6625  0.8319
  774MOL0     O 2066  -0.097  10.120   4.861 -0.0773  0.4307  0.2800
  774MOL0     C 2067  -0.223  10.058   4.868 -0.3063 -1.0639 -0.3785
  774MOL0     C 2068  -0.325  10.119   4.800  0.7157  0.0326  0.2704
  774MOL0     C 2069  -0.441  10.048   4.779 -0.2847  0.4823  0.3129
  774MOL0     C 2070  -0.461   9.910   4.820 -0.5243 -0.6860  1.0120
  774MOL0     O 2071  -0.581   9.854   4.780  0.0143  0.2832  0.1379
  774MOL0     C 2072  -0.611   9.719   4.813 -0.1536  0.0439 -0.4500
  774MOL0     C 2073  -0.736   9.669   4.744 -0.3473 -0.2342  1.0403
  774MOL0     C 2074  -0.848   9.768   4.752  0.7985  0.4569 -0.0409
  774MOL0     C 2075  -0.986   9.705   4.763 -0.0440  0.1130  0.6674
  774MOL0     C 2076  -1.098   9.808   4.758 -0.0213  0.0019  0.3996
  774MOL0     C 2077  -1.166   9.820   4.895 -0.5632  0.4737 -0.5007
  774MOL0     C 2078  -1.291   9.902   4.868 -1.2088 -0.1860 -0.2227
  774MOL0     C 2079  -1.257  10.051   4.837 -0.0310  0.7752 -0.4377
  774MOL0    Cl 2080  -1.272  10.075   4.656  0.1551  0.1326 -0.2622
  774MOL0     C 2081  -0.356   9.855   4.892  0.4840  0.2177 -1.0686
  774MOL0     C 2082  -0.233   9.925   4.907  0.4263  0.5007 -0.6618
  774MOL0     O 2083  -0.165  10.326   4.943  0.4542 -0.4200 -0.0315
  774MOL0     C 2084   0.093  10.421   4.984 -0.5112  0.2844 -0.5540
  774MOL0     C 2085   0.227  10.469   4.990  0.4840 -0.1501 -0.1484
  774MOL0     N 2086   0.986  10.536   4.801 -0.3061  0.5487 -0.6731
  774MOL0     N 2087   1.089  10.599   4.748 -0.0228 -0.4825  0.0330
  774MOL0     C 2088   2.311  11.041   4.864 -0.3896  0.2406 -0.4350
  774MOL0     C 2089   2.417  10.960   4.901  0.6323  0.4431  0.3138
  774MOL0     C 2090   2.736  10.808   5.152 -0.6246 -0.5079 -0.4710
  774MOL0     C 2091   2.750  10.671   5.128 -1.6923  0.3620  0.1103
  774MOL0     C 2092   2.876  10.612   5.158 -0.1012  0.3104 -0.6884
  774MOL0     C 2093   2.984  10.683   5.211  0.5950  0.2260 -0.3671
  774MOL0     O 2094   3.097  10.605   5.234 -0.8371  0.5592 -0.8142
  774MOL0     C 2095   3.223  10.662   5.282  0.0292 -0.0706 -0.0739
  774MOL0     C 2096   3.324  10.547   5.269 -0.1277  0.4706 -0.2031
  774MOL0     C 2097   3.431  10.543   5.378 -0.0422  0.0889 -0.0188
  774MOL0     C 2098   3.500  10.409   5.384 -0.4813  0.0546 -0.6417
  774MOL0     C 2099   3.611  10.393   5.292 -0.1959  0.5532  0.1558
  774MOL0     C 2100   3.692  10.365   5.208 -0.5974  0.3252  0.0021
  774MOL0     C 2101   2.967  10.820   5.236  0.2527  0.6623  1.0826
  774MOL0     C 2102   2.840  10.876   5.212  0.0390 -0.1865 -0.3871
  774MOL0     H 2103   2.289  10.831   5.190 -2.0835  1.5170  0.6277
  774MOL0     H 2104   2.094  10.971   5.117  0.3474  1.8248  1.2697
  774MOL0     H 2105   1.918  11.114   4.984  0.5576  1.5976 -1.4729
  774MOL0     H 2106   1.932  10.952   4.911 -0.0895  0.2995  1.3350
  774MOL0     H 2107   1.886  11.032   4.695 -0.1275  2.4754 -1.4802
  774MOL0     H 2108   1.863  11.193   4.744  2.2417 -0.7304 -3.6259
  774MOL0     H 2109   1.644  11.082   4.738  1.1822 -0.8047 -2.0049
  774MOL0     H 2110   1.659  11.086   4.910 -0.3679 -0.7738  0.6671
  774MOL0     H 2111   1.746  10.856   4.730  0.2094 -0.5002 -0.6036
  774MOL0     H 2112   1.736  10.848   4.901 -1.5643 -0.4462  0.4387
  774MOL0     H 2113   1.544  10.742   4.833  1.7642  0.4974  0.5279
  774MOL0     H 2114   1.530  10.858   4.698 -0.0803  0.9838  0.8362
  774MOL0     H 2115   1.396  10.993   4.803 -0.8663  0.2845  0.4162
  774MOL0     H 2116   1.473  10.992   4.955 -3.3301  0.5092  1.7013
  774MOL0     H 2117   1.350  10.754   4.977 -1.9339 -0.3835  0.5387
  774MOL0     H 2118   1.254  10.899   4.993  2.1034  1.3304  0.3169
  774MOL0     H 2119   1.294  10.763   4.720  1.8231  1.0510  0.6496
  774MOL0     H 2120   1.196  10.897   4.758 -0.5018  2.2946  3.9498
  774MOL0     H 2121   1.044  10.755   5.045  2.8113  0.3842  0.1452
  774MOL0     H 2122   0.890  10.580   5.133 -1.8853  0.7039  0.3913
  774MOL0     H 2123   0.915  10.420   5.047 -0.3350  0.1951 -1.9445
  774MOL0     H 2124   0.728  10.454   4.912  1.5587 -0.2716  0.9528
  774MOL0     H 2125   0.721  10.637   4.957  2.7985  1.1696  0.6392
  774MOL0     H 2126   0.666  10.401   5.139 -0.9216 -0.5296 -0.1570
  774MOL0     H 2127   0.675  10.574   5.185  0.3038 -0.2563  0.4397
  774MOL0     H 2128   0.500  10.623   5.017  3.5159 -0.4233 -2.7894
  774MOL0     H 2129   0.454  10.511   5.149  2.2969  2.0993  1.2503
  774MOL0     H 2130   0.386  10.211   4.844  3.1061  0.5788  4.0686
  774MOL0     H 2131   0.153  10.148   4.811 -0.4696 -2.4834  2.0589
  774MOL0     H 2132  -0.306  10.221   4.767  0.0169 -0.1963 -0.9171
  774MOL0     H 2133  -0.523  10.113   4.751 -1.6477 -1.1654  0.3156
  774MOL0     H 2134  -0.629   9.709   4.920  0.6198  1.7759 -0.1282
  774MOL0     H 2135  -0.527   9.658   4.779 -0.5957 -0.6608 -0.3019
  774MOL0     H 2136  -0.767   9.572   4.783 -0.2358 -0.5003  0.4831
  774MOL0     H 2137  -0.711   9.646   4.639 -1.1807 -4.3179  1.5722
  774MOL0     H 2138  -0.849   9.836   4.666  2.5939  1.3826  0.6108
  774MOL0     H 2139  -0.837   9.835   4.838 -2.0785  1.8073 -0.6030
  774MOL0     H 2140  -0.983   9.638   4.677  0.3645  0.6120  0.2830
  774MOL0     H 2141  -0.996   9.647   4.855 -0.3935 -0.7945  0.0687
  774MOL0     H 2142  -1.166   9.788   4.674 -0.2723  1.6076  0.1863
  774MOL0     H 2143  -1.049   9.902   4.732  0.4535 -0.0227  1.1843
  774MOL0     H 2144  -1.102   9.878   4.962 -0.6605  0.3742 -0.3206
  774MOL0     H 2145  -1.197   9.729   4.948  2.1761  0.1486  0.7429
  774MOL0     H 2146  -1.338   9.871   4.774  0.7305  0.5271 -1.4704
  774MOL0     H 2147  -1.362   9.900   4.951  0.3490 -0.0772  1.1428
  774MOL0     H 2148  -1.167  10.090   4.885 -0.7809 -0.1847  1.9119
  774MOL0     H 2149  -1.339  10.102   4.888 -1.8558 -2.1453 -0.2090
  774MOL0     H 2150  -0.368   9.761   4.945 -1.3685  1.2417  0.4645
  774MOL0     H 2151  -0.147   9.874   4.950 -1.2658 -2.5177 -0.6244
  774MOL0     H 2152   0.020  10.492   5.021  3.1131  3.1145  1.8942
  774MOL0     H 2153   0.254  10.568   5.026 -0.5961 -0.2024  0.8497
  774MOL0     H 2154   2.325  11.112   4.783  0.5062  0.6651  0.0876
  774MOL0     H 2155   2.505  10.977   4.840  1.1213 -1.4683  0.4297
  774MOL0     H 2156   2.674  10.619   5.071 -0.2192 -1.0947 -0.5903
  774MOL0     H 2157   2.889  10.506   5.139 -1.0975 -0.0642  0.6254
  774MOL0     H 2158   3.223  10.712   5.379  0.2130  0.8065 -0.5102
  774MOL0     H 2159   3.265  10.739   5.217  4.2426 -1.3190  0.8250
  774MOL0     H 2160   3.286  10.445   5.265  2.0565 -0.3490 -2.4780
  774MOL0     H 2161   3.372  10.557   5.171 -2.2366 -2.3778 -1.6594
  774MOL0     H 2162   3.391  10.569   5.476  0.3803  1.2212 -0.1285
  774MOL0     H 2163   3.509  10.619   5.363  0.8725 -1.0130 -1.0851
  774MOL0     H 2164   3.533  10.405   5.488 -0.4752  0.6747 -0.6183
  774MOL0     H 2165   3.433  10.325   5.364  0.3933 -0.4730 -1.4302
  774MOL0     H 2166   3.763  10.350   5.130 -1.2127  0.3976 -0.5855
  774MOL0     H 2167   3.043  10.870   5.296  0.9214 -0.2882  1.0338
  774MOL0     H 2168   2.819  10.979   5.241 -1.7871 -0.4070 -0.7996
  775MOL0     O 2169   0.480   3.429   6.512  0.0534 -0.2772  0.3451
  775MOL0     C 2170   0.552   3.451   6.607  0.1138  0.3850 -0.0938
  775MOL0     O 2171   0.529   3.422   6.734  0.2468  0.2950  0.0939
  775MOL0     C 2172   0.405   3.369   6.755 -0.3648 -0.2608 -0.8725
  775MOL0     C 2173   0.295   3.454   6.774  0.3901  0.2118  0.5772
  775MOL0     C 2174   0.177   3.395   6.817  0.8717  0.3324 -0.0519
  775MOL0     C 2175   0.156   3.253   6.829 -1.0119 -0.6851  0.5946
  775MOL0     O 2176   0.031   3.212   6.866 -0.1045  0.4887  0.0263
  775MOL0     C 2177   0.007   3.069   6.854 -0.0832 -0.3648  0.2259
  775MOL0     C 2178  -0.135   3.028   6.880 -0.6565 -0.0047  0.2187
  775MOL0     C 2179  -0.151   2.879   6.844  0.6012  0.7960  0.2492
  775MOL0     C 2180  -0.296   2.830   6.850 -0.1610  0.8193  0.5206
  775MOL0     C 2181  -0.320   2.699   6.767  0.2563  0.3651  0.1403
  775MOL0     C 2182  -0.457   2.643   6.812  0.0116  0.4514  0.2424
  775MOL0     C 2183  -0.510   2.547   6.705 -0.1328  0.5060 -0.2754
  775MOL0     C 2184  -0.635   2.469   6.726  0.2709 -0.3589 -0.2311
  775MOL0     N 2185  -0.740   2.568   6.761 -0.2560  0.5834 -0.1933
  775MOL0     C 2186  -0.808   2.629   6.663 -0.4339  0.1179 -0.3359
  775MOL0     C 2187  -0.893   2.710   6.735  0.9669  0.0518 -0.2281
  775MOL0     C 2188  -0.990   2.816   6.694 -0.4858 -0.1150 -0.5856
  775MOL0     C 2189  -0.957   2.877   6.553 -0.4390  0.1452 -0.1874
  775MOL0     C 2190  -1.039   3.004   6.523 -0.6267 -0.0544  1.2409
  775MOL0     C 2191  -1.186   2.973   6.487 -0.1463  0.5601  0.5045
  775MOL0     O 2192  -1.194   2.868   6.393  0.2604  0.1363 -0.4709
  775MOL0     C 2193  -1.302   2.856   6.308 -0.1761  0.5011  0.2243
  775MOL0     C 2194  -1.297   2.770   6.198  0.1108  0.1697  0.4004
  775MOL0     C 2195  -1.412   2.751   6.114 -0.3981  0.3055 -0.8324
  775MOL0     C 2196  -1.537   2.825   6.138 -1.4077  0.3229  0.5355
  775MOL0     C 2197  -1.652   2.794   6.053  0.1139  0.0696 -0.4510
  775MOL0     O 2198  -1.760   2.883   6.051 -0.2436 -0.5201  0.3306
  775MOL0     C 2199  -1.869   2.839   5.980 -0.7602  0.1963 -0.1859
  775MOL0     C 2200  -1.984   2.807   6.053 -0.1378  0.3007  0.3107
  775MOL0     C 2201  -2.103   2.746   5.989 -0.6351 -0.4005 -0.5810
  775MOL0     C 2202  -2.096   2.737   5.847 -0.0822  0.4167  0.0725
  775MOL0     O 2203  -2.205   2.706   5.769  0.1489 -0.2399 -0.1098
  775MOL0     C 2204  -2.324   2.654   5.830 -0.1296 -0.2586  0.9857
  775MOL0     C 2205  -2.409   2.581   5.723  0.0036 -0.7556  1.0165
  775MOL0     C 2206  -2.539   2.530   5.774  0.7147  0.0226 -0.0136
  775MOL0     C 2207  -2.606   2.617   5.869 -0.0245 -0.5445 -0.3005
  775MOL0     C 2208  -2.746   2.578   5.896  0.1810  0.1371 -0.2466
  775MOL0     C 2209  -2.770   2.426   5.913  0.0616 -0.1157  0.4383
  775MOL0     C 2210  -2.915   2.393   5.942 -0.4397 -0.3767 -0.1505
  775MOL0     C 2211  -2.953   2.444   6.083 -0.3003 -0.5587  0.3503
  775MOL0    Cl 2212  -2.873   2.326   6.198 -0.0277  0.0380  0.3641
  775MOL0     C 2213  -1.982   2.785   5.778  0.5478  1.0680  0.9843
  775MOL0     C 2214  -1.870   2.831   5.844 -0.3080  0.2291 -0.0353
  775MOL0     O 2215  -1.644   2.696   5.984 -0.2104 -0.9732 -0.1403
  775MOL0     C 2216  -1.539   2.916   6.244 -0.0675 -0.5076 -0.2466
  775MOL0     C 2217  -1.420   2.930   6.322 -0.0553 -0.1925 -0.0977
  775MOL0     N 2218  -0.880   2.680   6.867  0.3119 -0.4348  0.3739
  775MOL0     N 2219  -0.784   2.601   6.887 -0.0454 -0.4453  0.2409
  775MOL0     C 2220   0.274   3.172   6.807  0.1452 -0.0412 -0.2435
  775MOL0     C 2221   0.394   3.229   6.774 -0.1825 -0.0092 -0.4128
  775MOL0     C 2222   0.681   3.518   6.589 -0.1905 -0.0389 -0.0473
  775MOL0     C 2223   0.687   3.637   6.515 -0.7820 -0.2115  1.1322
  775MOL0     C 2224   0.812   3.696   6.498 -0.3996 -0.3684  1.1079
  775MOL0     C 2225   0.929   3.637   6.545 -0.2288  0.2845  0.3320
  775MOL0     O 2226   1.061   3.670   6.501 -0.1321  0.2728 -0.7574
  775MOL0     C 2227   1.095   3.688   6.361 -0.5187 -0.8289 -0.2639
  775MOL0     C 2228   1.247   3.649   6.359  0.1876 -0.2877  0.3367
  775MOL0     C 2229   1.321   3.758   6.445 -0.1141 -0.4427 -0.3535
  775MOL0     C 2230   1.469   3.742   6.408  0.5869  1.0910  0.0501
  775MOL0     C 2231   1.540   3.864   6.442 -0.0579 -0.0399  0.5081
  775MOL0     C 2232   1.583   3.970   6.476 -0.5223 -0.4132 -0.1511
  775MOL0     C 2233   0.917   3.518   6.625 -0.5851  0.2126 -0.2972
  775MOL0     C 2234   0.795   3.461   6.644 -0.5509  0.5639  0.6703
  775MOL0     H 2235   0.317   3.558   6.753 -0.6522  0.1323 -1.0174
  775MOL0     H 2236   0.100   3.468   6.839  0.7900  0.1282  0.3505
  775MOL0     H 2237   0.067   3.026   6.935 -0.2870 -3.2250 -1.0003
  775MOL0     H 2238   0.031   3.023   6.758  1.6376 -2.8958  1.7302
  775MOL0     H 2239  -0.204   3.085   6.817  0.3925  0.8339 -0.2048
  775MOL0     H 2240  -0.158   3.038   6.987 -1.1113  0.2075  0.1045
  775MOL0     H 2241  -0.087   2.812   6.902 -0.2341 -1.0715 -0.8656
  775MOL0     H 2242  -0.122   2.862   6.740  0.9166 -1.4223  0.6473
  775MOL0     H 2243  -0.331   2.809   6.951  2.5652 -3.1321  0.8796
  775MOL0     H 2244  -0.363   2.905   6.808  2.1358  1.8118 -1.6484
  775MOL0     H 2245  -0.239   2.627   6.784  1.7325  1.7934 -0.6200
  775MOL0     H 2246  -0.335   2.723   6.662 -1.4122 -1.7822 -0.1783
  775MOL0     H 2247  -0.525   2.728   6.816 -1.3088 -0.4680 -1.4681
  775MOL0     H 2248  -0.452   2.588   6.906 -0.4652  0.6933  0.4131
  775MOL0     H 2249  -0.517   2.610   6.616  3.9727  0.6793 -0.6730
  775MOL0     H 2250  -0.434   2.470   6.686  0.8152  1.6288 -1.2675
  775MOL0     H 2251  -0.637   2.396   6.808  0.9896 -1.6100 -1.2887
  775MOL0     H 2252  -0.668   2.415   6.637  3.0364 -3.4576  0.4239
  775MOL0     H 2253  -0.784   2.643   6.558  1.9256 -1.4869 -0.0915
  775MOL0     H 2254  -0.992   2.903   6.759 -0.1582 -0.4483 -0.1184
  775MOL0     H 2255  -1.089   2.769   6.687 -0.8020  0.3104  0.8275
  775MOL0     H 2256  -0.977   2.808   6.471  2.2156  2.2532 -2.8043
  775MOL0     H 2257  -0.854   2.911   6.561 -0.2792 -0.5262  0.8253
  775MOL0     H 2258  -1.037   3.072   6.609  2.0366 -0.8254  1.8949
  775MOL0     H 2259  -0.993   3.061   6.441 -2.3040 -1.3778 -0.6919
  775MOL0     H 2260  -1.221   3.072   6.456 -1.6898 -0.4907 -1.3237
  775MOL0     H 2261  -1.239   2.935   6.575  2.4226 -3.3866  0.5955
  775MOL0     H 2262  -1.204   2.721   6.173  0.0066 -1.1001  2.3060
  775MOL0     H 2263  -1.405   2.683   6.030  1.1710 -0.5477 -0.0649
  775MOL0     H 2264  -1.989   2.820   6.160 -1.1017 -0.3613  0.3613
  775MOL0     H 2265  -2.190   2.712   6.044 -0.8438 -1.3990 -1.4979
  775MOL0     H 2266  -2.376   2.745   5.865 -0.7678 -0.3766  0.3779
  775MOL0     H 2267  -2.303   2.592   5.917  1.5630  2.2184  2.4929
  775MOL0     H 2268  -2.347   2.499   5.685 -1.3868 -0.5280 -2.0210
  775MOL0     H 2269  -2.424   2.643   5.634 -0.8740  0.1772  1.7901
  775MOL0     H 2270  -2.520   2.435   5.825 -0.6658 -0.2094  0.1021
  775MOL0     H 2271  -2.610   2.521   5.692  2.4531  0.6607 -1.6513
  775MOL0     H 2272  -2.563   2.618   5.970  0.6281  2.1979 -0.5213
  775MOL0     H 2273  -2.613   2.716   5.823 -0.4928  0.4483  1.7786
  775MOL0     H 2274  -2.808   2.613   5.813  0.1237 -1.3229 -0.8590
  775MOL0     H 2275  -2.780   2.629   5.986  1.4458 -1.0141  0.9484
  775MOL0     H 2276  -2.696   2.383   5.982  1.3028  2.3038  0.7267
  775MOL0     H 2277  -2.747   2.378   5.818  1.2035  0.7878  0.2248
  775MOL0     H 2278  -2.978   2.447   5.871 -0.4040  0.5808  0.5312
  775MOL0     H 2279  -2.940   2.287   5.930  0.7633 -0.4198 -2.9642
  775MOL0     H 2280  -3.061   2.442   6.101 -0.4389 -2.4300 -0.4322
  775MOL0     H 2281  -2.928   2.550   6.090  0.8703 -0.7568 -0.5870
  775MOL0     H 2282  -1.979   2.765   5.671 -4.1536  0.3963  0.7686
  775MOL0     H 2283  -1.786   2.861   5.783  2.2421  0.5665  3.3236
  775MOL0     H 2284  -1.620   2.987   6.259  1.3064  1.1494 -0.2512
  775MOL0     H 2285  -1.417   3.006   6.400  1.2065  0.2469 -0.5525
  775MOL0     H 2286   0.265   3.065   6.822  0.2592  0.2732  2.7914
  775MOL0     H 2287   0.482   3.165   6.777 -0.6907 -0.7505 -1.0413
  775MOL0     H 2288   0.603   3.676   6.459 -0.3461  0.0556  0.6542
  775MOL0     H 2289   0.827   3.783   6.435 -0.8160 -0.1812  1.2645
  775MOL0     H 2290   1.088   3.789   6.322  1.7782 -0.6794 -0.4167
  775MOL0     H 2291   1.038   3.621   6.296 -0.9306 -1.1787  0.4517
  775MOL0     H 2292   1.260   3.553   6.410  0.0455  1.2567  3.5509
  775MOL0     H 2293   1.274   3.649   6.253 -0.2103 -0.0474  0.2327
  775MOL0     H 2294   1.310   3.736   6.551  1.2789  1.2829  0.2044
  775MOL0     H 2295   1.278   3.855   6.420 -3.7767 -1.9409 -0.4485
  775MOL0     H 2296   1.509   3.660   6.469  2.6391 -0.5572 -3.2159
  775MOL0     H 2297   1.486   3.726   6.302  0.7171 -0.2861  0.2566
  775MOL0     H 2298   1.625   4.057   6.522 -1.8798 -0.5244  1.3894
  775MOL0     H 2299   1.009   3.472   6.658 -0.9052 -0.5642 -0.4692
  775MOL0     H 2300   0.780   3.376   6.710  0.4371 -0.5816 -0.5467
  776MOL0     O 2301  11.092   3.814   2.582 -0.2610 -0.4262  0.5222
  776MOL0     C 2302  11.098   3.913   2.655 -0.0781 -0.1915  0.9775
  776MOL0     O 2303  10.998   3.959   2.738  0.3759  0.0359  0.2680
  776MOL0     C 2304  10.882   3.886   2.757  0.0999  0.3332  0.1722
  776MOL0     C 2305  10.859   3.747   2.741  0.5990 -0.5346 -0.3265
  776MOL0     C 2306  10.724   3.697   2.755 -0.8091  0.3905  0.5239
  776MOL0     C 2307  10.617   3.773   2.807 -0.1942  0.1875 -0.4418
  776MOL0     O 2308  10.490   3.729   2.833  0.0336 -0.5992  0.4497
  776MOL0     C 2309  10.453   3.607   2.769  0.5145  0.4639  0.6361
  776MOL0     C 2310  10.302   3.591   2.799 -0.8985 -0.6060  0.1118
  776MOL0     C 2311  10.242   3.470   2.734 -0.0546  0.0363 -0.7208
  776MOL0     C 2312  10.297   3.439   2.593  0.1882 -0.0213  0.2355
  776MOL0     C 2313  10.210   3.326   2.529  0.4081 -0.0745  0.1010
  776MOL0     C 2314  10.269   3.286   2.382  0.8592  0.3909 -1.2587
  776MOL0     C 2315  10.215   3.145   2.341 -0.4139 -0.0618  0.3546
  776MOL0     C 2316  10.068   3.141   2.304 -0.4159  0.3129  0.7126
  776MOL0     N 2317  10.034   3.010   2.251  0.1717  0.0574  0.2205
  776MOL0     C 2318  10.105   2.935   2.154  0.5452 -0.0520 -0.8338
  776MOL0     C 2319  10.024   2.826   2.138  0.1470  0.2482 -0.2579
  776MOL0     C 2320  10.058   2.711   2.051 -0.6818 -0.8019 -1.4343
  776MOL0     C 2321   9.934   2.640   2.004  0.1185 -1.0213  0.4250
  776MOL0     C 2322   9.967   2.515   1.916 -0.2631  0.2222 -1.0202
  776MOL0     C 2323   9.855   2.421   1.904 -0.6036  0.4110  0.2774
  776MOL0     O 2324   9.751   2.477   1.826 -0.8537 -0.7283  0.4140
  776MOL0     C 2325   9.642   2.407   1.806 -0.7476 -0.7743  0.7318
  776MOL0     C 2326   9.535   2.473   1.747  0.3598  1.1872 -0.1863
  776MOL0     C 2327   9.408   2.405   1.727 -1.3116 -0.1924  0.2396
  776MOL0     C 2328   9.394   2.268   1.748  0.1186 -0.0372 -0.4019
  776MOL0     C 2329   9.266   2.201   1.732  0.9248  0.5427 -0.1359
  776MOL0     O 2330   9.259   2.064   1.767 -0.4861  0.1213 -0.1567
  776MOL0     C 2331   9.137   1.998   1.748 -0.0460  0.2181 -0.1230
  776MOL0     C 2332   9.026   2.034   1.829 -0.0394  0.1766 -0.9204
  776MOL0     C 2333   8.902   1.980   1.818  0.7260  0.5016 -0.0273
  776MOL0     C 2334   8.872   1.888   1.717 -0.0565 -0.0395 -0.2478
  776MOL0     O 2335   8.752   1.819   1.695 -0.5939  0.2414 -0.1872
  776MOL0     C 2336   8.663   1.811   1.808  0.0862 -0.3908  0.7000
  776MOL0     C 2337   8.561   1.697   1.790  0.9045 -0.0348 -0.9087
  776MOL0     C 2338   8.471   1.725   1.679  0.2242 -0.6267 -0.6453
  776MOL0     C 2339   8.346   1.638   1.686  0.3814  0.4054 -0.3607
  776MOL0     C 2340   8.231   1.684   1.586  0.3979  0.3377  0.0948
  776MOL0     C 2341   8.123   1.576   1.582 -0.2862 -0.3963  1.2226
  776MOL0     C 2342   8.025   1.574   1.470  0.3572 -0.2948 -0.0394
  776MOL0     C 2343   7.938   1.702   1.461 -0.5622 -0.3010 -0.8030
  776MOL0    Cl 2344   7.851   1.742   1.605  0.5649 -0.2068 -0.1980
  776MOL0     C 2345   8.979   1.852   1.628  0.4665  0.2605  0.4508
  776MOL0     C 2346   9.113   1.912   1.638 -0.5751  0.0614  0.0766
  776MOL0     O 2347   9.173   2.261   1.688  0.4399  0.0379  0.0745
  776MOL0     C 2348   9.511   2.200   1.802  0.6769 -0.8612 -0.1023
  776MOL0     C 2349   9.634   2.267   1.832 -1.1311  0.2397 -0.3952
  776MOL0     N 2350   9.910   2.835   2.217 -0.7477 -0.2336 -1.0787
  776MOL0     N 2351   9.917   2.942   2.282 -0.0784 -0.8085 -0.0342
  776MOL0     C 2352  10.657   3.902   2.849  0.9271 -0.8120  0.1237
  776MOL0     C 2353  10.783   3.951   2.824  0.8408 -0.6084  0.2443
  776MOL0     C 2354  11.211   3.999   2.630 -0.8738  0.9205 -0.8534
  776MOL0     C 2355  11.233   4.108   2.720  0.4531 -0.2611  0.0972
  776MOL0     C 2356  11.343   4.190   2.706  0.0088 -0.3410 -0.6897
  776MOL0     C 2357  11.443   4.166   2.609  0.5095 -0.3367 -0.1129
  776MOL0     O 2358  11.552   4.251   2.617 -0.1031  0.4258  0.4010
  776MOL0     C 2359  11.670   4.204   2.559  0.0727  0.5568 -0.3829
  776MOL0     C 2360  11.777   4.307   2.590 -0.5616 -0.8748  0.0959
  776MOL0     C 2361  11.776   4.438   2.507 -0.6375 -0.3615  0.9207
  776MOL0     C 2362  11.827   4.406   2.361 -0.3559 -1.1052  0.2180
  776MOL0     C 2363  11.813   4.520   2.265  0.5607  0.7798 -0.4098
  776MOL0     C 2364  11.806   4.603   2.172 -0.1462 -0.2505 -0.7055
  776MOL0     C 2365  11.435   4.050   2.533 -0.4340  0.1738  0.1917
  776MOL0     C 2366  11.322   3.962   2.538  0.3356  0.1891 -0.0784
  776MOL0     H 2367  10.931   3.693   2.680  1.4809  2.7955 -2.4805
  776MOL0     H 2368  10.693   3.608   2.701 -0.6359  1.3976 -1.2983
  776MOL0     H 2369  10.511   3.521   2.803  0.2095  1.0967  2.9063
  776MOL0     H 2370  10.476   3.614   2.662  0.4352 -1.7032  0.4316
  776MOL0     H 2371  10.238   3.670   2.758 -0.7746 -0.2702  0.5578
  776MOL0     H 2372  10.277   3.583   2.905  0.0513  1.1704  0.5102
  776MOL0     H 2373  10.133   3.481   2.738 -0.0532  3.1042 -3.9891
  776MOL0     H 2374  10.273   3.383   2.793 -0.4734 -0.1343 -0.7513
  776MOL0     H 2375  10.284   3.528   2.530 -3.5802 -0.4988  0.1139
  776MOL0     H 2376  10.402   3.410   2.599  1.0365  2.7660  0.5159
  776MOL0     H 2377  10.106   3.357   2.518  0.9918  1.8968 -0.1513
  776MOL0     H 2378  10.219   3.243   2.600  1.1071 -0.2839 -0.2231
  776MOL0     H 2379  10.377   3.278   2.396  0.9229  3.0763  0.6248
  776MOL0     H 2380  10.252   3.374   2.318 -0.6004  1.5383  0.6056
  776MOL0     H 2381  10.271   3.118   2.250 -0.8675 -0.1719  0.1058
  776MOL0     H 2382  10.243   3.066   2.411 -0.1321 -0.6472 -0.4086
  776MOL0     H 2383  10.042   3.217   2.230 -2.2500 -1.6643 -0.7811
  776MOL0     H 2384  10.001   3.167   2.387 -2.2048  1.0063 -0.8775
  776MOL0     H 2385  10.198   2.958   2.102 -0.2815  2.2793 -1.3850
  776MOL0     H 2386  10.115   2.637   2.108 -3.7299 -0.4662  2.5155
  776MOL0     H 2387  10.126   2.737   1.970  0.0699  1.4821 -0.1504
  776MOL0     H 2388   9.880   2.708   1.937 -1.4120 -0.9282  1.6940
  776MOL0     H 2389   9.874   2.618   2.093 -2.7481  2.3708 -0.4658
  776MOL0     H 2390  10.019   2.540   1.823  0.2128  1.2739 -0.4922
  776MOL0     H 2391  10.041   2.459   1.972  2.0640  0.6795 -3.4512
  776MOL0     H 2392   9.834   2.378   2.002 -2.1397  0.9720  0.2214
  776MOL0     H 2393   9.902   2.345   1.840 -5.4293 -0.5176 -2.7181
  776MOL0     H 2394   9.558   2.578   1.734 -0.0237  1.0257 -2.6970
  776MOL0     H 2395   9.323   2.464   1.697 -3.2024 -1.3195  2.9958
  776MOL0     H 2396   9.030   2.118   1.897  2.1522  0.1293 -0.9023
  776MOL0     H 2397   8.820   2.013   1.881  0.7267  0.3431  0.0567
  776MOL0     H 2398   8.612   1.907   1.821  3.0671  1.7248 -1.8926
  776MOL0     H 2399   8.723   1.782   1.894 -1.4612 -3.2569  0.9417
  776MOL0     H 2400   8.502   1.689   1.881  0.3807 -1.6617 -1.3617
  776MOL0     H 2401   8.609   1.599   1.786 -0.0611 -0.6256  1.0213
  776MOL0     H 2402   8.515   1.710   1.580 -1.5273 -0.5957 -1.4741
  776MOL0     H 2403   8.434   1.827   1.661  0.8400 -0.7126 -2.7190
  776MOL0     H 2404   8.369   1.531   1.676 -1.1123 -0.2099  1.9297
  776MOL0     H 2405   8.308   1.642   1.788  0.6971  0.6318 -0.2512
  776MOL0     H 2406   8.273   1.702   1.486  1.1373  2.1994  0.7067
  776MOL0     H 2407   8.179   1.777   1.612  0.6390  1.4905 -3.0573
  776MOL0     H 2408   8.068   1.580   1.676  1.5548  0.8871  2.3142
  776MOL0     H 2409   8.181   1.483   1.579  1.5710  0.7369 -0.3979
  776MOL0     H 2410   8.075   1.567   1.373  1.0097  0.0438  0.2670
  776MOL0     H 2411   7.964   1.485   1.487  0.0713  0.3841  3.0991
  776MOL0     H 2412   7.878   1.695   1.370  0.6962  0.1924 -1.7117
  776MOL0     H 2413   8.008   1.786   1.450  0.4019 -0.6442  1.8842
  776MOL0     H 2414   8.978   1.770   1.557  0.6438  1.0783 -0.5200
  776MOL0     H 2415   9.187   1.876   1.568 -0.6626 -1.1128  0.5576
  776MOL0     H 2416   9.504   2.095   1.830  2.1950 -0.6644  1.1205
  776MOL0     H 2417   9.718   2.212   1.871  0.4394  0.9250 -2.5879
  776MOL0     H 2418  10.590   3.971   2.899 -1.0852 -2.2736 -0.3899
  776MOL0     H 2419  10.800   4.047   2.870  2.8866 -1.1007  0.6165
  776MOL0     H 2420  11.161   4.118   2.800 -3.8677 -0.0162 -3.3931
  776MOL0     H 2421  11.354   4.268   2.781  4.3101 -0.0830 -1.3252
  776MOL0     H 2422  11.652   4.178   2.454 -0.1237 -2.7395  0.3758
  776MOL0     H 2423  11.709   4.116   2.610 -0.3231  0.4594 -0.2472
  776MOL0     H 2424  11.766   4.342   2.693 -0.3897  0.7444 -0.4162
  776MOL0     H 2425  11.878   4.265   2.584 -0.9190 -2.2100  2.0691
  776MOL0     H 2426  11.832   4.517   2.557 -0.0579  0.0569 -0.3606
  776MOL0     H 2427  11.676   4.483   2.497 -0.3950 -0.1422 -0.7557
  776MOL0     H 2428  11.934   4.380   2.366  0.4531  1.7236 -0.3938
  776MOL0     H 2429  11.767   4.320   2.331  0.9493 -2.7667  2.1068
  776MOL0     H 2430  11.808   4.671   2.089 -1.7734  0.9328  0.1795
  776MOL0     H 2431  11.518   4.036   2.464  0.3869  4.0502  0.1230
  776MOL0     H 2432  11.320   3.871   2.479 -2.1868 -2.5803  3.7690
  777MOL0     O 2433   2.212   2.072  10.697  0.4206  0.1136 -0.6179
  777MOL0     C 2434   2.127   2.129  10.632  0.2913 -0.0009 -0.4280
  777MOL0     O 2435   2.153   2.182  10.504  0.1031  0.5612  0.1981
  777MOL0     C 2436   2.281   2.168  10.454 -0.1440 -0.3318 -0.1929
  777MOL0     C 2437   2.307   2.068  10.359  0.1190 -0.1799 -0.9225
  777MOL0     C 2438   2.431   2.046  10.305 -0.4012  0.5646 -0.2794
  777MOL0     C 2439   2.545   2.124  10.344 -0.1157 -0.1997  0.3844
  777MOL0     O 2440   2.673   2.125  10.303  0.3253  0.5123  0.4363
  777MOL0     C 2441   2.688   2.076  10.167 -0.0962 -0.5727 -0.2697
  777MOL0     C 2442   2.809   2.144  10.102  0.7096  0.0974 -0.3521
  777MOL0     C 2443   2.819   2.084   9.963 -0.2222  0.5988 -0.4164
  777MOL0     C 2444   2.908   2.155   9.867 -0.7104 -0.3545  0.1621
  777MOL0     C 2445   2.908   2.092   9.727 -0.8115 -0.5953 -0.5058
  777MOL0     C 2446   2.971   1.953   9.720 -0.8837  0.2851  0.0634
  777MOL0     C 2447   2.930   1.865   9.590 -0.2193 -0.8773  0.8863
  777MOL0     C 2448   2.782   1.834   9.589 -0.2461 -0.5713  0.2101
  777MOL0     N 2449   2.758   1.712   9.520  0.6054  0.6546 -0.0995
  777MOL0     C 2450   2.781   1.689   9.386 -0.5114  0.4987 -0.5604
  777MOL0     C 2451   2.749   1.559   9.360 -1.3661 -0.3057  0.0723
  777MOL0     C 2452   2.722   1.502   9.228  0.0047 -0.0681 -0.3514
  777MOL0     C 2453   2.583   1.514   9.179  0.0715  0.5629  0.6112
  777MOL0     C 2454   2.551   1.398   9.093  0.4338 -0.3735  0.7222
  777MOL0     C 2455   2.415   1.392   9.040  1.0198 -0.0950 -0.2380
  777MOL0     O 2456   2.398   1.257   8.984  0.6920  0.0502 -0.3562
  777MOL0     C 2457   2.262   1.226   8.974 -0.7858 -0.6004  0.1464
  777MOL0     C 2458   2.174   1.294   8.898  0.0855  0.2039 -0.3201
  777MOL0     C 2459   2.034   1.264   8.915 -0.4986  0.3281  0.3589
  777MOL0     C 2460   1.996   1.154   8.990  0.0700  0.5943 -0.2770
  777MOL0     C 2461   1.853   1.109   9.004 -0.5663 -0.4512  0.1428
  777MOL0     O 2462   1.830   0.991   9.059 -1.1042  0.0868  0.3651
  777MOL0     C 2463   1.696   0.972   9.088 -0.3485 -0.6055 -0.4854
  777MOL0     C 2464   1.666   0.985   9.224  0.1141 -1.2128  0.8231
  777MOL0     C 2465   1.542   0.974   9.279 -0.5353  0.2550  0.7699
  777MOL0     C 2466   1.446   0.937   9.186  0.5464  0.3908 -0.2193
  777MOL0     O 2467   1.330   0.896   9.244 -0.1051  0.4068  0.2700
  777MOL0     C 2468   1.224   0.828   9.175  0.6660  0.2561 -0.3363
  777MOL0     C 2469   1.111   0.807   9.271 -0.1463 -0.0729  0.1190
  777MOL0     C 2470   1.049   0.942   9.323  0.2485 -0.8891  0.0497
  777MOL0     C 2471   0.933   0.924   9.423 -1.1462 -0.0269  0.1156
  777MOL0     C 2472   0.880   1.060   9.449 -0.2340 -0.2669  0.1914
  777MOL0     C 2473   0.801   1.133   9.337 -0.2915 -0.2714 -0.5348
  777MOL0     C 2474   0.694   1.240   9.394  0.1243  0.0868 -0.1643
  777MOL0     C 2475   0.582   1.272   9.293  0.3352  0.3506 -0.0304
  777MOL0    Cl 2476   0.470   1.385   9.376  0.2764  0.0211  0.2430
  777MOL0     C 2477   1.470   0.911   9.055  0.2842 -0.3608  0.3558
  777MOL0     C 2478   1.602   0.930   9.002  0.5486 -0.0659 -0.7437
  777MOL0     O 2479   1.764   1.195   8.977 -0.8988  0.5136  0.2421
  777MOL0     C 2480   2.092   1.094   9.074 -0.5387 -0.0416  0.5171
  777MOL0     C 2481   2.224   1.128   9.063 -0.3307  0.2490 -0.4808
  777MOL0     N 2482   2.717   1.501   9.481 -0.0572 -0.1952 -0.0991
  777MOL0     N 2483   2.727   1.590   9.577 -0.1281 -0.3356  0.3535
  777MOL0     C 2484   2.520   2.210  10.452  0.3409 -0.1222 -0.3327
  777MOL0     C 2485   2.394   2.233  10.506 -0.3601  0.1728  0.6680
  777MOL0     C 2486   1.990   2.132  10.676 -0.6180 -0.0783 -0.2325
  777MOL0     C 2487   1.943   2.072  10.790 -0.7948 -0.7881 -0.5933
  777MOL0     C 2488   1.808   2.080  10.827  0.3460  0.0866  0.3635
  777MOL0     C 2489   1.713   2.150  10.742 -0.3707 -0.3006  0.1647
  777MOL0     O 2490   1.584   2.168  10.765  0.7562 -0.5845  0.4878
  777MOL0     C 2491   1.505   2.107  10.867 -1.1460 -0.6285  0.3061
  777MOL0     C 2492   1.361   2.157  10.856 -0.5011  0.5880 -0.0083
  777MOL0     C 2493   1.282   2.054  10.936 -0.1371 -0.3139  0.1847
  777MOL0     C 2494   1.150   2.105  10.980  0.3269 -0.6805 -0.6768
  777MOL0     C 2495   1.075   2.132  10.858 -0.8610  0.6824  0.2477
  777MOL0     C 2496   0.997   2.159  10.769  0.0102  0.1637  0.5244
  777MOL0     C 2497   1.761   2.204  10.625 -0.7470  0.1465 -0.5159
  777MOL0     C 2498   1.896   2.201  10.588  0.7579  0.0995 -0.2491
  777MOL0     H 2499   2.228   2.007  10.317 -0.1231  0.4964 -1.4558
  777MOL0     H 2500   2.432   1.968  10.230 -1.9170  0.5126 -0.2838
  777MOL0     H 2501   2.594   2.090  10.112 -0.2910 -2.2468 -0.3951
  777MOL0     H 2502   2.703   1.969  10.154  1.3285 -0.2832 -1.2575
  777MOL0     H 2503   2.897   2.120  10.162 -0.5031  0.0950  1.5027
  777MOL0     H 2504   2.788   2.250  10.088  1.0850 -0.0617 -2.5026
  777MOL0     H 2505   2.717   2.063   9.929 -0.8161  0.0935  1.5853
  777MOL0     H 2506   2.866   1.987   9.982 -0.4035  0.0099 -2.6348
  777MOL0     H 2507   2.858   2.252   9.854  0.9068  0.8490  2.2462
  777MOL0     H 2508   3.012   2.170   9.898 -0.6292  3.6113 -1.3244
  777MOL0     H 2509   2.957   2.163   9.661  0.7222  0.8784  2.0627
  777MOL0     H 2510   2.807   2.080   9.686 -1.7000 -0.0427  1.3688
  777MOL0     H 2511   2.971   1.895   9.812 -0.5272  0.6730  0.3131
  777MOL0     H 2512   3.075   1.978   9.694 -0.0087 -4.0690 -1.4634
  777MOL0     H 2513   2.957   1.918   9.498 -1.0861 -1.5900  0.2111
  777MOL0     H 2514   2.994   1.776   9.585 -0.3285 -1.0705  2.5494
  777MOL0     H 2515   2.737   1.909   9.524 -0.2126 -1.4497 -0.8629
  777MOL0     H 2516   2.741   1.821   9.690  1.7607  1.4631  1.3787
  777MOL0     H 2517   2.800   1.767   9.314  1.4233 -1.0241 -1.8189
  777MOL0     H 2518   2.760   1.399   9.223 -0.0379 -0.2093  1.5236
  777MOL0     H 2519   2.790   1.550   9.156  0.0059 -1.3986 -1.2777
  777MOL0     H 2520   2.562   1.604   9.121 -1.8441 -0.2146 -0.0160
  777MOL0     H 2521   2.505   1.511   9.256 -3.8010 -1.4319 -2.9546
  777MOL0     H 2522   2.612   1.390   9.003 -0.8407 -0.5856 -0.1471
  777MOL0     H 2523   2.562   1.313   9.161  2.3013  1.9212  3.5707
  777MOL0     H 2524   2.392   1.466   8.963 -2.5924 -0.8161 -0.0301
  777MOL0     H 2525   2.344   1.415   9.121  1.0238 -0.6691 -0.0663
  777MOL0     H 2526   2.218   1.371   8.835  0.4128 -0.4526 -0.9067
  777MOL0     H 2527   1.963   1.315   8.850 -1.4595 -1.6110 -0.2037
  777MOL0     H 2528   1.757   1.005   9.279 -0.6910  0.2656  1.6752
  777MOL0     H 2529   1.511   0.992   9.381  0.2975 -0.9596  1.2575
  777MOL0     H 2530   1.254   0.731   9.133 -0.0769  0.5463 -1.5697
  777MOL0     H 2531   1.178   0.888   9.097 -1.5521 -0.8668  0.0356
  777MOL0     H 2532   1.155   0.759   9.359  1.9700  0.6092 -0.5147
  777MOL0     H 2533   1.036   0.741   9.226 -1.1022  1.5871 -0.8135
  777MOL0     H 2534   1.004   0.989   9.236 -0.0787  0.1332  0.7554
  777MOL0     H 2535   1.132   0.998   9.368  1.2558 -2.3867  0.1408
  777MOL0     H 2536   0.857   0.858   9.381 -0.8420 -0.9072  0.9268
  777MOL0     H 2537   0.963   0.891   9.523  0.5085  1.9646  0.3419
  777MOL0     H 2538   0.962   1.126   9.479  0.3677 -2.3643  3.7103
  777MOL0     H 2539   0.810   1.048   9.532  1.3633 -1.5006  1.4388
  777MOL0     H 2540   0.756   1.054   9.277 -1.7288  1.3253 -1.6682
  777MOL0     H 2541   0.878   1.182   9.276 -0.8672  0.7138 -0.4928
  777MOL0     H 2542   0.651   1.202   9.487 -1.1874  0.4638 -0.5915
  777MOL0     H 2543   0.742   1.334   9.422 -1.7334  0.1443  3.3403
  777MOL0     H 2544   0.527   1.178   9.275  0.5473 -0.2028  1.8800
  777MOL0     H 2545   0.606   1.312   9.195 -1.5612 -2.3645 -1.7519
  777MOL0     H 2546   1.381   0.881   9.000  1.6022 -0.8653 -1.6029
  777MOL0     H 2547   1.627   0.911   8.899  1.2747  2.5460 -1.1245
  777MOL0     H 2548   2.073   1.017   9.148 -2.0498  0.3630  0.5918
  777MOL0     H 2549   2.294   1.073   9.125  1.9611  0.5312 -2.6417
  777MOL0     H 2550   2.601   2.269  10.494  0.9233 -1.2673  0.1875
  777MOL0     H 2551   2.383   2.308  10.584  0.9096  0.0815  0.9554
  777MOL0     H 2552   2.017   2.030  10.857 -0.8432  1.4187  0.9332
  777MOL0     H 2553   1.771   2.031  10.916 -1.2818 -0.7682 -0.7166
  777MOL0     H 2554   1.550   2.117  10.966  1.9242 -2.5972 -0.7562
  777MOL0     H 2555   1.506   1.999  10.849 -0.7324 -0.7028  0.7860
  777MOL0     H 2556   1.364   2.252  10.909 -1.5278 -0.3530  1.8185
  777MOL0     H 2557   1.319   2.162  10.755 -2.9225  0.4785  0.9239
  777MOL0     H 2558   1.335   2.023  11.026  1.2676  0.9069 -0.1711
  777MOL0     H 2559   1.264   1.967  10.872  3.2673 -1.5280  0.6731
  777MOL0     H 2560   1.101   2.027  11.040  1.0490 -0.4824  0.1888
  777MOL0     H 2561   1.161   2.195  11.042  1.9329  0.6553 -2.7616
  777MOL0     H 2562   0.927   2.185  10.692 -0.1756 -0.0761  0.6127
  777MOL0     H 2563   1.688   2.248  10.557  1.0403  0.5955 -2.2378
  777MOL0     H 2564   1.931   2.254  10.500 -1.0347 -0.0478 -1.0957
  778MOL0     O 2565   9.183   0.594   0.400  0.2501  0.0888  0.3017
  778MOL0     C 2566   9.203   0.518   0.304 -1.0168 -0.0368 -0.8819
  778MOL0     O 2567   9.117   0.430   0.240 -0.3409  0.0387  0.2757
  778MOL0     C 2568   8.986   0.432   0.279 -1.3640  0.3065  0.8136
  778MOL0     C 2569   8.952   0.387   0.410 -0.3036 -0.4822 -0.0167
  778MOL0     C 2570   8.817   0.385   0.434  0.0410  0.7503  0.3928
  778MOL0     C 2571   8.716   0.402   0.333 -0.3105  0.2971 -0.1912
  778MOL0     O 2572   8.584   0.357   0.354  0.4444 -1.1140 -0.2046
  778MOL0     C 2573   8.563   0.240   0.434 -0.0960  0.1965  0.9435
  778MOL0     C 2574   8.439   0.167   0.385  0.1514 -1.1482 -0.0870
  778MOL0     C 2575   8.305   0.253   0.392 -0.0929 -0.0516 -0.1830
  778MOL0     C 2576   8.290   0.319   0.536 -0.4540  0.4574  0.6276
  778MOL0     C 2577   8.150   0.365   0.565 -0.6966 -0.6219  0.0573
  778MOL0     C 2578   8.119   0.493   0.493  0.7060  0.9500 -0.1543
  778MOL0     C 2579   7.982   0.549   0.543  0.0455 -0.3436  0.3346
  778MOL0     C 2580   7.994   0.691   0.501  0.4786 -0.4068 -0.4292
  778MOL0     N 2581   7.862   0.751   0.535  0.2830 -0.3884 -0.2031
  778MOL0     C 2582   7.738   0.740   0.467 -0.2134 -0.3438  0.0077
  778MOL0     C 2583   7.651   0.802   0.543  0.1162 -0.2244 -0.1231
  778MOL0     C 2584   7.502   0.820   0.500  0.0264  0.6154 -0.6472
  778MOL0     C 2585   7.422   0.898   0.612 -0.2437 -0.6244  0.1459
  778MOL0     C 2586   7.275   0.911   0.566 -0.6219  0.6687 -0.9541
  778MOL0     C 2587   7.196   1.013   0.638 -0.1214 -0.3129 -0.4264
  778MOL0     O 2588   7.077   1.031   0.560 -0.0767 -0.1059 -0.4274
  778MOL0     C 2589   6.980   1.122   0.597 -0.4641 -0.2549  0.1189
  778MOL0     C 2590   6.861   1.103   0.527  0.2450 -0.6918 -0.0885
  778MOL0     C 2591   6.751   1.182   0.554 -0.4491 -0.1690 -0.5291
  778MOL0     C 2592   6.765   1.290   0.647  1.1119  0.0758 -0.6094
  778MOL0     C 2593   6.648   1.374   0.696 -0.3513 -0.5009  0.5200
  778MOL0     O 2594   6.681   1.483   0.772  0.2966 -0.1760 -0.2390
  778MOL0     C 2595   6.572   1.560   0.820 -0.1956  0.1199  0.3023
  778MOL0     C 2596   6.527   1.519   0.946  0.4845 -0.1680  0.5513
  778MOL0     C 2597   6.401   1.579   0.990 -0.4790  0.7351  1.1228
  778MOL0     C 2598   6.326   1.671   0.913  0.7425 -0.4568 -1.0550
  778MOL0     O 2599   6.202   1.705   0.966  0.5817  1.0453  0.8406
  778MOL0     C 2600   6.140   1.816   0.910 -0.2787 -0.3812 -0.0983
  778MOL0     C 2601   6.013   1.843   0.983 -0.0753  0.0603  1.0272
  778MOL0     C 2602   5.932   1.946   0.905  0.2820 -0.2113 -0.0709
  778MOL0     C 2603   5.794   1.979   0.973 -1.0875  0.3316  1.3367
  778MOL0     C 2604   5.719   2.068   0.868 -0.5661 -0.1876 -0.6269
  778MOL0     C 2605   5.571   2.093   0.906  0.5450 -0.7425 -0.0840
  778MOL0     C 2606   5.548   2.179   1.031  0.6233 -1.4049 -0.0758
  778MOL0     C 2607   5.434   2.275   1.034  0.4564  0.8719  0.3033
  778MOL0    Cl 2608   5.286   2.178   1.064  0.7347 -0.2405 -0.2460
  778MOL0     C 2609   6.378   1.697   0.786  0.1256 -0.0238  0.1482
  778MOL0     C 2610   6.501   1.650   0.743 -0.3428  0.2503 -0.5708
  778MOL0     O 2611   6.536   1.342   0.658  0.6723  0.0575 -0.5827
  778MOL0     C 2612   6.887   1.319   0.706 -0.4777  0.1071 -0.3213
  778MOL0     C 2613   6.995   1.236   0.683 -0.0120 -0.1572 -0.0945
  778MOL0     N 2614   7.725   0.862   0.648  0.8348  0.4687 -0.1473
  778MOL0     N 2615   7.852   0.839   0.643  0.3370  0.2597  0.4244
  778MOL0     C 2616   8.756   0.442   0.209  0.0196 -0.3592  0.8692
  778MOL0     C 2617   8.891   0.472   0.183  0.5433  0.3455 -0.6163
  778MOL0     C 2618   9.344   0.518   0.258 -0.6863 -1.7323 -0.2690
  778MOL0     C 2619   9.448   0.571   0.338 -0.3865  0.9798 -0.0134
  778MOL0     C 2620   9.582   0.564   0.296 -0.0477 -0.1004  1.0072
  778MOL0     C 2621   9.615   0.509   0.166 -0.1610 -0.8525 -0.3939
  778MOL0     O 2622   9.740   0.515   0.112 -0.0950  0.0664 -0.0319
  778MOL0     C 2623   9.861   0.518   0.200 -0.0776 -0.7591  0.3039
  778MOL0     C 2624   9.955   0.412   0.140 -0.2348  0.3039 -0.3120
  778MOL0     C 2625   9.907   0.270   0.165  0.3065  0.0407  0.1061
  778MOL0     C 2626   9.971   0.170   0.059  0.5774  0.0995 -0.3178
  778MOL0     C 2627  10.111   0.151   0.080  0.3557 -0.7140 -0.2294
  778MOL0     C 2628  10.226   0.152   0.110 -0.0567 -0.2855  0.4914
  778MOL0     C 2629   9.509   0.458   0.085 -0.1933  0.2513 -0.1235
  778MOL0     C 2630   9.377   0.464   0.130 -0.3444 -0.3489 -1.0721
  778MOL0     H 2631   9.031   0.365   0.481 -0.1948 -0.0373  0.0047
  778MOL0     H 2632   8.786   0.373   0.538 -2.9774  4.1512  0.0846
  778MOL0     H 2633   8.555   0.264   0.540 -1.3881 -1.9434  1.3929
  778MOL0     H 2634   8.642   0.165   0.431  0.3196  0.6303  0.9149
  778MOL0     H 2635   8.423   0.078   0.446 -1.9006 -0.6224  0.2323
  778MOL0     H 2636   8.449   0.138   0.280 -0.1367 -0.8504 -0.2016
  778MOL0     H 2637   8.222   0.186   0.372  1.3065 -1.2660 -2.2630
  778MOL0     H 2638   8.303   0.324   0.310  1.1580  1.7145  1.2335
  778MOL0     H 2639   8.313   0.252   0.619 -1.0842  1.1984  1.4194
  778MOL0     H 2640   8.358   0.404   0.544  0.4549 -0.2272  0.3482
  778MOL0     H 2641   8.135   0.381   0.672  0.7017 -1.1276  0.3475
  778MOL0     H 2642   8.077   0.287   0.540  0.9751 -2.2534  0.0534
  778MOL0     H 2643   8.110   0.474   0.385  1.8003 -0.1375 -0.0772
  778MOL0     H 2644   8.204   0.556   0.518  1.6408 -0.6682  0.9258
  778MOL0     H 2645   7.898   0.512   0.483 -0.9334  1.8566  0.2502
  778MOL0     H 2646   7.970   0.537   0.651 -0.2092 -1.3845  0.2025
  778MOL0     H 2647   8.008   0.695   0.392 -0.0059  0.1102 -0.4715
  778MOL0     H 2648   8.063   0.747   0.564 -0.9508 -0.5480  1.3130
  778MOL0     H 2649   7.714   0.690   0.374  1.2809 -0.9456 -0.0853
  778MOL0     H 2650   7.448   0.728   0.473  0.6278  0.6243 -1.9771
  778MOL0     H 2651   7.512   0.885   0.413  2.2872  0.2940 -0.6743
  778MOL0     H 2652   7.474   0.994   0.617  2.8287 -2.1016 -0.4657
  778MOL0     H 2653   7.433   0.854   0.712  3.7746  0.8812  0.5522
  778MOL0     H 2654   7.269   0.945   0.462 -0.1431 -0.3994 -1.3461
  778MOL0     H 2655   7.226   0.813   0.573  2.5996 -0.9638  2.1472
  778MOL0     H 2656   7.251   1.107   0.641 -0.7535  0.0521 -0.0130
  778MOL0     H 2657   7.183   0.982   0.742 -2.0485  2.0529  0.1242
  778MOL0     H 2658   6.850   1.030   0.448 -0.0681  0.1579 -0.8457
  778MOL0     H 2659   6.655   1.172   0.505 -1.0357  0.4111  0.4578
  778MOL0     H 2660   6.598   1.457   1.000  0.1640 -2.7152 -1.7174
  778MOL0     H 2661   6.359   1.541   1.083 -1.6323  2.1793  1.2201
  778MOL0     H 2662   6.110   1.812   0.805  4.2582 -1.4453 -1.5609
  778MOL0     H 2663   6.200   1.907   0.914 -3.2323  1.8636 -2.3955
  778MOL0     H 2664   6.041   1.895   1.075 -0.0022  0.6765  0.6611
  778MOL0     H 2665   5.963   1.748   1.005 -0.2749  0.1578  1.0050
  778MOL0     H 2666   5.917   1.920   0.800  1.0020  2.8635 -1.0257
  778MOL0     H 2667   5.992   2.037   0.898  0.0894 -0.1566 -1.0844
  778MOL0     H 2668   5.749   1.879   0.983  4.1990 -2.4604  1.1930
  778MOL0     H 2669   5.809   2.032   1.067 -1.7267  0.4194  1.3917
  778MOL0     H 2670   5.716   2.021   0.769 -2.1974 -2.1094  0.2520
  778MOL0     H 2671   5.770   2.164   0.866 -1.3260  0.4458  2.9912
  778MOL0     H 2672   5.516   2.002   0.927 -2.7218  1.2025  0.4269
  778MOL0     H 2673   5.529   2.146   0.821 -1.6560 -1.7481  0.3113
  778MOL0     H 2674   5.561   2.124   1.125  0.6564 -1.4620 -0.1137
  778MOL0     H 2675   5.636   2.244   1.041 -0.3664 -0.2086  1.1898
  778MOL0     H 2676   5.421   2.324   0.937 -1.6886 -3.3384 -1.8233
  778MOL0     H 2677   5.448   2.354   1.109 -0.9964  1.7095 -0.2601
  778MOL0     H 2678   6.324   1.755   0.711  0.1721 -2.1414 -1.6171
  778MOL0     H 2679   6.528   1.666   0.639 -1.5467 -1.4375 -1.1956
  778MOL0     H 2680   6.900   1.381   0.794 -1.4115  0.9083 -0.7339
  778MOL0     H 2681   7.077   1.263   0.749 -1.4853  2.1349  0.8862
  778MOL0     H 2682   8.674   0.456   0.139  2.2250 -0.9904 -2.0399
  778MOL0     H 2683   8.917   0.516   0.087 -0.5537  0.3131 -0.9448
  778MOL0     H 2684   9.439   0.618   0.436 -3.2046  3.6720 -1.3831
  778MOL0     H 2685   9.664   0.610   0.351  1.3119  0.7445 -1.5551
  778MOL0     H 2686   9.842   0.504   0.307  0.8609 -1.1566  0.4257
  778MOL0     H 2687   9.914   0.614   0.199  1.7087 -1.5860  3.3494
  778MOL0     H 2688   9.967   0.429   0.032 -2.4238 -1.1704 -0.8684
  778MOL0     H 2689  10.055   0.424   0.182  0.1350  1.3666 -1.4272
  778MOL0     H 2690   9.798   0.263   0.160  0.2659 -0.8209  1.5742
  778MOL0     H 2691   9.934   0.252   0.269  0.9745  2.0859  0.3421
  778MOL0     H 2692   9.912   0.079   0.072  1.5281 -0.7074 -1.4067
  778MOL0     H 2693   9.959   0.204  -0.044  0.3727  1.0023 -0.0039
  778MOL0     H 2694  10.331   0.161   0.129  0.1578 -0.8631 -0.3658
  778MOL0     H 2695   9.523   0.410  -0.011 -2.2816 -0.8529  0.0596
  778MOL0     H 2696   9.302   0.420   0.066 -1.6570  2.5005 -1.6520
  779MOL0     O 2697   2.036   5.487   6.760 -0.2206  0.6346  0.4487
  779MOL0     C 2698   2.052   5.560   6.660 -0.0325 -0.1979  0.4137
  779MOL0     O 2699   1.956   5.635   6.597 -0.1022  0.6510 -0.8000
  779MOL0     C 2700   1.829   5.599   6.641 -0.2130 -0.3782 -0.5898
  779MOL0     C 2701   1.764   5.654   6.752  0.7525  0.9501  0.2111
  779MOL0     C 2702   1.633   5.603   6.791 -0.8039  0.3666  0.2785
  779MOL0     C 2703   1.556   5.524   6.705 -0.0567  0.5125 -0.1299
  779MOL0     O 2704   1.437   5.476   6.759 -0.4183  0.7266  0.3318
  779MOL0     C 2705   1.356   5.401   6.667 -0.5960 -0.2081 -0.5328
  779MOL0     C 2706   1.225   5.373   6.741 -0.1535 -0.0186 -0.1329
  779MOL0     C 2707   1.118   5.315   6.653  0.5933  0.1210 -0.1244
  779MOL0     C 2708   0.983   5.294   6.721 -0.1245 -0.3013  0.2157
  779MOL0     C 2709   0.884   5.233   6.618 -0.8544 -0.4434  0.1691
  779MOL0     C 2710   0.743   5.211   6.682  0.1469 -0.8026  0.7064
  779MOL0     C 2711   0.665   5.131   6.579  0.2862  0.5951 -0.6222
  779MOL0     C 2712   0.519   5.120   6.626 -0.4574  0.2784 -0.5720
  779MOL0     N 2713   0.430   5.052   6.525  0.9139  0.3335  0.2273
  779MOL0     C 2714   0.467   4.955   6.429  0.6717 -1.1371  0.4939
  779MOL0     C 2715   0.356   4.905   6.380  0.3707 -0.5965 -0.5064
  779MOL0     C 2716   0.342   4.788   6.288  0.1277  0.6154  0.3791
  779MOL0     C 2717   0.232   4.803   6.177  0.2109  0.1668  0.6316
  779MOL0     C 2718   0.207   4.664   6.105 -0.4909 -0.5180  0.6151
  779MOL0     C 2719   0.080   4.662   6.018  0.7701  0.2188 -0.2907
  779MOL0     O 2720   0.053   4.525   5.979  0.1237 -0.1877 -0.2839
  779MOL0     C 2721  -0.076   4.494   5.936 -0.4725  0.1083  0.4955
  779MOL0     C 2722  -0.111   4.358   5.909 -0.8343 -0.1538  0.3029
  779MOL0     C 2723  -0.238   4.314   5.874 -0.1979 -0.1360  0.8576
  779MOL0     C 2724  -0.335   4.421   5.858 -0.1473  1.1605  0.3792
  779MOL0     C 2725  -0.471   4.377   5.830 -0.6147 -0.3463 -0.5431
  779MOL0     O 2726  -0.494   4.241   5.808 -0.1354  0.0078  0.1176
  779MOL0     C 2727  -0.620   4.199   5.825  0.6196 -0.4841  0.2525
  779MOL0     C 2728  -0.678   4.183   5.950 -0.0026 -0.1826 -0.1790
  779MOL0     C 2729  -0.808   4.135   5.978  0.8476  0.1854  0.5411
  779MOL0     C 2730  -0.887   4.111   5.865  0.9389 -0.2022 -0.0728
  779MOL0     O 2731  -1.016   4.069   5.875 -0.2766  0.1523 -0.2938
  779MOL0     C 2732  -1.062   4.014   6.002 -0.0948 -0.2082 -0.4179
  779MOL0     C 2733  -1.191   3.936   5.981 -0.2895 -0.4060 -0.1724
  779MOL0     C 2734  -1.314   4.021   5.956 -0.3600  0.3372  0.7034
  779MOL0     C 2735  -1.436   3.934   5.950 -0.4520  0.0688  0.0038
  779MOL0     C 2736  -1.561   4.011   5.901  0.2011 -0.7719 -0.1168
  779MOL0     C 2737  -1.696   3.941   5.925  0.2728  0.0430  0.4977
  779MOL0     C 2738  -1.832   4.015   5.889  0.2733  0.1231 -0.5915
  779MOL0     C 2739  -1.856   4.130   5.988 -0.8764  0.5318  0.0557
  779MOL0    Cl 2740  -2.020   4.189   5.956 -0.1128 -0.1067  0.5642
  779MOL0     C 2741  -0.837   4.131   5.739  0.0953 -0.0852 -0.6318
  779MOL0     C 2742  -0.703   4.164   5.713  0.7705 -0.1809  0.2991
  779MOL0     O 2743  -0.553   4.471   5.843 -0.8360  0.1476  0.3677
  779MOL0     C 2744  -0.298   4.553   5.870 -0.4218 -0.4126 -0.2304
  779MOL0     C 2745  -0.169   4.596   5.907  0.0380  1.2499 -0.7249
  779MOL0     N 2746   0.245   4.977   6.430 -0.1644  0.4542 -0.2935
  779MOL0     N 2747   0.300   5.074   6.503  0.5023 -0.1821  0.5098
  779MOL0     C 2748   1.617   5.482   6.586 -0.0608  0.7822  0.4741
  779MOL0     C 2749   1.745   5.521   6.554 -0.9316 -0.0197  0.0800
  779MOL0     C 2750   2.191   5.575   6.613  0.0101 -0.3385  0.3205
  779MOL0     C 2751   2.294   5.492   6.670 -0.1306  0.6601 -0.0251
  779MOL0     C 2752   2.425   5.487   6.620 -0.2318  0.5505 -0.6242
  779MOL0     C 2753   2.453   5.575   6.510  0.2428 -1.1363 -0.6688
  779MOL0     O 2754   2.586   5.571   6.468 -0.0187 -0.3322  0.4817
  779MOL0     C 2755   2.623   5.651   6.350  0.4085 -0.5891  0.0676
  779MOL0     C 2756   2.773   5.645   6.330 -0.5751 -0.9117 -0.5141
  779MOL0     C 2757   2.810   5.498   6.313  0.1991 -0.9773  1.1130
  779MOL0     C 2758   2.955   5.484   6.260 -0.1822  0.3498 -0.1071
  779MOL0     C 2759   3.046   5.535   6.362  0.0675 -0.5352 -0.3546
  779MOL0     C 2760   3.133   5.578   6.446 -0.1164  0.1849 -0.1563
  779MOL0     C 2761   2.350   5.645   6.446 -0.0933  0.2588 -0.3356
  779MOL0     C 2762   2.218   5.648   6.493 -0.2465  0.1216  0.9552
  779MOL0     H 2763   1.826   5.715   6.817 -1.9380  2.0727  1.9067
  779MOL0     H 2764   1.591   5.650   6.880  0.6538  3.0899 -0.3523
  779MOL0     H 2765   1.409   5.311   6.635  0.7483  0.3002  0.1936
  779MOL0     H 2766   1.339   5.476   6.588  0.4562  2.3068  1.4688
  779MOL0     H 2767   1.184   5.465   6.782  2.1009  0.7593  0.4846
  779MOL0     H 2768   1.255   5.302   6.819 -3.1100 -0.4259  0.7573
  779MOL0     H 2769   1.150   5.215   6.624 -1.8743 -1.9763  3.4889
  779MOL0     H 2770   1.107   5.377   6.563  0.0921  1.5490  0.8697
  779MOL0     H 2771   1.000   5.222   6.802  0.4138  1.5384  1.8038
  779MOL0     H 2772   0.933   5.382   6.761 -2.1370 -2.3256  2.4558
  779MOL0     H 2773   0.925   5.138   6.583 -2.6907 -0.1146 -3.2626
  779MOL0     H 2774   0.878   5.299   6.531  3.3472  2.0466  1.4868
  779MOL0     H 2775   0.690   5.306   6.695 -2.0382 -1.2974 -3.0382
  779MOL0     H 2776   0.740   5.166   6.781 -1.2319  0.6136  1.3525
  779MOL0     H 2777   0.661   5.189   6.487  0.2502  3.2991  0.9672
  779MOL0     H 2778   0.719   5.037   6.568  0.6358  0.6918  0.1684
  779MOL0     H 2779   0.480   5.223   6.624 -1.0100  0.1835 -4.7009
  779MOL0     H 2780   0.508   5.073   6.724 -0.5855  1.8207  0.1893
  779MOL0     H 2781   0.562   4.909   6.404 -1.4201 -4.4229 -2.3750
  779MOL0     H 2782   0.316   4.712   6.362 -1.8655  0.3771 -0.5028
  779MOL0     H 2783   0.439   4.757   6.248  0.2981  2.2345 -0.5540
  779MOL0     H 2784   0.267   4.866   6.095 -1.4919 -0.2840 -0.4952
  779MOL0     H 2785   0.134   4.835   6.214 -0.6505 -2.4390  0.8024
  779MOL0     H 2786   0.283   4.641   6.029 -0.5244  0.0996  0.3809
  779MOL0     H 2787   0.202   4.577   6.170 -0.8866 -2.7796 -2.2122
  779MOL0     H 2788   0.096   4.736   5.939  1.2715  2.0712  1.4647
  779MOL0     H 2789  -0.006   4.693   6.077 -0.7694 -2.4520 -0.9976
  779MOL0     H 2790  -0.032   4.286   5.931  1.7261  2.3283 -0.1392
  779MOL0     H 2791  -0.265   4.211   5.853 -0.6643 -0.2194  1.8297
  779MOL0     H 2792  -0.614   4.211   6.033 -0.5292  2.9535 -0.7034
  779MOL0     H 2793  -0.828   4.134   6.085 -0.2217  2.6382  0.4506
  779MOL0     H 2794  -1.075   4.089   6.080 -1.9955  2.2917 -2.9535
  779MOL0     H 2795  -0.986   3.945   6.040 -0.4491  0.8772  2.4913
  779MOL0     H 2796  -1.206   3.881   6.074  1.1674  1.0233  0.9805
  779MOL0     H 2797  -1.171   3.869   5.897 -2.5560  0.6038 -1.6043
  779MOL0     H 2798  -1.304   4.064   5.856 -2.9168 -1.2800 -0.3595
  779MOL0     H 2799  -1.322   4.106   6.024  0.3721  2.8126 -2.0764
  779MOL0     H 2800  -1.416   3.859   5.873 -1.3982  1.9150 -2.1583
  779MOL0     H 2801  -1.468   3.901   6.050 -0.2154  1.9471  0.7239
  779MOL0     H 2802  -1.556   4.037   5.795 -2.0341 -1.3242 -0.4064
  779MOL0     H 2803  -1.563   4.101   5.964 -2.3828 -1.0517  0.3011
  779MOL0     H 2804  -1.710   3.913   6.030 -0.9319 -2.1629 -0.1887
  779MOL0     H 2805  -1.692   3.844   5.875 -0.1005 -0.6681  1.7976
  779MOL0     H 2806  -1.846   4.054   5.788 -0.4949 -2.1181 -1.4099
  779MOL0     H 2807  -1.918   3.949   5.906  0.5107  0.0766  0.4909
  779MOL0     H 2808  -1.785   4.210   5.962 -0.4552 -0.0322 -0.5857
  779MOL0     H 2809  -1.859   4.087   6.088  1.0449 -3.1272 -1.2635
  779MOL0     H 2810  -0.909   4.115   5.659 -2.0620  0.7503  1.0469
  779MOL0     H 2811  -0.668   4.162   5.610 -3.3746  1.0349 -1.3429
  779MOL0     H 2812  -0.365   4.639   5.871 -0.7828 -0.6880 -0.3193
  779MOL0     H 2813  -0.155   4.702   5.924 -3.1640  1.5812  0.5776
  779MOL0     H 2814   1.579   5.412   6.513  1.5388  1.2663 -0.8712
  779MOL0     H 2815   1.791   5.477   6.467  0.5080  0.3415  0.6414
  779MOL0     H 2816   2.270   5.429   6.755  0.8092 -1.1354 -1.0306
  779MOL0     H 2817   2.505   5.429   6.665 -0.6724 -0.3093 -0.9163
  779MOL0     H 2818   2.590   5.751   6.379 -0.3836 -0.5968 -0.7377
  779MOL0     H 2819   2.573   5.624   6.256  1.5742 -1.8565 -0.2185
  779MOL0     H 2820   2.799   5.710   6.246  0.8873 -0.3224  0.3729
  779MOL0     H 2821   2.824   5.683   6.419  3.0161 -3.3644 -1.3207
  779MOL0     H 2822   2.744   5.450   6.240 -0.1312  0.8443  0.1512
  779MOL0     H 2823   2.784   5.446   6.405 -1.3804  2.0326  2.5014
  779MOL0     H 2824   2.980   5.378   6.262  0.2486  0.4613  1.6300
  779MOL0     H 2825   2.969   5.523   6.158 -0.7173 -0.0656 -0.3452
  779MOL0     H 2826   3.212   5.608   6.511  0.5233  0.8565 -1.2060
  779MOL0     H 2827   2.370   5.717   6.367  0.1138  1.0528  0.4227
  779MOL0     H 2828   2.145   5.713   6.446  1.2076 -0.0665 -1.7208
  780MOL0     O 2829   3.149   4.401   6.027 -0.2984  0.5636  0.6716
  780MOL0     C 2830   3.230   4.477   6.072  0.0981 -0.0446  0.2985
  780MOL0     O 2831   3.199   4.603   6.122 -0.4139  0.5187 -0.1516
  780MOL0     C 2832   3.067   4.633   6.104 -0.6035  0.7902  0.0307
  780MOL0     C 2833   3.022   4.699   5.980  0.2387 -0.9790  0.0834
  780MOL0     C 2834   2.880   4.727   5.966 -0.5327  0.3597  0.3932
  780MOL0     C 2835   2.787   4.709   6.069  0.1005 -0.8667  0.6347
  780MOL0     O 2836   2.655   4.736   6.062  0.5687 -0.1180 -0.2142
  780MOL0     C 2837   2.607   4.870   6.095 -0.9891  0.2280  0.2050
  780MOL0     C 2838   2.647   4.938   6.222  0.5239  0.8076 -0.1961
  780MOL0     C 2839   2.638   5.092   6.204  0.4418  0.1197  0.1835
  780MOL0     C 2840   2.612   5.165   6.341 -0.3234  0.3263  0.8009
  780MOL0     C 2841   2.481   5.127   6.420  0.5143 -0.6422  0.7983
  780MOL0     C 2842   2.357   5.180   6.359 -0.3103 -0.6576  0.2939
  780MOL0     C 2843   2.234   5.150   6.458 -0.5852  0.1795  0.1033
  780MOL0     C 2844   2.106   5.209   6.417 -0.5892  0.2124 -0.0466
  780MOL0     N 2845   2.002   5.147   6.491 -0.3564  0.6621 -0.0657
  780MOL0     C 2846   1.988   5.138   6.627  0.1763  0.2118 -0.2948
  780MOL0     C 2847   1.862   5.087   6.646 -0.7785 -0.9225 -0.2470
  780MOL0     C 2848   1.789   5.068   6.774 -0.6510  0.1017  0.0906
  780MOL0     C 2849   1.781   5.206   6.843 -0.4421  0.3274 -0.4095
  780MOL0     C 2850   1.647   5.238   6.912  0.5733 -0.5411  0.2064
  780MOL0     C 2851   1.602   5.134   7.019 -0.1614 -0.3576 -1.1196
  780MOL0     O 2852   1.541   5.023   6.951  0.6610 -0.4976  0.5563
  780MOL0     C 2853   1.404   5.023   6.951 -0.6740 -0.4654 -0.1877
  780MOL0     C 2854   1.335   4.933   6.863 -0.0484 -0.2497  0.0708
  780MOL0     C 2855   1.197   4.921   6.868  0.3591 -0.1079  1.1412
  780MOL0     C 2856   1.114   4.993   6.950 -0.3888  1.0695 -0.7896
  780MOL0     C 2857   0.965   4.975   6.953  0.6654  0.0681 -0.0737
  780MOL0     O 2858   0.908   4.887   6.858  0.6875 -1.0005 -0.1062
  780MOL0     C 2859   0.771   4.869   6.844  0.7101 -0.1376  0.1802
  780MOL0     C 2860   0.729   4.765   6.766 -0.8178  0.1019 -0.8429
  780MOL0     C 2861   0.593   4.728   6.758 -0.2849  0.0423  0.8637
  780MOL0     C 2862   0.489   4.791   6.828  0.0998 -0.4423 -0.0729
  780MOL0     O 2863   0.356   4.761   6.827  0.9149  0.2602 -0.0821
  780MOL0     C 2864   0.320   4.703   6.695 -0.4543 -0.2453 -0.3875
  780MOL0     C 2865   0.174   4.732   6.656 -0.0558  0.2763  0.5191
  780MOL0     C 2866   0.070   4.624   6.707 -0.0591  0.0615  0.0328
  780MOL0     C 2867  -0.059   4.645   6.626  0.2474 -0.0289 -0.0233
  780MOL0     C 2868  -0.177   4.580   6.701  0.0205 -0.0842  0.1853
  780MOL0     C 2869  -0.306   4.637   6.634 -0.5746 -0.2395 -0.0569
  780MOL0     C 2870  -0.432   4.577   6.710 -0.8055 -0.2280  0.1509
  780MOL0     C 2871  -0.565   4.638   6.654  0.6242 -0.0325  0.3362
  780MOL0    Cl 2872  -0.701   4.539   6.731 -0.2525 -0.1674  0.2378
  780MOL0     C 2873   0.533   4.895   6.910  0.0703  0.7697  0.7240
  780MOL0     C 2874   0.665   4.937   6.913 -0.3868  0.0154 -0.4316
  780MOL0     O 2875   0.904   5.045   7.040  1.0388 -0.5413  0.5232
  780MOL0     C 2876   1.185   5.065   7.049  0.6516  0.1231  0.8035
  780MOL0     C 2877   1.320   5.081   7.052 -0.4346  0.3462  0.3995
  780MOL0     N 2878   1.802   5.063   6.527  0.2502 -0.4779  0.3231
  780MOL0     N 2879   1.889   5.093   6.435  0.2493  0.3558 -0.3400
  780MOL0     C 2880   2.835   4.646   6.190 -0.4249  0.1547 -0.1258
  780MOL0     C 2881   2.970   4.605   6.206 -0.7628 -0.2900  0.1169
  780MOL0     C 2882   3.372   4.432   6.083 -0.0486  0.4666 -0.2228
  780MOL0     C 2883   3.428   4.343   5.990 -0.1700  0.6566  0.2482
  780MOL0     C 2884   3.559   4.289   6.010  0.0611 -0.2437  0.7013
  780MOL0     C 2885   3.627   4.313   6.125 -0.5934 -1.0726  0.2771
  780MOL0     O 2886   3.744   4.236   6.140  0.3795  0.6608 -0.4273
  780MOL0     C 2887   3.825   4.274   6.249  0.4319 -0.7416  0.0568
  780MOL0     C 2888   3.780   4.233   6.393  0.4103 -0.4612 -0.1140
  780MOL0     C 2889   3.823   4.094   6.431  0.1058  0.3672  0.1396
  780MOL0     C 2890   3.744   3.995   6.345 -0.0755  0.1456  0.0837
  780MOL0     C 2891   3.755   3.860   6.392  0.8552  0.6493 -0.1012
  780MOL0     C 2892   3.769   3.745   6.429  0.1010 -0.0422 -0.0828
  780MOL0     C 2893   3.571   4.402   6.214  0.0064 -0.4507  0.0821
  780MOL0     C 2894   3.444   4.460   6.194  0.0279 -0.1809  0.7554
  780MOL0     H 2895   3.095   4.716   5.903  1.2931  4.1755  1.8331
  780MOL0     H 2896   2.852   4.767   5.869  0.8108  0.7598  0.1437
  780MOL0     H 2897   2.498   4.864   6.103 -0.7789 -2.6913  2.3027
  780MOL0     H 2898   2.646   4.931   6.013  2.6471 -1.8833  0.1792
  780MOL0     H 2899   2.750   4.912   6.246  1.7024  3.2678 -2.2425
  780MOL0     H 2900   2.569   4.905   6.292 -0.8025 -0.4552 -2.1890
  780MOL0     H 2901   2.554   5.112   6.137 -0.0302  0.0345  0.7329
  780MOL0     H 2902   2.724   5.133   6.151  0.0834 -0.8280 -1.1640
  780MOL0     H 2903   2.696   5.134   6.404 -0.0272  0.4923  0.4923
  780MOL0     H 2904   2.615   5.275   6.339  1.8732  0.3973  2.7201
  780MOL0     H 2905   2.497   5.169   6.520 -1.5450 -0.7944  1.2477
  780MOL0     H 2906   2.473   5.020   6.442  0.2307 -0.6375  0.7233
  780MOL0     H 2907   2.338   5.128   6.264  0.1571  1.8763 -1.2541
  780MOL0     H 2908   2.377   5.286   6.341 -1.5294 -0.0807  2.0469
  780MOL0     H 2909   2.225   5.041   6.455 -0.0523 -0.0135  2.8685
  780MOL0     H 2910   2.254   5.186   6.559 -0.0445 -1.7543  0.7347
  780MOL0     H 2911   2.094   5.186   6.311 -3.5049 -0.4084  0.3485
  780MOL0     H 2912   2.092   5.315   6.443  1.2707  0.1999  1.2685
  780MOL0     H 2913   2.056   5.166   6.707 -0.8545  2.7653 -0.2104
  780MOL0     H 2914   1.826   4.989   6.840 -1.6965  1.8188  2.8781
  780MOL0     H 2915   1.686   5.032   6.760 -1.5401  2.4542  0.1447
  780MOL0     H 2916   1.803   5.283   6.769  0.4106  1.6227  1.1347
  780MOL0     H 2917   1.863   5.206   6.916 -2.4306  0.3163  1.9754
  780MOL0     H 2918   1.667   5.331   6.967  0.8144 -1.7592  2.3031
  780MOL0     H 2919   1.576   5.261   6.832  1.1687 -2.3685 -0.9030
  780MOL0     H 2920   1.547   5.180   7.102  2.9203 -1.7377  1.9386
  780MOL0     H 2921   1.690   5.095   7.070 -0.9177 -0.4929  0.1058
  780MOL0     H 2922   1.394   4.878   6.790  1.0218  3.4757 -2.1628
  780MOL0     H 2923   1.140   4.857   6.802  2.2393 -0.3687 -0.3296
  780MOL0     H 2924   0.796   4.712   6.700 -3.1517 -2.2390 -1.4878
  780MOL0     H 2925   0.572   4.654   6.681 -1.9872  1.1945  0.1751
  780MOL0     H 2926   0.338   4.596   6.686  2.0032  0.1057 -0.2905
  780MOL0     H 2927   0.382   4.751   6.620  1.3073  0.6069  1.5149
  780MOL0     H 2928   0.172   4.737   6.547  0.4187 -3.3703  0.1958
  780MOL0     H 2929   0.148   4.832   6.692 -0.5315 -0.2016  1.5529
  780MOL0     H 2930   0.061   4.627   6.816 -1.2567  1.3832 -0.0725
  780MOL0     H 2931   0.104   4.526   6.673  0.8566  0.9060 -1.6136
  780MOL0     H 2932  -0.076   4.752   6.608  2.2203  0.5785  1.3435
  780MOL0     H 2933  -0.038   4.601   6.528 -0.6353  1.2015 -0.7874
  780MOL0     H 2934  -0.176   4.610   6.806 -0.2045  1.7141 -0.2932
  780MOL0     H 2935  -0.171   4.471   6.696  0.8669  0.0078 -1.4389
  780MOL0     H 2936  -0.305   4.607   6.529 -2.9510 -0.7497  0.0094
  780MOL0     H 2937  -0.311   4.746   6.632  0.8656 -0.1605 -0.6420
  780MOL0     H 2938  -0.430   4.469   6.696  0.7084 -0.3251  0.9377
  780MOL0     H 2939  -0.427   4.593   6.818 -1.0049 -0.4868  0.1993
  780MOL0     H 2940  -0.581   4.624   6.547 -1.8847 -0.9746  0.7715
  780MOL0     H 2941  -0.575   4.745   6.677 -0.9860 -0.1201  0.1420
  780MOL0     H 2942   0.456   4.948   6.967 -2.9211 -2.0912 -0.3011
  780MOL0     H 2943   0.676   5.031   6.966  0.8110 -0.0026 -0.6288
  780MOL0     H 2944   1.128   5.115   7.127 -1.0406  0.7978 -0.8056
  780MOL0     H 2945   1.374   5.126   7.134  1.0530 -1.6640  0.6136
  780MOL0     H 2946   2.760   4.627   6.266  0.2023  0.3981  0.5574
  780MOL0     H 2947   3.010   4.543   6.285 -0.0259  2.0625  1.6957
  780MOL0     H 2948   3.362   4.301   5.916  1.1792 -2.6034  0.7194
  780MOL0     H 2949   3.594   4.211   5.942  2.1899 -0.4747  1.9631
  780MOL0     H 2950   3.830   4.383   6.247 -2.2502 -0.5663 -0.7807
  780MOL0     H 2951   3.920   4.230   6.218 -0.5954 -2.3519 -0.9949
  780MOL0     H 2952   3.832   4.310   6.450  2.1198 -0.9832 -0.8925
  780MOL0     H 2953   3.676   4.249   6.423  0.7056  0.6051  0.3916
  780MOL0     H 2954   3.803   4.081   6.538  0.3191  1.0392  0.2661
  780MOL0     H 2955   3.930   4.075   6.416 -0.0995 -1.6691  0.9001
  780MOL0     H 2956   3.640   4.028   6.344 -0.7461 -1.7733  0.9394
  780MOL0     H 2957   3.776   4.004   6.241 -1.9341  5.9583 -0.3266
  780MOL0     H 2958   3.790   3.646   6.464 -0.1339  0.0061  0.2016
  780MOL0     H 2959   3.616   4.433   6.308  0.8872 -0.1563 -0.4271
  780MOL0     H 2960   3.405   4.537   6.260  0.7244 -0.5798  1.6588
  781MOL0     O 2961   0.257   5.758   9.564 -0.4290 -0.7111  0.0917
  781MOL0     C 2962   0.247   5.868   9.612 -0.3034 -0.9169 -0.7884
  781MOL0     O 2963   0.134   5.942   9.624  0.5454 -0.9669  0.4010
  781MOL0     C 2964   0.012   5.899   9.571  0.1056 -0.2713  1.0108
  781MOL0     C 2965  -0.035   5.772   9.539 -0.8846 -0.7545  0.8971
  781MOL0     C 2966  -0.157   5.757   9.489 -0.2306 -0.6021  0.4226
  781MOL0     C 2967  -0.245   5.865   9.470 -0.4600  0.5311  0.8287
  781MOL0     O 2968  -0.364   5.829   9.408  0.4876 -0.3604  0.1908
  781MOL0     C 2969  -0.472   5.927   9.397  0.2246  0.0256  1.1934
  781MOL0     C 2970  -0.577   5.867   9.301 -0.0146  1.1568 -0.8829
  781MOL0     C 2971  -0.660   5.965   9.221  0.4481 -0.1530 -0.3640
  781MOL0     C 2972  -0.730   5.900   9.105 -0.0720 -0.2722 -0.3709
  781MOL0     C 2973  -0.841   5.992   9.051  0.1263 -0.1559  0.2816
  781MOL0     C 2974  -0.929   5.905   8.967 -0.4177 -0.2088  0.0660
  781MOL0     C 2975  -1.054   5.984   8.906 -0.8299 -0.6156 -0.2802
  781MOL0     C 2976  -1.167   6.000   9.008 -0.3087 -0.0564 -0.4140
  781MOL0     N 2977  -1.302   6.004   8.949  0.4456 -0.0576 -0.6348
  781MOL0     C 2978  -1.341   6.075   8.836  0.0798 -0.1766  0.4077
  781MOL0     C 2979  -1.477   6.047   8.825 -0.0655  0.1191  0.2654
  781MOL0     C 2980  -1.568   6.091   8.712 -0.2164 -0.3053  0.3075
  781MOL0     C 2981  -1.704   6.152   8.761 -0.5872 -0.0603  0.2816
  781MOL0     C 2982  -1.796   6.158   8.637  0.5928  0.2590 -0.0925
  781MOL0     C 2983  -1.923   6.227   8.672  0.6644  0.1997  0.0296
  781MOL0     O 2984  -2.004   6.241   8.556 -0.4864  0.4949  0.5586
  781MOL0     C 2985  -2.127   6.297   8.582 -0.0586 -0.1911  0.6520
  781MOL0     C 2986  -2.205   6.307   8.465  0.5472  0.4295  0.1994
  781MOL0     C 2987  -2.340   6.330   8.470 -0.5209 -0.2932 -0.2285
  781MOL0     C 2988  -2.400   6.366   8.592 -0.1202 -0.2698  0.1933
  781MOL0     C 2989  -2.536   6.409   8.586  0.5066 -0.9642  0.6261
  781MOL0     O 2990  -2.609   6.390   8.467 -0.3141 -0.2883  0.0569
  781MOL0     C 2991  -2.748   6.430   8.472  0.4893 -0.2513  0.2097
  781MOL0     C 2992  -2.797   6.499   8.358 -0.2171  0.1753 -0.8579
  781MOL0     C 2993  -2.929   6.528   8.352 -0.7063 -0.5133  0.5941
  781MOL0     C 2994  -3.021   6.482   8.457 -0.0091 -0.5250 -0.0205
  781MOL0     O 2995  -3.157   6.503   8.466 -0.6214  0.5070 -0.0695
  781MOL0     C 2996  -3.234   6.551   8.353 -0.1184  0.4013  0.2142
  781MOL0     C 2997  -3.368   6.598   8.386  1.1988  0.5031  0.3934
  781MOL0     C 2998  -3.459   6.502   8.463  0.0598 -0.3670 -0.5332
  781MOL0     C 2999  -3.580   6.580   8.500 -0.2245  0.2685 -0.7566
  781MOL0     C 3000  -3.678   6.488   8.572  0.5574 -0.4522 -0.0015
  781MOL0     C 3001  -3.811   6.558   8.600  0.3166 -0.3570 -0.6251
  781MOL0     C 3002  -3.921   6.463   8.650 -0.2208 -0.7934 -0.0165
  781MOL0     C 3003  -3.959   6.357   8.549  0.3921  1.1368 -0.7010
  781MOL0    Cl 3004  -4.121   6.285   8.577  0.0477 -0.3509  0.2829
  781MOL0     C 3005  -2.969   6.415   8.564  0.7869 -0.4767  1.3321
  781MOL0     C 3006  -2.833   6.380   8.570  0.4335  0.1939 -0.2724
  781MOL0     O 3007  -2.577   6.474   8.680  0.1434  0.9323  0.6705
  781MOL0     C 3008  -2.326   6.355   8.705 -0.5767  0.0418 -0.1387
  781MOL0     C 3009  -2.194   6.318   8.710 -0.5294  0.2834 -0.0755
  781MOL0     N 3010  -1.509   5.976   8.937  0.3136  0.4281 -0.0387
  781MOL0     N 3011  -1.411   5.965   9.015  0.1870 -0.1023  0.0093
  781MOL0     C 3012  -0.198   5.992   9.498  0.8919 -0.2327 -0.5488
  781MOL0     C 3013  -0.068   6.008   9.548  0.4249 -0.9074  0.1712
  781MOL0     C 3014   0.372   5.940   9.641  0.0192 -0.2584  0.2450
  781MOL0     C 3015   0.383   6.080   9.652  0.2051  0.8446  1.1573
  781MOL0     C 3016   0.504   6.131   9.694 -0.2270 -0.7011  0.4265
  781MOL0     C 3017   0.619   6.056   9.717  0.1951 -1.1672  0.0198
  781MOL0     O 3018   0.736   6.126   9.736 -0.9443 -0.7553 -0.2584
  781MOL0     C 3019   0.855   6.066   9.781 -0.4195 -0.2055 -0.2080
  781MOL0     C 3020   0.980   6.155   9.748 -0.1925  0.6693 -0.5659
  781MOL0     C 3021   1.115   6.109   9.808  0.3836  0.3693  0.2930
  781MOL0     C 3022   1.153   5.961   9.766 -1.7919 -0.3824 -0.6349
  781MOL0     C 3023   1.173   5.942   9.625 -0.2892 -0.3940  0.4756
  781MOL0     C 3024   1.189   5.915   9.508  1.0154 -0.1301 -0.0305
  781MOL0     C 3025   0.614   5.919   9.704 -0.1844 -0.7907  0.6109
  781MOL0     C 3026   0.486   5.866   9.673  0.7550  0.3401  0.0328
  781MOL0     H 3027   0.019   5.679   9.552 -3.1309 -2.1013  1.0895
  781MOL0     H 3028  -0.194   5.665   9.443  0.0219 -1.3212  1.6073
  781MOL0     H 3029  -0.431   6.013   9.344  0.5597  1.2521  3.3380
  781MOL0     H 3030  -0.520   5.959   9.490 -0.7761 -1.6223  1.2776
  781MOL0     H 3031  -0.650   5.801   9.349 -1.7874  1.4856 -2.9419
  781MOL0     H 3032  -0.519   5.809   9.227 -1.0704  1.0681 -1.6693
  781MOL0     H 3033  -0.603   6.050   9.181  1.0414 -1.0146 -1.3955
  781MOL0     H 3034  -0.736   5.997   9.293  0.1584 -0.7674 -0.3862
  781MOL0     H 3035  -0.655   5.885   9.027  0.6986  0.2062  0.2541
  781MOL0     H 3036  -0.778   5.805   9.130 -0.2645  0.1313  0.8966
  781MOL0     H 3037  -0.797   6.071   8.990  0.9143 -0.2612  0.7052
  781MOL0     H 3038  -0.903   6.039   9.128  1.5522 -1.1964  2.1488
  781MOL0     H 3039  -0.955   5.812   9.017 -2.4585 -0.4984 -1.4148
  781MOL0     H 3040  -0.864   5.873   8.885 -3.7201 -1.5251 -2.2417
  781MOL0     H 3041  -1.038   6.082   8.861 -2.4348  0.3661  1.1748
  781MOL0     H 3042  -1.097   5.921   8.828 -0.4645  0.7141 -1.5968
  781MOL0     H 3043  -1.148   6.099   9.051 -0.0355 -1.1207  2.1128
  781MOL0     H 3044  -1.156   5.917   9.079 -3.1043 -3.2292 -3.2931
  781MOL0     H 3045  -1.275   6.120   8.762  1.4869 -1.9732  0.5029
  781MOL0     H 3046  -1.586   6.002   8.652  3.8614 -0.8663 -0.3226
  781MOL0     H 3047  -1.518   6.165   8.649  0.9936 -1.7505 -0.4734
  781MOL0     H 3048  -1.684   6.249   8.808  0.3405 -0.1823  0.1640
  781MOL0     H 3049  -1.749   6.085   8.835 -0.5515  0.1126  0.4600
  781MOL0     H 3050  -1.751   6.215   8.555 -0.8406 -0.1841 -1.2252
  781MOL0     H 3051  -1.824   6.057   8.608 -2.2034  0.8496  0.2102
  781MOL0     H 3052  -1.901   6.327   8.710 -2.2596  0.0664  2.4998
  781MOL0     H 3053  -1.966   6.166   8.752  0.0948 -1.4789 -1.4922
  781MOL0     H 3054  -2.163   6.289   8.367 -0.2871 -1.2341  0.1083
  781MOL0     H 3055  -2.391   6.342   8.375  1.5057  2.1440 -1.0966
  781MOL0     H 3056  -2.736   6.527   8.274 -0.7630 -1.4723 -1.8561
  781MOL0     H 3057  -2.957   6.582   8.262  0.6248 -2.6502 -1.2068
  781MOL0     H 3058  -3.248   6.471   8.280 -1.2837  1.8141 -1.1561
  781MOL0     H 3059  -3.180   6.631   8.301  1.7920 -1.7819 -1.4024
  781MOL0     H 3060  -3.423   6.629   8.297 -1.6520 -1.8532  1.1759
  781MOL0     H 3061  -3.358   6.688   8.446  0.1972  2.2177 -1.8754
  781MOL0     H 3062  -3.419   6.479   8.563 -1.0350 -0.3201 -0.0746
  781MOL0     H 3063  -3.479   6.409   8.410  1.4053 -0.7073 -0.4898
  781MOL0     H 3064  -3.552   6.658   8.570 -0.7274 -1.4203  1.4495
  781MOL0     H 3065  -3.626   6.633   8.417 -0.2590  0.5578 -0.5536
  781MOL0     H 3066  -3.631   6.452   8.664  0.6502 -1.0103 -0.2649
  781MOL0     H 3067  -3.706   6.402   8.510  3.0625 -0.8850 -0.6313
  781MOL0     H 3068  -3.844   6.607   8.508 -2.0600  2.3555  1.4894
  781MOL0     H 3069  -3.799   6.644   8.668 -2.3294 -0.1831 -0.2896
  781MOL0     H 3070  -3.897   6.430   8.752  1.2519  1.6566  0.5233
  781MOL0     H 3071  -4.011   6.524   8.658 -1.0276 -1.5054 -2.7226
  781MOL0     H 3072  -3.895   6.269   8.552  0.6786  1.3523 -0.4702
  781MOL0     H 3073  -3.970   6.397   8.448 -1.9378  2.1208 -0.1414
  781MOL0     H 3074  -3.035   6.378   8.642  1.0052 -0.3483  1.5804
  781MOL0     H 3075  -2.804   6.305   8.643 -0.5287 -0.3309 -0.4229
  781MOL0     H 3076  -2.377   6.385   8.796 -1.1279 -0.9388 -0.1117
  781MOL0     H 3077  -2.130   6.314   8.797  1.8679  1.8135 -1.6116
  781MOL0     H 3078  -0.266   6.076   9.480  0.4639 -0.7994 -1.6745
  781MOL0     H 3079  -0.032   6.108   9.573 -1.1849 -0.0384 -0.7958
  781MOL0     H 3080   0.301   6.147   9.629 -0.0879  0.6367  1.5772
  781MOL0     H 3081   0.517   6.239   9.687  0.1059 -0.7499  0.2665
  781MOL0     H 3082   0.873   5.967   9.740  2.0998 -0.1347  0.5547
  781MOL0     H 3083   0.839   6.053   9.889 -1.3676 -1.1455 -0.4529
  781MOL0     H 3084   0.991   6.167   9.640 -0.3875 -2.0192 -0.9426
  781MOL0     H 3085   0.946   6.256   9.772  0.2278  1.2518 -2.2520
  781MOL0     H 3086   1.103   6.121   9.916 -0.8457  0.4879  0.1568
  781MOL0     H 3087   1.193   6.178   9.776 -0.0215 -0.2536 -2.2822
  781MOL0     H 3088   1.246   5.928   9.814 -1.4103 -1.0953 -1.8036
  781MOL0     H 3089   1.071   5.903   9.809  0.5354 -2.4707  1.3057
  781MOL0     H 3090   1.208   5.891   9.405  2.6529 -0.4686  0.3267
  781MOL0     H 3091   0.696   5.848   9.713 -1.3122 -1.9788  1.9103
  781MOL0     H 3092   0.494   5.758   9.665 -0.7388  0.3257 -1.8491
  782MOL0     O 3093   3.245   8.786  10.860 -0.3395  0.1782  0.5928
  782MOL0     C 3094   3.305   8.701  10.793 -0.2810  1.1264  0.5013
  782MOL0     O 3095   3.247   8.612  10.705 -0.1081  0.5863 -0.3278
  782MOL0     C 3096   3.110   8.622  10.676  0.3765 -0.1330 -0.7403
  782MOL0     C 3097   3.052   8.749  10.640  0.6851 -0.9409  0.4293
  782MOL0     C 3098   2.912   8.754  10.606 -0.3142  1.0749 -0.0092
  782MOL0     C 3099   2.830   8.637  10.602 -0.2973 -0.1740  0.5472
  782MOL0     O 3100   2.692   8.641  10.579  0.5158 -0.1093  0.6867
  782MOL0     C 3101   2.636   8.543  10.485  0.4027  0.9268 -0.2474
  782MOL0     C 3102   2.512   8.602  10.413 -0.1952  0.2868  0.2992
  782MOL0     C 3103   2.424   8.490  10.362 -0.3067  0.2919 -0.3223
  782MOL0     C 3104   2.298   8.543  10.298 -0.2089 -0.2279 -0.6280
  782MOL0     C 3105   2.198   8.439  10.253  0.4496 -0.5049  0.7700
  782MOL0     C 3106   2.250   8.340  10.145  0.1939  0.3127  0.2214
  782MOL0     C 3107   2.139   8.242  10.110 -0.4105 -0.4254  0.1170
  782MOL0     C 3108   2.178   8.182   9.975 -0.1468 -0.3959  0.1967
  782MOL0     N 3109   2.088   8.076   9.928 -0.0257 -0.6150 -0.3316
  782MOL0     C 3110   1.953   8.070   9.926  1.1630 -0.0729 -0.7554
  782MOL0     C 3111   1.916   7.946   9.880  0.1171 -0.4715 -0.1925
  782MOL0     C 3112   1.784   7.896   9.856 -0.4196  0.0205  0.4908
  782MOL0     C 3113   1.772   7.749   9.814 -0.3395 -0.5303 -0.2393
  782MOL0     C 3114   1.635   7.707   9.752 -0.6162 -0.3590  0.8101
  782MOL0     C 3115   1.530   7.683   9.861 -0.6770 -0.9039  0.2986
  782MOL0     O 3116   1.417   7.770   9.842 -0.4599 -0.4269 -0.3609
  782MOL0     C 3117   1.316   7.736   9.754 -0.6048 -0.6830  0.1692
  782MOL0     C 3118   1.203   7.813   9.764  0.1712 -0.0620  0.0730
  782MOL0     C 3119   1.092   7.797   9.682  0.9724 -0.1468 -0.7341
  782MOL0     C 3120   1.098   7.695   9.576  0.3701 -0.0802 -0.3725
  782MOL0     C 3121   0.967   7.669   9.504  0.3508  0.6207 -0.0570
  782MOL0     O 3122   0.975   7.568   9.401  0.1219 -0.5371 -0.3674
  782MOL0     C 3123   0.858   7.555   9.333 -0.8418 -0.0805  0.8660
  782MOL0     C 3124   0.831   7.638   9.223  0.0577 -0.3764 -0.2305
  782MOL0     C 3125   0.709   7.626   9.149  0.5164  0.1944  0.1561
  782MOL0     C 3126   0.612   7.523   9.186  0.5275 -0.2040  0.5474
  782MOL0     O 3127   0.489   7.504   9.122  0.3453  0.2034 -0.4486
  782MOL0     C 3128   0.462   7.544   8.985  0.2804 -0.2118  0.6185
  782MOL0     C 3129   0.525   7.439   8.890 -0.3082  0.4046 -0.2176
  782MOL0     C 3130   0.449   7.300   8.877 -0.1865 -0.6268 -0.6645
  782MOL0     C 3131   0.456   7.215   8.999 -0.0089 -0.5138 -0.6300
  782MOL0     C 3132   0.397   7.069   8.981  1.0029 -0.2694  0.3003
  782MOL0     C 3133   0.450   6.964   9.080 -0.4120  0.2415  0.7591
  782MOL0     C 3134   0.465   7.017   9.219  0.1238  0.2797  0.1353
  782MOL0     C 3135   0.500   6.898   9.310  0.0602 -0.1525 -0.6347
  782MOL0    Cl 3136   0.609   6.969   9.447  0.0587  0.0282 -0.4026
  782MOL0     C 3137   0.653   7.436   9.294 -0.5074 -0.0855 -0.7055
  782MOL0     C 3138   0.766   7.466   9.369 -0.1310 -0.6498 -0.1423
  782MOL0     O 3139   0.867   7.737   9.529  0.2605  0.8611 -0.7275
  782MOL0     C 3140   1.214   7.623   9.563  0.4553 -1.1649  0.8802
  782MOL0     C 3141   1.321   7.641   9.649 -0.0400  0.3535 -0.0291
  782MOL0     N 3142   2.034   7.875   9.870  0.5114  0.2274 -0.3032
  782MOL0     N 3143   2.127   7.955   9.881 -0.1630  0.3220 -0.1810
  782MOL0     C 3144   2.894   8.517  10.629  0.0682 -0.7703 -0.4132
  782MOL0     C 3145   3.029   8.510  10.656 -0.4727  0.0207  0.3958
  782MOL0     C 3146   3.455   8.716  10.794  0.5460 -0.1511 -0.3276
  782MOL0     C 3147   3.517   8.806  10.879 -0.0790 -0.6965  0.7743
  782MOL0     C 3148   3.653   8.816  10.880  0.4863 -0.2652 -0.5789
  782MOL0     C 3149   3.733   8.742  10.783  0.0683  0.2687 -0.2561
  782MOL0     O 3150   3.865   8.783  10.781 -0.3585 -0.3393  0.2679
  782MOL0     C 3151   3.962   8.716  10.703 -0.3726 -0.2810 -0.1580
  782MOL0     C 3152   4.060   8.820  10.642  0.0975  1.0519  0.3451
  782MOL0     C 3153   4.188   8.839  10.735  0.5650  0.6478 -0.2534
  782MOL0     C 3154   4.281   8.943  10.677 -0.1476 -0.2227  0.2928
  782MOL0     C 3155   4.345   8.907  10.552  0.2257 -0.4096 -0.1758
  782MOL0     C 3156   4.384   8.892  10.434  0.6036  0.3021 -0.1443
  782MOL0     C 3157   3.667   8.659  10.691 -0.3718 -0.6967  0.5802
  782MOL0     C 3158   3.533   8.643  10.700 -0.0011  0.3438 -0.4110
  782MOL0     H 3159   3.090   8.850  10.642 -0.0598 -0.6371  2.8521
  782MOL0     H 3160   2.869   8.853  10.594 -1.5865  1.1313  3.8262
  782MOL0     H 3161   2.605   8.453  10.539 -1.2164  0.6754 -1.5123
  782MOL0     H 3162   2.705   8.510  10.406  2.1270  1.1603  1.1006
  782MOL0     H 3163   2.541   8.673  10.334  0.6729 -2.2861 -1.8681
  782MOL0     H 3164   2.461   8.659  10.491  4.0876 -0.4258  4.0583
  782MOL0     H 3165   2.402   8.432  10.452  2.2202  1.4677  1.1660
  782MOL0     H 3166   2.468   8.422  10.289 -1.4145 -0.9731  0.1441
  782MOL0     H 3167   2.245   8.615  10.361  0.9500  2.7747 -2.8263
  782MOL0     H 3168   2.329   8.604  10.213 -0.9707  0.2383 -0.5805
  782MOL0     H 3169   2.109   8.491  10.215 -1.8251 -3.7219  1.2627
  782MOL0     H 3170   2.150   8.389  10.338 -3.4857  1.7814  0.1689
  782MOL0     H 3171   2.333   8.278  10.178  1.2900  1.9144  0.5710
  782MOL0     H 3172   2.274   8.392  10.052  1.3994 -0.7656 -0.0990
  782MOL0     H 3173   2.131   8.176  10.197 -0.7472  1.3183  1.4643
  782MOL0     H 3174   2.044   8.294  10.096 -0.2279 -0.2824 -0.6400
  782MOL0     H 3175   2.279   8.142   9.984 -0.3538 -1.1012 -0.4457
  782MOL0     H 3176   2.194   8.258   9.899 -0.2014  0.7148  1.2738
  782MOL0     H 3177   1.883   8.150   9.945 -0.2428 -1.2295 -0.8745
  782MOL0     H 3178   1.742   7.955   9.774 -1.3283  0.4757  1.2551
  782MOL0     H 3179   1.712   7.905   9.938  0.3338 -1.0942  1.3041
  782MOL0     H 3180   1.783   7.688   9.905  0.0201  0.2692  0.2676
  782MOL0     H 3181   1.844   7.729   9.735 -1.8829  0.0822 -1.8742
  782MOL0     H 3182   1.601   7.775   9.674 -1.3948 -1.2295  0.3727
  782MOL0     H 3183   1.649   7.607   9.709 -4.2133 -1.9296  2.8439
  782MOL0     H 3184   1.578   7.711   9.955  1.6486 -1.6125 -0.6226
  782MOL0     H 3185   1.494   7.580   9.870  1.8692 -1.8643  0.2496
  782MOL0     H 3186   1.198   7.894   9.836 -0.9252 -0.0147 -0.0400
  782MOL0     H 3187   1.000   7.853   9.698  0.2402 -1.7055  0.8724
  782MOL0     H 3188   0.896   7.721   9.198 -0.0707 -0.1700  0.1167
  782MOL0     H 3189   0.677   7.695   9.072 -2.5537 -1.9167 -0.6399
  782MOL0     H 3190   0.501   7.643   8.960  4.9594 -1.9713 -0.0009
  782MOL0     H 3191   0.354   7.540   8.967  0.4458 -0.2942 -0.4157
  782MOL0     H 3192   0.628   7.423   8.924 -0.3725 -2.0893 -1.0407
  782MOL0     H 3193   0.523   7.493   8.795 -3.2601  0.3551 -0.2540
  782MOL0     H 3194   0.488   7.247   8.790  0.6217 -1.1516  0.0009
  782MOL0     H 3195   0.345   7.317   8.846  0.2256  0.1658 -1.6493
  782MOL0     H 3196   0.563   7.215   9.021 -0.1429 -2.2690  0.2031
  782MOL0     H 3197   0.404   7.262   9.083 -0.5080 -4.2922  1.3680
  782MOL0     H 3198   0.402   7.042   8.875  0.7566 -2.7842  0.8489
  782MOL0     H 3199   0.288   7.079   8.989  0.7333  2.0044 -3.7296
  782MOL0     H 3200   0.550   6.933   9.050  0.1685  0.6223  2.2063
  782MOL0     H 3201   0.384   6.877   9.070  0.0833  0.0848 -2.1146
  782MOL0     H 3202   0.547   7.089   9.217  1.7910 -1.5220  0.9320
  782MOL0     H 3203   0.379   7.069   9.262  2.0257  1.0042  3.4573
  782MOL0     H 3204   0.558   6.826   9.252 -0.0766 -1.6483  0.9837
  782MOL0     H 3205   0.408   6.855   9.352 -0.0955 -2.8368 -3.3900
  782MOL0     H 3206   0.596   7.346   9.315  0.8677 -1.2748 -1.8367
  782MOL0     H 3207   0.804   7.401   9.447  0.4682  2.9184  2.8228
  782MOL0     H 3208   1.243   7.560   9.479  1.6564 -0.2565  0.5786
  782MOL0     H 3209   1.410   7.585   9.622  2.2857  2.6870  2.1809
  782MOL0     H 3210   2.836   8.427  10.610 -0.0239 -0.3656 -2.1963
  782MOL0     H 3211   3.067   8.411  10.679 -1.6319 -0.6743 -0.5700
  782MOL0     H 3212   3.464   8.862  10.955 -0.0599 -0.2208  0.4463
  782MOL0     H 3213   3.705   8.887  10.943 -1.4079  1.4959 -0.9085
  782MOL0     H 3214   3.919   8.658  10.621  0.3159  1.2418 -1.6467
  782MOL0     H 3215   4.027   8.649  10.761  1.2037  1.4262  0.1374
  782MOL0     H 3216   4.099   8.783  10.547  1.6865  0.8604  1.0357
  782MOL0     H 3217   4.018   8.921  10.640  2.4471  2.0711 -0.6588
  782MOL0     H 3218   4.231   8.741  10.756 -1.1969 -0.2975 -0.7761
  782MOL0     H 3219   4.151   8.882  10.829  0.3644  1.1965 -0.5739
  782MOL0     H 3220   4.223   9.031  10.651 -0.9426 -1.2777 -1.6822
  782MOL0     H 3221   4.355   8.981  10.748 -0.1437 -0.1866  0.2691
  782MOL0     H 3222   4.417   8.865  10.336 -1.0942 -1.2953 -0.3205
  782MOL0     H 3223   3.719   8.608  10.610  3.1558  0.2159  2.0606
  782MOL0     H 3224   3.477   8.578  10.633 -0.8327  1.0399 -0.4042
  783MOL0     O 3225   2.460   7.610   3.380  0.6811  0.3112  0.1387
  783MOL0     C 3226   2.535   7.702   3.372 -0.1092  0.5139 -0.2315
  783MOL0     O 3227   2.506   7.834   3.374  0.2339 -0.1683 -0.0746
  783MOL0     C 3228   2.384   7.893   3.343 -0.4338  0.2011 -0.6527
  783MOL0     C 3229   2.256   7.842   3.368 -0.4284  0.6278  0.4547
  783MOL0     C 3230   2.141   7.915   3.333 -0.1573  0.5749 -0.0999
  783MOL0     C 3231   2.153   8.044   3.283 -0.2919 -0.5157 -0.5806
  783MOL0     O 3232   2.045   8.116   3.248 -0.5456  0.7955 -0.3654
  783MOL0     C 3233   1.916   8.065   3.282  0.0201  0.1820  0.0364
  783MOL0     C 3234   1.802   8.168   3.251  0.0699 -0.2686 -0.0669
  783MOL0     C 3235   1.667   8.131   3.312 -0.2528  0.6579  0.7777
  783MOL0     C 3236   1.561   8.226   3.273 -0.5629  0.1212  0.4325
  783MOL0     C 3237   1.425   8.203   3.334  0.0698  0.4907  0.0073
  783MOL0     C 3238   1.379   8.058   3.300  0.3598  0.3479 -0.6324
  783MOL0     C 3239   1.363   7.986   3.433 -0.1341  0.1969  0.1881
  783MOL0     C 3240   1.323   7.846   3.402 -0.2280  0.2294  0.5884
  783MOL0     N 3241   1.286   7.783   3.527  0.4707  0.0868  0.3744
  783MOL0     C 3242   1.356   7.781   3.648  0.1677  0.0629 -0.4040
  783MOL0     C 3243   1.306   7.672   3.721  0.1826  0.2770 -0.1080
  783MOL0     C 3244   1.333   7.627   3.866 -0.0004  0.1596  0.1193
  783MOL0     C 3245   1.472   7.667   3.901 -0.2025 -0.2687 -0.0602
  783MOL0     C 3246   1.535   7.632   4.039 -0.4963 -0.1612 -0.4665
  783MOL0     C 3247   1.678   7.671   4.055  0.7058 -0.7387  0.7162
  783MOL0     O 3248   1.715   7.614   4.180  0.1324  0.4070  0.4427
  783MOL0     C 3249   1.851   7.617   4.205  0.9290  0.7360 -0.3807
  783MOL0     C 3250   1.940   7.716   4.170 -0.0586 -0.2444 -0.2337
  783MOL0     C 3251   2.079   7.708   4.195 -0.4479  0.4197  0.4654
  783MOL0     C 3252   2.132   7.597   4.264 -0.3570  0.3608  0.0376
  783MOL0     C 3253   2.271   7.598   4.307 -1.3110 -0.0749 -0.0491
  783MOL0     O 3254   2.309   7.513   4.407  0.3524  0.1717 -0.3328
  783MOL0     C 3255   2.430   7.496   4.456 -0.0692 -0.2171 -0.6218
  783MOL0     C 3256   2.546   7.572   4.441 -0.4629  0.3021  0.2909
  783MOL0     C 3257   2.660   7.532   4.506 -0.2752 -0.3193 -0.1782
  783MOL0     C 3258   2.665   7.423   4.590  0.5901 -0.8061 -0.7569
  783MOL0     O 3259   2.781   7.374   4.643 -0.1740 -0.6400 -0.0873
  783MOL0     C 3260   2.861   7.478   4.702 -1.2715  0.0977 -0.3723
  783MOL0     C 3261   2.969   7.405   4.788 -1.0553 -0.0525  0.3784
  783MOL0     C 3262   2.898   7.329   4.901  0.3034  0.1141  0.3920
  783MOL0     C 3263   3.006   7.260   4.988  0.1000 -0.1704  0.4106
  783MOL0     C 3264   2.928   7.206   5.111 -0.2961  0.1355 -0.1604
  783MOL0     C 3265   3.012   7.118   5.206  0.2429  0.3692 -0.1451
  783MOL0     C 3266   2.954   7.106   5.341  0.6778 -0.1007  0.1831
  783MOL0     C 3267   3.010   6.979   5.418  0.1907  0.3613 -0.8020
  783MOL0    Cl 3268   3.159   7.034   5.479 -0.2466 -0.1226  0.1652
  783MOL0     C 3269   2.552   7.347   4.616 -0.7249 -0.2676  0.7139
  783MOL0     C 3270   2.433   7.383   4.544  0.1732 -0.1045  0.0725
  783MOL0     O 3271   2.347   7.682   4.249  0.5255  0.2327  0.8114
  783MOL0     C 3272   2.038   7.497   4.307  0.6213  0.4787 -0.3910
  783MOL0     C 3273   1.905   7.499   4.264  0.0223 -0.6672 -0.3672
  783MOL0     N 3274   1.191   7.628   3.652  0.1872 -0.3072  0.6160
  783MOL0     N 3275   1.187   7.690   3.535  0.1478  1.5027  0.2443
  783MOL0     C 3276   2.281   8.100   3.267 -0.4624  0.0140  0.0143
  783MOL0     C 3277   2.401   8.021   3.299 -0.6896  0.3867  1.0909
  783MOL0     C 3278   2.683   7.666   3.378  0.0715 -0.8821  0.3280
  783MOL0     C 3279   2.729   7.543   3.417  0.2525  1.7579  1.0930
  783MOL0     C 3280   2.869   7.512   3.407 -0.3072  0.2437 -0.4681
  783MOL0     C 3281   2.971   7.611   3.382 -0.2856  0.0270  0.3281
  783MOL0     O 3282   3.102   7.592   3.366  0.2655  0.8290 -0.2543
  783MOL0     C 3283   3.157   7.458   3.351 -0.2469 -0.5655 -0.0911
  783MOL0     C 3284   3.303   7.469   3.350 -0.0326 -0.1467  0.3449
  783MOL0     C 3285   3.364   7.512   3.482 -0.3195  0.1013  0.0109
  783MOL0     C 3286   3.513   7.476   3.484  0.1205 -0.6131  0.5238
  783MOL0     C 3287   3.606   7.514   3.375  0.0975  0.8676  0.1512
  783MOL0     C 3288   3.674   7.562   3.284 -0.1936  0.9869 -0.2802
  783MOL0     C 3289   2.924   7.737   3.351 -1.0742  0.4106  0.0396
  783MOL0     C 3290   2.782   7.760   3.353  0.1606  0.1355  0.1314
  783MOL0     H 3291   2.255   7.751   3.428  2.0309  1.4685  1.9020
  783MOL0     H 3292   2.045   7.868   3.352 -0.1036  0.5898  0.2107
  783MOL0     H 3293   1.902   8.035   3.387 -1.3156  1.0854  0.1386
  783MOL0     H 3294   1.908   7.985   3.208 -0.2030 -0.8635  1.1601
  783MOL0     H 3295   1.793   8.191   3.145  0.7604  2.4497  0.4027
  783MOL0     H 3296   1.822   8.269   3.287  0.2718 -0.0967 -0.6498
  783MOL0     H 3297   1.685   8.129   3.420  2.1863  0.2984  0.4336
  783MOL0     H 3298   1.650   8.026   3.288  2.6839  0.6636 -2.1035
  783MOL0     H 3299   1.607   8.313   3.320 -0.2197 -0.1648  0.6245
  783MOL0     H 3300   1.553   8.242   3.166  0.2983  0.9015  0.4775
  783MOL0     H 3301   1.357   8.273   3.286 -0.0687  0.1435 -0.3121
  783MOL0     H 3302   1.424   8.222   3.442  0.8439 -2.2061  0.5760
  783MOL0     H 3303   1.456   8.003   3.245  0.2667  0.8282 -1.2446
  783MOL0     H 3304   1.290   8.058   3.236  1.3125  1.8241 -2.0267
  783MOL0     H 3305   1.456   7.990   3.490  0.3845 -1.4093 -0.4908
  783MOL0     H 3306   1.287   8.033   3.496  0.7196  2.4977 -0.3938
  783MOL0     H 3307   1.408   7.792   3.360  0.1223  2.9219 -2.5343
  783MOL0     H 3308   1.243   7.832   3.328 -0.4105  0.4013  0.7526
  783MOL0     H 3309   1.449   7.826   3.680 -1.2602  0.3918  3.8332
  783MOL0     H 3310   1.321   7.518   3.864 -2.7082  0.3884  0.3755
  783MOL0     H 3311   1.262   7.665   3.940  1.2775  0.5528  1.1608
  783MOL0     H 3312   1.490   7.774   3.888 -2.0648  0.0885  0.0361
  783MOL0     H 3313   1.524   7.608   3.825  0.2895 -1.3435  1.0785
  783MOL0     H 3314   1.480   7.681   4.120  0.8113  2.1412 -0.8680
  783MOL0     H 3315   1.526   7.523   4.042  0.7807 -0.2550  1.9621
  783MOL0     H 3316   1.688   7.780   4.055  1.3756 -0.7715 -0.7140
  783MOL0     H 3317   1.726   7.625   3.968 -2.5612 -2.7439 -0.2053
  783MOL0     H 3318   1.917   7.809   4.120 -0.9532 -0.6668 -0.6243
  783MOL0     H 3319   2.141   7.796   4.184 -0.5789  0.6269  1.2629
  783MOL0     H 3320   2.556   7.658   4.375  2.3034 -1.7274 -2.2200
  783MOL0     H 3321   2.752   7.583   4.480 -0.4771  1.3717  2.0879
  783MOL0     H 3322   2.794   7.541   4.761 -1.2311  0.6022 -0.8562
  783MOL0     H 3323   2.911   7.539   4.626 -2.3197  0.3713 -0.8643
  783MOL0     H 3324   3.045   7.478   4.816 -1.4534  1.2953 -1.8133
  783MOL0     H 3325   3.023   7.327   4.735 -0.6645  1.1512 -1.0655
  783MOL0     H 3326   2.822   7.265   4.855 -0.8655  3.4915 -3.0016
  783MOL0     H 3327   2.836   7.396   4.961 -1.8613 -0.6147 -0.9033
  783MOL0     H 3328   3.054   7.176   4.937  2.2820  0.7787  0.8080
  783MOL0     H 3329   3.086   7.329   5.015  0.4265 -0.0787 -0.7320
  783MOL0     H 3330   2.838   7.148   5.091  0.1100 -0.3722 -0.5413
  783MOL0     H 3331   2.897   7.297   5.164 -1.1904  0.6863 -1.5882
  783MOL0     H 3332   3.117   7.151   5.204  0.7414 -1.1317 -1.0081
  783MOL0     H 3333   3.017   7.015   5.168 -0.5316  0.2912 -0.0378
  783MOL0     H 3334   2.985   7.195   5.397  1.5915 -0.2529 -0.0562
  783MOL0     H 3335   2.846   7.104   5.328  0.4378  0.0834  1.9329
  783MOL0     H 3336   3.025   6.893   5.352 -0.7637 -1.4280  1.1926
  783MOL0     H 3337   2.943   6.952   5.500  2.1769  1.1169  1.1501
  783MOL0     H 3338   2.560   7.261   4.682  3.2061  1.5129  2.8881
  783MOL0     H 3339   2.364   7.300   4.559  0.2479 -0.1277  0.2890
  783MOL0     H 3340   2.063   7.416   4.375  3.4711  1.0832 -0.6138
  783MOL0     H 3341   1.835   7.425   4.301 -0.1909  0.0456  0.7044
  783MOL0     H 3342   2.288   8.205   3.241 -1.2427  0.8803  2.9543
  783MOL0     H 3343   2.503   8.053   3.283 -0.9046 -0.5035 -3.2284
  783MOL0     H 3344   2.658   7.462   3.431 -0.3645  1.3627 -3.0114
  783MOL0     H 3345   2.913   7.414   3.423 -0.2095  0.5341  1.1790
  783MOL0     H 3346   3.126   7.408   3.259  1.1683 -0.6010 -0.5784
  783MOL0     H 3347   3.122   7.391   3.430 -0.7105 -2.2074 -1.6332
  783MOL0     H 3348   3.344   7.372   3.323  2.1283  0.0461  2.5743
  783MOL0     H 3349   3.333   7.535   3.268  1.1472  1.6066  2.0811
  783MOL0     H 3350   3.317   7.468   3.570 -2.1207 -0.8704 -1.3541
  783MOL0     H 3351   3.347   7.620   3.484 -0.6073  0.0977  3.2068
  783MOL0     H 3352   3.555   7.510   3.579 -0.4809 -0.2710  0.6696
  783MOL0     H 3353   3.525   7.368   3.490 -0.6641 -0.8234 -1.1047
  783MOL0     H 3354   3.706   7.593   3.187 -1.1854 -2.9603 -2.0478
  783MOL0     H 3355   2.987   7.825   3.359  0.9583 -0.8521 -1.2953
  783MOL0     H 3356   2.752   7.864   3.343  3.2018  1.2369  1.5606
  784MOL0     O 3357   8.187   6.022   4.993  0.0806  0.5282 -0.4472
  784MOL0     C 3358   8.122   5.915   4.984  0.0915  0.4028 -0.4602
  784MOL0     O 3359   7.996   5.891   5.016 -0.1908 -0.3546  0.0358
  784MOL0     C 3360   7.947   5.967   5.128  0.0944  0.2286  0.2257
  784MOL0     C 3361   8.019   6.019   5.234  0.9287 -0.0352  0.3300
  784MOL0     C 3362   7.962   6.077   5.345 -0.1477  0.8670  1.1964
  784MOL0     C 3363   7.818   6.095   5.348 -0.0041  0.3721 -0.2834
  784MOL0     O 3364   7.751   6.141   5.461  0.7377 -0.0366  0.0421
  784MOL0     C 3365   7.809   6.144   5.588  0.0924 -1.0038  0.3616
  784MOL0     C 3366   7.698   6.122   5.693 -0.0509  0.4334  0.4888
  784MOL0     C 3367   7.597   6.231   5.694  0.0893 -0.3550  0.6323
  784MOL0     C 3368   7.488   6.196   5.799  0.3231 -0.3654  0.3076
  784MOL0     C 3369   7.381   6.292   5.758 -0.1473  0.5442 -0.0247
  784MOL0     C 3370   7.244   6.292   5.825 -0.5083 -0.2961  0.7493
  784MOL0     C 3371   7.139   6.373   5.748 -0.2874  0.3929 -0.4842
  784MOL0     C 3372   6.998   6.376   5.819 -0.3026  0.2009 -0.4602
  784MOL0     N 3373   6.999   6.407   5.967  0.0835  0.3555  0.5031
  784MOL0     C 3374   6.980   6.322   6.070  0.2993 -0.2821  0.0151
  784MOL0     C 3375   6.997   6.390   6.181  0.3057  0.2106  0.4261
  784MOL0     C 3376   6.987   6.340   6.328  0.6944 -0.2594 -0.8742
  784MOL0     C 3377   6.906   6.435   6.421  0.1527 -0.3016 -0.8836
  784MOL0     C 3378   6.754   6.432   6.389 -0.6550  0.4946  0.0528
  784MOL0     C 3379   6.685   6.524   6.488 -0.1299 -0.3860  0.8200
  784MOL0     O 3380   6.563   6.562   6.423  0.0220 -0.4119 -0.2099
  784MOL0     C 3381   6.489   6.659   6.484  0.5275  0.1642  1.5637
  784MOL0     C 3382   6.517   6.722   6.612 -0.8841  0.2052  0.4276
  784MOL0     C 3383   6.428   6.803   6.673  0.4140  0.4610  0.0135
  784MOL0     C 3384   6.308   6.840   6.603 -0.4969  0.0038  0.6218
  784MOL0     C 3385   6.218   6.946   6.640 -0.9158 -0.4019 -0.1193
  784MOL0     O 3386   6.092   6.941   6.607 -0.1063 -0.1827 -0.0261
  784MOL0     C 3387   5.999   7.029   6.656  0.5749 -0.8471  0.0445
  784MOL0     C 3388   5.893   6.991   6.734 -0.5296  0.1534 -0.0451
  784MOL0     C 3389   5.813   7.089   6.793  0.0905 -0.2144 -0.4805
  784MOL0     C 3390   5.819   7.225   6.764  0.2981  0.5647 -0.8822
  784MOL0     O 3391   5.745   7.327   6.811  0.3626  0.0968  0.5331
  784MOL0     C 3392   5.605   7.301   6.800  0.4708 -0.6431 -0.2355
  784MOL0     C 3393   5.545   7.297   6.941  0.0292  0.3592 -0.4293
  784MOL0     C 3394   5.452   7.173   6.963 -0.2212  0.3177  0.0406
  784MOL0     C 3395   5.403   7.170   7.110 -0.7779 -0.7303 -1.2231
  784MOL0     C 3396   5.257   7.133   7.121  0.1999 -0.0559 -0.4759
  784MOL0     C 3397   5.158   7.239   7.068  0.0717  0.4928  0.6793
  784MOL0     C 3398   5.013   7.227   7.133 -0.8453  0.1593  0.0834
  784MOL0     C 3399   4.924   7.306   7.034 -0.2017 -0.0648 -0.2630
  784MOL0    Cl 3400   4.777   7.353   7.120 -0.0060  0.0998  0.1222
  784MOL0     C 3401   5.926   7.256   6.675  0.0862 -0.2515 -0.2807
  784MOL0     C 3402   6.022   7.161   6.636 -0.4400 -0.4280  0.1903
  784MOL0     O 3403   6.268   7.033   6.706 -0.4054 -0.5144 -1.1167
  784MOL0     C 3404   6.276   6.778   6.480 -0.7377 -0.0440 -0.3684
  784MOL0     C 3405   6.359   6.683   6.426  0.2260  0.5819  0.2535
  784MOL0     N 3406   7.029   6.514   6.139 -0.0309 -0.2894  0.5644
  784MOL0     N 3407   7.031   6.531   6.014  0.3479 -0.3828  0.3542
  784MOL0     C 3408   7.745   6.044   5.241 -1.1819  1.2690 -0.6615
  784MOL0     C 3409   7.809   5.979   5.135 -0.1159  0.1512 -0.1822
  784MOL0     C 3410   8.188   5.802   4.931  0.1819  0.3224 -0.0742
  784MOL0     C 3411   8.132   5.671   4.943 -0.5250 -0.5025  0.2082
  784MOL0     C 3412   8.197   5.558   4.898 -0.2409  0.0845  0.2071
  784MOL0     C 3413   8.324   5.570   4.834  0.8129 -0.8628  0.6459
  784MOL0     O 3414   8.382   5.452   4.798  0.0340  0.5268  0.0654
  784MOL0     C 3415   8.503   5.437   4.734 -0.2052 -0.0592  0.3711
  784MOL0     C 3416   8.610   5.452   4.848  0.5512 -0.0214  0.8358
  784MOL0     C 3417   8.756   5.426   4.792  0.0569  0.5649  0.2304
  784MOL0     C 3418   8.775   5.288   4.715  1.0262 -0.0485 -0.0989
  784MOL0     C 3419   8.904   5.242   4.721 -0.3133  0.1901  0.6207
  784MOL0     C 3420   9.021   5.208   4.727 -0.1453 -0.1233  0.0206
  784MOL0     C 3421   8.372   5.703   4.812 -0.6438  0.5681  0.0116
  784MOL0     C 3422   8.303   5.814   4.849  1.3376 -1.1906  0.5593
  784MOL0     H 3423   8.127   6.005   5.233  1.1436  1.4090  0.6643
  784MOL0     H 3424   8.026   6.115   5.424  1.0569  1.9291 -0.2272
  784MOL0     H 3425   7.843   6.247   5.602 -3.5843  0.2043  1.6024
  784MOL0     H 3426   7.888   6.070   5.602 -0.4078 -1.5614  0.2888
  784MOL0     H 3427   7.745   6.121   5.792 -0.8070 -1.3508  0.8714
  784MOL0     H 3428   7.653   6.022   5.691  0.1270  0.3312  1.2605
  784MOL0     H 3429   7.557   6.255   5.595 -0.4576  0.5663  1.0566
  784MOL0     H 3430   7.639   6.324   5.734  2.9045 -1.8371  1.4126
  784MOL0     H 3431   7.461   6.093   5.773  0.2583 -0.1311 -0.6192
  784MOL0     H 3432   7.522   6.218   5.900  2.1103 -1.5618  0.0291
  784MOL0     H 3433   7.353   6.266   5.656  0.8432 -3.9173  0.6172
  784MOL0     H 3434   7.424   6.393   5.756 -0.5456  0.7998  2.0340
  784MOL0     H 3435   7.245   6.305   5.934 -2.1188  0.6250  0.6831
  784MOL0     H 3436   7.212   6.190   5.801 -0.8121 -0.0761  0.2039
  784MOL0     H 3437   7.174   6.477   5.755  0.4632  0.1273 -0.1519
  784MOL0     H 3438   7.143   6.350   5.642 -2.2488  2.8718 -1.1932
  784MOL0     H 3439   6.951   6.279   5.802  1.6847 -0.8697 -0.1312
  784MOL0     H 3440   6.934   6.452   5.773 -0.2229  0.6681  0.1912
  784MOL0     H 3441   6.961   6.215   6.062 -0.6309 -0.1193 -0.0612
  784MOL0     H 3442   7.084   6.326   6.379 -0.6751 -3.2128  1.2314
  784MOL0     H 3443   6.954   6.237   6.343 -1.6282  0.4383 -0.8297
  784MOL0     H 3444   6.939   6.539   6.413  0.0174 -0.3462 -2.0923
  784MOL0     H 3445   6.914   6.398   6.524 -3.0661 -0.7085 -0.6739
  784MOL0     H 3446   6.748   6.452   6.281  4.6638  0.1141 -0.6109
  784MOL0     H 3447   6.720   6.333   6.421 -2.5709  0.6533 -1.3606
  784MOL0     H 3448   6.748   6.608   6.516 -0.1974  0.0647 -0.3130
  784MOL0     H 3449   6.655   6.478   6.583 -2.3210  1.5923  1.1991
  784MOL0     H 3450   6.610   6.698   6.661 -0.8060  0.7629  0.5573
  784MOL0     H 3451   6.443   6.856   6.767 -2.7859 -1.4210  1.7347
  784MOL0     H 3452   5.879   6.885   6.750  0.4385 -0.0684 -0.5808
  784MOL0     H 3453   5.738   7.049   6.861  0.9623 -0.0862  0.5771
  784MOL0     H 3454   5.582   7.211   6.742 -1.0860 -0.3975 -0.0538
  784MOL0     H 3455   5.552   7.385   6.752  1.3641  3.3902  4.9257
  784MOL0     H 3456   5.487   7.388   6.960 -2.7312 -1.9766  4.0911
  784MOL0     H 3457   5.624   7.304   7.016 -0.9375  1.1512  0.5429
  784MOL0     H 3458   5.503   7.081   6.934  1.3536  1.3001 -0.4964
  784MOL0     H 3459   5.370   7.178   6.890 -0.3833  2.0566  0.2936
  784MOL0     H 3460   5.474   7.105   7.162 -0.5075 -0.7547 -1.6135
  784MOL0     H 3461   5.417   7.270   7.153  0.2191 -1.8024  1.1398
  784MOL0     H 3462   5.239   7.120   7.229 -0.4381 -1.6124 -0.7449
  784MOL0     H 3463   5.227   7.042   7.069 -0.7458  0.4006 -0.7494
  784MOL0     H 3464   5.161   7.220   6.960  2.3346 -0.6294  0.8796
  784MOL0     H 3465   5.205   7.338   7.074  0.8535  0.2959 -1.1900
  784MOL0     H 3466   4.971   7.127   7.142 -1.2942  0.4852  2.0626
  784MOL0     H 3467   5.020   7.263   7.236  1.7149 -2.6006  1.0329
  784MOL0     H 3468   4.898   7.235   6.955  2.1473 -1.7650  0.3477
  784MOL0     H 3469   4.967   7.395   6.987  0.4857 -0.1075  0.2739
  784MOL0     H 3470   5.930   7.359   6.642 -1.4352 -0.6252 -1.7254
  784MOL0     H 3471   6.112   7.186   6.580 -0.0063 -3.2330 -0.5064
  784MOL0     H 3472   6.187   6.802   6.423 -0.7882 -1.4147 -0.8950
  784MOL0     H 3473   6.322   6.629   6.339  1.0111  0.2508  0.1176
  784MOL0     H 3474   7.637   6.048   5.247 -1.2053  0.0389  0.1033
  784MOL0     H 3475   7.752   5.937   5.053 -0.3188  0.6303 -0.2875
  784MOL0     H 3476   8.044   5.655   5.004  1.2788 -0.8684  2.9033
  784MOL0     H 3477   8.155   5.460   4.918  3.4844 -2.2417 -2.1599
  784MOL0     H 3478   8.521   5.516   4.660 -0.0189 -2.0505 -1.8041
  784MOL0     H 3479   8.515   5.340   4.685 -0.1373 -0.5124  1.2786
  784MOL0     H 3480   8.624   5.545   4.905  0.6191 -0.1345  1.0023
  784MOL0     H 3481   8.576   5.379   4.922  0.4550 -0.2023  0.6157
  784MOL0     H 3482   8.808   5.422   4.888  0.6026 -0.7344 -0.0983
  784MOL0     H 3483   8.783   5.505   4.722 -1.9178 -1.5448 -3.1894
  784MOL0     H 3484   8.703   5.213   4.750 -1.7113  1.1035 -2.8101
  784MOL0     H 3485   8.742   5.292   4.611  1.4967  0.6413 -0.2263
  784MOL0     H 3486   9.127   5.193   4.714 -0.2655 -1.0620  0.0516
  784MOL0     H 3487   8.472   5.730   4.780 -1.0233  2.5042  0.3702
  784MOL0     H 3488   8.342   5.913   4.828 -0.4862 -0.3263  1.0395
  785MOL0     O 3489   2.023   6.092  10.955 -0.9694  0.8911 -0.1923
  785MOL0     C 3490   2.059   6.074  11.069 -0.1020  0.7967 -0.6001
  785MOL0     O 3491   1.974   6.056  11.178 -0.4151  0.0065  0.3709
  785MOL0     C 3492   1.835   6.075  11.178  0.5710 -0.8656  0.0168
  785MOL0     C 3493   1.769   6.146  11.075 -0.2885  0.2381 -0.4859
  785MOL0     C 3494   1.629   6.150  11.069  0.2379 -0.5426  0.2960
  785MOL0     C 3495   1.554   6.079  11.157  0.1795  0.0388  0.6325
  785MOL0     O 3496   1.416   6.075  11.128 -0.3239  0.0430 -0.1808
  785MOL0     C 3497   1.336   5.985  11.207 -0.6422 -0.5426 -0.4939
  785MOL0     C 3498   1.201   6.003  11.146  0.1047  0.4627  0.5747
  785MOL0     C 3499   1.141   6.150  11.138  0.8813  0.3859  0.7090
  785MOL0     C 3500   0.985   6.150  11.118 -0.1627 -0.3420 -0.9288
  785MOL0     C 3501   0.945   6.130  10.975 -0.5087 -0.1986 -0.0274
  785MOL0     C 3502   0.803   6.087  10.975 -0.2503 -0.3981 -0.4758
  785MOL0     C 3503   0.745   6.078  10.832 -0.0652  0.7918 -0.2621
  785MOL0     C 3504   0.603   5.999  10.852  0.1182  0.1044 -0.1078
  785MOL0     N 3505   0.522   5.997  10.726  0.7932 -0.3069  0.5462
  785MOL0     C 3506   0.390   6.016  10.735 -0.3821 -0.0553  0.4564
  785MOL0     C 3507   0.337   5.968  10.620 -0.3252 -0.0513  0.3953
  785MOL0     C 3508   0.192   5.970  10.585 -0.1470 -0.3687  0.2896
  785MOL0     C 3509   0.132   5.830  10.589  0.9017  0.5753  0.1533
  785MOL0     C 3510   0.136   5.766  10.725  0.2711 -0.4613 -0.6895
  785MOL0     C 3511   0.056   5.631  10.733 -0.8890  0.2830 -0.0857
  785MOL0     O 3512  -0.073   5.627  10.680 -0.2414 -0.1632 -0.2679
  785MOL0     C 3513  -0.176   5.673  10.762  1.0675  0.1543 -0.0027
  785MOL0     C 3514  -0.301   5.685  10.697 -0.4076  0.2509 -0.9477
  785MOL0     C 3515  -0.422   5.710  10.766 -0.2263  0.6608  0.1051
  785MOL0     C 3516  -0.419   5.735  10.907  0.6127  0.0244  0.3263
  785MOL0     C 3517  -0.538   5.762  10.985 -0.0061  0.4181 -0.3650
  785MOL0     O 3518  -0.655   5.750  10.917  0.7507 -0.4154 -0.4003
  785MOL0     C 3519  -0.776   5.799  10.979 -0.5719 -0.3286  0.1726
  785MOL0     C 3520  -0.808   5.802  11.116  0.3070  0.3257  0.5850
  785MOL0     C 3521  -0.931   5.859  11.158 -0.4105  0.7426 -0.6447
  785MOL0     C 3522  -1.017   5.917  11.069  0.0200  0.0177 -0.1885
  785MOL0     O 3523  -1.136   5.973  11.105 -0.1072 -0.0449 -0.7119
  785MOL0     C 3524  -1.130   6.079  11.204 -0.1826  0.3374  0.5325
  785MOL0     C 3525  -1.242   6.060  11.306  0.2970 -0.6135 -0.3152
  785MOL0     C 3526  -1.382   6.079  11.247  0.4437 -0.7463 -0.0217
  785MOL0     C 3527  -1.484   6.053  11.358  0.0046 -0.1182 -0.6281
  785MOL0     C 3528  -1.622   6.042  11.298 -0.4432 -0.0927  0.2008
  785MOL0     C 3529  -1.726   6.031  11.414 -0.6199  0.6967  0.7261
  785MOL0     C 3530  -1.864   6.053  11.349 -0.3975 -0.0148 -0.5648
  785MOL0     C 3531  -1.968   6.023  11.454 -0.4780 -0.6546 -0.0732
  785MOL0    Cl 3532  -1.983   5.850  11.504 -0.0025 -0.0615  0.1056
  785MOL0     C 3533  -0.992   5.905  10.939 -0.4104 -0.1392 -0.5103
  785MOL0     C 3534  -0.868   5.854  10.887 -0.0908  0.8241  0.1334
  785MOL0     O 3535  -0.522   5.792  11.106  0.8975 -0.8736  0.5473
  785MOL0     C 3536  -0.290   5.727  10.968  0.4297  0.3274 -0.2436
  785MOL0     C 3537  -0.176   5.701  10.894  0.3951  0.2215 -0.0059
  785MOL0     N 3538   0.450   5.931  10.542 -0.3030 -0.2785  0.8352
  785MOL0     N 3539   0.560   5.955  10.605  0.6460 -0.3990 -0.4821
  785MOL0     C 3540   1.615   6.002  11.256 -0.5259  0.4054 -0.0771
  785MOL0     C 3541   1.756   6.001  11.267  0.3037  0.4850 -0.2243
  785MOL0     C 3542   2.202   6.089  11.102  1.5103 -0.1036  0.6000
  785MOL0     C 3543   2.246   6.095  11.233  0.7335  0.6432 -0.3105
  785MOL0     C 3544   2.384   6.107  11.259 -0.1861 -0.0071 -0.5154
  785MOL0     C 3545   2.472   6.120  11.157  0.6538 -0.4352  1.0733
  785MOL0     O 3546   2.595   6.154  11.192 -0.7384 -0.4838 -0.0739
  785MOL0     C 3547   2.694   6.182  11.088  0.6484 -0.7870  0.6187
  785MOL0     C 3548   2.831   6.222  11.151 -0.7080  0.5101 -0.4756
  785MOL0     C 3549   2.890   6.114  11.249  1.0620 -0.7143  0.0158
  785MOL0     C 3550   2.939   6.165  11.386  0.2847 -0.2039 -0.5802
  785MOL0     C 3551   3.038   6.270  11.367  0.4673 -0.2343  0.1651
  785MOL0     C 3552   3.129   6.350  11.345 -0.3329 -0.5188 -0.7203
  785MOL0     C 3553   2.426   6.111  11.024 -0.1676  0.6486  0.0821
  785MOL0     C 3554   2.289   6.090  10.997  0.5539 -0.5323  0.4835
  785MOL0     H 3555   1.819   6.197  10.993 -0.2812  0.7701 -0.1552
  785MOL0     H 3556   1.576   6.205  10.993 -0.0307  0.6729  1.3184
  785MOL0     H 3557   1.336   6.018  11.311  0.2685  1.7848 -1.1736
  785MOL0     H 3558   1.369   5.880  11.212  1.1677  0.0377  1.2062
  785MOL0     H 3559   1.137   5.939  11.207  0.4378  0.7079  1.1940
  785MOL0     H 3560   1.209   5.951  11.051  1.0956 -1.0233  1.4342
  785MOL0     H 3561   1.194   6.205  11.059 -0.4492 -0.0895 -0.5768
  785MOL0     H 3562   1.159   6.206  11.229  1.3740  1.3726  0.0228
  785MOL0     H 3563   0.932   6.083  11.187  0.9707  1.3582  1.7775
  785MOL0     H 3564   0.968   6.254  11.147  3.2157  0.6863 -2.1662
  785MOL0     H 3565   0.996   6.045  10.929 -1.7832 -1.9750  1.6728
  785MOL0     H 3566   0.947   6.219  10.911 -2.1329  0.0129  0.1600
  785MOL0     H 3567   0.738   6.154  11.033  0.9984 -2.6783  4.0218
  785MOL0     H 3568   0.794   5.984  11.010 -2.8115 -0.6711 -1.6644
  785MOL0     H 3569   0.730   6.177  10.787  0.7541  0.4322 -1.3626
  785MOL0     H 3570   0.806   6.018  10.764 -0.3058 -0.4404  0.5795
  785MOL0     H 3571   0.539   6.056  10.921 -0.5696  2.0153 -2.2159
  785MOL0     H 3572   0.627   5.901  10.893  2.8500  1.3325  1.5277
  785MOL0     H 3573   0.334   6.038  10.824 -0.9088  0.4359  0.0062
  785MOL0     H 3574   0.187   5.998  10.480 -0.3918 -0.4396  0.2798
  785MOL0     H 3575   0.141   6.048  10.643  2.1702  0.4726  1.3010
  785MOL0     H 3576   0.183   5.772  10.512  0.5288  2.2586 -1.4388
  785MOL0     H 3577   0.029   5.829  10.551  1.4330 -1.0596 -1.3696
  785MOL0     H 3578   0.232   5.759  10.776 -0.8309 -0.6687  1.4875
  785MOL0     H 3579   0.078   5.841  10.781 -1.5195 -0.2589 -2.6712
  785MOL0     H 3580   0.062   5.595  10.836 -0.8781 -0.9766 -0.5186
  785MOL0     H 3581   0.104   5.552  10.675 -2.6092 -0.5883 -0.3715
  785MOL0     H 3582  -0.301   5.674  10.589 -0.1577 -1.4367 -0.8119
  785MOL0     H 3583  -0.511   5.704  10.703  0.5571 -0.8201 -0.9039
  785MOL0     H 3584  -0.741   5.760  11.190 -0.4255  0.6239  1.4382
  785MOL0     H 3585  -0.957   5.862  11.263 -2.6831 -0.5263 -1.1076
  785MOL0     H 3586  -1.138   6.168  11.141  1.2453 -1.2962 -2.1070
  785MOL0     H 3587  -1.027   6.081  11.241 -0.3493  0.3178  1.0091
  785MOL0     H 3588  -1.220   6.140  11.378 -2.3468  2.7929 -2.9218
  785MOL0     H 3589  -1.236   5.957  11.342 -1.7304 -0.2523  1.2920
  785MOL0     H 3590  -1.400   6.010  11.164 -0.6086  0.2157 -0.6189
  785MOL0     H 3591  -1.397   6.177  11.202  1.5953 -0.2419  0.6338
  785MOL0     H 3592  -1.468   5.957  11.408 -2.6893  0.5369  1.7786
  785MOL0     H 3593  -1.468   6.117  11.445  0.3363 -0.8454 -0.1511
  785MOL0     H 3594  -1.635   5.959  11.227  3.6194 -0.2810 -0.5503
  785MOL0     H 3595  -1.644   6.131  11.238 -2.5907 -2.9014 -3.6778
  785MOL0     H 3596  -1.697   6.109  11.485  1.4513  1.1976 -0.5767
  785MOL0     H 3597  -1.725   5.933  11.462 -2.3071 -0.5626 -1.5881
  785MOL0     H 3598  -1.871   6.154  11.307  0.7700  1.3544  2.3111
  785MOL0     H 3599  -1.874   5.978  11.270  0.3010  1.1168 -1.7593
  785MOL0     H 3600  -2.061   6.064  11.413  0.2594 -0.1329 -1.2541
  785MOL0     H 3601  -1.959   6.083  11.545 -1.3612  0.0751 -0.4464
  785MOL0     H 3602  -1.058   5.941  10.861  0.3316  0.1600 -1.0154
  785MOL0     H 3603  -0.852   5.861  10.780  0.5426  3.4656  0.3219
  785MOL0     H 3604  -0.285   5.747  11.074 -1.0910  2.1849 -0.4629
  785MOL0     H 3605  -0.080   5.699  10.946  0.7870  0.1205 -0.7142
  785MOL0     H 3606   1.560   5.937  11.324  1.7100 -0.7270  0.7677
  785MOL0     H 3607   1.799   5.924  11.330  2.1898  0.5415 -1.3445
  785MOL0     H 3608   2.182   6.101  11.321  1.4925  1.1375  0.2109
  785MOL0     H 3609   2.419   6.114  11.362 -3.2570 -0.1412  0.6643
  785MOL0     H 3610   2.664   6.260  11.017 -0.9977 -0.7898  1.2592
  785MOL0     H 3611   2.701   6.086  11.035  0.2977 -1.0452  1.0336
  785MOL0     H 3612   2.901   6.245  11.070  1.2353  1.0882  1.2859
  785MOL0     H 3613   2.812   6.313  11.209 -3.1660 -1.0781  1.4011
  785MOL0     H 3614   2.972   6.058  11.203  1.3399 -0.6451  0.4151
  785MOL0     H 3615   2.819   6.039  11.284  1.5458  0.2858  3.6326
  785MOL0     H 3616   2.851   6.199  11.443  0.8717 -0.0594  0.2555
  785MOL0     H 3617   2.969   6.076  11.441 -2.7788 -1.4664 -0.7167
  785MOL0     H 3618   3.208   6.413  11.311 -1.1285  0.2611 -1.1490
  785MOL0     H 3619   2.507   6.097  10.953  0.2051 -2.2330  0.9659
  785MOL0     H 3620   2.257   6.068  10.896 -0.5711  0.3746  0.6219
  786MOL0     O 3621   8.512   6.644  10.405 -0.2108  0.0287  0.3805
  786MOL0     C 3622   8.524   6.604  10.287  0.3026  0.1335 -0.9061
  786MOL0     O 3623   8.425   6.559  10.209 -0.2127  0.7980 -0.2975
  786MOL0     C 3624   8.293   6.579  10.234  0.2152 -0.2599  0.3406
  786MOL0     C 3625   8.207   6.485  10.175 -0.5074 -0.1158  0.1742
  786MOL0     C 3626   8.067   6.484  10.194  0.1220 -0.8561 -0.5009
  786MOL0     C 3627   8.012   6.595  10.259  0.6348 -0.0677 -0.1778
  786MOL0     O 3628   7.871   6.588  10.263 -0.2502  0.1700 -0.5295
  786MOL0     C 3629   7.798   6.702  10.293  0.1204 -0.4275 -0.8851
  786MOL0     C 3630   7.657   6.648  10.335 -0.4076 -0.3179 -0.3989
  786MOL0     C 3631   7.545   6.757  10.347 -0.7405 -0.3875  0.1290
  786MOL0     C 3632   7.407   6.696  10.378 -0.1273  0.9043 -0.8360
  786MOL0     C 3633   7.301   6.800  10.400  0.1920 -0.5847 -0.2521
  786MOL0     C 3634   7.161   6.739  10.398  0.1697 -1.1128 -0.7050
  786MOL0     C 3635   7.049   6.834  10.464 -0.3668 -0.8465 -0.5448
  786MOL0     C 3636   7.008   6.966  10.398 -0.5925 -0.5268  0.5556
  786MOL0     N 3637   6.919   7.052  10.484 -0.2721 -0.7229 -0.1940
  786MOL0     C 3638   6.954   7.123  10.594  0.2786  0.6369 -0.2919
  786MOL0     C 3639   6.841   7.188  10.627  0.0792 -0.2909 -0.1235
  786MOL0     C 3640   6.821   7.286  10.742  1.3086  0.2529  0.3468
  786MOL0     C 3641   6.809   7.211  10.873  0.5499 -0.8749 -0.6734
  786MOL0     C 3642   6.817   7.305  10.990 -0.2553 -0.2962 -0.7102
  786MOL0     C 3643   6.949   7.292  11.053  0.2428  0.2308  0.4467
  786MOL0     O 3644   6.969   7.164  11.116 -0.1855 -0.2069  0.1047
  786MOL0     C 3645   7.090   7.146  11.176 -0.9741 -0.4587  0.7006
  786MOL0     C 3646   7.108   7.021  11.216 -0.1769  0.0241 -0.3504
  786MOL0     C 3647   7.230   6.979  11.271 -0.5938  0.0004 -1.1628
  786MOL0     C 3648   7.339   7.074  11.286  0.0651  0.0956 -0.3529
  786MOL0     C 3649   7.476   7.037  11.324  0.6113 -0.4654 -0.4967
  786MOL0     O 3650   7.495   6.914  11.379 -0.1964 -0.0998  0.4683
  786MOL0     C 3651   7.620   6.884  11.439  0.3455  0.0894 -0.1474
  786MOL0     C 3652   7.681   6.771  11.403 -0.4602 -0.2069 -0.9803
  786MOL0     C 3653   7.799   6.721  11.463  0.2500  0.0746 -0.1274
  786MOL0     C 3654   7.863   6.803  11.563 -0.1031 -0.3122 -0.2814
  786MOL0     O 3655   7.976   6.756  11.619  0.1418 -0.1368 -0.3247
  786MOL0     C 3656   8.061   6.852  11.686  0.4687  1.0970 -0.5587
  786MOL0     C 3657   8.187   6.792  11.751 -0.2422  0.3740  0.0727
  786MOL0     C 3658   8.153   6.691  11.858  0.8213  0.9106 -0.2309
  786MOL0     C 3659   8.140   6.762  11.992  0.9357 -0.1948 -0.4138
  786MOL0     C 3660   8.123   6.663  12.110  0.3961  0.6507  0.3730
  786MOL0     C 3661   8.235   6.566  12.140 -1.1705  0.3297  1.3398
  786MOL0     C 3662   8.201   6.479  12.263 -0.2564  0.0302  0.4939
  786MOL0     C 3663   8.307   6.372  12.295 -0.6697 -0.4308 -0.6908
  786MOL0    Cl 3664   8.300   6.318  12.470  0.5043  0.3196 -0.0842
  786MOL0     C 3665   7.803   6.924  11.602 -0.3959  0.5332 -0.4705
  786MOL0     C 3666   7.680   6.956  11.546 -0.2699 -0.4834 -0.0334
  786MOL0     O 3667   7.568   7.115  11.287 -0.1283  0.3245  0.0911
  786MOL0     C 3668   7.311   7.210  11.243 -0.1033  0.5131  0.8109
  786MOL0     C 3669   7.194   7.251  11.194  0.3754  0.1635  0.2945
  786MOL0     N 3670   6.742   7.154  10.543  0.7956  0.3903  0.0151
  786MOL0     N 3671   6.784   7.072  10.455  0.2987  0.0260  0.4769
  786MOL0     C 3672   8.090   6.698  10.311  0.3830  0.8776  0.0691
  786MOL0     C 3673   8.235   6.688  10.309  0.5910  0.1333 -0.1588
  786MOL0     C 3674   8.659   6.571  10.236 -0.3471 -0.2924 -0.7012
  786MOL0     C 3675   8.675   6.531  10.104  0.2122 -0.2687 -0.2377
  786MOL0     C 3676   8.801   6.491  10.061 -0.1212 -0.1469 -0.5659
  786MOL0     C 3677   8.911   6.482  10.144  0.2102  0.5645 -0.4964
  786MOL0     O 3678   9.032   6.426  10.108  0.1351  0.0037  0.3962
  786MOL0     C 3679   9.077   6.462   9.980 -0.5570  0.3159  0.2565
  786MOL0     C 3680   9.108   6.607   9.971 -0.7117 -0.3040 -0.2701
  786MOL0     C 3681   9.140   6.652   9.826  0.0349  0.3384 -0.6759
  786MOL0     C 3682   9.244   6.562   9.753  0.9000 -0.0146 -0.6384
  786MOL0     C 3683   9.384   6.566   9.794 -0.0885  0.3760  0.2535
  786MOL0     C 3684   9.495   6.581   9.837  0.5066  0.3885  0.0706
  786MOL0     C 3685   8.889   6.500  10.276 -0.2644  0.1175  0.4538
  786MOL0     C 3686   8.770   6.562  10.321 -0.1035 -0.6750  0.6378
  786MOL0     H 3687   8.248   6.394  10.131 -0.3991  1.0197 -2.2001
  786MOL0     H 3688   8.008   6.396  10.169 -0.7736 -1.2386  2.4988
  786MOL0     H 3689   7.803   6.763  10.202  3.7379 -0.9019 -1.1423
  786MOL0     H 3690   7.830   6.758  10.381 -1.1645 -2.8598  1.2498
  786MOL0     H 3691   7.670   6.580  10.419 -0.6426 -2.1327 -1.7824
  786MOL0     H 3692   7.620   6.586  10.252 -0.2256  2.2103 -2.5160
  786MOL0     H 3693   7.533   6.816  10.256  0.8065  2.1320  1.4196
  786MOL0     H 3694   7.569   6.828  10.428 -0.6820  1.3371 -1.3388
  786MOL0     H 3695   7.381   6.621  10.303 -0.5475  1.4463 -1.2430
  786MOL0     H 3696   7.408   6.624  10.459  3.1565 -1.2968 -2.5919
  786MOL0     H 3697   7.318   6.866  10.315  1.5396  0.3178  0.6812
  786MOL0     H 3698   7.323   6.854  10.493 -0.6987  3.8803 -2.3753
  786MOL0     H 3699   7.167   6.646  10.454 -0.2599 -0.2289  0.8722
  786MOL0     H 3700   7.121   6.713  10.300 -1.2803 -3.0675  0.3618
  786MOL0     H 3701   6.957   6.775  10.475 -0.7184 -0.1340  0.4976
  786MOL0     H 3702   7.086   6.858  10.564  1.7600 -1.0495 -1.2404
  786MOL0     H 3703   6.960   6.943  10.302 -1.9956  1.1789  0.7957
  786MOL0     H 3704   7.094   7.030  10.375 -2.7169  3.7051  3.0499
  786MOL0     H 3705   7.053   7.136  10.636 -0.2518  0.2516  1.1466
  786MOL0     H 3706   6.726   7.337  10.728  0.4764 -0.0571  3.8217
  786MOL0     H 3707   6.900   7.361  10.748 -0.6660  2.7444 -2.4365
  786MOL0     H 3708   6.890   7.137  10.880 -1.3123 -3.2800 -2.5349
  786MOL0     H 3709   6.720   7.148  10.869 -0.7770  0.9936 -1.8585
  786MOL0     H 3710   6.795   7.406  10.953 -3.7878 -1.5767 -2.6770
  786MOL0     H 3711   6.732   7.270  11.049 -0.1036  0.6171  0.0700
  786MOL0     H 3712   6.941   7.364  11.135  1.0380  2.5316 -1.3844
  786MOL0     H 3713   7.027   7.309  10.978 -0.5266 -1.1880 -0.7197
  786MOL0     H 3714   7.030   6.947  11.210 -1.1454  1.0835 -1.3483
  786MOL0     H 3715   7.250   6.874  11.290  0.9195  0.4094 -0.2317
  786MOL0     H 3716   7.626   6.714  11.328 -0.1865 -0.3483 -1.0769
  786MOL0     H 3717   7.835   6.623  11.433 -3.1214 -1.3403  0.0550
  786MOL0     H 3718   8.014   6.912  11.764 -0.9249  0.5379 -0.9374
  786MOL0     H 3719   8.068   6.939  11.620 -1.6934  1.8708  0.1593
  786MOL0     H 3720   8.242   6.880  11.785  1.1618 -1.1361  1.9179
  786MOL0     H 3721   8.251   6.747  11.675  0.4135  1.8538 -0.2986
  786MOL0     H 3722   8.241   6.626  11.867  0.3226  0.1312 -0.8334
  786MOL0     H 3723   8.067   6.631  11.828  0.9477  0.9157 -0.6157
  786MOL0     H 3724   8.227   6.825  12.012  0.7350 -0.5736  1.8627
  786MOL0     H 3725   8.048   6.821  12.003  0.5450 -0.7629 -0.6169
  786MOL0     H 3726   8.031   6.606  12.093  3.2141 -3.8323 -2.1387
  786MOL0     H 3727   8.108   6.715  12.204 -0.7885 -1.7112  1.5724
  786MOL0     H 3728   8.332   6.616  12.151 -0.6964 -0.6482  1.7158
  786MOL0     H 3729   8.248   6.500  12.055 -3.0129 -0.2404  1.4550
  786MOL0     H 3730   8.190   6.546  12.349 -2.5986 -0.2434  0.4783
  786MOL0     H 3731   8.106   6.432  12.236 -0.0148  0.1076 -0.5115
  786MOL0     H 3732   8.407   6.410  12.275 -1.0383  1.0078  0.0642
  786MOL0     H 3733   8.298   6.284  12.230  0.2559  0.0628 -1.5064
  786MOL0     H 3734   7.834   6.996  11.677 -0.2341  1.6275 -1.5578
  786MOL0     H 3735   7.640   7.049  11.585  0.5281  0.5726 -1.6300
  786MOL0     H 3736   7.394   7.280  11.255  0.6580 -0.2526  0.1201
  786MOL0     H 3737   7.171   7.357  11.180 -1.9784 -0.1298  1.4856
  786MOL0     H 3738   8.048   6.787  10.355 -0.1799  1.6928 -2.0000
  786MOL0     H 3739   8.290   6.761  10.367 -0.1340  0.5825 -0.0318
  786MOL0     H 3740   8.586   6.524  10.043  0.1343 -3.3021  0.0716
  786MOL0     H 3741   8.813   6.461   9.957  1.5366  1.7509 -0.9859
  786MOL0     H 3742   9.012   6.427   9.898 -2.0367  1.6705  0.8019
  786MOL0     H 3743   9.167   6.402   9.963 -0.7955  0.5255 -2.1319
  786MOL0     H 3744   9.033   6.677  10.009 -0.2537  1.1587 -1.8902
  786MOL0     H 3745   9.198   6.614  10.032 -0.5715  0.0366 -0.5098
  786MOL0     H 3746   9.173   6.756   9.818  1.8453 -0.1146  0.3745
  786MOL0     H 3747   9.051   6.643   9.763  0.4362 -2.8650 -0.9825
  786MOL0     H 3748   9.212   6.458   9.760  1.0624 -0.0956 -1.0455
  786MOL0     H 3749   9.233   6.584   9.647  0.5979  0.7427 -0.4548
  786MOL0     H 3750   9.591   6.595   9.883  0.6090 -0.3214  0.0959
  786MOL0     H 3751   8.966   6.465  10.343 -0.3617 -1.7156 -0.3471
  786MOL0     H 3752   8.758   6.590  10.425 -2.7408 -0.3422  0.2962
  787MOL0     O 3753   7.135   1.517   0.836  0.4694 -0.2695  0.1818
  787MOL0     C 3754   7.217   1.572   0.908 -0.7951  0.3942 -0.5616
  787MOL0     O 3755   7.193   1.687   0.989 -0.4084  0.3772  1.2791
  787MOL0     C 3756   7.071   1.735   0.978  1.0190  0.5829 -0.0789
  787MOL0     C 3757   7.016   1.781   0.856 -0.7753  0.7825  0.6078
  787MOL0     C 3758   6.889   1.826   0.840  0.4702 -0.7772 -0.1428
  787MOL0     C 3759   6.802   1.816   0.956 -1.0569  1.2706 -0.1006
  787MOL0     O 3760   6.667   1.843   0.955 -0.2860 -0.0446 -0.2718
  787MOL0     C 3761   6.618   1.949   0.868  0.7390 -0.4322  0.2736
  787MOL0     C 3762   6.483   1.994   0.922 -0.3383 -0.2274  0.0587
  787MOL0     C 3763   6.435   2.120   0.831 -0.2083  0.4125 -0.3157
  787MOL0     C 3764   6.312   2.177   0.870  0.6593  0.1910  0.1564
  787MOL0     C 3765   6.296   2.317   0.790  0.0421 -0.9575 -0.6101
  787MOL0     C 3766   6.159   2.388   0.829  0.1207  0.0517  0.4079
  787MOL0     C 3767   6.136   2.523   0.756  0.0197 -0.3516 -0.3714
  787MOL0     C 3768   6.009   2.599   0.797  0.8894 -0.7461 -0.4724
  787MOL0     N 3769   5.891   2.534   0.757 -0.4478  0.8962  0.7455
  787MOL0     C 3770   5.837   2.513   0.630 -0.2344  0.4427  0.3454
  787MOL0     C 3771   5.720   2.446   0.654  0.5996 -0.6356  0.0009
  787MOL0     C 3772   5.631   2.418   0.543 -0.1521 -0.2670  0.5897
  787MOL0     C 3773   5.478   2.404   0.575 -0.6910  0.2572 -0.3865
  787MOL0     C 3774   5.425   2.504   0.680 -0.8602  0.2349  0.1989
  787MOL0     C 3775   5.273   2.489   0.702 -0.2472  0.2242 -0.3335
  787MOL0     O 3776   5.215   2.514   0.579 -0.2632  0.1755 -0.2492
  787MOL0     C 3777   5.081   2.548   0.587  0.1712 -0.1167  0.4071
  787MOL0     C 3778   5.026   2.600   0.472  0.1564 -0.0113  0.0982
  787MOL0     C 3779   4.890   2.639   0.468 -0.2765 -0.3326  0.2245
  787MOL0     C 3780   4.806   2.630   0.576 -0.2673  0.3664 -0.4718
  787MOL0     C 3781   4.669   2.676   0.562 -0.0266  0.0361  0.3608
  787MOL0     O 3782   4.602   2.678   0.682 -0.1791  0.5394  0.6943
  787MOL0     C 3783   4.472   2.699   0.700  0.0506 -0.4500  0.1325
  787MOL0     C 3784   4.388   2.772   0.618 -0.6195 -0.3686  0.2670
  787MOL0     C 3785   4.250   2.794   0.645  0.2174 -0.5234 -0.4907
  787MOL0     C 3786   4.204   2.739   0.766  0.4803 -0.8318 -0.5446
  787MOL0     O 3787   4.068   2.747   0.815 -0.3820 -0.7598  0.1503
  787MOL0     C 3788   3.972   2.801   0.720 -0.5203 -0.7532 -0.0683
  787MOL0     C 3789   3.835   2.787   0.777  0.3347 -0.0812  0.4804
  787MOL0     C 3790   3.741   2.887   0.721  0.8235  0.3600 -0.1868
  787MOL0     C 3791   3.599   2.875   0.777 -0.3888 -0.3111 -0.3814
  787MOL0     C 3792   3.507   2.977   0.711 -0.7193  0.2591  0.7435
  787MOL0     C 3793   3.359   2.964   0.741  0.4684 -0.1052 -0.2974
  787MOL0     C 3794   3.301   2.845   0.661  0.2578  0.0703 -0.5532
  787MOL0     C 3795   3.159   2.868   0.626 -0.2136 -0.1679  0.2386
  787MOL0    Cl 3796   3.040   2.916   0.766 -0.1756  0.1832 -0.1304
  787MOL0     C 3797   4.284   2.659   0.850 -0.7613  0.1835  0.2785
  787MOL0     C 3798   4.420   2.642   0.814 -0.3384 -0.7280  0.2400
  787MOL0     O 3799   4.620   2.684   0.451 -0.3774  0.1890 -0.0970
  787MOL0     C 3800   4.858   2.584   0.695 -0.3341 -0.4845 -0.1375
  787MOL0     C 3801   4.997   2.544   0.703  0.0822  0.0857 -0.7370
  787MOL0     N 3802   5.714   2.409   0.788 -0.1325 -0.2072  0.0181
  787MOL0     N 3803   5.810   2.473   0.846  0.1915 -0.2555 -0.9812
  787MOL0     C 3804   6.855   1.770   1.082 -1.4393 -0.3318 -0.4053
  787MOL0     C 3805   6.988   1.735   1.091 -0.3502 -0.1470 -0.4150
  787MOL0     C 3806   7.349   1.522   0.901 -0.2927  0.2492  1.0310
  787MOL0     C 3807   7.456   1.613   0.930  0.5782 -0.4162 -0.0355
  787MOL0     C 3808   7.582   1.569   0.902 -0.0228 -0.3985  0.2248
  787MOL0     C 3809   7.615   1.454   0.828 -0.0665 -0.2821 -1.2156
  787MOL0     O 3810   7.746   1.417   0.795 -0.1885 -0.1413  0.0954
  787MOL0     C 3811   7.857   1.509   0.809  0.4246  0.4500  0.0262
  787MOL0     C 3812   7.965   1.475   0.715  0.0210  0.2736 -0.6236
  787MOL0     C 3813   8.065   1.589   0.707 -0.3805  0.5702  0.1420
  787MOL0     C 3814   8.181   1.565   0.616  0.2408 -0.2003  0.7764
  787MOL0     C 3815   8.270   1.451   0.659 -0.8486 -0.5568 -0.4397
  787MOL0     C 3816   8.336   1.355   0.698  0.6979 -0.4535  0.0611
  787MOL0     C 3817   7.509   1.367   0.809 -0.3974  1.0534 -0.6238
  787MOL0     C 3818   7.375   1.406   0.830 -0.0997  0.4686 -0.2321
  787MOL0     H 3819   7.088   1.796   0.776  0.4347  0.0557  1.5202
  787MOL0     H 3820   6.851   1.854   0.743  0.5099 -2.7484 -0.7708
  787MOL0     H 3821   6.599   1.899   0.772 -1.9308 -0.2871  0.6460
  787MOL0     H 3822   6.688   2.031   0.845  2.1969 -1.3647  1.2307
  787MOL0     H 3823   6.500   2.033   1.023  0.5611 -2.0453  0.6515
  787MOL0     H 3824   6.405   1.918   0.925 -1.4588  0.9107  0.3869
  787MOL0     H 3825   6.423   2.079   0.730  2.5732 -1.3568 -0.0485
  787MOL0     H 3826   6.518   2.191   0.826 -0.0832  0.1971 -2.8054
  787MOL0     H 3827   6.229   2.106   0.860  0.3063  0.8103 -1.6709
  787MOL0     H 3828   6.319   2.203   0.976 -0.2213 -1.5224  0.6878
  787MOL0     H 3829   6.290   2.292   0.684 -0.5088 -0.7445 -0.6342
  787MOL0     H 3830   6.379   2.383   0.816 -1.2297  0.0964  0.9613
  787MOL0     H 3831   6.152   2.401   0.937  1.7622  1.0754  0.4194
  787MOL0     H 3832   6.073   2.323   0.806  1.9655 -2.0968 -0.8020
  787MOL0     H 3833   6.219   2.589   0.782 -0.3174 -0.6321  1.5694
  787MOL0     H 3834   6.143   2.503   0.648  0.5552  2.4720 -0.9458
  787MOL0     H 3835   6.023   2.704   0.767  2.9525 -0.9755 -0.4704
  787MOL0     H 3836   5.994   2.601   0.905 -0.4982  2.3146 -0.6050
  787MOL0     H 3837   5.879   2.536   0.532 -0.6014 -0.0445  0.0702
  787MOL0     H 3838   5.667   2.322   0.504  0.0791  1.1144 -2.8804
  787MOL0     H 3839   5.640   2.496   0.467 -0.9856  0.4454  1.2012
  787MOL0     H 3840   5.472   2.304   0.619 -0.3559  0.5891  0.4373
  787MOL0     H 3841   5.427   2.418   0.480 -0.5201 -1.2151 -0.7213
  787MOL0     H 3842   5.473   2.483   0.776 -1.0174  0.0100  0.2283
  787MOL0     H 3843   5.443   2.609   0.659 -2.0937  0.6390  1.0262
  787MOL0     H 3844   5.252   2.562   0.781 -0.2928 -0.5585  0.4009
  787MOL0     H 3845   5.250   2.386   0.730 -0.2283  0.1549 -0.5691
  787MOL0     H 3846   5.092   2.626   0.390 -0.1261 -0.2263 -0.1977
  787MOL0     H 3847   4.836   2.669   0.379  0.9441  0.4589 -0.2809
  787MOL0     H 3848   4.431   2.811   0.526 -3.0780 -0.7766 -1.1250
  787MOL0     H 3849   4.182   2.834   0.570 -1.8273 -3.4538 -0.3668
  787MOL0     H 3850   3.978   2.745   0.626  0.8995  0.8511 -0.9903
  787MOL0     H 3851   3.991   2.905   0.693 -0.5921 -0.8705 -0.5835
  787MOL0     H 3852   3.835   2.810   0.884 -0.9612  2.8644 -0.0197
  787MOL0     H 3853   3.799   2.685   0.765 -4.1277  0.8136  3.3668
  787MOL0     H 3854   3.745   2.878   0.612 -0.0559  0.1784 -0.2146
  787MOL0     H 3855   3.782   2.986   0.741  0.1937  0.6462 -0.2801
  787MOL0     H 3856   3.569   2.770   0.782 -0.7511 -0.1627  2.6703
  787MOL0     H 3857   3.594   2.904   0.883 -1.7426  0.9540 -0.7557
  787MOL0     H 3858   3.526   2.979   0.603 -1.1538  0.8875  0.6740
  787MOL0     H 3859   3.543   3.076   0.741  1.4594 -0.0153 -0.7469
  787MOL0     H 3860   3.314   3.058   0.705 -2.0883 -0.9931  0.3799
  787MOL0     H 3861   3.337   2.965   0.848 -0.6227  2.5641 -0.4539
  787MOL0     H 3862   3.359   2.837   0.569  2.2828 -1.7015  0.8022
  787MOL0     H 3863   3.300   2.747   0.709 -0.0271 -0.7192 -2.1027
  787MOL0     H 3864   3.121   2.780   0.572 -0.6249  0.3777 -0.3879
  787MOL0     H 3865   3.154   2.943   0.546 -3.4201  0.7964  1.1833
  787MOL0     H 3866   4.230   2.602   0.925  0.2527 -0.6096  0.4461
  787MOL0     H 3867   4.487   2.574   0.866 -1.3781 -1.1576  1.0404
  787MOL0     H 3868   4.794   2.578   0.783 -1.1685  3.0323 -0.3732
  787MOL0     H 3869   5.027   2.509   0.801  1.7447 -1.9707 -1.8798
  787MOL0     H 3870   6.793   1.760   1.170 -0.4433 -0.7562  0.2672
  787MOL0     H 3871   7.024   1.693   1.185 -2.0726  2.8146  1.7405
  787MOL0     H 3872   7.442   1.697   0.997  0.8721 -1.8775  1.9760
  787MOL0     H 3873   7.663   1.635   0.932 -0.1669 -0.0279 -0.1878
  787MOL0     H 3874   7.887   1.510   0.914  0.0837  0.1260  0.1296
  787MOL0     H 3875   7.830   1.612   0.789 -0.6055  1.0311  3.7154
  787MOL0     H 3876   8.011   1.387   0.761 -4.0986 -1.1402  1.1876
  787MOL0     H 3877   7.916   1.441   0.623 -1.1102 -0.7245  0.3151
  787MOL0     H 3878   8.104   1.611   0.806  1.3286  1.2521 -0.6432
  787MOL0     H 3879   8.015   1.684   0.689  2.5197  1.7852 -2.4427
  787MOL0     H 3880   8.147   1.547   0.514  0.6258 -1.5496  0.8658
  787MOL0     H 3881   8.234   1.660   0.624 -0.0765 -0.1314  2.2637
  787MOL0     H 3882   8.409   1.282   0.723  2.7484  0.1671 -3.3780
  787MOL0     H 3883   7.526   1.273   0.757 -3.6389  0.1923 -0.3239
  787MOL0     H 3884   7.296   1.339   0.797  2.4375 -2.1497 -1.4221
  788MOL0     O 3885   6.041   5.181   8.906  0.4845  0.1548  0.0926
  788MOL0     C 3886   6.123   5.094   8.915 -0.1694 -0.7201  0.2703
  788MOL0     O 3887   6.109   4.964   8.869  0.6835  0.9531 -0.4307
  788MOL0     C 3888   5.979   4.928   8.846 -0.6366  0.1138 -0.4511
  788MOL0     C 3889   5.913   4.861   8.955 -0.9245 -0.3915 -0.4923
  788MOL0     C 3890   5.780   4.824   8.946 -0.1379  0.2126  0.5849
  788MOL0     C 3891   5.707   4.842   8.825  0.0519  0.3033  0.1588
  788MOL0     O 3892   5.581   4.783   8.810 -0.9003  0.1151  0.3482
  788MOL0     C 3893   5.476   4.858   8.748  0.4029  0.6604 -0.1637
  788MOL0     C 3894   5.383   4.740   8.698  0.2073  0.1368  0.8206
  788MOL0     C 3895   5.238   4.794   8.676 -0.4760  0.1738 -0.4465
  788MOL0     C 3896   5.169   4.806   8.813 -0.3761  0.4628  0.4481
  788MOL0     C 3897   5.017   4.808   8.792  0.0479 -1.0794  0.5597
  788MOL0     C 3898   4.975   4.926   8.696  0.2871  0.8283  0.6958
  788MOL0     C 3899   4.825   4.972   8.714  0.1556  0.6123 -0.4413
  788MOL0     C 3900   4.785   5.082   8.620 -0.4989 -0.1982  0.6594
  788MOL0     N 3901   4.640   5.118   8.632 -0.1501  0.6970  0.6319
  788MOL0     C 3902   4.586   5.247   8.612  0.1729 -0.0127 -0.0417
  788MOL0     C 3903   4.452   5.229   8.622 -0.8981 -0.4134 -1.2823
  788MOL0     C 3904   4.357   5.346   8.602  0.3311  0.0474 -0.4511
  788MOL0     C 3905   4.213   5.304   8.587 -0.2586 -0.3257  0.4014
  788MOL0     C 3906   4.128   5.420   8.534 -0.0901  0.0866 -0.2701
  788MOL0     C 3907   3.981   5.397   8.578 -0.0975  0.3030  0.4447
  788MOL0     O 3908   3.976   5.419   8.717 -0.3544  0.7276  0.0256
  788MOL0     C 3909   3.851   5.421   8.777  0.0998  0.0066 -0.2091
  788MOL0     C 3910   3.775   5.309   8.762 -0.0181 -0.3200  0.1074
  788MOL0     C 3911   3.653   5.300   8.822  0.4348  0.8537 -0.3576
  788MOL0     C 3912   3.592   5.404   8.890  0.0479  0.1540 -0.3449
  788MOL0     C 3913   3.457   5.409   8.940 -0.4180  0.1449  0.2118
  788MOL0     O 3914   3.392   5.288   8.942 -0.8454 -0.3855  0.4141
  788MOL0     C 3915   3.262   5.286   8.980 -0.0603 -0.2977  0.7673
  788MOL0     C 3916   3.219   5.184   9.065 -0.3527 -0.3830 -0.4407
  788MOL0     C 3917   3.089   5.167   9.109 -0.2478 -0.3663 -1.1188
  788MOL0     C 3918   2.994   5.257   9.075 -0.2472  0.4173 -0.1941
  788MOL0     O 3919   2.869   5.241   9.129  0.3458 -0.0428  0.3103
  788MOL0     C 3920   2.761   5.326   9.083  0.3620  0.5553 -0.4389
  788MOL0     C 3921   2.632   5.245   9.107  0.6540  0.3516  1.4964
  788MOL0     C 3922   2.602   5.204   9.250 -0.2259  0.6580  0.0306
  788MOL0     C 3923   2.454   5.158   9.243 -0.1030 -1.0095  0.3926
  788MOL0     C 3924   2.372   5.185   9.366 -0.2658 -0.4148  0.7687
  788MOL0     C 3925   2.216   5.177   9.335 -0.5475  0.7577 -1.0085
  788MOL0     C 3926   2.172   5.048   9.275 -0.8768  0.3200  0.2447
  788MOL0     C 3927   2.032   5.005   9.322  0.0532  0.6862 -0.1154
  788MOL0    Cl 3928   1.930   5.118   9.250  0.2428 -0.3353  0.2170
  788MOL0     C 3929   3.033   5.358   8.988  0.1147 -0.0461  0.1895
  788MOL0     C 3930   3.162   5.368   8.930  0.3302  0.0626  0.3131
  788MOL0     O 3931   3.408   5.519   8.947  0.2542  0.4616 -0.0949
  788MOL0     C 3932   3.669   5.524   8.913 -0.5280 -0.0927  0.0405
  788MOL0     C 3933   3.801   5.530   8.853 -0.5699  1.1869 -0.5085
  788MOL0     N 3934   4.429   5.093   8.667  0.9170  0.2047 -0.7106
  788MOL0     N 3935   4.541   5.031   8.677  0.1763 -0.7428 -0.0904
  788MOL0     C 3936   5.778   4.897   8.714  0.0571  0.5668 -0.4073
  788MOL0     C 3937   5.912   4.941   8.733  0.2436 -0.7374  0.4895
  788MOL0     C 3938   6.242   5.126   8.995  0.4082  0.5550 -0.0838
  788MOL0     C 3939   6.257   5.256   9.051 -0.6566  0.2371  0.1179
  788MOL0     C 3940   6.371   5.280   9.133  0.4352  0.0516 -0.0489
  788MOL0     C 3941   6.462   5.186   9.163  0.0762  1.6968 -0.1884
  788MOL0     O 3942   6.566   5.220   9.240  0.0509  0.4179 -0.2477
  788MOL0     C 3943   6.639   5.106   9.307  0.0453 -0.5166  0.8394
  788MOL0     C 3944   6.651   5.128   9.460  0.1916 -0.7241 -0.1310
  788MOL0     C 3945   6.692   5.007   9.547 -0.0468  0.6159 -0.3514
  788MOL0     C 3946   6.744   5.051   9.680 -0.5968 -0.7746  0.4850
  788MOL0     C 3947   6.884   5.089   9.663  0.4026  0.6844  0.2571
  788MOL0     C 3948   7.000   5.122   9.669 -0.2510  0.7386 -0.7979
  788MOL0     C 3949   6.450   5.059   9.099  0.1083 -0.4043  0.4300
  788MOL0     C 3950   6.338   5.027   9.016  0.3134 -0.6048 -0.6307
  788MOL0     H 3951   5.964   4.837   9.047  0.0600 -0.8854 -1.1469
  788MOL0     H 3952   5.715   4.783   9.022 -3.0191  0.9381 -1.3174
  788MOL0     H 3953   5.493   4.925   8.663 -1.2113  0.9265 -0.3194
  788MOL0     H 3954   5.424   4.921   8.821 -0.9840 -0.8720  0.2504
  788MOL0     H 3955   5.368   4.662   8.773  0.8004 -0.1046  0.6947
  788MOL0     H 3956   5.420   4.694   8.606 -3.7276 -0.5582 -0.5994
  788MOL0     H 3957   5.186   4.720   8.615  2.5452 -2.0472 -0.5544
  788MOL0     H 3958   5.250   4.886   8.618  0.5381  0.9386  0.8968
  788MOL0     H 3959   5.180   4.719   8.879  2.1671  0.2379 -0.1555
  788MOL0     H 3960   5.201   4.896   8.865 -1.0948  0.4358  0.9562
  788MOL0     H 3961   4.969   4.815   8.890 -1.0618  1.1129 -0.0802
  788MOL0     H 3962   4.985   4.713   8.748 -2.2731  0.0287 -0.2727
  788MOL0     H 3963   4.985   4.890   8.593 -2.1938  0.4778  0.5166
  788MOL0     H 3964   5.032   5.018   8.712  0.0939  0.6868  2.3749
  788MOL0     H 3965   4.764   4.881   8.710  2.2554 -0.9803  1.1117
  788MOL0     H 3966   4.814   5.016   8.814 -1.1903  0.0758 -0.3229
  788MOL0     H 3967   4.823   5.049   8.523 -1.4965  0.4796  0.0120
  788MOL0     H 3968   4.842   5.173   8.641 -1.1070  1.2615 -3.1839
  788MOL0     H 3969   4.642   5.335   8.582 -0.7280  0.5487 -0.1219
  788MOL0     H 3970   4.391   5.402   8.514 -0.5628  1.1191 -0.1442
  788MOL0     H 3971   4.360   5.404   8.694 -1.9312 -1.3375  0.5768
  788MOL0     H 3972   4.178   5.263   8.682 -4.1449  0.6878 -0.4428
  788MOL0     H 3973   4.212   5.222   8.516  0.2748  0.2745 -0.3149
  788MOL0     H 3974   4.166   5.512   8.580 -0.8667  1.0837 -1.5203
  788MOL0     H 3975   4.129   5.425   8.425  0.3382  0.7000 -0.2469
  788MOL0     H 3976   3.948   5.302   8.536  0.6252 -0.3775  1.3853
  788MOL0     H 3977   3.924   5.473   8.523 -0.4253 -2.7613 -3.9607
  788MOL0     H 3978   3.811   5.231   8.695 -1.7107 -0.3521 -0.8180
  788MOL0     H 3979   3.586   5.219   8.797  0.0744  0.6969  1.0193
  788MOL0     H 3980   3.301   5.124   9.102  3.1516  2.6220 -2.6686
  788MOL0     H 3981   3.070   5.088   9.180 -0.5800 -0.0404 -0.8378
  788MOL0     H 3982   2.765   5.357   8.978  3.4181  1.7390 -0.0564
  788MOL0     H 3983   2.751   5.425   9.129  0.6803  1.6977 -2.6645
  788MOL0     H 3984   2.634   5.151   9.051  0.3104  1.6172 -0.8002
  788MOL0     H 3985   2.552   5.304   9.061 -0.4071 -1.9214  0.2400
  788MOL0     H 3986   2.617   5.292   9.312 -0.0314  0.3554  0.4157
  788MOL0     H 3987   2.668   5.121   9.279 -1.6220  0.6650  3.6807
  788MOL0     H 3988   2.400   5.219   9.170 -0.7132  0.0432  1.6700
  788MOL0     H 3989   2.437   5.053   9.217 -0.7876 -0.9529  0.5874
  788MOL0     H 3990   2.398   5.277   9.419  1.9025 -0.3294 -0.3115
  788MOL0     H 3991   2.390   5.105   9.439 -0.4646 -0.4723  0.7561
  788MOL0     H 3992   2.187   5.265   9.277  1.9285  3.7715  1.9533
  788MOL0     H 3993   2.174   5.198   9.433 -1.0311 -0.5744 -0.9010
  788MOL0     H 3994   2.169   5.058   9.166 -1.8894 -0.5932  0.1682
  788MOL0     H 3995   2.243   4.971   9.305 -0.6435  0.3030 -0.3445
  788MOL0     H 3996   2.014   5.001   9.430  0.8578 -2.0585 -0.0081
  788MOL0     H 3997   2.008   4.906   9.281  0.8110  0.6952 -0.6059
  788MOL0     H 3998   2.964   5.428   8.942  0.9805 -0.3224 -1.5873
  788MOL0     H 3999   3.190   5.433   8.847 -1.0941  0.9790  0.5119
  788MOL0     H 4000   3.645   5.617   8.964  1.8542  1.6437 -1.7520
  788MOL0     H 4001   3.859   5.613   8.893 -1.0341  2.9351 -3.2382
  788MOL0     H 4002   5.744   4.921   8.614  0.4181  1.3411 -0.3600
  788MOL0     H 4003   5.955   4.996   8.650 -1.3861 -1.8406 -1.1774
  788MOL0     H 4004   6.193   5.339   9.024  0.7526  1.8623  1.5736
  788MOL0     H 4005   6.397   5.378   9.171 -1.8352  0.8109 -0.3473
  788MOL0     H 4006   6.740   5.098   9.266  1.1312  3.5917  2.1622
  788MOL0     H 4007   6.582   5.013   9.305 -1.7027  0.4951 -1.2879
  788MOL0     H 4008   6.727   5.205   9.473  0.3029 -0.3314 -2.5550
  788MOL0     H 4009   6.552   5.163   9.490  1.4398  2.2842  0.8284
  788MOL0     H 4010   6.767   4.939   9.506  1.5298  1.2871  1.2994
  788MOL0     H 4011   6.605   4.943   9.565  1.1979 -0.4193  2.5526
  788MOL0     H 4012   6.680   5.133   9.713  0.0743  0.9497 -2.2060
  788MOL0     H 4013   6.717   4.968   9.746 -0.7609 -0.1099  1.2809
  788MOL0     H 4014   7.102   5.150   9.687  0.0736  0.3825 -1.9927
  788MOL0     H 4015   6.526   4.982   9.100 -0.8841 -1.4032  1.0002
  788MOL0     H 4016   6.323   4.926   8.979 -2.0653 -0.2854 -0.7310
  789MOL0     O 4017  10.256   9.964   8.887 -0.1540  0.1730  0.2606
  789MOL0     C 4018  10.308  10.076   8.871  0.0113  0.2540  0.0748
  789MOL0     O 4019  10.238  10.188   8.845 -0.7389 -0.1747  0.2960
  789MOL0     C 4020  10.107  10.192   8.795  0.5521 -1.0125  0.3669
  789MOL0     C 4021  10.067  10.110   8.686 -0.4512 -0.3735  0.7406
  789MOL0     C 4022   9.930  10.103   8.659  0.1608 -0.8908 -0.6184
  789MOL0     C 4023   9.836  10.186   8.723 -0.1345 -0.0147 -0.0215
  789MOL0     O 4024   9.710  10.169   8.678  0.1586  1.0900 -0.3691
  789MOL0     C 4025   9.607  10.222   8.756 -0.2016  0.3787 -1.2994
  789MOL0     C 4026   9.477  10.139   8.714 -0.1793  0.7894  0.1933
  789MOL0     C 4027   9.429  10.199   8.576 -0.0602  0.2449  0.2477
  789MOL0     C 4028   9.289  10.143   8.539  0.5524  0.3767 -0.3991
  789MOL0     C 4029   9.245  10.146   8.389 -0.1277 -0.7307 -0.0631
  789MOL0     C 4030   9.108  10.096   8.379  0.6509 -0.6673  0.0988
  789MOL0     C 4031   9.048  10.075   8.238 -0.6336  0.1912  0.2260
  789MOL0     C 4032   8.969  10.198   8.202 -0.5153  0.6033 -0.4218
  789MOL0     N 4033   8.861  10.169   8.107  1.2848 -0.1985  0.1405
  789MOL0     C 4034   8.755  10.091   8.139 -0.3825  1.0128  0.0337
  789MOL0     C 4035   8.708  10.049   8.023 -0.2302  0.0119  0.0477
  789MOL0     C 4036   8.596   9.961   7.999  0.5796  0.4376 -0.2108
  789MOL0     C 4037   8.456  10.020   8.030  0.6418 -0.0567 -0.3129
  789MOL0     C 4038   8.344   9.921   7.992 -0.4761  0.3270 -0.3714
  789MOL0     C 4039   8.198   9.972   8.003 -0.0184 -0.4520 -0.2303
  789MOL0     O 4040   8.178  10.013   8.147 -0.1780  0.9745  0.6761
  789MOL0     C 4041   8.061  10.084   8.173  0.4480  0.9987  0.0103
  789MOL0     C 4042   7.970  10.135   8.082  0.7202 -0.3387 -1.0441
  789MOL0     C 4043   7.864  10.220   8.127 -0.2774  0.1125  0.3275
  789MOL0     C 4044   7.847  10.254   8.262 -0.1919 -0.5898 -0.2582
  789MOL0     C 4045   7.739  10.345   8.310  0.2473  0.5935 -0.2326
  789MOL0     O 4046   7.646  10.394   8.210  0.0549 -0.1963  0.6242
  789MOL0     C 4047   7.533  10.449   8.258  0.2539 -0.0934 -0.2508
  789MOL0     C 4048   7.442  10.377   8.330  0.0886  1.3742  0.3263
  789MOL0     C 4049   7.321  10.431   8.382 -0.2807  0.3763 -1.0896
  789MOL0     C 4050   7.295  10.564   8.353 -0.0987 -0.0390  0.3042
  789MOL0     O 4051   7.165  10.614   8.390 -0.3377 -0.2024  0.0452
  789MOL0     C 4052   7.086  10.664   8.287 -0.0935 -0.2325 -0.3736
  789MOL0     C 4053   6.987  10.752   8.353 -0.0537 -0.3193 -0.1502
  789MOL0     C 4054   6.935  10.838   8.234  0.3576 -0.4523  0.7320
  789MOL0     C 4055   6.814  10.914   8.279 -0.1108 -0.5231 -0.3026
  789MOL0     C 4056   6.761  11.017   8.176 -0.9378  0.4919 -0.5966
  789MOL0     C 4057   6.648  11.089   8.232  0.7302 -0.4764  0.0398
  789MOL0     C 4058   6.625  11.223   8.158 -0.3737  0.7362  0.5678
  789MOL0     C 4059   6.484  11.277   8.193 -0.0732  0.0609 -1.0108
  789MOL0    Cl 4060   6.488  11.344   8.361 -0.7607  0.1388 -0.0319
  789MOL0     C 4061   7.380  10.636   8.278 -0.2399 -0.4385  1.0376
  789MOL0     C 4062   7.500  10.577   8.233  0.1374  0.4694 -0.2884
  789MOL0     O 4063   7.727  10.349   8.431 -0.0815  0.4344 -0.3334
  789MOL0     C 4064   7.938  10.205   8.355 -0.2598 -0.4506  0.5923
  789MOL0     C 4065   8.042  10.125   8.311 -0.2642  0.3512  0.2333
  789MOL0     N 4066   8.771  10.121   7.926 -0.5186  0.1192  0.3313
  789MOL0     N 4067   8.866  10.188   7.974  0.6849  0.1093  0.0882
  789MOL0     C 4068   9.884  10.279   8.822  0.1031  0.1170  0.7656
  789MOL0     C 4069  10.019  10.282   8.856  0.3901 -0.1744  0.0645
  789MOL0     C 4070  10.453  10.081   8.887  0.3079  0.2488 -0.3412
  789MOL0     C 4071  10.533   9.966   8.904 -0.6927  0.1259  0.4010
  789MOL0     C 4072  10.676   9.972   8.903 -0.3298 -0.0437 -0.3113
  789MOL0     C 4073  10.738  10.094   8.897 -0.9803  0.2662  0.4573
  789MOL0     O 4074  10.877  10.103   8.911 -0.5530 -0.2126 -0.3045
  789MOL0     C 4075  10.929  10.236   8.923 -0.0865 -0.7272 -0.2975
  789MOL0     C 4076  11.072  10.221   8.954  0.1611 -0.2009  1.6203
  789MOL0     C 4077  11.156  10.199   8.824 -0.0213 -0.2929 -0.3423
  789MOL0     C 4078  11.301  10.145   8.837 -0.6002  0.3346  1.9017
  789MOL0     C 4079  11.380  10.232   8.909 -0.1206 -1.0503 -0.7124
  789MOL0     C 4080  11.451  10.305   8.973 -0.6351 -0.1507 -0.3088
  789MOL0     C 4081  10.652  10.206   8.885 -0.1779  0.0458 -0.3964
  789MOL0     C 4082  10.514  10.208   8.878  0.4933 -0.1169  0.0033
  789MOL0     H 4083  10.146  10.048   8.646  1.0089  0.6345  1.9264
  789MOL0     H 4084   9.889  10.034   8.586  0.5772 -1.4902 -0.2922
  789MOL0     H 4085   9.596  10.330   8.755  2.2234  0.7217  0.1311
  789MOL0     H 4086   9.635  10.187   8.856  2.2829 -0.6314 -2.2456
  789MOL0     H 4087   9.403  10.151   8.793 -0.8305  1.0774 -0.4506
  789MOL0     H 4088   9.489  10.031   8.701 -2.0138  0.6229 -0.3314
  789MOL0     H 4089   9.506  10.175   8.502 -1.7787 -0.4006 -1.3821
  789MOL0     H 4090   9.402  10.305   8.586 -1.4462 -0.0209 -0.4711
  789MOL0     H 4091   9.287  10.041   8.579  0.8069  0.4561 -0.1797
  789MOL0     H 4092   9.211  10.193   8.597  1.0144  1.3780 -0.6291
  789MOL0     H 4093   9.307  10.094   8.315  2.2459 -0.2883  1.4904
  789MOL0     H 4094   9.249  10.249   8.354 -0.6526 -0.2188  1.3271
  789MOL0     H 4095   9.051  10.163   8.445  0.0612 -0.0795 -0.9819
  789MOL0     H 4096   9.108   9.998   8.428 -0.2402 -0.2622  0.9607
  789MOL0     H 4097   9.122  10.053   8.160  1.6329 -1.6269  2.7262
  789MOL0     H 4098   8.981   9.989   8.246 -1.0203  0.4541 -0.0931
  789MOL0     H 4099   9.038  10.268   8.154  0.8548 -0.8203 -0.6335
  789MOL0     H 4100   8.925  10.243   8.292 -1.9758  0.9441 -1.2869
  789MOL0     H 4101   8.719  10.060   8.237 -3.0019 -2.2614 -1.7484
  789MOL0     H 4102   8.617   9.873   8.059  1.1383  1.5961  1.3588
  789MOL0     H 4103   8.590   9.942   7.891 -1.4896 -0.5893  0.0307
  789MOL0     H 4104   8.438  10.115   7.979  0.8006  1.3193  2.0781
  789MOL0     H 4105   8.455  10.043   8.137 -0.1972  1.7154 -0.6626
  789MOL0     H 4106   8.357   9.893   7.887 -0.5244 -2.6675  0.3248
  789MOL0     H 4107   8.347   9.826   8.045 -2.2625 -0.2481 -1.2120
  789MOL0     H 4108   8.131   9.890   7.975  0.4033 -0.9579  0.2070
  789MOL0     H 4109   8.187  10.053   7.930 -0.7897  0.0219  0.4050
  789MOL0     H 4110   7.971  10.127   7.973 -0.5679 -0.5301 -1.0618
  789MOL0     H 4111   7.802  10.267   8.052  2.6901  0.1529 -2.3086
  789MOL0     H 4112   7.471  10.274   8.349  4.1724  2.0955 -1.0191
  789MOL0     H 4113   7.273  10.364   8.452 -0.6447  0.8324 -0.8969
  789MOL0     H 4114   7.034  10.586   8.230 -0.0888  0.1805 -0.9576
  789MOL0     H 4115   7.152  10.716   8.217 -1.4899  2.4847  0.1754
  789MOL0     H 4116   7.034  10.813   8.431  1.5676 -1.0114 -0.5689
  789MOL0     H 4117   6.909  10.690   8.399 -0.6117  1.0988  0.9099
  789MOL0     H 4118   6.918  10.780   8.142  4.2047  0.2474 -0.6021
  789MOL0     H 4119   7.021  10.900   8.209  0.3893 -0.9404 -0.4410
  789MOL0     H 4120   6.730  10.850   8.307  1.5385 -2.5831  0.1597
  789MOL0     H 4121   6.861  10.968   8.362 -1.4861 -0.1350  0.2595
  789MOL0     H 4122   6.727  10.971   8.083 -0.2259 -2.1043  0.3442
  789MOL0     H 4123   6.841  11.089   8.151  1.0829 -0.9435  1.3325
  789MOL0     H 4124   6.663  11.133   8.331  0.9634 -0.5397  0.0334
  789MOL0     H 4125   6.566  11.017   8.227 -1.2773  1.7415 -0.4207
  789MOL0     H 4126   6.699  11.300   8.180 -0.4228  0.8901  0.2046
  789MOL0     H 4127   6.625  11.215   8.049  3.0808  0.5245  0.4663
  789MOL0     H 4128   6.406  11.201   8.188 -1.4501  1.1925  1.3783
  789MOL0     H 4129   6.453  11.361   8.130  0.1507  0.0524 -1.1332
  789MOL0     H 4130   7.351  10.739   8.259  0.5843 -0.2302  0.8922
  789MOL0     H 4131   7.566  10.622   8.159 -0.1464  0.3522 -0.6135
  789MOL0     H 4132   7.929  10.227   8.461 -3.3405 -0.5283  0.4427
  789MOL0     H 4133   8.104  10.078   8.387 -1.6306  1.8693  2.3986
  789MOL0     H 4134   9.815  10.354   8.858  0.3286  0.2187  0.9925
  789MOL0     H 4135  10.049  10.347   8.937  1.9170  1.1388 -1.4842
  789MOL0     H 4136  10.489   9.867   8.898  1.0964 -0.9585  3.3220
  789MOL0     H 4137  10.743   9.886   8.908  1.8729  1.6083 -0.1782
  789MOL0     H 4138  10.886  10.279   9.014  2.9510 -0.8536  1.3464
  789MOL0     H 4139  10.915  10.299   8.835 -0.4589 -0.6920 -0.2148
  789MOL0     H 4140  11.098  10.317   9.000  0.3397  1.1411 -1.0219
  789MOL0     H 4141  11.093  10.139   9.023  0.0888 -0.8021  0.9407
  789MOL0     H 4142  11.157  10.297   8.776  2.6651  1.6178  3.1105
  789MOL0     H 4143  11.102  10.129   8.759 -1.5260 -1.0232  1.6236
  789MOL0     H 4144  11.298  10.047   8.886  2.2572 -0.8073  0.0741
  789MOL0     H 4145  11.337  10.135   8.734 -3.0739  0.2436  0.9748
  789MOL0     H 4146  11.510  10.368   9.038  0.1717  0.1191 -1.2784
  789MOL0     H 4147  10.702  10.301   8.905  1.4838 -0.7158 -0.7775
  789MOL0     H 4148  10.463  10.304   8.884  2.2438  0.7851  1.9633
  790MOL0     O 4149   0.850  10.842   8.370  0.2026  0.1049  0.1324
  790MOL0     C 4150   0.890  10.935   8.444 -0.3870 -0.4236  0.3168
  790MOL0     O 4151   0.807  11.005   8.518 -0.3998  0.4429 -0.8625
  790MOL0     C 4152   0.689  10.952   8.558  0.1809  0.9965  0.0304
  790MOL0     C 4153   0.584  11.044   8.568  0.5009  0.5177  0.2095
  790MOL0     C 4154   0.453  10.998   8.601  0.0916  0.2831 -0.8754
  790MOL0     C 4155   0.432  10.861   8.638 -0.6174  0.6204  0.4875
  790MOL0     O 4156   0.300  10.820   8.665 -0.8469  0.6189  0.9259
  790MOL0     C 4157   0.268  10.683   8.703 -0.8622 -0.6830  0.2087
  790MOL0     C 4158   0.116  10.656   8.709 -0.6031  0.2873  0.3199
  790MOL0     C 4159   0.036  10.648   8.580  0.2326 -0.2689  0.5256
  790MOL0     C 4160  -0.111  10.602   8.601  0.0111  0.0552  0.8273
  790MOL0     C 4161  -0.196  10.660   8.494  0.2337  0.2040  0.3968
  790MOL0     C 4162  -0.343  10.598   8.508 -0.2660  0.6240  0.1587
  790MOL0     C 4163  -0.428  10.662   8.402 -0.8071  0.5338 -0.2822
  790MOL0     C 4164  -0.576  10.603   8.404 -0.0641 -0.2963 -0.2771
  790MOL0     N 4165  -0.644  10.596   8.535  0.9248  0.2057 -0.0515
  790MOL0     C 4166  -0.690  10.710   8.600 -0.2226 -0.6504 -1.0766
  790MOL0     C 4167  -0.753  10.661   8.714  0.1657  0.2005  0.7696
  790MOL0     C 4168  -0.827  10.732   8.817  0.5087  0.6102  0.1707
  790MOL0     C 4169  -0.980  10.727   8.785  0.4993 -0.0828 -0.1031
  790MOL0     C 4170  -1.037  10.587   8.772  0.6407 -0.6055 -0.6417
  790MOL0     C 4171  -1.159  10.577   8.691  0.1526 -0.0267  0.0044
  790MOL0     O 4172  -1.265  10.624   8.774  0.1354 -0.0317  0.3492
  790MOL0     C 4173  -1.397  10.604   8.726 -0.0536 -0.2578 -0.3584
  790MOL0     C 4174  -1.431  10.531   8.616 -0.1563  0.3436  0.1185
  790MOL0     C 4175  -1.558  10.546   8.558  0.7876  0.3248 -0.2284
  790MOL0     C 4176  -1.657  10.621   8.622  0.0662  0.6476 -0.2335
  790MOL0     C 4177  -1.787  10.642   8.560  0.3299 -0.8097  0.2496
  790MOL0     O 4178  -1.815  10.563   8.450  0.3153 -0.1266  0.5094
  790MOL0     C 4179  -1.943  10.563   8.404  0.1450 -0.0215  0.1555
  790MOL0     C 4180  -1.968  10.635   8.288  1.1150  0.4686  0.4601
  790MOL0     C 4181  -2.095  10.633   8.235  0.4829  0.4918 -0.0168
  790MOL0     C 4182  -2.203  10.561   8.300 -0.7295  0.5724  1.3392
  790MOL0     O 4183  -2.334  10.552   8.263 -0.1014 -0.1077  0.2352
  790MOL0     C 4184  -2.372  10.624   8.145 -0.8145 -0.0457  1.0441
  790MOL0     C 4185  -2.521  10.595   8.127 -0.7622  0.3537  0.5011
  790MOL0     C 4186  -2.558  10.628   7.988 -0.1748  0.8406  0.8270
  790MOL0     C 4187  -2.519  10.514   7.889  0.2913 -0.2786 -0.5843
  790MOL0     C 4188  -2.551  10.549   7.746  0.1201 -0.1774  0.3641
  790MOL0     C 4189  -2.514  10.459   7.634 -0.1922 -0.2896  0.0597
  790MOL0     C 4190  -2.565  10.308   7.644 -0.7860 -0.0764  0.2727
  790MOL0     C 4191  -2.521  10.233   7.520  0.4329 -0.6158  1.1022
  790MOL0    Cl 4192  -2.609  10.078   7.510  0.0909 -0.3239  0.1077
  790MOL0     C 4193  -2.172  10.489   8.405  0.0122 -0.6766 -0.4485
  790MOL0     C 4194  -2.048  10.498   8.467  0.0391 -0.8724 -0.8330
  790MOL0     O 4195  -1.866  10.724   8.605  0.1691  0.7231  0.1434
  790MOL0     C 4196  -1.620  10.666   8.746 -0.1100  0.2414  0.1318
  790MOL0     C 4197  -1.498  10.670   8.794 -0.1643  0.3910  0.4077
  790MOL0     N 4198  -0.727  10.524   8.712  0.9838  0.1760  0.4963
  790MOL0     N 4199  -0.663  10.485   8.611 -0.0857 -0.4233  0.7123
  790MOL0     C 4200   0.545  10.773   8.638  0.0826 -0.2994 -0.5551
  790MOL0     C 4201   0.666  10.816   8.593  0.1722 -0.6296 -0.3859
  790MOL0     C 4202   1.039  10.970   8.445 -0.1785 -0.2717 -0.2896
  790MOL0     C 4203   1.092  11.079   8.517  0.4337 -1.0624  0.6827
  790MOL0     C 4204   1.232  11.111   8.509  0.1720 -0.5872  1.1691
  790MOL0     C 4205   1.315  11.043   8.422 -0.1084  0.3079  0.6052
  790MOL0     O 4206   1.443  11.074   8.400  0.0839  0.1245 -0.2693
  790MOL0     C 4207   1.540  11.003   8.478  0.5815 -0.7288 -0.1648
  790MOL0     C 4208   1.680  11.058   8.435 -0.8882 -0.3320  0.2858
  790MOL0     C 4209   1.726  10.986   8.305  0.2917  0.2593 -0.5810
  790MOL0     C 4210   1.865  11.037   8.255 -0.4013 -0.3624 -0.1575
  790MOL0     C 4211   1.965  11.056   8.362  1.6726  0.3331  0.2212
  790MOL0     C 4212   2.041  11.071   8.451 -0.6461  0.4055  0.1030
  790MOL0     C 4213   1.259  10.932   8.357 -0.3350 -0.1031 -0.4217
  790MOL0     C 4214   1.127  10.893   8.365 -0.0472 -0.7202  0.1893
  790MOL0     H 4215   0.601  11.141   8.523  1.3855 -0.7397 -2.3555
  790MOL0     H 4216   0.358  11.050   8.594 -0.7967 -0.9915  0.8363
  790MOL0     H 4217   0.313  10.672   8.802  0.0680  3.1205  0.3617
  790MOL0     H 4218   0.319  10.614   8.634  2.4579  2.8131 -1.2423
  790MOL0     H 4219   0.067  10.714   8.787  1.9031  1.9181  0.8128
  790MOL0     H 4220   0.112  10.555   8.749  1.4546 -0.3017 -0.8226
  790MOL0     H 4221   0.071  10.577   8.505  0.9153  0.3188  0.2782
  790MOL0     H 4222   0.046  10.745   8.530  0.1966 -2.2171 -3.6553
  790MOL0     H 4223  -0.116  10.493   8.606 -2.0050  0.1134  1.1354
  790MOL0     H 4224  -0.150  10.640   8.697 -0.2699 -2.0735  1.5981
  790MOL0     H 4225  -0.165  10.616   8.399 -0.2007 -2.6030  1.4549
  790MOL0     H 4226  -0.204  10.769   8.496 -0.5573  0.1928 -1.1197
  790MOL0     H 4227  -0.379  10.620   8.609  0.5575  0.0944  0.5782
  790MOL0     H 4228  -0.339  10.490   8.492 -0.6718  0.5358  0.6311
  790MOL0     H 4229  -0.437  10.769   8.423 -0.8857  0.5050 -0.1685
  790MOL0     H 4230  -0.383  10.666   8.303 -2.5194  0.3543 -1.1119
  790MOL0     H 4231  -0.557  10.501   8.370  2.2431  0.1519 -0.5281
  790MOL0     H 4232  -0.641  10.645   8.327 -0.0220  1.0399  0.3831
  790MOL0     H 4233  -0.691  10.810   8.559 -1.3568 -0.5246 -0.7735
  790MOL0     H 4234  -0.796  10.836   8.820  1.8508  0.3167 -1.5492
  790MOL0     H 4235  -0.800  10.678   8.908  0.2223  0.8136  0.3758
  790MOL0     H 4236  -0.995  10.774   8.688 -2.7942 -3.4112 -1.4350
  790MOL0     H 4237  -1.033  10.780   8.864  0.0428 -1.2793  0.4210
  790MOL0     H 4238  -0.962  10.518   8.733  1.2046 -0.6937  0.5604
  790MOL0     H 4239  -1.058  10.545   8.871  0.2942  1.7898  0.3798
  790MOL0     H 4240  -1.160  10.472   8.660  0.4022 -0.8996  2.6817
  790MOL0     H 4241  -1.158  10.634   8.597 -3.0665 -1.7999 -1.2505
  790MOL0     H 4242  -1.366  10.454   8.577 -2.6688 -3.2424  2.3355
  790MOL0     H 4243  -1.584  10.500   8.462  0.6776 -2.2804  0.9550
  790MOL0     H 4244  -1.895  10.688   8.227 -2.6197  1.8531 -3.3092
  790MOL0     H 4245  -2.111  10.693   8.146  1.2024  2.3655  1.0559
  790MOL0     H 4246  -2.304  10.582   8.070 -1.7793 -1.1954  0.7695
  790MOL0     H 4247  -2.360  10.732   8.148 -0.7378  0.0949 -1.9607
  790MOL0     H 4248  -2.586  10.643   8.200  1.3749 -0.0970  2.8124
  790MOL0     H 4249  -2.544  10.488   8.135 -0.4900  0.2923  0.4757
  790MOL0     H 4250  -2.506  10.716   7.948 -1.5613 -0.1121 -3.6537
  790MOL0     H 4251  -2.664  10.648   7.971 -0.3505 -1.7772 -1.9046
  790MOL0     H 4252  -2.418  10.474   7.899  0.1612 -0.7769 -1.2137
  790MOL0     H 4253  -2.581  10.426   7.910 -0.8537  0.8993  1.2623
  790MOL0     H 4254  -2.505  10.646   7.727 -3.9112  1.6590 -1.2898
  790MOL0     H 4255  -2.660  10.560   7.739  0.3960  1.9940 -1.5492
  790MOL0     H 4256  -2.409  10.449   7.608 -0.3974  0.8983 -1.3038
  790MOL0     H 4257  -2.565  10.497   7.545  0.8280  0.7231 -0.1170
  790MOL0     H 4258  -2.527  10.260   7.735 -1.1811  1.4013  1.2586
  790MOL0     H 4259  -2.674  10.298   7.653 -0.7864 -2.1307 -1.3252
  790MOL0     H 4260  -2.414  10.211   7.524  0.7208  0.8665  2.0756
  790MOL0     H 4261  -2.543  10.280   7.423  0.0370 -1.4816  0.7546
  790MOL0     H 4262  -2.254  10.429   8.445 -1.4915  0.4917 -1.6338
  790MOL0     H 4263  -2.033  10.434   8.553  0.9822 -1.5979 -1.5249
  790MOL0     H 4264  -1.699  10.707   8.810  0.4181  0.3644  0.7119
  790MOL0     H 4265  -1.472  10.717   8.888 -0.1707  0.3247  0.4432
  790MOL0     H 4266   0.530  10.667   8.658 -2.0668  0.0036 -0.3556
  790MOL0     H 4267   0.749  10.745   8.589  0.7536  0.0001  0.1514
  790MOL0     H 4268   1.017  11.144   8.560 -1.1076 -0.9385 -1.9838
  790MOL0     H 4269   1.252  11.204   8.561 -0.1237  0.3505 -0.3414
  790MOL0     H 4270   1.531  10.895   8.466  1.7225 -0.7661 -0.9032
  790MOL0     H 4271   1.531  11.019   8.585  0.9511  1.7662 -0.4347
  790MOL0     H 4272   1.677  11.166   8.422  3.3250 -0.2225 -1.2166
  790MOL0     H 4273   1.746  11.029   8.517  0.7287 -2.5151 -1.6407
  790MOL0     H 4274   1.667  11.006   8.216  0.9648  1.0907 -0.8563
  790MOL0     H 4275   1.723  10.877   8.316  0.3911  0.2485 -0.6597
  790MOL0     H 4276   1.909  10.964   8.186  1.4368 -2.4332  2.9653
  790MOL0     H 4277   1.843  11.133   8.206 -0.0908  0.3809  1.1097
  790MOL0     H 4278   2.117  11.074   8.526  0.0321 -4.6718 -0.0535
  790MOL0     H 4279   1.309  10.874   8.280  0.3252 -0.2923  0.1389
  790MOL0     H 4280   1.084  10.809   8.312 -0.1665 -1.2302  1.0782
  791MOL0     O 4281  10.449   8.934   4.984 -0.0441  1.1158 -0.4810
  791MOL0     C 4282  10.362   9.006   5.039 -0.0715  0.0051  0.6804
  791MOL0     O 4283  10.393   9.128   5.104  0.3198  0.5523 -0.1749
  791MOL0     C 4284  10.521   9.168   5.081  0.2591  0.0473 -0.3854
  791MOL0     C 4285  10.570   9.213   4.953 -0.2028 -0.3803 -0.2168
  791MOL0     C 4286  10.693   9.275   4.943 -0.0182  0.2351 -0.3287
  791MOL0     C 4287  10.779   9.285   5.051  0.0861 -1.0469  0.3612
  791MOL0     O 4288  10.910   9.331   5.051 -0.6541 -0.2154  0.4518
  791MOL0     C 4289  10.972   9.360   4.935  0.7199 -0.2818  0.2461
  791MOL0     C 4290  11.124   9.364   4.965  0.5701 -0.0072  0.7772
  791MOL0     C 4291  11.161   9.471   5.068  0.2600  0.1514  0.1407
  791MOL0     C 4292  11.313   9.476   5.107  0.1028  0.3600  0.1534
  791MOL0     C 4293  11.398   9.523   4.991 -0.1610  0.9320  0.6582
  791MOL0     C 4294  11.549   9.511   5.012  0.6423 -0.1191  0.9182
  791MOL0     C 4295  11.634   9.541   4.883  0.0571 -0.3534 -0.2299
  791MOL0     C 4296  11.781   9.530   4.932 -0.3851 -0.7890  1.2869
  791MOL0     N 4297  11.861   9.592   4.825 -0.3934 -0.0451 -0.4373
  791MOL0     C 4298  11.907   9.529   4.713  0.3874 -0.6533 -0.8698
  791MOL0     C 4299  11.955   9.627   4.633  0.4459  0.0140 -0.2491
  791MOL0     C 4300  12.008   9.610   4.492  0.5651  0.8243 -0.3131
  791MOL0     C 4301  11.891   9.606   4.382 -0.4088  0.5674 -0.1477
  791MOL0     C 4302  11.884   9.720   4.282 -0.2905 -0.0958 -0.3031
  791MOL0     C 4303  11.782   9.692   4.177  0.0739  0.1429 -0.9490
  791MOL0     O 4304  11.652   9.699   4.239 -0.2895  0.1643 -0.7349
  791MOL0     C 4305  11.561   9.783   4.180 -0.5147  0.1493  0.0750
  791MOL0     C 4306  11.466   9.848   4.263 -0.9055 -0.2249  0.1708
  791MOL0     C 4307  11.352   9.907   4.207 -0.3078  0.7866 -0.1896
  791MOL0     C 4308  11.344   9.907   4.063  0.5320 -0.3478 -0.2120
  791MOL0     C 4309  11.220   9.970   4.001 -0.1896  0.2478 -0.9598
  791MOL0     O 4310  11.168  10.081   4.067 -0.2680  0.3758 -0.0745
  791MOL0     C 4311  11.045  10.135   4.047 -0.1985 -0.2222  0.7871
  791MOL0     C 4312  10.928  10.073   3.992  0.0027 -0.6588  0.2082
  791MOL0     C 4313  10.806  10.144   3.959  0.1527 -1.2646  0.2680
  791MOL0     C 4314  10.794  10.284   3.984 -0.4272  0.3763 -0.3474
  791MOL0     O 4315  10.678  10.349   3.943 -0.4367  0.5883 -0.2315
  791MOL0     C 4316  10.612  10.457   4.012  0.4760  0.2500 -0.1751
  791MOL0     C 4317  10.579  10.434   4.159  0.0393  0.6956  0.1443
  791MOL0     C 4318  10.493  10.313   4.170 -0.4993 -0.5242 -0.4570
  791MOL0     C 4319  10.349  10.336   4.150  0.6072  0.2620  0.3958
  791MOL0     C 4320  10.259  10.232   4.218  0.2824  0.5394 -0.1925
  791MOL0     C 4321  10.108  10.261   4.193  0.5099  0.3838  0.9127
  791MOL0     C 4322  10.026  10.157   4.275  0.4194  0.2174  0.1272
  791MOL0     C 4323   9.873  10.168   4.241 -0.1101  0.8791 -0.8270
  791MOL0    Cl 4324   9.857  10.148   4.069 -0.1298  0.4208 -0.0914
  791MOL0     C 4325  10.908  10.344   4.037  0.1957  0.9313 -0.1762
  791MOL0     C 4326  11.030  10.273   4.069 -0.2848  0.3393  0.2114
  791MOL0     O 4327  11.183   9.933   3.894  0.5271  1.0564  0.4133
  791MOL0     C 4328  11.449   9.866   3.986  0.8629 -0.2723  0.3225
  791MOL0     C 4329  11.552   9.798   4.041  0.1432  0.0633 -0.1271
  791MOL0     N 4330  11.949   9.738   4.706 -0.3621  0.3920 -0.6603
  791MOL0     N 4331  11.893   9.722   4.819  0.4935  0.1761 -0.3550
  791MOL0     C 4332  10.742   9.221   5.168  0.0921 -0.2194  0.2088
  791MOL0     C 4333  10.611   9.173   5.187  0.3293 -0.4023  0.0324
  791MOL0     C 4334  10.222   8.958   5.023  0.4803  0.1872  0.7633
  791MOL0     C 4335  10.183   8.838   4.964  0.5026  0.5170  0.4884
  791MOL0     C 4336  10.045   8.798   4.943 -0.2029  0.2960  0.2059
  791MOL0     C 4337   9.945   8.882   4.988 -0.2214 -0.3656  0.4343
  791MOL0     O 4338   9.808   8.863   4.973  0.5138 -0.1145  0.6546
  791MOL0     C 4339   9.769   8.727   4.967 -0.2041 -0.3725  0.1447
  791MOL0     C 4340   9.621   8.734   4.988  0.0274 -0.6283 -0.3545
  791MOL0     C 4341   9.543   8.773   4.861  0.5046  0.5762  0.0921
  791MOL0     C 4342   9.389   8.803   4.904 -0.5567  0.6147 -0.3606
  791MOL0     C 4343   9.335   8.691   4.984 -0.3528  0.6716  0.2244
  791MOL0     C 4344   9.278   8.602   5.040  0.0163  0.3193  0.5993
  791MOL0     C 4345   9.982   9.010   5.043 -0.1701  0.4033  0.0203
  791MOL0     C 4346  10.114   9.047   5.066 -0.5453 -0.3658  0.4219
  791MOL0     H 4347  10.506   9.213   4.866  1.1258 -0.7929 -1.2189
  791MOL0     H 4348  10.735   9.312   4.850  0.5416  0.9552  0.1890
  791MOL0     H 4349  10.929   9.450   4.891 -2.7878 -2.2832 -0.8361
  791MOL0     H 4350  10.954   9.288   4.855  2.4340  0.1759 -0.5909
  791MOL0     H 4351  11.168   9.380   4.866 -3.4113  0.4625 -1.1262
  791MOL0     H 4352  11.162   9.266   4.994 -0.9076 -0.5545  0.9122
  791MOL0     H 4353  11.107   9.436   5.157 -0.4885  1.2200  0.1164
  791MOL0     H 4354  11.117   9.568   5.045  0.3569  0.4899  1.3170
  791MOL0     H 4355  11.330   9.545   5.191 -0.6849  1.9921 -0.9563
  791MOL0     H 4356  11.343   9.377   5.142 -2.0352 -0.1118  0.7907
  791MOL0     H 4357  11.379   9.628   4.965  2.8767  1.9932  2.1671
  791MOL0     H 4358  11.382   9.468   4.898 -3.8383  2.9719 -0.1303
  791MOL0     H 4359  11.565   9.407   5.043 -0.1175 -0.1868  1.0927
  791MOL0     H 4360  11.587   9.572   5.095 -0.3701  0.5067  0.9293
  791MOL0     H 4361  11.608   9.463   4.811 -2.7399  0.4621 -0.1902
  791MOL0     H 4362  11.610   9.640   4.845 -1.9418 -1.0297 -0.8689
  791MOL0     H 4363  11.797   9.422   4.943 -1.9564 -1.2676 -0.4833
  791MOL0     H 4364  11.795   9.589   5.023 -2.4264 -0.1253  1.2193
  791MOL0     H 4365  11.911   9.423   4.693  2.2803 -0.5434 -1.2622
  791MOL0     H 4366  12.067   9.519   4.489 -1.6443 -0.6855 -0.9760
  791MOL0     H 4367  12.076   9.694   4.474  1.3848  0.5840  1.5096
  791MOL0     H 4368  11.797   9.592   4.436 -1.5138 -1.6215 -2.4467
  791MOL0     H 4369  11.906   9.518   4.318  0.1570  2.0640 -2.1948
  791MOL0     H 4370  11.864   9.820   4.323  0.1528 -0.8020  1.7424
  791MOL0     H 4371  11.983   9.730   4.236 -0.3222  3.2049  0.0543
  791MOL0     H 4372  11.789   9.591   4.137  1.0042  0.1458 -0.8223
  791MOL0     H 4373  11.792   9.756   4.089 -2.3926 -1.2065 -2.3118
  791MOL0     H 4374  11.471   9.840   4.371  2.4697  0.9898  0.2127
  791MOL0     H 4375  11.276   9.936   4.278 -2.6667 -1.4411 -1.6281
  791MOL0     H 4376  10.918   9.965   3.988 -1.3320 -0.5215 -2.2729
  791MOL0     H 4377  10.715  10.094   3.927 -1.6408  2.0189 -0.1714
  791MOL0     H 4378  10.516  10.463   3.961 -0.4121  1.8308  1.6014
  791MOL0     H 4379  10.661  10.554   3.998 -1.8271  1.3482 -1.0710
  791MOL0     H 4380  10.526  10.523   4.195 -0.7763 -0.3206  1.5380
  791MOL0     H 4381  10.671  10.428   4.217  0.3442  1.1693 -0.2775
  791MOL0     H 4382  10.506  10.273   4.270  0.1161  2.2478  0.6595
  791MOL0     H 4383  10.522  10.231   4.102  0.5742 -0.2011 -0.3978
  791MOL0     H 4384  10.330  10.428   4.206 -1.2668 -1.9731  3.7741
  791MOL0     H 4385  10.329  10.337   4.043 -0.2004 -0.6491  0.5289
  791MOL0     H 4386  10.276  10.231   4.326  2.8746  1.2992 -0.5192
  791MOL0     H 4387  10.283  10.136   4.171  0.8853  1.2970 -1.4970
  791MOL0     H 4388  10.084  10.251   4.087 -2.4620  0.1594  1.5364
  791MOL0     H 4389  10.079  10.364   4.214  0.1157  0.2355  1.1015
  791MOL0     H 4390  10.067  10.059   4.248  1.1372  0.3300  0.7660
  791MOL0     H 4391  10.038  10.172   4.383  0.6836 -0.7318  0.2384
  791MOL0     H 4392   9.845  10.268   4.276  1.6990  1.2772 -0.4526
  791MOL0     H 4393   9.819  10.087   4.292  2.5537 -0.3644  0.1988
  791MOL0     H 4394  10.904  10.453   4.042  0.7901  0.9124  1.2518
  791MOL0     H 4395  11.124  10.312   4.108  0.2228 -1.6649  1.1147
  791MOL0     H 4396  11.440   9.892   3.881 -1.5029 -1.8418  0.0671
  791MOL0     H 4397  11.615   9.745   3.970 -1.2388 -0.1410 -1.2599
  791MOL0     H 4398  10.810   9.213   5.252 -1.2170 -1.1772  1.2266
  791MOL0     H 4399  10.582   9.135   5.285 -1.2715 -0.9218 -0.6061
  791MOL0     H 4400  10.259   8.763   4.948 -1.6906 -1.1064 -4.1055
  791MOL0     H 4401  10.019   8.702   4.899  0.9569 -0.2893  0.7516
  791MOL0     H 4402   9.820   8.676   5.050  0.2482  0.6354  0.5113
  791MOL0     H 4403   9.789   8.682   4.870  0.0527  1.4081 -0.6620
  791MOL0     H 4404   9.592   8.634   5.021 -1.3033  0.3900  1.8068
  791MOL0     H 4405   9.588   8.800   5.069  0.0334  0.8526 -1.5309
  791MOL0     H 4406   9.536   8.686   4.794 -0.1201  1.4103 -0.9477
  791MOL0     H 4407   9.597   8.847   4.802 -0.8792  0.6483 -1.1263
  791MOL0     H 4408   9.374   8.893   4.965 -2.5249  0.3473 -0.3746
  791MOL0     H 4409   9.331   8.813   4.812 -2.6532 -0.3592  0.7783
  791MOL0     H 4410   9.258   8.524   5.111  0.5413  1.8979  2.5508
  791MOL0     H 4411   9.901   9.066   5.088 -1.8190 -0.5921 -1.5592
  791MOL0     H 4412  10.149   9.135   5.119  1.7090  0.2404 -1.8888
  792MOL0     O 4413   3.909   7.652   2.999 -0.4633 -0.0917 -0.1514
  792MOL0     C 4414   3.899   7.629   2.880  0.3541 -0.2161  0.5122
  792MOL0     O 4415   3.783   7.639   2.810 -0.4461 -0.2608  0.5535
  792MOL0     C 4416   3.660   7.653   2.869  0.3231  0.6878 -0.7013
  792MOL0     C 4417   3.596   7.776   2.853 -0.1989 -0.1038  0.5324
  792MOL0     C 4418   3.456   7.794   2.879 -0.2247  0.0357 -0.6342
  792MOL0     C 4419   3.380   7.683   2.927 -0.2797 -1.2113  0.0952
  792MOL0     O 4420   3.246   7.711   2.953 -0.9610  0.2814  0.5051
  792MOL0     C 4421   3.166   7.598   2.981 -0.5646  0.7217  0.3190
  792MOL0     C 4422   3.019   7.638   2.987 -0.3572  0.3614  0.0670
  792MOL0     C 4423   2.923   7.524   3.028 -0.7228  0.0150 -0.7201
  792MOL0     C 4424   2.778   7.560   3.026  0.8871  0.4767 -0.3962
  792MOL0     C 4425   2.683   7.443   3.074  0.0454 -0.3146 -0.0455
  792MOL0     C 4426   2.538   7.493   3.057  0.0127 -0.8662 -0.5892
  792MOL0     C 4427   2.434   7.399   3.113  0.2697  0.0912  0.7052
  792MOL0     C 4428   2.296   7.462   3.116 -0.6909  0.2975  0.6140
  792MOL0     N 4429   2.207   7.367   3.183 -0.0890 -0.2647 -0.6794
  792MOL0     C 4430   2.136   7.272   3.114 -0.6169 -0.2545 -0.4614
  792MOL0     C 4431   2.051   7.219   3.207  0.1757  0.3245 -0.1539
  792MOL0     C 4432   1.947   7.118   3.187  0.6336 -0.5967 -0.0285
  792MOL0     C 4433   1.868   7.153   3.070 -0.7623  0.2768  0.3739
  792MOL0     C 4434   1.773   7.040   3.031  0.5300  0.2121 -0.4573
  792MOL0     C 4435   1.657   7.085   2.943  0.0238  0.0454  0.0653
  792MOL0     O 4436   1.577   6.967   2.915 -0.5175  1.0163  0.5051
  792MOL0     C 4437   1.446   6.984   2.869 -0.2108  0.0408 -0.6049
  792MOL0     C 4438   1.402   7.092   2.797 -0.6002 -0.1831  0.5999
  792MOL0     C 4439   1.269   7.099   2.762 -0.5820 -0.1395 -0.5547
  792MOL0     C 4440   1.177   7.001   2.786 -0.2940  0.1267  0.4469
  792MOL0     C 4441   1.036   7.007   2.725 -0.2487 -0.2583 -0.3129
  792MOL0     O 4442   0.959   6.896   2.743 -0.2705 -0.1362 -0.7214
  792MOL0     C 4443   0.826   6.892   2.725  0.2145  0.5658  0.1671
  792MOL0     C 4444   0.735   6.997   2.696 -0.1350 -0.0632  0.4969
  792MOL0     C 4445   0.595   6.975   2.681 -0.5763  0.2180  0.2646
  792MOL0     C 4446   0.542   6.850   2.694 -0.2190  0.7127  0.3405
  792MOL0     O 4447   0.408   6.831   2.675 -0.7443  0.6923  0.5648
  792MOL0     C 4448   0.336   6.780   2.787  0.7849  0.3649 -0.4896
  792MOL0     C 4449   0.200   6.734   2.739  0.0007 -0.2130  0.1131
  792MOL0     C 4450   0.098   6.849   2.733  0.0036 -0.2517 -0.6325
  792MOL0     C 4451  -0.039   6.791   2.701 -0.5555  0.0684 -0.0692
  792MOL0     C 4452  -0.138   6.900   2.668  0.3133 -0.3902 -0.2414
  792MOL0     C 4453  -0.176   6.988   2.791  0.4843  0.2259  0.6720
  792MOL0     C 4454  -0.286   7.087   2.748  0.7807 -0.1069 -0.2085
  792MOL0     C 4455  -0.394   7.091   2.850 -0.5810 -0.0750 -0.4424
  792MOL0    Cl 4456  -0.453   7.257   2.868  0.3101 -0.0860  0.0666
  792MOL0     C 4457   0.633   6.748   2.727  0.3206  0.0832 -0.3031
  792MOL0     C 4458   0.771   6.769   2.735 -0.4387  1.1377  0.0314
  792MOL0     O 4459   1.003   7.104   2.659  0.0162 -0.0097 -0.6454
  792MOL0     C 4460   1.212   6.893   2.863 -0.6579  1.0592  0.2064
  792MOL0     C 4461   1.347   6.889   2.910  0.0712 -0.3719  0.4283
  792MOL0     N 4462   2.077   7.276   3.328  0.9152  0.2852 -0.2465
  792MOL0     N 4463   2.167   7.366   3.313  0.5342 -0.0354  0.3226
  792MOL0     C 4464   3.439   7.564   2.929  0.1349  0.3283 -0.6871
  792MOL0     C 4465   3.579   7.538   2.902  0.0906  0.5003 -0.2747
  792MOL0     C 4466   4.027   7.594   2.809 -0.3040  0.6200  0.0233
  792MOL0     C 4467   4.134   7.531   2.880  0.3970  0.2970  0.6970
  792MOL0     C 4468   4.263   7.521   2.826 -0.0763 -0.5337 -0.0606
  792MOL0     C 4469   4.275   7.555   2.691 -0.3734 -0.8564  0.2519
  792MOL0     O 4470   4.399   7.545   2.636  0.2947  0.0821  0.4526
  792MOL0     C 4471   4.497   7.649   2.662  0.4456 -0.3756 -0.3453
  792MOL0     C 4472   4.630   7.598   2.615  0.0226 -0.9858  0.0023
  792MOL0     C 4473   4.648   7.566   2.460  0.5044 -1.0829  0.1531
  792MOL0     C 4474   4.798   7.510   2.437 -0.3767 -0.0705 -0.0356
  792MOL0     C 4475   4.900   7.615   2.406 -0.2404  0.4561 -0.5516
  792MOL0     C 4476   4.982   7.705   2.407 -0.3249 -0.4521  0.2834
  792MOL0     C 4477   4.163   7.597   2.610  0.0919  0.5320  0.9830
  792MOL0     C 4478   4.045   7.623   2.675  0.4705 -0.0801 -0.0828
  792MOL0     H 4479   3.646   7.859   2.803 -0.5756  0.0128  0.3456
  792MOL0     H 4480   3.423   7.897   2.868  1.3638  0.3132 -4.8993
  792MOL0     H 4481   3.198   7.567   3.081  2.7152  2.0105 -0.2234
  792MOL0     H 4482   3.191   7.524   2.904  1.3299  1.2970  0.3415
  792MOL0     H 4483   2.987   7.686   2.894  1.3377  3.0288  0.7370
  792MOL0     H 4484   3.015   7.722   3.057 -0.3042 -1.0172  1.7875
  792MOL0     H 4485   2.959   7.488   3.125  0.7503  0.3946 -1.0985
  792MOL0     H 4486   2.943   7.440   2.962  3.2070  1.0173 -1.0702
  792MOL0     H 4487   2.762   7.642   3.096  0.8284  0.8141 -0.8063
  792MOL0     H 4488   2.744   7.596   2.929  1.3349 -0.0106 -0.7403
  792MOL0     H 4489   2.708   7.424   3.179 -0.4128 -2.2151 -0.2476
  792MOL0     H 4490   2.682   7.351   3.016 -3.4863 -1.3696  1.4199
  792MOL0     H 4491   2.521   7.508   2.950  1.3608 -2.7190 -1.1299
  792MOL0     H 4492   2.529   7.590   3.107 -0.5483 -2.3885  2.5267
  792MOL0     H 4493   2.435   7.312   3.047  0.6800  0.8022 -0.2619
  792MOL0     H 4494   2.461   7.358   3.210 -0.8621 -2.3671  0.0572
  792MOL0     H 4495   2.271   7.485   3.012  0.9162  0.3753  0.2142
  792MOL0     H 4496   2.305   7.559   3.166  2.4708  0.1784  0.4852
  792MOL0     H 4497   2.136   7.259   3.006  1.3437  0.0338 -0.5361
  792MOL0     H 4498   1.891   7.092   3.278  1.1442  0.0125  0.4703
  792MOL0     H 4499   1.997   7.023   3.166 -1.9680 -1.9406 -0.6462
  792MOL0     H 4500   1.936   7.178   2.988  1.6518 -2.4791  1.3440
  792MOL0     H 4501   1.811   7.242   3.095  0.5260  0.9023  1.1932
  792MOL0     H 4502   1.826   6.951   2.997  0.4803  0.7765 -2.1430
  792MOL0     H 4503   1.722   7.002   3.120 -0.6720  1.2031 -0.6900
  792MOL0     H 4504   1.688   7.123   2.845  1.0323  0.3931  0.5112
  792MOL0     H 4505   1.596   7.162   2.991 -0.5677  1.1688 -2.3125
  792MOL0     H 4506   1.470   7.166   2.756  0.2638  1.3350  4.3586
  792MOL0     H 4507   1.250   7.189   2.704 -0.2449  0.4363  0.2073
  792MOL0     H 4508   0.770   7.099   2.698  0.2245 -0.1910  2.0707
  792MOL0     H 4509   0.527   7.054   2.650 -1.8697 -0.9812 -0.0839
  792MOL0     H 4510   0.327   6.857   2.865  2.4025  2.3563 -2.1527
  792MOL0     H 4511   0.386   6.693   2.832  1.2403  1.4484  1.2000
  792MOL0     H 4512   0.169   6.656   2.810 -0.5354  0.1367  0.2673
  792MOL0     H 4513   0.204   6.697   2.636 -0.1441  1.4251 -0.5105
  792MOL0     H 4514   0.137   6.908   2.649  2.9000 -0.3597  0.5282
  792MOL0     H 4515   0.100   6.908   2.825 -0.1589 -0.4587 -0.4934
  792MOL0     H 4516  -0.026   6.721   2.617  1.2951  0.8454 -0.4821
  792MOL0     H 4517  -0.071   6.734   2.789  0.3557 -1.3584 -0.6268
  792MOL0     H 4518  -0.222   6.841   2.631 -1.5925 -0.1520  3.2556
  792MOL0     H 4519  -0.097   6.951   2.580 -0.2843  0.0336 -0.2837
  792MOL0     H 4520  -0.086   7.044   2.815 -1.5005  3.0469  2.1730
  792MOL0     H 4521  -0.214   6.934   2.878 -1.1043  2.6091  1.5480
  792MOL0     H 4522  -0.237   7.183   2.727  1.4575 -0.5640 -0.7691
  792MOL0     H 4523  -0.336   7.054   2.656 -1.0606 -1.4643  1.2139
  792MOL0     H 4524  -0.366   7.051   2.947  1.0054 -0.3149 -0.9765
  792MOL0     H 4525  -0.474   7.033   2.802 -1.6892  0.3638  0.8091
  792MOL0     H 4526   0.600   6.649   2.758  1.1949 -0.0448  0.2298
  792MOL0     H 4527   0.836   6.684   2.751 -2.1315 -0.5243 -1.4534
  792MOL0     H 4528   1.134   6.833   2.909 -1.3559  3.3804  2.2171
  792MOL0     H 4529   1.386   6.804   2.965 -0.8057 -0.1512  1.4182
  792MOL0     H 4530   3.384   7.475   2.958 -0.6422  1.4957  1.5936
  792MOL0     H 4531   3.614   7.436   2.890  2.1069  1.3787 -2.7796
  792MOL0     H 4532   4.124   7.508   2.986 -2.1375 -0.9476  0.2699
  792MOL0     H 4533   4.349   7.493   2.886  1.4140  1.6902 -1.0311
  792MOL0     H 4534   4.507   7.668   2.769  1.0351  2.5584 -0.8426
  792MOL0     H 4535   4.479   7.741   2.605  1.5724  0.5027  0.6760
  792MOL0     H 4536   4.692   7.685   2.639  0.0968 -0.4828 -1.8389
  792MOL0     H 4537   4.636   7.506   2.674 -0.3913 -1.4831 -0.7225
  792MOL0     H 4538   4.640   7.657   2.401  1.5679 -0.6077  0.7130
  792MOL0     H 4539   4.576   7.493   2.421  3.1725 -2.6402 -2.3106
  792MOL0     H 4540   4.831   7.451   2.523  1.3507 -0.2256 -0.7508
  792MOL0     H 4541   4.810   7.444   2.351  3.6261  0.9432 -0.4646
  792MOL0     H 4542   5.058   7.781   2.401  0.7960 -1.6082 -1.3056
  792MOL0     H 4543   4.169   7.615   2.503  1.5391  1.2194  1.1514
  792MOL0     H 4544   3.957   7.662   2.624  0.4330  1.1619  0.9017
  793MOL0     O 4545   2.811   1.891   8.141 -0.3187 -0.5267 -0.3594
  793MOL0     C 4546   2.845   1.808   8.227  0.1911 -0.0986 -0.1419
  793MOL0     O 4547   2.763   1.756   8.320  0.2297  0.3177 -0.1427
  793MOL0     C 4548   2.627   1.781   8.325  0.2350  0.3811  0.1886
  793MOL0     C 4549   2.548   1.852   8.238 -0.8499  0.2713 -0.9015
  793MOL0     C 4550   2.405   1.858   8.268  0.2735  0.7736 -0.3080
  793MOL0     C 4551   2.340   1.787   8.375 -0.6439 -1.0218  0.4599
  793MOL0     O 4552   2.205   1.757   8.390 -0.0511  0.1221  0.5165
  793MOL0     C 4553   2.117   1.876   8.391 -0.7670 -0.3309  0.5742
  793MOL0     C 4554   1.982   1.827   8.429  0.0718  0.3413 -0.1767
  793MOL0     C 4555   1.988   1.772   8.567 -0.0066  0.0173 -0.3795
  793MOL0     C 4556   1.844   1.746   8.620 -0.5342 -0.3952  0.4975
  793MOL0     C 4557   1.840   1.705   8.764  0.2819 -0.4940 -0.8698
  793MOL0     C 4558   1.701   1.659   8.818 -0.3627  0.4786  0.1254
  793MOL0     C 4559   1.716   1.602   8.961  0.1328 -0.5288 -0.3315
  793MOL0     C 4560   1.580   1.578   9.024  0.4898  0.3519 -0.1424
  793MOL0     N 4561   1.492   1.503   8.940 -0.7753 -0.0702  0.4219
  793MOL0     C 4562   1.463   1.369   8.962 -0.1676 -0.8264 -0.7771
  793MOL0     C 4563   1.383   1.337   8.870  1.3862 -0.2610  0.9942
  793MOL0     C 4564   1.345   1.194   8.821 -0.3701 -0.4136 -0.2883
  793MOL0     C 4565   1.223   1.131   8.903  0.3174 -0.3789  0.3213
  793MOL0     C 4566   1.104   1.223   8.895 -0.7442 -0.7023  0.3818
  793MOL0     C 4567   0.969   1.162   8.942 -0.7792 -0.1847 -0.0258
  793MOL0     O 4568   0.860   1.253   8.912  1.2135 -0.2529 -0.7386
  793MOL0     C 4569   0.737   1.200   8.919  0.0429 -0.2383  0.3964
  793MOL0     C 4570   0.645   1.303   8.879  1.1026  0.1097 -0.4813
  793MOL0     C 4571   0.509   1.276   8.876  0.7089  0.2764  1.0900
  793MOL0     C 4572   0.466   1.156   8.930  0.7400 -0.1041 -0.3594
  793MOL0     C 4573   0.316   1.116   8.932  0.6977 -0.7045 -0.0487
  793MOL0     O 4574   0.283   1.023   9.019  1.0793  0.1619  0.3356
  793MOL0     C 4575   0.148   1.018   9.055  0.0185 -0.3670 -0.2928
  793MOL0     C 4576   0.067   0.911   9.013  0.6527 -0.0895 -0.4336
  793MOL0     C 4577  -0.070   0.912   9.045  0.3510  0.5941  0.2892
  793MOL0     C 4578  -0.126   1.011   9.130  0.3620  0.5871 -0.0880
  793MOL0     O 4579  -0.253   1.010   9.171  0.0306 -0.3724 -0.3981
  793MOL0     C 4580  -0.332   0.898   9.149 -0.0564  0.1592 -0.6903
  793MOL0     C 4581  -0.459   0.911   9.226 -0.3446  0.2680 -0.4131
  793MOL0     C 4582  -0.437   0.897   9.383  0.4589 -0.0562 -0.2039
  793MOL0     C 4583  -0.571   0.915   9.459 -0.1090 -0.1190  0.0498
  793MOL0     C 4584  -0.537   0.972   9.600 -0.6042  0.0614  0.1788
  793MOL0     C 4585  -0.656   0.991   9.686  0.6898  0.3583  0.1444
  793MOL0     C 4586  -0.654   1.102   9.791  0.3602 -1.0722 -0.0365
  793MOL0     C 4587  -0.764   1.084   9.889  0.6430 -0.7425  1.1729
  793MOL0    Cl 4588  -0.728   0.960  10.009  0.2544  0.4373  0.3710
  793MOL0     C 4589  -0.048   1.110   9.176 -0.4958  0.2427 -0.1850
  793MOL0     C 4590   0.091   1.114   9.138 -0.0780 -0.0544 -0.9772
  793MOL0     O 4591   0.238   1.199   8.882  0.7242  0.5454  0.6858
  793MOL0     C 4592   0.560   1.053   8.964  0.3539  0.0122 -0.8768
  793MOL0     C 4593   0.701   1.074   8.964  0.6512 -0.4410 -0.1913
  793MOL0     N 4594   1.347   1.450   8.797 -0.1473  0.4345  0.8600
  793MOL0     N 4595   1.405   1.553   8.852  1.0033  0.8135  0.1857
  793MOL0     C 4596   2.424   1.723   8.457  0.2658  0.0550  0.0303
  793MOL0     C 4597   2.563   1.714   8.429  0.1921  0.3232  0.1973
  793MOL0     C 4598   2.977   1.752   8.229 -0.3830 -0.7766  0.9730
  793MOL0     C 4599   3.033   1.675   8.338 -0.0481  0.5039 -0.2854
  793MOL0     C 4600   3.170   1.634   8.334 -0.2223 -0.9695  0.5955
  793MOL0     C 4601   3.251   1.663   8.217 -0.2378 -0.6861  0.0152
  793MOL0     O 4602   3.369   1.598   8.206 -0.0533  0.2743 -0.1925
  793MOL0     C 4603   3.454   1.646   8.097  0.2944  0.1525  0.6277
  793MOL0     C 4604   3.583   1.571   8.113  1.4868 -0.5289  0.9272
  793MOL0     C 4605   3.685   1.611   8.006 -0.3525  0.2051 -0.2234
  793MOL0     C 4606   3.807   1.518   8.009  0.1928 -1.4775  0.9381
  793MOL0     C 4607   3.891   1.560   7.890  0.1200  0.0919  0.1279
  793MOL0     C 4608   3.968   1.573   7.792  0.1262  0.1656 -0.2161
  793MOL0     C 4609   3.197   1.746   8.124 -0.2342 -0.4446 -0.4422
  793MOL0     C 4610   3.065   1.798   8.122 -1.0117  0.2570 -0.0611
  793MOL0     H 4611   2.587   1.922   8.165  0.6752  2.1585  1.5498
  793MOL0     H 4612   2.340   1.899   8.191 -1.8141  1.6682  1.8024
  793MOL0     H 4613   2.116   1.927   8.294  2.0578  0.3656  0.8324
  793MOL0     H 4614   2.148   1.954   8.460 -2.2164  1.3086 -0.5352
  793MOL0     H 4615   1.962   1.747   8.357 -2.4564 -1.4486  2.3139
  793MOL0     H 4616   1.915   1.913   8.425  0.4146  0.7996  2.3080
  793MOL0     H 4617   2.029   1.849   8.634 -0.0624 -0.7772  0.5824
  793MOL0     H 4618   2.033   1.673   8.561 -1.9173 -1.0395  1.7454
  793MOL0     H 4619   1.796   1.844   8.616  0.8834  0.4187  2.0299
  793MOL0     H 4620   1.795   1.672   8.556 -1.7966 -1.6374  2.7672
  793MOL0     H 4621   1.874   1.790   8.824 -1.3546 -0.0704 -0.4854
  793MOL0     H 4622   1.911   1.623   8.773 -0.5704 -1.2131 -0.6092
  793MOL0     H 4623   1.685   1.580   8.743  2.4707  2.1682 -2.5175
  793MOL0     H 4624   1.623   1.735   8.817 -1.8207 -0.9478 -0.6216
  793MOL0     H 4625   1.770   1.507   8.954  0.8851 -0.1424  0.0566
  793MOL0     H 4626   1.771   1.668   9.028 -2.5563  2.9121 -1.2101
  793MOL0     H 4627   1.531   1.676   9.034 -1.8925 -0.8258  0.5114
  793MOL0     H 4628   1.586   1.536   9.125 -0.2681 -1.6692 -0.8891
  793MOL0     H 4629   1.513   1.308   9.036  0.5243 -1.6071 -1.8638
  793MOL0     H 4630   1.432   1.129   8.832  0.4355  0.6306 -0.3038
  793MOL0     H 4631   1.327   1.202   8.714 -0.2844 -1.2047 -0.3647
  793MOL0     H 4632   1.253   1.103   9.005 -1.0254 -2.5112  0.1938
  793MOL0     H 4633   1.195   1.033   8.863 -0.0785  0.0553 -0.4745
  793MOL0     H 4634   1.128   1.307   8.960 -0.4057 -0.5727  0.0877
  793MOL0     H 4635   1.104   1.264   8.794  0.0529 -2.8061 -0.5321
  793MOL0     H 4636   0.969   1.145   9.050 -3.5867 -1.4141 -0.1413
  793MOL0     H 4637   0.954   1.065   8.894  0.6361 -0.4273 -0.0278
  793MOL0     H 4638   0.687   1.394   8.837  1.4645  0.4121  0.5078
  793MOL0     H 4639   0.440   1.347   8.831 -1.1290 -1.2001  1.4442
  793MOL0     H 4640   0.117   0.830   8.959  1.6144 -1.2012  1.9593
  793MOL0     H 4641  -0.129   0.827   9.012  1.7418  0.5824 -2.4319
  793MOL0     H 4642  -0.291   0.802   9.180 -1.1035  0.3303  1.4232
  793MOL0     H 4643  -0.346   0.893   9.041  1.2194  1.7733 -0.9726
  793MOL0     H 4644  -0.528   0.836   9.186 -1.6450  0.8269  0.6998
  793MOL0     H 4645  -0.509   1.005   9.200 -0.4026  0.2023 -0.5359
  793MOL0     H 4646  -0.363   0.968   9.423  0.7333 -0.8825  0.7814
  793MOL0     H 4647  -0.404   0.797   9.411  0.6101 -0.0057 -0.2003
  793MOL0     H 4648  -0.638   0.984   9.407 -0.1812  3.3177  4.1660
  793MOL0     H 4649  -0.628   0.823   9.475  1.4774 -0.9353  1.4339
  793MOL0     H 4650  -0.494   1.071   9.583 -2.2780  0.4966 -1.9428
  793MOL0     H 4651  -0.460   0.914   9.652  0.3782  1.4191  0.2878
  793MOL0     H 4652  -0.683   0.904   9.746 -1.3572  0.2255 -0.8732
  793MOL0     H 4653  -0.740   1.006   9.618 -0.0497  1.0630  1.1776
  793MOL0     H 4654  -0.569   1.101   9.859 -0.8156  2.5222  1.7583
  793MOL0     H 4655  -0.668   1.195   9.735  1.5628 -0.4905  0.5856
  793MOL0     H 4656  -0.856   1.058   9.835 -0.0025 -0.3458  2.0478
  793MOL0     H 4657  -0.783   1.173   9.950  1.0112 -0.2939  0.6362
  793MOL0     H 4658  -0.091   1.189   9.238 -0.1444  0.0544  0.3080
  793MOL0     H 4659   0.155   1.193   9.177  0.6806 -0.6855 -0.9181
  793MOL0     H 4660   0.532   0.959   9.009 -0.1231  1.3511  1.8690
  793MOL0     H 4661   0.767   0.997   9.002 -0.6738 -2.5081 -1.8537
  793MOL0     H 4662   2.389   1.679   8.550  3.2995 -2.6973  0.0270
  793MOL0     H 4663   2.629   1.656   8.494  1.3853  3.2608  1.7843
  793MOL0     H 4664   2.968   1.637   8.417  0.6262 -0.1767 -0.0362
  793MOL0     H 4665   3.218   1.586   8.419  1.9829  1.5944  0.9653
  793MOL0     H 4666   3.479   1.749   8.125 -0.1153  0.1608  0.9923
  793MOL0     H 4667   3.406   1.633   8.000  1.3643  1.2657 -0.0858
  793MOL0     H 4668   3.624   1.590   8.213 -1.1549 -0.3623  2.0567
  793MOL0     H 4669   3.561   1.464   8.102  0.0647 -0.2732  1.1413
  793MOL0     H 4670   3.718   1.715   8.016  0.8869  0.1535 -2.8699
  793MOL0     H 4671   3.635   1.608   7.909  0.9829 -1.3993 -0.9070
  793MOL0     H 4672   3.870   1.527   8.098  3.7866  0.8283 -1.5535
  793MOL0     H 4673   3.773   1.414   8.001 -0.3516 -1.2567  0.2746
  793MOL0     H 4674   4.037   1.613   7.720  0.4749 -0.7196 -0.3815
  793MOL0     H 4675   3.253   1.768   8.034 -0.0897  2.3406  0.2328
  793MOL0     H 4676   3.043   1.860   8.036 -0.9010 -0.6023 -0.7255
  794MOL0     O 4677   0.317   7.782   3.533 -0.3919 -0.6903  0.2573
  794MOL0     C 4678   0.373   7.871   3.460  0.0763  0.3736  0.3117
  794MOL0     O 4679   0.301   7.946   3.369 -0.4972 -0.4807  0.2458
  794MOL0     C 4680   0.170   7.942   3.352  0.6274  0.4150  0.5746
  794MOL0     C 4681   0.092   8.052   3.378  1.3836 -0.3075 -0.6662
  794MOL0     C 4682  -0.048   8.042   3.368  0.3165  0.5778 -0.0826
  794MOL0     C 4683  -0.120   7.933   3.332 -0.6259 -0.9204  0.3824
  794MOL0     O 4684  -0.257   7.918   3.321 -0.3289  0.2833  0.3848
  794MOL0     C 4685  -0.349   8.015   3.373 -0.0547 -0.3804 -0.5172
  794MOL0     C 4686  -0.493   7.977   3.344  0.1733 -0.0673 -0.1527
  794MOL0     C 4687  -0.575   8.100   3.382  0.1862 -0.3176 -0.8111
  794MOL0     C 4688  -0.725   8.071   3.371 -0.4770  0.3345 -0.0203
  794MOL0     C 4689  -0.819   8.176   3.434 -0.5167  0.1297  0.3827
  794MOL0     C 4690  -0.964   8.134   3.413  0.3217 -0.7300 -0.1483
  794MOL0     C 4691  -1.064   8.231   3.489 -0.0275  0.5406  0.1164
  794MOL0     C 4692  -1.209   8.171   3.487  0.2205  0.2131 -0.2294
  794MOL0     N 4693  -1.313   8.261   3.541 -1.1920  0.3632  0.7042
  794MOL0     C 4694  -1.410   8.222   3.626 -0.4024  0.0871  0.4391
  794MOL0     C 4695  -1.447   8.335   3.684  0.7598 -0.6971  0.1645
  794MOL0     C 4696  -1.535   8.348   3.803 -0.1122  0.1288 -0.6941
  794MOL0     C 4697  -1.683   8.372   3.764 -0.2432  0.3931  0.1002
  794MOL0     C 4698  -1.770   8.378   3.887  0.1542  0.3561 -0.6509
  794MOL0     C 4699  -1.918   8.374   3.856  0.3367  0.1545 -0.0687
  794MOL0     O 4700  -1.951   8.255   3.785 -0.1626  0.2318  0.1302
  794MOL0     C 4701  -2.089   8.241   3.757 -1.1232 -0.3664  1.1721
  794MOL0     C 4702  -2.123   8.113   3.701  0.4159  0.1988  0.7397
  794MOL0     C 4703  -2.260   8.092   3.656 -0.0002 -0.8885  0.2963
  794MOL0     C 4704  -2.366   8.185   3.682  0.2685 -0.0473  0.8909
  794MOL0     C 4705  -2.497   8.146   3.635  0.8809 -0.1378 -0.6005
  794MOL0     O 4706  -2.508   8.027   3.566 -0.0666  0.0954  0.4761
  794MOL0     C 4707  -2.623   7.981   3.519 -0.2822  0.4657  0.4827
  794MOL0     C 4708  -2.711   8.063   3.447  0.1355 -0.2458  0.0588
  794MOL0     C 4709  -2.821   8.003   3.381  0.0833 -0.5505  0.1319
  794MOL0     C 4710  -2.855   7.870   3.403  0.2466 -0.8954 -0.5901
  794MOL0     O 4711  -2.970   7.821   3.344  0.5740  0.4011  0.0846
  794MOL0     C 4712  -3.003   7.684   3.354  1.4162  0.2214 -0.2684
  794MOL0     C 4713  -3.118   7.662   3.256 -0.7165 -0.2233  0.8329
  794MOL0     C 4714  -3.214   7.548   3.288 -0.1153  0.1928 -0.4472
  794MOL0     C 4715  -3.338   7.559   3.200  0.1328  1.1693 -0.1660
  794MOL0     C 4716  -3.452   7.473   3.248  0.1503 -0.5259  0.1185
  794MOL0     C 4717  -3.574   7.502   3.164 -0.1802 -0.6866 -0.3202
  794MOL0     C 4718  -3.698   7.437   3.229 -0.1404  0.1396  0.4119
  794MOL0     C 4719  -3.833   7.510   3.193 -0.0564  0.4660  0.4997
  794MOL0    Cl 4720  -3.851   7.518   3.021  0.1957  0.5953  0.2793
  794MOL0     C 4721  -2.772   7.796   3.487 -0.1536  0.5785  0.5485
  794MOL0     C 4722  -2.653   7.847   3.539  0.6690  0.1952  0.4766
  794MOL0     O 4723  -2.592   8.214   3.663 -0.5688  0.0527  0.4839
  794MOL0     C 4724  -2.329   8.310   3.741 -0.6510 -0.5775 -0.3430
  794MOL0     C 4725  -2.196   8.329   3.783 -0.2968  0.2250 -0.3165
  794MOL0     N 4726  -1.386   8.438   3.620  0.5924  0.6069 -0.3967
  794MOL0     N 4727  -1.299   8.391   3.535 -0.1917 -0.6478  0.1123
  794MOL0     C 4728  -0.046   7.814   3.303 -0.4578  0.1760  0.2654
  794MOL0     C 4729   0.098   7.819   3.316  0.1253  0.5104 -0.2387
  794MOL0     C 4730   0.513   7.913   3.478 -1.2467 -0.0274 -0.4091
  794MOL0     C 4731   0.590   7.953   3.365 -0.1756 -0.2241 -0.0702
  794MOL0     C 4732   0.724   7.987   3.388  0.3972  0.1373  0.2871
  794MOL0     C 4733   0.780   8.000   3.515 -0.6241  0.1089  0.2427
  794MOL0     O 4734   0.912   8.038   3.521 -0.7586 -0.0115  1.2449
  794MOL0     C 4735   0.997   8.022   3.638 -0.3298  0.5427 -0.1490
  794MOL0     C 4736   0.984   8.155   3.712  0.2530  0.0307  0.3784
  794MOL0     C 4737   1.090   8.258   3.672 -0.2507  0.4340  0.2079
  794MOL0     C 4738   1.042   8.338   3.543 -0.2282 -0.6019 -0.4322
  794MOL0     C 4739   1.131   8.442   3.484 -0.0496  0.1753 -0.3102
  794MOL0     C 4740   1.213   8.522   3.441 -1.0445  0.1756  0.6997
  794MOL0     C 4741   0.699   7.965   3.623  0.8692  1.0464 -0.7635
  794MOL0     C 4742   0.569   7.922   3.609  0.8177 -0.4227  0.6537
  794MOL0     H 4743   0.135   8.147   3.408 -1.4976  0.5359  1.2097
  794MOL0     H 4744  -0.111   8.129   3.381 -0.2128 -0.1267  2.7874
  794MOL0     H 4745  -0.320   8.103   3.314  4.8009  0.7981  2.9862
  794MOL0     H 4746  -0.339   8.030   3.481 -0.1076  1.1582 -0.6988
  794MOL0     H 4747  -0.519   7.882   3.391  1.0630 -0.2157  0.0516
  794MOL0     H 4748  -0.504   7.956   3.237  0.0496 -0.0853 -0.1371
  794MOL0     H 4749  -0.541   8.185   3.321  2.9431 -1.2679 -0.7553
  794MOL0     H 4750  -0.555   8.127   3.486 -2.5579  0.2384 -0.3600
  794MOL0     H 4751  -0.753   8.058   3.266  0.8301  1.0433 -0.4667
  794MOL0     H 4752  -0.752   7.980   3.426 -2.1633  1.1184  0.5266
  794MOL0     H 4753  -0.795   8.271   3.386  3.6324 -0.3542  1.0786
  794MOL0     H 4754  -0.798   8.199   3.539 -1.0515  2.2584  0.0591
  794MOL0     H 4755  -0.965   8.036   3.462 -0.0880 -2.3373 -3.1574
  794MOL0     H 4756  -0.988   8.131   3.307 -1.7329  1.3628  0.1917
  794MOL0     H 4757  -1.028   8.253   3.590 -1.7029  2.8248  0.2782
  794MOL0     H 4758  -1.058   8.332   3.449 -0.7029  2.7429  4.8823
  794MOL0     H 4759  -1.208   8.082   3.550 -3.3124  0.1135 -0.0894
  794MOL0     H 4760  -1.238   8.151   3.383 -0.2476  0.0974 -0.0806
  794MOL0     H 4761  -1.447   8.122   3.650 -2.3042  0.0885 -2.0257
  794MOL0     H 4762  -1.500   8.426   3.872 -0.4372 -0.7002  0.4473
  794MOL0     H 4763  -1.530   8.260   3.868  0.4821  0.2216 -0.6107
  794MOL0     H 4764  -1.706   8.287   3.700  0.9137  0.4784 -0.4544
  794MOL0     H 4765  -1.695   8.460   3.700 -2.2082  1.5641  1.9654
  794MOL0     H 4766  -1.754   8.291   3.951 -4.0288 -0.8364 -0.8987
  794MOL0     H 4767  -1.751   8.473   3.938  1.8746  1.3907 -3.0691
  794MOL0     H 4768  -1.942   8.464   3.799  1.1087  0.7836  0.5745
  794MOL0     H 4769  -1.972   8.391   3.950  1.0300  3.3804 -0.1152
  794MOL0     H 4770  -2.057   8.029   3.684  0.9820  0.3006  2.2838
  794MOL0     H 4771  -2.278   7.990   3.624 -1.0227 -0.6107 -0.0634
  794MOL0     H 4772  -2.699   8.169   3.431 -0.1605 -0.0924  0.7893
  794MOL0     H 4773  -2.882   8.071   3.321 -0.1382 -2.0481 -1.4027
  794MOL0     H 4774  -3.026   7.657   3.458  2.3477  2.7085  0.6645
  794MOL0     H 4775  -2.918   7.624   3.321 -0.9548 -3.1497 -0.7800
  794MOL0     H 4776  -3.075   7.637   3.158 -2.2060 -3.2928  0.8628
  794MOL0     H 4777  -3.164   7.760   3.241  0.7887  0.2594 -1.0258
  794MOL0     H 4778  -3.247   7.557   3.392 -2.1457 -2.1920 -0.8113
  794MOL0     H 4779  -3.165   7.450   3.283  2.5731  1.5074 -2.8148
  794MOL0     H 4780  -3.373   7.661   3.187 -1.7647  0.4985 -0.7047
  794MOL0     H 4781  -3.299   7.524   3.104 -0.6533 -1.2924  0.3286
  794MOL0     H 4782  -3.481   7.504   3.349  0.4321 -1.0334  0.3580
  794MOL0     H 4783  -3.422   7.368   3.251 -2.0624 -1.2350  2.6735
  794MOL0     H 4784  -3.559   7.462   3.063 -0.4753  0.2819 -0.7572
  794MOL0     H 4785  -3.582   7.611   3.166  0.7043 -0.5783 -1.7474
  794MOL0     H 4786  -3.706   7.336   3.188 -0.0061  0.4465 -0.3870
  794MOL0     H 4787  -3.685   7.443   3.338  0.5292  2.2011  0.2424
  794MOL0     H 4788  -3.835   7.611   3.235  0.8856  0.6146  0.2051
  794MOL0     H 4789  -3.923   7.463   3.233 -1.5358  1.0225 -1.9446
  794MOL0     H 4790  -2.791   7.692   3.512 -0.6937 -0.5232 -3.6036
  794MOL0     H 4791  -2.588   7.790   3.604  1.9672  0.6344 -0.3917
  794MOL0     H 4792  -2.404   8.385   3.764  1.0659  1.5980 -1.5103
  794MOL0     H 4793  -2.187   8.424   3.835  1.1003 -0.0275 -0.0438
  794MOL0     H 4794  -0.107   7.728   3.276 -0.1954 -1.0413  3.1371
  794MOL0     H 4795   0.155   7.727   3.305  0.3470  0.7503 -1.2267
  794MOL0     H 4796   0.552   7.957   3.264 -2.9153 -0.1995  0.8701
  794MOL0     H 4797   0.793   8.013   3.308  3.4155  1.1785  3.0197
  794MOL0     H 4798   1.099   8.022   3.597  0.0315  1.7532  0.6717
  794MOL0     H 4799   1.000   7.930   3.696 -3.4897 -1.1770 -2.4137
  794MOL0     H 4800   0.884   8.199   3.705  0.1879 -0.1110  0.4114
  794MOL0     H 4801   0.994   8.128   3.817 -1.8596 -0.7322  0.4220
  794MOL0     H 4802   1.186   8.205   3.668 -2.1527 -3.3071  0.7995
  794MOL0     H 4803   1.083   8.329   3.756 -5.2724 -0.6596  1.0157
  794MOL0     H 4804   1.011   8.271   3.462 -1.0646  0.9241 -1.4247
  794MOL0     H 4805   0.946   8.386   3.561 -0.3875 -0.6200 -1.1758
  794MOL0     H 4806   1.284   8.585   3.393 -4.1089  3.1784 -0.2974
  794MOL0     H 4807   0.738   7.968   3.725 -2.2335  0.5850  0.5480
  794MOL0     H 4808   0.507   7.876   3.685 -1.3437 -1.9482 -1.8383
  795MOL0     O 4809   3.063   7.996   6.721  0.5645 -0.0792  0.0528
  795MOL0     C 4810   3.140   7.924   6.664 -0.2118 -0.0556  0.4287
  795MOL0     O 4811   3.104   7.811   6.591  0.3974  0.3293 -0.1541
  795MOL0     C 4812   2.967   7.769   6.583 -0.5074  0.0687  1.3791
  795MOL0     C 4813   2.864   7.780   6.680  0.3505 -0.0398 -1.2113
  795MOL0     C 4814   2.738   7.738   6.663 -0.2646  0.6883 -0.0003
  795MOL0     C 4815   2.705   7.670   6.542  0.5095  0.5327  0.1648
  795MOL0     O 4816   2.573   7.635   6.505  0.1785 -0.5971  0.2885
  795MOL0     C 4817   2.471   7.723   6.549 -0.8888 -0.2875  0.0716
  795MOL0     C 4818   2.351   7.704   6.461  0.3454 -0.1449 -0.3288
  795MOL0     C 4819   2.249   7.805   6.483  0.1238 -0.5634 -0.2992
  795MOL0     C 4820   2.178   7.770   6.616 -0.2045  0.5651  0.5938
  795MOL0     C 4821   2.098   7.888   6.672 -0.1353 -0.2020  0.4408
  795MOL0     C 4822   2.054   7.871   6.815 -0.5603  0.2726  0.0025
  795MOL0     C 4823   1.955   7.991   6.851 -1.2227  0.0609 -0.3960
  795MOL0     C 4824   1.901   7.992   6.993  0.2117  1.1564 -0.4130
  795MOL0     N 4825   1.849   7.869   7.057 -0.1265  0.1227  0.0245
  795MOL0     C 4826   1.720   7.827   7.048 -0.0451  0.3331  0.3932
  795MOL0     C 4827   1.711   7.711   7.122  0.1426  0.2078 -0.0880
  795MOL0     C 4828   1.586   7.642   7.158  0.1080 -0.1382 -0.6145
  795MOL0     C 4829   1.534   7.688   7.299 -0.8727 -0.6039  0.2905
  795MOL0     C 4830   1.464   7.825   7.279 -0.4915  0.4040  0.8970
  795MOL0     C 4831   1.405   7.871   7.407 -0.2541  1.0924  0.3984
  795MOL0     O 4832   1.293   7.791   7.438  0.1874 -0.0620  0.3188
  795MOL0     C 4833   1.172   7.835   7.399  0.7987  0.4789 -0.2290
  795MOL0     C 4834   1.128   7.965   7.426  0.0473  0.3685  0.4356
  795MOL0     C 4835   1.001   8.000   7.394  0.6672  0.1390 -0.9180
  795MOL0     C 4836   0.909   7.899   7.349  0.7066  0.1386 -0.7617
  795MOL0     C 4837   0.773   7.932   7.323  0.2721 -0.2572 -0.0759
  795MOL0     O 4838   0.677   7.829   7.299 -0.4506 -0.1834 -0.4605
  795MOL0     C 4839   0.591   7.838   7.195  0.0303 -0.1247  0.2033
  795MOL0     C 4840   0.585   7.939   7.095 -0.3240 -0.2348  0.3970
  795MOL0     C 4841   0.490   7.930   7.003  0.3038  0.6151  0.0229
  795MOL0     C 4842   0.388   7.834   7.001 -0.6195  1.0543  0.4019
  795MOL0     O 4843   0.289   7.836   6.906  0.0536  0.1609  0.0324
  795MOL0     C 4844   0.230   7.969   6.896  1.0749  0.4750 -0.4184
  795MOL0     C 4845   0.087   7.954   6.842 -0.1117  0.1938  0.0231
  795MOL0     C 4846  -0.009   7.888   6.948 -0.4704  0.4841 -0.5251
  795MOL0     C 4847  -0.148   7.860   6.880 -0.0008  0.5196 -0.0815
  795MOL0     C 4848  -0.246   7.815   6.990 -0.0685 -0.1282  0.2684
  795MOL0     C 4849  -0.216   7.674   7.045 -0.7240 -0.5527  0.0379
  795MOL0     C 4850  -0.230   7.565   6.940 -0.1887  0.2490  0.1348
  795MOL0     C 4851  -0.206   7.435   7.017 -0.2780  0.7177  0.1142
  795MOL0    Cl 4852  -0.209   7.290   6.918 -0.1191  0.1897  0.0341
  795MOL0     C 4853   0.387   7.743   7.102 -0.1734  0.0894 -0.1135
  795MOL0     C 4854   0.485   7.743   7.199 -0.3569  0.0583 -0.3472
  795MOL0     O 4855   0.743   8.047   7.342 -0.7062  0.3846 -0.9380
  795MOL0     C 4856   0.954   7.772   7.321  0.0124  0.5052  0.0236
  795MOL0     C 4857   1.086   7.741   7.344  0.1510 -0.1118  0.2317
  795MOL0     N 4858   1.837   7.675   7.161 -0.8658  0.1814  0.1592
  795MOL0     N 4859   1.918   7.762   7.115  0.4158 -0.1937  0.4229
  795MOL0     C 4860   2.809   7.641   6.451 -0.4308  1.0661 -0.7179
  795MOL0     C 4861   2.935   7.693   6.465 -0.1990 -1.0626 -0.0208
  795MOL0     C 4862   3.289   7.963   6.650 -0.9846  0.6652 -0.6736
  795MOL0     C 4863   3.371   7.883   6.562 -0.5928 -0.7368 -0.0441
  795MOL0     C 4864   3.500   7.925   6.531 -0.7988  0.1011 -0.0008
  795MOL0     C 4865   3.549   8.045   6.585  0.6088  0.5804 -0.0489
  795MOL0     O 4866   3.675   8.097   6.567  0.4792  0.6415 -0.8249
  795MOL0     C 4867   3.782   8.014   6.523  0.3205  0.0559 -0.3495
  795MOL0     C 4868   3.772   8.009   6.367 -0.0775 -0.2787 -0.2851
  795MOL0     C 4869   3.748   8.144   6.296  0.0021  0.2779  0.2737
  795MOL0     C 4870   3.683   8.118   6.148  0.0039 -0.0243 -0.5268
  795MOL0     C 4871   3.771   8.035   6.069 -0.4590  0.9429 -0.6766
  795MOL0     C 4872   3.846   7.967   6.001 -0.2989  0.1597 -0.6889
  795MOL0     C 4873   3.477   8.118   6.679  0.2027  0.6545 -0.0558
  795MOL0     C 4874   3.341   8.080   6.705  0.2420 -0.4957 -0.9621
  795MOL0     H 4875   2.877   7.825   6.778 -0.1489  2.8615 -2.3952
  795MOL0     H 4876   2.668   7.760   6.742 -0.0792 -1.5864  0.8916
  795MOL0     H 4877   2.500   7.825   6.523  0.4060 -0.3410  1.1994
  795MOL0     H 4878   2.453   7.723   6.657  0.3272 -1.2503  0.2978
  795MOL0     H 4879   2.304   7.608   6.483 -0.5216  0.5642  1.0497
  795MOL0     H 4880   2.383   7.711   6.356 -2.0912 -3.1736 -1.4150
  795MOL0     H 4881   2.181   7.809   6.398  2.5952 -0.4459 -2.4191
  795MOL0     H 4882   2.294   7.905   6.495  0.0877 -0.8160  2.3631
  795MOL0     H 4883   2.118   7.680   6.600 -3.1703  2.6137 -0.9540
  795MOL0     H 4884   2.255   7.734   6.684 -0.6339  1.1351  1.4040
  795MOL0     H 4885   2.014   7.905   6.605 -2.2279  0.4623  3.0505
  795MOL0     H 4886   2.167   7.972   6.678  0.4205 -0.5874 -0.3836
  795MOL0     H 4887   2.140   7.881   6.882 -2.1003  0.9312  1.9883
  795MOL0     H 4888   2.011   7.771   6.828  1.4878 -0.7316 -0.5953
  795MOL0     H 4889   2.014   8.082   6.837 -1.8840  0.4670 -0.6067
  795MOL0     H 4890   1.879   7.985   6.773  1.2189 -0.2614 -2.8976
  795MOL0     H 4891   1.820   8.065   6.996 -0.1791  0.7109  0.9577
  795MOL0     H 4892   1.986   8.022   7.055  0.4035 -0.5697  0.2107
  795MOL0     H 4893   1.634   7.868   6.996 -0.6910 -1.2929  0.1157
  795MOL0     H 4894   1.614   7.537   7.165  0.7525  0.0370 -0.4884
  795MOL0     H 4895   1.509   7.659   7.082  1.1947 -0.7200 -1.8831
  795MOL0     H 4896   1.614   7.691   7.373  1.3665 -1.6841 -1.9358
  795MOL0     H 4897   1.466   7.608   7.330 -1.4410 -1.4415 -2.7721
  795MOL0     H 4898   1.536   7.897   7.240 -0.5611 -0.7356 -1.5014
  795MOL0     H 4899   1.389   7.808   7.201  0.7420 -2.2417  0.1964
  795MOL0     H 4900   1.383   7.978   7.401 -3.2323  0.6976  2.5787
  795MOL0     H 4901   1.479   7.859   7.486 -0.6744  0.2354  0.6727
  795MOL0     H 4902   1.193   8.037   7.475  2.6955  0.2113 -2.5814
  795MOL0     H 4903   0.976   8.104   7.414  5.4302  1.4592 -0.7071
  795MOL0     H 4904   0.651   8.026   7.094 -0.9072  0.2282  0.9944
  795MOL0     H 4905   0.498   8.000   6.920  2.0118  1.6674  0.9992
  795MOL0     H 4906   0.288   8.026   6.822 -0.0636  0.9552 -0.9706
  795MOL0     H 4907   0.239   8.030   6.986 -0.4840 -0.2450  0.2471
  795MOL0     H 4908   0.081   7.887   6.756 -1.0211 -1.2792  1.1744
  795MOL0     H 4909   0.042   8.051   6.819 -0.8188 -0.3814 -1.0826
  795MOL0     H 4910  -0.015   7.936   7.046  0.1447 -1.1300  0.3356
  795MOL0     H 4911   0.033   7.790   6.974 -3.1808 -0.0456  2.5563
  795MOL0     H 4912  -0.192   7.954   6.844 -2.1557 -0.8616 -1.2974
  795MOL0     H 4913  -0.141   7.785   6.800 -0.3535 -2.4650  2.4906
  795MOL0     H 4914  -0.343   7.808   6.939  0.0680  2.2049 -0.4449
  795MOL0     H 4915  -0.258   7.894   7.065 -0.5843  1.4517 -1.4059
  795MOL0     H 4916  -0.299   7.654   7.113 -0.4162 -0.4498  0.4531
  795MOL0     H 4917  -0.130   7.675   7.114 -0.0832  1.5671 -0.7420
  795MOL0     H 4918  -0.336   7.559   6.912 -0.3468 -1.5513  0.9554
  795MOL0     H 4919  -0.166   7.576   6.852 -1.7674 -1.2921 -1.2953
  795MOL0     H 4920  -0.275   7.415   7.100  1.5284  0.0682  1.5204
  795MOL0     H 4921  -0.111   7.434   7.070 -0.1217  3.3492  0.0089
  795MOL0     H 4922   0.314   7.663   7.116  0.8721 -0.5204  2.5404
  795MOL0     H 4923   0.488   7.670   7.279 -2.4779  0.9363  0.6032
  795MOL0     H 4924   0.880   7.696   7.301 -2.5177  3.1658 -1.4253
  795MOL0     H 4925   1.124   7.641   7.326  1.7754  0.3919  0.7203
  795MOL0     H 4926   2.798   7.585   6.359 -1.8538 -1.7400  1.0306
  795MOL0     H 4927   3.009   7.684   6.386 -0.0475  1.8726 -0.3118
  795MOL0     H 4928   3.335   7.795   6.510 -1.3951 -0.0116 -0.7510
  795MOL0     H 4929   3.566   7.861   6.473 -1.2162 -0.7478  0.4368
  795MOL0     H 4930   3.794   7.911   6.559  3.3893 -0.1577 -1.7135
  795MOL0     H 4931   3.868   8.074   6.551 -0.2635  1.3471 -1.2640
  795MOL0     H 4932   3.869   7.973   6.330  0.7113 -0.5549  1.8950
  795MOL0     H 4933   3.700   7.934   6.334  1.3491 -1.7867 -0.1517
  795MOL0     H 4934   3.842   8.200   6.290 -0.4193  1.0879  1.0664
  795MOL0     H 4935   3.686   8.207   6.359  1.0004 -1.1667  2.8684
  795MOL0     H 4936   3.587   8.067   6.156 -1.0024  1.8231 -0.0629
  795MOL0     H 4937   3.674   8.210   6.090  0.0220 -1.4065 -2.7998
  795MOL0     H 4938   3.906   7.904   5.939  0.4367 -0.2362  0.4043
  795MOL0     H 4939   3.513   8.209   6.727 -0.7253  1.4547 -0.8246
  795MOL0     H 4940   3.281   8.145   6.768  3.4797  2.3782 -0.5877
  796MOL0     O 4941   4.318   5.249   2.663  0.4173 -0.4798 -0.0987
  796MOL0     C 4942   4.385   5.241   2.558  0.0737  0.3498 -0.0281
  796MOL0     O 4943   4.335   5.197   2.437  0.5231  0.4447  0.2348
  796MOL0     C 4944   4.200   5.165   2.426 -0.6872  0.3235  0.6466
  796MOL0     C 4945   4.123   5.088   2.515 -1.5864 -0.1682  0.4174
  796MOL0     C 4946   3.996   5.051   2.482 -0.0836  0.4746 -0.4407
  796MOL0     C 4947   3.930   5.096   2.368  0.1622  0.5209 -0.7660
  796MOL0     O 4948   3.796   5.065   2.348  0.3804  1.8014  0.3569
  796MOL0     C 4949   3.746   4.936   2.393 -0.1871 -0.4735  0.4561
  796MOL0     C 4950   3.759   4.842   2.271 -0.5137  0.0276 -0.0134
  796MOL0     C 4951   3.636   4.848   2.181 -0.5604 -0.2700 -0.3493
  796MOL0     C 4952   3.661   4.759   2.057  0.8143 -0.0812  0.0921
  796MOL0     C 4953   3.550   4.772   1.965  0.0466 -0.2314  1.0090
  796MOL0     C 4954   3.424   4.690   2.012  0.0574  0.6057 -0.0206
  796MOL0     C 4955   3.302   4.719   1.924 -0.4582  0.1697  0.9820
  796MOL0     C 4956   3.166   4.687   1.995 -0.3762 -0.3630 -0.0261
  796MOL0     N 4957   3.043   4.706   1.911 -0.4072  0.1982 -0.2159
  796MOL0     C 4958   3.010   4.828   1.852  0.4521 -0.4135 -0.6744
  796MOL0     C 4959   2.881   4.821   1.806  0.0330 -0.3486 -0.2123
  796MOL0     C 4960   2.800   4.913   1.719  0.6427 -0.3309  0.5548
  796MOL0     C 4961   2.671   4.847   1.665 -0.7208 -0.1667 -0.8536
  796MOL0     C 4962   2.613   4.952   1.565 -0.7895  0.9032 -1.0139
  796MOL0     C 4963   2.476   4.909   1.505  0.1088  0.0513 -0.5931
  796MOL0     O 4964   2.388   4.896   1.619  0.3884 -0.1875 -0.5592
  796MOL0     C 4965   2.264   4.841   1.603  0.1341 -0.2778 -0.4833
  796MOL0     C 4966   2.204   4.788   1.485 -0.2076 -0.9205  0.7359
  796MOL0     C 4967   2.073   4.752   1.479  0.3182 -0.1959  0.7318
  796MOL0     C 4968   1.989   4.756   1.591 -0.7138 -0.9127  1.1405
  796MOL0     C 4969   1.845   4.716   1.587 -0.1426  0.8056  0.0982
  796MOL0     O 4970   1.779   4.699   1.706 -0.8890 -0.1055 -0.5914
  796MOL0     C 4971   1.651   4.661   1.688  0.2566  0.1290  0.0136
  796MOL0     C 4972   1.549   4.748   1.654  0.6786  0.7243  0.1430
  796MOL0     C 4973   1.433   4.711   1.595  0.2106 -0.1997  0.5487
  796MOL0     C 4974   1.394   4.576   1.592  0.3144 -0.7314 -0.7424
  796MOL0     O 4975   1.278   4.538   1.542 -0.8718 -0.7971 -0.3259
  796MOL0     C 4976   1.169   4.632   1.549 -0.4871 -0.2951 -0.0326
  796MOL0     C 4977   1.059   4.537   1.505 -0.3970 -0.4243 -0.4292
  796MOL0     C 4978   0.917   4.600   1.506  0.2029  0.6472 -0.0196
  796MOL0     C 4979   0.806   4.496   1.462 -0.9852 -0.2371  0.1968
  796MOL0     C 4980   0.699   4.565   1.368 -0.8426  0.1378  0.8092
  796MOL0     C 4981   0.723   4.560   1.216  0.4035 -0.7555  0.0258
  796MOL0     C 4982   0.612   4.494   1.134 -0.7157  0.0484  1.2583
  796MOL0     C 4983   0.613   4.346   1.149  0.1383 -0.5242 -0.4493
  796MOL0    Cl 4984   0.488   4.302   1.271 -0.0338  0.4459  0.0718
  796MOL0     C 4985   1.488   4.485   1.635 -0.5636  0.0711 -0.6153
  796MOL0     C 4986   1.622   4.530   1.677 -0.5508 -0.2310 -0.5448
  796MOL0     O 4987   1.800   4.699   1.469  0.2641 -0.1213 -1.0683
  796MOL0     C 4988   2.039   4.805   1.708 -0.6880 -0.6703  0.0444
  796MOL0     C 4989   2.177   4.852   1.713  0.1875 -0.4478  0.6056
  796MOL0     N 4990   2.855   4.685   1.820 -0.0638 -0.0725  0.4330
  796MOL0     N 4991   2.940   4.619   1.895 -1.1687  0.4097  0.0241
  796MOL0     C 4992   4.001   5.176   2.277 -0.5322  0.3114  0.7859
  796MOL0     C 4993   4.134   5.207   2.312 -0.7591 -0.2873  0.5373
  796MOL0     C 4994   4.532   5.276   2.567 -0.1999  0.4944 -0.0342
  796MOL0     C 4995   4.616   5.283   2.456  0.2448  0.0742  0.4728
  796MOL0     C 4996   4.755   5.302   2.473 -0.3546 -1.1163 -0.3112
  796MOL0     C 4997   4.808   5.316   2.602  0.4757 -0.8096  0.6609
  796MOL0     O 4998   4.943   5.324   2.629  0.3578 -0.2265  1.0813
  796MOL0     C 4999   5.015   5.433   2.568  0.4989 -0.1197 -1.0180
  796MOL0     C 5000   5.136   5.394   2.488 -0.1235 -0.6211 -0.0868
  796MOL0     C 5001   5.233   5.311   2.576  0.0115  0.9126  0.2157
  796MOL0     C 5002   5.283   5.396   2.680 -0.1107  0.7814  0.4373
  796MOL0     C 5003   5.407   5.330   2.732  0.2047  0.2393 -0.5597
  796MOL0     C 5004   5.504   5.263   2.760 -0.6588  0.0849 -0.0287
  796MOL0     C 5005   4.720   5.319   2.711  0.3597 -0.0721  0.4443
  796MOL0     C 5006   4.582   5.291   2.694 -0.7214 -0.1608 -0.6034
  796MOL0     H 5007   4.168   5.042   2.603 -0.3514  0.1503 -0.0349
  796MOL0     H 5008   3.953   4.986   2.558  0.8882 -2.4081 -2.1863
  796MOL0     H 5009   3.639   4.946   2.416 -0.5367 -1.1926 -0.7774
  796MOL0     H 5010   3.794   4.901   2.485  0.3522  1.3940  0.9349
  796MOL0     H 5011   3.781   4.739   2.301  2.4395  0.1792 -1.3038
  796MOL0     H 5012   3.841   4.880   2.210  0.1004 -0.7071  0.3332
  796MOL0     H 5013   3.607   4.943   2.135 -2.4214 -1.2485 -1.3121
  796MOL0     H 5014   3.554   4.813   2.244  0.3997  0.0292  1.1225
  796MOL0     H 5015   3.757   4.789   2.014  0.7301  3.1084  1.8252
  796MOL0     H 5016   3.668   4.656   2.093 -1.3859 -0.3883 -0.1874
  796MOL0     H 5017   3.588   4.726   1.873  5.6631 -1.9530  3.7247
  796MOL0     H 5018   3.524   4.876   1.943  1.1964 -0.3518 -1.1837
  796MOL0     H 5019   3.395   4.728   2.110 -0.8900  1.7648 -0.7240
  796MOL0     H 5020   3.452   4.584   2.016  0.7638  0.8052  0.4450
  796MOL0     H 5021   3.298   4.823   1.892 -0.0684  0.5403  2.0616
  796MOL0     H 5022   3.313   4.666   1.829 -0.9092 -1.2177  1.6767
  796MOL0     H 5023   3.161   4.755   2.080  3.8596  0.2755 -0.0712
  796MOL0     H 5024   3.173   4.581   2.022 -2.0525 -0.6263 -0.4906
  796MOL0     H 5025   3.066   4.920   1.840  1.3574 -0.9404 -0.5243
  796MOL0     H 5026   2.863   4.945   1.636 -1.6855  0.9758 -0.8126
  796MOL0     H 5027   2.778   5.003   1.778 -2.5948 -0.0077 -0.9410
  796MOL0     H 5028   2.604   4.830   1.750 -0.3235  3.7362  0.4541
  796MOL0     H 5029   2.698   4.755   1.612 -2.2029 -1.7210  0.9490
  796MOL0     H 5030   2.601   5.050   1.613  0.8131  0.8485 -0.4546
  796MOL0     H 5031   2.679   4.974   1.481  0.0811  0.1736 -0.5335
  796MOL0     H 5032   2.479   4.815   1.450  0.4722  1.1064 -2.4322
  796MOL0     H 5033   2.441   4.989   1.440 -1.4401  0.1262  0.2764
  796MOL0     H 5034   2.262   4.779   1.393 -1.1214 -2.2384  0.2570
  796MOL0     H 5035   2.036   4.705   1.389 -2.9245  0.0102  1.8408
  796MOL0     H 5036   1.567   4.855   1.663  0.3471  0.7208  0.9440
  796MOL0     H 5037   1.364   4.791   1.570  0.2266 -0.1898  0.5363
  796MOL0     H 5038   1.183   4.713   1.478 -1.2492 -0.1319 -0.0035
  796MOL0     H 5039   1.145   4.670   1.648 -1.9850 -0.6130 -0.2500
  796MOL0     H 5040   1.051   4.450   1.571 -0.9849  0.0605  0.1453
  796MOL0     H 5041   1.087   4.494   1.408  1.4803 -0.4233  0.0597
  796MOL0     H 5042   0.901   4.687   1.442 -0.8887 -0.7038 -1.6707
  796MOL0     H 5043   0.894   4.628   1.609 -0.4435  0.1627 -0.0260
  796MOL0     H 5044   0.857   4.416   1.408 -0.9591  0.4437 -0.8277
  796MOL0     H 5045   0.758   4.457   1.552 -1.4846 -3.9667 -1.5267
  796MOL0     H 5046   0.680   4.666   1.406 -1.0110  0.6302 -0.5210
  796MOL0     H 5047   0.603   4.518   1.392 -2.0355  3.3506  2.9320
  796MOL0     H 5048   0.815   4.503   1.211  1.2339  0.3564  1.7501
  796MOL0     H 5049   0.753   4.657   1.175 -0.5427 -0.7919 -0.7914
  796MOL0     H 5050   0.522   4.552   1.154  0.6200  1.7919  2.4767
  796MOL0     H 5051   0.642   4.517   1.031  0.3607 -0.6011  1.4010
  796MOL0     H 5052   0.711   4.300   1.162  0.9463  0.6151 -2.1449
  796MOL0     H 5053   0.571   4.304   1.056  0.2063  1.0125 -1.2010
  796MOL0     H 5054   1.474   4.377   1.640  3.6902 -0.6516 -0.8851
  796MOL0     H 5055   1.700   4.459   1.704 -0.5308 -0.5584 -1.4149
  796MOL0     H 5056   1.967   4.812   1.788 -0.0548 -0.0495  0.5692
  796MOL0     H 5057   2.212   4.899   1.805  1.4149  1.5231 -0.7835
  796MOL0     H 5058   3.969   5.209   2.179  2.3121 -0.3905 -0.4914
  796MOL0     H 5059   4.200   5.264   2.248 -1.4067  0.6769  0.6957
  796MOL0     H 5060   4.578   5.254   2.359 -0.8325  3.4590 -0.2675
  796MOL0     H 5061   4.830   5.289   2.396  0.8820  0.1266  0.6440
  796MOL0     H 5062   5.046   5.502   2.648  1.3560 -1.2736 -0.3297
  796MOL0     H 5063   4.953   5.489   2.497  0.9432 -0.0637 -1.3641
  796MOL0     H 5064   5.100   5.343   2.398  3.0772  2.6607 -3.6071
  796MOL0     H 5065   5.175   5.485   2.443 -3.1234 -0.5707 -2.9632
  796MOL0     H 5066   5.307   5.275   2.504 -0.9334  1.4483 -1.0715
  796MOL0     H 5067   5.182   5.225   2.621  0.5968  0.0380 -0.7683
  796MOL0     H 5068   5.302   5.498   2.646  2.5554 -0.0440 -0.8435
  796MOL0     H 5069   5.206   5.401   2.758 -1.2596 -1.4298 -0.4595
  796MOL0     H 5070   5.597   5.217   2.789  0.2882  2.1005  0.3426
  796MOL0     H 5071   4.754   5.349   2.810  1.3320  1.5135 -0.3239
  796MOL0     H 5072   4.514   5.299   2.778 -0.3786 -0.3860 -0.2990
  797MOL0     O 5073   4.102   9.827   6.932 -0.3959 -0.0132 -0.2795
  797MOL0     C 5074   4.140   9.790   6.821 -0.6883  0.0618 -0.5403
  797MOL0     O 5075   4.061   9.760   6.717  0.2700 -0.5751  0.3364
  797MOL0     C 5076   3.928   9.781   6.731 -0.4169  0.8095  0.3941
  797MOL0     C 5077   3.885   9.915   6.713  0.6191 -0.1767  0.3869
  797MOL0     C 5078   3.749   9.943   6.712 -0.6213 -0.0134  0.5302
  797MOL0     C 5079   3.653   9.840   6.746 -0.2472 -0.5959  0.3681
  797MOL0     O 5080   3.523   9.879   6.767 -0.4555 -0.6213  0.3080
  797MOL0     C 5081   3.447   9.792   6.847  0.3133  0.1997  0.4962
  797MOL0     C 5082   3.302   9.832   6.875  0.6320  0.5769 -0.6578
  797MOL0     C 5083   3.199   9.729   6.920 -0.5980  0.1077  0.1355
  797MOL0     C 5084   3.067   9.797   6.963  0.6697 -1.0829 -1.1400
  797MOL0     C 5085   2.956   9.693   6.996  1.0068 -0.1272  0.6621
  797MOL0     C 5086   2.817   9.763   7.039 -0.6201  0.1329  0.1527
  797MOL0     C 5087   2.705   9.657   7.041 -0.7421 -0.9069 -0.0765
  797MOL0     C 5088   2.715   9.557   7.153  0.2504 -0.8151  1.4386
  797MOL0     N 5089   2.628   9.441   7.117 -0.2852  0.5539 -0.2611
  797MOL0     C 5090   2.662   9.337   7.030 -0.6523  0.2755 -0.3042
  797MOL0     C 5091   2.566   9.239   7.061 -0.6227  0.8615 -0.0580
  797MOL0     C 5092   2.545   9.111   6.980 -0.5015  0.4848  0.3162
  797MOL0     C 5093   2.402   9.102   6.934  0.0373 -0.4564 -0.2927
  797MOL0     C 5094   2.383   9.001   6.816  0.1982 -0.6173 -0.0726
  797MOL0     C 5095   2.238   8.992   6.758  0.1530 -0.2098 -0.6543
  797MOL0     O 5096   2.171   8.917   6.864 -0.2758 -0.0805 -0.0775
  797MOL0     C 5097   2.036   8.885   6.853  0.1926 -0.1857 -0.5637
  797MOL0     C 5098   1.942   8.967   6.787  0.0453  0.1603 -0.7684
  797MOL0     C 5099   1.806   8.935   6.788 -0.2788 -0.3544 -0.1084
  797MOL0     C 5100   1.755   8.822   6.858  0.0287 -0.0533 -0.3920
  797MOL0     C 5101   1.611   8.792   6.852  0.3390 -0.8000 -1.1673
  797MOL0     O 5102   1.579   8.670   6.905 -0.5200 -0.7257 -0.0146
  797MOL0     C 5103   1.450   8.635   6.920  0.5019 -0.5709  0.3845
  797MOL0     C 5104   1.345   8.659   6.825  0.2770 -0.2170  0.0406
  797MOL0     C 5105   1.214   8.630   6.868 -0.3065 -0.3259 -0.1238
  797MOL0     C 5106   1.186   8.549   6.980 -0.3027  0.0761 -0.4709
  797MOL0     O 5107   1.063   8.500   7.024 -0.2899 -0.2463 -0.1141
  797MOL0     C 5108   0.950   8.506   6.930 -1.5721 -0.0503  0.3140
  797MOL0     C 5109   0.866   8.386   6.959 -0.7038  0.6658 -0.6243
  797MOL0     C 5110   0.727   8.425   6.929  0.6173  0.3671  0.1626
  797MOL0     C 5111   0.631   8.317   6.976  1.0202 -0.4621 -0.2872
  797MOL0     C 5112   0.481   8.369   6.969 -0.3582  0.1231  0.1638
  797MOL0     C 5113   0.439   8.353   6.828  0.2840  0.5410  0.6317
  797MOL0     C 5114   0.290   8.398   6.815  0.4164 -0.4404  0.8092
  797MOL0     C 5115   0.271   8.497   6.700  0.2396 -0.5319  0.0699
  797MOL0    Cl 5116   0.294   8.399   6.560  0.0555 -0.0213 -0.4542
  797MOL0     C 5117   1.301   8.508   7.060  0.1548  0.1213  0.4985
  797MOL0     C 5118   1.428   8.559   7.034 -0.6691  0.4795  0.0025
  797MOL0     O 5119   1.537   8.886   6.820  0.0025 -0.9897 -0.2062
  797MOL0     C 5120   1.856   8.746   6.927 -0.3969  1.0084 -0.1996
  797MOL0     C 5121   1.982   8.778   6.926  0.5149 -0.7305 -0.2589
  797MOL0     N 5122   2.484   9.285   7.157  0.1937 -0.5812  0.1754
  797MOL0     N 5123   2.515   9.404   7.188  0.4798 -0.8817  0.0481
  797MOL0     C 5124   3.700   9.715   6.749 -0.0493  0.6913  0.3658
  797MOL0     C 5125   3.838   9.681   6.735 -0.4978  0.2322  0.4027
  797MOL0     C 5126   4.285   9.801   6.786 -0.1390 -0.2501 -0.0576
  797MOL0     C 5127   4.329   9.812   6.653 -0.2392 -0.3158 -0.2572
  797MOL0     C 5128   4.465   9.816   6.619 -0.6321  0.3385 -0.1839
  797MOL0     C 5129   4.569   9.797   6.713 -1.1667  0.1085 -0.5270
  797MOL0     O 5130   4.703   9.807   6.665  0.6771  0.0820 -0.4498
  797MOL0     C 5131   4.804   9.753   6.758  1.0207 -0.4657  0.3446
  797MOL0     C 5132   4.944   9.745   6.694 -0.2849  0.1062  1.0360
  797MOL0     C 5133   5.013   9.609   6.738 -0.9308  1.2796  0.2019
  797MOL0     C 5134   5.132   9.575   6.648 -0.5328  0.2678  0.2779
  797MOL0     C 5135   5.241   9.654   6.700  0.0586 -0.0635  0.6217
  797MOL0     C 5136   5.329   9.725   6.744 -0.1231 -0.3302 -0.5187
  797MOL0     C 5137   4.528   9.780   6.846  0.5068 -0.5141 -0.0579
  797MOL0     C 5138   4.392   9.784   6.885 -0.1961 -0.4532 -0.1886
  797MOL0     H 5139   3.949   9.999   6.688 -2.4625  1.2089 -3.8970
  797MOL0     H 5140   3.709  10.043   6.705  2.6907  1.8491  4.2059
  797MOL0     H 5141   3.488   9.770   6.946 -2.5077  0.3773  1.7933
  797MOL0     H 5142   3.447   9.689   6.810 -2.5867 -0.1905  1.3531
  797MOL0     H 5143   3.262   9.887   6.790 -2.9072 -2.3646 -1.1619
  797MOL0     H 5144   3.312   9.907   6.954 -0.7961  0.4723 -0.3433
  797MOL0     H 5145   3.234   9.672   7.006  0.1544 -0.8813 -0.8078
  797MOL0     H 5146   3.184   9.662   6.834  2.3177  1.8298 -1.9032
  797MOL0     H 5147   3.083   9.863   7.049  0.6227 -1.3566 -0.9192
  797MOL0     H 5148   3.030   9.863   6.884  1.4678  0.2641 -0.4263
  797MOL0     H 5149   2.990   9.622   7.072 -2.4953 -0.6164  1.9303
  797MOL0     H 5150   2.936   9.630   6.909  1.6764 -0.4070  0.7060
  797MOL0     H 5151   2.802   9.845   6.968  2.1217 -0.8074 -1.6618
  797MOL0     H 5152   2.845   9.819   7.129  0.5112  0.1329 -0.1904
  797MOL0     H 5153   2.606   9.702   7.047  0.2994  1.2850  2.9709
  797MOL0     H 5154   2.698   9.608   6.943 -1.3753 -0.1754 -0.4057
  797MOL0     H 5155   2.692   9.596   7.253 -0.2832 -1.8067  1.7122
  797MOL0     H 5156   2.817   9.519   7.163  0.6484  0.1677  1.1791
  797MOL0     H 5157   2.736   9.346   6.952 -0.5653  1.4201 -0.0942
  797MOL0     H 5158   2.585   9.030   7.043  1.8314  2.9680  2.2462
  797MOL0     H 5159   2.614   9.119   6.895  2.6874  2.3674  2.8395
  797MOL0     H 5160   2.368   9.200   6.897  2.5260  0.3986 -0.4779
  797MOL0     H 5161   2.337   9.077   7.018  0.6504 -0.4918  0.1769
  797MOL0     H 5162   2.443   9.043   6.735 -1.0971  0.8757 -0.2987
  797MOL0     H 5163   2.417   8.901   6.844  1.1549 -1.0349 -2.4615
  797MOL0     H 5164   2.229   8.939   6.663 -0.0156  0.6631 -1.1270
  797MOL0     H 5165   2.196   9.092   6.749  1.4041  0.2778 -1.1597
  797MOL0     H 5166   1.992   9.049   6.736  2.8958 -2.1587 -1.9654
  797MOL0     H 5167   1.738   8.997   6.731 -0.6624 -1.0885 -0.4538
  797MOL0     H 5168   1.363   8.721   6.737 -0.5945 -1.4963 -1.0718
  797MOL0     H 5169   1.130   8.669   6.812 -1.2865 -0.6448  1.0906
  797MOL0     H 5170   0.993   8.502   6.830  1.6583 -0.5630  1.5864
  797MOL0     H 5171   0.896   8.601   6.941 -0.3351  0.8365 -0.8511
  797MOL0     H 5172   0.873   8.352   7.063  4.2473  0.2470 -0.8865
  797MOL0     H 5173   0.897   8.296   6.906  1.4247  0.7916  0.3180
  797MOL0     H 5174   0.718   8.444   6.822  3.6115  1.0768 -0.0507
  797MOL0     H 5175   0.696   8.521   6.972 -1.4545  0.1081 -0.6431
  797MOL0     H 5176   0.651   8.217   6.934  5.2070 -0.9997  2.3699
  797MOL0     H 5177   0.655   8.298   7.081 -2.5057 -1.9276  0.4150
  797MOL0     H 5178   0.478   8.475   6.996  2.8642  0.6312 -1.0694
  797MOL0     H 5179   0.421   8.313   7.041 -2.4684 -0.5734 -1.9966
  797MOL0     H 5180   0.445   8.254   6.782 -2.8386  1.4014 -2.0764
  797MOL0     H 5181   0.495   8.418   6.760 -0.6425 -1.4669 -2.2768
  797MOL0     H 5182   0.230   8.307   6.800  1.2824 -0.7990 -0.7407
  797MOL0     H 5183   0.255   8.442   6.909 -0.2950 -2.8767  1.7658
  797MOL0     H 5184   0.348   8.574   6.703 -1.8604  1.8358 -1.9653
  797MOL0     H 5185   0.176   8.551   6.705  1.5276  2.2212 -2.1672
  797MOL0     H 5186   1.281   8.452   7.151 -2.1772  1.6241  0.9839
  797MOL0     H 5187   1.522   8.534   7.083 -0.4909  1.9844  0.4560
  797MOL0     H 5188   1.838   8.658   6.987  2.9548 -0.0902 -0.6256
  797MOL0     H 5189   2.054   8.714   6.976  2.4087 -0.3563 -2.3427
  797MOL0     H 5190   3.634   9.630   6.739  0.1988  0.3930  1.1568
  797MOL0     H 5191   3.864   9.577   6.719 -1.8134 -0.2215  1.1352
  797MOL0     H 5192   4.259   9.813   6.571 -0.8410 -4.0057  0.0471
  797MOL0     H 5193   4.491   9.857   6.522  0.6418  2.5341  1.0236
  797MOL0     H 5194   4.766   9.656   6.792 -4.2591  0.7058 -1.3123
  797MOL0     H 5195   4.813   9.818   6.845 -2.6593  2.0679 -0.8953
  797MOL0     H 5196   4.924   9.749   6.587 -3.9573  1.2277  1.6198
  797MOL0     H 5197   5.005   9.829   6.729 -1.7281  2.1850 -1.1351
  797MOL0     H 5198   4.946   9.523   6.733  1.1168 -0.6572  2.9444
  797MOL0     H 5199   5.039   9.625   6.843  0.1303  1.3753 -0.0662
  797MOL0     H 5200   5.169   9.473   6.661  3.5396  0.9656 -3.3765
  797MOL0     H 5201   5.110   9.600   6.544 -0.5188 -0.5169  0.0787
  797MOL0     H 5202   5.403   9.790   6.786 -0.6337  0.0001 -0.1237
  797MOL0     H 5203   4.602   9.752   6.921 -0.0678  0.6836  0.9700
  797MOL0     H 5204   4.363   9.758   6.986  0.4140 -2.3387 -0.4766
  798MOL0     O 5205   6.044   0.112   6.131 -0.0202 -0.4738 -0.2355
  798MOL0     C 5206   6.093   0.002   6.154 -0.6173 -0.5231  0.1795
  798MOL0     O 5207   6.042  -0.089   6.233  0.2378  0.0537  0.4429
  798MOL0     C 5208   5.909  -0.122   6.236 -0.5062 -0.4233 -1.0844
  798MOL0     C 5209   5.863  -0.180   6.354  0.0714 -0.2953 -0.1863
  798MOL0     C 5210   5.732  -0.225   6.356  0.3766 -0.4719 -0.2236
  798MOL0     C 5211   5.652  -0.208   6.243  0.8934  0.1769  0.1710
  798MOL0     O 5212   5.522  -0.241   6.268 -0.5291 -0.3192  0.0112
  798MOL0     C 5213   5.427  -0.188   6.169  0.1805  0.2554  1.1702
  798MOL0     C 5214   5.279  -0.216   6.226  0.5354  0.1488 -0.0761
  798MOL0     C 5215   5.164  -0.171   6.137 -0.4890  0.4318 -0.2925
  798MOL0     C 5216   5.034  -0.202   6.211  0.1710 -0.0063  0.1009
  798MOL0     C 5217   4.927  -0.198   6.108  0.1903  0.3062  0.2124
  798MOL0     C 5218   4.789  -0.201   6.169 -0.3031 -0.3669  0.8280
  798MOL0     C 5219   4.680  -0.217   6.054  0.6709  0.0219  0.5499
  798MOL0     C 5220   4.538  -0.180   6.099 -0.2700  1.1006 -0.6109
  798MOL0     N 5221   4.444  -0.188   5.986  0.1187  0.7025 -0.0541
  798MOL0     C 5222   4.387  -0.310   5.943 -0.1942 -0.4894  0.1270
  798MOL0     C 5223   4.285  -0.261   5.860 -1.4954 -0.8919 -0.6101
  798MOL0     C 5224   4.166  -0.342   5.827  0.7371  0.9639  0.1141
  798MOL0     C 5225   4.076  -0.320   5.940  1.0111 -0.4228 -0.2000
  798MOL0     C 5226   3.943  -0.406   5.918 -0.1503 -0.5791  0.5131
  798MOL0     C 5227   3.848  -0.402   6.036  1.3921  0.1830  0.3715
  798MOL0     O 5228   3.816  -0.265   6.075  0.4142 -0.9290 -0.4347
  798MOL0     C 5229   3.697  -0.205   6.038 -0.4565  0.5383  0.5113
  798MOL0     C 5230   3.649  -0.108   6.134 -0.1927 -0.2276 -0.2293
  798MOL0     C 5231   3.522  -0.047   6.111  0.3720  1.2880  0.5272
  798MOL0     C 5232   3.451  -0.065   5.987 -0.3048  0.5949 -0.4190
  798MOL0     C 5233   3.329   0.003   5.957 -0.0173 -0.7554  0.5440
  798MOL0     O 5234   3.270   0.075   6.060  0.9325 -0.4512  0.6834
  798MOL0     C 5235   3.134   0.111   6.036  0.1242 -0.5780 -0.3730
  798MOL0     C 5236   3.093   0.193   5.933  0.3005  0.7614  0.0817
  798MOL0     C 5237   2.962   0.227   5.926 -0.0506 -0.7741  0.4108
  798MOL0     C 5238   2.865   0.179   6.019  0.1134 -0.7155 -0.9546
  798MOL0     O 5239   2.729   0.208   6.000 -0.6350 -0.8041 -0.5875
  798MOL0     C 5240   2.652   0.095   5.963 -0.1911 -0.6296 -0.0458
  798MOL0     C 5241   2.516   0.141   5.896  0.6704  0.2362  0.0320
  798MOL0     C 5242   2.405   0.131   6.004  0.0372 -0.2354  0.1989
  798MOL0     C 5243   2.413   0.239   6.113 -0.3852  0.2809  0.3785
  798MOL0     C 5244   2.338   0.195   6.237  0.2014  0.5802 -0.6548
  798MOL0     C 5245   2.243   0.307   6.293 -0.1872  1.2299  0.5030
  798MOL0     C 5246   2.113   0.262   6.353 -0.5240  0.3365 -0.3191
  798MOL0     C 5247   2.012   0.179   6.267  0.7557 -0.2261  0.5194
  798MOL0    Cl 5248   1.854   0.173   6.360 -0.1674 -0.1209 -0.2851
  798MOL0     C 5249   2.909   0.094   6.119  0.2631  0.5170  0.3825
  798MOL0     C 5250   3.046   0.067   6.132  0.0969 -0.2344 -0.5738
  798MOL0     O 5251   3.277  -0.010   5.842 -0.4048  0.6758 -0.0221
  798MOL0     C 5252   3.503  -0.168   5.897 -0.7506  0.2075  0.2552
  798MOL0     C 5253   3.623  -0.238   5.924 -0.0685  0.2325 -0.3560
  798MOL0     N 5254   4.305  -0.127   5.841 -0.4742  0.2554 -0.1539
  798MOL0     N 5255   4.399  -0.083   5.914 -1.4075  0.2770 -0.3785
  798MOL0     C 5256   5.700  -0.144   6.132 -0.0263  0.6996 -0.0837
  798MOL0     C 5257   5.833  -0.101   6.125 -0.5587 -0.6245  0.1204
  798MOL0     C 5258   6.234  -0.028   6.106  0.3643 -0.6885 -0.0768
  798MOL0     C 5259   6.302   0.058   6.013  0.2458 -0.9920 -0.3453
  798MOL0     C 5260   6.438   0.033   5.981 -0.2080  0.3088 -0.0567
  798MOL0     C 5261   6.504  -0.077   6.027 -0.4119 -0.2482 -0.0968
  798MOL0     O 5262   6.640  -0.088   6.025 -0.1976 -0.1784 -0.1537
  798MOL0     C 5263   6.696  -0.084   5.895  0.4274 -0.4327  0.3122
  798MOL0     C 5264   6.833  -0.021   5.888  0.5501 -0.4035  0.0971
  798MOL0     C 5265   6.835   0.133   5.913 -0.6409 -0.1784 -0.7154
  798MOL0     C 5266   6.965   0.198   5.876  0.0925 -0.8966  0.6515
  798MOL0     C 5267   7.079   0.143   5.950 -0.5630  0.1710  0.0132
  798MOL0     C 5268   7.176   0.097   5.999  0.4519  0.0681 -0.6121
  798MOL0     C 5269   6.443  -0.162   6.115  0.6895 -0.1405  0.3803
  798MOL0     C 5270   6.308  -0.144   6.146  1.0587 -0.8179  0.1122
  798MOL0     H 5271   5.922  -0.171   6.445 -1.0790  2.2030  0.3949
  798MOL0     H 5272   5.688  -0.275   6.441  0.1639  0.4185  0.2010
  798MOL0     H 5273   5.444  -0.222   6.067 -1.2689  1.9878  0.2976
  798MOL0     H 5274   5.432  -0.080   6.155 -2.0684  0.0379 -2.5887
  798MOL0     H 5275   5.269  -0.167   6.323  1.7855  2.5296 -1.0755
  798MOL0     H 5276   5.275  -0.324   6.243 -1.9502  0.5931  2.9392
  798MOL0     H 5277   5.170  -0.232   6.047 -0.2455 -0.1059  0.0830
  798MOL0     H 5278   5.160  -0.065   6.109 -0.8094  0.1409 -1.4056
  798MOL0     H 5279   5.037  -0.302   6.256  0.9431  0.4065  1.0016
  798MOL0     H 5280   5.008  -0.135   6.293 -0.2110  0.5418 -0.4538
  798MOL0     H 5281   4.940  -0.285   6.042 -0.8246  0.8097 -0.6942
  798MOL0     H 5282   4.930  -0.103   6.053 -1.5394  0.2553 -0.0329
  798MOL0     H 5283   4.766  -0.111   6.228 -2.1107 -1.2324  1.5235
  798MOL0     H 5284   4.776  -0.288   6.234  1.4381 -1.8073 -0.6550
  798MOL0     H 5285   4.704  -0.154   5.968 -0.8908 -0.7768 -0.5310
  798MOL0     H 5286   4.680  -0.319   6.014 -1.6701 -0.4369  1.5560
  798MOL0     H 5287   4.538  -0.080   6.142  0.3352  1.0866 -0.5786
  798MOL0     H 5288   4.507  -0.244   6.182 -2.5675  0.9557 -1.5011
  798MOL0     H 5289   4.400  -0.409   5.986  0.6323 -0.3046  0.3211
  798MOL0     H 5290   4.197  -0.447   5.819 -1.3026  0.3638 -0.5769
  798MOL0     H 5291   4.118  -0.314   5.733 -4.9739 -2.1000  1.6638
  798MOL0     H 5292   4.049  -0.214   5.948  0.0177 -0.7152  0.5940
  798MOL0     H 5293   4.117  -0.346   6.038  0.2591  3.0857  1.1893
  798MOL0     H 5294   3.891  -0.364   5.831  0.1991  0.0992  0.6248
  798MOL0     H 5295   3.972  -0.511   5.911 -2.6354 -1.3353  0.5829
  798MOL0     H 5296   3.897  -0.452   6.120 -1.6403 -3.1101  0.4148
  798MOL0     H 5297   3.761  -0.466   6.021  0.3908  1.8113 -1.2509
  798MOL0     H 5298   3.700  -0.090   6.228 -1.3573  1.4501  0.1385
  798MOL0     H 5299   3.485   0.017   6.190  2.2311  1.7441  1.0737
  798MOL0     H 5300   3.155   0.220   5.848  1.7437  1.0468  1.1827
  798MOL0     H 5301   2.924   0.281   5.840 -1.8795 -1.1566  0.9206
  798MOL0     H 5302   2.638   0.039   6.055 -0.8630  1.8923  1.4909
  798MOL0     H 5303   2.706   0.042   5.884 -0.9654 -1.3544 -0.0935
  798MOL0     H 5304   2.487   0.071   5.818 -1.0356  2.7805 -1.7861
  798MOL0     H 5305   2.520   0.245   5.861 -0.3017 -0.3366 -1.8766
  798MOL0     H 5306   2.409   0.032   6.051 -0.9151  0.2016  1.2351
  798MOL0     H 5307   2.314   0.159   5.951 -1.5543 -1.3083  2.2089
  798MOL0     H 5308   2.520   0.241   6.135 -0.4407  0.9924  0.6040
  798MOL0     H 5309   2.374   0.333   6.072  1.6294  0.2297 -1.9038
  798MOL0     H 5310   2.419   0.161   6.303 -1.2331  0.1680  0.9705
  798MOL0     H 5311   2.277   0.105   6.225  1.1807 -0.3133  0.7011
  798MOL0     H 5312   2.218   0.379   6.215 -3.3417 -0.0129  0.2024
  798MOL0     H 5313   2.298   0.368   6.364  1.2357  2.4103 -1.5101
  798MOL0     H 5314   2.137   0.204   6.443  1.9976  2.4742  0.4888
  798MOL0     H 5315   2.081   0.356   6.400 -1.1729 -0.2213  0.3717
  798MOL0     H 5316   2.047   0.077   6.246 -0.5811 -1.0530  2.0554
  798MOL0     H 5317   1.990   0.234   6.175  3.7807 -1.5945 -1.2114
  798MOL0     H 5318   2.835   0.062   6.191  0.5727 -1.4091 -0.1070
  798MOL0     H 5319   3.082   0.011   6.218  0.0493  0.2712 -0.2170
  798MOL0     H 5320   3.452  -0.183   5.802  0.4250  1.2326 -0.5561
  798MOL0     H 5321   3.661  -0.300   5.844  1.5729  0.9236 -0.1507
  798MOL0     H 5322   5.640  -0.143   6.042  0.4265 -1.6032 -0.4702
  798MOL0     H 5323   5.877  -0.070   6.030  0.8099 -3.8832 -0.4569
  798MOL0     H 5324   6.245   0.137   5.966 -0.3223 -1.0177  0.2842
  798MOL0     H 5325   6.486   0.116   5.930 -1.0806  1.3575  0.7917
  798MOL0     H 5326   6.628  -0.039   5.821  3.1230  1.6096 -1.1041
  798MOL0     H 5327   6.709  -0.189   5.866  1.7140 -0.5426  1.2143
  798MOL0     H 5328   6.890  -0.086   5.956  1.0010 -0.5565 -0.4110
  798MOL0     H 5329   6.872  -0.031   5.786 -0.6976  0.4589 -0.4820
  798MOL0     H 5330   6.813   0.138   6.020 -1.0882 -0.5537 -0.7850
  798MOL0     H 5331   6.748   0.170   5.859 -2.0012 -1.6383  0.3762
  798MOL0     H 5332   6.994   0.199   5.771 -1.0529  1.0118  0.3035
  798MOL0     H 5333   6.958   0.305   5.898 -0.4994 -0.8526  0.2493
  798MOL0     H 5334   7.271   0.075   6.043  0.1611  0.4386  0.2218
  798MOL0     H 5335   6.495  -0.249   6.155 -1.2067 -1.5513 -0.0807
  798MOL0     H 5336   6.245  -0.216   6.197 -0.9964  2.0601  1.9430
  799MOL0     O 5337  10.744   4.263   2.718  0.0220  0.5034 -0.5808
  799MOL0     C 5338  10.736   4.352   2.637 -0.0940 -0.1710 -0.4870
  799MOL0     O 5339  10.637   4.439   2.623 -0.4201 -0.3862  0.1453
  799MOL0     C 5340  10.529   4.426   2.702 -0.3120 -0.0578 -0.9750
  799MOL0     C 5341  10.415   4.356   2.662 -0.0971 -0.9039  0.5775
  799MOL0     C 5342  10.301   4.354   2.748 -0.0553 -0.2995  0.2177
  799MOL0     C 5343  10.305   4.415   2.875  0.1625  0.4328  0.2568
  799MOL0     O 5344  10.194   4.413   2.963 -0.0310  0.6939 -0.6177
  799MOL0     C 5345  10.068   4.362   2.919  0.1990  0.4338  0.1455
  799MOL0     C 5346   9.977   4.378   3.037  0.4448  0.0521 -0.1966
  799MOL0     C 5347   9.827   4.339   3.019  0.0358 -0.0303  0.6144
  799MOL0     C 5348   9.812   4.179   3.021 -0.0637 -0.7018  0.4740
  799MOL0     C 5349   9.669   4.148   3.001 -0.7416 -0.7896  0.7478
  799MOL0     C 5350   9.636   4.001   3.018  0.2178  0.2823  0.1621
  799MOL0     C 5351   9.486   3.962   3.027  0.5721  0.0801  0.0092
  799MOL0     C 5352   9.425   3.967   3.168  0.1714 -0.0284 -0.7065
  799MOL0     N 5353   9.277   3.940   3.160  0.7920  0.7571  0.0944
  799MOL0     C 5354   9.190   4.034   3.102 -0.4481  0.2738 -0.0820
  799MOL0     C 5355   9.081   3.964   3.067  0.1413  0.5755 -0.0973
  799MOL0     C 5356   8.972   4.041   3.014  0.2727 -0.6903 -0.0042
  799MOL0     C 5357   8.943   4.175   3.086 -0.0624 -0.2482  0.0269
  799MOL0     C 5358   8.808   4.226   3.047 -0.5461 -0.1633  0.0738
  799MOL0     C 5359   8.752   4.341   3.134  0.0502 -0.2513  0.2971
  799MOL0     O 5360   8.614   4.351   3.105 -0.0947  0.1152  0.3226
  799MOL0     C 5361   8.538   4.437   3.187  0.3941  0.7648  0.3172
  799MOL0     C 5362   8.574   4.473   3.317  0.4418 -0.0947  0.1629
  799MOL0     C 5363   8.470   4.536   3.398 -0.3091  0.8377 -0.1648
  799MOL0     C 5364   8.341   4.568   3.345  0.1078 -0.4140  1.0406
  799MOL0     C 5365   8.230   4.611   3.430  0.3300 -0.4096 -0.0892
  799MOL0     O 5366   8.255   4.630   3.562  0.2811  0.5275  0.3852
  799MOL0     C 5367   8.167   4.677   3.651 -0.1159 -0.3420 -1.0083
  799MOL0     C 5368   8.159   4.820   3.681 -0.7542 -0.3308 -0.3535
  799MOL0     C 5369   8.068   4.871   3.770 -1.0302  0.1973  0.8000
  799MOL0     C 5370   7.970   4.780   3.826  0.7187  0.2478 -0.4485
  799MOL0     O 5371   7.854   4.825   3.888  1.3285 -0.5160  0.1836
  799MOL0     C 5372   7.836   4.969   3.908 -0.7257  0.1460 -0.4855
  799MOL0     C 5373   7.700   4.996   3.973 -0.5050 -0.1888  0.2763
  799MOL0     C 5374   7.667   5.142   3.997  0.1717 -1.0579  0.0158
  799MOL0     C 5375   7.519   5.161   4.017  0.8656  0.5387 -0.2067
  799MOL0     C 5376   7.458   5.075   4.131  0.5856 -0.2687  1.3713
  799MOL0     C 5377   7.307   5.115   4.140 -0.0688 -0.3117 -0.5977
  799MOL0     C 5378   7.241   4.997   4.207 -0.5213 -0.4625 -0.0633
  799MOL0     C 5379   7.090   4.996   4.206  0.1049  0.4903 -0.0685
  799MOL0    Cl 5380   7.032   5.136   4.286 -0.2388  0.0439 -0.3287
  799MOL0     C 5381   7.973   4.648   3.801 -0.7115 -0.1087 -0.6029
  799MOL0     C 5382   8.076   4.594   3.713 -0.2845  0.1649  0.4465
  799MOL0     O 5383   8.121   4.633   3.377  0.4235 -0.7694 -0.0961
  799MOL0     C 5384   8.321   4.529   3.216  0.3120 -0.1285 -0.3154
  799MOL0     C 5385   8.409   4.450   3.137 -0.3376 -0.6987 -0.1759
  799MOL0     N 5386   9.103   3.833   3.105 -0.1337  0.4795  0.0350
  799MOL0     N 5387   9.214   3.816   3.163 -0.2776  0.5097  0.4516
  799MOL0     C 5388  10.420   4.479   2.916 -0.1538 -0.3213  0.5798
  799MOL0     C 5389  10.529   4.499   2.823  1.0295 -0.3381 -1.1431
  799MOL0     C 5390  10.851   4.364   2.549 -0.0181  0.2325  0.0740
  799MOL0     C 5391  10.976   4.287   2.574  0.3103 -0.5510  0.7259
  799MOL0     C 5392  11.085   4.310   2.495  0.4360 -0.2867  0.6963
  799MOL0     C 5393  11.078   4.401   2.388  0.6311 -0.6009  0.5935
  799MOL0     O 5394  11.180   4.415   2.298 -0.0813  0.5559  0.2359
  799MOL0     C 5395  11.315   4.425   2.345 -0.2323  0.5090  0.2525
  799MOL0     C 5396  11.418   4.475   2.243 -0.5823 -0.7831 -0.2647
  799MOL0     C 5397  11.405   4.629   2.218 -0.2239  0.2242 -0.2806
  799MOL0     C 5398  11.406   4.650   2.073  0.2579  0.1922 -0.5569
  799MOL0     C 5399  11.390   4.797   2.054 -0.1976 -0.5629 -0.1161
  799MOL0     C 5400  11.388   4.914   2.012 -0.3624 -0.5643  0.4224
  799MOL0     C 5401  10.964   4.474   2.370  0.0278  0.1588  0.2528
  799MOL0     C 5402  10.852   4.454   2.444 -0.5986  1.1586  0.5360
  799MOL0     H 5403  10.401   4.300   2.571 -1.3665  0.1778  0.0701
  799MOL0     H 5404  10.212   4.299   2.720  1.7353 -3.0639 -0.4570
  799MOL0     H 5405  10.072   4.255   2.896  0.7839  0.8550 -1.9411
  799MOL0     H 5406  10.030   4.425   2.838 -0.8906 -2.9649 -2.2137
  799MOL0     H 5407   9.985   4.482   3.069 -0.8880  0.4912 -1.2035
  799MOL0     H 5408  10.018   4.332   3.127 -1.1857  2.6450  2.0407
  799MOL0     H 5409   9.781   4.374   2.927 -1.4014 -0.7825  1.0067
  799MOL0     H 5410   9.770   4.389   3.098  0.7646  0.8511  0.6012
  799MOL0     H 5411   9.874   4.144   2.938 -2.3018  1.3953 -2.2851
  799MOL0     H 5412   9.840   4.137   3.118  1.5118  1.7091  1.1443
  799MOL0     H 5413   9.648   4.173   2.897  1.4566  2.3563  0.9045
  799MOL0     H 5414   9.617   4.218   3.067  2.3235  1.3848  1.0483
  799MOL0     H 5415   9.674   3.982   3.119  0.2782  1.1460  0.3083
  799MOL0     H 5416   9.677   3.938   2.939  2.0695  0.2189  1.1151
  799MOL0     H 5417   9.420   4.024   2.966  0.5266  1.0266  0.9682
  799MOL0     H 5418   9.478   3.859   2.991  1.4184  0.4592 -1.3088
  799MOL0     H 5419   9.439   4.066   3.210 -0.8503 -0.0880 -0.1995
  799MOL0     H 5420   9.467   3.886   3.227 -2.3197 -1.0971 -0.2481
  799MOL0     H 5421   9.227   4.132   3.071  4.9225 -1.6299 -0.6934
  799MOL0     H 5422   8.880   3.983   2.995 -0.7011  0.8263 -0.0853
  799MOL0     H 5423   9.012   4.067   2.916  0.1175 -2.0950 -0.4693
  799MOL0     H 5424   9.025   4.242   3.061  0.7148 -1.0256  0.4668
  799MOL0     H 5425   8.947   4.172   3.195  1.1441  1.8146  0.0848
  799MOL0     H 5426   8.811   4.262   2.943 -4.3434  0.6310  0.1094
  799MOL0     H 5427   8.732   4.148   3.048  0.9880 -1.7066  1.3261
  799MOL0     H 5428   8.803   4.437   3.122 -1.2371  0.5436  0.9526
  799MOL0     H 5429   8.771   4.315   3.239  3.3980  3.3823  0.8209
  799MOL0     H 5430   8.668   4.447   3.365  1.4783  0.4176 -1.5182
  799MOL0     H 5431   8.486   4.570   3.500 -1.3305 -2.1837  1.1425
  799MOL0     H 5432   8.218   4.888   3.620  0.3701 -0.7570  0.2321
  799MOL0     H 5433   8.069   4.974   3.803  0.3996  1.0841 -1.7983
  799MOL0     H 5434   7.840   5.022   3.812  1.0579  1.7518  0.3967
  799MOL0     H 5435   7.915   5.004   3.976  0.4538 -2.7116 -0.2693
  799MOL0     H 5436   7.689   4.945   4.070 -3.3905 -1.6717 -0.7123
  799MOL0     H 5437   7.629   4.959   3.898 -2.5213  0.0562  1.9569
  799MOL0     H 5438   7.691   5.205   3.911 -0.2800 -0.7258  0.1333
  799MOL0     H 5439   7.718   5.187   4.082 -0.4205 -0.4721  0.0644
  799MOL0     H 5440   7.507   5.268   4.038  3.4537  0.8531 -0.0935
  799MOL0     H 5441   7.459   5.149   3.927 -1.4357  0.5904  1.2294
  799MOL0     H 5442   7.527   5.090   4.215  1.2025 -0.3228  0.8857
  799MOL0     H 5443   7.471   4.971   4.099 -0.9299  0.0535 -0.4874
  799MOL0     H 5444   7.266   5.128   4.039 -0.8436  4.2093  0.0656
  799MOL0     H 5445   7.305   5.213   4.189  2.3544 -1.1300  1.3701
  799MOL0     H 5446   7.278   4.915   4.146 -0.2010 -0.1312 -0.3200
  799MOL0     H 5447   7.272   4.982   4.310 -2.5042  3.6921  1.3824
  799MOL0     H 5448   7.059   4.908   4.263 -1.7114  2.3688  2.0188
  799MOL0     H 5449   7.047   4.990   4.106  2.0252  1.9588 -1.0513
  799MOL0     H 5450   7.890   4.584   3.830 -0.7427  0.1309 -0.1544
  799MOL0     H 5451   8.080   4.490   3.682  0.3995  0.4737 -0.5798
  799MOL0     H 5452   8.221   4.541   3.175 -0.2260 -1.9486  0.3612
  799MOL0     H 5453   8.387   4.407   3.039  1.2662  0.6450 -1.1829
  799MOL0     H 5454  10.403   4.511   3.019 -0.3226  0.3197  0.3579
  799MOL0     H 5455  10.617   4.561   2.837  0.8096 -0.3236  0.3705
  799MOL0     H 5456  10.984   4.226   2.663 -0.1741 -0.2759  0.9569
  799MOL0     H 5457  11.176   4.253   2.506  1.3589  0.9728 -0.2113
  799MOL0     H 5458  11.339   4.325   2.382  1.1675 -0.4615 -2.9428
  799MOL0     H 5459  11.306   4.491   2.432 -3.1391 -1.7002  1.8103
  799MOL0     H 5460  11.523   4.458   2.272  0.0931  1.5834 -1.0909
  799MOL0     H 5461  11.408   4.427   2.145 -0.9746  1.1043 -1.1804
  799MOL0     H 5462  11.485   4.682   2.270 -0.6886 -0.4624  1.1938
  799MOL0     H 5463  11.312   4.665   2.263 -0.1603  1.6700 -1.2595
  799MOL0     H 5464  11.507   4.625   2.039 -0.3543 -1.5023 -1.2650
  799MOL0     H 5465  11.331   4.593   2.017  0.4882  0.9836 -1.7015
  799MOL0     H 5466  11.379   5.011   1.968 -0.2291 -1.0368 -0.6819
  799MOL0     H 5467  10.963   4.548   2.291  2.1928  0.6962  0.6578
  799MOL0     H 5468  10.769   4.521   2.424  1.2368  3.6894  0.8744
  800MOL0     O 5469  10.584   8.763   2.680 -0.1446  0.3621  0.1167
  800MOL0     C 5470  10.577   8.651   2.630 -0.1239 -0.0236  0.5452
  800MOL0     O 5471  10.463   8.592   2.599  0.8273  0.4382 -0.2630
  800MOL0     C 5472  10.341   8.648   2.627 -0.8193 -0.0117  0.3908
  800MOL0     C 5473  10.309   8.672   2.759  0.4317  0.4562 -0.5597
  800MOL0     C 5474  10.187   8.716   2.785  0.5987 -0.3091 -0.8758
  800MOL0     C 5475  10.087   8.748   2.685 -0.1028 -0.3896  0.8367
  800MOL0     O 5476   9.959   8.799   2.720 -0.5111 -0.9269  0.4562
  800MOL0     C 5477   9.845   8.786   2.626 -0.0962  0.4956 -0.3354
  800MOL0     C 5478   9.733   8.789   2.730  0.2001  0.5159 -0.1981
  800MOL0     C 5479   9.600   8.772   2.666  0.5547  0.5100 -0.6486
  800MOL0     C 5480   9.485   8.815   2.758  0.2213 -0.1186 -0.1348
  800MOL0     C 5481   9.360   8.856   2.675 -0.0575  0.2530 -0.0314
  800MOL0     C 5482   9.320   8.748   2.578  0.2530 -0.7380 -0.9871
  800MOL0     C 5483   9.186   8.788   2.524 -0.6879  0.2452  0.7687
  800MOL0     C 5484   9.059   8.760   2.614 -0.8772 -0.1855 -0.0075
  800MOL0     N 5485   8.935   8.803   2.542  0.9131 -0.6543 -0.6430
  800MOL0     C 5486   8.905   8.789   2.411 -0.0078  0.3921  0.1124
  800MOL0     C 5487   8.798   8.868   2.387 -0.8117 -0.1643  0.6403
  800MOL0     C 5488   8.715   8.885   2.263  0.0954 -1.1173  0.0004
  800MOL0     C 5489   8.587   8.809   2.273  0.1308 -0.5397  0.3539
  800MOL0     C 5490   8.472   8.856   2.185 -0.7088 -0.2442  0.4730
  800MOL0     C 5491   8.340   8.797   2.226 -0.0459  0.3399 -0.0027
  800MOL0     O 5492   8.244   8.849   2.132  0.3712  0.2994 -0.2537
  800MOL0     C 5493   8.123   8.901   2.170 -0.3776 -0.1640 -0.5404
  800MOL0     C 5494   8.066   8.996   2.085  0.0924  1.4617  0.8197
  800MOL0     C 5495   7.939   9.046   2.115 -0.1355 -0.7603 -0.3112
  800MOL0     C 5496   7.870   9.006   2.230 -0.9994 -0.0529 -1.3731
  800MOL0     C 5497   7.732   9.063   2.272  0.1465  1.1732 -0.4856
  800MOL0     O 5498   7.690   9.041   2.400  0.6050  0.4927 -0.1715
  800MOL0     C 5499   7.565   9.083   2.433  0.4177 -0.0833 -0.5097
  800MOL0     C 5500   7.445   9.040   2.376 -0.1216  0.0032  0.4816
  800MOL0     C 5501   7.318   9.087   2.411 -0.1732  0.2353 -0.5113
  800MOL0     C 5502   7.305   9.168   2.524 -1.4684  0.3690 -0.7142
  800MOL0     O 5503   7.191   9.217   2.581 -0.2096  0.0593  0.0557
  800MOL0     C 5504   7.099   9.113   2.621  0.4270 -0.4013  0.5897
  800MOL0     C 5505   6.982   9.161   2.704 -0.4039 -0.4582  0.0181
  800MOL0     C 5506   6.848   9.086   2.704  0.5671 -0.0639 -0.0160
  800MOL0     C 5507   6.753   9.156   2.806 -0.5057  0.8819  0.9637
  800MOL0     C 5508   6.617   9.076   2.805 -0.3202 -0.8512 -0.3250
  800MOL0     C 5509   6.492   9.134   2.860 -0.1964  0.1362  0.0677
  800MOL0     C 5510   6.520   9.174   3.006 -1.0631 -0.4118  0.0787
  800MOL0     C 5511   6.395   9.203   3.083 -0.1308  0.6472  0.1628
  800MOL0    Cl 5512   6.305   9.043   3.101 -0.3299 -0.4268 -0.3859
  800MOL0     C 5513   7.421   9.206   2.587  0.2334 -0.0652 -0.2873
  800MOL0     C 5514   7.554   9.171   2.540  0.6508  0.6923 -1.2238
  800MOL0     O 5515   7.670   9.120   2.185  0.0783 -0.1601 -0.1369
  800MOL0     C 5516   7.933   8.911   2.313 -0.0310  0.0452  0.4105
  800MOL0     C 5517   8.057   8.858   2.285  0.3961  0.7680 -0.1086
  800MOL0     N 5518   8.763   8.933   2.502  0.4658  0.4623  0.4744
  800MOL0     N 5519   8.842   8.889   2.599  0.0853  0.2606  0.0771
  800MOL0     C 5520  10.132   8.738   2.551 -0.5565 -0.3831  0.6072
  800MOL0     C 5521  10.256   8.681   2.522  0.1615 -0.2480  0.2132
  800MOL0     C 5522  10.694   8.563   2.628  0.7628  0.4268 -1.0192
  800MOL0     C 5523  10.800   8.594   2.713  0.1536  0.8705  0.2750
  800MOL0     C 5524  10.918   8.513   2.703 -0.0369  0.7203  0.8738
  800MOL0     C 5525  10.922   8.397   2.613  0.2826  0.5755 -0.0738
  800MOL0     O 5526  11.032   8.311   2.602  0.1812  0.8091 -0.7689
  800MOL0     C 5527  11.154   8.359   2.653  0.0747 -0.2253 -0.5007
  800MOL0     C 5528  11.274   8.270   2.611 -0.1156  0.1572 -0.1636
  800MOL0     C 5529  11.408   8.309   2.667 -0.2718 -0.3460  0.0498
  800MOL0     C 5530  11.525   8.217   2.624  0.4200 -0.4467  0.7493
  800MOL0     C 5531  11.520   8.084   2.679  0.3088 -0.3119  0.5684
  800MOL0     C 5532  11.528   7.975   2.728 -0.0649  0.3410 -0.1693
  800MOL0     C 5533  10.807   8.361   2.538  0.3887  0.5773 -0.4472
  800MOL0     C 5534  10.693   8.444   2.544  0.9075  0.0677 -0.7248
  800MOL0     H 5535  10.382   8.640   2.833 -1.7688 -0.8794  1.1374
  800MOL0     H 5536  10.157   8.729   2.888 -0.1201  2.5789 -1.3640
  800MOL0     H 5537   9.860   8.692   2.570  0.8039 -0.1309  0.9078
  800MOL0     H 5538   9.824   8.862   2.550 -4.1642 -1.2662 -1.2312
  800MOL0     H 5539   9.737   8.888   2.776 -0.3591 -0.3262  1.7339
  800MOL0     H 5540   9.746   8.711   2.806  2.9328 -0.4432 -1.5093
  800MOL0     H 5541   9.583   8.667   2.640 -0.3701  0.6073 -0.4500
  800MOL0     H 5542   9.601   8.829   2.573 -0.0953  0.8655 -0.4349
  800MOL0     H 5543   9.463   8.737   2.831 -0.7795  0.0102 -0.2724
  800MOL0     H 5544   9.517   8.905   2.811 -0.3821 -0.6158  1.1237
  800MOL0     H 5545   9.370   8.947   2.615 -2.4582 -1.1129 -2.7006
  800MOL0     H 5546   9.290   8.874   2.757  1.5057 -0.6873  1.5810
  800MOL0     H 5547   9.316   8.649   2.625 -2.0275  0.2949  1.2023
  800MOL0     H 5548   9.389   8.752   2.493 -1.2169  2.0274 -2.1778
  800MOL0     H 5549   9.188   8.893   2.495 -1.3774  0.0615  0.0038
  800MOL0     H 5550   9.164   8.727   2.436 -0.4613  0.4272  0.5861
  800MOL0     H 5551   9.073   8.807   2.712 -1.3790  0.2713 -0.1521
  800MOL0     H 5552   9.047   8.651   2.623  0.4216 -0.8893 -4.4374
  800MOL0     H 5553   8.954   8.723   2.341  0.2438 -0.4453  1.0589
  800MOL0     H 5554   8.771   8.851   2.175  1.1671  2.0945 -0.6744
  800MOL0     H 5555   8.696   8.991   2.249  2.2706 -0.8287 -1.2249
  800MOL0     H 5556   8.553   8.822   2.376 -0.5077  1.4060 -0.0793
  800MOL0     H 5557   8.611   8.706   2.244  0.5430 -0.4277  0.2829
  800MOL0     H 5558   8.451   8.962   2.199 -2.6516 -0.4653 -0.4039
  800MOL0     H 5559   8.490   8.831   2.080 -1.0455 -1.7068  0.7454
  800MOL0     H 5560   8.319   8.822   2.330  0.8682  2.6316 -0.3177
  800MOL0     H 5561   8.323   8.691   2.205 -2.3420  1.0243 -2.0077
  800MOL0     H 5562   8.115   9.032   1.994 -1.4748  2.1589  0.2147
  800MOL0     H 5563   7.906   9.135   2.062 -1.9391  2.1159  4.9439
  800MOL0     H 5564   7.456   8.968   2.295 -0.9733  1.1895 -0.7405
  800MOL0     H 5565   7.229   9.049   2.361 -0.2588 -1.2959  0.7195
  800MOL0     H 5566   7.146   9.033   2.679 -1.7986 -1.3900  1.1776
  800MOL0     H 5567   7.051   9.068   2.533 -1.9839 -1.6997  2.4504
  800MOL0     H 5568   6.967   9.268   2.688  2.4253  0.2785  1.5881
  800MOL0     H 5569   7.014   9.150   2.808  0.1668 -1.9089 -0.2859
  800MOL0     H 5570   6.871   8.986   2.743  2.0186 -0.3181 -1.4011
  800MOL0     H 5571   6.807   9.085   2.603  0.4885 -0.1066  0.0159
  800MOL0     H 5572   6.799   9.154   2.905  0.9215 -1.2080  0.3275
  800MOL0     H 5573   6.735   9.260   2.776  0.2826  0.3828 -1.5056
  800MOL0     H 5574   6.644   8.999   2.879  2.5606  2.5427  2.4871
  800MOL0     H 5575   6.595   9.023   2.712 -0.1853  0.2214 -0.9779
  800MOL0     H 5576   6.401   9.075   2.847  0.1387 -0.7310  1.4124
  800MOL0     H 5577   6.477   9.228   2.806  2.5241  1.0300  0.6969
  800MOL0     H 5578   6.569   9.096   3.066  0.4203 -0.5718 -1.2874
  800MOL0     H 5579   6.587   9.258   2.990 -1.8088  0.1053 -0.3992
  800MOL0     H 5580   6.331   9.269   3.025 -1.1162 -1.3325 -1.1093
  800MOL0     H 5581   6.431   9.243   3.179 -0.4291  1.9694 -0.2585
  800MOL0     H 5582   7.419   9.261   2.680  0.4048 -1.2723  0.4601
  800MOL0     H 5583   7.645   9.196   2.594  1.1044 -2.4112 -0.3405
  800MOL0     H 5584   7.890   8.879   2.407 -0.4453  0.7154  0.4552
  800MOL0     H 5585   8.099   8.785   2.353 -2.5619 -0.7734  0.2418
  800MOL0     H 5586  10.066   8.769   2.470 -0.1271 -0.7892  0.0979
  800MOL0     H 5587  10.282   8.656   2.420  1.8757  0.7653  0.3722
  800MOL0     H 5588  10.790   8.685   2.770 -1.8091  1.7527 -1.3694
  800MOL0     H 5589  11.010   8.541   2.753  2.7321  0.0909 -3.4027
  800MOL0     H 5590  11.144   8.357   2.761  1.4836  2.8796 -0.2098
  800MOL0     H 5591  11.192   8.456   2.620  3.5524 -1.8813 -1.9747
  800MOL0     H 5592  11.242   8.168   2.634  3.0020 -1.0691 -0.7491
  800MOL0     H 5593  11.279   8.277   2.502  0.1837  2.2367 -0.0668
  800MOL0     H 5594  11.421   8.311   2.776  1.9760  1.0133 -0.1718
  800MOL0     H 5595  11.430   8.413   2.641  2.9572 -0.7341  0.8443
  800MOL0     H 5596  11.529   8.208   2.515 -0.6939  0.1628  0.6394
  800MOL0     H 5597  11.619   8.263   2.654  1.4639 -2.2049  0.2720
  800MOL0     H 5598  11.555   7.872   2.738  2.4250  0.9793  0.3644
  800MOL0     H 5599  10.805   8.279   2.467  0.9782  1.8110 -1.9568
  800MOL0     H 5600  10.615   8.418   2.472 -0.2504 -2.4534  1.2637
  801MOL0     O 5601   2.726   1.020   5.940  0.0496  0.4032 -0.2447
  801MOL0     C 5602   2.742   1.101   5.853  0.4562 -0.0263  0.2675
  801MOL0     O 5603   2.643   1.150   5.779  0.5982  0.5531 -0.6925
  801MOL0     C 5604   2.514   1.101   5.804 -0.2938 -0.1901 -0.1864
  801MOL0     C 5605   2.447   1.143   5.914  0.9740 -0.2729  0.2826
  801MOL0     C 5606   2.325   1.091   5.938  0.1643  0.1797 -0.1478
  801MOL0     C 5607   2.267   0.993   5.856 -0.6284  0.0591  0.1524
  801MOL0     O 5608   2.149   0.926   5.897 -0.8740  0.3156 -0.8352
  801MOL0     C 5609   2.065   0.862   5.797 -0.5250  0.7537 -0.2014
  801MOL0     C 5610   1.930   0.821   5.841  0.5223  0.4175 -0.1143
  801MOL0     C 5611   1.824   0.930   5.867  0.2772  0.0196 -0.2039
  801MOL0     C 5612   1.702   0.864   5.926  0.1121 -0.7715 -0.2731
  801MOL0     C 5613   1.594   0.971   5.928 -0.2313  0.1799  0.2839
  801MOL0     C 5614   1.459   0.899   5.951 -0.8498 -0.1116  1.0336
  801MOL0     C 5615   1.341   1.001   5.966  0.2229  0.0443 -0.2326
  801MOL0     C 5616   1.228   0.950   6.063  0.1011 -0.3308  0.4624
  801MOL0     N 5617   1.168   0.823   6.023  0.1101 -0.2343  0.3428
  801MOL0     C 5618   1.103   0.806   5.902  0.2152 -0.2874  1.2757
  801MOL0     C 5619   1.103   0.673   5.881 -0.4643 -0.4051 -0.1202
  801MOL0     C 5620   1.055   0.613   5.758 -0.2920 -0.5261 -0.5298
  801MOL0     C 5621   0.911   0.563   5.756  0.0623  0.8675 -0.2554
  801MOL0     C 5622   0.885   0.447   5.858 -0.2623  1.1090  0.3266
  801MOL0     C 5623   0.742   0.420   5.845 -0.6334 -0.0387 -0.4492
  801MOL0     O 5624   0.717   0.367   5.715 -0.0160  0.7489  0.6417
  801MOL0     C 5625   0.598   0.296   5.688  0.7015  0.2117  0.4798
  801MOL0     C 5626   0.583   0.253   5.550  0.2784 -0.1218  0.7860
  801MOL0     C 5627   0.468   0.200   5.502 -0.2749  0.4695  0.1449
  801MOL0     C 5628   0.362   0.163   5.590 -0.2541  0.4598 -0.5334
  801MOL0     C 5629   0.241   0.104   5.543 -0.0257 -0.0642  0.0438
  801MOL0     O 5630   0.175   0.035   5.633  0.3790 -0.0339  0.0397
  801MOL0     C 5631   0.048  -0.004   5.590 -0.0636 -0.1924  0.8643
  801MOL0     C 5632  -0.056   0.083   5.613 -0.1159  0.0784  0.0842
  801MOL0     C 5633  -0.187   0.064   5.566 -0.1553 -0.2228 -0.7345
  801MOL0     C 5634  -0.208  -0.049   5.484  0.4359  1.4719  0.3882
  801MOL0     O 5635  -0.338  -0.071   5.453 -0.4614 -0.1555  0.3089
  801MOL0     C 5636  -0.376  -0.180   5.373  0.2231 -0.5379 -1.0157
  801MOL0     C 5637  -0.521  -0.156   5.332  0.2041 -0.0375  0.3216
  801MOL0     C 5638  -0.622  -0.145   5.450  0.5001 -0.3221  0.0388
  801MOL0     C 5639  -0.764  -0.122   5.401  0.2256  0.3587 -1.3091
  801MOL0     C 5640  -0.872  -0.086   5.504 -0.2132 -0.0725  0.0654
  801MOL0     C 5641  -0.904  -0.206   5.593 -0.2016  0.5239 -0.2507
  801MOL0     C 5642  -1.000  -0.149   5.702 -0.0615 -0.5012 -0.6597
  801MOL0     C 5643  -1.048  -0.257   5.809  0.0123 -0.6135  0.7619
  801MOL0    Cl 5644  -1.203  -0.334   5.754  0.0235  0.4016  0.0284
  801MOL0     C 5645  -0.093  -0.133   5.450  0.1966 -0.2484 -0.0421
  801MOL0     C 5646   0.034  -0.119   5.505 -0.1596 -0.1040 -0.6635
  801MOL0     O 5647   0.209   0.115   5.420 -0.2918  0.2175  0.2015
  801MOL0     C 5648   0.371   0.201   5.727  0.0422 -0.4429 -0.3064
  801MOL0     C 5649   0.490   0.269   5.773  0.5975 -0.7776 -0.6899
  801MOL0     N 5650   1.169   0.604   5.978  0.8345 -0.0837  0.6212
  801MOL0     N 5651   1.199   0.700   6.057 -0.0810  0.2263 -1.3294
  801MOL0     C 5652   2.331   0.960   5.740  1.1622  0.3344 -0.3810
  801MOL0     C 5653   2.453   1.016   5.707 -0.7659 -0.1945 -0.5755
  801MOL0     C 5654   2.877   1.162   5.825 -0.2184  0.5123 -0.5050
  801MOL0     C 5655   2.901   1.220   5.707  0.3792 -0.4539  0.4053
  801MOL0     C 5656   3.030   1.274   5.680 -0.0084 -0.6985  0.4197
  801MOL0     C 5657   3.130   1.264   5.770 -0.8317 -0.2342  1.0155
  801MOL0     O 5658   3.238   1.357   5.755  0.7958  0.0152 -0.2580
  801MOL0     C 5659   3.350   1.349   5.843 -0.8027 -0.0606  0.3081
  801MOL0     C 5660   3.470   1.357   5.748  0.7263 -0.8053 -0.2868
  801MOL0     C 5661   3.606   1.400   5.815  0.3909 -0.5314 -0.0478
  801MOL0     C 5662   3.684   1.499   5.732  0.1917 -0.4340  0.5905
  801MOL0     C 5663   3.811   1.535   5.789  0.2265 -0.5271 -0.5362
  801MOL0     C 5664   3.912   1.564   5.844  0.3372 -0.8325 -0.4680
  801MOL0     C 5665   3.104   1.208   5.896 -0.0919  0.6122  0.2217
  801MOL0     C 5666   2.976   1.154   5.921 -0.5096 -0.2241 -0.2319
  801MOL0     H 5667   2.503   1.210   5.978  0.4169 -0.3171  0.8216
  801MOL0     H 5668   2.265   1.126   6.021  0.5722  0.1343  0.1685
  801MOL0     H 5669   2.115   0.771   5.764 -1.8998 -0.5766  1.2520
  801MOL0     H 5670   2.056   0.930   5.711  2.3778  2.0813  0.4315
  801MOL0     H 5671   1.940   0.768   5.936  0.8466  1.9414  0.7378
  801MOL0     H 5672   1.897   0.751   5.763 -1.1341  1.2819 -0.2300
  801MOL0     H 5673   1.798   0.965   5.767 -1.4489 -0.6817 -0.0360
  801MOL0     H 5674   1.859   1.015   5.928 -0.2603  1.6913 -2.1075
  801MOL0     H 5675   1.684   0.779   5.858  1.0555 -2.3714  1.3739
  801MOL0     H 5676   1.723   0.832   6.028  0.4260  1.6499  0.4644
  801MOL0     H 5677   1.590   1.012   5.827 -0.5718 -0.8622 -0.1308
  801MOL0     H 5678   1.616   1.051   5.999  2.7146  0.0402 -0.3331
  801MOL0     H 5679   1.461   0.835   6.040 -0.3258  0.5403  1.4902
  801MOL0     H 5680   1.451   0.832   5.865  3.4754  0.3214  0.1013
  801MOL0     H 5681   1.378   1.098   6.001  0.9799 -0.2831 -0.1015
  801MOL0     H 5682   1.291   1.018   5.870  1.9239 -0.3187 -1.2264
  801MOL0     H 5683   1.149   1.025   6.058  0.7390  0.3540  0.5287
  801MOL0     H 5684   1.269   0.949   6.164  1.9128 -2.1094 -0.2092
  801MOL0     H 5685   1.060   0.883   5.840 -0.0621 -2.1351 -0.9609
  801MOL0     H 5686   1.122   0.527   5.754  0.0950 -0.4452  2.1288
  801MOL0     H 5687   1.074   0.684   5.677  0.7996  1.0501  1.0326
  801MOL0     H 5688   0.876   0.535   5.656 -1.4886  2.4476 -0.1855
  801MOL0     H 5689   0.851   0.652   5.777  1.0586  1.2763  0.9895
  801MOL0     H 5690   0.940   0.353   5.847 -0.1600  1.0048  1.5266
  801MOL0     H 5691   0.915   0.478   5.959 -1.5515 -0.0266  1.0994
  801MOL0     H 5692   0.672   0.500   5.872  1.3840  2.1473 -1.2927
  801MOL0     H 5693   0.727   0.345   5.923  1.1832 -1.0984 -1.0562
  801MOL0     H 5694   0.663   0.280   5.482 -0.4816 -2.9546 -1.4663
  801MOL0     H 5695   0.469   0.166   5.399 -1.0587  0.8543 -0.0004
  801MOL0     H 5696  -0.035   0.160   5.687  0.5916 -0.3795  0.3789
  801MOL0     H 5697  -0.269   0.130   5.595 -0.0963 -1.3892  2.4174
  801MOL0     H 5698  -0.375  -0.267   5.439  2.4346  0.8751  0.9500
  801MOL0     H 5699  -0.309  -0.193   5.287  1.3189  0.8759 -0.4171
  801MOL0     H 5700  -0.562  -0.232   5.265  0.5472  0.5112 -0.5226
  801MOL0     H 5701  -0.526  -0.064   5.273 -0.0983 -0.3374 -0.1233
  801MOL0     H 5702  -0.588  -0.057   5.506 -0.2894 -1.6762  2.8727
  801MOL0     H 5703  -0.608  -0.236   5.509  2.0130 -0.5403 -0.6077
  801MOL0     H 5704  -0.766  -0.045   5.323 -0.7444  0.7917 -0.8787
  801MOL0     H 5705  -0.798  -0.219   5.362  0.2734 -0.2521  0.1246
  801MOL0     H 5706  -0.958  -0.045   5.450  0.4377  0.3277 -0.6984
  801MOL0     H 5707  -0.823  -0.014   5.571 -1.3721 -0.0108  0.8783
  801MOL0     H 5708  -0.813  -0.242   5.641 -0.0927 -0.2000 -0.9704
  801MOL0     H 5709  -0.954  -0.286   5.537 -1.2909 -0.5696  2.1346
  801MOL0     H 5710  -0.951  -0.070   5.760 -0.1571 -0.6538 -0.3669
  801MOL0     H 5711  -1.080  -0.100   5.646 -0.4597  0.6580  0.8607
  801MOL0     H 5712  -1.061  -0.217   5.909 -1.9960 -0.7982  0.6049
  801MOL0     H 5713  -0.975  -0.338   5.815  1.2677  0.5119  1.1226
  801MOL0     H 5714  -0.116  -0.199   5.366  1.8993 -1.0439  0.0766
  801MOL0     H 5715   0.117  -0.177   5.465  0.5027  0.2622  0.1645
  801MOL0     H 5716   0.300   0.180   5.807 -0.0312 -1.2155 -0.5619
  801MOL0     H 5717   0.491   0.312   5.873  1.1960 -0.5790 -0.7801
  801MOL0     H 5718   2.282   0.885   5.678 -0.7854  1.0613  0.2051
  801MOL0     H 5719   2.513   0.999   5.618  1.5427  1.6805  0.4865
  801MOL0     H 5720   2.830   1.237   5.627  1.0400  2.6965  0.3606
  801MOL0     H 5721   3.040   1.345   5.599  1.4158 -0.6204  0.6538
  801MOL0     H 5722   3.354   1.264   5.911  1.3297  0.4293  0.8769
  801MOL0     H 5723   3.351   1.442   5.901 -0.6265  0.4486 -0.4926
  801MOL0     H 5724   3.481   1.266   5.688 -1.0610 -1.1214 -0.1918
  801MOL0     H 5725   3.446   1.434   5.674  0.1344 -2.3536 -1.7617
  801MOL0     H 5726   3.664   1.311   5.838 -2.0644 -2.1258  0.3545
  801MOL0     H 5727   3.578   1.452   5.908 -0.6189  0.1633 -0.7201
  801MOL0     H 5728   3.709   1.460   5.633 -2.2166  1.3176 -0.8183
  801MOL0     H 5729   3.623   1.588   5.714 -0.0009 -0.3299  1.7146
  801MOL0     H 5730   3.990   1.602   5.907  0.7780 -1.1219 -0.8324
  801MOL0     H 5731   3.168   1.197   5.983 -1.9743 -2.3726  1.4137
  801MOL0     H 5732   2.956   1.119   6.022  0.4787  0.4419  0.2075
  802MOL0     O 5733   6.419   6.610   3.075 -0.0505 -0.2373  0.1823
  802MOL0     C 5734   6.376   6.724   3.035 -0.3686  0.0137  0.0417
  802MOL0     O 5735   6.251   6.767   3.057  0.8957  0.3610  0.6772
  802MOL0     C 5736   6.173   6.685   3.130  0.2500  0.1527  0.3968
  802MOL0     C 5737   6.152   6.707   3.268  0.3515 -0.0688  0.6064
  802MOL0     C 5738   6.061   6.619   3.333  0.7392 -1.3207  0.5514
  802MOL0     C 5739   5.999   6.515   3.269  0.3333  0.1022 -0.4436
  802MOL0     O 5740   5.936   6.435   3.357 -0.2919 -0.6759  0.7877
  802MOL0     C 5741   5.826   6.355   3.307  0.4678  0.0258 -0.4495
  802MOL0     C 5742   5.761   6.257   3.406 -0.0726 -0.5912  0.0051
  802MOL0     C 5743   5.676   6.321   3.516  0.9896  0.2348  0.4904
  802MOL0     C 5744   5.607   6.207   3.605 -0.3734 -0.4270  0.2859
  802MOL0     C 5745   5.502   6.277   3.682 -0.3083 -0.7060  0.5014
  802MOL0     C 5746   5.488   6.199   3.814  0.7606 -0.2290  0.3478
  802MOL0     C 5747   5.371   6.235   3.907 -0.7857 -0.0336  0.6122
  802MOL0     C 5748   5.251   6.151   3.878 -0.5058 -0.0209 -1.0193
  802MOL0     N 5749   5.192   6.164   3.749  0.3603  0.4476 -0.0638
  802MOL0     C 5750   5.096   6.247   3.699  0.3528 -0.4535  0.4050
  802MOL0     C 5751   5.071   6.196   3.571 -0.4792 -0.5216  0.0588
  802MOL0     C 5752   4.971   6.264   3.479 -0.6011 -0.3360 -1.0984
  802MOL0     C 5753   4.854   6.179   3.431  0.0345  0.2050  0.1364
  802MOL0     C 5754   4.773   6.108   3.545  0.9253  0.9123 -0.6346
  802MOL0     C 5755   4.724   6.190   3.663 -0.0855 -0.4160 -0.3831
  802MOL0     O 5756   4.651   6.304   3.608  0.5021  0.0421  0.2380
  802MOL0     C 5757   4.519   6.290   3.554  0.3422  0.5315  0.2552
  802MOL0     C 5758   4.425   6.220   3.633 -0.8448 -0.0784  0.8644
  802MOL0     C 5759   4.291   6.201   3.581 -0.2072  0.6301 -0.4177
  802MOL0     C 5760   4.256   6.243   3.456  0.0775  0.6960 -0.5084
  802MOL0     C 5761   4.119   6.237   3.411 -0.8701  0.4951 -0.5990
  802MOL0     O 5762   4.072   6.335   3.339  0.0656  0.2521  0.1767
  802MOL0     C 5763   3.950   6.323   3.272 -0.3619  0.7764 -0.8998
  802MOL0     C 5764   3.828   6.339   3.344  0.8085 -0.4159 -0.0577
  802MOL0     C 5765   3.704   6.320   3.276 -0.2340  0.6298  0.1343
  802MOL0     C 5766   3.709   6.313   3.134  0.6156 -1.2670 -0.1292
  802MOL0     O 5767   3.592   6.305   3.063  0.1112  0.0954  0.3155
  802MOL0     C 5768   3.578   6.173   3.003 -0.0837 -0.3599 -0.1107
  802MOL0     C 5769   3.521   6.076   3.113  0.5100 -0.3788  1.2767
  802MOL0     C 5770   3.368   6.093   3.143 -0.4526  0.4906  0.8169
  802MOL0     C 5771   3.277   6.123   3.024 -1.0973  0.0527  0.8265
  802MOL0     C 5772   3.134   6.119   3.071  0.6318  0.3602  0.6588
  802MOL0     C 5773   3.034   6.153   2.955  0.4599  0.1072 -0.0220
  802MOL0     C 5774   2.889   6.133   3.009  0.2810 -0.0884 -0.0213
  802MOL0     C 5775   2.789   6.167   2.905 -0.1018 -1.1903 -0.8762
  802MOL0    Cl 5776   2.637   6.145   2.988 -0.3348 -0.1697 -0.0838
  802MOL0     C 5777   3.821   6.329   3.064 -0.6884  0.5856 -1.6495
  802MOL0     C 5778   3.945   6.327   3.130 -0.0443 -0.0722  0.3182
  802MOL0     O 5779   4.056   6.147   3.463  0.3009  0.3471 -0.2316
  802MOL0     C 5780   4.356   6.293   3.375  0.2629 -0.1127  0.2447
  802MOL0     C 5781   4.486   6.326   3.426  0.2614  0.1032 -0.3411
  802MOL0     N 5782   5.132   6.074   3.557 -0.9823 -0.4696 -0.1817
  802MOL0     N 5783   5.195   6.056   3.666  0.2071  0.1357 -0.4870
  802MOL0     C 5784   6.022   6.494   3.137 -0.1130 -1.1811  0.1417
  802MOL0     C 5785   6.100   6.584   3.065 -0.1859  0.1900  0.4328
  802MOL0     C 5786   6.485   6.805   2.973 -0.9907  0.9191  0.0978
  802MOL0     C 5787   6.448   6.918   2.908  0.5722  0.0031 -0.1897
  802MOL0     C 5788   6.546   6.985   2.838 -0.0478 -0.4681  0.1305
  802MOL0     C 5789   6.683   6.946   2.821 -0.8058 -0.0186 -0.2004
  802MOL0     O 5790   6.763   7.026   2.737  0.6676  0.2630  0.6700
  802MOL0     C 5791   6.901   7.002   2.726 -0.1225 -0.1693 -0.8279
  802MOL0     C 5792   6.978   7.054   2.845 -0.0712 -0.3271  0.0455
  802MOL0     C 5793   6.932   7.189   2.903 -0.5732 -0.1157  0.5975
  802MOL0     C 5794   7.054   7.241   2.974 -0.0324  0.1539 -0.6278
  802MOL0     C 5795   7.024   7.380   3.013  0.2003  0.1090 -0.2118
  802MOL0     C 5796   7.001   7.490   3.060 -0.2960  0.7526  0.1722
  802MOL0     C 5797   6.715   6.829   2.886 -0.3531 -0.7911 -0.4258
  802MOL0     C 5798   6.620   6.764   2.972 -0.7379  0.6219  1.0853
  802MOL0     H 5799   6.220   6.771   3.324  1.3104 -0.0262 -0.5509
  802MOL0     H 5800   6.042   6.643   3.437 -0.6575 -0.9207  0.2288
  802MOL0     H 5801   5.869   6.295   3.226  1.2149 -1.9745  1.3442
  802MOL0     H 5802   5.752   6.418   3.257 -0.7668 -2.4349 -1.9143
  802MOL0     H 5803   5.844   6.218   3.466  0.0433 -0.6941 -0.2223
  802MOL0     H 5804   5.708   6.181   3.348  0.9893 -3.3204  2.3666
  802MOL0     H 5805   5.599   6.386   3.473 -1.1841  0.4396  4.1824
  802MOL0     H 5806   5.745   6.389   3.567  0.5948  1.1245 -0.1363
  802MOL0     H 5807   5.561   6.121   3.554  0.6347 -1.0044  0.3239
  802MOL0     H 5808   5.689   6.160   3.660  0.7755 -1.9885 -2.5083
  802MOL0     H 5809   5.406   6.281   3.629  0.1146 -0.7499 -0.2893
  802MOL0     H 5810   5.531   6.379   3.710  0.4473  0.3736 -3.5713
  802MOL0     H 5811   5.581   6.217   3.869  0.6576  0.5333  0.2844
  802MOL0     H 5812   5.482   6.092   3.796 -3.4105  0.0156 -0.5960
  802MOL0     H 5813   5.407   6.208   4.007  0.1738 -0.1027  0.2521
  802MOL0     H 5814   5.343   6.341   3.908  2.2615  0.8587  0.2161
  802MOL0     H 5815   5.177   6.173   3.956  0.5730 -2.8155  0.9355
  802MOL0     H 5816   5.291   6.050   3.885  0.9219  0.5605 -0.4812
  802MOL0     H 5817   5.067   6.343   3.741  1.5441 -0.4062  1.1630
  802MOL0     H 5818   5.028   6.303   3.395 -0.1418 -0.1964 -0.7290
  802MOL0     H 5819   4.938   6.354   3.532  1.9293  0.3302 -0.5051
  802MOL0     H 5820   4.886   6.098   3.364 -1.0083 -1.0544  1.0953
  802MOL0     H 5821   4.782   6.241   3.377  1.2828 -0.9652 -3.1831
  802MOL0     H 5822   4.684   6.063   3.500  1.4969  0.4454 -1.3333
  802MOL0     H 5823   4.826   6.018   3.578 -0.4110  0.3923  0.1358
  802MOL0     H 5824   4.817   6.222   3.710  1.0915  2.0578 -4.0070
  802MOL0     H 5825   4.658   6.127   3.725 -0.1913 -1.4243 -1.4880
  802MOL0     H 5826   4.452   6.188   3.734  1.0975  1.6611  0.9697
  802MOL0     H 5827   4.223   6.155   3.652 -0.4203 -0.4643 -1.3192
  802MOL0     H 5828   3.827   6.356   3.452  1.6776  3.2897 -0.4836
  802MOL0     H 5829   3.607   6.318   3.324 -0.1870  2.1690  0.3701
  802MOL0     H 5830   3.673   6.135   2.964  0.3808  0.9041 -0.2690
  802MOL0     H 5831   3.509   6.181   2.919 -0.3776 -0.4318  0.1212
  802MOL0     H 5832   3.580   6.073   3.205 -1.4310  0.2607  2.5961
  802MOL0     H 5833   3.525   5.976   3.069 -0.8732 -0.6031  1.6250
  802MOL0     H 5834   3.353   6.177   3.212 -2.0351  0.3840  0.6362
  802MOL0     H 5835   3.336   6.005   3.199  1.6514 -0.4510  0.6331
  802MOL0     H 5836   3.292   6.224   2.986 -1.6542 -0.8409 -2.0448
  802MOL0     H 5837   3.293   6.054   2.940 -3.8460 -0.7524  0.8863
  802MOL0     H 5838   3.116   6.184   3.157 -0.0889 -0.8245  1.4471
  802MOL0     H 5839   3.093   6.021   3.100  1.9917 -0.9875 -1.6401
  802MOL0     H 5840   3.047   6.080   2.875  4.2870  0.2765  0.2361
  802MOL0     H 5841   3.048   6.251   2.908 -0.1563  0.6168  0.8238
  802MOL0     H 5842   2.879   6.031   3.047  3.3173 -0.2379  0.6376
  802MOL0     H 5843   2.867   6.202   3.091  1.2393 -0.1361  0.2918
  802MOL0     H 5844   2.803   6.114   2.810  1.5779  0.9388 -1.9016
  802MOL0     H 5845   2.801   6.273   2.882  0.6743 -0.9913  0.3595
  802MOL0     H 5846   3.812   6.322   2.956 -1.2940 -2.8314 -1.4913
  802MOL0     H 5847   4.038   6.337   3.076 -1.6662  1.4068 -2.4289
  802MOL0     H 5848   4.325   6.321   3.274 -4.6630 -0.0388  1.5481
  802MOL0     H 5849   4.552   6.371   3.353 -1.8958  0.1639 -2.3595
  802MOL0     H 5850   5.969   6.408   3.098 -2.4817  0.1255  0.2549
  802MOL0     H 5851   6.107   6.569   2.957 -2.0216  0.2052  0.2851
  802MOL0     H 5852   6.343   6.945   2.906 -0.3842 -3.0532  1.6218
  802MOL0     H 5853   6.506   7.072   2.786  0.3200 -0.5616 -0.3125
  802MOL0     H 5854   6.937   7.059   2.640  1.0193 -0.6846 -0.7140
  802MOL0     H 5855   6.920   6.894   2.717  0.1443 -0.6431  3.3746
  802MOL0     H 5856   6.969   6.974   2.920 -0.0857  0.1282  0.5325
  802MOL0     H 5857   7.083   7.049   2.814  0.1061  1.0036  0.3958
  802MOL0     H 5858   6.853   7.177   2.978  0.7131 -3.3632  1.5656
  802MOL0     H 5859   6.898   7.263   2.829  0.7780  1.1629  1.2021
  802MOL0     H 5860   7.074   7.187   3.067  3.3316  1.3494 -0.5125
  802MOL0     H 5861   7.141   7.236   2.907 -0.3022 -0.9159 -0.9238
  802MOL0     H 5862   6.963   7.579   3.108  0.7184  1.2257  0.1355
  802MOL0     H 5863   6.819   6.798   2.881  0.4282  0.8909  2.5993
  802MOL0     H 5864   6.653   6.676   3.026  0.8837  1.4103  1.4504
  803MOL0     O 5865   7.205   2.096   9.341  0.2047  0.5920  0.4227
  803MOL0     C 5866   7.224   2.140   9.230 -0.2350 -0.1107  0.3508
  803MOL0     O 5867   7.134   2.192   9.143 -0.1976  0.3478 -0.4405
  803MOL0     C 5868   7.003   2.189   9.184  0.8181 -0.0595  0.2602
  803MOL0     C 5869   6.959   2.290   9.278 -0.3836  0.9096 -0.1300
  803MOL0     C 5870   6.824   2.284   9.321 -0.0661  0.4378  0.2470
  803MOL0     C 5871   6.729   2.195   9.265  0.3505  0.9435 -0.0020
  803MOL0     O 5872   6.600   2.214   9.313 -0.0008  0.4101  0.2582
  803MOL0     C 5873   6.506   2.138   9.233 -0.5160  0.6847  0.4138
  803MOL0     C 5874   6.361   2.162   9.274  0.6655 -0.2486 -0.0846
  803MOL0     C 5875   6.257   2.088   9.191 -0.7016  1.0823 -0.1483
  803MOL0     C 5876   6.118   2.130   9.239  0.2157  0.0521  0.5002
  803MOL0     C 5877   6.012   2.058   9.143 -0.0558 -0.4092 -0.1236
  803MOL0     C 5878   5.869   2.063   9.195  0.3162  0.5697  0.3007
  803MOL0     C 5879   5.769   1.969   9.121  0.2664 -0.6024 -0.4208
  803MOL0     C 5880   5.797   1.940   8.974 -0.2268  0.1454 -0.5566
  803MOL0     N 5881   5.670   1.893   8.912  0.4649  0.4978 -0.3897
  803MOL0     C 5882   5.612   1.956   8.804  0.3826  1.1281 -0.3969
  803MOL0     C 5883   5.497   1.868   8.785 -0.5533  0.0871 -0.0503
  803MOL0     C 5884   5.384   1.891   8.689  0.1013 -0.5425 -0.0010
  803MOL0     C 5885   5.435   1.951   8.557 -0.6786  0.3240 -0.5943
  803MOL0     C 5886   5.310   2.002   8.471 -0.1394  0.7151  0.7995
  803MOL0     C 5887   5.377   2.090   8.362 -0.6865 -0.3216 -0.8652
  803MOL0     O 5888   5.306   2.089   8.238 -0.0457 -0.3499 -0.2628
  803MOL0     C 5889   5.177   2.127   8.230 -0.2077 -0.5178 -0.3246
  803MOL0     C 5890   5.103   2.077   8.122 -0.1885 -0.8016 -0.1239
  803MOL0     C 5891   4.964   2.106   8.097  0.2560 -0.0188 -0.0212
  803MOL0     C 5892   4.901   2.198   8.181  0.2427  0.4615 -0.2553
  803MOL0     C 5893   4.750   2.221   8.167 -0.0605 -0.2806 -0.1881
  803MOL0     O 5894   4.695   2.290   8.270  0.3692 -0.2023  0.0045
  803MOL0     C 5895   4.553   2.300   8.261  0.5967 -0.2067  0.7709
  803MOL0     C 5896   4.507   2.412   8.185  0.2322 -0.4461 -0.2993
  803MOL0     C 5897   4.371   2.443   8.187 -0.8101  0.5960  0.2743
  803MOL0     C 5898   4.281   2.355   8.259  0.5983  0.6205  0.7767
  803MOL0     O 5899   4.150   2.392   8.256 -0.3079  0.2020 -0.4969
  803MOL0     C 5900   4.069   2.319   8.346  1.2512 -0.0782 -0.6381
  803MOL0     C 5901   3.921   2.366   8.322  0.3334  0.2190 -0.1342
  803MOL0     C 5902   3.899   2.512   8.373 -0.0913  0.2811  0.5216
  803MOL0     C 5903   3.746   2.546   8.367 -0.2514 -0.2456  1.0837
  803MOL0     C 5904   3.727   2.694   8.385  0.0601  0.6085  0.4772
  803MOL0     C 5905   3.582   2.732   8.363 -0.3496  0.5480  0.2154
  803MOL0     C 5906   3.476   2.647   8.437  0.5460 -0.4924 -0.1381
  803MOL0     C 5907   3.348   2.723   8.440  0.3298 -0.3138  0.1304
  803MOL0    Cl 5908   3.229   2.610   8.515  0.1049  0.0617  0.3251
  803MOL0     C 5909   4.330   2.241   8.327  0.6174  0.7878  0.1623
  803MOL0     C 5910   4.464   2.223   8.337  0.3362 -0.3061 -0.5020
  803MOL0     O 5911   4.690   2.176   8.073 -0.0221  0.5638  0.4074
  803MOL0     C 5912   4.975   2.247   8.285  0.6969 -1.0347 -0.3253
  803MOL0     C 5913   5.104   2.211   8.319 -0.1810  0.0993 -0.1369
  803MOL0     N 5914   5.501   1.761   8.880 -0.0310 -0.5875  0.9347
  803MOL0     N 5915   5.595   1.782   8.959 -0.1982 -0.1369 -0.3900
  803MOL0     C 5916   6.781   2.100   9.168  0.4434  0.5724 -0.1601
  803MOL0     C 5917   6.912   2.100   9.126  0.3424 -0.3392  0.4280
  803MOL0     C 5918   7.361   2.143   9.187 -0.4190  0.0506 -0.0375
  803MOL0     C 5919   7.457   2.080   9.271 -0.1953 -1.0066  0.1626
  803MOL0     C 5920   7.594   2.084   9.230  1.0502  0.1628  0.1534
  803MOL0     C 5921   7.633   2.134   9.106 -0.6998 -0.4480 -0.0935
  803MOL0     O 5922   7.767   2.125   9.056  0.3393 -0.1278  0.1457
  803MOL0     C 5923   7.854   2.026   9.119 -0.1325  0.3350  0.3384
  803MOL0     C 5924   7.997   2.037   9.064  0.8102  0.0005 -0.3794
  803MOL0     C 5925   8.082   2.158   9.121  0.4066 -0.8730  0.2723
  803MOL0     C 5926   8.212   2.184   9.036 -0.1952  0.0826 -0.4519
  803MOL0     C 5927   8.184   2.230   8.901  0.2082 -0.0933  0.5162
  803MOL0     C 5928   8.143   2.269   8.796 -0.3828  0.6469  0.5664
  803MOL0     C 5929   7.535   2.188   9.025  0.0122  0.2940  0.1344
  803MOL0     C 5930   7.404   2.198   9.062 -0.3741 -0.1612  0.4819
  803MOL0     H 5931   7.021   2.362   9.331 -0.5131  0.3990  0.7466
  803MOL0     H 5932   6.782   2.343   9.401  0.7953 -2.2139  2.8258
  803MOL0     H 5933   6.531   2.032   9.249 -0.1686  0.8073  0.6759
  803MOL0     H 5934   6.521   2.156   9.126  2.2718  0.6890  0.7226
  803MOL0     H 5935   6.344   2.269   9.262 -0.9850 -0.5783 -0.9911
  803MOL0     H 5936   6.340   2.138   9.379 -1.5705  0.8688 -0.2209
  803MOL0     H 5937   6.261   1.979   9.198 -1.4248  1.0703  0.1148
  803MOL0     H 5938   6.276   2.120   9.088  0.2535 -3.3166 -1.5225
  803MOL0     H 5939   6.113   2.105   9.345  2.8218  1.6228  1.0749
  803MOL0     H 5940   6.110   2.238   9.225  2.4306  0.2509  0.5590
  803MOL0     H 5941   6.039   1.952   9.132 -2.6800 -1.1242 -0.4607
  803MOL0     H 5942   6.023   2.105   9.045 -0.9606 -0.8975 -0.4706
  803MOL0     H 5943   5.838   2.166   9.173  0.0092  0.0146 -2.1770
  803MOL0     H 5944   5.856   2.047   9.302 -2.4263  0.0530 -0.0307
  803MOL0     H 5945   5.768   1.871   9.170  2.2955 -0.4821 -0.0446
  803MOL0     H 5946   5.670   2.011   9.140  0.1985 -0.8573 -0.2130
  803MOL0     H 5947   5.880   1.870   8.963 -1.0609 -1.2177  1.3840
  803MOL0     H 5948   5.832   2.036   8.934 -1.5601  0.6972 -0.4770
  803MOL0     H 5949   5.626   2.046   8.744  0.4650  1.5474  0.2396
  803MOL0     H 5950   5.317   1.970   8.724  3.8335  2.8097  0.2646
  803MOL0     H 5951   5.321   1.802   8.677 -2.8463  1.0503  2.3669
  803MOL0     H 5952   5.497   1.883   8.499 -0.1052  0.2295  0.1174
  803MOL0     H 5953   5.499   2.035   8.585 -1.0208  0.6296 -0.7168
  803MOL0     H 5954   5.285   1.909   8.419  3.3830 -0.4917  0.9996
  803MOL0     H 5955   5.229   2.061   8.514 -0.0949  1.1177  0.3371
  803MOL0     H 5956   5.479   2.055   8.349 -0.6375  0.3744 -2.6983
  803MOL0     H 5957   5.390   2.189   8.407 -2.3546 -0.8065  0.8588
  803MOL0     H 5958   5.156   2.011   8.054 -1.5126  0.2453 -2.3102
  803MOL0     H 5959   4.919   2.056   8.012  1.3795 -2.1735  0.5971
  803MOL0     H 5960   4.574   2.474   8.127 -1.7967  0.6180 -1.6094
  803MOL0     H 5961   4.336   2.521   8.120  0.1805  0.5645 -0.2948
  803MOL0     H 5962   4.103   2.342   8.448  1.9086 -2.0164 -0.3790
  803MOL0     H 5963   4.078   2.216   8.312 -0.3909 -0.1799 -0.8190
  803MOL0     H 5964   3.855   2.302   8.381 -1.7639  2.0975 -0.3147
  803MOL0     H 5965   3.896   2.360   8.216  0.2470 -1.4261 -0.0340
  803MOL0     H 5966   3.969   2.574   8.317  1.5719 -3.7255 -2.3076
  803MOL0     H 5967   3.926   2.512   8.479 -0.1288 -1.9404  0.5821
  803MOL0     H 5968   3.703   2.517   8.270  0.0872  0.1243  0.8195
  803MOL0     H 5969   3.678   2.487   8.429 -3.0449  2.0049  0.3862
  803MOL0     H 5970   3.797   2.739   8.314  0.2437  1.0558  0.9400
  803MOL0     H 5971   3.763   2.738   8.478  2.7120 -1.2367  0.4201
  803MOL0     H 5972   3.557   2.732   8.257  1.4705 -1.9070 -0.3099
  803MOL0     H 5973   3.580   2.835   8.398 -3.5171  1.7579 -2.9944
  803MOL0     H 5974   3.460   2.553   8.384  1.1970 -0.0451 -1.1605
  803MOL0     H 5975   3.501   2.609   8.537 -0.9246 -2.8346 -0.5799
  803MOL0     H 5976   3.316   2.744   8.337 -2.4077 -0.1781  0.9237
  803MOL0     H 5977   3.356   2.818   8.493  1.1106 -1.3779  1.9895
  803MOL0     H 5978   4.267   2.176   8.386 -0.7755  1.1596 -0.8562
  803MOL0     H 5979   4.517   2.140   8.382 -0.2126 -0.8904 -0.9190
  803MOL0     H 5980   4.931   2.315   8.358 -0.7378 -2.7074  0.4301
  803MOL0     H 5981   5.146   2.233   8.417  2.4042 -1.1220 -0.8755
  803MOL0     H 5982   6.722   2.015   9.135  0.1998  0.8058 -0.3308
  803MOL0     H 5983   6.954   2.024   9.060 -0.7663 -0.8715  0.3229
  803MOL0     H 5984   7.429   2.042   9.369  0.0540 -1.5880  0.0103
  803MOL0     H 5985   7.664   2.033   9.295  1.4903  0.4497 -0.0909
  803MOL0     H 5986   7.814   1.925   9.105 -0.6765  0.9095 -2.9668
  803MOL0     H 5987   7.865   2.033   9.228 -0.4307 -2.5787  0.6468
  803MOL0     H 5988   8.048   1.951   9.108  0.7329  0.9248  1.6572
  803MOL0     H 5989   8.004   2.034   8.955  0.2761  1.3635 -0.4804
  803MOL0     H 5990   8.104   2.136   9.226  2.3011 -0.1865  0.0559
  803MOL0     H 5991   8.029   2.254   9.124  2.5889  0.3869  0.7485
  803MOL0     H 5992   8.263   2.266   9.088  1.0928  0.5846 -2.4066
  803MOL0     H 5993   8.278   2.097   9.032 -0.8216 -0.4808  0.9384
  803MOL0     H 5994   8.122   2.322   8.705 -0.8215  1.0569  0.9029
  803MOL0     H 5995   7.556   2.229   8.927 -1.3824  0.8706  0.0627
  803MOL0     H 5996   7.331   2.235   8.991 -0.8760 -1.0562  0.5065
  804MOL0     O 5997   8.023   4.314   3.471 -0.3409 -0.3411  0.4402
  804MOL0     C 5998   7.961   4.275   3.375 -0.0372  0.2460 -0.1682
  804MOL0     O 5999   7.820   4.277   3.361 -0.4772 -0.2959  0.6466
  804MOL0     C 6000   7.752   4.361   3.439  0.4027  0.4596  0.5409
  804MOL0     C 6001   7.791   4.492   3.476  0.5459 -0.2666 -0.2491
  804MOL0     C 6002   7.708   4.567   3.560 -0.3184 -0.9139 -0.2873
  804MOL0     C 6003   7.593   4.511   3.614  0.4030 -0.5166  0.6041
  804MOL0     O 6004   7.508   4.572   3.703 -0.6426 -0.5870  0.3539
  804MOL0     C 6005   7.576   4.647   3.807  0.0415  0.4615 -0.1003
  804MOL0     C 6006   7.479   4.693   3.909  0.7268 -0.2070 -0.4386
  804MOL0     C 6007   7.344   4.737   3.857  0.6075 -0.1838  0.3379
  804MOL0     C 6008   7.344   4.872   3.784  0.5249 -0.3951 -0.0569
  804MOL0     C 6009   7.215   4.918   3.719 -0.1878  0.0365 -0.4010
  804MOL0     C 6010   7.101   4.920   3.830  0.8430 -0.1684 -0.8813
  804MOL0     C 6011   6.967   4.983   3.779 -0.4924  0.2313 -0.1367
  804MOL0     C 6012   6.972   5.127   3.770 -0.1625  0.0092  0.5259
  804MOL0     N 6013   6.832   5.177   3.763  0.1622 -0.4901  0.5630
  804MOL0     C 6014   6.725   5.151   3.846 -0.5005 -0.4365  0.5606
  804MOL0     C 6015   6.625   5.227   3.796 -0.2071 -0.4591  0.6984
  804MOL0     C 6016   6.494   5.250   3.860 -0.2228 -1.0433  0.1503
  804MOL0     C 6017   6.527   5.309   3.997 -0.6877 -0.0933  0.2955
  804MOL0     C 6018   6.403   5.363   4.073  0.2652 -0.1333  0.1560
  804MOL0     C 6019   6.317   5.247   4.121 -0.7838  0.4288 -0.2225
  804MOL0     O 6020   6.198   5.293   4.180 -0.0002 -0.3833 -0.4449
  804MOL0     C 6021   6.073   5.285   4.122 -0.6047  0.9088  0.0533
  804MOL0     C 6022   6.041   5.293   3.988 -0.9064  0.7089 -0.1386
  804MOL0     C 6023   5.911   5.267   3.944  1.4442 -0.8327 -0.3539
  804MOL0     C 6024   5.809   5.232   4.025  0.2882  0.0217  0.0887
  804MOL0     C 6025   5.671   5.218   3.973  0.5439 -0.7801 -0.2756
  804MOL0     O 6026   5.665   5.217   3.833  0.8424 -0.5191 -0.2755
  804MOL0     C 6027   5.546   5.190   3.764  0.4449  0.1225 -0.4453
  804MOL0     C 6028   5.564   5.118   3.643  0.3483 -0.8881  0.6023
  804MOL0     C 6029   5.457   5.089   3.565  0.7226  0.5930  0.3322
  804MOL0     C 6030   5.325   5.131   3.599 -0.3092  0.0051 -0.4357
  804MOL0     O 6031   5.238   5.097   3.505  0.6334 -0.4972 -0.1118
  804MOL0     C 6032   5.145   4.995   3.549 -0.1413 -0.0594  0.1517
  804MOL0     C 6033   5.035   4.966   3.451 -0.2758  0.7220 -0.0493
  804MOL0     C 6034   4.921   4.878   3.503  0.5278 -0.7128 -0.1246
  804MOL0     C 6035   4.827   4.838   3.381 -0.4691 -0.3471  0.3971
  804MOL0     C 6036   4.728   4.731   3.432  1.4990 -0.0087 -0.7080
  804MOL0     C 6037   4.612   4.787   3.518 -0.3172  0.8524  0.8974
  804MOL0     C 6038   4.499   4.689   3.556  0.6761 -0.4895  0.7377
  804MOL0     C 6039   4.410   4.650   3.431 -0.1160 -0.9375  0.6875
  804MOL0    Cl 6040   4.298   4.779   3.389  0.1587  0.1381 -0.0189
  804MOL0     C 6041   5.303   5.196   3.719  0.3095 -0.5421 -0.2274
  804MOL0     C 6042   5.413   5.239   3.794 -0.7187 -0.7847 -1.1108
  804MOL0     O 6043   5.578   5.196   4.044 -0.7777 -0.7749 -0.3805
  804MOL0     C 6044   5.834   5.234   4.162  0.1170  0.0989 -0.3436
  804MOL0     C 6045   5.968   5.257   4.210  0.5853  0.4730 -0.4273
  804MOL0     N 6046   6.676   5.297   3.684  0.4539  0.5899  0.5924
  804MOL0     N 6047   6.793   5.262   3.659  0.0978  0.1653 -0.1305
  804MOL0     C 6048   7.547   4.389   3.573  0.1419 -0.2934  0.8470
  804MOL0     C 6049   7.623   4.314   3.486 -0.5921 -0.2498  0.5170
  804MOL0     C 6050   8.037   4.245   3.255 -0.2004  0.4309  0.2405
  804MOL0     C 6051   8.173   4.207   3.260 -1.0739  0.4509  0.6081
  804MOL0     C 6052   8.234   4.164   3.143 -0.6121  0.0615  0.3290
  804MOL0     C 6053   8.170   4.178   3.024 -0.1623 -0.3091 -0.0395
  804MOL0     O 6054   8.231   4.151   2.901  0.9502 -0.5034 -0.5016
  804MOL0     C 6055   8.373   4.112   2.897 -0.2484  0.7736 -0.4270
  804MOL0     C 6056   8.402   3.952   2.899  0.0629 -1.0791  0.4561
  804MOL0     C 6057   8.551   3.910   2.932  0.9927  0.2434 -0.2139
  804MOL0     C 6058   8.549   3.762   2.975 -0.4716 -0.3685 -0.1576
  804MOL0     C 6059   8.675   3.706   3.008  0.5168 -0.0932 -0.1890
  804MOL0     C 6060   8.785   3.653   3.033 -0.2068 -0.8106 -0.5704
  804MOL0     C 6061   8.040   4.222   3.019  0.4412 -0.6803  0.2722
  804MOL0     C 6062   7.966   4.244   3.132 -0.1820 -0.3562  0.5057
  804MOL0     H 6063   7.884   4.539   3.447  1.3994 -2.9721 -2.4287
  804MOL0     H 6064   7.741   4.667   3.587 -0.0638 -0.6517 -1.4901
  804MOL0     H 6065   7.639   4.724   3.762  0.7250 -1.1125 -1.9599
  804MOL0     H 6066   7.639   4.572   3.856 -1.4558 -0.8469 -0.1091
  804MOL0     H 6067   7.529   4.769   3.969  1.3194 -1.4164  0.6654
  804MOL0     H 6068   7.467   4.607   3.976  1.3014 -0.0734 -0.1610
  804MOL0     H 6069   7.275   4.745   3.942  0.9483 -0.9563  0.6996
  804MOL0     H 6070   7.290   4.663   3.798 -3.5302 -0.9930  4.4886
  804MOL0     H 6071   7.385   4.940   3.859 -0.1786 -1.9202  1.7946
  804MOL0     H 6072   7.418   4.872   3.704  2.6024 -2.8238  1.6732
  804MOL0     H 6073   7.179   4.846   3.645 -0.0405 -2.2876  1.6398
  804MOL0     H 6074   7.227   5.017   3.675 -0.8112 -0.4223 -1.6358
  804MOL0     H 6075   7.113   4.988   3.915 -4.2026 -1.4411  1.2156
  804MOL0     H 6076   7.089   4.816   3.863 -1.7605  0.2595 -0.3127
  804MOL0     H 6077   6.941   4.940   3.682  0.4779 -0.9542  0.0997
  804MOL0     H 6078   6.887   4.949   3.846  0.0060  0.5309  0.6277
  804MOL0     H 6079   7.030   5.162   3.684 -0.7354 -0.1474  0.0672
  804MOL0     H 6080   7.013   5.168   3.863 -2.9061  0.1600  1.7589
  804MOL0     H 6081   6.718   5.100   3.941 -0.2339 -0.8385  0.3630
  804MOL0     H 6082   6.455   5.150   3.879 -0.9263 -1.2512 -2.0817
  804MOL0     H 6083   6.425   5.301   3.792 -1.8156 -1.0325  1.6920
  804MOL0     H 6084   6.599   5.385   3.968 -1.6630  0.1967 -1.5231
  804MOL0     H 6085   6.580   5.233   4.055 -1.8098 -1.0548  0.1063
  804MOL0     H 6086   6.440   5.420   4.158  0.4074  0.8805 -0.5628
  804MOL0     H 6087   6.350   5.434   4.008 -0.7075  0.3617  1.4449
  804MOL0     H 6088   6.374   5.181   4.187 -3.1390 -4.4364 -2.5079
  804MOL0     H 6089   6.290   5.186   4.034 -2.5615  0.4308  0.2843
  804MOL0     H 6090   6.118   5.313   3.914  1.3471 -1.0174  1.5781
  804MOL0     H 6091   5.874   5.277   3.842 -1.2744 -0.2552  0.6022
  804MOL0     H 6092   5.667   5.092   3.624  0.5107  1.4004 -2.2714
  804MOL0     H 6093   5.471   5.031   3.475 -2.2375  0.4488 -0.1247
  804MOL0     H 6094   5.102   5.011   3.648 -2.0681 -2.0758 -0.2664
  804MOL0     H 6095   5.201   4.901   3.546  1.7908  1.0520 -1.5602
  804MOL0     H 6096   5.074   4.922   3.359  0.8189  1.0780  0.2343
  804MOL0     H 6097   4.981   5.057   3.425  2.3471  2.0640 -1.0782
  804MOL0     H 6098   4.864   4.921   3.586 -3.4788 -1.7477 -2.0868
  804MOL0     H 6099   4.968   4.791   3.550  0.6736 -0.5527  0.0280
  804MOL0     H 6100   4.767   4.926   3.355  1.3845  0.7555 -0.3234
  804MOL0     H 6101   4.881   4.808   3.292  1.8886  1.7308  1.0052
  804MOL0     H 6102   4.781   4.661   3.498 -0.7994  1.1731  2.6632
  804MOL0     H 6103   4.684   4.685   3.344 -0.4546 -0.1316  0.2681
  804MOL0     H 6104   4.553   4.866   3.471 -3.8559 -1.9651  0.1662
  804MOL0     H 6105   4.646   4.838   3.609  1.9503 -1.7900  1.6756
  804MOL0     H 6106   4.534   4.599   3.607 -0.1680 -1.9482 -1.1403
  804MOL0     H 6107   4.436   4.737   3.632  1.1402  1.4248 -0.0240
  804MOL0     H 6108   4.360   4.555   3.451 -0.5938 -1.2655 -1.8273
  804MOL0     H 6109   4.478   4.631   3.348 -2.4495 -2.2408 -1.0651
  804MOL0     H 6110   5.203   5.226   3.749  1.5875  2.0597  1.7491
  804MOL0     H 6111   5.403   5.307   3.877  0.9922 -0.3173 -1.2535
  804MOL0     H 6112   5.761   5.224   4.241  0.3272  0.5849 -0.0783
  804MOL0     H 6113   5.982   5.244   4.317  0.8365 -1.2574 -0.6326
  804MOL0     H 6114   7.453   4.346   3.605 -1.2880  1.5632 -0.6240
  804MOL0     H 6115   7.587   4.214   3.469  0.9747 -0.9577  1.1547
  804MOL0     H 6116   8.232   4.204   3.351 -0.1079  3.0346  0.1564
  804MOL0     H 6117   8.337   4.139   3.168 -0.7374  1.8088  3.0915
  804MOL0     H 6118   8.431   4.156   2.978 -1.9693  0.3127  1.1350
  804MOL0     H 6119   8.409   4.141   2.798 -0.9786  1.8381 -0.3873
  804MOL0     H 6120   8.326   3.900   2.958  0.2523 -1.5004  0.3265
  804MOL0     H 6121   8.379   3.917   2.798 -0.6663  0.4480  0.0584
  804MOL0     H 6122   8.591   3.965   3.017 -3.5134 -0.9490  3.0411
  804MOL0     H 6123   8.611   3.929   2.842 -0.8801 -0.8418 -1.7854
  804MOL0     H 6124   8.497   3.739   3.069  2.2500  0.7623  1.7856
  804MOL0     H 6125   8.506   3.705   2.893 -1.0875  1.5730 -1.2503
  804MOL0     H 6126   8.875   3.605   3.063 -0.2233 -0.1528  0.5663
  804MOL0     H 6127   7.988   4.232   2.925  2.6404  1.9110 -0.7935
  804MOL0     H 6128   7.862   4.274   3.128  0.6203  2.6598 -0.6282
  805MOL0     O 6129   4.033   7.475   6.875  0.0719  1.0758 -0.7910
  805MOL0     C 6130   4.035   7.476   6.998 -0.5860  0.7524 -0.1914
  805MOL0     O 6131   3.954   7.408   7.079  0.0879  0.0174  0.0763
  805MOL0     C 6132   3.853   7.334   7.021 -0.6007 -0.1663 -0.2314
  805MOL0     C 6133   3.842   7.203   7.067 -0.2503 -0.2787 -0.9385
  805MOL0     C 6134   3.735   7.118   7.030 -0.3582 -0.1312 -0.4932
  805MOL0     C 6135   3.632   7.166   6.942 -1.0662 -0.0337  0.7284
  805MOL0     O 6136   3.523   7.082   6.907 -0.1613  0.6403  0.4702
  805MOL0     C 6137   3.413   7.083   7.003  0.1586  0.8902 -0.1602
  805MOL0     C 6138   3.286   7.037   6.935  0.0656  0.3669 -0.5031
  805MOL0     C 6139   3.186   6.998   7.039  1.0031  0.2027 -0.2551
  805MOL0     C 6140   3.071   6.913   6.969  0.3341  0.0239  0.4526
  805MOL0     C 6141   2.968   6.872   7.079  0.0564  0.3124  0.2762
  805MOL0     C 6142   2.850   6.786   7.022  0.7047  0.3661  1.1826
  805MOL0     C 6143   2.741   6.780   7.121 -0.1668  0.0316  0.0296
  805MOL0     C 6144   2.646   6.670   7.079  0.4062  0.8754  0.2072
  805MOL0     N 6145   2.547   6.641   7.185  0.0087 -0.0670  0.2064
  805MOL0     C 6146   2.441   6.559   7.157 -0.5857 -0.1883  0.6382
  805MOL0     C 6147   2.368   6.563   7.269 -0.0398  0.0906  0.4743
  805MOL0     C 6148   2.227   6.515   7.270 -0.1040  0.1187  0.2038
  805MOL0     C 6149   2.127   6.617   7.196  0.2028 -0.2138  1.0188
  805MOL0     C 6150   1.986   6.627   7.267  0.1572  0.1661 -0.1936
  805MOL0     C 6151   1.943   6.761   7.320  0.0025  0.5543  0.3412
  805MOL0     O 6152   1.806   6.779   7.365 -0.0992  0.5510  0.1020
  805MOL0     C 6153   1.706   6.784   7.271  0.2636  0.5015  0.0607
  805MOL0     C 6154   1.585   6.794   7.317 -0.2455 -1.0053  0.2079
  805MOL0     C 6155   1.476   6.805   7.225 -0.2573 -0.2140  0.1970
  805MOL0     C 6156   1.502   6.811   7.079 -0.6879 -0.2491 -0.0266
  805MOL0     C 6157   1.389   6.805   6.986  0.0911  0.1089  0.0921
  805MOL0     O 6158   1.261   6.791   7.032 -0.4659 -0.5924  0.6307
  805MOL0     C 6159   1.164   6.750   6.944  0.0117 -0.6813  0.1421
  805MOL0     C 6160   1.089   6.853   6.887  0.1788  0.2255 -0.2463
  805MOL0     C 6161   0.982   6.825   6.807  1.1211 -0.5659  0.5732
  805MOL0     C 6162   0.957   6.701   6.762 -0.8244  0.0492 -0.0939
  805MOL0     O 6163   0.863   6.664   6.667 -0.1898  0.2902  0.1166
  805MOL0     C 6164   0.746   6.746   6.647  0.0865 -0.3820  0.1928
  805MOL0     C 6165   0.622   6.671   6.585  0.0846 -0.3084  0.5088
  805MOL0     C 6166   0.593   6.542   6.675  0.1025  0.1269 -0.3625
  805MOL0     C 6167   0.462   6.476   6.632  0.1818 -0.7089  0.5171
  805MOL0     C 6168   0.411   6.419   6.765 -0.2278  0.3101  0.0534
  805MOL0     C 6169   0.281   6.334   6.757  1.1784 -1.0107  0.3465
  805MOL0     C 6170   0.173   6.402   6.684 -1.0229 -0.1604  0.3303
  805MOL0     C 6171   0.040   6.347   6.725 -0.4599 -0.0695 -0.1908
  805MOL0    Cl 6172  -0.075   6.370   6.597 -0.1571 -0.4092  0.1780
  805MOL0     C 6173   1.042   6.598   6.811 -0.6663  0.4788  0.1649
  805MOL0     C 6174   1.141   6.619   6.909  0.7947 -0.3405  0.7486
  805MOL0     O 6175   1.419   6.800   6.865 -0.0503 -0.4456  0.0543
  805MOL0     C 6176   1.637   6.797   7.040 -0.3243  0.1651  0.9516
  805MOL0     C 6177   1.735   6.785   7.134  0.2769  0.5967  0.0876
  805MOL0     N 6178   2.438   6.637   7.364  0.3441 -0.1984  0.0579
  805MOL0     N 6179   2.540   6.689   7.310  0.0851 -0.1708 -0.3112
  805MOL0     C 6180   3.658   7.293   6.880  0.7883  0.0847 -0.8206
  805MOL0     C 6181   3.761   7.378   6.925 -0.5724 -0.2928 -0.5997
  805MOL0     C 6182   4.145   7.561   7.056  0.0127  1.3539  0.1328
  805MOL0     C 6183   4.267   7.592   6.989  0.2914 -1.2530  0.5922
  805MOL0     C 6184   4.364   7.684   7.039 -0.3339  0.1514  0.1729
  805MOL0     C 6185   4.348   7.719   7.177 -0.1706 -0.6414 -0.1859
  805MOL0     O 6186   4.431   7.801   7.254 -0.9963  0.2336 -0.4667
  805MOL0     C 6187   4.563   7.807   7.214  0.2717 -0.4144  1.5264
  805MOL0     C 6188   4.651   7.887   7.321 -0.5900 -0.1113  0.6088
  805MOL0     C 6189   4.597   8.030   7.338  0.4779  0.5742 -0.3228
  805MOL0     C 6190   4.677   8.088   7.452  0.5660  0.3890 -0.2483
  805MOL0     C 6191   4.671   8.231   7.447 -0.2746 -0.5214 -0.1247
  805MOL0     C 6192   4.653   8.347   7.452 -0.3730 -0.4027  0.1977
  805MOL0     C 6193   4.237   7.677   7.248  0.4847  0.6646 -0.1422
  805MOL0     C 6194   4.136   7.602   7.191  0.3712  0.6891 -0.3435
  805MOL0     H 6195   3.900   7.170   7.153 -0.9554  0.1998 -0.2596
  805MOL0     H 6196   3.718   7.023   7.079  1.8078  0.5364  1.7707
  805MOL0     H 6197   3.404   7.188   7.032  0.7163  1.5644 -2.3240
  805MOL0     H 6198   3.443   7.016   7.084  0.1931  0.0779 -0.8346
  805MOL0     H 6199   3.310   6.947   6.877  0.7869  1.3677 -1.8205
  805MOL0     H 6200   3.243   7.111   6.867 -1.1735 -0.9029 -1.1539
  805MOL0     H 6201   3.152   7.085   7.095  0.0773  0.6573 -1.4781
  805MOL0     H 6202   3.222   6.927   7.114 -0.8230  1.3188  1.7778
  805MOL0     H 6203   3.027   6.970   6.887 -0.3405  1.5824  1.8483
  805MOL0     H 6204   3.108   6.826   6.914 -0.5741 -0.0340 -0.0874
  805MOL0     H 6205   2.927   6.962   7.124 -1.7408 -0.3183  0.0071
  805MOL0     H 6206   3.017   6.820   7.162 -1.6093  1.0402  1.7812
  805MOL0     H 6207   2.892   6.688   7.001  2.2985  1.1387  0.6365
  805MOL0     H 6208   2.814   6.834   6.930 -2.4693  2.7356  3.4454
  805MOL0     H 6209   2.800   6.765   7.211  2.7890  0.8056 -1.6560
  805MOL0     H 6210   2.682   6.871   7.137 -0.8466 -0.1531 -1.2422
  805MOL0     H 6211   2.695   6.576   7.054 -0.5659  0.2695  0.4946
  805MOL0     H 6212   2.580   6.685   6.993  1.0924 -0.9000 -0.6706
  805MOL0     H 6213   2.420   6.504   7.066  0.6988 -1.9953  1.3758
  805MOL0     H 6214   2.199   6.498   7.374 -1.3478 -1.8877 -0.4075
  805MOL0     H 6215   2.218   6.418   7.220  0.6357 -0.1595  0.6088
  805MOL0     H 6216   2.120   6.583   7.093  1.1756  3.5309 -0.4262
  805MOL0     H 6217   2.162   6.720   7.189 -2.2578  0.6019 -0.5574
  805MOL0     H 6218   1.910   6.607   7.191 -0.7910  1.7153  0.2924
  805MOL0     H 6219   1.977   6.549   7.343 -1.4030  0.9024  0.4218
  805MOL0     H 6220   1.964   6.846   7.253 -0.0179 -0.9426 -1.6576
  805MOL0     H 6221   2.011   6.780   7.403  0.2170 -0.2705  0.3644
  805MOL0     H 6222   1.569   6.801   7.424  0.3501 -2.0563  0.3812
  805MOL0     H 6223   1.373   6.807   7.259  0.1671  0.0969  1.5427
  805MOL0     H 6224   1.126   6.955   6.893 -3.3260  1.6170  0.1919
  805MOL0     H 6225   0.940   6.902   6.742  1.1775 -0.7957  0.2657
  805MOL0     H 6226   0.763   6.834   6.585 -1.3208 -0.2790 -0.0941
  805MOL0     H 6227   0.701   6.780   6.741 -2.6199  2.3108 -1.8752
  805MOL0     H 6228   0.633   6.640   6.481 -1.1877 -3.2618  1.1456
  805MOL0     H 6229   0.546   6.749   6.591  0.9491  0.6397 -0.5667
  805MOL0     H 6230   0.585   6.575   6.779  1.1086 -2.0978  0.4996
  805MOL0     H 6231   0.674   6.468   6.667  0.1686  0.2936 -1.4372
  805MOL0     H 6232   0.390   6.555   6.607 -1.4619 -1.8146  1.5211
  805MOL0     H 6233   0.474   6.396   6.559 -1.9985  1.1052 -2.0518
  805MOL0     H 6234   0.404   6.494   6.846  1.6709 -0.4868  1.0194
  805MOL0     H 6235   0.486   6.344   6.793 -1.3627 -1.1939 -0.8332
  805MOL0     H 6236   0.245   6.311   6.858  0.2874 -0.1564  0.2379
  805MOL0     H 6237   0.304   6.237   6.711 -0.9938 -1.6840  0.5453
  805MOL0     H 6238   0.169   6.507   6.716 -2.6216  0.1653 -0.8056
  805MOL0     H 6239   0.195   6.398   6.577 -0.1011  0.6893  0.4672
  805MOL0     H 6240   0.016   6.390   6.823 -0.0271 -1.5870  0.6195
  805MOL0     H 6241   0.055   6.239   6.738 -1.3587 -0.1230  0.5371
  805MOL0     H 6242   1.013   6.500   6.773 -1.7373  0.7689  0.2164
  805MOL0     H 6243   1.189   6.533   6.956  2.3336 -0.3490 -0.7369
  805MOL0     H 6244   1.663   6.777   6.937 -0.1533 -2.3923  1.4069
  805MOL0     H 6245   1.836   6.777   7.095  0.2314  1.0779 -0.1440
  805MOL0     H 6246   3.600   7.339   6.800  2.6745  1.0007 -1.7346
  805MOL0     H 6247   3.779   7.476   6.882 -0.1683 -0.7796 -1.5687
  805MOL0     H 6248   4.282   7.550   6.891 -0.9852 -0.9960  0.2689
  805MOL0     H 6249   4.454   7.712   6.985 -0.8349  3.5778  0.9271
  805MOL0     H 6250   4.570   7.855   7.116  0.4505 -0.3215  1.5842
  805MOL0     H 6251   4.602   7.705   7.201 -0.3575 -1.0074  3.8536
  805MOL0     H 6252   4.653   7.835   7.417  0.8390 -0.0028  0.6662
  805MOL0     H 6253   4.756   7.900   7.291  0.2343  0.0984  3.3454
  805MOL0     H 6254   4.489   8.027   7.354  0.2067  0.9154 -1.9347
  805MOL0     H 6255   4.618   8.085   7.246 -0.8790  2.3675  0.3817
  805MOL0     H 6256   4.629   8.052   7.543  2.2539  1.0140  0.9328
  805MOL0     H 6257   4.780   8.051   7.447  0.2978 -0.4860  0.3699
  805MOL0     H 6258   4.635   8.452   7.451 -3.2116 -0.7895  1.3188
  805MOL0     H 6259   4.235   7.695   7.355 -1.0266  0.6252 -0.1518
  805MOL0     H 6260   4.055   7.578   7.259  1.4461  0.7011  0.9955
  806MOL0     O 6261   9.275   6.459   1.857  0.1841 -0.4051 -0.5512
  806MOL0     C 6262   9.221   6.383   1.779 -0.1642  0.3513  0.1235
  806MOL0     O 6263   9.286   6.311   1.693  0.7610 -0.1754  1.3364
  806MOL0     C 6264   9.417   6.313   1.654 -0.8323 -0.5379 -0.1346
  806MOL0     C 6265   9.502   6.426   1.661 -0.3585  0.4237 -0.1705
  806MOL0     C 6266   9.641   6.411   1.631  0.5806 -0.0474 -0.2657
  806MOL0     C 6267   9.695   6.295   1.589  0.2834 -0.7772  0.1909
  806MOL0     O 6268   9.821   6.300   1.553 -0.3266 -0.5399 -0.4268
  806MOL0     C 6269   9.874   6.201   1.468  0.2243  0.1207 -0.1392
  806MOL0     C 6270  10.020   6.223   1.431  0.6635 -1.5060 -0.4277
  806MOL0     C 6271  10.107   6.237   1.552  0.1578  0.5351 -0.2952
  806MOL0     C 6272  10.263   6.251   1.537  0.3675 -0.7614  0.1123
  806MOL0     C 6273  10.337   6.308   1.661 -0.1261 -0.4650  1.2299
  806MOL0     C 6274  10.320   6.466   1.666  0.1152 -0.3031  0.1580
  806MOL0     C 6275  10.359   6.508   1.813  0.2259  0.1214  0.8543
  806MOL0     C 6276  10.359   6.659   1.824 -0.1938  0.0371  0.8476
  806MOL0     N 6277  10.342   6.692   1.968 -0.0496 -0.4134  0.4694
  806MOL0     C 6278  10.235   6.668   2.055  0.9783 -0.0479  0.0158
  806MOL0     C 6279  10.277   6.710   2.179  1.0509 -0.9078 -0.1783
  806MOL0     C 6280  10.201   6.694   2.312 -0.7165 -0.4144  1.1731
  806MOL0     C 6281  10.103   6.809   2.344  0.1393 -0.6772  0.4946
  806MOL0     C 6282   9.961   6.768   2.290  0.4953  0.5051  0.4705
  806MOL0     C 6283   9.887   6.672   2.383  0.0121 -0.1588  0.9824
  806MOL0     O 6284   9.759   6.620   2.336  0.1335  0.3512 -0.2553
  806MOL0     C 6285   9.700   6.532   2.425 -0.1210 -0.9358  0.9732
  806MOL0     C 6286   9.586   6.462   2.385 -0.6875 -0.3588  0.4584
  806MOL0     C 6287   9.525   6.370   2.470 -0.9059  0.7853 -0.4724
  806MOL0     C 6288   9.572   6.342   2.598 -0.2583  0.3858 -0.4284
  806MOL0     C 6289   9.513   6.233   2.687 -0.2017 -0.0799 -0.1003
  806MOL0     O 6290   9.401   6.177   2.648  0.4940  0.0585 -0.2723
  806MOL0     C 6291   9.330   6.100   2.736  0.5071 -0.7292 -0.2109
  806MOL0     C 6292   9.287   6.148   2.862  0.6568 -1.1224 -0.4602
  806MOL0     C 6293   9.221   6.055   2.944  0.3192  0.4161 -0.0413
  806MOL0     C 6294   9.178   5.924   2.902 -0.1195  0.8882 -0.3089
  806MOL0     O 6295   9.098   5.846   2.982  0.0178  0.8236  0.1276
  806MOL0     C 6296   9.026   5.739   2.915 -0.2389 -0.0503  0.1913
  806MOL0     C 6297   8.901   5.703   3.001 -1.0376  0.1686 -0.0336
  806MOL0     C 6298   8.772   5.773   2.980 -0.4019 -0.3080 -0.1154
  806MOL0     C 6299   8.649   5.712   3.049 -0.5860 -0.1281 -0.3894
  806MOL0     C 6300   8.532   5.810   3.031 -0.2979  0.1106  0.1480
  806MOL0     C 6301   8.410   5.752   3.084  0.0553 -0.4263  0.0787
  806MOL0     C 6302   8.355   5.639   2.990 -0.2761  0.6188  0.2715
  806MOL0     C 6303   8.208   5.598   3.025  0.1898 -0.2788 -0.1816
  806MOL0    Cl 6304   8.081   5.721   3.056  0.4633 -0.1898  0.1112
  806MOL0     C 6305   9.227   5.880   2.776 -0.2472 -0.4454  0.1185
  806MOL0     C 6306   9.296   5.970   2.697  0.7997  0.4721  0.8838
  806MOL0     O 6307   9.578   6.215   2.791  0.0878  0.3687  0.0118
  806MOL0     C 6308   9.680   6.419   2.643  0.4544  0.4358  0.8255
  806MOL0     C 6309   9.745   6.505   2.556  0.3727 -0.0418 -0.6413
  806MOL0     N 6310  10.410   6.748   2.167 -0.3744 -0.2468  0.5829
  806MOL0     N 6311  10.448   6.737   2.042  0.4172 -0.1702 -0.7251
  806MOL0     C 6312   9.616   6.183   1.577  0.7022  0.4862  1.0189
  806MOL0     C 6313   9.475   6.191   1.614 -0.8705  0.9231 -0.1377
  806MOL0     C 6314   9.066   6.368   1.778  0.1854  0.0303 -0.6321
  806MOL0     C 6315   8.995   6.405   1.895  0.8331 -0.0489 -0.4400
  806MOL0     C 6316   8.855   6.401   1.901  0.0352 -0.8324  0.4289
  806MOL0     C 6317   8.779   6.343   1.795  0.1433  0.6325 -0.3591
  806MOL0     O 6318   8.641   6.343   1.807  0.0797 -0.2137  0.2507
  806MOL0     C 6319   8.552   6.323   1.689  0.5230 -1.3743  0.2871
  806MOL0     C 6320   8.409   6.347   1.735  0.6027 -0.1506 -0.4104
  806MOL0     C 6321   8.299   6.321   1.627  0.4907  0.0115 -0.3335
  806MOL0     C 6322   8.157   6.367   1.676  0.3177  0.7099  0.8075
  806MOL0     C 6323   8.097   6.293   1.775  0.4755 -0.6446  0.0845
  806MOL0     C 6324   8.034   6.246   1.868  0.4402 -0.8623 -0.4136
  806MOL0     C 6325   8.853   6.309   1.681  0.3805 -0.0362  0.0581
  806MOL0     C 6326   8.987   6.316   1.675  0.5894 -0.6320  0.4364
  806MOL0     H 6327   9.464   6.517   1.707  0.0590  0.2529  0.5343
  806MOL0     H 6328   9.706   6.496   1.645  0.5330  0.0083 -0.3788
  806MOL0     H 6329   9.814   6.187   1.377  0.0464  1.5093 -0.2576
  806MOL0     H 6330   9.871   6.108   1.525  1.0742 -0.5192 -1.0845
  806MOL0     H 6331  10.030   6.314   1.372 -1.7035 -1.6685 -1.2245
  806MOL0     H 6332  10.054   6.146   1.361  1.8036  1.4273 -3.3427
  806MOL0     H 6333  10.082   6.148   1.611  2.4075 -0.7073 -1.1095
  806MOL0     H 6334  10.065   6.326   1.600 -1.5513 -0.1125 -0.5238
  806MOL0     H 6335  10.304   6.152   1.517 -1.5341 -1.8265  1.2680
  806MOL0     H 6336  10.269   6.314   1.447 -1.6349  0.1523  0.5648
  806MOL0     H 6337  10.442   6.281   1.648 -0.6945 -2.5495  0.5966
  806MOL0     H 6338  10.291   6.252   1.743  0.4116  0.7710  2.4060
  806MOL0     H 6339  10.219   6.497   1.639 -0.4150 -0.2793  2.0263
  806MOL0     H 6340  10.387   6.516   1.595  0.9832  0.7757  1.6797
  806MOL0     H 6341  10.286   6.464   1.883  0.7928 -2.0149  0.1849
  806MOL0     H 6342  10.452   6.462   1.845 -0.0946  1.1718  3.5739
  806MOL0     H 6343  10.291   6.706   1.753 -0.1770 -1.5149 -0.2282
  806MOL0     H 6344  10.449   6.706   1.784 -1.8194  0.9006 -2.0437
  806MOL0     H 6345  10.132   6.638   2.039  0.2816  1.0158  2.1905
  806MOL0     H 6346  10.265   6.683   2.400 -1.2376  0.8381  1.7349
  806MOL0     H 6347  10.149   6.599   2.300  1.2562 -1.6229  1.7176
  806MOL0     H 6348  10.141   6.895   2.288  0.4686 -1.2258 -0.1541
  806MOL0     H 6349  10.105   6.832   2.451 -1.5394 -2.7922  1.0475
  806MOL0     H 6350   9.895   6.855   2.279  2.0453  1.6661  0.1044
  806MOL0     H 6351   9.955   6.722   2.191 -1.9920  1.5844  0.0414
  806MOL0     H 6352   9.863   6.736   2.469  1.7696 -1.1981  2.3197
  806MOL0     H 6353   9.953   6.589   2.411 -2.8397 -1.8019  3.3277
  806MOL0     H 6354   9.538   6.473   2.288  0.8210 -1.0109 -0.4164
  806MOL0     H 6355   9.442   6.311   2.432 -1.2189  0.5904  0.4835
  806MOL0     H 6356   9.322   6.242   2.902 -1.8149 -1.3146  2.5648
  806MOL0     H 6357   9.199   6.090   3.044  0.0704 -1.0388  0.4259
  806MOL0     H 6358   9.086   5.647   2.918  0.4589  0.3397 -1.2573
  806MOL0     H 6359   8.989   5.753   2.813 -1.0155 -1.3915  0.2596
  806MOL0     H 6360   8.933   5.734   3.101  1.6670  0.3509 -0.8516
  806MOL0     H 6361   8.893   5.594   3.000  0.2934  0.0422 -1.0178
  806MOL0     H 6362   8.752   5.758   2.874  0.2573  0.3948 -0.3433
  806MOL0     H 6363   8.786   5.880   2.997  1.4732 -0.0635 -2.7243
  806MOL0     H 6364   8.630   5.609   3.016 -0.7416 -0.9085  1.8959
  806MOL0     H 6365   8.663   5.705   3.158  0.6832 -0.4265 -0.5525
  806MOL0     H 6366   8.517   5.834   2.925  0.7306  2.9268  0.5548
  806MOL0     H 6367   8.548   5.905   3.082 -2.1221 -1.3784  3.8515
  806MOL0     H 6368   8.336   5.832   3.088 -0.3786 -0.7406 -1.0477
  806MOL0     H 6369   8.426   5.718   3.186  3.3059  0.1382 -0.1523
  806MOL0     H 6370   8.356   5.670   2.886  0.6994  2.5339  0.7990
  806MOL0     H 6371   8.419   5.550   2.994  1.6483  1.9763  1.2812
  806MOL0     H 6372   8.203   5.537   3.116 -1.7648 -1.3845 -0.9621
  806MOL0     H 6373   8.185   5.533   2.939 -0.0995 -2.1483  1.2306
  806MOL0     H 6374   9.220   5.774   2.754 -2.1849 -0.3191 -0.0442
  806MOL0     H 6375   9.325   5.930   2.601 -3.0781 -0.8205  0.0701
  806MOL0     H 6376   9.746   6.394   2.725  0.2332  0.2714  0.9558
  806MOL0     H 6377   9.838   6.542   2.598 -0.1358  0.7123 -0.1290
  806MOL0     H 6378   9.658   6.090   1.538  0.5962  1.1205 -0.7164
  806MOL0     H 6379   9.417   6.099   1.609 -0.5458  0.7701 -2.9082
  806MOL0     H 6380   9.048   6.422   1.988 -0.8893  1.0094  0.4134
  806MOL0     H 6381   8.798   6.424   1.991 -0.1370 -1.9819  0.6226
  806MOL0     H 6382   8.574   6.229   1.638  1.2290 -2.2463  2.0915
  806MOL0     H 6383   8.579   6.404   1.621 -0.5702 -2.4862 -1.5333
  806MOL0     H 6384   8.391   6.280   1.820  3.8060  0.9038  1.2739
  806MOL0     H 6385   8.394   6.449   1.773 -3.0585  0.0245 -1.9095
  806MOL0     H 6386   8.301   6.211   1.622  1.9388 -0.1114  1.8009
  806MOL0     H 6387   8.322   6.369   1.531  1.9294  1.0423  0.4865
  806MOL0     H 6388   8.172   6.469   1.712 -0.1769  0.0529  3.0365
  806MOL0     H 6389   8.083   6.373   1.595 -0.7574 -1.0103  1.6179
  806MOL0     H 6390   7.993   6.181   1.943  0.8205  0.9684  1.4658
  806MOL0     H 6391   8.811   6.273   1.587  1.3357  1.5557 -1.0305
  806MOL0     H 6392   9.041   6.281   1.587 -0.3495  2.2134 -1.4356
  807MOL0     O 6393  11.161   4.547   9.559  0.9415 -0.0490 -0.0973
  807MOL0     C 6394  11.177   4.511   9.441  0.2828 -0.4511  0.8695
  807MOL0     O 6395  11.079   4.496   9.347  0.0512  0.3420 -0.1320
  807MOL0     C 6396  10.948   4.521   9.391  0.0003 -0.5035  0.0008
  807MOL0     C 6397  10.869   4.627   9.335 -1.2771  0.2712 -0.1463
  807MOL0     C 6398  10.745   4.667   9.385 -0.4139 -0.5797 -0.1858
  807MOL0     C 6399  10.687   4.600   9.486 -0.6382  0.8691 -0.3689
  807MOL0     O 6400  10.570   4.642   9.548  0.5577  0.4925 -0.2685
  807MOL0     C 6401  10.498   4.546   9.633  0.1277 -0.1778  0.5424
  807MOL0     C 6402  10.397   4.614   9.720 -0.0831  0.1359 -0.4753
  807MOL0     C 6403  10.322   4.521   9.824 -0.9081  0.4943 -0.4157
  807MOL0     C 6404  10.251   4.613   9.926 -0.2221  0.9347  1.2702
  807MOL0     C 6405  10.153   4.702   9.847 -0.1709  0.1826  0.3079
  807MOL0     C 6406  10.043   4.616   9.782 -0.1025  0.4381 -0.0331
  807MOL0     C 6407   9.936   4.700   9.709 -0.4013 -0.6265 -0.7893
  807MOL0     C 6408   9.822   4.631   9.641 -0.4748  0.0577 -0.2207
  807MOL0     N 6409   9.758   4.716   9.550  0.4127 -0.2354 -0.4242
  807MOL0     C 6410   9.656   4.806   9.584 -0.7270  0.4841  0.0002
  807MOL0     C 6411   9.636   4.873   9.469  0.5541 -0.0573 -0.8586
  807MOL0     C 6412   9.523   4.963   9.455  0.9388 -0.4197  0.2621
  807MOL0     C 6413   9.399   4.880   9.427 -0.0250  0.0167  0.0788
  807MOL0     C 6414   9.272   4.961   9.396 -1.3414 -0.4961  0.5117
  807MOL0     C 6415   9.150   4.887   9.347  0.4201 -0.0040  0.3704
  807MOL0     O 6416   9.061   4.994   9.314 -0.3117  0.1228  1.1351
  807MOL0     C 6417   8.929   4.970   9.274 -0.3529  0.8880 -0.3265
  807MOL0     C 6418   8.857   5.091   9.245 -0.1323 -0.5144 -0.2188
  807MOL0     C 6419   8.721   5.083   9.217  0.8459  0.3305 -0.6164
  807MOL0     C 6420   8.661   4.960   9.208  0.3876 -0.0048  0.0262
  807MOL0     C 6421   8.515   4.946   9.183 -1.0482  0.2238  0.4654
  807MOL0     O 6422   8.431   5.058   9.200 -0.4565  0.4665  0.3536
  807MOL0     C 6423   8.296   5.049   9.166  1.0909  0.0680  0.6517
  807MOL0     C 6424   8.204   5.045   9.268  0.3177 -0.6057 -0.5050
  807MOL0     C 6425   8.066   5.039   9.243 -0.0261 -0.2416  0.7353
  807MOL0     C 6426   8.013   5.049   9.112  0.0561 -1.5277  0.5528
  807MOL0     O 6427   7.881   5.040   9.089  0.6224  0.3943 -0.4522
  807MOL0     C 6428   7.820   5.009   8.957 -0.0438 -0.5632 -0.2202
  807MOL0     C 6429   7.667   5.006   8.960 -0.1683 -0.6071 -0.8869
  807MOL0     C 6430   7.611   4.947   8.831  0.1509  1.2279 -0.3944
  807MOL0     C 6431   7.463   4.949   8.844  1.1626  0.4756  0.5729
  807MOL0     C 6432   7.392   4.911   8.712  0.1301 -0.0822  0.3689
  807MOL0     C 6433   7.239   4.887   8.725  0.3362 -0.3011 -0.6419
  807MOL0     C 6434   7.154   5.020   8.714  0.1290  0.4341 -0.3748
  807MOL0     C 6435   7.013   5.001   8.760 -0.0573  0.8111  1.0932
  807MOL0    Cl 6436   6.931   4.901   8.639  0.1837 -0.0819 -0.4788
  807MOL0     C 6437   8.109   5.054   9.004  0.4140 -0.0467  0.2146
  807MOL0     C 6438   8.249   5.052   9.031 -0.3521 -0.5804 -0.4331
  807MOL0     O 6439   8.470   4.836   9.161  0.4440 -0.2105  0.2352
  807MOL0     C 6440   8.731   4.834   9.229  0.5525 -0.0202 -0.3949
  807MOL0     C 6441   8.867   4.841   9.264  0.0368 -0.2917  0.0287
  807MOL0     N 6442   9.722   4.823   9.367  0.2883 -0.2505  0.0751
  807MOL0     N 6443   9.784   4.721   9.417  0.8364 -0.0074 -0.1827
  807MOL0     C 6444  10.760   4.484   9.531 -0.4496 -0.6333  0.4500
  807MOL0     C 6445  10.885   4.449   9.491 -0.6759 -0.1435  0.3639
  807MOL0     C 6446  11.313   4.505   9.388  0.7295  0.7591  0.2588
  807MOL0     C 6447  11.342   4.464   9.252 -0.0648 -0.3956 -0.2881
  807MOL0     C 6448  11.471   4.456   9.214 -0.5313 -0.4931 -0.4216
  807MOL0     C 6449  11.577   4.484   9.302 -0.1916 -0.1571 -0.4387
  807MOL0     O 6450  11.705   4.472   9.268  0.1601 -0.4535 -0.3925
  807MOL0     C 6451  11.783   4.383   9.356 -0.3677  0.1558  1.1392
  807MOL0     C 6452  11.925   4.378   9.305 -0.3058 -0.3810 -0.0223
  807MOL0     C 6453  11.937   4.342   9.158  0.6976  0.4875  0.0548
  807MOL0     C 6454  12.064   4.403   9.104  0.1958 -0.3415  0.7538
  807MOL0     C 6455  12.068   4.390   8.958 -0.4647  0.3032  1.2081
  807MOL0     C 6456  12.065   4.361   8.838 -0.0732 -0.2832 -0.1661
  807MOL0     C 6457  11.548   4.529   9.428 -0.3658 -0.5470 -0.4767
  807MOL0     C 6458  11.414   4.545   9.469 -0.4856 -0.3485  1.0377
  807MOL0     H 6459  10.909   4.682   9.251 -0.6101  0.6781  0.4308
  807MOL0     H 6460  10.689   4.750   9.343  0.3550  0.2863  0.4393
  807MOL0     H 6461  10.569   4.488   9.692  1.5348  0.1199 -0.7832
  807MOL0     H 6462  10.441   4.479   9.569 -0.4689 -0.2703  1.1669
  807MOL0     H 6463  10.333   4.676   9.656  2.4422 -0.0958 -3.4730
  807MOL0     H 6464  10.446   4.697   9.771 -0.7018 -0.3030  0.8615
  807MOL0     H 6465  10.392   4.466   9.888 -2.1231  1.6462  2.0325
  807MOL0     H 6466  10.252   4.459   9.767 -0.8423  1.2164 -1.3145
  807MOL0     H 6467  10.201   4.545   9.997 -0.7649 -1.2840 -1.0917
  807MOL0     H 6468  10.320   4.683   9.974  1.7223  0.6832 -1.0231
  807MOL0     H 6469  10.196   4.769   9.772 -0.6683 -0.4805 -0.5849
  807MOL0     H 6470  10.114   4.770   9.924 -0.7552  0.9869 -0.6672
  807MOL0     H 6471  10.005   4.543   9.854 -0.8003  1.8194  1.0424
  807MOL0     H 6472  10.078   4.545   9.707 -0.1386  0.3067  0.0750
  807MOL0     H 6473   9.894   4.766   9.786  0.3330 -1.4858  0.3748
  807MOL0     H 6474   9.975   4.772   9.636  0.7383 -1.2343 -0.8015
  807MOL0     H 6475   9.749   4.600   9.716 -0.7330  3.4927  1.1468
  807MOL0     H 6476   9.859   4.543   9.588 -0.4143  1.0023 -1.8102
  807MOL0     H 6477   9.613   4.811   9.684 -1.2050 -0.9405 -0.1058
  807MOL0     H 6478   9.541   5.041   9.380  1.7655 -0.5469  0.3256
  807MOL0     H 6479   9.501   5.014   9.550  1.0405  1.1749 -0.5319
  807MOL0     H 6480   9.382   4.812   9.511  0.4734 -0.2506 -0.0312
  807MOL0     H 6481   9.422   4.815   9.342 -1.8704 -1.6649  0.7874
  807MOL0     H 6482   9.263   5.032   9.479 -1.5551  1.1505 -0.8797
  807MOL0     H 6483   9.312   5.015   9.310 -1.3292 -1.3244 -0.0125
  807MOL0     H 6484   9.098   4.826   9.422 -4.6187  1.4640 -1.4911
  807MOL0     H 6485   9.180   4.839   9.254  0.7496  0.4999  0.2096
  807MOL0     H 6486   8.909   5.185   9.249 -1.1967  0.1486 -1.1156
  807MOL0     H 6487   8.665   5.175   9.205 -0.1251 -0.2808 -0.8108
  807MOL0     H 6488   8.230   5.040   9.373 -4.1274  1.4956  0.9779
  807MOL0     H 6489   7.997   5.039   9.327  1.0294  3.8065  1.8169
  807MOL0     H 6490   7.857   4.916   8.913 -0.0809  0.2343 -2.0110
  807MOL0     H 6491   7.845   5.095   8.893 -1.9150 -0.6047 -1.0527
  807MOL0     H 6492   7.619   5.103   8.975  0.9481 -0.1797  0.1688
  807MOL0     H 6493   7.627   4.947   9.043  1.1192  0.2596  0.4228
  807MOL0     H 6494   7.634   4.841   8.819  0.3593  1.4716 -2.5353
  807MOL0     H 6495   7.643   5.000   8.741 -1.7328 -0.3948 -2.1380
  807MOL0     H 6496   7.437   4.879   8.924  0.2638  1.4194  1.1322
  807MOL0     H 6497   7.421   5.040   8.887 -1.0527 -2.1063  4.5781
  807MOL0     H 6498   7.428   4.818   8.667 -0.9449  1.4440 -4.2170
  807MOL0     H 6499   7.404   4.996   8.643 -0.4846  0.8688  1.4191
  807MOL0     H 6500   7.223   4.844   8.824 -0.2538  2.6319  0.6610
  807MOL0     H 6501   7.199   4.819   8.649 -0.3259 -0.7834  0.1175
  807MOL0     H 6502   7.203   5.099   8.771  1.5685 -0.0930 -0.8334
  807MOL0     H 6503   7.160   5.052   8.610  2.2640  1.9451  0.1565
  807MOL0     H 6504   6.956   5.094   8.764 -1.8089 -0.2285  1.3607
  807MOL0     H 6505   7.005   4.941   8.851  0.1122 -1.7507 -0.4839
  807MOL0     H 6506   8.080   5.063   8.900 -2.0909  0.2904  0.8738
  807MOL0     H 6507   8.327   5.059   8.956  1.3627  1.6499  1.4313
  807MOL0     H 6508   8.682   4.739   9.214 -2.6738  1.4518 -0.0520
  807MOL0     H 6509   8.917   4.748   9.285 -3.1314 -1.7176  2.1041
  807MOL0     H 6510  10.733   4.419   9.613 -2.8127  0.0623  0.2960
  807MOL0     H 6511  10.929   4.363   9.541 -1.1100 -0.4535  0.2120
  807MOL0     H 6512  11.267   4.418   9.188  1.7204 -2.6319 -0.9367
  807MOL0     H 6513  11.501   4.425   9.114  1.8682  1.3661 -0.3696
  807MOL0     H 6514  11.738   4.285   9.340 -0.0945  0.4073 -1.7856
  807MOL0     H 6515  11.788   4.399   9.464 -1.0382 -1.3035  1.4084
  807MOL0     H 6516  11.983   4.468   9.328 -1.0993  0.2220 -0.3300
  807MOL0     H 6517  11.986   4.309   9.363 -1.3845 -0.5688  0.9203
  807MOL0     H 6518  11.847   4.387   9.114  0.7195  0.7377  0.2663
  807MOL0     H 6519  11.923   4.236   9.134  0.6139  0.0136  2.0689
  807MOL0     H 6520  12.079   4.507   9.134  1.5308 -0.9353  2.2743
  807MOL0     H 6521  12.151   4.349   9.141  1.6464 -0.5199 -2.5383
  807MOL0     H 6522  12.058   4.334   8.735  0.1483 -1.5361  0.1360
  807MOL0     H 6523  11.630   4.553   9.494 -0.1970 -1.6862 -0.2505
  807MOL0     H 6524  11.419   4.578   9.573  3.7288 -1.5274  1.4266
  808MOL0     O 6525   0.601   3.429   8.423 -0.4489  0.6075 -0.5774
  808MOL0     C 6526   0.628   3.471   8.535  0.5002  0.1939 -0.6964
  808MOL0     O 6527   0.539   3.490   8.639 -0.3631 -1.1337  0.4344
  808MOL0     C 6528   0.400   3.491   8.619 -0.1662  0.4548 -0.2604
  808MOL0     C 6529   0.320   3.563   8.709  0.1716 -0.1165  0.4809
  808MOL0     C 6530   0.179   3.541   8.708  0.3415  1.0036 -0.2771
  808MOL0     C 6531   0.117   3.437   8.634 -0.1808 -0.4011  0.5921
  808MOL0     O 6532  -0.019   3.412   8.624  0.7865  0.3812  0.4022
  808MOL0     C 6533  -0.111   3.522   8.652  0.0275  1.1552  0.1957
  808MOL0     C 6534  -0.257   3.474   8.631  0.6074 -1.3112 -0.3600
  808MOL0     C 6535  -0.354   3.587   8.649 -0.8975 -0.3170 -0.3491
  808MOL0     C 6536  -0.493   3.529   8.626  0.2220 -0.9867  0.9695
  808MOL0     C 6537  -0.605   3.632   8.636  0.0723  0.4094 -0.1620
  808MOL0     C 6538  -0.747   3.573   8.635 -0.3222 -0.4221 -0.5246
  808MOL0     C 6539  -0.858   3.670   8.602  0.2675 -0.6460  0.1203
  808MOL0     C 6540  -0.985   3.592   8.621 -0.2824 -0.1845 -0.3149
  808MOL0     N 6541  -1.106   3.667   8.594  0.4303 -0.3015 -0.6508
  808MOL0     C 6542  -1.125   3.740   8.474 -0.5040 -0.3695 -0.9659
  808MOL0     C 6543  -1.235   3.820   8.510 -0.3867  0.0262  0.0069
  808MOL0     C 6544  -1.302   3.919   8.405 -0.7351 -0.0352  0.2195
  808MOL0     C 6545  -1.446   3.926   8.449 -0.0130  0.6314  0.7023
  808MOL0     C 6546  -1.530   3.998   8.343 -0.3276 -1.3910 -0.1527
  808MOL0     C 6547  -1.653   4.052   8.410 -0.3132  0.3313 -0.4653
  808MOL0     O 6548  -1.728   3.942   8.479 -0.5310 -0.1659  0.2902
  808MOL0     C 6549  -1.862   3.917   8.438 -0.4459 -0.0817 -0.5242
  808MOL0     C 6550  -1.948   4.020   8.405 -0.0556  0.8421  0.1309
  808MOL0     C 6551  -2.085   3.994   8.371 -0.3801  0.8854  0.3743
  808MOL0     C 6552  -2.121   3.861   8.366 -0.7189  0.1932  0.7183
  808MOL0     C 6553  -2.243   3.821   8.299 -0.6540 -1.0300  0.2081
  808MOL0     O 6554  -2.310   3.705   8.341 -0.4018  0.4127 -0.8123
  808MOL0     C 6555  -2.436   3.684   8.299 -0.4972 -0.5209  0.0279
  808MOL0     C 6556  -2.462   3.546   8.273 -0.0468 -0.0083 -0.3292
  808MOL0     C 6557  -2.590   3.512   8.218 -0.1271  0.3482 -0.3189
  808MOL0     C 6558  -2.684   3.612   8.186 -0.7121  0.0429  0.3748
  808MOL0     O 6559  -2.816   3.584   8.145  0.0065  0.0423  0.1914
  808MOL0     C 6560  -2.916   3.512   8.228  0.5664  0.7161 -0.6346
  808MOL0     C 6561  -3.037   3.592   8.240  0.5470 -1.0697  0.7584
  808MOL0     C 6562  -3.143   3.524   8.320  0.0580 -0.5095  0.5164
  808MOL0     C 6563  -3.274   3.603   8.312 -0.0420 -0.1729  0.1777
  808MOL0     C 6564  -3.376   3.555   8.404  0.1978  0.9992 -0.8108
  808MOL0     C 6565  -3.494   3.650   8.402  0.3003 -1.2937  0.4303
  808MOL0     C 6566  -3.597   3.620   8.512 -1.4241 -0.1165 -0.4469
  808MOL0     C 6567  -3.739   3.663   8.478 -0.2174 -0.4399  0.4843
  808MOL0    Cl 6568  -3.843   3.620   8.617  0.1151 -0.1773 -0.2979
  808MOL0     C 6569  -2.659   3.743   8.212 -0.0435  0.5731  0.8874
  808MOL0     C 6570  -2.535   3.784   8.261  0.1027 -0.0184  0.6853
  808MOL0     O 6571  -2.272   3.889   8.197  0.2634  0.9591  0.1050
  808MOL0     C 6572  -2.038   3.758   8.418 -0.0581  0.4852 -0.9366
  808MOL0     C 6573  -1.909   3.786   8.461  0.3043  0.1913  0.6924
  808MOL0     N 6574  -1.284   3.779   8.640  0.0470  0.1805 -0.0526
  808MOL0     N 6575  -1.204   3.691   8.683 -0.0506 -0.4252 -0.0861
  808MOL0     C 6576   0.199   3.362   8.554 -0.1275 -0.1230  0.6542
  808MOL0     C 6577   0.337   3.384   8.547  0.2003  0.6216 -0.9592
  808MOL0     C 6578   0.769   3.505   8.555  0.2520  0.2276  0.4633
  808MOL0     C 6579   0.861   3.453   8.467  0.3511  0.4130 -0.4776
  808MOL0     C 6580   0.993   3.496   8.478  0.7863  0.4240  0.2802
  808MOL0     C 6581   1.031   3.579   8.577  0.3495  0.0900  0.1288
  808MOL0     O 6582   1.158   3.619   8.606  0.1184 -0.0050 -0.8515
  808MOL0     C 6583   1.277   3.564   8.527  0.1900  0.0321 -0.1971
  808MOL0     C 6584   1.395   3.609   8.597 -0.0259  0.1991 -0.0816
  808MOL0     C 6585   1.532   3.585   8.534 -0.4695 -0.0218 -0.1254
  808MOL0     C 6586   1.642   3.609   8.642  0.3479  0.3942 -0.7619
  808MOL0     C 6587   1.663   3.753   8.663  0.1075  1.2105  0.7092
  808MOL0     C 6588   1.675   3.874   8.666 -0.4036 -0.6917 -0.2810
  808MOL0     C 6589   0.942   3.630   8.675  0.2771 -0.6535  0.5119
  808MOL0     C 6590   0.806   3.597   8.665  0.4869  0.7313 -0.2669
  808MOL0     H 6591   0.358   3.640   8.775 -0.8366 -0.3706  1.3848
  808MOL0     H 6592   0.122   3.611   8.769  2.3577  0.5535  2.3093
  808MOL0     H 6593  -0.093   3.602   8.580  0.6726 -0.9009 -2.0275
  808MOL0     H 6594  -0.094   3.558   8.754 -1.9809 -1.8676  1.7622
  808MOL0     H 6595  -0.290   3.400   8.705  1.1881  1.0817  2.4958
  808MOL0     H 6596  -0.269   3.433   8.530  1.3141 -3.8103  0.4899
  808MOL0     H 6597  -0.332   3.672   8.584 -2.0300  2.8160  3.0101
  808MOL0     H 6598  -0.345   3.630   8.750 -2.9432  2.2541 -1.1585
  808MOL0     H 6599  -0.491   3.494   8.522 -2.4136  0.3271  0.3964
  808MOL0     H 6600  -0.509   3.449   8.699  0.9447 -1.1689  0.9314
  808MOL0     H 6601  -0.598   3.691   8.544 -2.3599 -1.8069 -1.8880
  808MOL0     H 6602  -0.598   3.691   8.728 -1.0966 -0.7119  0.6657
  808MOL0     H 6603  -0.758   3.529   8.734  1.6762 -0.5332 -0.2946
  808MOL0     H 6604  -0.751   3.492   8.561 -1.4350 -0.0816 -0.8508
  808MOL0     H 6605  -0.860   3.758   8.668  1.7313 -1.0599  0.7557
  808MOL0     H 6606  -0.837   3.701   8.499  3.5891  0.3451  0.9825
  808MOL0     H 6607  -1.003   3.559   8.724  0.0211  0.1869 -0.1384
  808MOL0     H 6608  -0.990   3.502   8.560 -2.3053  0.3984 -1.0970
  808MOL0     H 6609  -1.056   3.730   8.390  1.2615 -1.4382  0.5418
  808MOL0     H 6610  -1.289   3.879   8.304  0.1792 -0.4304  0.4814
  808MOL0     H 6611  -1.265   4.021   8.414  0.9167 -0.6715  1.1519
  808MOL0     H 6612  -1.444   3.975   8.547  2.0979  3.6128 -0.6849
  808MOL0     H 6613  -1.482   3.825   8.470 -0.9346  0.7598 -0.1737
  808MOL0     H 6614  -1.471   4.077   8.297 -0.0495  0.7007  3.4079
  808MOL0     H 6615  -1.571   3.931   8.267  1.1821  0.1738 -2.4859
  808MOL0     H 6616  -1.714   4.099   8.333  0.3295  0.7571 -0.7244
  808MOL0     H 6617  -1.626   4.130   8.483 -1.8865 -0.2474  0.7851
  808MOL0     H 6618  -1.908   4.121   8.405 -0.9818  1.2131 -0.0086
  808MOL0     H 6619  -2.157   4.072   8.345 -1.1245 -0.1955 -0.9280
  808MOL0     H 6620  -2.386   3.475   8.301 -0.3019 -0.2349 -0.2061
  808MOL0     H 6621  -2.624   3.409   8.221 -0.9214  0.6385  1.9037
  808MOL0     H 6622  -2.874   3.481   8.325  1.4861  2.2428 -0.5168
  808MOL0     H 6623  -2.937   3.415   8.181  2.4183 -1.5070  2.6691
  808MOL0     H 6624  -3.063   3.616   8.136  0.7870 -1.7582  0.5392
  808MOL0     H 6625  -3.016   3.685   8.294 -6.7335  1.1825  0.7553
  808MOL0     H 6626  -3.123   3.516   8.427 -2.2757 -1.1180  0.9780
  808MOL0     H 6627  -3.151   3.422   8.283  1.6981 -0.6338  0.4508
  808MOL0     H 6628  -3.252   3.708   8.332 -0.3056  0.1145 -0.9606
  808MOL0     H 6629  -3.318   3.603   8.212  0.6304 -1.3008 -0.1342
  808MOL0     H 6630  -3.339   3.558   8.507 -1.5539  0.4067 -0.1238
  808MOL0     H 6631  -3.415   3.454   8.392  3.0538 -0.2723 -0.2133
  808MOL0     H 6632  -3.547   3.653   8.307 -0.3731 -2.1482  0.7624
  808MOL0     H 6633  -3.456   3.751   8.417  1.1048 -1.5043 -0.1447
  808MOL0     H 6634  -3.591   3.515   8.543  0.1683 -0.5878 -2.1776
  808MOL0     H 6635  -3.565   3.675   8.601 -0.7478 -1.8661  0.4394
  808MOL0     H 6636  -3.771   3.609   8.388  2.3112 -0.0310 -0.7350
  808MOL0     H 6637  -3.746   3.770   8.456  1.2256 -0.2504  0.8691
  808MOL0     H 6638  -2.739   3.816   8.216 -0.0516  0.5251  1.7203
  808MOL0     H 6639  -2.519   3.888   8.285  1.4925  1.1086 -4.0920
  808MOL0     H 6640  -2.067   3.653   8.421  2.3579 -0.2181  0.1399
  808MOL0     H 6641  -1.846   3.701   8.486  0.8409  0.1447 -0.7033
  808MOL0     H 6642   0.161   3.279   8.495  1.7860 -0.4212 -0.2377
  808MOL0     H 6643   0.403   3.316   8.494  2.2587  2.1375 -0.4788
  808MOL0     H 6644   0.827   3.391   8.385 -0.4104  0.5161 -0.2481
  808MOL0     H 6645   1.056   3.459   8.398 -1.7675  0.3074 -1.8475
  808MOL0     H 6646   1.282   3.607   8.426  0.0792 -1.4568 -0.8599
  808MOL0     H 6647   1.266   3.455   8.522 -1.9335  0.2184 -0.5099
  808MOL0     H 6648   1.385   3.716   8.615 -1.3376  0.0966 -0.0894
  808MOL0     H 6649   1.399   3.564   8.696  1.1258 -0.1715 -0.2858
  808MOL0     H 6650   1.540   3.651   8.448  1.7331  2.2215  1.6325
  808MOL0     H 6651   1.537   3.484   8.492  1.9897 -0.5283  1.1934
  808MOL0     H 6652   1.624   3.562   8.739 -0.6017 -0.1422 -1.1959
  808MOL0     H 6653   1.734   3.563   8.603 -0.2968 -0.5109 -1.2423
  808MOL0     H 6654   1.707   3.976   8.673  0.7887 -0.7847 -2.9659
  808MOL0     H 6655   0.981   3.691   8.756  2.3615 -1.7712  0.4437
  808MOL0     H 6656   0.738   3.636   8.740 -1.4565  2.2866 -2.6889
  809MOL0     O 6657   7.916   4.421   8.680 -0.1749  0.0548  0.3964
  809MOL0     C 6658   8.010   4.503   8.689 -0.5806 -0.6630  0.9645
  809MOL0     O 6659   7.998   4.635   8.661 -0.5093  0.4609 -0.0532
  809MOL0     C 6660   7.888   4.684   8.591 -0.5709  0.1686 -0.0300
  809MOL0     C 6661   7.806   4.618   8.498  0.2988 -0.2958  0.3651
  809MOL0     C 6662   7.696   4.677   8.438 -0.0131 -0.7728  0.2027
  809MOL0     C 6663   7.673   4.813   8.450  0.3710 -0.3273  0.4374
  809MOL0     O 6664   7.570   4.885   8.399  0.5631  0.3912  0.1955
  809MOL0     C 6665   7.465   4.809   8.336 -0.4164 -0.2301  0.2941
  809MOL0     C 6666   7.342   4.902   8.301  0.3224 -0.3796  0.1285
  809MOL0     C 6667   7.247   4.824   8.209  0.6606 -0.5086 -0.0019
  809MOL0     C 6668   7.132   4.912   8.161 -0.5587 -0.9685 -0.1334
  809MOL0     C 6669   7.008   4.845   8.101  0.2807 -0.2177  0.3607
  809MOL0     C 6670   7.029   4.780   7.962 -0.5919 -0.2068  0.1252
  809MOL0     C 6671   6.907   4.696   7.910 -1.2707  0.1207 -0.6407
  809MOL0     C 6672   6.800   4.783   7.843  0.5557 -0.3726 -0.4403
  809MOL0     N 6673   6.698   4.707   7.771 -0.5093  0.4757  0.8413
  809MOL0     C 6674   6.572   4.679   7.813  0.0364 -0.4853  0.2961
  809MOL0     C 6675   6.510   4.624   7.702 -0.7460 -0.0757 -0.3553
  809MOL0     C 6676   6.366   4.596   7.674  0.1300  0.0232 -0.3120
  809MOL0     C 6677   6.277   4.725   7.693  0.0942 -0.1735 -0.0058
  809MOL0     C 6678   6.127   4.691   7.680  0.4691 -0.5934  0.2213
  809MOL0     C 6679   6.057   4.822   7.657  0.2157  0.2916 -0.6524
  809MOL0     O 6680   5.921   4.794   7.640 -0.1751 -0.0142 -0.6653
  809MOL0     C 6681   5.843   4.899   7.601  0.6560 -0.0167  1.0293
  809MOL0     C 6682   5.890   5.024   7.559 -0.4342 -0.0154  0.4621
  809MOL0     C 6683   5.801   5.125   7.520  0.2735 -0.8628 -0.2961
  809MOL0     C 6684   5.666   5.103   7.512 -0.0513 -0.4623  0.2846
  809MOL0     C 6685   5.570   5.215   7.471  0.2189  0.1995 -0.1328
  809MOL0     O 6686   5.446   5.202   7.535  0.0047 -0.3819  0.4326
  809MOL0     C 6687   5.354   5.310   7.536 -0.5836 -0.3907 -0.5934
  809MOL0     C 6688   5.392   5.442   7.551  0.3852  0.4726 -0.1940
  809MOL0     C 6689   5.296   5.543   7.532  0.7940 -0.7679 -0.1341
  809MOL0     C 6690   5.164   5.513   7.505 -0.1083 -0.5926 -0.0715
  809MOL0     O 6691   5.063   5.615   7.480 -0.0098  0.4568 -0.4595
  809MOL0     C 6692   5.072   5.740   7.550 -1.1634  0.4249  0.3469
  809MOL0     C 6693   4.941   5.787   7.600  0.7363  0.1944  0.3683
  809MOL0     C 6694   4.957   5.913   7.683 -0.0684  0.0549 -0.2765
  809MOL0     C 6695   4.824   5.982   7.725 -0.0121 -0.2254 -0.4170
  809MOL0     C 6696   4.721   5.972   7.612  0.0419  0.2997  0.2506
  809MOL0     C 6697   4.613   6.083   7.651 -0.2558  0.4258 -0.6479
  809MOL0     C 6698   4.504   6.092   7.535 -1.1614  0.0589  0.0115
  809MOL0     C 6699   4.536   6.201   7.429  0.8541 -0.2752  0.6484
  809MOL0    Cl 6700   4.399   6.210   7.318  0.1533 -0.0226 -0.1660
  809MOL0     C 6701   5.115   5.380   7.524 -0.3407 -0.6310 -0.0774
  809MOL0     C 6702   5.215   5.281   7.533  0.0985  0.4969  0.0816
  809MOL0     O 6703   5.607   5.306   7.398 -0.6364 -0.4715  0.9378
  809MOL0     C 6704   5.618   4.982   7.567 -0.8774 -0.0598 -0.9794
  809MOL0     C 6705   5.707   4.880   7.605  0.5431 -0.5425  0.4670
  809MOL0     N 6706   6.606   4.619   7.603 -0.2454  0.1624  0.8920
  809MOL0     N 6707   6.715   4.662   7.646 -0.3975 -0.5947  0.2208
  809MOL0     C 6708   7.769   4.894   8.528  0.2647 -0.0700 -0.5111
  809MOL0     C 6709   7.864   4.819   8.606 -0.2657  0.9833 -0.8105
  809MOL0     C 6710   8.144   4.448   8.702  0.0301  0.7734 -0.5533
  809MOL0     C 6711   8.256   4.531   8.667  0.2012 -0.1533 -0.9784
  809MOL0     C 6712   8.386   4.477   8.667 -0.4534 -0.3632  0.0923
  809MOL0     C 6713   8.404   4.344   8.706  1.1638  0.4425 -0.1261
  809MOL0     O 6714   8.523   4.279   8.691 -0.2115 -0.0769  0.6722
  809MOL0     C 6715   8.638   4.334   8.616  0.4285 -0.7548 -0.1401
  809MOL0     C 6716   8.729   4.218   8.573  0.2685 -0.2533 -1.1536
  809MOL0     C 6717   8.833   4.269   8.474 -0.3713  0.0672 -0.4259
  809MOL0     C 6718   8.760   4.266   8.331  0.3420 -0.1834  0.5349
  809MOL0     C 6719   8.857   4.327   8.240 -0.4409 -0.1037 -0.5935
  809MOL0     C 6720   8.935   4.383   8.167 -1.5558  0.7015  0.2901
  809MOL0     C 6721   8.295   4.267   8.741  0.5920 -0.2687 -0.1344
  809MOL0     C 6722   8.163   4.313   8.737  0.3429 -0.9778  0.2873
  809MOL0     H 6723   7.828   4.516   8.468 -0.5692  0.1501 -2.0972
  809MOL0     H 6724   7.633   4.609   8.383 -0.4007  0.5172 -1.0099
  809MOL0     H 6725   7.428   4.731   8.402  0.8638  0.2442  1.6095
  809MOL0     H 6726   7.501   4.768   8.241 -0.5341  0.7669 -0.2013
  809MOL0     H 6727   7.384   4.980   8.238  1.2650  2.0174  3.4489
  809MOL0     H 6728   7.292   4.933   8.393  1.3810  0.9150  0.3096
  809MOL0     H 6729   7.202   4.742   8.266  0.4823 -0.8491 -0.6338
  809MOL0     H 6730   7.298   4.789   8.119 -1.8999 -0.4023 -1.5965
  809MOL0     H 6731   7.113   4.978   8.246  2.1638  0.4044 -0.4739
  809MOL0     H 6732   7.169   4.979   8.084 -0.1197 -0.3205  0.6256
  809MOL0     H 6733   6.946   4.933   8.083 -0.2952 -0.6874  0.0251
  809MOL0     H 6734   6.974   4.773   8.176 -0.5244 -1.6358 -1.2761
  809MOL0     H 6735   7.119   4.717   7.966 -0.3601  0.1757  1.1815
  809MOL0     H 6736   7.046   4.864   7.894  2.0122 -1.8311 -1.4101
  809MOL0     H 6737   6.939   4.625   7.833 -0.3295  0.3259 -0.4548
  809MOL0     H 6738   6.866   4.650   8.000  1.0357  1.5263  1.2325
  809MOL0     H 6739   6.844   4.849   7.767 -1.1104  2.1614  0.6519
  809MOL0     H 6740   6.752   4.846   7.919  4.8498  1.7648  0.8847
  809MOL0     H 6741   6.512   4.707   7.900 -1.0109  1.0525 -0.8457
  809MOL0     H 6742   6.326   4.514   7.735  3.2880 -0.7227  0.9544
  809MOL0     H 6743   6.358   4.564   7.570  0.5969  0.8390 -0.6060
  809MOL0     H 6744   6.292   4.795   7.610 -0.6609 -0.0214 -0.0224
  809MOL0     H 6745   6.296   4.768   7.791  1.0019  0.6771 -0.5390
  809MOL0     H 6746   6.113   4.619   7.599  0.2733  2.2189 -2.4413
  809MOL0     H 6747   6.090   4.647   7.773  1.1235  1.9930  1.7860
  809MOL0     H 6748   6.097   4.866   7.566  1.9728  0.9238  0.3828
  809MOL0     H 6749   6.082   4.885   7.744  1.3322 -2.1716  0.9202
  809MOL0     H 6750   5.995   5.050   7.553 -0.4485 -0.2227 -2.6043
  809MOL0     H 6751   5.837   5.222   7.488  1.0781 -0.9845  0.2249
  809MOL0     H 6752   5.499   5.460   7.558  1.0231 -2.8256  0.1987
  809MOL0     H 6753   5.346   5.639   7.536 -0.5833 -0.0568  1.1985
  809MOL0     H 6754   5.120   5.814   7.484  1.2792  1.6892  3.2961
  809MOL0     H 6755   5.144   5.727   7.630 -0.6804 -0.6247 -0.2405
  809MOL0     H 6756   4.887   5.700   7.639  0.5194 -0.0796 -0.5197
  809MOL0     H 6757   4.881   5.815   7.513 -1.3908 -2.6080  0.7638
  809MOL0     H 6758   5.011   5.995   7.634 -2.1924  1.8791  0.2670
  809MOL0     H 6759   5.010   5.899   7.778 -2.9757  0.9640  1.6049
  809MOL0     H 6760   4.773   5.931   7.807  2.3342 -3.7632 -0.9579
  809MOL0     H 6761   4.846   6.083   7.762  2.0855 -2.3629  5.3463
  809MOL0     H 6762   4.675   5.873   7.611 -2.3705  1.3180  1.6501
  809MOL0     H 6763   4.762   6.003   7.515  0.8016  1.5185  0.9411
  809MOL0     H 6764   4.659   6.182   7.662 -1.6640  1.1937 -1.4073
  809MOL0     H 6765   4.564   6.060   7.746  1.4192  2.8340  0.9385
  809MOL0     H 6766   4.502   5.996   7.484  3.1362 -0.1684 -0.1380
  809MOL0     H 6767   4.412   6.118   7.588 -0.2713  0.5831  1.3753
  809MOL0     H 6768   4.617   6.167   7.364 -0.6470  0.1666 -1.5723
  809MOL0     H 6769   4.568   6.288   7.487  2.8720 -1.2556  1.0805
  809MOL0     H 6770   5.008   5.363   7.523 -0.3466 -0.5841 -0.5887
  809MOL0     H 6771   5.182   5.177   7.526  1.4869  0.0509 -0.0851
  809MOL0     H 6772   5.513   4.959   7.558 -1.0149 -0.1213  0.6237
  809MOL0     H 6773   5.676   4.778   7.623  2.9381 -1.8359 -1.9642
  809MOL0     H 6774   7.753   5.000   8.540  1.7364  0.2365 -1.0300
  809MOL0     H 6775   7.917   4.875   8.683 -0.9073  0.9891 -0.3746
  809MOL0     H 6776   8.250   4.633   8.630 -1.4171 -0.3729 -1.3883
  809MOL0     H 6777   8.469   4.535   8.629 -1.7278  1.9928  0.7310
  809MOL0     H 6778   8.696   4.407   8.674  4.9454 -1.1480 -3.6178
  809MOL0     H 6779   8.609   4.388   8.526 -0.3421 -0.1017  0.4860
  809MOL0     H 6780   8.782   4.195   8.665  1.1070  1.7813 -1.0799
  809MOL0     H 6781   8.675   4.129   8.537 -0.3418 -0.5798  0.4880
  809MOL0     H 6782   8.917   4.199   8.478 -1.2583 -0.9653  1.6540
  809MOL0     H 6783   8.871   4.365   8.509  4.5156 -0.9686 -2.1384
  809MOL0     H 6784   8.732   4.164   8.304  0.8473 -0.1628 -0.0691
  809MOL0     H 6785   8.669   4.326   8.336 -1.5290 -2.8196  0.1161
  809MOL0     H 6786   8.999   4.422   8.091 -0.1647 -0.3463  0.8721
  809MOL0     H 6787   8.305   4.159   8.755  0.2448 -0.4246 -1.0432
  809MOL0     H 6788   8.079   4.254   8.772 -0.2642  1.0709  2.6199
  810MOL0     O 6789   2.004   7.986   8.044 -0.6827 -0.2546  0.0840
  810MOL0     C 6790   2.018   8.100   8.099 -0.8691  0.1479  0.5128
  810MOL0     O 6791   1.926   8.198   8.108 -0.0395  0.2757  0.0360
  810MOL0     C 6792   1.797   8.161   8.078  0.6919  0.2230  0.0473
  810MOL0     C 6793   1.759   8.144   7.943  0.7321 -0.2716  0.0116
  810MOL0     C 6794   1.637   8.104   7.893 -0.7882  0.0899  0.0255
  810MOL0     C 6795   1.533   8.083   7.994 -0.2597  0.9697 -0.3848
  810MOL0     O 6796   1.410   8.028   7.966  0.3451  0.4637 -0.6611
  810MOL0     C 6797   1.403   7.955   7.839 -0.1586 -0.2100 -0.2622
  810MOL0     C 6798   1.262   7.904   7.814 -1.0599  0.5395  0.6049
  810MOL0     C 6799   1.156   8.013   7.789  0.0297  0.0950 -0.3411
  810MOL0     C 6800   1.011   7.962   7.787 -0.0525  0.0102 -0.3025
  810MOL0     C 6801   0.923   8.090   7.821  0.1582 -0.8676 -0.4687
  810MOL0     C 6802   0.785   8.058   7.768 -0.3479 -0.9676  0.2877
  810MOL0     C 6803   0.699   8.185   7.763  0.2099  1.1101 -0.2677
  810MOL0     C 6804   0.673   8.239   7.910  0.7315  0.0808 -0.5107
  810MOL0     N 6805   0.566   8.336   7.934 -0.3906 -0.1629  0.0249
  810MOL0     C 6806   0.587   8.476   7.939  0.7444  0.3342  0.0469
  810MOL0     C 6807   0.469   8.521   7.967  0.4944 -0.5731 -0.4378
  810MOL0     C 6808   0.434   8.672   7.978  0.1741 -0.4346 -0.3993
  810MOL0     C 6809   0.553   8.751   8.016  0.2211 -0.2811  0.5667
  810MOL0     C 6810   0.595   8.717   8.159  0.5466 -0.3959 -0.6231
  810MOL0     C 6811   0.720   8.797   8.207 -1.0328 -0.6447 -0.3479
  810MOL0     O 6812   0.677   8.931   8.229  0.3905 -0.6298  0.3348
  810MOL0     C 6813   0.724   8.988   8.346 -0.2166 -0.4487  0.3287
  810MOL0     C 6814   0.818   9.089   8.338 -0.8306 -0.7327  0.1524
  810MOL0     C 6815   0.865   9.147   8.459 -0.1727 -0.1944 -0.2877
  810MOL0     C 6816   0.808   9.120   8.583 -0.3026 -0.2335 -0.6352
  810MOL0     C 6817   0.867   9.160   8.709 -0.0902 -1.0276 -0.5814
  810MOL0     O 6818   0.995   9.201   8.702 -0.6439  0.3828 -0.3218
  810MOL0     C 6819   1.035   9.264   8.818 -0.2224  0.0646 -0.0444
  810MOL0     C 6820   1.045   9.404   8.817  0.2570  0.3922 -0.4040
  810MOL0     C 6821   1.094   9.468   8.929  0.6095 -0.6766 -0.0316
  810MOL0     C 6822   1.131   9.400   9.042 -0.2898  0.3130 -0.7756
  810MOL0     O 6823   1.188   9.449   9.154 -0.1616 -0.2284  0.2988
  810MOL0     C 6824   1.300   9.548   9.133 -0.3443  0.2682 -0.1343
  810MOL0     C 6825   1.340   9.605   9.261 -0.0967  0.6385 -0.0142
  810MOL0     C 6826   1.464   9.692   9.243  0.0892 -0.1997  0.4516
  810MOL0     C 6827   1.535   9.722   9.373  0.8133 -0.4759 -0.3405
  810MOL0     C 6828   1.644   9.831   9.371  0.1036  1.0800  0.3076
  810MOL0     C 6829   1.703   9.846   9.513 -0.0835  0.4246  0.6487
  810MOL0     C 6830   1.601   9.916   9.611 -0.2783  0.1289 -0.4009
  810MOL0     C 6831   1.663   9.960   9.754 -0.0317  0.9741  0.0687
  810MOL0    Cl 6832   1.766   9.835   9.845  0.0789  0.0002  0.3602
  810MOL0     C 6833   1.126   9.257   9.044 -1.1500  0.1602 -0.2554
  810MOL0     C 6834   1.088   9.191   8.927  0.7180 -0.5274 -0.6312
  810MOL0     O 6835   0.790   9.159   8.814  0.6631 -0.3941 -0.3096
  810MOL0     C 6836   0.699   9.032   8.587  0.1989 -0.4684 -0.0292
  810MOL0     C 6837   0.663   8.962   8.471  0.5264  0.8063 -0.5527
  810MOL0     N 6838   0.383   8.417   8.000  0.3429  0.3600  0.0827
  810MOL0     N 6839   0.442   8.303   7.971 -0.3301 -0.9112 -0.1428
  810MOL0     C 6840   1.560   8.107   8.127 -0.3004 -0.2665 -1.1626
  810MOL0     C 6841   1.691   8.148   8.174 -0.0033 -0.8664  0.2513
  810MOL0     C 6842   2.157   8.144   8.134 -0.3506 -0.5151  1.7962
  810MOL0     C 6843   2.184   8.268   8.193  0.5443  0.5502 -0.2601
  810MOL0     C 6844   2.319   8.298   8.226  0.3263 -1.2219  0.1091
  810MOL0     C 6845   2.426   8.213   8.199 -0.1627 -0.2150  0.5421
  810MOL0     O 6846   2.556   8.244   8.243  0.5082 -0.1332 -0.3518
  810MOL0     C 6847   2.577   8.186   8.375  0.0453  0.6059  0.0659
  810MOL0     C 6848   2.644   8.049   8.356 -0.0533 -0.5693 -0.3877
  810MOL0     C 6849   2.707   7.992   8.483 -0.4825  0.7938  0.8227
  810MOL0     C 6850   2.849   8.042   8.504 -0.2980  0.0389  1.5946
  810MOL0     C 6851   2.943   7.961   8.424  0.4759 -0.2955 -0.0606
  810MOL0     C 6852   3.017   7.902   8.348  0.1556  0.2971 -0.0706
  810MOL0     C 6853   2.400   8.096   8.137  0.0827 -0.0262  0.4434
  810MOL0     C 6854   2.265   8.056   8.106 -0.5566  0.6223 -0.8470
  810MOL0     H 6855   1.832   8.148   7.863  0.2407  1.4922 -0.3900
  810MOL0     H 6856   1.615   8.086   7.788 -1.6832 -0.7588  0.3509
  810MOL0     H 6857   1.481   7.878   7.831 -1.4858 -1.4963 -1.4827
  810MOL0     H 6858   1.432   8.021   7.757  0.2367 -0.1583 -0.0836
  810MOL0     H 6859   1.230   7.830   7.888  0.4389 -0.9808 -0.2120
  810MOL0     H 6860   1.252   7.846   7.722  0.6619 -0.4219  0.9800
  810MOL0     H 6861   1.183   8.071   7.700  1.1909 -1.8026 -1.2984
  810MOL0     H 6862   1.161   8.089   7.868  0.0344 -0.7797  0.5179
  810MOL0     H 6863   0.998   7.930   7.683  1.2100  1.9027 -1.1008
  810MOL0     H 6864   1.004   7.887   7.866 -0.2080 -0.2603 -0.5719
  810MOL0     H 6865   0.958   8.183   7.775  2.4019  0.8970  4.1886
  810MOL0     H 6866   0.906   8.105   7.928  0.9446  1.0272 -0.5727
  810MOL0     H 6867   0.737   7.981   7.830 -0.2580 -1.8361 -0.6791
  810MOL0     H 6868   0.789   8.021   7.665 -3.3281  1.2540 -0.7828
  810MOL0     H 6869   0.748   8.255   7.695  3.5955 -0.0397  0.8074
  810MOL0     H 6870   0.598   8.156   7.730 -0.1013  0.1300  1.4272
  810MOL0     H 6871   0.760   8.292   7.951 -1.0847  1.1278  2.2720
  810MOL0     H 6872   0.642   8.149   7.964  0.1707  0.2555 -0.5351
  810MOL0     H 6873   0.665   8.545   7.908 -0.1083  2.2704  1.9711
  810MOL0     H 6874   0.350   8.691   8.047 -1.8866 -1.5407 -2.4567
  810MOL0     H 6875   0.403   8.707   7.879 -1.6176 -1.5371 -0.2694
  810MOL0     H 6876   0.529   8.857   8.006  5.3965  1.1825  0.6796
  810MOL0     H 6877   0.638   8.745   7.947  1.7983  0.4211  2.3797
  810MOL0     H 6878   0.509   8.736   8.225  1.0935 -3.7198  1.2574
  810MOL0     H 6879   0.618   8.611   8.171 -1.8115 -0.8310  0.6599
  810MOL0     H 6880   0.795   8.794   8.128 -0.6117  2.4179 -0.2191
  810MOL0     H 6881   0.767   8.756   8.297 -1.9375 -0.7508  0.0940
  810MOL0     H 6882   0.870   9.120   8.248 -2.3722  1.8124  0.0342
  810MOL0     H 6883   0.945   9.218   8.444 -0.2375 -0.2903 -1.1321
  810MOL0     H 6884   0.993   9.462   8.740 -1.7228 -0.9843 -0.1880
  810MOL0     H 6885   1.106   9.576   8.921  1.9896 -0.7835  0.2968
  810MOL0     H 6886   1.279   9.631   9.065  2.9908  0.5739 -0.9315
  810MOL0     H 6887   1.385   9.498   9.086 -2.1314  0.5952 -4.1351
  810MOL0     H 6888   1.358   9.525   9.334  0.8956  1.6797  0.9014
  810MOL0     H 6889   1.258   9.670   9.292 -1.3322 -1.1969  0.7464
  810MOL0     H 6890   1.426   9.786   9.201 -2.6176 -2.6017 -3.1304
  810MOL0     H 6891   1.532   9.646   9.171  1.8526  1.1626  1.1825
  810MOL0     H 6892   1.457   9.749   9.444 -0.0941 -3.1007 -0.2323
  810MOL0     H 6893   1.579   9.629   9.413  2.5321  1.2878  2.1999
  810MOL0     H 6894   1.608   9.925   9.329 -0.2832  1.5983  1.7454
  810MOL0     H 6895   1.715   9.787   9.300 -1.8867 -0.2317 -0.9924
  810MOL0     H 6896   1.792   9.909   9.504 -0.1379  0.2224 -1.8439
  810MOL0     H 6897   1.727   9.748   9.554  1.1275  0.0455 -0.9001
  810MOL0     H 6898   1.554  10.008   9.576 -2.5376 -0.8979 -0.1935
  810MOL0     H 6899   1.525   9.842   9.635 -0.9010  0.4869 -1.2044
  810MOL0     H 6900   1.592  10.010   9.820 -0.1982 -0.2227  0.8286
  810MOL0     H 6901   1.738  10.037   9.736 -1.0328  1.7646 -0.8805
  810MOL0     H 6902   1.159   9.190   9.122 -2.6822  0.0154  0.2944
  810MOL0     H 6903   1.087   9.082   8.922 -1.9245 -0.6102  0.1041
  810MOL0     H 6904   0.649   8.993   8.675  0.5263 -2.1144 -0.5481
  810MOL0     H 6905   0.590   8.883   8.485 -0.7256  2.2106  1.4433
  810MOL0     H 6906   1.486   8.096   8.205  1.0069 -0.5621  0.0598
  810MOL0     H 6907   1.722   8.163   8.276  0.9811 -1.8221  0.1241
  810MOL0     H 6908   2.104   8.330   8.233 -0.0410 -0.7714  0.7114
  810MOL0     H 6909   2.341   8.389   8.282  2.9255 -1.0670 -0.9862
  810MOL0     H 6910   2.481   8.169   8.426  0.5185 -2.3334  0.1800
  810MOL0     H 6911   2.641   8.251   8.434  0.1841  0.9009 -0.4079
  810MOL0     H 6912   2.571   7.975   8.323  0.0914 -0.8520 -0.0734
  810MOL0     H 6913   2.723   8.060   8.281  1.6822  2.2308  1.6353
  810MOL0     H 6914   2.710   7.882   8.478 -0.4106  0.7896  0.9382
  810MOL0     H 6915   2.653   8.021   8.574 -0.3985  0.4152  0.9958
  810MOL0     H 6916   2.856   8.145   8.468 -1.4383 -1.2486 -2.8625
  810MOL0     H 6917   2.883   8.040   8.608 -1.2900 -0.2204  1.9215
  810MOL0     H 6918   3.083   7.862   8.274  0.3998 -1.0727  0.8503
  810MOL0     H 6919   2.482   8.036   8.099  0.7082  1.3108 -0.3894
  810MOL0     H 6920   2.264   7.960   8.056  3.4115 -1.4569  2.4469
  811MOL0     O 6921   0.749   2.667   2.327  0.1282 -0.2974 -0.7128
  811MOL0     C 6922   0.770   2.540   2.308  0.4978 -0.7667 -0.2358
  811MOL0     O 6923   0.669   2.453   2.281 -0.1032 -0.1940  0.6255
  811MOL0     C 6924   0.559   2.500   2.226  0.6267  1.1145  0.3833
  811MOL0     C 6925   0.565   2.574   2.110 -0.3621 -0.4103  0.2767
  811MOL0     C 6926   0.455   2.626   2.050  0.5569  0.0535 -0.4457
  811MOL0     C 6927   0.333   2.615   2.113  0.3084 -0.5283  0.1716
  811MOL0     O 6928   0.223   2.664   2.044 -0.4435  0.0159 -0.0502
  811MOL0     C 6929   0.125   2.738   2.116  0.7057  0.1982 -0.5322
  811MOL0     C 6930   0.039   2.819   2.025  0.1019 -0.2710  1.0192
  811MOL0     C 6931  -0.067   2.914   2.095 -0.1383 -0.2394 -0.0012
  811MOL0     C 6932  -0.160   2.984   1.991 -0.0226  0.1499 -0.4542
  811MOL0     C 6933  -0.252   3.087   2.062  0.8174 -0.5353 -0.1738
  811MOL0     C 6934  -0.366   3.032   2.154 -0.0576 -0.2855 -0.1706
  811MOL0     C 6935  -0.465   2.947   2.073  0.1624 -0.2929 -0.3255
  811MOL0     C 6936  -0.564   2.876   2.167 -0.6045 -0.5968 -0.5833
  811MOL0     N 6937  -0.658   2.803   2.083 -0.3992 -0.2214 -0.2014
  811MOL0     C 6938  -0.624   2.705   1.988 -0.0081 -0.3991 -0.2011
  811MOL0     C 6939  -0.744   2.668   1.937  0.4275  0.2237  0.1995
  811MOL0     C 6940  -0.760   2.551   1.846 -0.3211 -0.0351  0.5960
  811MOL0     C 6941  -0.769   2.423   1.935 -0.2887  0.4080 -0.5270
  811MOL0     C 6942  -0.782   2.298   1.854 -0.0404  0.3704 -0.2148
  811MOL0     C 6943  -0.776   2.161   1.934  0.6725  0.1677 -0.3587
  811MOL0     O 6944  -0.892   2.134   2.010 -0.1761 -0.6351 -0.8487
  811MOL0     C 6945  -0.991   2.071   1.945  0.4907  0.1097 -0.7468
  811MOL0     C 6946  -1.071   2.134   1.860  0.1981  0.3271  0.5943
  811MOL0     C 6947  -1.168   2.062   1.796 -0.0802 -0.1192 -0.1536
  811MOL0     C 6948  -1.193   1.923   1.825  0.0235 -1.1808 -0.2858
  811MOL0     C 6949  -1.285   1.845   1.739  0.2333 -0.3599 -0.1467
  811MOL0     O 6950  -1.270   1.708   1.737 -0.1260  0.9436 -0.1266
  811MOL0     C 6951  -1.382   1.631   1.712 -0.0089 -0.3719 -0.1898
  811MOL0     C 6952  -1.354   1.499   1.691  0.6962  0.4298  0.6474
  811MOL0     C 6953  -1.461   1.407   1.680  0.5724 -0.0695 -0.2187
  811MOL0     C 6954  -1.600   1.447   1.696  0.2966 -0.7730 -0.8513
  811MOL0     O 6955  -1.710   1.369   1.668 -0.2368  0.2288  0.4236
  811MOL0     C 6956  -1.725   1.355   1.527  0.5478  0.3095  0.0295
  811MOL0     C 6957  -1.871   1.297   1.507  0.3753  0.6383 -0.1328
  811MOL0     C 6958  -1.989   1.403   1.482  0.1816  0.4222 -0.5510
  811MOL0     C 6959  -2.123   1.334   1.504  0.8002  1.3380 -0.4114
  811MOL0     C 6960  -2.227   1.445   1.472  0.2116 -0.4019 -0.0736
  811MOL0     C 6961  -2.359   1.369   1.460  0.7636  0.0340 -0.9167
  811MOL0     C 6962  -2.477   1.464   1.448 -0.7104  0.3286  0.4100
  811MOL0     C 6963  -2.604   1.401   1.411  0.6105 -0.5734  0.0874
  811MOL0    Cl 6964  -2.677   1.311   1.551  0.3511  0.4107 -0.0481
  811MOL0     C 6965  -1.619   1.582   1.722 -0.1227  0.7806  0.6147
  811MOL0     C 6966  -1.515   1.673   1.732  0.8749  0.1768  0.5568
  811MOL0     O 6967  -1.366   1.910   1.676  0.8605  0.0075 -0.3761
  811MOL0     C 6968  -1.122   1.865   1.931  0.0996  0.1010  0.4378
  811MOL0     C 6969  -1.022   1.934   1.996 -0.8097  0.1887 -0.1841
  811MOL0     N 6970  -0.839   2.760   1.973  0.1916  0.0068  0.1992
  811MOL0     N 6971  -0.791   2.833   2.076  0.3228  0.3395  0.3443
  811MOL0     C 6972   0.316   2.536   2.231 -0.9925 -0.9752 -0.4591
  811MOL0     C 6973   0.432   2.480   2.287 -0.0242  0.8059 -0.4912
  811MOL0     C 6974   0.903   2.488   2.328  0.0854  0.2403 -0.8424
  811MOL0     C 6975   1.004   2.575   2.375  0.1148  0.2411  0.0160
  811MOL0     C 6976   1.133   2.521   2.401  0.2893  0.2396 -0.2986
  811MOL0     C 6977   1.167   2.387   2.380  0.0564 -1.1000  0.2566
  811MOL0     O 6978   1.296   2.343   2.405  0.4579  0.2556  0.4105
  811MOL0     C 6979   1.308   2.201   2.400 -0.3767 -0.6681  0.8463
  811MOL0     C 6980   1.450   2.181   2.434 -0.2309 -0.4787  0.5442
  811MOL0     C 6981   1.486   2.024   2.429  1.0806 -0.1025  0.9830
  811MOL0     C 6982   1.628   1.991   2.473 -0.0750 -0.1929 -0.2850
  811MOL0     C 6983   1.657   1.846   2.466  0.5839  0.1366 -0.0492
  811MOL0     C 6984   1.692   1.734   2.470 -0.5482  0.6399 -0.0290
  811MOL0     C 6985   1.065   2.307   2.325  0.8908  0.6123 -0.3562
  811MOL0     C 6986   0.945   2.357   2.296 -0.1237  0.1692  0.0516
  811MOL0     H 6987   0.661   2.586   2.060 -0.1757 -0.8666  0.5195
  811MOL0     H 6988   0.461   2.675   1.953 -2.2285 -0.0714 -0.7413
  811MOL0     H 6989   0.170   2.811   2.184  2.5455  0.6285 -2.1168
  811MOL0     H 6990   0.064   2.665   2.170 -0.8226  1.6031 -0.2708
  811MOL0     H 6991  -0.011   2.755   1.951  1.8850  1.0604 -1.5235
  811MOL0     H 6992   0.102   2.891   1.972  2.2967  0.0111  3.7754
  811MOL0     H 6993  -0.016   2.982   2.163 -0.2295 -0.6972  0.5388
  811MOL0     H 6994  -0.141   2.852   2.147  1.8092 -1.9315  0.8455
  811MOL0     H 6995  -0.090   3.038   1.925  0.6494  0.6764  0.6506
  811MOL0     H 6996  -0.225   2.917   1.934  0.9280 -0.1944 -1.1601
  811MOL0     H 6997  -0.295   3.147   1.982  2.2668 -0.7307 -1.1320
  811MOL0     H 6998  -0.193   3.159   2.119  0.0379  1.4254 -1.7357
  811MOL0     H 6999  -0.419   3.117   2.198 -0.0716 -0.8421  0.9158
  811MOL0     H 7000  -0.314   2.963   2.221  1.4930  1.9862  1.0840
  811MOL0     H 7001  -0.510   3.017   2.002  1.1106 -0.8982 -1.5771
  811MOL0     H 7002  -0.408   2.873   2.015 -0.1873 -0.3021 -0.6667
  811MOL0     H 7003  -0.611   2.953   2.229 -0.2640  1.6111 -2.9257
  811MOL0     H 7004  -0.498   2.814   2.229 -2.0401 -0.8892  0.7057
  811MOL0     H 7005  -0.530   2.656   1.965  0.4335  0.6495 -0.6769
  811MOL0     H 7006  -0.668   2.547   1.787  0.6876  1.6757  1.9684
  811MOL0     H 7007  -0.852   2.566   1.789  0.8046  0.5226 -1.1645
  811MOL0     H 7008  -0.856   2.420   2.002 -1.6285 -1.2102 -2.2471
  811MOL0     H 7009  -0.682   2.408   2.001 -0.5838 -1.3664 -0.5012
  811MOL0     H 7010  -0.859   2.296   1.777  1.6044  0.5005 -1.9287
  811MOL0     H 7011  -0.685   2.288   1.804  0.0797  0.8739 -0.0828
  811MOL0     H 7012  -0.688   2.154   1.999  1.2287 -1.0526 -1.2154
  811MOL0     H 7013  -0.743   2.080   1.868  0.4179  0.2973 -0.6493
  811MOL0     H 7014  -1.059   2.240   1.837  0.0001  0.2124 -0.0616
  811MOL0     H 7015  -1.234   2.113   1.727  2.8300  2.2044 -1.4805
  811MOL0     H 7016  -1.250   1.468   1.682  0.0687 -2.1502  1.5794
  811MOL0     H 7017  -1.458   1.304   1.646 -1.4926  0.6456 -2.9556
  811MOL0     H 7018  -1.649   1.286   1.490 -2.3575 -2.3057 -1.4422
  811MOL0     H 7019  -1.720   1.451   1.475  2.8884 -0.7596 -1.8619
  811MOL0     H 7020  -1.901   1.232   1.590 -3.1526  0.8483 -1.1094
  811MOL0     H 7021  -1.866   1.235   1.418 -4.4488  0.8143 -0.7870
  811MOL0     H 7022  -1.965   1.455   1.388  2.1317 -0.3587 -0.5415
  811MOL0     H 7023  -1.971   1.469   1.567 -0.9310 -2.3492  1.9975
  811MOL0     H 7024  -2.127   1.242   1.445  0.6281  0.5795  0.7516
  811MOL0     H 7025  -2.123   1.303   1.609  0.9975 -2.8620 -1.4693
  811MOL0     H 7026  -2.210   1.494   1.375 -0.8665  2.3137  0.9881
  811MOL0     H 7027  -2.223   1.521   1.551 -4.0427 -2.0800  2.0913
  811MOL0     H 7028  -2.367   1.306   1.548  1.4219 -2.1729 -2.3470
  811MOL0     H 7029  -2.366   1.298   1.377  0.3050 -0.8823 -0.1117
  811MOL0     H 7030  -2.495   1.525   1.538 -2.7358 -0.1025  0.3407
  811MOL0     H 7031  -2.456   1.545   1.378  2.1063 -1.5650 -1.1273
  811MOL0     H 7032  -2.588   1.340   1.322 -0.8846  1.7132 -1.8530
  811MOL0     H 7033  -2.681   1.472   1.381 -2.2050 -3.0707  0.9827
  811MOL0     H 7034  -1.723   1.610   1.734 -0.0515  1.0709  0.5574
  811MOL0     H 7035  -1.536   1.777   1.753  2.5870  0.4221  1.1977
  811MOL0     H 7036  -1.137   1.764   1.969 -1.2980 -0.3515 -1.1911
  811MOL0     H 7037  -0.958   1.899   2.076 -1.7481  2.0304  1.4609
  811MOL0     H 7038   0.223   2.507   2.279  0.0893 -0.9673  1.7640
  811MOL0     H 7039   0.420   2.428   2.381  1.2454  1.0209 -0.1954
  811MOL0     H 7040   0.990   2.679   2.403  2.8572  0.2181  1.8680
  811MOL0     H 7041   1.213   2.587   2.432  0.2582  0.2010 -0.1358
  811MOL0     H 7042   1.288   2.166   2.298  0.9108  1.6192 -0.2573
  811MOL0     H 7043   1.247   2.155   2.478 -0.9613 -0.1586  0.6988
  811MOL0     H 7044   1.521   2.238   2.373 -0.5544 -2.0246 -1.3727
  811MOL0     H 7045   1.457   2.222   2.535 -1.2802  0.0034  0.4368
  811MOL0     H 7046   1.475   1.976   2.332  1.8367 -0.4547  1.0635
  811MOL0     H 7047   1.422   1.971   2.500  2.2843 -4.9927 -1.1790
  811MOL0     H 7048   1.702   2.040   2.409  0.0729 -0.7859 -0.5779
  811MOL0     H 7049   1.638   2.014   2.580 -1.5879 -1.5469  0.1798
  811MOL0     H 7050   1.710   1.628   2.475  0.4283  0.7547 -0.9263
  811MOL0     H 7051   1.083   2.202   2.305 -0.5961  0.2815 -0.0246
  811MOL0     H 7052   0.876   2.292   2.244  0.4298 -0.4589  0.0905
  812MOL0     O 7053  10.534   8.651   3.919 -0.8882 -0.0520 -0.5588
  812MOL0     C 7054  10.593   8.737   3.979 -0.0886 -0.4390 -0.9125
  812MOL0     O 7055  10.526   8.851   4.039 -0.1928  0.6581  0.2327
  812MOL0     C 7056  10.392   8.858   4.041  0.2711 -0.3789  0.4490
  812MOL0     C 7057  10.331   8.910   4.156 -0.4790  0.8738 -1.0099
  812MOL0     C 7058  10.188   8.924   4.157  0.7900 -0.1943 -0.5582
  812MOL0     C 7059  10.112   8.888   4.051  0.3649  0.1175 -0.1347
  812MOL0     O 7060   9.972   8.894   4.059  0.5837  0.3719 -0.1305
  812MOL0     C 7061   9.892   8.804   3.984 -0.1228  0.2959 -0.5730
  812MOL0     C 7062   9.769   8.770   4.058  0.9463  0.2023  0.5277
  812MOL0     C 7063   9.663   8.881   4.041  0.7060 -0.3877  0.5876
  812MOL0     C 7064   9.541   8.865   4.129  0.1926 -0.3691  1.3400
  812MOL0     C 7065   9.422   8.782   4.068  0.5148 -0.2457 -0.1503
  812MOL0     C 7066   9.287   8.818   4.132 -0.5882  0.0271  0.2399
  812MOL0     C 7067   9.162   8.751   4.066 -0.1915  0.1793  0.4594
  812MOL0     C 7068   9.028   8.806   4.122 -0.2684  0.5357 -0.3499
  812MOL0     N 7069   8.907   8.728   4.079 -0.1064 -0.6664 -0.6879
  812MOL0     C 7070   8.783   8.755   4.128 -0.2697  0.2220  0.0018
  812MOL0     C 7071   8.702   8.664   4.071  0.5484  0.1496  0.9361
  812MOL0     C 7072   8.555   8.635   4.112 -0.0464  0.2270  0.3361
  812MOL0     C 7073   8.522   8.491   4.161  1.2927  0.7155 -0.4404
  812MOL0     C 7074   8.546   8.385   4.053  0.0530 -0.7131  0.3660
  812MOL0     C 7075   8.479   8.409   3.905 -0.7451 -0.3052 -0.6165
  812MOL0     O 7076   8.358   8.482   3.929 -0.6440  0.3337  0.8041
  812MOL0     C 7077   8.249   8.405   3.937  0.0754  0.7164 -0.9979
  812MOL0     C 7078   8.208   8.298   3.850  0.1703 -0.9445 -0.0136
  812MOL0     C 7079   8.075   8.243   3.861 -0.0756  0.6427 -0.7017
  812MOL0     C 7080   7.993   8.280   3.967  0.2611 -0.1731 -0.1503
  812MOL0     C 7081   7.860   8.221   3.982 -0.3818 -0.6686  0.3633
  812MOL0     O 7082   7.775   8.295   4.054 -0.1788  0.0039 -0.8154
  812MOL0     C 7083   7.647   8.245   4.068  0.5706  0.4805  0.3675
  812MOL0     C 7084   7.542   8.299   3.996 -0.5705 -0.1217 -0.4418
  812MOL0     C 7085   7.413   8.255   4.022 -0.6485 -0.4768  0.4776
  812MOL0     C 7086   7.379   8.168   4.125 -0.3841  0.0142  1.0570
  812MOL0     O 7087   7.241   8.135   4.130 -0.0797  0.1122 -0.4178
  812MOL0     C 7088   7.207   8.044   4.238 -0.2588 -0.2503  0.4753
  812MOL0     C 7089   7.072   7.992   4.203 -0.3108  0.6622  0.3703
  812MOL0     C 7090   6.974   8.100   4.198  0.7879  0.5888  0.0395
  812MOL0     C 7091   6.829   8.040   4.182 -0.8842  0.5288 -0.6915
  812MOL0     C 7092   6.755   8.154   4.111 -0.7002  0.0720 -0.2278
  812MOL0     C 7093   6.605   8.141   4.094  0.3934  0.2602 -0.1965
  812MOL0     C 7094   6.537   8.246   4.005 -0.0758 -0.0319  0.9326
  812MOL0     C 7095   6.388   8.220   3.997 -0.3220 -0.1900  0.6509
  812MOL0    Cl 7096   6.305   8.315   4.136  0.2980  0.2607  0.2047
  812MOL0     C 7097   7.481   8.117   4.204 -0.2118  0.0551 -0.2872
  812MOL0     C 7098   7.610   8.158   4.177 -1.1427  0.9475  0.9484
  812MOL0     O 7099   7.831   8.120   3.928 -0.1222 -0.3312  0.3681
  812MOL0     C 7100   8.037   8.386   4.052  0.4999 -0.1118  0.7651
  812MOL0     C 7101   8.159   8.442   4.044 -0.4881 -0.5729  0.2860
  812MOL0     N 7102   8.778   8.581   3.992  0.1799  0.0449  0.3121
  812MOL0     N 7103   8.897   8.625   3.993  0.4646  0.4961  0.1920
  812MOL0     C 7104  10.178   8.845   3.935  0.0555  0.3711 -0.0895
  812MOL0     C 7105  10.315   8.835   3.930  0.8735  0.3900  0.1729
  812MOL0     C 7106  10.743   8.729   3.982  0.0395 -0.9761  0.0298
  812MOL0     C 7107  10.824   8.828   4.031 -0.4417 -0.3022 -0.8036
  812MOL0     C 7108  10.967   8.819   4.018  0.2256  0.3338 -0.8746
  812MOL0     C 7109  11.030   8.704   3.966  0.0628 -0.1121 -0.8115
  812MOL0     O 7110  11.170   8.700   3.969  0.5244  0.7539 -1.0877
  812MOL0     C 7111  11.239   8.584   3.926  0.1389  0.8491  0.0378
  812MOL0     C 7112  11.367   8.584   4.015  0.4668  0.0887 -0.1655
  812MOL0     C 7113  11.488   8.668   3.951  0.2475 -1.0527 -0.0323
  812MOL0     C 7114  11.531   8.618   3.816 -0.3660 -0.2806 -0.4994
  812MOL0     C 7115  11.670   8.661   3.778  0.0709 -0.3752  0.7233
  812MOL0     C 7116  11.776   8.708   3.737 -0.1301 -0.5010 -1.0790
  812MOL0     C 7117  10.943   8.599   3.919 -0.2777 -0.5317  0.0847
  812MOL0     C 7118  10.807   8.612   3.932  0.1302 -0.1763  0.2132
  812MOL0     H 7119  10.397   8.946   4.234  1.3235 -0.6363 -1.7840
  812MOL0     H 7120  10.128   8.963   4.238 -0.8473 -0.2983 -1.6724
  812MOL0     H 7121   9.940   8.708   3.965 -1.6777 -0.1091 -2.8667
  812MOL0     H 7122   9.874   8.847   3.884 -0.7444 -2.1348 -1.5632
  812MOL0     H 7123   9.794   8.757   4.164  0.2006 -1.9670  0.4861
  812MOL0     H 7124   9.715   8.682   4.022 -0.1754  1.6806 -1.6637
  812MOL0     H 7125   9.631   8.897   3.938  0.8941 -4.7635 -0.3424
  812MOL0     H 7126   9.713   8.968   4.083 -0.4365 -0.2262  1.7001
  812MOL0     H 7127   9.565   8.814   4.222  0.5504  0.4252  1.6915
  812MOL0     H 7128   9.504   8.967   4.143  1.4916  0.2217  0.6954
  812MOL0     H 7129   9.442   8.675   4.079 -1.5319 -0.5295  1.3271
  812MOL0     H 7130   9.410   8.798   3.960 -3.5205 -0.0576  0.1515
  812MOL0     H 7131   9.267   8.923   4.153 -2.8666 -0.1259 -0.8102
  812MOL0     H 7132   9.291   8.777   4.233  0.1211  1.1391  0.6719
  812MOL0     H 7133   9.167   8.766   3.957 -1.5785  1.0842  0.4903
  812MOL0     H 7134   9.179   8.644   4.077 -0.2319 -0.2361 -2.6536
  812MOL0     H 7135   9.007   8.910   4.093 -1.2489 -0.6472 -4.4825
  812MOL0     H 7136   9.025   8.795   4.231 -2.8124  1.8536 -0.1853
  812MOL0     H 7137   8.756   8.828   4.204  3.9067  0.3385  1.6370
  812MOL0     H 7138   8.489   8.665   4.030  0.6053  1.1064  0.1134
  812MOL0     H 7139   8.537   8.712   4.187  0.0957  0.8980 -0.3113
  812MOL0     H 7140   8.418   8.483   4.195  0.8161 -1.5627 -2.2139
  812MOL0     H 7141   8.585   8.463   4.246  2.3923 -3.5915 -2.4156
  812MOL0     H 7142   8.652   8.358   4.051  0.2818  0.1667  0.2520
  812MOL0     H 7143   8.496   8.293   4.085  2.8970 -2.0122  1.3896
  812MOL0     H 7144   8.456   8.311   3.861 -4.2682  0.5803 -1.0118
  812MOL0     H 7145   8.538   8.463   3.831  0.8530  0.6705  1.2844
  812MOL0     H 7146   8.275   8.272   3.769  0.3770  1.3640 -0.6596
  812MOL0     H 7147   8.041   8.169   3.789  1.1652 -1.1145  0.4647
  812MOL0     H 7148   7.571   8.368   3.918  0.5119 -1.5956 -1.3854
  812MOL0     H 7149   7.335   8.290   3.956  0.8260  0.9579 -0.5662
  812MOL0     H 7150   7.212   8.101   4.331  0.3111  0.1496  0.2067
  812MOL0     H 7151   7.276   7.959   4.231  0.9967  0.7581  0.1258
  812MOL0     H 7152   7.042   7.932   4.289 -2.3291  1.7378  0.4716
  812MOL0     H 7153   7.068   7.936   4.110  2.6491  1.1845 -0.1767
  812MOL0     H 7154   6.998   8.169   4.116 -1.0652  1.6769  0.3654
  812MOL0     H 7155   6.980   8.162   4.288  0.1403  0.9756 -0.1716
  812MOL0     H 7156   6.844   7.955   4.114  1.5007  0.0289  0.3457
  812MOL0     H 7157   6.792   8.004   4.279  0.6154 -1.9673 -0.9613
  812MOL0     H 7158   6.808   8.173   4.017 -0.5238  1.9859  0.2092
  812MOL0     H 7159   6.769   8.243   4.173  0.5409 -0.0654 -0.2833
  812MOL0     H 7160   6.552   8.126   4.188  1.7725 -2.0422  0.2996
  812MOL0     H 7161   6.598   8.044   4.044  2.8097 -1.3172  2.2471
  812MOL0     H 7162   6.547   8.350   4.037 -1.3326  0.7628 -1.0337
  812MOL0     H 7163   6.578   8.228   3.905  1.0241  1.9262  0.9811
  812MOL0     H 7164   6.375   8.112   3.993 -0.7210 -0.1129 -0.6109
  812MOL0     H 7165   6.356   8.254   3.897  1.7461 -4.0833 -1.5724
  812MOL0     H 7166   7.465   8.048   4.287  1.1946 -0.5151 -0.4747
  812MOL0     H 7167   7.687   8.131   4.249  0.5482  1.1449 -0.6954
  812MOL0     H 7168   7.968   8.426   4.126 -1.6190  2.1242 -2.1573
  812MOL0     H 7169   8.186   8.509   4.125  1.4894 -1.9326  0.7992
  812MOL0     H 7170  10.113   8.833   3.849 -0.5141  0.3599  0.3305
  812MOL0     H 7171  10.372   8.812   3.840  0.0756 -2.0361  0.2213
  812MOL0     H 7172  10.783   8.919   4.073 -0.1414 -1.2885  1.8186
  812MOL0     H 7173  11.032   8.891   4.067  1.3884  0.3664 -2.3696
  812MOL0     H 7174  11.272   8.575   3.822  2.5190 -1.2081  0.8847
  812MOL0     H 7175  11.173   8.501   3.952  0.7887  0.8229  1.7814
  812MOL0     H 7176  11.346   8.627   4.114 -2.1571  2.9098 -1.7616
  812MOL0     H 7177  11.393   8.478   4.020 -0.7368 -0.3839 -2.3822
  812MOL0     H 7178  11.570   8.669   4.022 -1.4689 -2.4104  2.1121
  812MOL0     H 7179  11.456   8.772   3.945  2.9798  0.0744  2.4613
  812MOL0     H 7180  11.536   8.509   3.813 -0.0543 -0.2485 -1.7000
  812MOL0     H 7181  11.455   8.650   3.745  0.0644 -1.3109 -1.4531
  812MOL0     H 7182  11.878   8.735   3.716  0.1234 -0.8438 -0.3021
  812MOL0     H 7183  10.979   8.513   3.864  0.3398 -2.2854  2.9964
  812MOL0     H 7184  10.743   8.534   3.894 -0.7404 -0.6516  2.4997
  813MOL0     O 7185   4.332   6.808  10.799 -0.1191 -0.6021  0.4043
  813MOL0     C 7186   4.339   6.710  10.723  0.5812 -0.4771 -0.0614
  813MOL0     O 7187   4.229   6.651  10.673 -0.5123 -0.0386  0.3840
  813MOL0     C 7188   4.097   6.688  10.685  0.2742  0.0505  0.2155
  813MOL0     C 7189   4.007   6.588  10.702  0.7210  0.2438  0.1403
  813MOL0     C 7190   3.868   6.617  10.694 -0.5320  0.3144  0.2335
  813MOL0     C 7191   3.822   6.750  10.686  0.6242 -0.7810 -0.2489
  813MOL0     O 7192   3.696   6.804  10.671  0.5683  0.1530  0.2786
  813MOL0     C 7193   3.582   6.715  10.665  0.0009  0.2943  0.6868
  813MOL0     C 7194   3.458   6.805  10.676  0.5451  0.5494  0.2622
  813MOL0     C 7195   3.328   6.720  10.708 -0.0139 -0.3298 -0.0163
  813MOL0     C 7196   3.279   6.645  10.582  0.1237  0.1227  0.1910
  813MOL0     C 7197   3.214   6.735  10.473 -0.3305  0.0766  0.4598
  813MOL0     C 7198   3.099   6.826  10.521  0.2809  0.3460 -0.7492
  813MOL0     C 7199   2.963   6.758  10.556  0.5131 -0.1400 -0.8865
  813MOL0     C 7200   2.934   6.754  10.707 -0.2144  0.1742  0.8934
  813MOL0     N 7201   2.793   6.722  10.730  0.5477  0.2113  0.2589
  813MOL0     C 7202   2.734   6.600  10.705  0.2760 -0.2191 -1.5461
  813MOL0     C 7203   2.615   6.599  10.770  0.3727  0.0156  0.7341
  813MOL0     C 7204   2.524   6.484  10.787  0.0733 -0.4732 -1.0423
  813MOL0     C 7205   2.394   6.527  10.838  0.4155 -0.1350  0.2198
  813MOL0     C 7206   2.318   6.408  10.896  0.4160 -0.0803  0.1913
  813MOL0     C 7207   2.174   6.438  10.928  0.5382 -0.8710 -0.0641
  813MOL0     O 7208   2.091   6.437  10.810 -0.5050 -0.3437  0.5069
  813MOL0     C 7209   1.955   6.438  10.815 -0.0135 -0.8293 -0.0546
  813MOL0     C 7210   1.867   6.467  10.924  0.3249  0.2050 -0.2014
  813MOL0     C 7211   1.725   6.467  10.915  0.2771 -0.3391  0.1393
  813MOL0     C 7212   1.671   6.448  10.786  0.2273  0.7474  0.1491
  813MOL0     C 7213   1.524   6.454  10.768 -0.6329 -0.4864  0.5031
  813MOL0     O 7214   1.443   6.496  10.881 -0.0176  0.5788  0.1546
  813MOL0     C 7215   1.305   6.533  10.858 -0.9808  0.2154  0.1233
  813MOL0     C 7216   1.232   6.492  10.961  0.3646  0.5499  0.4074
  813MOL0     C 7217   1.091   6.510  10.969 -0.9815  0.0478 -0.7087
  813MOL0     C 7218   1.033   6.554  10.845 -0.1230  0.5232  0.3964
  813MOL0     O 7219   0.895   6.561  10.833  0.4118 -0.5382  0.3165
  813MOL0     C 7220   0.826   6.655  10.919  0.1895 -0.3281 -0.5338
  813MOL0     C 7221   0.677   6.657  10.887  0.3783  0.5728  0.5927
  813MOL0     C 7222   0.593   6.763  10.949  1.3349  0.1725  0.0839
  813MOL0     C 7223   0.604   6.905  10.900 -0.1931  0.4698  0.0098
  813MOL0     C 7224   0.501   7.006  10.959  0.8059  0.3684 -0.1005
  813MOL0     C 7225   0.359   6.970  10.922  0.4689 -0.5303  0.1368
  813MOL0     C 7226   0.264   7.092  10.962  0.4403  1.3618 -0.2966
  813MOL0     C 7227   0.117   7.068  10.993 -0.2760  0.4199  0.7884
  813MOL0    Cl 7228   0.025   7.055  10.838  0.6402  0.0172  0.3036
  813MOL0     C 7229   1.110   6.593  10.736 -0.2962  0.9720 -0.1927
  813MOL0     C 7230   1.255   6.590  10.744 -0.3038 -0.2594 -0.2624
  813MOL0     O 7231   1.477   6.441  10.652 -0.0279 -0.4125 -0.1565
  813MOL0     C 7232   1.760   6.426  10.678 -0.2348  0.0228  0.0831
  813MOL0     C 7233   1.895   6.417  10.695 -0.1295 -0.5019  0.4653
  813MOL0     N 7234   2.601   6.719  10.839  0.7441  0.0427  0.5412
  813MOL0     N 7235   2.704   6.789  10.812  0.7933 -0.3684 -0.9928
  813MOL0     C 7236   3.917   6.855  10.674 -0.8243  0.0374  0.0539
  813MOL0     C 7237   4.056   6.819  10.674 -0.1530  0.4381 -0.2508
  813MOL0     C 7238   4.469   6.657  10.695 -0.4504 -0.2076 -0.0722
  813MOL0     C 7239   4.482   6.549  10.603 -0.0226  0.2411  0.9176
  813MOL0     C 7240   4.609   6.498  10.576  0.3767  0.4879  0.7956
  813MOL0     C 7241   4.721   6.552  10.630  0.6666 -0.1353 -0.6084
  813MOL0     O 7242   4.841   6.489  10.618  0.8792 -0.1024 -0.3088
  813MOL0     C 7243   4.952   6.571  10.582 -0.5409  0.2904  0.1484
  813MOL0     C 7244   5.057   6.481  10.511 -0.1534  0.5707 -0.4705
  813MOL0     C 7245   5.194   6.546  10.515  0.1275  0.1041 -0.8212
  813MOL0     C 7246   5.289   6.454  10.450 -0.6747 -0.6227  0.1430
  813MOL0     C 7247   5.425   6.442  10.510  0.8843 -0.0880 -0.2677
  813MOL0     C 7248   5.540   6.426  10.545  0.7836 -0.6590 -0.4676
  813MOL0     C 7249   4.712   6.661  10.720 -0.3805 -0.5640  0.1928
  813MOL0     C 7250   4.584   6.711  10.753  0.4727 -0.4130  0.4283
  813MOL0     H 7251   4.035   6.483  10.700  1.9065  0.5559 -0.5210
  813MOL0     H 7252   3.792   6.540  10.706 -1.1225  1.0057  1.0325
  813MOL0     H 7253   3.571   6.641  10.745  0.0208 -1.6368 -1.0316
  813MOL0     H 7254   3.591   6.661  10.571  1.2325 -2.1718  2.0974
  813MOL0     H 7255   3.441   6.854  10.579 -2.1685 -0.1481  0.3211
  813MOL0     H 7256   3.487   6.876  10.754  1.9730 -0.2968  0.5325
  813MOL0     H 7257   3.250   6.787  10.744  1.0238 -0.0376  1.7882
  813MOL0     H 7258   3.341   6.657  10.796 -1.8343  1.4275  1.5949
  813MOL0     H 7259   3.364   6.589  10.542  0.7826  1.1973  0.0414
  813MOL0     H 7260   3.191   6.581  10.600  0.8345 -0.5463  1.4075
  813MOL0     H 7261   3.195   6.673  10.385  3.7322  0.0812 -0.6421
  813MOL0     H 7262   3.290   6.808  10.444 -1.2082  0.4793 -0.9206
  813MOL0     H 7263   3.081   6.897  10.440  0.4256  1.0039 -0.2234
  813MOL0     H 7264   3.131   6.890  10.604  0.1529  0.7278 -0.9909
  813MOL0     H 7265   2.874   6.793  10.503  0.4318 -1.7164 -1.8302
  813MOL0     H 7266   2.964   6.655  10.519 -1.6085  0.1863 -1.9667
  813MOL0     H 7267   2.942   6.856  10.743  0.1288 -0.0341  1.4131
  813MOL0     H 7268   2.995   6.682  10.763  1.1011 -0.6958 -1.4905
  813MOL0     H 7269   2.778   6.513  10.659  1.3447 -1.4993  1.6678
  813MOL0     H 7270   2.569   6.408  10.852 -0.7522  2.1480  2.9530
  813MOL0     H 7271   2.509   6.447  10.685  1.4805 -0.2342 -1.3505
  813MOL0     H 7272   2.344   6.568  10.750  1.1479 -3.6779 -2.0299
  813MOL0     H 7273   2.408   6.598  10.920  2.1082  0.1889 -0.3195
  813MOL0     H 7274   2.312   6.328  10.822 -3.8539  2.0239 -2.1087
  813MOL0     H 7275   2.355   6.369  10.991 -4.1455 -1.2167  1.7457
  813MOL0     H 7276   2.177   6.540  10.968  0.4402 -0.1700 -1.7431
  813MOL0     H 7277   2.128   6.376  11.005 -1.2045 -1.1171 -1.2516
  813MOL0     H 7278   1.913   6.489  11.020  0.5873  0.9377 -0.4885
  813MOL0     H 7279   1.666   6.493  11.003  1.4226 -2.3002  1.5740
  813MOL0     H 7280   1.272   6.433  11.044 -0.5949 -2.9144 -1.4180
  813MOL0     H 7281   1.027   6.486  11.053 -1.2782  0.0016 -0.9424
  813MOL0     H 7282   0.859   6.758  10.900  0.0944 -0.3461 -0.8002
  813MOL0     H 7283   0.840   6.630  11.024 -0.5726  0.3147 -0.2639
  813MOL0     H 7284   0.639   6.564  10.931  0.1302  0.8694  1.0243
  813MOL0     H 7285   0.660   6.650  10.780 -0.5434 -1.9573  0.8272
  813MOL0     H 7286   0.602   6.768  11.058  1.5733 -1.5999  0.1657
  813MOL0     H 7287   0.490   6.730  10.933  1.2997  0.0897  0.4573
  813MOL0     H 7288   0.705   6.939  10.925  1.5231 -2.3241 -2.4992
  813MOL0     H 7289   0.597   6.912  10.791  1.9437 -0.7020 -0.2593
  813MOL0     H 7290   0.514   7.105  10.914 -1.2956  0.9489  0.4598
  813MOL0     H 7291   0.515   7.017  11.066 -0.9141  0.0495  0.1913
  813MOL0     H 7292   0.329   6.885  10.984 -0.4550  1.0244  1.9281
  813MOL0     H 7293   0.340   6.946  10.817  1.7328  1.9479 -0.7424
  813MOL0     H 7294   0.299   7.139  11.054 -0.5780  3.7277 -1.0322
  813MOL0     H 7295   0.275   7.163  10.879  1.5505  1.4603 -0.0766
  813MOL0     H 7296   0.073   7.151  11.050 -0.3205  0.7695  0.2537
  813MOL0     H 7297   0.087   6.978  11.047 -1.8532  0.6615  0.3703
  813MOL0     H 7298   1.067   6.623  10.641  1.2443  0.2919 -1.1356
  813MOL0     H 7299   1.318   6.631  10.666  1.6908  0.5239  1.6485
  813MOL0     H 7300   1.734   6.406  10.575  1.8070 -1.3468 -0.2465
  813MOL0     H 7301   1.957   6.409  10.606 -0.7504  2.4161 -0.3371
  813MOL0     H 7302   3.876   6.953  10.653 -2.0677 -0.8024 -1.6055
  813MOL0     H 7303   4.134   6.887  10.640 -0.0941  1.0301  1.0075
  813MOL0     H 7304   4.406   6.493  10.550  3.2668 -2.5468 -1.3071
  813MOL0     H 7305   4.612   6.406  10.518 -0.0102  1.5793 -1.0437
  813MOL0     H 7306   4.998   6.624  10.667 -1.0023  1.5327 -0.3466
  813MOL0     H 7307   4.927   6.651  10.512 -0.8034  0.0431 -0.0422
  813MOL0     H 7308   5.060   6.385  10.562  1.5204  0.0523 -1.4677
  813MOL0     H 7309   5.030   6.466  10.406  0.5495 -0.3088 -0.5379
  813MOL0     H 7310   5.220   6.555  10.621 -1.6232 -1.7073 -0.1880
  813MOL0     H 7311   5.193   6.645  10.468 -1.5774  0.1452 -0.7436
  813MOL0     H 7312   5.243   6.356  10.432 -1.8207  0.1809 -1.4909
  813MOL0     H 7313   5.303   6.488  10.347  0.7612  0.1310  0.5611
  813MOL0     H 7314   5.643   6.419  10.572 -0.0062 -3.1113  2.3865
  813MOL0     H 7315   4.792   6.705  10.779  1.1164 -0.9984 -1.4138
  813MOL0     H 7316   4.580   6.796  10.820 -2.6073 -1.0830  1.2650
  814MOL0     O 7317  10.460   5.060   2.171 -0.1284  0.8812  0.3148
  814MOL0     C 7318  10.561   4.989   2.192 -0.2694 -0.9800 -0.5703
  814MOL0     O 7319  10.676   5.045   2.222 -0.4261  0.0296 -0.2861
  814MOL0     C 7320  10.680   5.177   2.247  0.0376  0.1304  0.4165
  814MOL0     C 7321  10.681   5.234   2.371  0.5253 -0.7704 -0.3909
  814MOL0     C 7322  10.699   5.371   2.391 -0.3096 -0.9514 -0.4838
  814MOL0     C 7323  10.722   5.454   2.277  0.9086  0.4689 -0.0635
  814MOL0     O 7324  10.738   5.588   2.290 -0.1879  0.0731  0.9813
  814MOL0     C 7325  10.756   5.642   2.419 -0.5859  0.2997  0.0651
  814MOL0     C 7326  10.762   5.792   2.388 -1.1572  0.2165 -0.4955
  814MOL0     C 7327  10.794   5.887   2.509  0.0614  1.3414  0.0350
  814MOL0     C 7328  10.800   6.033   2.457 -0.1290  0.3700 -0.2914
  814MOL0     C 7329  10.841   6.116   2.576  0.3588  0.0735 -0.1308
  814MOL0     C 7330  10.902   6.253   2.543  0.1481  0.0634 -0.0139
  814MOL0     C 7331  10.896   6.339   2.676  0.3579  0.0417 -0.3851
  814MOL0     C 7332  10.971   6.472   2.654  0.0630 -0.4913 -0.8006
  814MOL0     N 7333  10.904   6.577   2.577  0.0744 -0.0984 -0.5802
  814MOL0     C 7334  10.778   6.632   2.593  0.5883 -0.0879 -0.5084
  814MOL0     C 7335  10.759   6.702   2.477 -1.0282 -0.1909  0.2553
  814MOL0     C 7336  10.623   6.760   2.455  0.0026 -0.3992  0.5736
  814MOL0     C 7337  10.618   6.896   2.532 -0.9801  1.1753 -0.0487
  814MOL0     C 7338  10.485   6.965   2.545 -0.3920  0.4981  0.5532
  814MOL0     C 7339  10.493   7.101   2.614  0.3354 -0.0103 -0.6054
  814MOL0     O 7340  10.402   7.194   2.558 -0.0702  0.7179  0.0713
  814MOL0     C 7341  10.265   7.161   2.553 -0.7077  0.1282  0.4294
  814MOL0     C 7342  10.182   7.224   2.457  0.4221 -0.0425  0.0524
  814MOL0     C 7343  10.044   7.181   2.450 -0.3854 -0.0548  0.9451
  814MOL0     C 7344   9.988   7.096   2.541 -0.0244  0.3452 -0.4171
  814MOL0     C 7345   9.845   7.053   2.526  0.0158  0.1810  0.0222
  814MOL0     O 7346   9.775   7.110   2.426 -0.0501 -0.0575  0.1988
  814MOL0     C 7347   9.644   7.080   2.413 -0.1515  0.2825  0.2887
  814MOL0     C 7348   9.552   7.182   2.441  0.5007 -0.2639 -0.2140
  814MOL0     C 7349   9.416   7.153   2.414  0.6486 -0.7893 -0.0735
  814MOL0     C 7350   9.371   7.027   2.375  0.0384  0.4212 -1.0546
  814MOL0     O 7351   9.243   6.999   2.348 -0.4706  0.2761 -0.4298
  814MOL0     C 7352   9.126   7.079   2.382 -0.1167  0.2223 -0.2322
  814MOL0     C 7353   9.009   7.007   2.332  0.1527  0.4724  0.0898
  814MOL0     C 7354   8.874   7.084   2.338  0.3286  0.1392 -0.0400
  814MOL0     C 7355   8.820   7.108   2.473  0.1258 -0.1676 -0.1807
  814MOL0     C 7356   8.678   7.048   2.494  0.0275 -0.4267 -0.8326
  814MOL0     C 7357   8.553   7.121   2.439 -0.1865  0.3367 -0.2259
  814MOL0     C 7358   8.544   7.133   2.279 -0.7495  0.0433 -0.3117
  814MOL0     C 7359   8.410   7.188   2.230 -0.2365 -0.1407 -0.5186
  814MOL0    Cl 7360   8.291   7.061   2.286 -0.1737  0.0854 -0.3145
  814MOL0     C 7361   9.464   6.924   2.358 -0.2062  0.0718 -0.0078
  814MOL0     C 7362   9.599   6.955   2.374  0.1687 -0.0104 -0.8123
  814MOL0     O 7363   9.794   6.980   2.610 -0.0285  0.3248  0.4431
  814MOL0     C 7364  10.071   7.054   2.647 -0.1197 -0.2715  0.5534
  814MOL0     C 7365  10.204   7.079   2.654 -0.2622 -0.1083 -0.1378
  814MOL0     N 7366  10.873   6.701   2.404 -0.2790 -0.7112 -0.2018
  814MOL0     N 7367  10.956   6.614   2.458 -0.0569  0.7466 -0.4614
  814MOL0     C 7368  10.710   5.403   2.149  0.8289 -0.1096 -0.3991
  814MOL0     C 7369  10.689   5.264   2.133  0.3092  0.8960 -0.0123
  814MOL0     C 7370  10.551   4.841   2.208  0.0851  0.2121 -0.2535
  814MOL0     C 7371  10.661   4.753   2.186  0.7831  0.9079  0.1984
  814MOL0     C 7372  10.655   4.618   2.200  0.2190  0.3231  0.5724
  814MOL0     C 7373  10.537   4.557   2.247 -0.6835 -0.1388  0.4291
  814MOL0     O 7374  10.526   4.423   2.261 -0.3277  0.3321  0.5258
  814MOL0     C 7375  10.604   4.328   2.181  0.3392  0.0091 -0.1937
  814MOL0     C 7376  10.542   4.328   2.044  0.6488  0.0031 -0.3937
  814MOL0     C 7377  10.599   4.210   1.961  0.3948  0.4707 -0.0495
  814MOL0     C 7378  10.585   4.225   1.807 -0.0594 -0.3936 -0.2912
  814MOL0     C 7379  10.442   4.229   1.758  0.6653 -0.0417  0.0981
  814MOL0     C 7380  10.326   4.218   1.721  0.8688  0.5015 -0.2195
  814MOL0     C 7381  10.427   4.636   2.275 -0.3173 -1.0428  0.2498
  814MOL0     C 7382  10.435   4.784   2.259 -0.0045 -0.4014  0.5326
  814MOL0     H 7383  10.660   5.171   2.457 -0.7802  1.6828  1.1906
  814MOL0     H 7384  10.695   5.395   2.497  1.7900 -2.9525  0.1391
  814MOL0     H 7385  10.854   5.609   2.457 -0.4351  1.6479  0.9193
  814MOL0     H 7386  10.673   5.621   2.488 -0.3076  0.1269  0.3536
  814MOL0     H 7387  10.670   5.824   2.337 -0.4961  1.0763 -1.1800
  814MOL0     H 7388  10.844   5.806   2.317 -0.1915 -1.2812  0.2773
  814MOL0     H 7389  10.890   5.858   2.552 -0.2316  1.5504  0.8524
  814MOL0     H 7390  10.714   5.878   2.582 -1.0202  1.2504 -1.1220
  814MOL0     H 7391  10.861   6.045   2.367 -1.8781 -1.1096 -1.7666
  814MOL0     H 7392  10.700   6.059   2.420 -2.1063 -3.5621  1.6021
  814MOL0     H 7393  10.925   6.064   2.624  0.5024 -1.0606 -1.5324
  814MOL0     H 7394  10.760   6.122   2.649  1.4711 -2.0473  1.3902
  814MOL0     H 7395  10.836   6.305   2.473 -0.8952 -0.9862  0.1430
  814MOL0     H 7396  11.004   6.245   2.506  0.0997 -1.1182  0.0825
  814MOL0     H 7397  10.792   6.363   2.699  1.1503  3.0778  0.5667
  814MOL0     H 7398  10.934   6.286   2.764  0.1587 -0.0716 -0.3676
  814MOL0     H 7399  11.069   6.443   2.615 -0.3680 -1.5414 -1.1325
  814MOL0     H 7400  10.986   6.513   2.754  0.5965  2.4220 -1.9762
  814MOL0     H 7401  10.700   6.625   2.669  3.1991  2.1516  2.6691
  814MOL0     H 7402  10.541   6.701   2.496 -1.1607  0.7588 -0.0031
  814MOL0     H 7403  10.605   6.780   2.349  3.1523  3.6209  0.5241
  814MOL0     H 7404  10.698   6.962   2.497 -0.8067  0.5841 -0.8089
  814MOL0     H 7405  10.644   6.868   2.634  0.0230  1.4160 -0.2255
  814MOL0     H 7406  10.457   6.980   2.440 -1.3693 -1.2554  0.5223
  814MOL0     H 7407  10.406   6.903   2.588 -1.2786 -1.1845 -3.1223
  814MOL0     H 7408  10.595   7.140   2.607  1.2359 -1.8652  0.9746
  814MOL0     H 7409  10.468   7.094   2.721 -1.4013  3.0558 -0.6936
  814MOL0     H 7410  10.236   7.288   2.388 -3.1112  0.8382 -2.1631
  814MOL0     H 7411   9.980   7.221   2.372  0.9028  0.7735  0.2854
  814MOL0     H 7412   9.590   7.281   2.469  0.7611 -0.6089  0.7009
  814MOL0     H 7413   9.345   7.232   2.436  0.3674 -0.9263 -0.4817
  814MOL0     H 7414   9.140   7.175   2.331  0.5565  1.5241  2.2149
  814MOL0     H 7415   9.114   7.091   2.490  1.0391 -0.2746 -0.0314
  814MOL0     H 7416   8.990   6.908   2.375  4.2149 -0.3343  0.3619
  814MOL0     H 7417   9.024   6.976   2.228  2.4260 -2.4845  1.1382
  814MOL0     H 7418   8.801   7.025   2.282  0.2801 -1.1137  1.2750
  814MOL0     H 7419   8.899   7.174   2.282 -0.0125 -0.5689 -1.3639
  814MOL0     H 7420   8.889   7.060   2.543 -0.1433  0.9127  0.8636
  814MOL0     H 7421   8.816   7.216   2.483 -0.2324  0.1390 -2.9778
  814MOL0     H 7422   8.675   7.032   2.602  2.2882 -0.1488 -0.6740
  814MOL0     H 7423   8.673   6.947   2.451 -1.3406 -1.4003  1.4440
  814MOL0     H 7424   8.553   7.225   2.474  2.9050  0.1223  0.7543
  814MOL0     H 7425   8.471   7.055   2.469 -0.2742  0.8768  0.7584
  814MOL0     H 7426   8.621   7.205   2.253 -0.7320 -0.2479 -1.1084
  814MOL0     H 7427   8.565   7.035   2.235 -0.6284  1.9501 -5.0771
  814MOL0     H 7428   8.405   7.199   2.121  1.1707  1.6353 -0.4551
  814MOL0     H 7429   8.387   7.280   2.284 -0.7964 -0.5473 -0.0502
  814MOL0     H 7430   9.436   6.827   2.319 -0.9081 -0.8108  2.5309
  814MOL0     H 7431   9.669   6.874   2.354 -2.4326 -3.3188  2.2018
  814MOL0     H 7432  10.016   6.988   2.714 -0.8532  0.4365  0.6595
  814MOL0     H 7433  10.262   7.039   2.736 -0.5433  3.2887  1.9139
  814MOL0     H 7434  10.718   5.457   2.055  0.1165 -0.7735 -0.8538
  814MOL0     H 7435  10.676   5.226   2.032  2.3092 -1.2219  0.4542
  814MOL0     H 7436  10.749   4.809   2.153 -1.2433  3.7151 -0.9250
  814MOL0     H 7437  10.747   4.565   2.181  0.2428  0.5793 -0.0464
  814MOL0     H 7438  10.602   4.230   2.229 -0.1511  0.2667  0.3259
  814MOL0     H 7439  10.709   4.347   2.160  0.3037 -2.0213 -2.7311
  814MOL0     H 7440  10.434   4.311   2.049  0.2260  0.1698 -4.7610
  814MOL0     H 7441  10.545   4.423   1.990 -0.6940 -0.2871 -1.0217
  814MOL0     H 7442  10.546   4.119   1.991  0.4915  0.8905  1.4913
  814MOL0     H 7443  10.705   4.190   1.982  0.0884 -2.1035 -0.5888
  814MOL0     H 7444  10.646   4.312   1.782  1.2885 -0.9706  0.9078
  814MOL0     H 7445  10.635   4.138   1.765 -2.5579 -2.9211  1.5704
  814MOL0     H 7446  10.226   4.209   1.683  1.0883  2.3155 -1.3318
  814MOL0     H 7447  10.338   4.581   2.303  0.3786 -2.5317 -0.3992
  814MOL0     H 7448  10.353   4.849   2.285 -1.2369 -0.7491 -2.1776
  815MOL0     O 7449   0.584   5.867   4.309 -0.0496  0.3102 -0.1567
  815MOL0     C 7450   0.636   5.928   4.399 -1.0037 -0.4511  0.3720
  815MOL0     O 7451   0.575   6.010   4.490 -0.2001 -0.0509  0.4454
  815MOL0     C 7452   0.444   6.044   4.477 -0.3926  0.6215 -0.5457
  815MOL0     C 7453   0.410   6.170   4.512 -0.6811 -0.5105  0.3318
  815MOL0     C 7454   0.279   6.205   4.513  1.0183  0.3901  0.9218
  815MOL0     C 7455   0.172   6.112   4.493 -0.6383 -0.3469  0.3630
  815MOL0     O 7456   0.039   6.130   4.494  0.1106  0.1909  0.3474
  815MOL0     C 7457  -0.015   6.264   4.503  0.3376  0.1617  0.0595
  815MOL0     C 7458  -0.165   6.261   4.529 -0.6121 -0.1447  0.5950
  815MOL0     C 7459  -0.236   6.185   4.416 -0.0068  0.5948  0.2951
  815MOL0     C 7460  -0.386   6.209   4.410 -1.0402  0.3085 -0.4302
  815MOL0     C 7461  -0.436   6.168   4.267 -1.1576  0.3982 -0.3773
  815MOL0     C 7462  -0.583   6.205   4.224 -0.9283 -0.2719 -0.1830
  815MOL0     C 7463  -0.681   6.163   4.341  0.5067  0.3567 -0.2003
  815MOL0     C 7464  -0.831   6.143   4.297  0.3266 -0.0390  0.2657
  815MOL0     N 7465  -0.851   6.011   4.233 -0.1415 -0.2940  0.2649
  815MOL0     C 7466  -0.981   5.960   4.198  0.2997 -0.6138  0.1915
  815MOL0     C 7467  -0.960   5.847   4.129 -0.4847 -0.2086 -0.2571
  815MOL0     C 7468  -1.054   5.752   4.068 -0.2369 -0.3849  0.6060
  815MOL0     C 7469  -1.172   5.742   4.166  0.4568  0.0776 -0.1375
  815MOL0     C 7470  -1.278   5.635   4.125 -0.2610 -0.4754 -0.2558
  815MOL0     C 7471  -1.394   5.662   4.219  0.0782  0.5085 -0.1313
  815MOL0     O 7472  -1.355   5.641   4.357  0.1130  0.8194 -0.0592
  815MOL0     C 7473  -1.430   5.681   4.467 -0.5044  0.1783 -1.0643
  815MOL0     C 7474  -1.518   5.781   4.460  0.6628 -0.2041  0.2652
  815MOL0     C 7475  -1.601   5.817   4.564 -0.2918 -0.1954 -0.4614
  815MOL0     C 7476  -1.582   5.778   4.700  0.7539  0.4135  0.3471
  815MOL0     C 7477  -1.650   5.828   4.820 -0.0301 -0.6807 -0.3767
  815MOL0     O 7478  -1.767   5.896   4.809  0.6098  0.1050 -0.3808
  815MOL0     C 7479  -1.835   5.938   4.916 -0.2213 -0.0299 -0.4022
  815MOL0     C 7480  -1.775   5.975   5.043  0.2496 -0.2529 -0.2578
  815MOL0     C 7481  -1.854   5.989   5.159 -0.3771 -0.3867  0.4939
  815MOL0     C 7482  -1.993   5.974   5.148 -0.2034  0.4004  0.3009
  815MOL0     O 7483  -2.081   5.981   5.254 -0.5364  0.4321 -0.2478
  815MOL0     C 7484  -2.044   6.063   5.363  0.2205  0.0515  0.3258
  815MOL0     C 7485  -2.173   6.112   5.433 -0.3883  0.0246 -0.2341
  815MOL0     C 7486  -2.290   6.013   5.425  0.1554  0.1011 -0.9660
  815MOL0     C 7487  -2.397   6.050   5.525  0.1719  0.4068  0.2335
  815MOL0     C 7488  -2.512   5.946   5.509  0.1454  0.7188  0.3332
  815MOL0     C 7489  -2.630   5.995   5.593  0.5046  0.0705  1.1163
  815MOL0     C 7490  -2.744   5.896   5.569 -0.2893  0.4177 -0.6537
  815MOL0     C 7491  -2.869   5.945   5.653 -0.2347  0.0114  0.2522
  815MOL0    Cl 7492  -3.005   5.841   5.624  0.1265  0.0355  0.5504
  815MOL0     C 7493  -2.051   5.948   5.027  0.6503  0.9732  0.3274
  815MOL0     C 7494  -1.977   5.920   4.912 -0.6692  0.9380  0.6713
  815MOL0     O 7495  -1.600   5.801   4.927  0.1127  0.1992 -0.6119
  815MOL0     C 7496  -1.477   5.684   4.715 -0.2867  0.1982 -0.6090
  815MOL0     C 7497  -1.411   5.625   4.597  0.0295  0.3679  0.4719
  815MOL0     N 7498  -0.823   5.821   4.124 -0.0955 -0.1167  0.9593
  815MOL0     N 7499  -0.762   5.924   4.176 -0.1566  0.4566  0.0045
  815MOL0     C 7500   0.207   5.989   4.453  0.9249 -0.0565 -0.1745
  815MOL0     C 7501   0.342   5.948   4.455  0.7841 -0.1505 -0.3026
  815MOL0     C 7502   0.783   5.911   4.419  0.3182  0.0962  0.0162
  815MOL0     C 7503   0.843   5.789   4.384 -0.2924  0.2584  0.1957
  815MOL0     C 7504   0.983   5.775   4.385 -0.0754 -0.0675  0.0666
  815MOL0     C 7505   1.064   5.876   4.435  0.0518 -0.5692 -0.8698
  815MOL0     O 7506   1.195   5.863   4.454  0.0263 -0.7728 -0.8510
  815MOL0     C 7507   1.268   5.768   4.383  0.2305  0.1054  0.4095
  815MOL0     C 7508   1.414   5.770   4.426  0.1218 -0.5781 -0.0638
  815MOL0     C 7509   1.492   5.879   4.358 -0.0116 -0.2663  0.6529
  815MOL0     C 7510   1.632   5.838   4.346 -1.3239 -0.1448  0.0408
  815MOL0     C 7511   1.721   5.955   4.313 -0.1663 -0.6934  0.5039
  815MOL0     C 7512   1.786   6.050   4.274  0.2707  0.3544  0.4545
  815MOL0     C 7513   0.998   6.004   4.460  0.1049 -0.3578 -0.2105
  815MOL0     C 7514   0.851   6.020   4.466 -0.8028  0.3631 -0.1267
  815MOL0     H 7515   0.488   6.245   4.526 -0.3019 -0.9498  0.6107
  815MOL0     H 7516   0.245   6.303   4.545 -1.4625  0.2009 -0.8355
  815MOL0     H 7517   0.005   6.325   4.414  0.6569 -0.1334 -0.0754
  815MOL0     H 7518   0.039   6.308   4.588 -0.5380 -0.3331  0.8909
  815MOL0     H 7519  -0.194   6.366   4.517  2.5939  0.5365 -3.1993
  815MOL0     H 7520  -0.196   6.228   4.628  0.7713  2.1775  1.8869
  815MOL0     H 7521  -0.213   6.080   4.436  0.5524  0.8688  1.1571
  815MOL0     H 7522  -0.190   6.202   4.318  0.6747 -0.2042  0.4593
  815MOL0     H 7523  -0.422   6.147   4.493  0.0186  0.5553  0.2348
  815MOL0     H 7524  -0.398   6.314   4.439  2.8464  0.8428 -0.2242
  815MOL0     H 7525  -0.421   6.060   4.259 -0.3777  0.3869  0.9641
  815MOL0     H 7526  -0.365   6.222   4.204  1.5589  0.1211  2.2144
  815MOL0     H 7527  -0.610   6.150   4.133 -0.5511  0.1422 -0.5506
  815MOL0     H 7528  -0.583   6.313   4.206  1.9049  0.1880  1.9400
  815MOL0     H 7529  -0.644   6.075   4.394 -1.1625  0.0898  0.5756
  815MOL0     H 7530  -0.678   6.245   4.413  0.9862 -0.1396  0.3604
  815MOL0     H 7531  -0.863   6.220   4.226 -2.6853 -2.4604 -1.2289
  815MOL0     H 7532  -0.895   6.160   4.384 -1.0902  1.1701 -0.9514
  815MOL0     H 7533  -1.075   6.013   4.205  1.2842  1.0972  1.0536
  815MOL0     H 7534  -1.007   5.653   4.075  1.5108  0.3991  0.3893
  815MOL0     H 7535  -1.082   5.791   3.970 -2.2246  0.6717  1.5499
  815MOL0     H 7536  -1.225   5.837   4.167  0.0900 -0.1115  2.2664
  815MOL0     H 7537  -1.135   5.724   4.267 -2.1881  1.6027  1.1814
  815MOL0     H 7538  -1.298   5.632   4.018 -2.3213 -3.0113  0.0936
  815MOL0     H 7539  -1.244   5.535   4.153 -0.5282 -0.0531  1.7490
  815MOL0     H 7540  -1.460   5.578   4.195 -0.7427  1.5296 -1.6995
  815MOL0     H 7541  -1.455   5.750   4.194 -1.4851 -0.7226 -0.8603
  815MOL0     H 7542  -1.534   5.830   4.364 -1.9486  0.0561  0.7717
  815MOL0     H 7543  -1.674   5.895   4.543 -0.3236  0.2092  1.0068
  815MOL0     H 7544  -1.669   5.991   5.058 -0.4788  2.1520  3.4415
  815MOL0     H 7545  -1.801   6.022   5.248  2.8350 -0.6798 -1.1494
  815MOL0     H 7546  -1.995   6.153   5.325 -2.5330 -0.1176 -4.4380
  815MOL0     H 7547  -1.985   6.013   5.441 -0.7203 -1.1300  0.2984
  815MOL0     H 7548  -2.207   6.204   5.386 -0.9032 -0.6101 -1.1314
  815MOL0     H 7549  -2.165   6.141   5.538  0.9720 -3.2685  0.7255
  815MOL0     H 7550  -2.255   5.916   5.461  0.0564  0.0950 -0.8868
  815MOL0     H 7551  -2.327   6.005   5.323 -0.6458  1.2023 -0.7905
  815MOL0     H 7552  -2.362   6.056   5.629  1.0953  2.0049 -0.1368
  815MOL0     H 7553  -2.447   6.145   5.506  1.2226  0.7049 -1.2051
  815MOL0     H 7554  -2.496   5.842   5.536 -4.0015 -0.8769 -2.2786
  815MOL0     H 7555  -2.535   5.941   5.402 -0.1135  1.6641  0.3284
  815MOL0     H 7556  -2.657   6.092   5.550  0.0965 -0.6360 -0.2675
  815MOL0     H 7557  -2.601   6.008   5.697 -0.2199  0.3291  1.2973
  815MOL0     H 7558  -2.768   5.880   5.463  2.5745  3.0791 -1.8307
  815MOL0     H 7559  -2.721   5.798   5.613 -1.2731  1.3637  2.1904
  815MOL0     H 7560  -2.899   6.044   5.617  1.7513 -0.0550 -1.8481
  815MOL0     H 7561  -2.848   5.949   5.760 -0.0158 -2.4066  0.3483
  815MOL0     H 7562  -2.159   5.940   5.028  0.6001  0.8272 -1.8651
  815MOL0     H 7563  -2.024   5.882   4.822 -0.6499  1.4890  0.4206
  815MOL0     H 7564  -1.464   5.641   4.814 -0.7466  2.9430  0.7280
  815MOL0     H 7565  -1.340   5.546   4.617  1.5886  0.9902 -2.0686
  815MOL0     H 7566   0.142   5.909   4.420  0.0551 -1.1212  3.6236
  815MOL0     H 7567   0.367   5.843   4.444  1.2036  0.0217 -1.0411
  815MOL0     H 7568   0.789   5.702   4.350 -0.9756  1.6424 -2.5601
  815MOL0     H 7569   1.026   5.678   4.360 -2.1210 -0.8594 -0.5415
  815MOL0     H 7570   1.246   5.777   4.276 -0.0745  2.6240  0.6353
  815MOL0     H 7571   1.233   5.669   4.413  0.3842  0.0033  0.2572
  815MOL0     H 7572   1.426   5.791   4.533 -0.2080  1.6867 -0.4250
  815MOL0     H 7573   1.454   5.670   4.406  5.7832  1.4490 -0.6233
  815MOL0     H 7574   1.487   5.972   4.416 -2.7807 -1.8897  3.3083
  815MOL0     H 7575   1.454   5.898   4.258 -0.7510 -1.0405  0.7766
  815MOL0     H 7576   1.666   5.793   4.440 -1.0310 -1.7842 -0.8250
  815MOL0     H 7577   1.646   5.759   4.272 -1.0763 -2.0703  2.0254
  815MOL0     H 7578   1.829   6.136   4.227 -1.8347  0.7501 -0.8713
  815MOL0     H 7579   1.051   6.089   4.502  2.4680 -0.6108 -2.4652
  815MOL0     H 7580   0.802   6.111   4.498 -0.0950  0.7113 -0.0059
  816MOL0     O 7581   7.552   7.352   8.813 -0.1857  0.0533 -0.5926
  816MOL0     C 7582   7.634   7.433   8.775 -0.3059  0.0380 -0.2436
  816MOL0     O 7583   7.613   7.564   8.786  0.6473 -0.2775  0.4419
  816MOL0     C 7584   7.488   7.603   8.833 -0.8926  0.5689  0.4325
  816MOL0     C 7585   7.485   7.693   8.946  0.0921  0.0174  0.0004
  816MOL0     C 7586   7.361   7.736   8.995 -0.2738  0.0003 -0.0301
  816MOL0     C 7587   7.237   7.686   8.943  0.3110  0.2749  0.1414
  816MOL0     O 7588   7.112   7.722   8.994 -0.4336  0.5874  0.0183
  816MOL0     C 7589   7.014   7.617   8.991  0.2280  0.4482  0.0008
  816MOL0     C 7590   6.882   7.659   9.058 -0.3800  1.1254  0.5863
  816MOL0     C 7591   6.806   7.535   9.106 -0.6057  0.1388  0.4813
  816MOL0     C 7592   6.678   7.562   9.177 -0.1861  0.3267 -0.0292
  816MOL0     C 7593   6.585   7.442   9.203  0.5630  0.2799 -0.0343
  816MOL0     C 7594   6.438   7.485   9.241  0.0947  0.2240  0.1461
  816MOL0     C 7595   6.357   7.511   9.115 -0.4929 -0.5674 -0.1184
  816MOL0     C 7596   6.230   7.583   9.167 -0.3042  0.4296  0.6912
  816MOL0     N 7597   6.135   7.631   9.063 -0.8646  0.1726  0.6888
  816MOL0     C 7598   6.173   7.657   8.930 -0.7047 -0.0807 -0.1921
  816MOL0     C 7599   6.059   7.657   8.856  0.2554 -0.0428  0.4231
  816MOL0     C 7600   6.050   7.684   8.702 -0.3052 -0.2854 -0.5259
  816MOL0     C 7601   5.993   7.832   8.677 -0.2400  0.2342  0.1147
  816MOL0     C 7602   5.963   7.847   8.528 -1.1551  0.2849  0.5413
  816MOL0     C 7603   5.862   7.959   8.491 -0.0917 -0.2189  0.0842
  816MOL0     O 7604   5.894   8.095   8.522  0.2457 -0.1947 -0.1309
  816MOL0     C 7605   5.814   8.193   8.466  0.0565  0.9112  0.2075
  816MOL0     C 7606   5.737   8.271   8.553 -0.0760  0.3137 -0.4214
  816MOL0     C 7607   5.662   8.376   8.501  0.0684  0.4637 -0.3862
  816MOL0     C 7608   5.656   8.402   8.363 -0.2147 -0.5872  0.3106
  816MOL0     C 7609   5.557   8.504   8.313 -0.3256 -0.9695  0.5919
  816MOL0     O 7610   5.501   8.595   8.390 -0.2882  0.3057 -0.9651
  816MOL0     C 7611   5.393   8.664   8.329 -0.3148  0.6193  0.0561
  816MOL0     C 7612   5.388   8.805   8.306  0.3506 -0.2304  0.5026
  816MOL0     C 7613   5.272   8.867   8.255  0.1983 -0.3074  0.3422
  816MOL0     C 7614   5.166   8.792   8.216 -0.0526  0.1652  0.5798
  816MOL0     O 7615   5.050   8.851   8.164 -0.1989 -0.0781 -0.4891
  816MOL0     C 7616   4.998   8.806   8.035  0.0787  0.6181 -0.9110
  816MOL0     C 7617   4.891   8.888   7.973 -0.3903  0.4088 -0.0466
  816MOL0     C 7618   4.775   8.915   8.065 -0.8228  0.6145 -0.5136
  816MOL0     C 7619   4.679   9.018   7.988 -0.4833  0.9799  0.0113
  816MOL0     C 7620   4.550   9.047   8.061  0.5420  0.3019 -0.0606
  816MOL0     C 7621   4.493   9.184   8.015 -0.1605 -0.0240  0.4120
  816MOL0     C 7622   4.359   9.213   8.102 -0.4835 -0.2659 -0.0350
  816MOL0     C 7623   4.243   9.230   8.007 -0.4867  0.4856 -0.4852
  816MOL0    Cl 7624   4.108   9.298   8.092  0.0320 -0.2192 -0.0435
  816MOL0     C 7625   5.165   8.656   8.242 -0.2089 -0.1032  1.0781
  816MOL0     C 7626   5.276   8.599   8.292 -0.2605 -0.4406 -0.2046
  816MOL0     O 7627   5.539   8.495   8.190 -0.0068  0.6304  0.3660
  816MOL0     C 7628   5.727   8.308   8.273  0.0788 -0.2814 -0.0616
  816MOL0     C 7629   5.801   8.207   8.326 -0.5191  0.6022 -0.3979
  816MOL0     N 7630   5.952   7.639   8.946 -0.5498 -0.2600 -0.0354
  816MOL0     N 7631   6.000   7.629   9.059  0.5648 -0.2035 -0.8228
  816MOL0     C 7632   7.248   7.609   8.821 -0.9942 -0.1689  0.0398
  816MOL0     C 7633   7.368   7.569   8.769 -0.2534  0.0436  0.4466
  816MOL0     C 7634   7.754   7.370   8.717  0.0387 -0.0053  0.9790
  816MOL0     C 7635   7.775   7.230   8.689  0.5760  0.0225  0.0493
  816MOL0     C 7636   7.893   7.181   8.636  0.7189 -0.1970  0.2115
  816MOL0     C 7637   8.002   7.259   8.621 -0.5799 -0.5561 -0.7069
  816MOL0     O 7638   8.118   7.200   8.582 -0.2164 -0.2547 -0.0443
  816MOL0     C 7639   8.224   7.287   8.530 -0.0717  0.0033 -0.0192
  816MOL0     C 7640   8.319   7.345   8.635  0.1548 -0.3583  0.8962
  816MOL0     C 7641   8.388   7.238   8.718  0.7820  0.8343 -0.3502
  816MOL0     C 7642   8.519   7.180   8.661  0.4674  0.0122 -0.6694
  816MOL0     C 7643   8.515   7.154   8.515  0.3870 -0.0486 -0.7022
  816MOL0     C 7644   8.510   7.117   8.398  0.8457  0.5665  0.2772
  816MOL0     C 7645   7.989   7.395   8.662 -0.3868  0.1460 -0.1322
  816MOL0     C 7646   7.868   7.447   8.698 -0.4851  0.1108 -0.5042
  816MOL0     H 7647   7.580   7.718   8.993 -0.8915  1.1932  1.4560
  816MOL0     H 7648   7.364   7.806   9.078  0.5076  1.9453 -1.6110
  816MOL0     H 7649   7.046   7.529   9.047 -0.2168  0.2942  0.0134
  816MOL0     H 7650   6.989   7.592   8.888  1.1391 -0.8255  0.0698
  816MOL0     H 7651   6.821   7.718   8.990  0.6925  1.1919 -0.3305
  816MOL0     H 7652   6.914   7.719   9.143  2.0885 -0.5903  0.9740
  816MOL0     H 7653   6.872   7.473   9.167 -0.1174  0.3518  0.1751
  816MOL0     H 7654   6.776   7.478   9.017  2.1262 -0.2573 -0.2574
  816MOL0     H 7655   6.710   7.594   9.277  0.4669  0.9293 -0.4181
  816MOL0     H 7656   6.613   7.627   9.118 -0.3373 -0.1140 -0.3545
  816MOL0     H 7657   6.618   7.377   9.285 -2.1905  0.0618  0.9923
  816MOL0     H 7658   6.580   7.390   9.107 -0.0073 -0.0009  0.1447
  816MOL0     H 7659   6.439   7.570   9.309  2.8203 -0.1440  0.6594
  816MOL0     H 7660   6.391   7.398   9.288  2.8901 -0.6036  1.6232
  816MOL0     H 7661   6.411   7.581   9.051 -0.2317  1.0790  1.8049
  816MOL0     H 7662   6.321   7.417   9.072 -1.1903 -1.4058  2.1173
  816MOL0     H 7663   6.259   7.668   9.230  0.1255 -0.2689  1.4625
  816MOL0     H 7664   6.180   7.515   9.236  2.9197 -2.4313  0.5053
  816MOL0     H 7665   6.270   7.691   8.896 -1.3508  0.2175 -1.7807
  816MOL0     H 7666   5.969   7.618   8.669  0.5575 -0.6354 -2.0421
  816MOL0     H 7667   6.145   7.679   8.648 -0.0901 -0.0461 -0.1739
  816MOL0     H 7668   6.067   7.909   8.700  0.1105  0.0316 -0.3174
  816MOL0     H 7669   5.899   7.853   8.729 -0.2050  0.7039 -0.0042
  816MOL0     H 7670   6.052   7.883   8.475 -0.9243  0.6526  1.1661
  816MOL0     H 7671   5.932   7.753   8.482  0.0543  0.5449 -0.9087
  816MOL0     H 7672   5.768   7.945   8.544 -1.9179  2.6124 -2.0802
  816MOL0     H 7673   5.834   7.948   8.385 -1.0277  0.1526  0.2818
  816MOL0     H 7674   5.724   8.228   8.652  1.7903 -4.1085 -1.8391
  816MOL0     H 7675   5.594   8.439   8.557 -0.9848  0.5054 -1.6620
  816MOL0     H 7676   5.486   8.848   8.321  0.3036  0.1764 -0.3112
  816MOL0     H 7677   5.276   8.970   8.220  0.5554  1.0769  3.9806
  816MOL0     H 7678   4.965   8.702   8.047  1.6306  0.4187  3.3587
  816MOL0     H 7679   5.079   8.816   7.962  0.6650  0.0114 -0.3563
  816MOL0     H 7680   4.871   8.852   7.872  1.6600  1.1262 -0.7719
  816MOL0     H 7681   4.940   8.983   7.952 -0.4001 -0.2116 -3.3711
  816MOL0     H 7682   4.814   8.961   8.156 -0.5023 -1.3468  0.3996
  816MOL0     H 7683   4.726   8.820   8.088 -0.3303 -0.5292 -3.7356
  816MOL0     H 7684   4.742   9.102   7.955  0.7550 -1.0913 -3.3421
  816MOL0     H 7685   4.641   8.967   7.900 -1.8576  0.9282  0.6152
  816MOL0     H 7686   4.569   9.057   8.168 -0.3004  1.9359 -0.0302
  816MOL0     H 7687   4.483   8.962   8.040 -0.0785  0.7143  0.2070
  816MOL0     H 7688   4.462   9.170   7.911  1.5757 -0.6212 -0.0621
  816MOL0     H 7689   4.558   9.271   8.021 -0.9197  0.8100 -2.2883
  816MOL0     H 7690   4.342   9.132   8.173  1.4285  1.6090  2.7365
  816MOL0     H 7691   4.376   9.304   8.160  0.7444  0.0236 -0.7977
  816MOL0     H 7692   4.218   9.140   7.951  1.6227 -0.5729  0.2064
  816MOL0     H 7693   4.275   9.300   7.929  3.5168  0.1051  0.6051
  816MOL0     H 7694   5.075   8.600   8.217 -0.9210  1.3153  0.3053
  816MOL0     H 7695   5.267   8.493   8.312  0.3797 -1.0987 -2.9139
  816MOL0     H 7696   5.722   8.335   8.168 -0.8404  0.4197  0.1534
  816MOL0     H 7697   5.842   8.136   8.255 -0.3483  1.6654 -1.3857
  816MOL0     H 7698   7.170   7.569   8.757 -0.4982 -2.1717  0.5995
  816MOL0     H 7699   7.385   7.509   8.680 -0.8888  3.0363 -1.8265
  816MOL0     H 7700   7.699   7.160   8.723  2.7058 -1.8141  1.2710
  816MOL0     H 7701   7.892   7.077   8.604 -1.3517  0.3223 -1.6563
  816MOL0     H 7702   8.175   7.375   8.487 -1.5982 -1.6627 -1.9346
  816MOL0     H 7703   8.279   7.246   8.444  1.1674  1.0829  0.2388
  816MOL0     H 7704   8.397   7.397   8.579  0.7179 -0.1874  1.8100
  816MOL0     H 7705   8.270   7.407   8.711 -0.9913 -2.1445  1.6912
  816MOL0     H 7706   8.315   7.160   8.742  0.1727  1.5801  0.2466
  816MOL0     H 7707   8.425   7.281   8.811 -0.4829 -0.5388  0.8422
  816MOL0     H 7708   8.610   7.239   8.679  1.2098 -1.1386 -0.5092
  816MOL0     H 7709   8.531   7.087   8.717 -0.0087  0.6907  0.6018
  816MOL0     H 7710   8.503   7.072   8.301 -0.9505  0.1980  0.5493
  816MOL0     H 7711   8.071   7.466   8.653 -0.2797  0.1871  1.0361
  816MOL0     H 7712   7.871   7.552   8.726 -1.7259 -0.1362  0.6411
  817MOL0     O 7713   4.146   5.904   4.988 -0.0914  0.1331 -0.3902
  817MOL0     C 7714   4.246   5.972   4.970  1.1337 -0.4241 -0.7337
  817MOL0     O 7715   4.240   6.106   4.967 -0.2285  0.2911 -0.5206
  817MOL0     C 7716   4.121   6.173   4.959 -0.3432 -0.3753  0.4627
  817MOL0     C 7717   4.026   6.154   4.857 -0.9249  0.1470 -0.4628
  817MOL0     C 7718   3.927   6.251   4.832 -0.0756  0.0289 -0.0031
  817MOL0     C 7719   3.925   6.373   4.901 -0.2834  0.1046 -0.2090
  817MOL0     O 7720   3.829   6.466   4.867  0.1359 -0.8113  0.4857
  817MOL0     C 7721   3.796   6.569   4.962  0.0766 -0.9786 -0.0935
  817MOL0     C 7722   3.668   6.652   4.915 -0.1061  0.0545  0.0289
  817MOL0     C 7723   3.546   6.551   4.896  0.7480 -0.2836  0.2468
  817MOL0     C 7724   3.406   6.634   4.882 -0.1687 -0.5481 -0.2585
  817MOL0     C 7725   3.292   6.547   4.849 -0.4969 -0.4277  0.0003
  817MOL0     C 7726   3.172   6.622   4.777  0.4644  0.1729  0.4563
  817MOL0     C 7727   3.068   6.512   4.741  0.5373  0.7762  0.6409
  817MOL0     C 7728   2.941   6.575   4.691  0.1013  0.1310  0.8698
  817MOL0     N 7729   2.844   6.467   4.656  0.2706 -0.2211  0.0779
  817MOL0     C 7730   2.722   6.470   4.712  0.0576 -0.1657  0.8233
  817MOL0     C 7731   2.674   6.349   4.682 -0.0136  0.6738 -0.4980
  817MOL0     C 7732   2.544   6.288   4.714  0.5843  0.8415 -0.4296
  817MOL0     C 7733   2.455   6.274   4.597  0.5476 -0.5230 -0.1985
  817MOL0     C 7734   2.435   6.410   4.519 -0.0775  0.0051 -1.2737
  817MOL0     C 7735   2.361   6.519   4.612 -0.0108  0.2744  0.6737
  817MOL0     O 7736   2.235   6.461   4.663 -0.6172 -0.3499 -0.1877
  817MOL0     C 7737   2.130   6.473   4.580  0.8549 -0.4879  0.0469
  817MOL0     C 7738   2.062   6.593   4.565  1.0826 -1.5390 -0.5641
  817MOL0     C 7739   1.958   6.607   4.474 -0.2975  1.0928  0.5585
  817MOL0     C 7740   1.911   6.488   4.409  0.2063 -0.0710  0.6228
  817MOL0     C 7741   1.790   6.487   4.326 -0.2690  0.0781  0.3661
  817MOL0     O 7742   1.719   6.606   4.326  0.2893  0.2808  0.3461
  817MOL0     C 7743   1.625   6.638   4.230 -0.9394 -0.4815 -0.9825
  817MOL0     C 7744   1.525   6.727   4.265  0.6715  0.2446 -0.7325
  817MOL0     C 7745   1.417   6.748   4.176  0.0141  0.7073 -1.1899
  817MOL0     C 7746   1.424   6.709   4.048  0.4556  0.1005 -0.1099
  817MOL0     O 7747   1.331   6.726   3.952  0.3313  0.2356  0.6395
  817MOL0     C 7748   1.224   6.802   3.989 -0.8905 -0.4517  0.1807
  817MOL0     C 7749   1.169   6.816   3.850 -0.2242 -0.0727 -0.6420
  817MOL0     C 7750   1.039   6.891   3.871  0.2469  0.7487  0.3998
  817MOL0     C 7751   0.945   6.841   3.761 -0.8527 -0.4527 -0.8027
  817MOL0     C 7752   0.817   6.920   3.765 -0.5095 -0.3852  0.0467
  817MOL0     C 7753   0.721   6.882   3.651 -0.0221 -0.1674 -0.2912
  817MOL0     C 7754   0.629   6.999   3.619 -0.7608  0.0036  0.5859
  817MOL0     C 7755   0.499   6.958   3.549  0.0531  0.1048  0.2030
  817MOL0    Cl 7756   0.535   6.892   3.381  0.1414 -0.2317 -0.1298
  817MOL0     C 7757   1.541   6.640   4.004 -0.3969 -0.6337  0.6618
  817MOL0     C 7758   1.640   6.601   4.095  0.3918 -0.7916  0.4931
  817MOL0     O 7759   1.766   6.386   4.257  0.0966  0.3805 -0.8904
  817MOL0     C 7760   1.985   6.366   4.422 -0.3304 -0.2481 -0.3929
  817MOL0     C 7761   2.094   6.363   4.504 -0.3156 -1.0345  0.7131
  817MOL0     N 7762   2.768   6.279   4.609  0.4421 -0.3610  0.1349
  817MOL0     N 7763   2.870   6.353   4.590  0.7594 -0.2237  0.1223
  817MOL0     C 7764   4.009   6.380   5.011  0.7214 -0.7334  0.2420
  817MOL0     C 7765   4.103   6.281   5.045  0.1516 -0.2088 -0.1453
  817MOL0     C 7766   4.379   5.913   5.002  0.0284  0.0935  0.5386
  817MOL0     C 7767   4.397   5.776   5.041 -0.2329 -0.2735  0.1171
  817MOL0     C 7768   4.524   5.715   5.053  0.4018 -0.1908 -0.4460
  817MOL0     C 7769   4.633   5.788   5.022 -0.9646  0.1181  0.0651
  817MOL0     O 7770   4.760   5.742   5.025 -0.1262  0.0632  0.0709
  817MOL0     C 7771   4.795   5.616   5.098  0.0240  0.2778  0.8679
  817MOL0     C 7772   4.804   5.498   5.003 -0.5053 -0.2004 -0.6624
  817MOL0     C 7773   4.876   5.380   5.071 -1.2596  0.8297  0.3713
  817MOL0     C 7774   4.909   5.268   4.972  0.3545  0.4446  0.2258
  817MOL0     C 7775   4.999   5.330   4.878  0.3813  0.0928 -0.1552
  817MOL0     C 7776   5.073   5.381   4.803  0.0332 -0.1656 -0.2031
  817MOL0     C 7777   4.624   5.919   4.969  0.1317  0.5420  0.1709
  817MOL0     C 7778   4.495   5.977   4.960 -0.3873 -0.2688 -0.4788
  817MOL0     H 7779   4.032   6.062   4.800 -2.2278  0.3550 -0.9705
  817MOL0     H 7780   3.859   6.243   4.748 -1.0684 -0.5657  0.8336
  817MOL0     H 7781   3.877   6.640   4.986 -2.0589  0.6621  2.9911
  817MOL0     H 7782   3.773   6.530   5.062 -1.7266  0.0853 -0.0584
  817MOL0     H 7783   3.693   6.703   4.822 -1.8326 -0.8145 -0.9667
  817MOL0     H 7784   3.648   6.730   4.988  1.3519  1.0517 -0.6042
  817MOL0     H 7785   3.540   6.482   4.981 -2.6148 -0.3002  0.1416
  817MOL0     H 7786   3.566   6.491   4.807  0.7976  1.7581 -1.1749
  817MOL0     H 7787   3.387   6.690   4.975 -0.2310 -0.2637 -0.4397
  817MOL0     H 7788   3.425   6.704   4.800  3.2413 -1.0775 -0.0250
  817MOL0     H 7789   3.252   6.508   4.943 -0.4398 -1.1522 -0.2648
  817MOL0     H 7790   3.333   6.461   4.794  1.7600  0.9747 -0.6084
  817MOL0     H 7791   3.201   6.683   4.691  2.1051  0.8668  1.4555
  817MOL0     H 7792   3.120   6.691   4.844 -1.1460 -3.3370  3.1408
  817MOL0     H 7793   3.108   6.454   4.658  0.5965  2.2162 -0.3697
  817MOL0     H 7794   3.048   6.434   4.815 -1.6087 -3.4281 -3.8295
  817MOL0     H 7795   2.959   6.622   4.593 -0.0153 -0.8936  0.3391
  817MOL0     H 7796   2.906   6.653   4.758  0.1486  1.5615 -0.6903
  817MOL0     H 7797   2.677   6.546   4.775 -3.3828 -1.7260  0.4945
  817MOL0     H 7798   2.495   6.353   4.788  1.4935  2.8175 -1.4748
  817MOL0     H 7799   2.566   6.189   4.755 -0.2367 -0.3808 -2.7690
  817MOL0     H 7800   2.359   6.232   4.630  1.3033 -0.8550  1.7567
  817MOL0     H 7801   2.499   6.205   4.525  2.3444 -0.2627  0.5698
  817MOL0     H 7802   2.531   6.443   4.479  0.1656 -1.3858 -1.9153
  817MOL0     H 7803   2.370   6.385   4.435 -2.8247 -1.8315  1.1937
  817MOL0     H 7804   2.341   6.608   4.551  1.7393 -0.2919 -0.7982
  817MOL0     H 7805   2.420   6.553   4.698 -0.9302  1.3279  0.9163
  817MOL0     H 7806   2.094   6.680   4.620 -1.3816 -0.6041 -0.4687
  817MOL0     H 7807   1.908   6.702   4.462  1.3498  1.7004 -2.9120
  817MOL0     H 7808   1.514   6.777   4.361 -3.4162  1.9009 -1.8921
  817MOL0     H 7809   1.330   6.803   4.212  0.5744  1.3911 -0.8621
  817MOL0     H 7810   1.255   6.900   4.026  0.5894 -0.6268 -0.5183
  817MOL0     H 7811   1.160   6.746   4.058 -1.7482  0.5937  0.2626
  817MOL0     H 7812   1.150   6.718   3.804 -0.2988  0.3802 -1.6016
  817MOL0     H 7813   1.240   6.866   3.784 -1.0692  2.0361 -0.0245
  817MOL0     H 7814   1.060   6.998   3.857  1.6323  0.2708 -1.4848
  817MOL0     H 7815   0.984   6.869   3.963 -1.6881  1.5524 -0.5029
  817MOL0     H 7816   0.997   6.859   3.666  2.5966 -2.6287  0.5088
  817MOL0     H 7817   0.926   6.735   3.778 -1.5691 -0.0770  0.9397
  817MOL0     H 7818   0.851   7.022   3.743  0.1432 -0.5574  0.2225
  817MOL0     H 7819   0.769   6.916   3.863  0.8257 -0.9828  0.7057
  817MOL0     H 7820   0.660   6.800   3.690  0.9621 -0.9947 -0.4358
  817MOL0     H 7821   0.781   6.859   3.562 -0.3140  1.8834 -1.0708
  817MOL0     H 7822   0.605   7.057   3.709  0.0407  0.5931  0.4340
  817MOL0     H 7823   0.680   7.066   3.549  1.0017 -0.2981  1.5141
  817MOL0     H 7824   0.423   7.037   3.555  0.5009  0.4939  0.8999
  817MOL0     H 7825   0.448   6.878   3.603 -2.4892  0.9343 -0.8455
  817MOL0     H 7826   1.542   6.626   3.896 -2.5673  1.5200  0.2576
  817MOL0     H 7827   1.727   6.541   4.070  0.3665 -0.3987 -0.5963
  817MOL0     H 7828   1.960   6.273   4.372 -3.2009  0.5697 -0.6560
  817MOL0     H 7829   2.160   6.276   4.511  1.4409  0.2725  1.2394
  817MOL0     H 7830   4.003   6.471   5.069  2.0906 -1.3810  1.4784
  817MOL0     H 7831   4.172   6.301   5.126  0.9591  3.3315 -1.5239
  817MOL0     H 7832   4.303   5.723   5.056 -1.1429  1.3481  0.3612
  817MOL0     H 7833   4.526   5.608   5.066  0.9549 -0.2044 -0.6181
  817MOL0     H 7834   4.727   5.590   5.180  1.4324  1.8104  2.6345
  817MOL0     H 7835   4.895   5.623   5.143  1.7260  3.1045 -2.7377
  817MOL0     H 7836   4.711   5.467   4.954  0.7257 -3.6799 -1.0905
  817MOL0     H 7837   4.866   5.533   4.920 -3.2685  1.8071 -2.0377
  817MOL0     H 7838   4.802   5.333   5.136  0.1054  1.5829  2.6031
  817MOL0     H 7839   4.962   5.413   5.130 -1.1841  1.7416 -0.2156
  817MOL0     H 7840   4.957   5.180   5.015  0.5171  0.2853 -0.2780
  817MOL0     H 7841   4.817   5.251   4.915  0.7125  3.3851 -1.4488
  817MOL0     H 7842   5.132   5.423   4.724  2.3006 -0.9116  1.0010
  817MOL0     H 7843   4.716   5.974   4.951 -0.6185  1.2627 -1.6187
  817MOL0     H 7844   4.498   6.081   4.927  2.1521 -0.2011 -0.3025
  818MOL0     O 7845  10.304   9.287   9.632 -0.0212  0.5977  0.0284
  818MOL0     C 7846  10.341   9.405   9.621 -0.5641  0.8709  0.6884
  818MOL0     O 7847  10.252   9.513   9.626  0.0402  0.2529  0.3941
  818MOL0     C 7848  10.127   9.472   9.646  0.7541 -0.6367  0.5566
  818MOL0     C 7849  10.042   9.504   9.538  0.2763  0.3243 -0.0090
  818MOL0     C 7850   9.906   9.475   9.541 -0.1358 -0.0871  0.1104
  818MOL0     C 7851   9.849   9.410   9.660 -0.5492 -0.2958 -0.0698
  818MOL0     O 7852   9.720   9.367   9.677  0.2727 -0.3681 -0.4188
  818MOL0     C 7853   9.662   9.318   9.560  0.2477  1.1039  0.1308
  818MOL0     C 7854   9.528   9.259   9.592  0.8384 -0.3814 -0.9606
  818MOL0     C 7855   9.428   9.366   9.631  0.2197 -0.7494 -0.0043
  818MOL0     C 7856   9.281   9.322   9.609  0.5425 -0.1928  0.3567
  818MOL0     C 7857   9.180   9.440   9.619 -0.6363  0.7278 -0.6553
  818MOL0     C 7858   9.041   9.380   9.567  0.2994  0.3736 -0.3391
  818MOL0     C 7859   8.936   9.493   9.531  0.1173  0.4967  0.4311
  818MOL0     C 7860   8.807   9.424   9.495 -0.0742  0.1123 -0.4760
  818MOL0     N 7861   8.682   9.507   9.500 -0.2352 -0.3001  0.3030
  818MOL0     C 7862   8.584   9.533   9.602  0.5400 -0.2665  0.2165
  818MOL0     C 7863   8.498   9.617   9.538 -0.5049  0.0424  0.3387
  818MOL0     C 7864   8.368   9.651   9.592 -0.1895 -0.4052 -0.5745
  818MOL0     C 7865   8.257   9.719   9.518  0.0858 -0.0518 -0.4282
  818MOL0     C 7866   8.240   9.684   9.370  0.0666 -0.7842  0.1008
  818MOL0     C 7867   8.201   9.533   9.365 -0.6266  0.0070  0.2999
  818MOL0     O 7868   8.067   9.502   9.421 -0.3941  0.8540  0.0024
  818MOL0     C 7869   7.962   9.567   9.360 -0.9124  0.7426 -0.0162
  818MOL0     C 7870   7.957   9.613   9.224 -0.4193 -0.1089  0.3306
  818MOL0     C 7871   7.840   9.661   9.178  0.7826  0.1048  0.3457
  818MOL0     C 7872   7.724   9.678   9.256  0.3534 -0.1759 -1.4620
  818MOL0     C 7873   7.608   9.756   9.213 -0.6839  0.5878  0.0301
  818MOL0     O 7874   7.513   9.774   9.313 -0.9881  0.4948 -0.1331
  818MOL0     C 7875   7.405   9.855   9.300 -0.1433 -0.0164 -0.4549
  818MOL0     C 7876   7.335   9.878   9.178  0.0050 -0.0179  0.0844
  818MOL0     C 7877   7.228   9.966   9.172  0.6226  0.5408  0.0416
  818MOL0     C 7878   7.183  10.036   9.288 -0.5975  0.5337  0.3296
  818MOL0     O 7879   7.085  10.122   9.280 -0.0708 -0.2361  0.1611
  818MOL0     C 7880   7.034  10.168   9.147 -0.2537 -0.3875  0.5873
  818MOL0     C 7881   6.919  10.271   9.170 -0.0687 -0.0378  0.2399
  818MOL0     C 7882   6.796  10.203   9.225  0.0346  1.4431  0.6555
  818MOL0     C 7883   6.679  10.304   9.232  0.1360  0.8288 -0.0109
  818MOL0     C 7884   6.567  10.230   9.309  0.4631 -0.3307 -0.3555
  818MOL0     C 7885   6.465  10.328   9.352  0.3173 -0.3295  0.2952
  818MOL0     C 7886   6.358  10.260   9.442 -0.0979  0.3157 -0.5778
  818MOL0     C 7887   6.263  10.360   9.508 -0.6551  0.0192 -0.0759
  818MOL0    Cl 7888   6.161  10.447   9.373  0.4694 -0.3646  0.1454
  818MOL0     C 7889   7.255  10.014   9.406 -0.6738 -0.7001 -0.7277
  818MOL0     C 7890   7.360   9.917   9.418  0.0118  0.3413 -0.3425
  818MOL0     O 7891   7.604   9.815   9.105 -0.0289  0.2485 -0.1740
  818MOL0     C 7892   7.732   9.629   9.390 -0.0242  0.9272  0.3357
  818MOL0     C 7893   7.850   9.574   9.450 -0.8369 -0.4405  0.3085
  818MOL0     N 7894   8.548   9.650   9.411  0.1865 -1.0233 -0.1270
  818MOL0     N 7895   8.657   9.581   9.386 -0.3869 -0.4376  0.5113
  818MOL0     C 7896   9.934   9.400   9.773 -0.1916 -0.1172  0.1317
  818MOL0     C 7897  10.070   9.432   9.766  0.0932 -0.5040 -0.4229
  818MOL0     C 7898  10.492   9.425   9.609  0.9361 -0.5768 -0.7832
  818MOL0     C 7899  10.574   9.318   9.586  0.0880 -0.2812 -0.3998
  818MOL0     C 7900  10.714   9.332   9.565 -0.8045  0.4049  0.4491
  818MOL0     C 7901  10.767   9.462   9.557 -0.2191  1.0162 -0.0068
  818MOL0     O 7902  10.909   9.463   9.536 -0.0324 -0.3417 -0.3406
  818MOL0     C 7903  10.960   9.579   9.473 -0.5760 -0.5749 -0.1865
  818MOL0     C 7904  11.113   9.551   9.454  0.2585 -0.7505  0.3561
  818MOL0     C 7905  11.190   9.658   9.366  0.0772 -0.2328 -0.0602
  818MOL0     C 7906  11.136   9.674   9.225  0.0790 -0.3011  0.3726
  818MOL0     C 7907  11.212   9.772   9.148 -0.4768 -0.0535 -0.9294
  818MOL0     C 7908  11.288   9.851   9.092  0.2437 -0.0396 -0.5754
  818MOL0     C 7909  10.689   9.571   9.574  0.0836 -0.3635  0.1596
  818MOL0     C 7910  10.550   9.554   9.599  0.0684 -0.1906  0.1742
  818MOL0     H 7911  10.091   9.540   9.448 -0.8303  0.9664 -0.3728
  818MOL0     H 7912   9.842   9.499   9.458  0.7764  0.0207 -0.5777
  818MOL0     H 7913   9.732   9.244   9.518 -0.1728  0.5680  0.3651
  818MOL0     H 7914   9.644   9.401   9.491  0.8522  1.1185 -0.0236
  818MOL0     H 7915   9.543   9.193   9.679  3.1847  1.0703 -0.1631
  818MOL0     H 7916   9.511   9.211   9.495  0.0637  0.9573 -1.5132
  818MOL0     H 7917   9.456   9.452   9.570  0.5700 -0.5612  0.4137
  818MOL0     H 7918   9.436   9.407   9.732 -1.0783  1.2794 -0.6828
  818MOL0     H 7919   9.259   9.278   9.512  1.0213  1.7421 -0.6751
  818MOL0     H 7920   9.259   9.246   9.684  4.6497 -2.0443 -0.0430
  818MOL0     H 7921   9.215   9.528   9.564  1.4417  0.3428 -0.0165
  818MOL0     H 7922   9.164   9.466   9.724 -0.2905  2.7116 -1.0478
  818MOL0     H 7923   9.013   9.315   9.650  3.5246 -0.3644  0.3113
  818MOL0     H 7924   9.048   9.318   9.477 -1.4008  1.4449 -1.2622
  818MOL0     H 7925   8.905   9.549   9.620  0.9425 -0.2240  1.1909
  818MOL0     H 7926   8.974   9.556   9.450  1.2250  0.4784  0.9184
  818MOL0     H 7927   8.803   9.344   9.569  1.8208  1.8204  1.6319
  818MOL0     H 7928   8.813   9.395   9.390  0.5198 -1.1915 -0.0880
  818MOL0     H 7929   8.553   9.487   9.695 -1.3092  0.8058  0.1896
  818MOL0     H 7930   8.395   9.704   9.684 -1.5615 -1.3614  0.4181
  818MOL0     H 7931   8.332   9.550   9.615 -1.4511 -0.4571 -2.5613
  818MOL0     H 7932   8.276   9.826   9.527  0.5001 -0.1524 -0.1018
  818MOL0     H 7933   8.167   9.701   9.577 -0.3806 -2.0517 -1.6151
  818MOL0     H 7934   8.161   9.747   9.329  0.7219 -1.8253 -3.0395
  818MOL0     H 7935   8.329   9.711   9.313  0.1400  2.5980  1.5826
  818MOL0     H 7936   8.269   9.469   9.422  0.2705  0.2780 -0.4415
  818MOL0     H 7937   8.203   9.505   9.260 -1.2786  2.5649 -0.4635
  818MOL0     H 7938   8.047   9.622   9.164  1.8905  0.0681  3.5624
  818MOL0     H 7939   7.847   9.711   9.082  3.3493  0.9623  0.9033
  818MOL0     H 7940   7.363   9.812   9.096 -0.6700 -1.2142  0.7886
  818MOL0     H 7941   7.181   9.983   9.075  2.7813  0.4574 -1.1002
  818MOL0     H 7942   6.994  10.092   9.080 -1.9155  1.6018 -0.7681
  818MOL0     H 7943   7.114  10.227   9.100 -0.2985 -0.2100  0.7317
  818MOL0     H 7944   6.884  10.311   9.074 -1.3046  0.4704  0.8767
  818MOL0     H 7945   6.948  10.358   9.230 -0.2954  1.5674 -1.8568
  818MOL0     H 7946   6.820  10.162   9.323  2.4579 -1.1391 -0.8818
  818MOL0     H 7947   6.765  10.117   9.165  0.9166  0.5100  1.5065
  818MOL0     H 7948   6.702  10.395   9.287  0.2708  0.5217  0.4454
  818MOL0     H 7949   6.638  10.330   9.134 -0.8768  2.9836  0.9287
  818MOL0     H 7950   6.605  10.188   9.403  0.5773  0.3053 -0.1086
  818MOL0     H 7951   6.523  10.148   9.252  0.0441  0.5859 -1.3799
  818MOL0     H 7952   6.412  10.367   9.265 -0.9167 -0.4848  0.9598
  818MOL0     H 7953   6.509  10.406   9.417  1.3296 -0.2827 -0.4152
  818MOL0     H 7954   6.289  10.191   9.391  1.6690 -1.2030 -1.0244
  818MOL0     H 7955   6.405  10.199   9.520  0.1445  0.8755 -0.2779
  818MOL0     H 7956   6.325  10.436   9.558  0.4705 -1.2121  0.4765
  818MOL0     H 7957   6.199  10.318   9.587 -2.0920  2.1227 -0.0348
  818MOL0     H 7958   7.229  10.083   9.485 -0.5077  0.0108 -1.2898
  818MOL0     H 7959   7.392   9.886   9.517  0.3277 -0.2184 -0.6092
  818MOL0     H 7960   7.642   9.638   9.450 -0.7188 -2.2006 -0.0619
  818MOL0     H 7961   7.853   9.537   9.552 -2.0296 -2.3969 -0.3145
  818MOL0     H 7962   9.898   9.342   9.857  4.3251 -1.9493  1.1084
  818MOL0     H 7963  10.121   9.419   9.861 -1.1695 -1.8758  0.1211
  818MOL0     H 7964  10.535   9.218   9.571  2.4807 -1.5773  1.3927
  818MOL0     H 7965  10.785   9.252   9.549 -0.6773  0.2893  1.5264
  818MOL0     H 7966  10.956   9.663   9.542 -1.9080 -3.3849  3.4960
  818MOL0     H 7967  10.911   9.594   9.376  3.7306  2.8534 -2.1732
  818MOL0     H 7968  11.161   9.559   9.552 -0.6102  0.5997  0.7102
  818MOL0     H 7969  11.121   9.447   9.420  1.4423 -0.5566  0.0013
  818MOL0     H 7970  11.298   9.641   9.369  0.5130  2.2227  0.0414
  818MOL0     H 7971  11.165   9.751   9.417 -5.3428 -1.5341  0.3206
  818MOL0     H 7972  11.132   9.579   9.173  1.1996  0.3901 -1.0374
  818MOL0     H 7973  11.038   9.721   9.220 -0.2707 -1.1609 -2.5472
  818MOL0     H 7974  11.351   9.913   9.031 -1.9547  3.7398  0.6970
  818MOL0     H 7975  10.718   9.675   9.582  0.2275 -0.3916  0.0061
  818MOL0     H 7976  10.488   9.643   9.602 -1.0915 -0.7755 -3.0032
  819MOL0     O 7977   2.615   8.354   9.370  0.7923 -0.3291 -0.3978
  819MOL0     C 7978   2.689   8.319   9.282 -0.0566  0.5955  0.4321
  819MOL0     O 7979   2.660   8.237   9.172 -0.0505 -0.3028 -0.0281
  819MOL0     C 7980   2.524   8.206   9.158 -0.5114  0.4580 -0.7310
  819MOL0     C 7981   2.435   8.291   9.083 -0.3492  0.2559  0.0808
  819MOL0     C 7982   2.297   8.249   9.053 -0.5248 -0.3753 -0.9748
  819MOL0     C 7983   2.251   8.124   9.116  0.4326 -0.1849  1.1372
  819MOL0     O 7984   2.118   8.088   9.096 -0.3150  0.0212 -0.4347
  819MOL0     C 7985   2.111   7.983   8.998 -0.2411  0.3400 -0.3954
  819MOL0     C 7986   1.957   7.950   8.971  0.0170  0.6794 -0.2993
  819MOL0     C 7987   1.928   8.000   8.831  1.1535  0.0353 -0.2192
  819MOL0     C 7988   1.802   7.922   8.775  0.7640 -0.5335 -0.6507
  819MOL0     C 7989   1.752   7.996   8.652 -0.6220  0.7547  0.1165
  819MOL0     C 7990   1.613   7.940   8.624  0.5424 -0.2720 -0.3928
  819MOL0     C 7991   1.541   8.018   8.507 -0.5470 -1.2775  0.2209
  819MOL0     C 7992   1.412   7.959   8.444 -0.5179 -0.1259 -0.6542
  819MOL0     N 7993   1.309   7.951   8.538  0.3580  0.0233  0.3111
  819MOL0     C 7994   1.205   8.034   8.536  0.1123  0.0807  1.2539
  819MOL0     C 7995   1.122   7.966   8.612  0.3862 -0.2178 -1.0442
  819MOL0     C 7996   0.985   8.019   8.633  0.5143 -0.4961  0.0490
  819MOL0     C 7997   0.955   8.096   8.763  0.0119  0.6390  0.1320
  819MOL0     C 7998   1.014   8.234   8.764  0.1696 -1.1706  0.1135
  819MOL0     C 7999   0.980   8.297   8.898 -0.6202 -0.9129 -0.3380
  819MOL0     O 8000   1.017   8.443   8.894 -0.3793  0.4318 -0.5568
  819MOL0     C 8001   1.115   8.476   8.989 -0.2565 -0.2661  0.3604
  819MOL0     C 8002   1.224   8.544   8.942 -0.3164  0.4246  0.4265
  819MOL0     C 8003   1.334   8.570   9.021 -0.3673 -0.6642  0.3113
  819MOL0     C 8004   1.326   8.537   9.156 -0.8293 -0.4100 -0.1935
  819MOL0     C 8005   1.445   8.571   9.241  0.2123  0.1053 -0.8936
  819MOL0     O 8006   1.424   8.547   9.380 -0.2862  0.2925  0.2598
  819MOL0     C 8007   1.501   8.616   9.465  0.2681 -0.4870 -0.4236
  819MOL0     C 8008   1.452   8.722   9.537  0.6145  0.3610 -0.6145
  819MOL0     C 8009   1.538   8.802   9.617 -0.8600 -0.1017  1.2399
  819MOL0     C 8010   1.670   8.766   9.639 -0.1104  0.2182  0.5669
  819MOL0     O 8011   1.760   8.838   9.721 -0.0299  0.0406 -0.6972
  819MOL0     C 8012   1.743   8.971   9.748  0.1413 -0.6586 -0.4398
  819MOL0     C 8013   1.843   9.036   9.835 -0.3767 -0.0568  0.3620
  819MOL0     C 8014   1.981   8.986   9.816 -0.0417 -1.2047  0.0769
  819MOL0     C 8015   2.012   8.990   9.667  0.2613 -0.7248  0.2619
  819MOL0     C 8016   2.159   8.964   9.631 -0.1564 -0.8847  0.4518
  819MOL0     C 8017   2.260   9.071   9.682 -0.3803 -0.7517 -0.1273
  819MOL0     C 8018   2.396   9.052   9.608 -0.4764 -0.3896  0.2669
  819MOL0     C 8019   2.406   9.121   9.476  0.0067 -0.4449 -0.6924
  819MOL0    Cl 8020   2.421   9.297   9.485 -0.0923  0.3623  0.0830
  819MOL0     C 8021   1.722   8.645   9.576 -0.0048  0.4641  0.4659
  819MOL0     C 8022   1.630   8.572   9.497 -0.6113  0.3921  1.1687
  819MOL0     O 8023   1.552   8.617   9.198  0.1375 -0.0270  0.5011
  819MOL0     C 8024   1.218   8.476   9.208  0.9133  0.7837  0.5520
  819MOL0     C 8025   1.112   8.444   9.131  0.5130 -0.9973  0.6305
  819MOL0     N 8026   1.176   7.862   8.678  0.2164 -1.2228 -0.2209
  819MOL0     N 8027   1.294   7.860   8.634 -0.6661 -0.8243 -0.5537
  819MOL0     C 8028   2.347   8.040   9.180  0.1080 -0.1652  0.4048
  819MOL0     C 8029   2.486   8.079   9.190  0.2300 -0.5566 -0.2708
  819MOL0     C 8030   2.823   8.367   9.291 -0.1533  0.6554  0.1385
  819MOL0     C 8031   2.909   8.359   9.405  0.3079 -0.3329  0.9565
  819MOL0     C 8032   3.036   8.418   9.400 -0.1276  0.0494  0.0217
  819MOL0     C 8033   3.082   8.481   9.287 -0.3844  0.1521  0.0564
  819MOL0     O 8034   3.209   8.525   9.287 -0.0913  0.8860 -0.0682
  819MOL0     C 8035   3.269   8.548   9.159 -0.0102 -0.5262 -1.1489
  819MOL0     C 8036   3.413   8.588   9.189  0.7781 -0.5729  0.2351
  819MOL0     C 8037   3.430   8.699   9.292 -0.4023 -0.1039 -0.8103
  819MOL0     C 8038   3.344   8.820   9.262 -0.4830 -1.0913 -0.0293
  819MOL0     C 8039   3.357   8.920   9.367  1.1984  0.3962  0.1203
  819MOL0     C 8040   3.370   9.016   9.438 -0.3741 -0.6814 -0.3168
  819MOL0     C 8041   2.997   8.489   9.178 -0.4339 -0.0232 -0.3800
  819MOL0     C 8042   2.867   8.433   9.184  0.2600 -1.2976 -0.0856
  819MOL0     H 8043   2.476   8.385   9.050 -1.1659  0.4133 -0.5205
  819MOL0     H 8044   2.232   8.320   9.002  0.6435  1.9468  0.5586
  819MOL0     H 8045   2.156   7.893   9.043  0.2511  0.2885 -0.9771
  819MOL0     H 8046   2.169   8.014   8.911  1.3678 -0.3196  0.3846
  819MOL0     H 8047   1.904   8.018   9.038 -1.7455  1.0307 -1.9782
  819MOL0     H 8048   1.937   7.845   8.992  1.4522  0.2064 -1.1378
  819MOL0     H 8049   2.017   7.991   8.769 -0.2562 -1.0035 -2.2395
  819MOL0     H 8050   1.908   8.107   8.835 -2.2829 -0.4278 -1.4535
  819MOL0     H 8051   1.834   7.818   8.759  2.4759 -0.3109  1.0518
  819MOL0     H 8052   1.720   7.943   8.845 -1.7034  1.4543 -3.8456
  819MOL0     H 8053   1.817   7.996   8.564  0.0184  0.7816  0.5837
  819MOL0     H 8054   1.756   8.102   8.677  3.3666  1.1312 -1.3205
  819MOL0     H 8055   1.550   7.963   8.711  0.9704  3.0245 -0.7968
  819MOL0     H 8056   1.613   7.835   8.594 -1.0261 -0.1393 -0.9165
  819MOL0     H 8057   1.517   8.117   8.547 -0.7435 -1.0149 -0.5303
  819MOL0     H 8058   1.603   8.024   8.418 -2.4054 -0.9828 -1.1086
  819MOL0     H 8059   1.447   7.858   8.422 -3.0975 -0.9111 -1.6117
  819MOL0     H 8060   1.373   8.013   8.357 -0.9063  0.9931  0.1854
  819MOL0     H 8061   1.190   8.121   8.472 -0.2060 -1.2949 -0.6186
  819MOL0     H 8062   0.903   7.950   8.608  0.6577 -0.2312 -1.2366
  819MOL0     H 8063   0.976   8.096   8.556 -1.0658  0.8180  1.4589
  819MOL0     H 8064   0.989   8.032   8.844  0.1298  1.4129  0.7019
  819MOL0     H 8065   0.846   8.105   8.768 -0.0694  0.3061 -0.7812
  819MOL0     H 8066   1.121   8.238   8.744  0.1761 -2.1527 -0.1073
  819MOL0     H 8067   0.955   8.287   8.688 -1.1248 -0.7723  1.3436
  819MOL0     H 8068   1.050   8.251   8.968 -1.0984  1.2694  1.6817
  819MOL0     H 8069   0.876   8.295   8.933 -0.2148  1.4032  1.1948
  819MOL0     H 8070   1.247   8.576   8.840 -0.0608  0.3869  0.4713
  819MOL0     H 8071   1.421   8.617   8.977 -0.6847 -0.0806  0.3045
  819MOL0     H 8072   1.350   8.760   9.529 -0.2299 -1.3357  1.1784
  819MOL0     H 8073   1.505   8.890   9.672 -1.6503  0.6361 -0.3410
  819MOL0     H 8074   1.654   8.990   9.807  0.5200 -1.1319  0.2946
  819MOL0     H 8075   1.734   9.031   9.657  1.6680 -0.5415 -0.5415
  819MOL0     H 8076   1.824   9.036   9.943  2.2865 -0.2684  0.8987
  819MOL0     H 8077   1.848   9.142   9.806  1.3508 -0.1900  0.0238
  819MOL0     H 8078   1.995   8.887   9.860  2.3233 -0.6923  0.5963
  819MOL0     H 8079   2.053   9.054   9.863 -0.3756  0.1526 -1.2790
  819MOL0     H 8080   1.967   8.908   9.611  0.0710 -0.0348 -0.6114
  819MOL0     H 8081   1.988   9.084   9.618 -0.3228 -1.1891 -0.3585
  819MOL0     H 8082   2.165   8.952   9.522  1.7133  0.2198  0.3959
  819MOL0     H 8083   2.198   8.871   9.673  1.2972 -0.0155  1.0715
  819MOL0     H 8084   2.263   9.046   9.789  2.9529  0.7261  0.2576
  819MOL0     H 8085   2.214   9.169   9.666 -1.0679 -1.1760 -0.8191
  819MOL0     H 8086   2.478   9.097   9.665  2.1388 -0.5982 -3.0124
  819MOL0     H 8087   2.410   8.944   9.598  2.7890 -0.0071 -0.4199
  819MOL0     H 8088   2.312   9.105   9.422 -1.1888  0.3926  1.0649
  819MOL0     H 8089   2.489   9.083   9.416 -0.5369 -0.4585 -1.4567
  819MOL0     H 8090   1.826   8.617   9.591 -0.1324  0.1619  0.7889
  819MOL0     H 8091   1.663   8.484   9.443 -0.4540  1.2141 -0.1408
  819MOL0     H 8092   1.203   8.448   9.312 -0.3018 -2.5055 -0.3849
  819MOL0     H 8093   1.031   8.388   9.177  0.4203 -2.6550 -1.4171
  819MOL0     H 8094   2.319   7.941   9.212 -1.2088  0.0597 -0.0099
  819MOL0     H 8095   2.555   8.020   9.250  1.9023  2.7276  1.2592
  819MOL0     H 8096   2.868   8.309   9.491 -1.9945  1.8080  1.2197
  819MOL0     H 8097   3.093   8.428   9.491 -0.6088 -0.2318  0.3551
  819MOL0     H 8098   3.217   8.630   9.108  0.7067 -0.6251 -2.0728
  819MOL0     H 8099   3.266   8.457   9.098  1.9453 -1.1048 -0.4525
  819MOL0     H 8100   3.453   8.487   9.205 -1.3710 -2.2289 -3.6066
  819MOL0     H 8101   3.465   8.623   9.099  0.1386  2.0234  0.7862
  819MOL0     H 8102   3.534   8.729   9.305 -0.7739  0.9696 -0.2001
  819MOL0     H 8103   3.421   8.648   9.388  3.8523  0.7330  0.2263
  819MOL0     H 8104   3.383   8.866   9.171 -0.8927 -2.3468 -0.8676
  819MOL0     H 8105   3.241   8.800   9.230 -0.4050 -0.4431 -0.7088
  819MOL0     H 8106   3.397   9.091   9.509  1.5912 -3.5128  2.2324
  819MOL0     H 8107   3.032   8.524   9.082 -1.2010 -1.0971 -1.0641
  819MOL0     H 8108   2.798   8.436   9.100 -0.5136  1.2092  0.5579
  820MOL0     O 8109   5.463   8.822   9.677 -0.2662 -0.4554 -0.4316
  820MOL0     C 8110   5.487   8.704   9.660 -0.1223  0.4615 -0.2760
  820MOL0     O 8111   5.395   8.603   9.640 -0.3307 -0.1982  0.6129
  820MOL0     C 8112   5.265   8.648   9.653 -0.5078 -0.0191 -0.1838
  820MOL0     C 8113   5.203   8.732   9.564 -0.6727 -0.5698  0.2235
  820MOL0     C 8114   5.068   8.758   9.575  0.7951  0.1100  1.0167
  820MOL0     C 8115   4.996   8.708   9.679  0.5912  0.0577 -0.0641
  820MOL0     O 8116   4.856   8.736   9.704  0.2958  0.0759 -0.3208
  820MOL0     C 8117   4.770   8.744   9.595 -0.0739  0.0988 -0.4333
  820MOL0     C 8118   4.629   8.789   9.637 -0.0944  0.1288 -0.3778
  820MOL0     C 8119   4.548   8.666   9.683  0.2144 -0.9146 -0.5206
  820MOL0     C 8120   4.405   8.718   9.710  0.6720  0.3380 -0.3424
  820MOL0     C 8121   4.316   8.595   9.753  1.2357 -0.5663  0.6430
  820MOL0     C 8122   4.185   8.652   9.807 -0.6401  0.5406 -0.5054
  820MOL0     C 8123   4.081   8.538   9.815 -0.1074  0.2484  0.1466
  820MOL0     C 8124   3.942   8.584   9.859 -0.4533 -0.7299 -0.3601
  820MOL0     N 8125   3.855   8.475   9.882  0.3333  0.2406  1.1493
  820MOL0     C 8126   3.856   8.370   9.972 -0.7588 -0.6562 -0.2722
  820MOL0     C 8127   3.741   8.306   9.968 -0.0702 -0.2434  0.8519
  820MOL0     C 8128   3.710   8.186  10.055 -0.0490  0.2625  0.3925
  820MOL0     C 8129   3.558   8.170  10.073  0.2057 -0.4080 -0.6374
  820MOL0     C 8130   3.483   8.256  10.183 -0.1767 -0.2012  0.2379
  820MOL0     C 8131   3.555   8.243  10.317  0.2180  0.2703 -0.2960
  820MOL0     O 8132   3.480   8.279  10.429  0.4403 -0.3196 -0.1015
  820MOL0     C 8133   3.383   8.190  10.477 -0.1522  0.1463 -0.6156
  820MOL0     C 8134   3.309   8.219  10.593  0.1545 -0.2106 -0.1682
  820MOL0     C 8135   3.206   8.141  10.641  1.0707 -0.2337  0.1783
  820MOL0     C 8136   3.162   8.037  10.558  0.5491 -0.3431  1.0539
  820MOL0     C 8137   3.028   7.971  10.579 -0.5243  0.0291  0.3637
  820MOL0     O 8138   2.991   7.882  10.484  0.2432  0.9963  0.1668
  820MOL0     C 8139   2.862   7.831  10.498 -0.1639  0.2016  0.0440
  820MOL0     C 8140   2.853   7.692  10.509 -0.3466 -0.2457 -0.2225
  820MOL0     C 8141   2.729   7.631  10.527 -0.3542  0.0078  0.0956
  820MOL0     C 8142   2.608   7.708  10.541  0.2432  1.0007  0.8770
  820MOL0     O 8143   2.482   7.660  10.577 -0.0328  0.2892 -0.2509
  820MOL0     C 8144   2.468   7.518  10.604 -0.0942  0.1158  0.1942
  820MOL0     C 8145   2.319   7.506  10.613 -0.6971 -0.4419  0.3055
  820MOL0     C 8146   2.268   7.368  10.635  0.7626 -0.4940  0.3727
  820MOL0     C 8147   2.276   7.297  10.500  0.1164 -0.3910 -0.4763
  820MOL0     C 8148   2.272   7.137  10.524 -0.6160  0.0014  0.2502
  820MOL0     C 8149   2.142   7.089  10.585 -0.8543 -0.0238  0.6408
  820MOL0     C 8150   2.148   6.935  10.604  0.2410 -1.4145  0.1468
  820MOL0     C 8151   1.999   6.890  10.631  0.5431 -0.4851 -0.0588
  820MOL0    Cl 8152   1.989   6.710  10.622  0.1185  0.3013  0.2631
  820MOL0     C 8153   2.626   7.846  10.539  0.8084 -0.2897 -0.3663
  820MOL0     C 8154   2.749   7.906  10.522  0.0069 -0.5649  0.8863
  820MOL0     O 8155   2.967   8.003  10.683 -0.4816 -0.0239  0.3574
  820MOL0     C 8156   3.243   7.999  10.447  0.5232 -0.4582 -0.2060
  820MOL0     C 8157   3.348   8.075  10.405 -0.0509 -0.4622 -0.0737
  820MOL0     N 8158   3.670   8.370   9.870  0.3718  0.3740 -0.3067
  820MOL0     N 8159   3.738   8.462   9.817 -0.2861 -0.6970 -0.6537
  820MOL0     C 8160   5.059   8.635   9.777 -0.1022  0.2655 -0.5914
  820MOL0     C 8161   5.191   8.604   9.758  0.1556  0.1992  0.1222
  820MOL0     C 8162   5.631   8.662   9.648 -0.4848 -0.6778 -0.4860
  820MOL0     C 8163   5.658   8.530   9.613 -0.3053 -0.7376 -0.1169
  820MOL0     C 8164   5.792   8.483   9.610 -0.6030 -0.1456 -0.1256
  820MOL0     C 8165   5.898   8.572   9.616 -0.3885  0.6447 -1.0977
  820MOL0     O 8166   6.020   8.515   9.627  0.3295 -0.1088  0.2136
  820MOL0     C 8167   6.130   8.588   9.691  0.2840 -0.1679  1.2792
  820MOL0     C 8168   6.244   8.493   9.733 -0.7328  0.8165  0.6626
  820MOL0     C 8169   6.322   8.425   9.623 -0.5217  0.0750 -0.1609
  820MOL0     C 8170   6.452   8.369   9.681  0.8900 -0.4340  0.1180
  820MOL0     C 8171   6.539   8.316   9.574  0.3291  0.4046 -0.1756
  820MOL0     C 8172   6.621   8.266   9.495 -0.0922  0.2602  0.0777
  820MOL0     C 8173   5.867   8.707   9.636  0.1737  0.7415  0.5358
  820MOL0     C 8174   5.737   8.751   9.658 -0.2958  0.4432 -0.2573
  820MOL0     H 8175   5.268   8.778   9.490  0.2654 -1.5275  0.4339
  820MOL0     H 8176   5.018   8.824   9.504  0.6381 -0.1489  0.8853
  820MOL0     H 8177   4.768   8.644   9.551  2.1160 -2.2841  4.1839
  820MOL0     H 8178   4.812   8.828   9.538  2.5360 -0.7020  0.1839
  820MOL0     H 8179   4.588   8.827   9.543  0.0514 -1.8830 -1.3019
  820MOL0     H 8180   4.630   8.861   9.720 -1.5389 -0.9848  0.6661
  820MOL0     H 8181   4.593   8.632   9.777 -0.9944 -0.5724  0.1936
  820MOL0     H 8182   4.545   8.591   9.603  0.4571 -0.0873 -1.3303
  820MOL0     H 8183   4.406   8.793   9.789 -1.2602 -1.4005  1.4627
  820MOL0     H 8184   4.364   8.770   9.623  0.9215  0.1549 -0.5729
  820MOL0     H 8185   4.368   8.526   9.821  0.3706 -1.2947  0.5764
  820MOL0     H 8186   4.299   8.538   9.662 -2.0078  0.3293  0.5760
  820MOL0     H 8187   4.159   8.735   9.741  1.5658  2.5403  0.9641
  820MOL0     H 8188   4.199   8.708   9.900 -0.5213  0.8369 -0.7012
  820MOL0     H 8189   4.066   8.485   9.721  0.6166  0.4862 -0.1118
  820MOL0     H 8190   4.124   8.482   9.899  2.6138  2.3816  0.3291
  820MOL0     H 8191   3.894   8.642   9.780 -0.4052 -0.0031  0.1284
  820MOL0     H 8192   3.968   8.638   9.951  3.3001 -2.2868 -0.3294
  820MOL0     H 8193   3.944   8.347  10.032  0.2527  2.6359 -0.2892
  820MOL0     H 8194   3.762   8.193  10.151 -1.3312 -0.1451  1.1331
  820MOL0     H 8195   3.756   8.102  10.002  2.1156  0.6822  1.4776
  820MOL0     H 8196   3.537   8.065  10.095 -0.5220  0.5169  4.1196
  820MOL0     H 8197   3.510   8.197   9.978  1.6068 -0.8824 -1.5123
  820MOL0     H 8198   3.474   8.361  10.152 -3.0042 -0.3628  0.2630
  820MOL0     H 8199   3.380   8.222  10.190 -0.2448 -0.0309  0.0717
  820MOL0     H 8200   3.635   8.317  10.306 -2.3837  3.5493  1.1570
  820MOL0     H 8201   3.594   8.141  10.329  0.6662 -0.1094 -3.9752
  820MOL0     H 8202   3.330   8.305  10.655  1.6171 -1.6147  1.4121
  820MOL0     H 8203   3.153   8.181  10.727  0.3243 -1.2790  0.2318
  820MOL0     H 8204   2.943   7.632  10.508 -1.0322 -1.3121  0.2665
  820MOL0     H 8205   2.731   7.523  10.537 -4.5089 -0.4019 -1.5720
  820MOL0     H 8206   2.531   7.496  10.691  1.1178  2.0668 -0.1334
  820MOL0     H 8207   2.502   7.452  10.524 -2.1878 -2.4852  1.3044
  820MOL0     H 8208   2.279   7.550  10.521 -2.7816 -0.2011  1.2578
  820MOL0     H 8209   2.298   7.561  10.706 -0.1963  0.6851 -0.2292
  820MOL0     H 8210   2.170   7.359  10.682  1.1617 -1.1496  1.1163
  820MOL0     H 8211   2.330   7.313  10.707 -0.8015 -0.4345  1.8486
  820MOL0     H 8212   2.190   7.332  10.443 -1.8843  0.7508  2.9889
  820MOL0     H 8213   2.364   7.320  10.438 -0.5160 -0.6143 -1.4944
  820MOL0     H 8214   2.354   7.114  10.594 -0.6429 -0.5548  0.1037
  820MOL0     H 8215   2.283   7.078  10.432  2.1131  0.1117  0.4088
  820MOL0     H 8216   2.062   7.118  10.516  0.8228  2.4719 -0.4189
  820MOL0     H 8217   2.124   7.144  10.677 -2.2688 -1.6170  1.3678
  820MOL0     H 8218   2.183   6.874  10.521  0.2596 -0.4028 -0.6018
  820MOL0     H 8219   2.208   6.915  10.694 -1.9084  1.0829  2.2991
  820MOL0     H 8220   1.931   6.933  10.557 -0.3225 -1.1702  0.3289
  820MOL0     H 8221   1.964   6.930  10.727 -1.1694 -3.1049  0.5141
  820MOL0     H 8222   2.536   7.900  10.568 -0.5415 -2.9793  0.8005
  820MOL0     H 8223   2.769   8.011  10.541  1.4116 -0.5130 -0.7044
  820MOL0     H 8224   3.207   7.914  10.390  2.3382 -1.3688 -0.0423
  820MOL0     H 8225   3.397   8.049  10.311  0.7461 -0.0044  0.2137
  820MOL0     H 8226   4.997   8.611   9.863 -0.6854  0.7011 -0.8844
  820MOL0     H 8227   5.241   8.539   9.831  0.8413 -0.7163 -1.1200
  820MOL0     H 8228   5.578   8.458   9.623 -1.6932  0.7799  0.1712
  820MOL0     H 8229   5.814   8.377   9.615  0.1578  0.0469  1.5498
  820MOL0     H 8230   6.095   8.637   9.783 -0.8422  1.2407  0.1598
  820MOL0     H 8231   6.171   8.666   9.626 -4.1817  1.8157  0.4523
  820MOL0     H 8232   6.310   8.540   9.807  0.0146  0.9728 -0.0894
  820MOL0     H 8233   6.199   8.412   9.791  0.6617 -1.9947 -1.8749
  820MOL0     H 8234   6.345   8.499   9.545  1.3958  0.2390  0.5200
  820MOL0     H 8235   6.265   8.344   9.576 -1.4489  1.2200 -1.0624
  820MOL0     H 8236   6.497   8.456   9.729 -1.6798  0.9484  0.1348
  820MOL0     H 8237   6.441   8.294   9.759  0.3483  1.8731  2.3611
  820MOL0     H 8238   6.697   8.242   9.424 -1.7671 -0.1847 -1.6295
  820MOL0     H 8239   5.943   8.780   9.660 -0.1388  0.9089  1.0161
  820MOL0     H 8240   5.707   8.852   9.684 -1.4798  0.7094 -2.4323
  821MOL0     O 8241   3.485  10.868   5.303  0.1006 -0.3051 -0.4416
  821MOL0     C 8242   3.584  10.947   5.318  0.5714  0.2146  0.3296
  821MOL0     O 8243   3.665  10.948   5.422 -0.1766  0.3263  0.0019
  821MOL0     C 8244   3.650  10.853   5.521 -0.6276 -0.6996 -0.2785
  821MOL0     C 8245   3.756  10.789   5.568  0.7711  0.6665  0.3036
  821MOL0     C 8246   3.742  10.687   5.665  0.1951 -0.9654  0.1984
  821MOL0     C 8247   3.623  10.656   5.726  1.1314 -0.0448  0.0449
  821MOL0     O 8248   3.619  10.558   5.822  0.6060  0.5737  0.0908
  821MOL0     C 8249   3.492  10.504   5.863  0.3145 -1.7337 -0.0627
  821MOL0     C 8250   3.511  10.394   5.966  0.3564  0.0137 -0.4012
  821MOL0     C 8251   3.548  10.262   5.895 -0.2581 -0.5927 -0.6258
  821MOL0     C 8252   3.605  10.153   5.975 -0.9292 -0.2725 -0.4507
  821MOL0     C 8253   3.634  10.029   5.895  0.7678 -0.3092 -0.0872
  821MOL0     C 8254   3.753   9.953   5.935 -0.0063  0.3530 -1.2162
  821MOL0     C 8255   3.733   9.800   5.902 -0.3867  0.0091 -0.4408
  821MOL0     C 8256   3.729   9.758   5.759  0.0029 -0.2992 -0.0735
  821MOL0     N 8257   3.684   9.623   5.756 -0.1496  0.3675  0.1397
  821MOL0     C 8258   3.756   9.503   5.760 -0.5139  0.3703 -0.6252
  821MOL0     C 8259   3.665   9.409   5.774 -0.2882  0.0466  0.1884
  821MOL0     C 8260   3.671   9.262   5.751 -0.4779 -0.4422 -1.1237
  821MOL0     C 8261   3.734   9.229   5.609 -0.3807  0.3395  0.0700
  821MOL0     C 8262   3.654   9.287   5.487 -0.0758  0.4240 -0.4575
  821MOL0     C 8263   3.716   9.267   5.354  0.0446  0.2168  0.1707
  821MOL0     O 8264   3.850   9.323   5.357  0.2241 -0.9660 -0.2264
  821MOL0     C 8265   3.928   9.304   5.248  0.2583 -0.5730 -0.1993
  821MOL0     C 8266   4.052   9.369   5.249  0.8248  0.3021 -1.0401
  821MOL0     C 8267   4.148   9.335   5.158 -0.0178  0.2483 -0.9320
  821MOL0     C 8268   4.121   9.252   5.046 -0.1035  0.1054  0.1340
  821MOL0     C 8269   4.214   9.252   4.925 -0.0469  0.4186 -0.0373
  821MOL0     O 8270   4.321   9.331   4.930  0.1110 -0.0432  0.4673
  821MOL0     C 8271   4.406   9.330   4.826  0.2839  0.3708  0.8665
  821MOL0     C 8272   4.481   9.218   4.799 -0.0395 -0.2773 -0.3500
  821MOL0     C 8273   4.564   9.216   4.690 -0.6496 -0.6871  0.3864
  821MOL0     C 8274   4.575   9.325   4.595  0.5151  0.2993 -0.1030
  821MOL0     O 8275   4.644   9.332   4.481  0.3860 -0.4565  0.0629
  821MOL0     C 8276   4.779   9.285   4.495 -0.1030 -0.4467 -0.1296
  821MOL0     C 8277   4.870   9.340   4.380 -0.2456  0.0806  0.8067
  821MOL0     C 8278   4.820   9.284   4.241 -0.6327 -0.6843 -0.2282
  821MOL0     C 8279   4.889   9.153   4.229 -0.3393  0.3784 -0.4104
  821MOL0     C 8280   5.018   9.160   4.133 -0.4267  0.8655  0.3667
  821MOL0     C 8281   5.055   9.009   4.090 -0.6583 -0.0324 -0.1738
  821MOL0     C 8282   5.187   9.009   4.004 -0.1030 -0.0385 -0.0001
  821MOL0     C 8283   5.254   8.866   4.009  0.2605  0.2684  0.2357
  821MOL0    Cl 8284   5.154   8.756   3.904  0.1298 -0.1409 -0.4683
  821MOL0     C 8285   4.487   9.431   4.605  0.3875 -0.0405 -0.1592
  821MOL0     C 8286   4.407   9.435   4.726 -0.3437 -0.5645  0.1689
  821MOL0     O 8287   4.178   9.179   4.829 -0.4569  0.9673 -0.0357
  821MOL0     C 8288   3.991   9.193   5.048  1.0710  0.0752  0.2378
  821MOL0     C 8289   3.896   9.218   5.145 -0.1990 -0.2029  0.9359
  821MOL0     N 8290   3.541   9.471   5.775  0.7876  0.3747  0.4198
  821MOL0     N 8291   3.556   9.597   5.749  0.1491 -0.1863 -0.4051
  821MOL0     C 8292   3.507  10.726   5.671 -1.0319  0.1557 -0.8748
  821MOL0     C 8293   3.523  10.826   5.578 -0.1076 -0.8417  0.9904
  821MOL0     C 8294   3.607  11.041   5.208 -0.3931  0.2058 -0.6575
  821MOL0     C 8295   3.730  11.107   5.198  0.2078 -0.2828 -0.0748
  821MOL0     C 8296   3.759  11.206   5.100  0.7970  0.6687 -0.6993
  821MOL0     C 8297   3.667  11.239   4.997 -0.7196  0.0744 -0.2219
  821MOL0     O 8298   3.712  11.322   4.893 -0.0324 -0.4774 -1.0987
  821MOL0     C 8299   3.648  11.324   4.770 -1.2324  0.1848  0.3280
  821MOL0     C 8300   3.671  11.194   4.687 -0.0293 -0.6406 -0.0224
  821MOL0     C 8301   3.805  11.132   4.707 -0.1081 -0.4196 -0.5455
  821MOL0     C 8302   3.823  11.014   4.616  0.6306  0.8555 -0.3971
  821MOL0     C 8303   3.951  10.958   4.641 -0.0274  0.7646  0.2224
  821MOL0     C 8304   4.064  10.916   4.650 -0.4615 -0.5327  1.1075
  821MOL0     C 8305   3.542  11.169   5.008 -0.2089  0.2184  0.3567
  821MOL0     C 8306   3.512  11.086   5.115  0.6830  0.5820  0.0854
  821MOL0     H 8307   3.848  10.797   5.512 -0.7622  2.8843 -2.1184
  821MOL0     H 8308   3.829  10.632   5.701  0.4885  0.0392  1.0934
  821MOL0     H 8309   3.449  10.482   5.765  2.5561  3.6225 -2.6484
  821MOL0     H 8310   3.427  10.574   5.918  0.3404 -1.6907 -0.0865
  821MOL0     H 8311   3.422  10.380   6.027  0.9800 -2.8544  0.0116
  821MOL0     H 8312   3.593  10.430   6.029  1.1196 -2.8048  0.3631
  821MOL0     H 8313   3.617  10.282   5.813 -0.1747  0.8430 -0.2460
  821MOL0     H 8314   3.455  10.232   5.847 -0.7572 -1.5165  0.8341
  821MOL0     H 8315   3.695  10.191   6.024  0.7397 -1.0863 -2.7027
  821MOL0     H 8316   3.525  10.144   6.048 -1.2245  0.0367 -0.7310
  821MOL0     H 8317   3.640  10.047   5.787  1.5711 -0.9524 -0.1613
  821MOL0     H 8318   3.547   9.964   5.911  0.8383 -1.1417 -2.5829
  821MOL0     H 8319   3.773   9.966   6.042  4.2085 -3.5476 -1.1834
  821MOL0     H 8320   3.843   9.989   5.883  1.3364 -0.3068  0.5412
  821MOL0     H 8321   3.814   9.741   5.945 -0.1598 -2.1751 -3.5876
  821MOL0     H 8322   3.644   9.766   5.956  0.9904 -2.0881  0.6278
  821MOL0     H 8323   3.822   9.764   5.702 -0.1023 -3.9312 -0.8930
  821MOL0     H 8324   3.651   9.810   5.702  0.7360 -0.9558 -1.7480
  821MOL0     H 8325   3.862   9.487   5.742 -0.4631  1.2727 -1.2131
  821MOL0     H 8326   3.576   9.210   5.767 -0.1253 -0.3603  1.7797
  821MOL0     H 8327   3.736   9.229   5.833 -2.0269  0.6688  0.6542
  821MOL0     H 8328   3.726   9.121   5.595 -0.2238  0.1939  1.0605
  821MOL0     H 8329   3.836   9.266   5.597 -1.4273  2.5994 -3.6216
  821MOL0     H 8330   3.553   9.246   5.485  0.2574 -0.7138  1.7575
  821MOL0     H 8331   3.643   9.393   5.507 -0.2501  0.0502  1.6678
  821MOL0     H 8332   3.662   9.314   5.271 -1.3005  0.4666  1.1579
  821MOL0     H 8333   3.715   9.165   5.314 -1.4586 -0.2007  1.1781
  821MOL0     H 8334   4.070   9.434   5.334 -1.7251  1.1773 -1.0914
  821MOL0     H 8335   4.245   9.384   5.161 -1.0880  2.9006  4.9261
  821MOL0     H 8336   4.473   9.130   4.863 -0.0607  2.2137  3.3554
  821MOL0     H 8337   4.629   9.129   4.681  1.1299  0.4347  1.7395
  821MOL0     H 8338   4.777   9.176   4.491  2.0660 -0.5020 -1.5017
  821MOL0     H 8339   4.820   9.312   4.593 -0.0395 -1.1517  0.0367
  821MOL0     H 8340   4.973   9.313   4.403 -0.4052 -0.0354  1.4129
  821MOL0     H 8341   4.858   9.449   4.387  2.4637  0.4336  0.7735
  821MOL0     H 8342   4.829   9.356   4.159  0.3174 -1.3603 -0.7315
  821MOL0     H 8343   4.715   9.258   4.252 -0.0388 -2.3050  2.9592
  821MOL0     H 8344   4.921   9.114   4.326  0.7816  2.2860  0.0370
  821MOL0     H 8345   4.823   9.076   4.188 -1.1161  0.3322  0.8903
  821MOL0     H 8346   5.105   9.208   4.180  0.4531 -2.8406  3.0065
  821MOL0     H 8347   4.984   9.212   4.043  0.3817 -2.2729 -1.9230
  821MOL0     H 8348   4.975   8.956   4.037 -0.3213 -2.7047  1.7645
  821MOL0     H 8349   5.071   8.957   4.185 -3.0779 -0.2662  0.1769
  821MOL0     H 8350   5.164   9.029   3.899 -1.4917 -0.6130  0.1701
  821MOL0     H 8351   5.262   9.086   4.026 -0.4563  0.3131 -0.0193
  821MOL0     H 8352   5.267   8.837   4.113  1.7035  2.1564  0.6252
  821MOL0     H 8353   5.350   8.861   3.957 -0.0316 -2.5346 -0.1930
  821MOL0     H 8354   4.501   9.511   4.533 -0.8874  0.2797 -0.0776
  821MOL0     H 8355   4.341   9.520   4.740 -0.6131 -0.7411 -0.0353
  821MOL0     H 8356   3.973   9.144   4.953  2.6118 -1.6107  0.7527
  821MOL0     H 8357   3.797   9.178   5.126  0.6029 -1.6893 -0.4363
  821MOL0     H 8358   3.409  10.716   5.718 -0.2383 -0.5295  0.7060
  821MOL0     H 8359   3.436  10.881   5.543  2.1253  1.6089 -1.0579
  821MOL0     H 8360   3.810  11.089   5.269  0.3167  0.2581 -0.0550
  821MOL0     H 8361   3.853  11.259   5.108  0.6017  0.6632  3.9782
  821MOL0     H 8362   3.697  11.403   4.713 -1.6379 -0.0854 -0.4117
  821MOL0     H 8363   3.541  11.348   4.770 -1.4690 -0.5238 -2.1101
  821MOL0     H 8364   3.593  11.124   4.717 -1.5747  1.0149 -0.0457
  821MOL0     H 8365   3.654  11.221   4.582  2.3407  0.2081 -0.2680
  821MOL0     H 8366   3.818  11.101   4.811 -0.7464 -1.2555 -0.7035
  821MOL0     H 8367   3.891  11.195   4.684  1.1548 -2.3905 -1.3646
  821MOL0     H 8368   3.743  10.948   4.652  0.2451  1.6622  0.2482
  821MOL0     H 8369   3.812  11.041   4.510  4.5476 -0.0332 -1.2008
  821MOL0     H 8370   4.167  10.884   4.654  0.2898  1.6899  1.0270
  821MOL0     H 8371   3.456  11.197   4.948 -2.0812 -1.5871  2.0421
  821MOL0     H 8372   3.407  11.056   5.123  0.2599  1.8394 -0.5059
  822MOL0     O 8373   7.413   3.617   6.403  0.1121 -0.4023  0.5329
  822MOL0     C 8374   7.516   3.617   6.336  1.2293 -0.2137  0.2883
  822MOL0     O 8375   7.521   3.651   6.202  0.3943  0.1058 -0.2910
  822MOL0     C 8376   7.396   3.647   6.136  0.1028  0.5381 -0.1752
  822MOL0     C 8377   7.308   3.539   6.136  0.2149 -0.0534  0.0239
  822MOL0     C 8378   7.186   3.560   6.065 -0.2184  0.4204 -0.5808
  822MOL0     C 8379   7.159   3.669   5.991  0.0484  0.0922 -0.3698
  822MOL0     O 8380   7.036   3.668   5.924 -0.3654 -0.0841 -0.3410
  822MOL0     C 8381   6.999   3.795   5.873  0.6309 -0.1461  0.8487
  822MOL0     C 8382   6.864   3.784   5.809  0.0941  0.0813 -0.1147
  822MOL0     C 8383   6.750   3.773   5.906 -0.1536  0.2228 -0.9080
  822MOL0     C 8384   6.624   3.779   5.826 -0.0188 -0.2118 -0.6733
  822MOL0     C 8385   6.491   3.800   5.892 -0.3426 -0.6362 -0.2350
  822MOL0     C 8386   6.376   3.791   5.789  0.9946 -0.5838  0.5570
  822MOL0     C 8387   6.234   3.834   5.832  0.0784  0.2707  0.3627
  822MOL0     C 8388   6.183   3.744   5.941  0.4202 -0.5678  0.1338
  822MOL0     N 8389   6.039   3.757   5.954 -0.2465  0.0107  0.3764
  822MOL0     C 8390   5.956   3.650   5.978 -0.3954 -0.1947  0.6327
  822MOL0     C 8391   5.829   3.704   5.978 -0.3714  0.3331 -0.8518
  822MOL0     C 8392   5.703   3.629   6.005  0.0160  0.2827  0.8926
  822MOL0     C 8393   5.586   3.707   6.065  0.5402  1.0632  1.3686
  822MOL0     C 8394   5.620   3.762   6.202 -0.3502  0.0398  0.9179
  822MOL0     C 8395   5.508   3.845   6.256 -0.2428 -0.3774 -0.5125
  822MOL0     O 8396   5.437   3.755   6.343  0.3748 -0.6654 -0.4340
  822MOL0     C 8397   5.328   3.802   6.419  0.7139 -0.2821 -0.2876
  822MOL0     C 8398   5.257   3.706   6.492  0.5466  0.4697  0.2619
  822MOL0     C 8399   5.137   3.734   6.556  0.3747 -0.7128 -0.3369
  822MOL0     C 8400   5.098   3.867   6.575 -0.4298 -0.6603  0.6234
  822MOL0     C 8401   4.982   3.897   6.664 -0.6671 -0.8668 -0.1582
  822MOL0     O 8402   4.936   4.027   6.667 -0.1713 -0.5886 -0.4613
  822MOL0     C 8403   4.829   4.069   6.746 -0.6100  0.6887  0.8332
  822MOL0     C 8404   4.744   4.166   6.683  0.0637  1.0220 -0.5661
  822MOL0     C 8405   4.624   4.199   6.744 -0.2626 -0.6664  0.7358
  822MOL0     C 8406   4.593   4.147   6.870  0.1623 -0.8365 -0.7888
  822MOL0     O 8407   4.473   4.187   6.919 -0.7669 -0.6451  0.4052
  822MOL0     C 8408   4.447   4.178   7.057 -0.7766  0.1501  0.4071
  822MOL0     C 8409   4.300   4.233   7.079 -1.1561  0.2854 -0.0810
  822MOL0     C 8410   4.187   4.143   7.022 -0.0277 -0.6301 -0.0119
  822MOL0     C 8411   4.050   4.218   7.042 -0.0005 -0.0817  0.4686
  822MOL0     C 8412   3.932   4.128   7.025 -0.5837  0.5229  0.0223
  822MOL0     C 8413   3.916   4.094   6.873  0.3396 -1.6673 -0.9617
  822MOL0     C 8414   3.798   4.000   6.856 -0.6871  1.1943 -0.4231
  822MOL0     C 8415   3.849   3.873   6.797 -0.1330 -0.4819 -0.3022
  822MOL0    Cl 8416   3.721   3.753   6.813 -0.7106  0.4839 -0.2060
  822MOL0     C 8417   4.685   4.067   6.933  0.5207 -0.3173  0.3830
  822MOL0     C 8418   4.803   4.023   6.870 -0.0505 -0.9931  0.3235
  822MOL0     O 8419   4.937   3.801   6.723  0.1151  0.6727 -0.0564
  822MOL0     C 8420   5.175   3.969   6.511  1.2339  0.4489  0.5844
  822MOL0     C 8421   5.278   3.932   6.422  0.9122 -0.7119  0.2085
  822MOL0     N 8422   5.832   3.837   5.958  0.5321  0.2049  0.1596
  822MOL0     N 8423   5.959   3.869   5.941  1.0051 -0.4217  0.2767
  822MOL0     C 8424   7.249   3.776   5.996  0.1970  0.7049 -0.2479
  822MOL0     C 8425   7.373   3.758   6.059  0.8310 -0.0000  0.5884
  822MOL0     C 8426   7.642   3.610   6.412  0.2864 -0.7197 -0.6752
  822MOL0     C 8427   7.662   3.551   6.537  0.0824 -0.5721 -0.1496
  822MOL0     C 8428   7.784   3.553   6.605  0.2882 -0.5200 -0.7384
  822MOL0     C 8429   7.897   3.604   6.544 -1.1421 -0.6632  0.5083
  822MOL0     O 8430   8.027   3.612   6.598  0.7210  0.0885 -0.1846
  822MOL0     C 8431   8.049   3.559   6.726 -0.5759  0.0835  0.6576
  822MOL0     C 8432   8.193   3.599   6.762  0.1413 -0.1218 -0.3285
  822MOL0     C 8433   8.299   3.524   6.683  0.2242 -0.1276 -0.2136
  822MOL0     C 8434   8.438   3.556   6.733  0.6729  0.0231  0.6672
  822MOL0     C 8435   8.539   3.480   6.665  0.7043 -0.6429 -0.2502
  822MOL0     C 8436   8.629   3.417   6.614  0.6124  0.4776 -0.1748
  822MOL0     C 8437   7.880   3.656   6.420  0.5790  0.8759  0.6445
  822MOL0     C 8438   7.758   3.659   6.353 -0.5368  0.6875  0.0469
  822MOL0     H 8439   7.315   3.450   6.197  0.9061  1.7890  2.8004
  822MOL0     H 8440   7.116   3.478   6.078  1.4390 -0.8652  0.5930
  822MOL0     H 8441   7.061   3.815   5.785 -1.6277  0.1065 -0.7793
  822MOL0     H 8442   7.015   3.875   5.946  4.4518 -2.9630  3.5100
  822MOL0     H 8443   6.864   3.693   5.748 -1.0621  0.4373 -0.6925
  822MOL0     H 8444   6.854   3.870   5.741  1.0893  0.7287  0.5407
  822MOL0     H 8445   6.763   3.857   5.975 -0.3828 -0.0261 -0.5615
  822MOL0     H 8446   6.764   3.683   5.966 -3.1242 -0.4416 -1.0783
  822MOL0     H 8447   6.631   3.863   5.755  2.2817 -0.0793 -0.3881
  822MOL0     H 8448   6.614   3.679   5.784 -3.1178 -0.6012  0.7205
  822MOL0     H 8449   6.488   3.899   5.940 -2.5730 -1.1775  0.8952
  822MOL0     H 8450   6.476   3.718   5.963  0.8205 -3.2011 -2.7857
  822MOL0     H 8451   6.368   3.688   5.752 -0.3649  0.9378 -4.0331
  822MOL0     H 8452   6.395   3.853   5.702  0.8914  1.2116  1.7669
  822MOL0     H 8453   6.230   3.938   5.865 -4.4397 -0.2837  2.2629
  822MOL0     H 8454   6.160   3.820   5.753  0.4555 -0.3925  0.1159
  822MOL0     H 8455   6.228   3.786   6.032  0.4406  3.1241 -1.3752
  822MOL0     H 8456   6.211   3.640   5.923 -2.1654 -1.2119 -0.5903
  822MOL0     H 8457   5.983   3.545   5.987 -0.5516 -0.4463 -1.4096
  822MOL0     H 8458   5.730   3.537   6.059 -0.6695  0.0911  0.9188
  822MOL0     H 8459   5.674   3.601   5.903  3.7213  3.2543 -1.2372
  822MOL0     H 8460   5.497   3.644   6.068  1.5208 -0.4894 -0.3890
  822MOL0     H 8461   5.571   3.796   6.003  0.2840  1.2264  1.6614
  822MOL0     H 8462   5.638   3.683   6.275  1.7604  1.9254  2.5568
  822MOL0     H 8463   5.707   3.828   6.203 -0.8557  1.0581 -3.0791
  822MOL0     H 8464   5.437   3.881   6.182 -0.0929  1.1969  0.0780
  822MOL0     H 8465   5.550   3.930   6.309 -0.8859  0.7213 -1.7129
  822MOL0     H 8466   5.290   3.603   6.506 -1.4965  0.0767  3.0488
  822MOL0     H 8467   5.073   3.661   6.605 -0.8336  0.9924  0.7826
  822MOL0     H 8468   4.757   4.209   6.585 -1.6673  0.7343 -0.9474
  822MOL0     H 8469   4.551   4.270   6.707 -1.3405 -1.2361  1.6757
  822MOL0     H 8470   4.523   4.237   7.110 -1.2819  0.5213  0.7282
  822MOL0     H 8471   4.450   4.072   7.082  0.1550  0.2712  0.8826
  822MOL0     H 8472   4.295   4.327   7.024  0.7329  0.9262  0.7462
  822MOL0     H 8473   4.285   4.252   7.186 -1.0608 -1.6610  0.3083
  822MOL0     H 8474   4.189   4.045   7.070  0.7165 -0.2741  0.7006
  822MOL0     H 8475   4.198   4.134   6.914 -2.3666  1.5313 -0.5456
  822MOL0     H 8476   4.040   4.256   7.144  0.2000  0.4088  0.3074
  822MOL0     H 8477   4.051   4.303   6.973 -0.2437  0.1518  0.7484
  822MOL0     H 8478   3.838   4.175   7.053 -1.5820 -1.2274 -0.2972
  822MOL0     H 8479   3.949   4.035   7.080  0.6122 -0.2489 -1.5809
  822MOL0     H 8480   4.007   4.049   6.835  0.9680 -1.5041  0.2997
  822MOL0     H 8481   3.889   4.185   6.818  1.7705 -0.4209  0.3275
  822MOL0     H 8482   3.761   3.985   6.957 -0.3686 -0.2981 -0.5073
  822MOL0     H 8483   3.724   4.051   6.794 -0.8747 -0.2288 -1.4191
  822MOL0     H 8484   3.941   3.855   6.853  0.4282  2.0698 -0.2617
  822MOL0     H 8485   3.877   3.891   6.693 -5.3662  1.4188 -1.7140
  822MOL0     H 8486   4.667   4.028   7.033 -1.1611  1.5138  0.8648
  822MOL0     H 8487   4.872   3.956   6.920 -0.5772 -1.3918  0.5313
  822MOL0     H 8488   5.143   4.072   6.524  0.4556  0.4461 -0.9986
  822MOL0     H 8489   5.319   4.015   6.365 -1.1376  0.4261  0.3157
  822MOL0     H 8490   7.238   3.866   5.936  0.8320  0.8462 -0.1564
  822MOL0     H 8491   7.451   3.830   6.039  1.9835 -1.7468 -1.7191
  822MOL0     H 8492   7.577   3.494   6.574  0.0241  1.0257  2.4982
  822MOL0     H 8493   7.797   3.510   6.704  2.9025  0.6452 -0.5187
  822MOL0     H 8494   8.032   3.451   6.733 -0.7722  0.1043  0.5254
  822MOL0     H 8495   7.980   3.601   6.800 -0.6219  1.1742  0.0271
  822MOL0     H 8496   8.211   3.706   6.749 -0.5762  0.0914  0.3658
  822MOL0     H 8497   8.203   3.576   6.869 -4.6743  1.3476  0.6552
  822MOL0     H 8498   8.284   3.549   6.578  2.5250  0.0294 -0.5406
  822MOL0     H 8499   8.283   3.415   6.683 -2.0382  0.1425  0.4614
  822MOL0     H 8500   8.461   3.663   6.735 -2.0050  0.7121 -0.8137
  822MOL0     H 8501   8.435   3.520   6.836 -2.7430  2.0938  1.4496
  822MOL0     H 8502   8.714   3.366   6.573  2.1203  2.8614 -0.2197
  822MOL0     H 8503   7.967   3.689   6.366 -0.2362  0.5183 -0.9537
  822MOL0     H 8504   7.765   3.709   6.257  0.8270 -1.0106 -0.8033
  823MOL0     O 8505   9.071   2.200   4.975 -0.2764  0.6160  0.3188
  823MOL0     C 8506   9.070   2.083   4.930 -0.3156  0.8252 -0.8904
  823MOL0     O 8507   8.963   2.016   4.867 -0.4895 -0.5421 -0.2006
  823MOL0     C 8508   8.851   2.089   4.842 -0.5016 -1.1952 -0.2803
  823MOL0     C 8509   8.790   2.068   4.716 -0.3979 -0.1534 -0.0087
  823MOL0     C 8510   8.666   2.131   4.685  0.4523 -0.0069 -0.9130
  823MOL0     C 8511   8.605   2.224   4.771 -0.2849 -0.7973  0.5322
  823MOL0     O 8512   8.489   2.288   4.730 -0.4271  0.1737 -0.3493
  823MOL0     C 8513   8.435   2.407   4.800  0.3539  0.3657  0.1463
  823MOL0     C 8514   8.332   2.476   4.698 -0.4902 -0.1179  0.1303
  823MOL0     C 8515   8.196   2.399   4.687  0.8710  0.2227  0.1025
  823MOL0     C 8516   8.079   2.472   4.613 -0.4195  0.3325  0.2264
  823MOL0     C 8517   7.953   2.389   4.645  0.2809  0.1555 -0.1204
  823MOL0     C 8518   7.863   2.405   4.529 -0.3345 -0.3115 -0.4191
  823MOL0     C 8519   7.719   2.358   4.545 -0.0181 -0.2277  0.1456
  823MOL0     C 8520   7.646   2.328   4.419 -0.7304 -0.7026  0.3572
  823MOL0     N 8521   7.496   2.312   4.434 -0.4827  0.8043  0.5387
  823MOL0     C 8522   7.394   2.378   4.364 -0.0383 -0.0599 -0.6933
  823MOL0     C 8523   7.287   2.304   4.395 -0.3885 -0.5090  0.2610
  823MOL0     C 8524   7.141   2.315   4.354  0.0930 -0.7664  0.0908
  823MOL0     C 8525   7.101   2.193   4.266 -0.5259 -0.4703  0.4034
  823MOL0     C 8526   7.034   2.082   4.344  0.2404  0.0209  0.6122
  823MOL0     C 8527   7.019   1.967   4.239  0.3156  0.7229  0.0513
  823MOL0     O 8528   6.937   1.865   4.307  0.0966 -0.8205 -0.2245
  823MOL0     C 8529   6.801   1.859   4.302 -0.0983  0.0379 -0.2939
  823MOL0     C 8530   6.711   1.944   4.238 -0.1466 -0.3173  0.9111
  823MOL0     C 8531   6.575   1.918   4.239 -0.1755 -0.5261 -0.0724
  823MOL0     C 8532   6.512   1.807   4.309 -0.4570 -0.9797  0.5668
  823MOL0     C 8533   6.365   1.787   4.317  0.0429  0.5495  0.9798
  823MOL0     O 8534   6.316   1.738   4.433 -0.1350 -0.3124 -0.9857
  823MOL0     C 8535   6.178   1.740   4.454  0.2237  0.9493  0.5878
  823MOL0     C 8536   6.097   1.670   4.370  0.2525 -0.3592 -0.2473
  823MOL0     C 8537   5.953   1.668   4.390 -0.3877  0.9853  0.0053
  823MOL0     C 8538   5.894   1.735   4.493  0.2499 -0.9766 -0.3227
  823MOL0     O 8539   5.760   1.728   4.522 -0.0663 -0.5068 -0.5002
  823MOL0     C 8540   5.672   1.690   4.423 -0.0378 -0.1826  0.1547
  823MOL0     C 8541   5.527   1.735   4.449 -0.0899 -0.4397  0.4383
  823MOL0     C 8542   5.431   1.687   4.332  0.5365 -0.3985 -0.1004
  823MOL0     C 8543   5.285   1.748   4.347 -0.2296  0.5357 -0.2282
  823MOL0     C 8544   5.182   1.667   4.255 -0.3700 -0.2898 -0.0698
  823MOL0     C 8545   5.043   1.720   4.277  0.1508  0.8160 -0.1315
  823MOL0     C 8546   4.937   1.633   4.210 -0.5167 -1.3247  0.3795
  823MOL0     C 8547   4.820   1.717   4.168  0.4901 -0.5858 -0.1984
  823MOL0    Cl 8548   4.708   1.772   4.299  0.1633  0.0272  0.3248
  823MOL0     C 8549   5.976   1.803   4.581 -0.9661 -0.4072 -0.8112
  823MOL0     C 8550   6.117   1.808   4.562 -0.3959  0.5841  0.5405
  823MOL0     O 8551   6.296   1.832   4.220  0.8612 -0.1147  0.0288
  823MOL0     C 8552   6.601   1.729   4.375  0.1238  0.9440 -0.1031
  823MOL0     C 8553   6.741   1.752   4.375  0.3158  0.3685  0.2408
  823MOL0     N 8554   7.320   2.198   4.476  0.3222 -0.1599  0.0041
  823MOL0     N 8555   7.441   2.210   4.501  0.4180 -0.3723 -0.0521
  823MOL0     C 8556   8.673   2.251   4.889 -0.0829 -0.3049  0.8937
  823MOL0     C 8557   8.790   2.180   4.926  0.3634  0.6867  0.1167
  823MOL0     C 8558   9.191   1.999   4.938 -0.5471  0.4355 -0.3745
  823MOL0     C 8559   9.210   1.882   4.854  0.6864 -0.3503 -0.1723
  823MOL0     C 8560   9.321   1.809   4.872  0.0616 -0.1253  0.1870
  823MOL0     C 8561   9.425   1.840   4.957  0.4241 -0.3893  0.2868
  823MOL0     O 8562   9.542   1.764   4.941  0.6766 -1.1058  0.0840
  823MOL0     C 8563   9.640   1.782   5.041 -0.1131  0.3578 -0.3251
  823MOL0     C 8564   9.601   1.745   5.187  0.5185 -0.3277 -0.5587
  823MOL0     C 8565   9.695   1.801   5.289 -0.1472  0.2040 -0.3851
  823MOL0     C 8566   9.842   1.788   5.242 -0.5345  0.2002 -0.8916
  823MOL0     C 8567   9.924   1.784   5.367  0.3008 -0.9188  0.7808
  823MOL0     C 8568   9.980   1.799   5.472  0.3941  0.2730 -0.7330
  823MOL0     C 8569   9.410   1.963   5.029  0.2535  0.6898  0.0959
  823MOL0     C 8570   9.295   2.037   5.027  0.8013 -0.1884  0.1222
  823MOL0     H 8571   8.822   1.998   4.639 -0.0883 -0.3494  0.2939
  823MOL0     H 8572   8.623   2.113   4.586 -1.6420  2.2351 -0.5112
  823MOL0     H 8573   8.516   2.476   4.826 -0.8788  2.8667 -2.1688
  823MOL0     H 8574   8.373   2.385   4.887 -0.2220 -0.1270 -0.3761
  823MOL0     H 8575   8.392   2.484   4.607  0.9667 -1.5782  0.9046
  823MOL0     H 8576   8.307   2.577   4.732  1.0343 -0.0542  1.1770
  823MOL0     H 8577   8.173   2.364   4.788  0.1074 -2.3146 -0.8608
  823MOL0     H 8578   8.224   2.307   4.635  4.9956 -0.3050  2.7278
  823MOL0     H 8579   8.055   2.578   4.624 -1.0709  0.8223 -4.1276
  823MOL0     H 8580   8.099   2.465   4.506 -0.5917  0.2281  0.2005
  823MOL0     H 8581   7.901   2.420   4.736  0.0282 -1.9894  0.5385
  823MOL0     H 8582   7.976   2.282   4.654 -0.6554 -0.1339 -1.0612
  823MOL0     H 8583   7.913   2.354   4.447  0.4607  0.1565 -0.2401
  823MOL0     H 8584   7.869   2.514   4.514  1.5418  0.1655  2.7378
  823MOL0     H 8585   7.720   2.270   4.609 -1.5435  0.5057  1.2606
  823MOL0     H 8586   7.667   2.437   4.601  1.4664  0.0361  1.2088
  823MOL0     H 8587   7.701   2.242   4.379 -0.8365 -1.5058  1.8360
  823MOL0     H 8588   7.664   2.411   4.351  0.2595 -0.4720  0.8822
  823MOL0     H 8589   7.405   2.462   4.296 -1.0182  1.5528  1.0546
  823MOL0     H 8590   7.138   2.407   4.295  2.5110  1.2642  2.8186
  823MOL0     H 8591   7.075   2.349   4.434 -2.0393  1.8197 -2.5359
  823MOL0     H 8592   7.196   2.154   4.228  1.4496  3.3244  0.9673
  823MOL0     H 8593   7.034   2.221   4.185 -0.4680 -1.7470 -0.1196
  823MOL0     H 8594   7.086   2.045   4.433 -0.0214 -1.2350  0.2610
  823MOL0     H 8595   6.933   2.120   4.361 -1.7401 -3.1859 -2.6450
  823MOL0     H 8596   7.116   1.917   4.231  0.0555 -0.1605  1.7840
  823MOL0     H 8597   6.980   1.992   4.140 -1.3066 -0.8507  0.2459
  823MOL0     H 8598   6.749   2.030   4.184  0.9159 -0.2654  1.7284
  823MOL0     H 8599   6.512   1.984   4.180  2.1933  0.1485 -2.0133
  823MOL0     H 8600   6.142   1.620   4.284 -0.4758 -2.2733  0.4442
  823MOL0     H 8601   5.893   1.611   4.320  0.4395 -1.0440  0.8935
  823MOL0     H 8602   5.677   1.584   4.396 -4.4098 -0.1576 -1.6306
  823MOL0     H 8603   5.690   1.745   4.330 -2.5019  1.9749  0.8294
  823MOL0     H 8604   5.520   1.844   4.452 -1.8590 -0.4731 -0.6285
  823MOL0     H 8605   5.496   1.694   4.546  1.7686 -0.0431  1.2349
  823MOL0     H 8606   5.414   1.580   4.340 -3.2253  0.0915  0.3106
  823MOL0     H 8607   5.476   1.718   4.237 -1.4822  1.4220 -0.5588
  823MOL0     H 8608   5.244   1.746   4.448 -0.0639  0.7337 -0.1577
  823MOL0     H 8609   5.296   1.853   4.321  2.8755  0.2648 -0.3627
  823MOL0     H 8610   5.183   1.562   4.285 -0.2367  0.0641  1.2435
  823MOL0     H 8611   5.212   1.677   4.150 -0.8223 -0.8801 -0.2589
  823MOL0     H 8612   5.034   1.826   4.254 -0.5606  0.9672  0.7719
  823MOL0     H 8613   5.022   1.712   4.384 -0.9786 -0.8324 -0.4343
  823MOL0     H 8614   4.978   1.586   4.120  1.3433 -0.1646  0.5711
  823MOL0     H 8615   4.897   1.558   4.279 -3.8502 -0.2541 -0.2395
  823MOL0     H 8616   4.761   1.654   4.101  0.1904  0.7368 -1.2063
  823MOL0     H 8617   4.840   1.801   4.101 -2.8223 -2.1852 -3.5960
  823MOL0     H 8618   5.943   1.846   4.675  3.3639  0.7317  0.4239
  823MOL0     H 8619   6.179   1.854   4.637 -0.4511  1.4206  0.0784
  823MOL0     H 8620   6.569   1.635   4.419 -0.3138  1.6879  1.2374
  823MOL0     H 8621   6.801   1.673   4.418  0.0270 -0.1905 -0.3645
  823MOL0     H 8622   8.637   2.323   4.963 -0.7759  0.5242 -0.2169
  823MOL0     H 8623   8.833   2.202   5.024  2.0257 -0.5921 -0.2634
  823MOL0     H 8624   9.131   1.861   4.782  1.7000 -1.4359 -1.0048
  823MOL0     H 8625   9.343   1.722   4.811  0.6513  0.4802 -0.4832
  823MOL0     H 8626   9.682   1.883   5.037  1.1334 -0.1697 -1.5966
  823MOL0     H 8627   9.725   1.717   5.019 -1.3251 -0.7020 -2.1532
  823MOL0     H 8628   9.501   1.782   5.213 -1.1248 -3.7966 -1.2885
  823MOL0     H 8629   9.587   1.636   5.190 -1.5218 -0.1097  2.6722
  823MOL0     H 8630   9.683   1.748   5.384 -1.3788 -1.6021 -1.4863
  823MOL0     H 8631   9.679   1.907   5.312  3.2528  0.6506  0.5064
  823MOL0     H 8632   9.863   1.690   5.200  0.5495  0.2488 -0.4976
  823MOL0     H 8633   9.872   1.877   5.187  2.7952  0.7453  1.4724
  823MOL0     H 8634  10.025   1.821   5.567 -0.0235 -2.3373  0.1666
  823MOL0     H 8635   9.489   2.008   5.088 -0.3107  2.1127 -0.1816
  823MOL0     H 8636   9.279   2.122   5.094  0.1670 -0.8804  0.8720
  824MOL0     O 8637   3.322   4.304   7.163 -0.7326 -0.4069 -0.4116
  824MOL0     C 8638   3.391   4.403   7.196 -0.1395 -0.9212 -0.2567
  824MOL0     O 8639   3.354   4.526   7.203  1.0176 -0.3029  0.4307
  824MOL0     C 8640   3.221   4.548   7.176 -0.1228 -0.7981  0.1598
  824MOL0     C 8641   3.181   4.538   7.042  0.3552  0.7578  0.5396
  824MOL0     C 8642   3.052   4.598   7.006 -0.6918 -0.2441 -0.7303
  824MOL0     C 8643   2.968   4.653   7.099 -0.4262 -0.6101  0.1922
  824MOL0     O 8644   2.867   4.735   7.049 -0.8218 -0.7348 -0.0781
  824MOL0     C 8645   2.746   4.709   7.108  0.7387 -0.3716 -0.1504
  824MOL0     C 8646   2.654   4.824   7.092 -0.3063  0.2016 -0.0605
  824MOL0     C 8647   2.677   4.943   7.182 -0.6847  0.6783  0.8674
  824MOL0     C 8648   2.562   5.046   7.185  0.2600 -0.0793 -0.4486
  824MOL0     C 8649   2.579   5.151   7.294 -0.0724 -0.8710 -0.5357
  824MOL0     C 8650   2.453   5.226   7.346  0.8987  0.1144 -0.1599
  824MOL0     C 8651   2.489   5.333   7.449  0.5817  0.0551  0.4642
  824MOL0     C 8652   2.373   5.432   7.455 -0.2737  0.5134  0.5900
  824MOL0     N 8653   2.269   5.391   7.548 -0.1397 -0.5780 -0.2060
  824MOL0     C 8654   2.285   5.398   7.683  0.0323 -0.0386  0.0174
  824MOL0     C 8655   2.166   5.358   7.728  0.8109 -0.1444 -0.4525
  824MOL0     C 8656   2.134   5.327   7.868  0.1096 -0.3431 -0.7222
  824MOL0     C 8657   2.168   5.179   7.900 -0.4172 -0.0245 -0.2031
  824MOL0     C 8658   2.046   5.088   7.868  0.3099 -0.0734  0.0580
  824MOL0     C 8659   2.094   4.952   7.886  0.5088 -0.6101  0.0619
  824MOL0     O 8660   2.087   4.900   8.021  0.6256  0.2358 -0.8691
  824MOL0     C 8661   1.977   4.854   8.081  0.7597  0.7291  0.3109
  824MOL0     C 8662   1.992   4.756   8.182 -0.3280 -0.0400  0.1385
  824MOL0     C 8663   1.878   4.696   8.231  0.0066 -0.1872 -0.1973
  824MOL0     C 8664   1.747   4.724   8.186 -0.1821 -0.1947  0.5339
  824MOL0     C 8665   1.643   4.622   8.225  0.7111 -0.1510  0.7036
  824MOL0     O 8666   1.527   4.641   8.154 -0.8647  0.3587  0.1114
  824MOL0     C 8667   1.419   4.567   8.181 -0.0889  1.2285 -0.2222
  824MOL0     C 8668   1.351   4.585   8.302 -0.3810  0.3384 -0.1307
  824MOL0     C 8669   1.226   4.526   8.329 -0.1807 -0.1374  1.0607
  824MOL0     C 8670   1.162   4.453   8.225 -0.4044  0.1948 -0.1202
  824MOL0     O 8671   1.033   4.406   8.252 -0.2398  0.0453 -0.7664
  824MOL0     C 8672   0.941   4.366   8.155  0.0989  0.4979 -0.4679
  824MOL0     C 8673   0.807   4.309   8.209  0.6210 -0.5841 -0.4384
  824MOL0     C 8674   0.746   4.401   8.322 -0.4090  1.0822  0.0754
  824MOL0     C 8675   0.630   4.321   8.385 -0.0478 -0.6167  0.7504
  824MOL0     C 8676   0.583   4.403   8.501  0.3918  0.0705 -0.3344
  824MOL0     C 8677   0.463   4.340   8.563 -0.0914 -0.1431  0.5646
  824MOL0     C 8678   0.422   4.406   8.691  0.6499  0.1025  0.2034
  824MOL0     C 8679   0.504   4.382   8.811  0.0150 -0.1809  0.4499
  824MOL0    Cl 8680   0.432   4.274   8.935 -0.6059  0.3230 -0.3095
  824MOL0     C 8681   1.227   4.430   8.108 -1.1041 -0.4477  0.2600
  824MOL0     C 8682   1.357   4.488   8.090  0.5595 -0.4227  0.1083
  824MOL0     O 8683   1.662   4.543   8.316  0.2119 -0.7023 -0.1273
  824MOL0     C 8684   1.731   4.823   8.092 -0.3128  0.2664 -0.4499
  824MOL0     C 8685   1.844   4.885   8.043 -0.0634  0.3843  0.2278
  824MOL0     N 8686   2.084   5.334   7.619 -0.1354 -0.0308  0.1833
  824MOL0     N 8687   2.149   5.348   7.510 -0.5921 -0.5478  0.5307
  824MOL0     C 8688   2.999   4.634   7.233  0.5989 -0.2161 -0.5492
  824MOL0     C 8689   3.126   4.583   7.273 -0.3644 -0.2048  0.2918
  824MOL0     C 8690   3.531   4.384   7.255 -0.4650  0.2211 -0.4539
  824MOL0     C 8691   3.585   4.256   7.269  0.1235  0.0758 -0.4277
  824MOL0     C 8692   3.719   4.243   7.307 -0.4671  0.5693  0.5289
  824MOL0     C 8693   3.803   4.349   7.340  0.1117  0.0741 -0.4693
  824MOL0     O 8694   3.930   4.350   7.385 -0.1376  0.3286 -0.5087
  824MOL0     C 8695   3.990   4.227   7.419 -0.1021 -0.0621  0.4529
  824MOL0     C 8696   3.921   4.177   7.545 -0.4092 -1.0338  0.0850
  824MOL0     C 8697   4.003   4.064   7.603 -0.0816 -0.1559 -0.1112
  824MOL0     C 8698   3.910   3.982   7.697 -0.5858 -0.6956  0.8641
  824MOL0     C 8699   3.981   3.880   7.772 -0.3507  0.1531 -0.2356
  824MOL0     C 8700   4.042   3.795   7.833  0.5211 -0.1065 -0.8147
  824MOL0     C 8701   3.742   4.476   7.330 -0.6649 -0.1130 -0.4100
  824MOL0     C 8702   3.613   4.494   7.285  0.2106  0.3368 -0.5985
  824MOL0     H 8703   3.249   4.499   6.967  0.1319 -0.3080  0.8777
  824MOL0     H 8704   3.024   4.606   6.902 -1.3192  1.4388 -0.4725
  824MOL0     H 8705   2.750   4.686   7.215  0.9432 -1.5355 -0.3876
  824MOL0     H 8706   2.698   4.624   7.058 -0.6207  0.6654 -0.6791
  824MOL0     H 8707   2.553   4.792   7.117 -0.4033 -2.3466 -3.0802
  824MOL0     H 8708   2.663   4.846   6.985  2.3778  0.8070  0.2036
  824MOL0     H 8709   2.768   4.994   7.150 -1.0003  2.4798  2.6723
  824MOL0     H 8710   2.695   4.907   7.284  1.7485  1.4980  0.7857
  824MOL0     H 8711   2.559   5.084   7.082 -0.1867 -0.5789 -0.6224
  824MOL0     H 8712   2.468   4.996   7.209 -0.2243  0.3556 -1.3507
  824MOL0     H 8713   2.641   5.229   7.249  0.4257 -1.0635 -0.1882
  824MOL0     H 8714   2.635   5.107   7.377  1.6204  1.6727 -0.2073
  824MOL0     H 8715   2.395   5.144   7.389 -1.3509  1.2303 -0.8664
  824MOL0     H 8716   2.391   5.266   7.265  0.8173  0.0407 -0.1343
  824MOL0     H 8717   2.524   5.299   7.546  0.3573 -0.1143  0.4863
  824MOL0     H 8718   2.571   5.384   7.397 -0.1811 -1.3584 -2.3449
  824MOL0     H 8719   2.332   5.455   7.357 -0.8395 -2.8558 -0.0653
  824MOL0     H 8720   2.423   5.526   7.481  0.5963 -0.0170  0.8920
  824MOL0     H 8721   2.372   5.422   7.744 -0.2225 -1.0918  0.8180
  824MOL0     H 8722   2.026   5.337   7.883 -0.0996 -0.1432 -2.1980
  824MOL0     H 8723   2.178   5.404   7.932 -2.2628  0.4258  0.0797
  824MOL0     H 8724   2.189   5.173   8.007 -1.0426  0.4373 -0.0477
  824MOL0     H 8725   2.253   5.136   7.847 -3.6748 -3.2225 -3.3547
  824MOL0     H 8726   1.965   5.113   7.937  2.8994  2.0255  2.6091
  824MOL0     H 8727   2.014   5.103   7.765 -0.4816 -2.2418 -0.0600
  824MOL0     H 8728   2.199   4.948   7.854  0.0981  0.1250 -1.4667
  824MOL0     H 8729   2.031   4.891   7.823 -0.3367 -1.0489  1.2989
  824MOL0     H 8730   2.089   4.744   8.229 -0.8042  0.4902  1.2952
  824MOL0     H 8731   1.889   4.608   8.293 -1.1446 -2.7053 -3.3060
  824MOL0     H 8732   1.389   4.655   8.376 -0.9003  1.0827 -0.5524
  824MOL0     H 8733   1.173   4.545   8.422 -1.5329 -0.1742  0.3257
  824MOL0     H 8734   0.986   4.283   8.101  0.9716  1.5023 -1.3409
  824MOL0     H 8735   0.919   4.450   8.088 -1.3340 -0.5892 -1.4220
  824MOL0     H 8736   0.828   4.208   8.245 -1.3820 -0.8858  0.0436
  824MOL0     H 8737   0.729   4.314   8.132 -0.6706 -0.8895  0.8061
  824MOL0     H 8738   0.715   4.501   8.291  1.4265  2.2034  1.6530
  824MOL0     H 8739   0.819   4.412   8.402  0.9596 -1.0685 -0.8033
  824MOL0     H 8740   0.556   4.306   8.305  0.5920  1.3553 -0.2742
  824MOL0     H 8741   0.657   4.219   8.413 -1.4702 -1.4352 -0.6519
  824MOL0     H 8742   0.562   4.507   8.476  1.7296  0.5295  0.3539
  824MOL0     H 8743   0.662   4.400   8.577 -1.3593 -1.6676  1.5461
  824MOL0     H 8744   0.478   4.231   8.566  2.1032  0.0919  0.0439
  824MOL0     H 8745   0.381   4.361   8.494  1.0834 -2.4966 -1.7470
  824MOL0     H 8746   0.416   4.513   8.673 -0.7495  0.0736  0.3996
  824MOL0     H 8747   0.318   4.375   8.704  0.3747  1.1156  0.4267
  824MOL0     H 8748   0.521   4.478   8.862 -1.1666 -0.7919  2.0686
  824MOL0     H 8749   0.600   4.341   8.778  0.8232  1.7344  0.2552
  824MOL0     H 8750   1.183   4.380   8.023  0.0494 -0.5220 -0.3208
  824MOL0     H 8751   1.417   4.472   8.001  0.2135 -2.3637  0.1989
  824MOL0     H 8752   1.632   4.841   8.050  0.1066  2.3692 -0.6497
  824MOL0     H 8753   1.834   4.950   7.957  1.1468 -0.4004 -0.5430
  824MOL0     H 8754   2.945   4.672   7.319 -0.2358  0.1182 -1.2067
  824MOL0     H 8755   3.157   4.578   7.376 -2.6171 -2.2467  0.9716
  824MOL0     H 8756   3.533   4.163   7.246  1.5776 -0.2905 -2.4836
  824MOL0     H 8757   3.746   4.138   7.319 -2.6936  0.0937  1.9892
  824MOL0     H 8758   4.097   4.242   7.433 -0.3704  2.3840  0.3683
  824MOL0     H 8759   3.978   4.153   7.339  0.5075  1.3968 -1.0377
  824MOL0     H 8760   3.912   4.258   7.617 -0.2167 -0.9968  0.0682
  824MOL0     H 8761   3.819   4.138   7.535 -0.7325 -0.4312  0.9811
  824MOL0     H 8762   4.076   4.113   7.668 -0.3775  0.9948 -0.6225
  824MOL0     H 8763   4.065   4.007   7.533 -2.1808 -0.7188 -1.6216
  824MOL0     H 8764   3.858   4.048   7.767 -0.4257 -1.1406  1.4084
  824MOL0     H 8765   3.833   3.934   7.636 -1.3317 -0.3367  1.4998
  824MOL0     H 8766   4.089   3.720   7.893  0.8069 -0.3423 -1.3276
  824MOL0     H 8767   3.804   4.564   7.344 -1.4661  0.6617 -1.5963
  824MOL0     H 8768   3.584   4.598   7.270 -0.7998 -0.0621 -1.5473
  825MOL0     O 8769   0.681   1.971   0.354  0.3319 -0.1838 -0.3807
  825MOL0     C 8770   0.637   1.927   0.459  0.1822  0.3140  1.3728
  825MOL0     O 8771   0.709   1.888   0.564 -0.2054  0.3371  0.3876
  825MOL0     C 8772   0.837   1.930   0.572  0.5330  0.3389  0.6480
  825MOL0     C 8773   0.936   1.853   0.510  0.5994  0.6576  0.0989
  825MOL0     C 8774   1.067   1.890   0.529 -0.8938 -0.0012 -0.3810
  825MOL0     C 8775   1.109   2.014   0.582 -0.0704 -0.3177 -0.5272
  825MOL0     O 8776   1.234   2.069   0.598 -0.1033  0.1112 -0.0439
  825MOL0     C 8777   1.343   1.993   0.570 -0.4107  0.7371 -0.2168
  825MOL0     C 8778   1.468   2.054   0.637  0.6690  0.2736  0.2410
  825MOL0     C 8779   1.592   2.022   0.556  0.7654  0.3203  0.0679
  825MOL0     C 8780   1.724   2.054   0.632  1.2399  0.5180 -0.3233
  825MOL0     C 8781   1.834   1.980   0.560  0.8513 -0.5239 -0.0118
  825MOL0     C 8782   1.971   2.017   0.619 -0.0324 -0.3413  0.0495
  825MOL0     C 8783   2.001   2.005   0.772  0.1094 -0.6658 -0.2167
  825MOL0     C 8784   2.018   1.864   0.826 -0.5822 -0.4307  0.1623
  825MOL0     N 8785   1.886   1.792   0.847  0.1845 -0.1961  0.4028
  825MOL0     C 8786   1.842   1.690   0.770 -0.7260 -0.0230 -0.5146
  825MOL0     C 8787   1.727   1.649   0.823 -0.8764 -0.6804  0.0885
  825MOL0     C 8788   1.630   1.540   0.781 -0.2865  0.1523  1.2136
  825MOL0     C 8789   1.489   1.604   0.732  0.0262 -0.9551 -0.7048
  825MOL0     C 8790   1.394   1.666   0.835  0.2325 -0.3326 -0.0529
  825MOL0     C 8791   1.335   1.567   0.942  0.2995  0.0622  0.7215
  825MOL0     O 8792   1.266   1.451   0.887  0.2558 -0.1367 -0.0947
  825MOL0     C 8793   1.134   1.461   0.848 -0.4357 -0.4570  0.1370
  825MOL0     C 8794   1.064   1.587   0.837  0.5795 -0.4032  0.2610
  825MOL0     C 8795   0.933   1.592   0.789 -0.1835  0.0660  0.0858
  825MOL0     C 8796   0.865   1.474   0.744  0.4486 -0.4891  1.2017
  825MOL0     C 8797   0.733   1.494   0.685  0.0863  0.4244  0.7434
  825MOL0     O 8798   0.671   1.399   0.607 -0.0120  0.3637  0.3158
  825MOL0     C 8799   0.543   1.432   0.553 -0.8694 -0.7886  0.8029
  825MOL0     C 8800   0.534   1.505   0.437  0.6121 -0.2491  0.0793
  825MOL0     C 8801   0.411   1.523   0.372 -0.1608 -0.2512  0.3909
  825MOL0     C 8802   0.288   1.477   0.423 -0.3547 -0.0384  0.8284
  825MOL0     O 8803   0.165   1.515   0.378  0.1924 -0.4279 -0.3731
  825MOL0     C 8804   0.142   1.524   0.234 -0.6579  1.3423 -0.7216
  825MOL0     C 8805   0.005   1.473   0.203 -0.2751 -0.4019  0.4586
  825MOL0     C 8806  -0.102   1.555   0.278 -0.0503  0.6877  0.7140
  825MOL0     C 8807  -0.238   1.508   0.226  0.1554  0.2262  0.2938
  825MOL0     C 8808  -0.367   1.575   0.272  1.3057 -0.3292 -1.0007
  825MOL0     C 8809  -0.386   1.718   0.219 -0.5305 -0.5664  0.9164
  825MOL0     C 8810  -0.533   1.753   0.233  0.2127 -0.5733 -0.3052
  825MOL0     C 8811  -0.551   1.902   0.251  0.4328  0.1086 -0.2794
  825MOL0    Cl 8812  -0.559   1.954   0.079  0.1003 -0.2243  0.2308
  825MOL0     C 8813   0.297   1.414   0.551  0.7115  0.0563 -0.5913
  825MOL0     C 8814   0.423   1.394   0.619 -0.3643  0.4275  0.8752
  825MOL0     O 8815   0.677   1.599   0.713  0.3503  0.1045 -0.1131
  825MOL0     C 8816   0.932   1.354   0.757  0.7754 -0.5654  0.5752
  825MOL0     C 8817   1.064   1.350   0.806 -0.0567 -0.2933  0.5117
  825MOL0     N 8818   1.699   1.727   0.939 -0.5333  0.0001 -0.2694
  825MOL0     N 8819   1.794   1.814   0.944  0.3019 -0.1093 -0.1616
  825MOL0     C 8820   1.011   2.102   0.633  0.0730 -0.1518  0.3214
  825MOL0     C 8821   0.876   2.049   0.639  0.0349 -0.9619  0.7958
  825MOL0     C 8822   0.487   1.901   0.462  1.0839  0.2918  0.3370
  825MOL0     C 8823   0.406   1.923   0.346 -0.0606  0.0540  0.7035
  825MOL0     C 8824   0.269   1.910   0.347 -0.9732 -0.3517  1.0279
  825MOL0     C 8825   0.205   1.875   0.462 -0.4624 -0.5163 -0.7805
  825MOL0     O 8826   0.070   1.858   0.444 -0.4156  0.1620 -0.2072
  825MOL0     C 8827  -0.005   1.823   0.563 -0.1585  0.4399  0.7152
  825MOL0     C 8828  -0.156   1.845   0.554  0.7522  0.0849 -1.1528
  825MOL0     C 8829  -0.170   1.992   0.532 -0.0821 -0.4612  0.2112
  825MOL0     C 8830  -0.297   2.064   0.591  0.3825  0.5635 -0.8597
  825MOL0     C 8831  -0.336   2.182   0.522 -0.5624 -0.4652  0.1159
  825MOL0     C 8832  -0.357   2.284   0.464  0.4678  0.3346  0.7442
  825MOL0     C 8833   0.278   1.856   0.585  0.7322  0.4852  0.6029
  825MOL0     C 8834   0.418   1.872   0.579 -0.2075  0.0246  0.2403
  825MOL0     H 8835   0.899   1.763   0.463  0.8017  0.2519  0.7000
  825MOL0     H 8836   1.143   1.820   0.496  0.6180  1.2288  0.3777
  825MOL0     H 8837   1.361   1.983   0.463 -1.4595  0.1198 -0.3459
  825MOL0     H 8838   1.331   1.894   0.613 -2.0184  1.0005  0.0057
  825MOL0     H 8839   1.481   2.017   0.739  1.3253  0.0448  0.0767
  825MOL0     H 8840   1.454   2.163   0.639  0.1686  0.2790 -1.7379
  825MOL0     H 8841   1.581   2.082   0.466 -1.0547  0.4219  0.3122
  825MOL0     H 8842   1.594   1.917   0.525  0.3699  0.0500  0.9190
  825MOL0     H 8843   1.731   2.161   0.614 -1.6163  0.6324 -1.2147
  825MOL0     H 8844   1.710   2.023   0.736  1.0668 -1.5098 -0.9024
  825MOL0     H 8845   1.819   2.014   0.457 -2.4019 -0.0361  0.5212
  825MOL0     H 8846   1.823   1.872   0.573  2.3935 -0.9395 -1.7666
  825MOL0     H 8847   1.978   2.125   0.611 -0.7399 -0.2464  0.6450
  825MOL0     H 8848   2.052   1.969   0.563  0.7644 -0.7680  1.4966
  825MOL0     H 8849   2.099   2.048   0.794  1.2092 -2.6475 -0.9920
  825MOL0     H 8850   1.923   2.055   0.831  0.1175 -0.0410 -0.7250
  825MOL0     H 8851   2.066   1.880   0.924 -0.2216  0.0978 -0.0943
  825MOL0     H 8852   2.088   1.805   0.766 -0.4353 -0.6686  0.5589
  825MOL0     H 8853   1.887   1.651   0.680 -1.2652 -0.1427 -0.7392
  825MOL0     H 8854   1.612   1.454   0.847 -0.0300 -0.7706  0.1115
  825MOL0     H 8855   1.663   1.496   0.686 -1.5332  2.6383 -0.4848
  825MOL0     H 8856   1.437   1.521   0.685  1.8697 -2.7255  0.2289
  825MOL0     H 8857   1.517   1.682   0.660  1.1766 -0.3230  0.3680
  825MOL0     H 8858   1.433   1.753   0.889 -0.7229 -0.1038  0.2885
  825MOL0     H 8859   1.310   1.707   0.778  0.1535  2.7998  2.0384
  825MOL0     H 8860   1.271   1.622   1.011  0.6605  0.3598  0.8287
  825MOL0     H 8861   1.425   1.536   0.996 -0.1875  0.3460  1.7192
  825MOL0     H 8862   1.112   1.680   0.866 -2.3005  1.7333 -1.3548
  825MOL0     H 8863   0.883   1.689   0.798 -0.3955  0.0452 -0.8115
  825MOL0     H 8864   0.620   1.536   0.378 -0.4945  0.6996 -1.1139
  825MOL0     H 8865   0.398   1.590   0.288  2.3181 -0.2319 -0.0752
  825MOL0     H 8866   0.218   1.476   0.172 -0.0982 -1.8593  2.1441
  825MOL0     H 8867   0.151   1.629   0.206  0.4968  1.4898  0.1144
  825MOL0     H 8868   0.001   1.364   0.212  2.6504 -0.5087  1.6070
  825MOL0     H 8869  -0.003   1.483   0.095  3.2386  0.0286  0.1191
  825MOL0     H 8870  -0.082   1.662   0.269  0.3603  0.5589 -0.0280
  825MOL0     H 8871  -0.085   1.533   0.383 -0.7160  3.1747  1.3912
  825MOL0     H 8872  -0.233   1.529   0.119  2.0211 -0.8414  0.1365
  825MOL0     H 8873  -0.235   1.401   0.247  3.7881  0.1218 -0.1146
  825MOL0     H 8874  -0.384   1.570   0.380  0.0459  1.8923 -1.0409
  825MOL0     H 8875  -0.452   1.515   0.237 -0.7066  1.9544 -0.3371
  825MOL0     H 8876  -0.357   1.720   0.114  0.3514 -1.8778  1.1063
  825MOL0     H 8877  -0.319   1.780   0.280  0.1085 -1.5349  1.2207
  825MOL0     H 8878  -0.585   1.713   0.146 -1.3750  2.8251 -1.0733
  825MOL0     H 8879  -0.574   1.712   0.326  2.0011  1.7459  1.6709
  825MOL0     H 8880  -0.470   1.941   0.314  3.0175 -0.8189 -2.8251
  825MOL0     H 8881  -0.644   1.934   0.299  1.0822  0.2793  0.9047
  825MOL0     H 8882   0.200   1.390   0.595  0.8184 -0.5188 -0.6729
  825MOL0     H 8883   0.436   1.340   0.712 -0.6935  0.9143  1.2085
  825MOL0     H 8884   0.880   1.262   0.733  2.6549 -0.7127 -3.9487
  825MOL0     H 8885   1.117   1.255   0.807  1.7792  0.6461 -1.3198
  825MOL0     H 8886   1.032   2.202   0.669  1.0067  0.2505 -1.2607
  825MOL0     H 8887   0.804   2.120   0.679  1.6776  2.2777 -1.5749
  825MOL0     H 8888   0.445   1.959   0.251 -0.9863  1.0556  0.6876
  825MOL0     H 8889   0.216   1.940   0.258 -1.0388  0.0334  1.1933
  825MOL0     H 8890   0.037   1.867   0.654 -1.0865  1.7673  0.5111
  825MOL0     H 8891   0.003   1.714   0.562  2.2206  0.5196 -1.9122
  825MOL0     H 8892  -0.196   1.782   0.474 -1.0592 -1.7436  1.0497
  825MOL0     H 8893  -0.208   1.813   0.645  0.8736  1.0672 -0.7207
  825MOL0     H 8894  -0.169   2.000   0.423  3.8510 -1.1624  0.0365
  825MOL0     H 8895  -0.077   2.036   0.569 -0.6091  0.2585  0.7004
  825MOL0     H 8896  -0.376   1.992   0.568 -1.0754  1.6005  0.7427
  825MOL0     H 8897  -0.288   2.075   0.699 -0.7978 -0.7850 -0.6006
  825MOL0     H 8898  -0.375   2.376   0.411  1.2882 -0.3768 -0.8371
  825MOL0     H 8899   0.242   1.838   0.686 -0.0082 -3.2607 -0.1910
  825MOL0     H 8900   0.486   1.846   0.660  0.6633 -2.5282 -1.2179
  826MOL0     O 8901   9.926   8.649   9.591  0.2189  0.8779 -0.2791
  826MOL0     C 8902   9.951   8.620   9.710 -0.1086 -0.0497  0.0466
  826MOL0     O 8903   9.879   8.652   9.822 -0.2236 -0.0208 -0.0401
  826MOL0     C 8904   9.765   8.721   9.794  0.1698 -0.3884  0.3490
  826MOL0     C 8905   9.649   8.650   9.754  0.2637 -0.2980 -0.4844
  826MOL0     C 8906   9.528   8.721   9.729 -0.5890 -0.0356  1.6320
  826MOL0     C 8907   9.530   8.863   9.733  0.1835 -0.1852 -0.0807
  826MOL0     O 8908   9.421   8.946   9.704 -0.3810 -0.0253  0.2386
  826MOL0     C 8909   9.293   8.883   9.691 -0.4695 -0.6322 -0.1001
  826MOL0     C 8910   9.188   8.993   9.701  0.2543 -0.4821  1.0361
  826MOL0     C 8911   9.038   8.937   9.701  0.0400 -0.1356 -0.8498
  826MOL0     C 8912   8.930   9.050   9.719  1.0522 -0.4354 -0.4501
  826MOL0     C 8913   8.780   8.996   9.725  0.1903  0.6039 -0.0918
  826MOL0     C 8914   8.773   8.926   9.859  0.3549  0.1749 -0.0292
  826MOL0     C 8915   8.620   8.899   9.883 -0.0440  0.2458  0.7219
  826MOL0     C 8916   8.606   8.792   9.988  0.9631  0.6048 -0.4950
  826MOL0     N 8917   8.672   8.828  10.116  0.7417 -0.7650  0.6676
  826MOL0     C 8918   8.764   8.742  10.182 -0.0143 -0.6180  0.6491
  826MOL0     C 8919   8.799   8.814  10.288  0.6696 -0.2599 -1.3851
  826MOL0     C 8920   8.893   8.767  10.398  0.2590  0.7214  0.8076
  826MOL0     C 8921   9.037   8.795  10.351  1.5159  0.5159 -0.0732
  826MOL0     C 8922   9.063   8.946  10.332 -0.7499  0.0910 -0.1032
  826MOL0     C 8923   9.209   8.990  10.350  0.3087  0.3013  0.0032
  826MOL0     O 8924   9.295   8.908  10.264  0.6536 -0.0747  0.0612
  826MOL0     C 8925   9.433   8.945  10.259  0.1462  0.4613 -0.4546
  826MOL0     C 8926   9.500   8.993  10.374 -0.2891  0.0639  0.3641
  826MOL0     C 8927   9.638   9.016  10.376  0.5692  0.0563  0.1804
  826MOL0     C 8928   9.715   8.976  10.262  0.9879 -1.1101  0.7937
  826MOL0     C 8929   9.857   8.974  10.262  0.5822 -0.8097 -0.0644
  826MOL0     O 8930   9.910   8.932  10.146 -0.4287  0.0827  0.2555
  826MOL0     C 8931  10.042   8.950  10.124 -0.0226 -0.5110  0.7887
  826MOL0     C 8932  10.091   9.078  10.097 -0.1400  0.2458 -0.7003
  826MOL0     C 8933  10.222   9.092  10.056  0.5798  0.0640  0.6081
  826MOL0     C 8934  10.313   8.997  10.045 -0.5275 -0.6893 -1.2859
  826MOL0     O 8935  10.450   9.004  10.025  0.5068  0.4280  0.0816
  826MOL0     C 8936  10.506   9.126   9.977 -0.7977  0.4018  0.6338
  826MOL0     C 8937  10.573   9.204  10.090 -0.6659 -0.2145 -0.5761
  826MOL0     C 8938  10.668   9.118  10.164 -0.4834  0.1270 -0.3920
  826MOL0     C 8939  10.745   9.179  10.278 -0.2317  0.8173  0.1856
  826MOL0     C 8940  10.819   9.300  10.226  0.3152  0.4467  0.3603
  826MOL0     C 8941  10.890   9.353  10.342 -0.6101 -0.2378  0.3476
  826MOL0     C 8942  10.992   9.473  10.317  0.3370 -0.8228  0.6633
  826MOL0     C 8943  11.080   9.499  10.436  0.6123 -0.9866  0.1515
  826MOL0    Cl 8944  11.150   9.657  10.453  0.5902 -0.2152 -0.0074
  826MOL0     C 8945  10.264   8.867  10.076 -0.1458  0.2699 -0.2297
  826MOL0     C 8946  10.131   8.840  10.106 -1.2639  0.2712 -0.7085
  826MOL0     O 8947   9.921   9.004  10.357 -0.2722 -0.2844  0.4809
  826MOL0     C 8948   9.649   8.930  10.143  0.5352 -0.8377 -0.9111
  826MOL0     C 8949   9.506   8.912  10.148 -0.8562 -0.4505 -0.0957
  826MOL0     N 8950   8.732   8.939  10.282  0.6651  0.0052 -0.3783
  826MOL0     N 8951   8.653   8.944  10.185 -0.0211  0.9120  0.5869
  826MOL0     C 8952   9.647   8.931   9.775 -0.6912 -0.0164  0.1222
  826MOL0     C 8953   9.756   8.858   9.812 -0.2235  1.0101 -0.3352
  826MOL0     C 8954  10.093   8.582   9.728 -0.7618  0.4239  0.1981
  826MOL0     C 8955  10.176   8.537   9.617  0.2296 -0.4150 -0.1402
  826MOL0     C 8956  10.298   8.473   9.635 -0.0043  0.5785  0.2695
  826MOL0     C 8957  10.360   8.468   9.765  0.0270  0.3260 -0.8308
  826MOL0     O 8958  10.486   8.427   9.789 -0.2048  0.1276  0.0250
  826MOL0     C 8959  10.556   8.362   9.681 -0.1923 -0.5849  0.2148
  826MOL0     C 8960  10.698   8.328   9.729 -0.6505  0.2529 -0.8394
  826MOL0     C 8961  10.791   8.273   9.624  0.0149  0.2596 -0.0402
  826MOL0     C 8962  10.930   8.230   9.683  0.6953  0.4558  0.0870
  826MOL0     C 8963  11.000   8.330   9.763 -0.9661 -0.1366 -0.3237
  826MOL0     C 8964  11.050   8.409   9.842  0.1829  0.3473  0.4510
  826MOL0     C 8965  10.278   8.512   9.878  0.9676 -0.4928 -0.0410
  826MOL0     C 8966  10.152   8.573   9.859  0.5061  0.4316  0.8925
  826MOL0     H 8967   9.636   8.543   9.763 -0.3331 -0.1803  0.1369
  826MOL0     H 8968   9.442   8.664   9.695  1.8457 -1.5387 -2.7445
  826MOL0     H 8969   9.275   8.811   9.772 -1.1519 -0.8211 -0.4163
  826MOL0     H 8970   9.278   8.819   9.604 -0.4017 -0.6457 -0.1022
  826MOL0     H 8971   9.197   9.046   9.606  1.4097 -2.2995  0.0516
  826MOL0     H 8972   9.210   9.057   9.786  0.4503  0.4195  0.3149
  826MOL0     H 8973   9.033   8.868   9.786  0.0802 -0.2595 -0.9481
  826MOL0     H 8974   9.021   8.879   9.611 -0.5865  0.3958 -1.0839
  826MOL0     H 8975   8.955   9.104   9.811  0.3191  0.5145 -0.7955
  826MOL0     H 8976   8.946   9.123   9.639 -0.3796  2.3982  1.6448
  826MOL0     H 8977   8.771   8.929   9.640 -0.4337 -0.4968  0.8063
  826MOL0     H 8978   8.710   9.080   9.722  0.2859  0.6594 -2.8409
  826MOL0     H 8979   8.803   8.991   9.942  3.1127 -0.4490 -0.4426
  826MOL0     H 8980   8.840   8.841   9.872 -0.1412 -0.1849  0.2630
  826MOL0     H 8981   8.572   8.991   9.918 -0.7292 -0.8400  2.8626
  826MOL0     H 8982   8.563   8.866   9.796 -0.2733 -1.2352  1.3964
  826MOL0     H 8983   8.639   8.697   9.946  2.7417 -0.0393  2.0884
  826MOL0     H 8984   8.500   8.776  10.009  1.1041 -0.6796 -0.6665
  826MOL0     H 8985   8.777   8.639  10.153 -1.8633 -0.6472 -0.1565
  826MOL0     H 8986   8.885   8.659  10.385  0.1663  0.7285  0.8020
  826MOL0     H 8987   8.875   8.802  10.500 -1.7143 -1.3849  1.2699
  826MOL0     H 8988   9.065   8.754  10.254  2.5973 -1.5088  1.0242
  826MOL0     H 8989   9.103   8.746  10.424 -1.2838 -0.5489  1.9222
  826MOL0     H 8990   9.048   8.971  10.226  2.7585  0.5872 -0.5916
  826MOL0     H 8991   8.998   9.009  10.393 -1.5368 -2.7277  2.1769
  826MOL0     H 8992   9.226   8.947  10.449 -0.2288 -0.7024 -0.3266
  826MOL0     H 8993   9.235   9.096  10.354 -0.1974  0.6405 -3.1374
  826MOL0     H 8994   9.453   9.006  10.470  1.4230  0.9301  1.1383
  826MOL0     H 8995   9.677   9.053  10.470  0.0852 -3.4703  1.9503
  826MOL0     H 8996  10.026   9.165  10.102  0.9291  1.0649 -0.7334
  826MOL0     H 8997  10.241   9.196  10.032 -2.8566  0.0589 -3.0675
  826MOL0     H 8998  10.428   9.190   9.934  0.8819  1.2353 -1.3094
  826MOL0     H 8999  10.577   9.096   9.899 -1.8305 -1.1379  0.2271
  826MOL0     H 9000  10.497   9.224  10.166 -1.5982  0.0930 -1.5629
  826MOL0     H 9001  10.619   9.291  10.042 -0.2630 -2.0356 -3.7854
  826MOL0     H 9002  10.738   9.074  10.093  0.0156 -1.8660  1.2280
  826MOL0     H 9003  10.624   9.024  10.201  1.5224 -0.4580  0.6191
  826MOL0     H 9004  10.680   9.215  10.357 -1.7602 -1.9508  0.3308
  826MOL0     H 9005  10.820   9.109  10.316 -0.3072  1.2741  1.2073
  826MOL0     H 9006  10.749   9.374  10.186  0.1548 -0.2191 -0.6371
  826MOL0     H 9007  10.892   9.283  10.146 -0.2047 -0.7626  0.1345
  826MOL0     H 9008  10.960   9.273  10.371  1.1169  0.7200 -0.9632
  826MOL0     H 9009  10.816   9.381  10.417 -2.7998  1.3246 -2.2412
  826MOL0     H 9010  11.044   9.455  10.223  0.1207  3.9006 -0.6264
  826MOL0     H 9011  10.939   9.568  10.304  5.4756  2.4317  0.6992
  826MOL0     H 9012  11.150   9.416  10.443  0.6710 -0.9614 -0.1424
  826MOL0     H 9013  11.009   9.485  10.519 -2.8872 -0.2392 -2.4563
  826MOL0     H 9014  10.334   8.784  10.069  1.2089  1.4876 -1.7650
  826MOL0     H 9015  10.086   8.743  10.126  0.8920 -0.5969  0.2199
  826MOL0     H 9016   9.710   8.903  10.058  0.3312  0.3014 -1.4380
  826MOL0     H 9017   9.456   8.871  10.061 -0.4658 -0.4330 -0.3324
  826MOL0     H 9018   9.649   9.039   9.790  2.2612 -0.0543  0.6300
  826MOL0     H 9019   9.848   8.905   9.845 -0.5643  1.9609 -0.7135
  826MOL0     H 9020  10.136   8.550   9.517 -1.2663 -2.0223  0.2036
  826MOL0     H 9021  10.350   8.441   9.545 -0.6656  1.4358 -0.4321
  826MOL0     H 9022  10.565   8.425   9.592  2.8117 -1.4107 -0.1642
  826MOL0     H 9023  10.503   8.267   9.664  0.6860 -1.3994  1.8025
  826MOL0     H 9024  10.746   8.420   9.763 -2.9455  0.3973  2.5019
  826MOL0     H 9025  10.697   8.251   9.805  2.2027 -0.7734 -1.6961
  826MOL0     H 9026  10.817   8.351   9.551 -2.2715  2.9076  1.7819
  826MOL0     H 9027  10.738   8.197   9.566  0.6528  0.0332 -0.3373
  826MOL0     H 9028  10.908   8.141   9.743 -2.0574  0.6248 -0.5761
  826MOL0     H 9029  10.989   8.196   9.597 -1.9112 -1.9208 -0.9305
  826MOL0     H 9030  11.101   8.476   9.908  3.6694 -0.6750 -1.0062
  826MOL0     H 9031  10.325   8.510   9.976  0.7243 -1.3367  0.0657
  826MOL0     H 9032  10.096   8.614   9.942 -1.7680  0.2957 -0.4771
  827MOL0     O 9033   8.255   2.523   0.458  0.1397  0.1989  0.0072
  827MOL0     C 9034   8.195   2.428   0.495 -0.4237  0.0362  0.6415
  827MOL0     O 9035   8.062   2.423   0.531 -0.5241 -0.8206  0.5716
  827MOL0     C 9036   7.978   2.527   0.525 -0.7328 -0.2737 -0.7292
  827MOL0     C 9037   7.873   2.526   0.622  0.9621  0.1583 -0.1643
  827MOL0     C 9038   7.761   2.614   0.605 -0.9432 -0.0169 -0.4446
  827MOL0     C 9039   7.763   2.707   0.494  0.0349  0.2271 -0.0800
  827MOL0     O 9040   7.664   2.791   0.447  0.5057  0.5695 -0.2688
  827MOL0     C 9041   7.553   2.801   0.542  0.7652  0.0245  0.3775
  827MOL0     C 9042   7.451   2.692   0.495  0.2462  0.8557  0.3352
  827MOL0     C 9043   7.326   2.710   0.587  0.7260 -0.5717 -0.3051
  827MOL0     C 9044   7.222   2.604   0.550 -0.0176 -0.9876 -0.0963
  827MOL0     C 9045   7.086   2.616   0.637  0.1683  0.6093  0.5019
  827MOL0     C 9046   6.994   2.733   0.575 -0.8570 -0.0627 -1.0412
  827MOL0     C 9047   6.868   2.757   0.650  0.1604 -0.0721 -0.3064
  827MOL0     C 9048   6.750   2.778   0.550 -0.8448 -0.7137 -0.2840
  827MOL0     N 9049   6.628   2.820   0.614  0.2470  0.3241  0.0633
  827MOL0     C 9050   6.580   2.947   0.635  0.5723  0.4558 -0.2906
  827MOL0     C 9051   6.445   2.942   0.654  0.5465  0.7096 -0.2631
  827MOL0     C 9052   6.358   3.054   0.689  0.1909 -0.3781  0.8547
  827MOL0     C 9053   6.214   3.063   0.646  0.2576 -0.2312  0.0943
  827MOL0     C 9054   6.115   2.990   0.734 -0.6188  1.0678  0.4397
  827MOL0     C 9055   5.972   3.032   0.696  0.2406  0.5967  0.0201
  827MOL0     O 9056   5.878   2.954   0.769  0.4767  0.2142  0.1252
  827MOL0     C 9057   5.746   2.958   0.741  0.3672  0.4013  0.2315
  827MOL0     C 9058   5.685   3.062   0.665 -0.7982  0.2831  0.6300
  827MOL0     C 9059   5.552   3.060   0.644  0.6633 -0.2294 -0.1674
  827MOL0     C 9060   5.465   2.952   0.697  0.6406 -0.9816 -0.3182
  827MOL0     C 9061   5.316   2.957   0.684 -0.4215  0.3829  0.5799
  827MOL0     O 9062   5.260   3.052   0.609  0.1192  0.1318  0.9882
  827MOL0     C 9063   5.120   3.052   0.588 -0.4667  0.4395 -0.0611
  827MOL0     C 9064   5.060   2.973   0.495 -0.4798  0.4181  0.5035
  827MOL0     C 9065   4.922   2.984   0.464  0.1900 -0.0875  0.1189
  827MOL0     C 9066   4.852   3.066   0.549  0.2319  0.0939  0.0884
  827MOL0     O 9067   4.715   3.057   0.529  0.8851  0.2191 -0.3698
  827MOL0     C 9068   4.619   3.101   0.627 -0.0706  0.3351  1.3328
  827MOL0     C 9069   4.490   3.142   0.553 -0.3848  0.6531  0.0656
  827MOL0     C 9070   4.376   3.187   0.653  0.1737  0.2837 -1.3769
  827MOL0     C 9071   4.251   3.238   0.586 -0.0352  0.6845 -0.3550
  827MOL0     C 9072   4.120   3.226   0.665 -0.2665  0.2240  0.7908
  827MOL0     C 9073   4.011   3.261   0.558  0.6079 -0.5837 -0.2922
  827MOL0     C 9074   3.873   3.279   0.624 -0.4371  0.6409 -0.6908
  827MOL0     C 9075   3.759   3.289   0.531 -0.5073  0.6058 -0.4847
  827MOL0    Cl 9076   3.718   3.116   0.464  0.3949  0.0697  0.0254
  827MOL0     C 9077   4.910   3.147   0.641  0.1206 -0.5668  0.5014
  827MOL0     C 9078   5.042   3.136   0.667 -0.0722 -0.1356 -0.4673
  827MOL0     O 9079   5.255   2.872   0.750  0.2412  0.0128 -0.4412
  827MOL0     C 9080   5.524   2.857   0.779  0.4997  0.5118  0.2793
  827MOL0     C 9081   5.664   2.854   0.790 -0.2767  0.0918  0.4919
  827MOL0     N 9082   6.412   2.798   0.636 -0.8192  0.1277 -0.0349
  827MOL0     N 9083   6.519   2.737   0.609 -0.4256  0.4856  0.2854
  827MOL0     C 9084   7.876   2.719   0.408  0.4830  0.7719 -0.3265
  827MOL0     C 9085   7.974   2.622   0.420  0.0419  0.1110  0.6733
  827MOL0     C 9086   8.268   2.293   0.505  0.0150 -0.3546  0.1095
  827MOL0     C 9087   8.410   2.286   0.517 -0.1912  0.1889  0.4296
  827MOL0     C 9088   8.478   2.165   0.548 -0.6470  1.6760 -0.8694
  827MOL0     C 9089   8.408   2.042   0.533  0.1790 -0.2565  0.3212
  827MOL0     O 9090   8.459   1.909   0.549 -0.4981  0.5012  0.2651
  827MOL0     C 9091   8.606   1.905   0.533  0.4114 -0.5227 -0.7826
  827MOL0     C 9092   8.677   1.925   0.669 -0.7129 -0.0444 -0.6153
  827MOL0     C 9093   8.814   1.990   0.648 -0.2895 -0.6668 -0.6474
  827MOL0     C 9094   8.901   2.018   0.771  0.2502  0.3407 -0.8611
  827MOL0     C 9095   8.835   2.080   0.887 -0.2733  0.3516 -0.0075
  827MOL0     C 9096   8.765   2.116   0.980  0.3929  0.1473 -0.6768
  827MOL0     C 9097   8.268   2.054   0.525 -0.1586  0.0110  1.2394
  827MOL0     C 9098   8.203   2.178   0.513  0.2245 -0.0245  0.8881
  827MOL0     H 9099   7.873   2.452   0.702  1.1812 -2.2191 -2.2590
  827MOL0     H 9100   7.677   2.595   0.671 -1.3272 -1.0412 -1.1925
  827MOL0     H 9101   7.505   2.898   0.529 -0.8868 -0.8627 -0.6777
  827MOL0     H 9102   7.581   2.790   0.647 -0.8887 -1.7428  0.6915
  827MOL0     H 9103   7.492   2.594   0.519  0.4073  0.6227 -0.8090
  827MOL0     H 9104   7.429   2.704   0.388 -0.0791  0.2187  0.3277
  827MOL0     H 9105   7.281   2.806   0.563  0.0683 -0.2521  1.9513
  827MOL0     H 9106   7.352   2.711   0.693 -1.0095 -0.5278  0.1490
  827MOL0     H 9107   7.196   2.617   0.445 -2.4907  1.6048  0.7067
  827MOL0     H 9108   7.265   2.504   0.551 -3.1365 -2.4830 -1.6470
  827MOL0     H 9109   7.106   2.633   0.743 -2.7560  0.6660  1.1287
  827MOL0     H 9110   7.040   2.517   0.629  2.3575 -0.5603  1.5302
  827MOL0     H 9111   6.964   2.698   0.476  0.4567 -1.7900 -0.8747
  827MOL0     H 9112   7.063   2.815   0.553  0.1879 -0.5527  0.2535
  827MOL0     H 9113   6.840   2.664   0.702 -0.8974  1.0458  1.2323
  827MOL0     H 9114   6.871   2.843   0.717  0.8031 -0.7734  0.6069
  827MOL0     H 9115   6.725   2.680   0.508 -0.0424 -1.5028  1.0186
  827MOL0     H 9116   6.774   2.846   0.467 -0.3835 -3.0910 -2.2282
  827MOL0     H 9117   6.646   3.033   0.638  1.0092  0.0894  0.9654
  827MOL0     H 9118   6.399   3.150   0.656 -0.5205  0.3305  1.9458
  827MOL0     H 9119   6.350   3.061   0.798 -3.4296 -0.4129  0.6982
  827MOL0     H 9120   6.216   3.023   0.544  3.3263 -0.1256 -0.0007
  827MOL0     H 9121   6.181   3.168   0.645  0.0834 -0.1346 -4.3181
  827MOL0     H 9122   6.133   2.882   0.732  3.0414  1.5684  0.0840
  827MOL0     H 9123   6.132   3.020   0.837  1.6389 -0.2472  0.5214
  827MOL0     H 9124   5.961   3.013   0.589  1.1502  0.9646 -0.1543
  827MOL0     H 9125   5.963   3.141   0.707  0.6988  0.7409 -0.9293
  827MOL0     H 9126   5.733   3.150   0.622 -1.0402 -0.3472 -1.0258
  827MOL0     H 9127   5.514   3.142   0.584 -0.2830 -1.4114 -1.2450
  827MOL0     H 9128   5.132   2.918   0.435 -0.0657  0.9919  0.4693
  827MOL0     H 9129   4.884   2.918   0.386  0.9822  1.7656 -1.9395
  827MOL0     H 9130   4.654   3.190   0.682 -1.0017  0.6707  1.3968
  827MOL0     H 9131   4.606   3.031   0.710  3.9155 -0.6744  1.3128
  827MOL0     H 9132   4.456   3.050   0.504 -0.4426  1.2636 -1.0641
  827MOL0     H 9133   4.496   3.226   0.485  1.3100 -0.6736 -1.5077
  827MOL0     H 9134   4.419   3.260   0.722  2.6043 -1.8766 -0.4108
  827MOL0     H 9135   4.353   3.100   0.715  0.6940  0.4385 -0.9600
  827MOL0     H 9136   4.270   3.341   0.557 -1.8004  1.1343  0.0067
  827MOL0     H 9137   4.242   3.180   0.494  2.1065  0.0996 -0.2498
  827MOL0     H 9138   4.129   3.297   0.748  1.0491  0.8336  0.1508
  827MOL0     H 9139   4.119   3.125   0.708 -0.4447 -0.8214 -1.5366
  827MOL0     H 9140   4.013   3.189   0.475  0.3386 -2.3562  1.1741
  827MOL0     H 9141   4.036   3.363   0.528  2.3181 -0.2109  2.1485
  827MOL0     H 9142   3.854   3.199   0.697 -2.0270  0.8528 -0.8301
  827MOL0     H 9143   3.877   3.371   0.682  0.7140 -1.3454  2.6899
  827MOL0     H 9144   3.780   3.368   0.459 -0.5202 -0.0254 -1.1897
  827MOL0     H 9145   3.666   3.330   0.573 -1.1354  0.0409 -1.2977
  827MOL0     H 9146   4.849   3.217   0.697 -0.4259 -1.7104  1.3746
  827MOL0     H 9147   5.089   3.189   0.749 -1.1246  2.6045 -1.5051
  827MOL0     H 9148   5.475   2.770   0.822  1.1331  0.3004  0.5849
  827MOL0     H 9149   5.709   2.772   0.846 -3.0594 -1.6321  0.4139
  827MOL0     H 9150   7.879   2.801   0.337 -2.1668  0.4632 -0.9288
  827MOL0     H 9151   8.058   2.631   0.351 -1.6511  4.3531 -1.1769
  827MOL0     H 9152   8.479   2.368   0.533  0.6996 -0.3861 -0.4157
  827MOL0     H 9153   8.579   2.172   0.587 -1.5347 -1.7132  2.6873
  827MOL0     H 9154   8.632   1.979   0.456 -1.2801 -0.3974 -1.2677
  827MOL0     H 9155   8.635   1.810   0.488  3.2571 -0.1030 -0.0378
  827MOL0     H 9156   8.624   2.000   0.728  2.0277  3.4520 -2.1911
  827MOL0     H 9157   8.695   1.831   0.722  0.3581  0.5982  0.2173
  827MOL0     H 9158   8.796   2.089   0.605  0.4384 -0.8083 -1.3099
  827MOL0     H 9159   8.881   1.938   0.579  5.1373  1.4562  2.3836
  827MOL0     H 9160   8.948   1.922   0.797 -2.0094 -0.7859 -0.6785
  827MOL0     H 9161   8.972   2.092   0.734 -0.2082 -0.0010 -2.4819
  827MOL0     H 9162   8.699   2.163   1.050 -0.5126 -0.8111 -0.8624
  827MOL0     H 9163   8.191   1.978   0.539 -0.0047  0.0077  2.1295
  827MOL0     H 9164   8.095   2.178   0.502 -0.0061  1.0741  2.6499
  828MOL0     O 9165   1.207   2.314   8.751  0.1550 -0.4377 -0.2593
  828MOL0     C 9166   1.300   2.326   8.673  0.5622 -0.3010 -0.7958
  828MOL0     O 9167   1.287   2.297   8.538 -0.5063  0.0129  0.0361
  828MOL0     C 9168   1.164   2.257   8.498 -0.5815 -0.2355  0.2402
  828MOL0     C 9169   1.145   2.123   8.472  0.3230  0.0838 -1.4368
  828MOL0     C 9170   1.014   2.070   8.452 -0.1326 -0.4054 -0.3107
  828MOL0     C 9171   0.904   2.159   8.450 -0.2540  0.5612  0.5774
  828MOL0     O 9172   0.775   2.123   8.427 -0.8156 -0.2376 -0.2321
  828MOL0     C 9173   0.719   2.012   8.500  0.4836  0.2961 -0.4126
  828MOL0     C 9174   0.566   2.015   8.497  0.1230 -0.0994 -0.4901
  828MOL0     C 9175   0.509   2.011   8.351 -0.2273  0.2400 -0.2854
  828MOL0     C 9176   0.359   1.995   8.330  0.3721 -0.1608 -0.9563
  828MOL0     C 9177   0.332   1.985   8.183 -0.0509 -0.1751 -0.0237
  828MOL0     C 9178   0.181   1.974   8.174  0.4053  0.3371 -0.5073
  828MOL0     C 9179   0.131   1.832   8.221 -0.6000 -0.3633  0.2972
  828MOL0     C 9180  -0.015   1.806   8.187  0.2361  0.1358 -0.1637
  828MOL0     N 9181  -0.108   1.922   8.205  0.0930 -0.4900  0.3987
  828MOL0     C 9182  -0.134   1.978   8.333  0.5152  0.1717  0.1678
  828MOL0     C 9183  -0.214   2.082   8.309 -0.0121 -0.0499  1.4830
  828MOL0     C 9184  -0.285   2.167   8.410  0.5044 -0.4014 -1.0029
  828MOL0     C 9185  -0.194   2.239   8.499 -0.2556 -0.3640 -0.2534
  828MOL0     C 9186  -0.106   2.327   8.412 -0.7067  0.5595  0.5335
  828MOL0     C 9187  -0.044   2.457   8.469  0.0713  0.0357 -0.2497
  828MOL0     O 9188  -0.124   2.536   8.553 -0.0283  0.3799 -0.6193
  828MOL0     C 9189  -0.233   2.601   8.494 -0.8606 -0.2864 -0.4621
  828MOL0     C 9190  -0.251   2.632   8.360  0.2112 -0.1022 -0.0697
  828MOL0     C 9191  -0.366   2.698   8.311  0.2399 -0.6884  0.1862
  828MOL0     C 9192  -0.464   2.746   8.404 -0.0507 -0.1225  0.1351
  828MOL0     C 9193  -0.596   2.814   8.366 -0.6332  0.1779 -0.5068
  828MOL0     O 9194  -0.624   2.806   8.228 -0.1744  0.8880 -0.2048
  828MOL0     C 9195  -0.737   2.859   8.181 -0.2824  0.1361  0.1758
  828MOL0     C 9196  -0.730   2.977   8.106  0.1355 -0.2268 -0.1172
  828MOL0     C 9197  -0.848   3.026   8.062 -0.1320 -0.0850 -0.2782
  828MOL0     C 9198  -0.978   2.968   8.074  0.2234 -0.1822  0.1870
  828MOL0     O 9199  -1.092   3.005   8.007  0.7865 -0.2330 -0.7526
  828MOL0     C 9200  -1.110   3.150   7.973 -0.5409  0.8641  0.1750
  828MOL0     C 9201  -1.244   3.162   7.894 -0.7824  0.2314  0.0360
  828MOL0     C 9202  -1.361   3.081   7.947 -0.2253  0.7101 -0.0473
  828MOL0     C 9203  -1.482   3.100   7.863 -0.3415 -0.2729  0.1451
  828MOL0     C 9204  -1.593   3.001   7.903  0.5000  0.1479 -0.0270
  828MOL0     C 9205  -1.726   3.032   7.833 -0.4852 -0.1519 -0.8185
  828MOL0     C 9206  -1.840   2.933   7.876  0.7534 -0.1712  0.4053
  828MOL0     C 9207  -1.970   2.965   7.808  0.8551  0.5582 -0.0035
  828MOL0    Cl 9208  -2.009   3.139   7.851 -0.1150 -0.5999  0.3834
  828MOL0     C 9209  -0.983   2.859   8.156  0.1189  0.3919 -0.3177
  828MOL0     C 9210  -0.864   2.808   8.209 -0.1712  0.9463 -0.4364
  828MOL0     O 9211  -0.678   2.841   8.450 -0.2508  0.3650 -0.5608
  828MOL0     C 9212  -0.439   2.733   8.544 -0.6463 -0.1333  0.1033
  828MOL0     C 9213  -0.325   2.655   8.582 -0.1776 -0.5394 -0.1628
  828MOL0     N 9214  -0.212   2.099   8.175  0.1856  0.6963 -0.9135
  828MOL0     N 9215  -0.143   2.005   8.107  0.1308  0.3665 -0.7029
  828MOL0     C 9216   0.920   2.296   8.468  0.1029 -0.4070  0.3163
  828MOL0     C 9217   1.055   2.345   8.495  0.1313  0.0602  0.2728
  828MOL0     C 9218   1.426   2.371   8.729 -0.8527 -0.3286  0.8456
  828MOL0     C 9219   1.435   2.427   8.857 -1.2001  0.5191  0.1206
  828MOL0     C 9220   1.558   2.479   8.901  0.2951 -0.0250 -0.2119
  828MOL0     C 9221   1.670   2.482   8.817  0.5492  1.3455  0.3804
  828MOL0     O 9222   1.775   2.568   8.854  0.7302 -0.2977 -0.6470
  828MOL0     C 9223   1.888   2.565   8.773  0.8262 -0.7141  0.0623
  828MOL0     C 9224   2.010   2.611   8.854  0.6193 -0.8634  0.5294
  828MOL0     C 9225   2.138   2.603   8.775 -0.2385  0.0907  0.4340
  828MOL0     C 9226   2.269   2.615   8.841  0.4004  0.5655  0.4534
  828MOL0     C 9227   2.288   2.741   8.901 -0.2525 -0.2508  0.2368
  828MOL0     C 9228   2.319   2.845   8.953  0.1505  0.1076 -0.6687
  828MOL0     C 9229   1.660   2.419   8.687  0.0278  0.2442  1.1289
  828MOL0     C 9230   1.544   2.353   8.644  0.6293 -0.1784  0.2764
  828MOL0     H 9231   1.228   2.054   8.470 -0.4928 -1.2118  2.1459
  828MOL0     H 9232   1.005   1.963   8.443  3.7907 -0.8843 -0.2053
  828MOL0     H 9233   0.744   2.011   8.607 -0.6772  0.1524 -0.1353
  828MOL0     H 9234   0.757   1.918   8.459 -0.4066 -1.1940  1.9652
  828MOL0     H 9235   0.544   2.114   8.540  2.4505  0.3788 -0.2427
  828MOL0     H 9236   0.527   1.934   8.559  0.9282 -1.6673 -1.9598
  828MOL0     H 9237   0.555   1.921   8.308  2.5749  0.2318  2.4408
  828MOL0     H 9238   0.527   2.109   8.306 -0.5769  1.4109  2.0136
  828MOL0     H 9239   0.323   1.915   8.395 -1.2760  1.9362  0.8898
  828MOL0     H 9240   0.301   2.082   8.364 -2.6905 -2.0415 -0.9788
  828MOL0     H 9241   0.365   1.896   8.129 -1.8285 -0.6370 -0.4294
  828MOL0     H 9242   0.376   2.073   8.137 -1.6820  2.9042  3.7942
  828MOL0     H 9243   0.132   1.992   8.078  0.8261  0.9421 -0.6125
  828MOL0     H 9244   0.122   2.043   8.235  1.1005 -0.1097  0.6834
  828MOL0     H 9245   0.197   1.759   8.172 -0.6884  1.2471 -2.4545
  828MOL0     H 9246   0.134   1.826   8.330  0.7380 -3.2870  0.1843
  828MOL0     H 9247  -0.038   1.720   8.249  2.4728  0.2760  0.9763
  828MOL0     H 9248  -0.024   1.777   8.082 -2.3878 -0.3038  0.1270
  828MOL0     H 9249  -0.111   1.933   8.429 -0.7947 -1.6899 -0.3240
  828MOL0     H 9250  -0.353   2.101   8.464  0.1791  0.6942 -0.0313
  828MOL0     H 9251  -0.350   2.241   8.363  0.3673 -2.6128 -4.7035
  828MOL0     H 9252  -0.129   2.179   8.564  2.8256  0.7616 -2.0481
  828MOL0     H 9253  -0.247   2.310   8.563  1.5208  0.9543 -0.1458
  828MOL0     H 9254  -0.029   2.262   8.369 -1.0515  2.0971 -2.6702
  828MOL0     H 9255  -0.169   2.349   8.325 -1.3953  0.8236  1.0984
  828MOL0     H 9256  -0.011   2.518   8.384  0.1560  2.1452  1.2055
  828MOL0     H 9257   0.044   2.423   8.525 -0.9096 -0.5520  0.9906
  828MOL0     H 9258  -0.173   2.614   8.288  0.9898  0.7003  0.5441
  828MOL0     H 9259  -0.374   2.718   8.205  1.1232  1.7423  0.5181
  828MOL0     H 9260  -0.635   3.023   8.083 -0.2175  1.2206  1.2025
  828MOL0     H 9261  -0.829   3.116   8.004  1.2128 -1.4129 -2.0092
  828MOL0     H 9262  -1.024   3.198   7.925 -0.1696  2.4354  2.2630
  828MOL0     H 9263  -1.124   3.208   8.065  0.2437 -0.1007  0.9224
  828MOL0     H 9264  -1.216   3.132   7.792  1.2335 -1.5393  1.0100
  828MOL0     H 9265  -1.261   3.269   7.903  0.2022  0.4404 -0.3999
  828MOL0     H 9266  -1.388   3.122   8.046  0.5196  2.1360 -0.4051
  828MOL0     H 9267  -1.336   2.975   7.955 -0.0548  0.6223 -1.6137
  828MOL0     H 9268  -1.518   3.203   7.859 -2.2128 -0.9232 -1.5472
  828MOL0     H 9269  -1.442   3.079   7.763  2.8883 -1.2796  1.5235
  828MOL0     H 9270  -1.622   3.001   8.009 -1.6086 -0.9881 -0.5506
  828MOL0     H 9271  -1.573   2.898   7.872 -2.7452 -0.2273 -1.2975
  828MOL0     H 9272  -1.705   3.013   7.728  1.4090 -1.6431 -0.2227
  828MOL0     H 9273  -1.746   3.139   7.850  0.0733 -0.5690  3.7117
  828MOL0     H 9274  -1.820   2.827   7.857 -0.5491 -0.2776 -0.4500
  828MOL0     H 9275  -1.855   2.944   7.984 -1.1943  4.1553 -0.1328
  828MOL0     H 9276  -2.035   2.899   7.866 -0.2475  1.6771  0.0936
  828MOL0     H 9277  -1.981   2.940   7.702 -0.7093  0.5480  0.1384
  828MOL0     H 9278  -1.080   2.821   8.186  0.1686 -1.9267 -2.6954
  828MOL0     H 9279  -0.882   2.725   8.277  0.0893 -1.9989 -3.6871
  828MOL0     H 9280  -0.503   2.768   8.625  0.3808  1.1573  0.3949
  828MOL0     H 9281  -0.325   2.629   8.687 -3.2811 -2.1564 -0.4439
  828MOL0     H 9282   0.834   2.361   8.460 -1.6740 -2.8010 -2.4413
  828MOL0     H 9283   1.073   2.451   8.509  1.6182  0.0517 -1.2971
  828MOL0     H 9284   1.350   2.437   8.925  0.3357  2.5030  1.8870
  828MOL0     H 9285   1.558   2.536   8.993 -0.2328  0.1233 -0.3043
  828MOL0     H 9286   1.870   2.626   8.683  0.8908 -0.7615  0.0172
  828MOL0     H 9287   1.907   2.458   8.760  0.6342 -0.7748  0.2784
  828MOL0     H 9288   1.998   2.716   8.880 -3.3539 -1.1444  0.4684
  828MOL0     H 9289   2.018   2.552   8.946 -0.1906  0.1251  1.2529
  828MOL0     H 9290   2.146   2.669   8.688  0.0344 -1.0699 -0.4447
  828MOL0     H 9291   2.146   2.500   8.738  1.7645 -0.4774  2.2707
  828MOL0     H 9292   2.287   2.538   8.917  1.3657  1.2692  0.9678
  828MOL0     H 9293   2.347   2.595   8.768 -0.1567  1.1896 -0.3290
  828MOL0     H 9294   2.329   2.943   8.995  1.8862 -0.2702 -0.0941
  828MOL0     H 9295   1.748   2.412   8.624  1.7557  2.1255  3.1409
  828MOL0     H 9296   1.523   2.318   8.544  1.1403 -0.7288  0.3608
  829MOL0     O 9297   1.258   0.169   0.738  0.4349  0.0302 -0.1616
  829MOL0     C 9298   1.269   0.206   0.618  0.4546  0.2748 -0.1447
  829MOL0     O 9299   1.164   0.248   0.540 -0.6310  0.4954  0.6797
  829MOL0     C 9300   1.039   0.218   0.587  0.1303 -0.2704  0.1356
  829MOL0     C 9301   0.974   0.306   0.674  0.0094 -0.0638 -0.4199
  829MOL0     C 9302   0.845   0.266   0.729 -0.4604  0.3850  0.0356
  829MOL0     C 9303   0.783   0.143   0.691 -0.2426  0.6398 -0.0376
  829MOL0     O 9304   0.660   0.118   0.737 -0.8104 -0.3956  0.4565
  829MOL0     C 9305   0.567   0.068   0.644 -0.3667  0.2435 -0.0597
  829MOL0     C 9306   0.426   0.103   0.688  0.3914  0.5837 -0.3857
  829MOL0     C 9307   0.405   0.031   0.823  0.3302 -0.8505 -0.2653
  829MOL0     C 9308   0.265   0.036   0.865  0.4181  0.0221  0.7507
  829MOL0     C 9309   0.246  -0.043   0.994  0.4589 -0.4143 -0.4084
  829MOL0     C 9310   0.109  -0.033   1.049  0.5476  0.0625 -0.5401
  829MOL0     C 9311  -0.010  -0.094   0.968  0.6984  0.4653 -0.4154
  829MOL0     C 9312  -0.131  -0.078   1.060  0.2755  0.1714 -0.3964
  829MOL0     N 9313  -0.261  -0.090   0.991  0.0469 -0.6322 -0.0197
  829MOL0     C 9314  -0.310  -0.004   0.903  0.0798 -0.1262  0.6764
  829MOL0     C 9315  -0.428  -0.048   0.859 -0.4847  0.1529  0.0339
  829MOL0     C 9316  -0.524   0.016   0.769  0.4567  0.0206  0.1838
  829MOL0     C 9317  -0.651  -0.050   0.725 -0.0543  0.2141 -0.3261
  829MOL0     C 9318  -0.626  -0.152   0.615 -0.3014 -0.0099  0.0989
  829MOL0     C 9319  -0.761  -0.225   0.594  0.5614 -1.1563 -0.4320
  829MOL0     O 9320  -0.840  -0.161   0.491  0.2261 -0.0653 -0.7955
  829MOL0     C 9321  -0.980  -0.143   0.496  0.4736 -0.9403  0.0153
  829MOL0     C 9322  -1.040  -0.096   0.375 -0.0552 -0.0557 -0.4612
  829MOL0     C 9323  -1.179  -0.067   0.361  0.0877  0.2040 -0.5185
  829MOL0     C 9324  -1.264  -0.066   0.473 -1.0871 -0.2668  0.2039
  829MOL0     C 9325  -1.406  -0.037   0.449  0.5653  0.4765  0.7684
  829MOL0     O 9326  -1.442  -0.018   0.323  0.7792 -0.2064 -0.3529
  829MOL0     C 9327  -1.579  -0.010   0.300  0.0177  0.1295 -0.5610
  829MOL0     C 9328  -1.651  -0.131   0.311 -0.0577 -0.2094  0.5659
  829MOL0     C 9329  -1.787  -0.134   0.294  0.3872 -1.1395 -0.0365
  829MOL0     C 9330  -1.858  -0.013   0.264  0.3677  1.4448 -0.7484
  829MOL0     O 9331  -1.997  -0.026   0.256  0.2563  0.8643 -0.5690
  829MOL0     C 9332  -2.059   0.024   0.140 -0.1400 -0.3892 -0.4348
  829MOL0     C 9333  -2.205   0.028   0.186  0.6726 -0.5450 -0.0926
  829MOL0     C 9334  -2.286   0.109   0.071 -0.0507 -0.5123  0.3877
  829MOL0     C 9335  -2.431   0.102   0.102  0.2450 -0.3248 -0.3139
  829MOL0     C 9336  -2.495  -0.027   0.047 -0.3062 -0.6256 -0.5555
  829MOL0     C 9337  -2.641  -0.036   0.093 -0.2572  0.3394  0.4634
  829MOL0     C 9338  -2.728  -0.159   0.049 -0.2523 -0.0253  0.3030
  829MOL0     C 9339  -2.744  -0.173  -0.096 -0.3903 -0.3626 -0.3704
  829MOL0    Cl 9340  -2.856  -0.040  -0.156 -0.1635 -0.2555 -0.0886
  829MOL0     C 9341  -1.788   0.097   0.251  0.1982 -0.8478 -0.5932
  829MOL0     C 9342  -1.648   0.101   0.266  0.8350 -0.2650  0.2898
  829MOL0     O 9343  -1.476  -0.052   0.551  0.3542 -0.5736  0.6272
  829MOL0     C 9344  -1.204  -0.099   0.596 -0.1622  0.4012  0.3120
  829MOL0     C 9345  -1.074  -0.149   0.606 -0.3133 -0.0651 -0.0324
  829MOL0     N 9346  -0.457  -0.163   0.934  0.2395  0.5335  0.7196
  829MOL0     N 9347  -0.345  -0.198   0.989  0.3471  0.2368 -0.4513
  829MOL0     C 9348   0.841   0.069   0.581 -0.7969 -0.7390  0.8054
  829MOL0     C 9349   0.973   0.105   0.538 -0.5227  0.3561 -0.6044
  829MOL0     C 9350   1.407   0.208   0.561 -0.0809 -0.8859 -0.0166
  829MOL0     C 9351   1.521   0.183   0.639 -0.7398  0.3585 -0.6830
  829MOL0     C 9352   1.655   0.168   0.591 -0.1111  0.8186 -0.5141
  829MOL0     C 9353   1.665   0.188   0.457  0.3751 -0.8013  0.6924
  829MOL0     O 9354   1.786   0.162   0.401 -0.3969  0.0519 -0.2951
  829MOL0     C 9355   1.796   0.145   0.261  0.0187  0.1946 -0.0519
  829MOL0     C 9356   1.934   0.109   0.220  0.4748  0.4327  0.2500
  829MOL0     C 9357   2.032   0.224   0.214 -0.3007  0.0729 -1.0974
  829MOL0     C 9358   2.169   0.181   0.246  0.3290 -0.7137 -0.3078
  829MOL0     C 9359   2.203   0.081   0.142 -0.1054 -0.5644  0.5396
  829MOL0     C 9360   2.226   0.005   0.051  0.4457  0.1331 -0.9916
  829MOL0     C 9361   1.550   0.213   0.374 -0.6601 -0.5658  0.5640
  829MOL0     C 9362   1.427   0.223   0.433  0.0915  0.1802  0.1276
  829MOL0     H 9363   1.019   0.399   0.707  0.9793 -1.2057  1.7403
  829MOL0     H 9364   0.797   0.338   0.794 -2.0604  0.9330 -1.6733
  829MOL0     H 9365   0.575  -0.036   0.611  0.4764  0.2939 -0.0196
  829MOL0     H 9366   0.571   0.130   0.554 -0.4964  2.8534  1.6198
  829MOL0     H 9367   0.361   0.063   0.610  0.3727 -1.7208  0.7340
  829MOL0     H 9368   0.414   0.211   0.703  0.5003  0.4378  0.9206
  829MOL0     H 9369   0.453   0.088   0.903  0.3334 -0.8423 -0.2730
  829MOL0     H 9370   0.441  -0.072   0.821 -0.8911 -1.2987 -2.0138
  829MOL0     H 9371   0.242   0.142   0.875  0.4043  0.2779 -1.3547
  829MOL0     H 9372   0.201   0.008   0.780 -0.0448  2.1253  0.3572
  829MOL0     H 9373   0.295   0.012   1.075 -0.2103  0.3420 -0.5009
  829MOL0     H 9374   0.282  -0.146   0.986 -0.1712 -1.0934  3.4495
  829MOL0     H 9375   0.085   0.073   1.065  1.0262 -0.0903  1.4450
  829MOL0     H 9376   0.109  -0.084   1.146 -0.4165  0.9712 -0.0303
  829MOL0     H 9377  -0.032  -0.027   0.884 -0.6960  3.0954  1.8889
  829MOL0     H 9378   0.016  -0.194   0.934 -0.6891  0.0314 -0.2765
  829MOL0     H 9379  -0.128   0.016   1.115 -0.4727  0.3889 -0.7177
  829MOL0     H 9380  -0.115  -0.156   1.135  0.6655 -1.7204 -2.3488
  829MOL0     H 9381  -0.264   0.090   0.874  1.2357 -0.1999  2.1549
  829MOL0     H 9382  -0.469   0.037   0.677 -0.8739  0.0357 -0.6168
  829MOL0     H 9383  -0.548   0.110   0.818 -0.7571 -1.6830  3.1188
  829MOL0     H 9384  -0.714   0.029   0.683  0.3402  1.2447  0.9577
  829MOL0     H 9385  -0.705  -0.096   0.809 -2.4611  0.4067 -1.6816
  829MOL0     H 9386  -0.596  -0.103   0.522 -1.8468  1.0428  0.1230
  829MOL0     H 9387  -0.546  -0.218   0.650  2.5905  2.3971 -1.4922
  829MOL0     H 9388  -0.820  -0.231   0.686  3.2473 -4.0427  1.2954
  829MOL0     H 9389  -0.741  -0.327   0.559 -0.0868 -1.0229 -1.2040
  829MOL0     H 9390  -0.974  -0.065   0.294 -0.6757  3.7038  0.2755
  829MOL0     H 9391  -1.215  -0.055   0.259  2.9389 -1.8552 -1.9070
  829MOL0     H 9392  -1.598  -0.226   0.312  0.5326  0.1114  1.4635
  829MOL0     H 9393  -1.843  -0.226   0.305  1.0265 -1.4078  1.2233
  829MOL0     H 9394  -2.047  -0.033   0.048 -0.2006 -1.1040 -0.0030
  829MOL0     H 9395  -2.015   0.124   0.129  3.5498 -1.5427  1.8543
  829MOL0     H 9396  -2.219   0.077   0.283  1.6185 -0.6357  0.0942
  829MOL0     H 9397  -2.238  -0.076   0.191 -0.0276 -0.3030  0.5599
  829MOL0     H 9398  -2.279   0.058  -0.025  1.3063 -2.6986  1.5541
  829MOL0     H 9399  -2.249   0.212   0.075 -2.3897  0.3695  1.1172
  829MOL0     H 9400  -2.442   0.116   0.210  4.0395 -0.0075  0.1662
  829MOL0     H 9401  -2.483   0.183   0.051 -3.4109  0.6258  4.3084
  829MOL0     H 9402  -2.439  -0.114   0.081  1.5751  0.7700  0.0895
  829MOL0     H 9403  -2.489  -0.019  -0.062  0.0264  0.4504 -0.4672
  829MOL0     H 9404  -2.677   0.064   0.067  2.8089  2.1359  2.4404
  829MOL0     H 9405  -2.644  -0.037   0.203  0.2402  1.8897  0.5175
  829MOL0     H 9406  -2.695  -0.249   0.100 -1.9956 -0.4216  0.8079
  829MOL0     H 9407  -2.827  -0.150   0.095 -0.5825 -3.5342  0.5273
  829MOL0     H 9408  -2.785  -0.272  -0.121  2.5044 -1.7318 -0.1275
  829MOL0     H 9409  -2.645  -0.160  -0.140  0.1282  1.7355  1.2911
  829MOL0     H 9410  -1.842   0.186   0.221  1.4691 -0.8601 -3.2405
  829MOL0     H 9411  -1.603   0.199   0.257 -3.0476  1.6807 -0.2959
  829MOL0     H 9412  -1.267  -0.114   0.683 -1.1521 -2.1999 -0.7380
  829MOL0     H 9413  -1.036  -0.193   0.698  1.5265  2.3928  0.5124
  829MOL0     H 9414   0.796  -0.025   0.552 -2.3392 -0.9619  3.5426
  829MOL0     H 9415   1.024   0.038   0.469 -3.7066 -2.1075 -0.8466
  829MOL0     H 9416   1.502   0.170   0.745  2.4111  0.5492 -0.0022
  829MOL0     H 9417   1.728   0.140   0.666  0.4178  0.0324 -1.3048
  829MOL0     H 9418   1.755   0.232   0.208 -1.1922 -1.0935 -1.3243
  829MOL0     H 9419   1.731   0.062   0.233 -1.5657  1.7790 -1.3802
  829MOL0     H 9420   1.955   0.030   0.293 -0.5957  0.7532  0.9234
  829MOL0     H 9421   1.925   0.064   0.120  3.9257 -1.7928  0.7714
  829MOL0     H 9422   2.001   0.290   0.295  0.8003 -0.3664 -0.2998
  829MOL0     H 9423   2.027   0.283   0.122  0.2647 -0.9467 -1.7964
  829MOL0     H 9424   2.231   0.268   0.224  1.5885 -2.0498 -2.4243
  829MOL0     H 9425   2.185   0.138   0.346 -0.3443 -2.0523 -0.7459
  829MOL0     H 9426   2.256  -0.069  -0.020 -0.8589  1.4810 -3.0390
  829MOL0     H 9427   1.545   0.230   0.267  1.9625 -1.9177  0.1355
  829MOL0     H 9428   1.347   0.245   0.363 -1.9932 -3.1892  1.2177
  830MOL0     O 9429   3.756   2.531  10.609 -0.2675  0.4853 -0.0765
  830MOL0     C 9430   3.813   2.577  10.511  0.4158 -0.2385  0.6195
  830MOL0     O 9431   3.745   2.612  10.394 -0.2475 -0.2001 -0.6157
  830MOL0     C 9432   3.608   2.594  10.391 -0.3724  1.2978 -0.6301
  830MOL0     C 9433   3.524   2.650  10.487 -0.7209 -0.7325 -0.3447
  830MOL0     C 9434   3.384   2.637  10.471  0.6016 -0.2399  0.4144
  830MOL0     C 9435   3.331   2.577  10.356 -0.2549  1.0977  1.3909
  830MOL0     O 9436   3.191   2.554  10.338 -0.5653 -1.4184  0.1402
  830MOL0     C 9437   3.115   2.581  10.456 -0.3544 -0.0993  0.2202
  830MOL0     C 9438   2.967   2.531  10.454  0.6530 -0.3419 -0.0891
  830MOL0     C 9439   2.895   2.557  10.317  0.6541  0.1437 -0.3926
  830MOL0     C 9440   2.752   2.514  10.325  0.7291  0.2041 -1.1851
  830MOL0     C 9441   2.673   2.531  10.195 -0.1356 -1.2622  1.0371
  830MOL0     C 9442   2.520   2.507  10.210  0.1530  0.4600 -0.3889
  830MOL0     C 9443   2.448   2.634  10.270  0.3683 -0.2097  0.1927
  830MOL0     C 9444   2.303   2.587  10.288  0.2075  0.2224 -0.3512
  830MOL0     N 9445   2.213   2.705  10.293  0.6295 -0.4761 -0.4306
  830MOL0     C 9446   2.184   2.776  10.406  0.0079 -1.2558 -0.2457
  830MOL0     C 9447   2.094   2.868  10.365  0.3980 -0.5858  0.5204
  830MOL0     C 9448   2.020   2.953  10.465 -0.1836 -0.4106 -0.5059
  830MOL0     C 9449   1.894   2.901  10.515  0.2447  0.2673  0.9308
  830MOL0     C 9450   1.795   2.868  10.402 -0.3204  0.0536  0.7613
  830MOL0     C 9451   1.657   2.841  10.464 -0.2101 -0.3228 -0.0339
  830MOL0     O 9452   1.648   2.737  10.559  0.2610  0.5149  0.1967
  830MOL0     C 9453   1.528   2.707  10.619  0.3333  0.0557 -0.5862
  830MOL0     C 9454   1.407   2.779  10.600  0.1128 -0.4029 -0.1603
  830MOL0     C 9455   1.288   2.729  10.669 -0.7420  0.6883 -1.4601
  830MOL0     C 9456   1.293   2.630  10.768 -0.9564  0.7682 -0.0339
  830MOL0     C 9457   1.174   2.582  10.846  0.6402 -0.0016  0.2144
  830MOL0     O 9458   1.052   2.615  10.786  0.8086 -0.5733  0.2185
  830MOL0     C 9459   0.933   2.613  10.862 -0.1976  0.2231  0.0339
  830MOL0     C 9460   0.861   2.500  10.916 -0.4064 -0.3849  0.1168
  830MOL0     C 9461   0.755   2.521  11.002  0.8280  0.3789  0.0224
  830MOL0     C 9462   0.698   2.650  11.022 -0.3285  0.2471 -0.2256
  830MOL0     O 9463   0.591   2.655  11.113  0.0768  0.7308  0.3388
  830MOL0     C 9464   0.609   2.753  11.219 -0.3803 -0.9286  0.7174
  830MOL0     C 9465   0.506   2.741  11.324  1.6703 -0.5210 -0.7784
  830MOL0     C 9466   0.375   2.803  11.262  0.9079 -0.0354 -0.0766
  830MOL0     C 9467   0.255   2.792  11.351 -0.2063  0.7651 -0.1756
  830MOL0     C 9468   0.120   2.836  11.285 -0.1717  0.1382 -0.7363
  830MOL0     C 9469   0.012   2.839  11.392 -0.6094  0.4466  0.3116
  830MOL0     C 9470  -0.128   2.867  11.332 -0.2016  0.4056 -0.1442
  830MOL0     C 9471  -0.133   2.993  11.256 -0.3894  0.3302  0.0959
  830MOL0    Cl 9472  -0.127   3.116  11.380  0.2141 -0.2847 -0.4219
  830MOL0     C 9473   0.773   2.760  10.972 -0.9914 -0.2673  0.0453
  830MOL0     C 9474   0.887   2.740  10.894  0.2113 -0.4177  0.5744
  830MOL0     O 9475   1.197   2.534  10.954 -0.0489 -0.0245  0.1876
  830MOL0     C 9476   1.416   2.558  10.778  0.0856  0.0421 -0.5063
  830MOL0     C 9477   1.527   2.601  10.700 -0.6955  0.2514 -0.2477
  830MOL0     N 9478   2.055   2.856  10.236 -0.2250  0.1118 -0.2756
  830MOL0     N 9479   2.126   2.745  10.194 -0.8706 -0.9880  0.4571
  830MOL0     C 9480   3.417   2.525  10.258 -0.3677 -0.5180  0.0231
  830MOL0     C 9481   3.554   2.542  10.273  0.2783  0.1830 -0.0891
  830MOL0     C 9482   3.965   2.592  10.514  0.0344  0.2623 -0.2009
  830MOL0     C 9483   4.038   2.627  10.405 -0.4324 -0.2815  0.3877
  830MOL0     C 9484   4.173   2.651  10.413  0.1475 -0.4689 -0.4742
  830MOL0     C 9485   4.246   2.620  10.531 -1.2355  0.2226 -0.5981
  830MOL0     O 9486   4.389   2.636  10.539  0.0572 -0.1325  0.6292
  830MOL0     C 9487   4.461   2.696  10.425  0.1381  0.5285  0.1425
  830MOL0     C 9488   4.600   2.722  10.477  0.4069 -0.1418 -0.1255
  830MOL0     C 9489   4.668   2.814  10.372  0.8108  0.2118 -0.2598
  830MOL0     C 9490   4.788   2.883  10.433 -1.0024  0.3745 -0.4001
  830MOL0     C 9491   4.878   2.775  10.477 -0.4635 -0.5832  0.0319
  830MOL0     C 9492   4.958   2.692  10.517  0.3358  0.3514  0.4078
  830MOL0     C 9493   4.175   2.583  10.645 -0.7956  0.7693  1.1111
  830MOL0     C 9494   4.035   2.566  10.637  0.1539  0.3825 -0.1086
  830MOL0     H 9495   3.569   2.697  10.574  1.0286  1.1063 -2.1352
  830MOL0     H 9496   3.315   2.681  10.542 -0.1304  0.3682 -0.6502
  830MOL0     H 9497   3.117   2.686  10.487  2.7770  0.4545 -1.4411
  830MOL0     H 9498   3.163   2.517  10.531  1.8653  2.1365  0.8677
  830MOL0     H 9499   2.917   2.578  10.540  1.0410 -0.3162  0.1280
  830MOL0     H 9500   2.963   2.424  10.475 -1.4372 -0.6237 -1.6491
  830MOL0     H 9501   2.945   2.493  10.244 -0.3126  1.7607 -2.5927
  830MOL0     H 9502   2.898   2.660  10.280 -0.0490 -0.9557 -3.9452
  830MOL0     H 9503   2.751   2.408  10.351  1.3157  0.8371  1.7809
  830MOL0     H 9504   2.693   2.561  10.404  0.9440 -4.6604  2.2763
  830MOL0     H 9505   2.716   2.450  10.135  3.0961  2.1585 -1.7051
  830MOL0     H 9506   2.686   2.628  10.148 -0.3055 -0.7038  2.1046
  830MOL0     H 9507   2.503   2.420  10.274  0.0511  0.7377 -0.0398
  830MOL0     H 9508   2.479   2.481  10.112 -1.2822  1.2262 -0.0104
  830MOL0     H 9509   2.490   2.668  10.365  0.7018 -3.3472  1.2724
  830MOL0     H 9510   2.462   2.712  10.195 -0.8654  1.5009  1.6607
  830MOL0     H 9511   2.309   2.537  10.386  3.3492  0.2509 -0.4224
  830MOL0     H 9512   2.275   2.517  10.209 -0.3573  0.7844 -0.6539
  830MOL0     H 9513   2.216   2.761  10.508  0.1618  2.0578  0.2899
  830MOL0     H 9514   1.999   3.045  10.409  0.1916 -1.9101 -3.2874
  830MOL0     H 9515   2.087   2.972  10.549 -0.4594  0.2140 -0.4201
  830MOL0     H 9516   1.857   2.984  10.577  1.7316  0.3439  1.7660
  830MOL0     H 9517   1.910   2.807  10.569  0.6206 -0.7218 -0.8262
  830MOL0     H 9518   1.785   2.951  10.332 -0.5200  0.7144  1.5501
  830MOL0     H 9519   1.828   2.771  10.365 -0.5825 -1.2419  3.6159
  830MOL0     H 9520   1.588   2.826  10.380  0.9055 -1.3828 -0.8053
  830MOL0     H 9521   1.632   2.928  10.524  1.3948 -1.8417  3.0838
  830MOL0     H 9522   1.388   2.860  10.529  0.4079  1.7958  2.1309
  830MOL0     H 9523   1.187   2.767  10.654 -1.3381 -0.7945 -1.4287
  830MOL0     H 9524   0.892   2.397  10.902 -0.7767 -1.0953  3.4928
  830MOL0     H 9525   0.699   2.437  11.041 -0.1123  1.9642  2.3369
  830MOL0     H 9526   0.609   2.857  11.186  0.8282 -1.1826 -0.1810
  830MOL0     H 9527   0.711   2.748  11.258 -0.0228  2.0843  0.3933
  830MOL0     H 9528   0.540   2.800  11.410 -0.8596  2.5049 -1.6773
  830MOL0     H 9529   0.485   2.636  11.347 -1.5930 -0.0013 -1.0050
  830MOL0     H 9530   0.368   2.765  11.159  4.4114 -0.2028 -0.3947
  830MOL0     H 9531   0.385   2.912  11.249 -0.2094  0.1336  0.3902
  830MOL0     H 9532   0.244   2.690  11.390 -1.7357  0.6143 -0.9148
  830MOL0     H 9533   0.278   2.854  11.438  0.2073 -1.4718  1.4060
  830MOL0     H 9534   0.095   2.757  11.214  2.0495 -1.0111 -0.3173
  830MOL0     H 9535   0.122   2.929  11.226 -2.1043 -0.7240 -2.2586
  830MOL0     H 9536   0.044   2.917  11.461 -1.8768 -0.7126  2.3062
  830MOL0     H 9537   0.005   2.740  11.438  1.1166  0.6570  1.1425
  830MOL0     H 9538  -0.146   2.776  11.275  2.9945 -0.0328 -0.6905
  830MOL0     H 9539  -0.201   2.862  11.413  0.5759  0.6912  0.6011
  830MOL0     H 9540  -0.236   2.990  11.218 -0.6614 -3.0810  0.7984
  830MOL0     H 9541  -0.057   3.002  11.178 -0.6375  1.7187 -0.0098
  830MOL0     H 9542   0.734   2.861  10.985 -0.6185 -0.2605  1.1480
  830MOL0     H 9543   0.938   2.823  10.845  0.1537 -2.3023 -3.0300
  830MOL0     H 9544   1.432   2.484  10.856 -1.4057  0.6437  0.4026
  830MOL0     H 9545   1.620   2.546  10.703 -0.7927  0.0392 -0.9433
  830MOL0     H 9546   3.366   2.486  10.171 -1.3464  1.2180 -0.2442
  830MOL0     H 9547   3.626   2.526  10.194  0.9928  0.6559  0.4598
  830MOL0     H 9548   3.991   2.640  10.308  3.0504 -0.1077 -1.4223
  830MOL0     H 9549   4.231   2.675  10.324  2.8299  0.4782  1.4234
  830MOL0     H 9550   4.406   2.783  10.388  0.1604  0.3224 -0.3866
  830MOL0     H 9551   4.462   2.627  10.340  0.3054  1.5015 -0.6741
  830MOL0     H 9552   4.592   2.777  10.571  3.0319  0.7461 -0.3343
  830MOL0     H 9553   4.654   2.628  10.489 -2.0450 -1.6155  0.1019
  830MOL0     H 9554   4.607   2.903  10.356 -0.5508 -0.3741  1.3440
  830MOL0     H 9555   4.695   2.763  10.279  1.8291 -0.1135  0.2009
  830MOL0     H 9556   4.829   2.953  10.361 -1.3634  1.7729  0.7219
  830MOL0     H 9557   4.756   2.945  10.517  1.3848  0.9991  0.1048
  830MOL0     H 9558   5.018   2.609  10.547  1.3968  1.3224  1.0507
  830MOL0     H 9559   4.237   2.555  10.730 -1.2161  0.5252  1.3409
  830MOL0     H 9560   3.976   2.541  10.725  2.6185 -0.2299  1.4614
  831MOL0     O 9561  10.427   7.737   2.340  0.0570  0.1345  0.9522
  831MOL0     C 9562  10.452   7.676   2.445  0.8225  0.8029  1.1777
  831MOL0     O 9563  10.369   7.656   2.544 -0.3726 -0.2182  0.0916
  831MOL0     C 9564  10.240   7.690   2.528 -0.0010 -0.3405  0.0545
  831MOL0     C 9565  10.199   7.826   2.554  0.2471  0.0747  0.0749
  831MOL0     C 9566  10.067   7.862   2.536  0.0469  0.3379  0.0660
  831MOL0     C 9567   9.966   7.772   2.510  0.6508 -0.0365  0.9597
  831MOL0     O 9568   9.826   7.794   2.497  0.6300 -0.3053 -0.4404
  831MOL0     C 9569   9.786   7.874   2.611  0.9004 -0.6497  0.0481
  831MOL0     C 9570   9.630   7.921   2.595  0.5850 -0.5042  0.1358
  831MOL0     C 9571   9.607   7.999   2.466 -0.2330 -0.2258 -0.1709
  831MOL0     C 9572   9.467   8.056   2.467  0.2821 -0.3263  0.2446
  831MOL0     C 9573   9.399   8.046   2.325 -0.4049 -0.3210  0.4000
  831MOL0     C 9574   9.280   8.139   2.337 -0.3025  0.4311 -0.8588
  831MOL0     C 9575   9.315   8.283   2.303 -0.3952  0.2456 -0.4518
  831MOL0     C 9576   9.266   8.395   2.405  0.5375 -0.1899 -0.0184
  831MOL0     N 9577   9.121   8.408   2.376 -0.2887  0.0003  0.6482
  831MOL0     C 9578   9.022   8.334   2.426 -0.1680 -0.2931 -0.1662
  831MOL0     C 9579   8.906   8.375   2.377  0.8407 -0.7476  0.0659
  831MOL0     C 9580   8.769   8.318   2.418  0.1773  0.0228 -0.9762
  831MOL0     C 9581   8.653   8.368   2.333 -0.2798  0.7206  0.5716
  831MOL0     C 9582   8.535   8.285   2.377  0.0706 -0.2671  0.8037
  831MOL0     C 9583   8.415   8.329   2.300  0.2497 -0.0726 -0.4093
  831MOL0     O 9584   8.356   8.455   2.343 -0.2644 -0.3540 -0.5616
  831MOL0     C 9585   8.225   8.473   2.362 -0.1835  0.6416 -1.0292
  831MOL0     C 9586   8.181   8.565   2.450  0.1265 -1.4852  0.0802
  831MOL0     C 9587   8.045   8.571   2.490 -0.9695  0.3155 -0.0557
  831MOL0     C 9588   7.949   8.480   2.429 -0.4329 -1.9041  0.4128
  831MOL0     C 9589   7.810   8.485   2.462  0.2321  0.3957 -0.0675
  831MOL0     O 9590   7.758   8.599   2.523 -0.2471  0.3175 -0.0156
  831MOL0     C 9591   7.628   8.605   2.570  0.2232  0.0048  0.0628
  831MOL0     C 9592   7.593   8.736   2.608 -0.3324  0.3182  1.1752
  831MOL0     C 9593   7.467   8.759   2.660  0.1837 -0.8595 -0.2133
  831MOL0     C 9594   7.376   8.659   2.686 -0.8985  0.2442  0.6965
  831MOL0     O 9595   7.256   8.687   2.743 -0.3150  0.0330 -0.0806
  831MOL0     C 9596   7.150   8.592   2.751  0.1340 -0.6047  0.5686
  831MOL0     C 9597   7.015   8.660   2.780 -0.0972 -0.1758  0.5610
  831MOL0     C 9598   6.895   8.557   2.793  1.2312  0.6211 -0.8508
  831MOL0     C 9599   6.764   8.614   2.828  0.1724 -0.4187  0.7648
  831MOL0     C 9600   6.667   8.507   2.879 -0.5372 -0.1297  0.7536
  831MOL0     C 9601   6.536   8.556   2.937  0.9179 -0.2539  0.0632
  831MOL0     C 9602   6.446   8.643   2.843  0.1462 -0.4379  0.6397
  831MOL0     C 9603   6.418   8.571   2.711  0.4474  0.8460 -0.0898
  831MOL0    Cl 9604   6.328   8.420   2.764 -0.2731  0.5537  0.0753
  831MOL0     C 9605   7.413   8.524   2.656  0.5064  0.0893 -0.1326
  831MOL0     C 9606   7.534   8.499   2.596  0.1806  0.8351  0.2434
  831MOL0     O 9607   7.746   8.384   2.438 -0.2850 -0.1167 -0.5578
  831MOL0     C 9608   8.001   8.401   2.326  0.4240  0.0155  0.5466
  831MOL0     C 9609   8.139   8.391   2.298  0.3647 -0.6454  0.2837
  831MOL0     N 9610   8.938   8.481   2.282  0.1455 -0.4073 -0.6586
  831MOL0     N 9611   9.063   8.504   2.294 -0.9815  0.5265  0.3589
  831MOL0     C 9612  10.013   7.645   2.464  0.1370 -0.2459 -0.4141
  831MOL0     C 9613  10.147   7.602   2.475 -1.0516  0.0025  0.7994
  831MOL0     C 9614  10.585   7.616   2.460  0.0142 -0.5911 -0.2093
  831MOL0     C 9615  10.612   7.552   2.581 -0.1732  0.1547 -0.0891
  831MOL0     C 9616  10.729   7.488   2.602  0.2988  0.4849 -0.4795
  831MOL0     C 9617  10.832   7.491   2.503  0.1173  0.0939  0.1826
  831MOL0     O 9618  10.938   7.413   2.531 -0.1395  0.4112 -0.0883
  831MOL0     C 9619  11.047   7.416   2.439  0.1599  0.4512  0.4215
  831MOL0     C 9620  11.147   7.315   2.490 -0.3641  0.1861 -0.1933
  831MOL0     C 9621  11.204   7.351   2.634 -0.7939 -0.1841 -0.1447
  831MOL0     C 9622  11.308   7.237   2.678 -0.4433 -0.4272  1.0642
  831MOL0     C 9623  11.435   7.251   2.604 -0.4802  0.2536 -0.1465
  831MOL0     C 9624  11.539   7.244   2.542  0.1632 -0.0180  0.1767
  831MOL0     C 9625  10.815   7.567   2.390 -0.4001  0.1679 -0.5140
  831MOL0     C 9626  10.688   7.633   2.364 -0.6528 -0.0653  0.4095
  831MOL0     H 9627  10.261   7.912   2.577 -0.6067  1.3808 -2.1737
  831MOL0     H 9628  10.045   7.968   2.533 -0.1182  0.3224  0.6109
  831MOL0     H 9629   9.844   7.966   2.623  0.0563  0.3953 -2.9834
  831MOL0     H 9630   9.793   7.825   2.708 -1.4672  1.4919  1.4267
  831MOL0     H 9631   9.597   7.982   2.680  0.7157  1.0039 -0.8522
  831MOL0     H 9632   9.566   7.833   2.596 -1.0973  0.6767 -0.1431
  831MOL0     H 9633   9.621   7.929   2.383  0.6377 -0.3238  0.0471
  831MOL0     H 9634   9.683   8.076   2.452  0.2298 -0.3801  1.3270
  831MOL0     H 9635   9.407   7.989   2.530 -0.3583  1.0854  1.1725
  831MOL0     H 9636   9.475   8.157   2.507  0.2759  0.1832 -0.9825
  831MOL0     H 9637   9.366   7.942   2.321 -0.5313 -0.5059  3.5072
  831MOL0     H 9638   9.470   8.068   2.245 -0.9966 -0.1439 -0.0882
  831MOL0     H 9639   9.246   8.131   2.441  2.8458 -1.1138  0.1917
  831MOL0     H 9640   9.201   8.107   2.268 -0.5837 -0.2363 -0.2456
  831MOL0     H 9641   9.425   8.286   2.304 -0.3655 -0.6443 -0.3007
  831MOL0     H 9642   9.282   8.307   2.201 -1.5945 -0.7010 -0.3019
  831MOL0     H 9643   9.306   8.491   2.371 -1.0417  0.0330 -1.3380
  831MOL0     H 9644   9.282   8.374   2.511 -1.6532 -3.6949 -0.2241
  831MOL0     H 9645   9.020   8.260   2.506 -1.1381 -0.8484 -0.6801
  831MOL0     H 9646   8.753   8.334   2.525  0.8205  2.0390 -1.1399
  831MOL0     H 9647   8.778   8.209   2.410  2.2904  0.1496 -0.8548
  831MOL0     H 9648   8.679   8.366   2.226  1.9362 -0.3731  1.0743
  831MOL0     H 9649   8.633   8.470   2.365 -1.3458  0.9997 -0.8996
  831MOL0     H 9650   8.537   8.180   2.344  0.7942  0.6092 -2.2991
  831MOL0     H 9651   8.530   8.288   2.486 -3.0403 -0.2724  0.7712
  831MOL0     H 9652   8.343   8.247   2.310 -0.4583  0.0618 -3.3856
  831MOL0     H 9653   8.450   8.349   2.198  0.5635 -0.6786 -0.4240
  831MOL0     H 9654   8.262   8.629   2.483 -1.6028  1.3029 -0.7645
  831MOL0     H 9655   8.016   8.647   2.561 -0.0339  3.3830 -2.6829
  831MOL0     H 9656   7.652   8.825   2.593 -0.7138  0.2934 -0.6625
  831MOL0     H 9657   7.441   8.859   2.695 -1.0703  0.1465 -3.6847
  831MOL0     H 9658   7.157   8.513   2.826 -2.2633 -0.4250  1.0571
  831MOL0     H 9659   7.146   8.543   2.654 -0.9817 -1.0641  0.8271
  831MOL0     H 9660   6.995   8.732   2.700 -0.9056 -0.5028  0.4620
  831MOL0     H 9661   7.020   8.729   2.865  1.7762  2.4144 -1.4663
  831MOL0     H 9662   6.927   8.479   2.863  0.0770  1.6601  0.9150
  831MOL0     H 9663   6.874   8.498   2.703 -3.0467  2.1319 -1.0576
  831MOL0     H 9664   6.775   8.703   2.891 -0.7767  1.9334 -2.1480
  831MOL0     H 9665   6.725   8.654   2.734 -1.9210  1.0062  2.1494
  831MOL0     H 9666   6.720   8.436   2.943  0.7405 -1.1956 -1.3850
  831MOL0     H 9667   6.644   8.445   2.792  1.8600 -0.6694  0.4274
  831MOL0     H 9668   6.551   8.611   3.030  0.1427  1.1184 -0.5849
  831MOL0     H 9669   6.487   8.463   2.964 -3.1991  1.3098 -1.2981
  831MOL0     H 9670   6.352   8.674   2.888  0.2110 -1.1320  1.2702
  831MOL0     H 9671   6.495   8.738   2.820  0.6734 -1.2535 -1.9226
  831MOL0     H 9672   6.495   8.526   2.647 -2.7686 -4.6564 -0.6842
  831MOL0     H 9673   6.353   8.638   2.654 -1.3504 -0.3098  0.5531
  831MOL0     H 9674   7.347   8.438   2.668  0.3862 -0.0283 -1.4653
  831MOL0     H 9675   7.561   8.394   2.584  0.1914  1.0576 -2.1075
  831MOL0     H 9676   7.935   8.337   2.267  1.2642  0.7454 -1.2516
  831MOL0     H 9677   8.173   8.335   2.211  0.5705 -1.0808  0.6418
  831MOL0     H 9678   9.936   7.576   2.432  2.0836 -3.1138  0.6548
  831MOL0     H 9679  10.178   7.504   2.441  0.5554  1.0107 -0.8157
  831MOL0     H 9680  10.534   7.542   2.655 -2.0844 -0.7100 -2.1082
  831MOL0     H 9681  10.744   7.425   2.689  0.5694  0.6946 -0.3728
  831MOL0     H 9682  11.085   7.518   2.433 -1.6777  1.0997 -3.9216
  831MOL0     H 9683  11.020   7.384   2.338  1.3495 -1.7408  0.7206
  831MOL0     H 9684  11.106   7.213   2.482 -2.5962  1.0084 -0.0946
  831MOL0     H 9685  11.226   7.322   2.415  1.0871 -2.1936  0.9864
  831MOL0     H 9686  11.123   7.357   2.708 -0.8570 -0.2858 -0.2051
  831MOL0     H 9687  11.252   7.449   2.634 -1.3884  0.1221  0.5964
  831MOL0     H 9688  11.329   7.249   2.785  0.9347  1.0920  0.6639
  831MOL0     H 9689  11.264   7.140   2.655  0.8230 -0.8740  0.4354
  831MOL0     H 9690  11.635   7.248   2.496 -0.0337  0.0509 -0.2324
  831MOL0     H 9691  10.893   7.572   2.314  1.1483  1.9646  1.0705
  831MOL0     H 9692  10.677   7.697   2.277 -0.5002  0.3108  0.6623
  832MOL0     O 9693   1.814   8.428   1.281  0.6961 -0.8934  0.0257
  832MOL0     C 9694   1.783   8.420   1.162  0.6248 -0.5641  0.7607
  832MOL0     O 9695   1.661   8.378   1.117 -0.7096  0.0205 -0.0781
  832MOL0     C 9696   1.568   8.358   1.210  0.7423 -0.1526  1.0574
  832MOL0     C 9697   1.468   8.456   1.230  0.2489  0.8023 -0.0936
  832MOL0     C 9698   1.358   8.428   1.320 -0.6722 -0.6471  1.1475
  832MOL0     C 9699   1.347   8.303   1.377 -0.1124  0.4040 -0.3543
  832MOL0     O 9700   1.238   8.279   1.462  0.0729 -0.0828 -0.2767
  832MOL0     C 9701   1.253   8.180   1.565  0.6704  0.4478 -0.4020
  832MOL0     C 9702   1.186   8.048   1.517 -0.1331 -0.3631 -0.9342
  832MOL0     C 9703   1.044   8.067   1.466  0.7733 -0.0633  0.9691
  832MOL0     C 9704   0.946   8.102   1.576 -1.3399 -0.0586 -0.8678
  832MOL0     C 9705   0.811   8.126   1.518  0.7339 -0.4346  0.6480
  832MOL0     C 9706   0.723   8.208   1.614 -0.1618  0.3026 -0.4329
  832MOL0     C 9707   0.589   8.214   1.556 -0.2454 -0.1341 -0.4768
  832MOL0     C 9708   0.484   8.269   1.656 -0.9319  0.4058  0.4736
  832MOL0     N 9709   0.351   8.279   1.582 -0.0993 -0.1888 -0.3993
  832MOL0     C 9710   0.255   8.190   1.601 -0.3492  0.0129 -0.8215
  832MOL0     C 9711   0.153   8.236   1.518 -0.0559 -0.0418  0.7849
  832MOL0     C 9712   0.024   8.168   1.506  0.0047 -0.2176 -0.1926
  832MOL0     C 9713   0.003   8.104   1.365  0.0769 -0.3475 -0.1277
  832MOL0     C 9714   0.011   8.216   1.250 -0.2546  0.8500 -0.2964
  832MOL0     C 9715   0.001   8.144   1.113 -0.6968 -0.2393  0.6246
  832MOL0     O 9716   0.105   8.043   1.094 -0.1048 -0.3916  0.3663
  832MOL0     C 9717   0.232   8.087   1.070 -0.2565  0.0791  0.3169
  832MOL0     C 9718   0.337   7.996   1.101 -0.7848  0.2255 -0.0653
  832MOL0     C 9719   0.471   8.034   1.077 -0.0712 -0.4416  0.2708
  832MOL0     C 9720   0.509   8.161   1.021  0.5354 -0.2487  0.9907
  832MOL0     C 9721   0.646   8.206   1.016 -0.7279  0.0852  0.2800
  832MOL0     O 9722   0.671   8.335   0.993 -0.8996  0.1742  0.0503
  832MOL0     C 9723   0.800   8.371   0.961  0.3529  0.4165  0.0580
  832MOL0     C 9724   0.839   8.391   0.828  0.4540 -0.3526  0.3535
  832MOL0     C 9725   0.973   8.419   0.799 -0.0759 -0.9649 -0.0845
  832MOL0     C 9726   1.067   8.430   0.901  0.7704 -0.9773 -0.2400
  832MOL0     O 9727   1.196   8.471   0.864 -0.3203 -0.3090 -0.2359
  832MOL0     C 9728   1.294   8.500   0.966 -0.3519 -1.0196 -0.2349
  832MOL0     C 9729   1.371   8.634   0.922  0.8619 -0.0739 -0.5964
  832MOL0     C 9730   1.435   8.623   0.789 -0.0106  0.1993  0.4638
  832MOL0     C 9731   1.489   8.759   0.743  0.2660  0.9995 -0.4095
  832MOL0     C 9732   1.554   8.743   0.607  0.8912  0.7461  0.2693
  832MOL0     C 9733   1.612   8.866   0.561 -0.6609 -0.5136 -0.0047
  832MOL0     C 9734   1.677   8.855   0.425 -0.5663  0.3759 -0.0963
  832MOL0     C 9735   1.703   8.990   0.365 -0.3480  0.3819  0.2596
  832MOL0    Cl 9736   1.560   9.085   0.349 -0.4066 -0.6800  0.6017
  832MOL0     C 9737   1.024   8.398   1.034 -0.2145  0.4440 -0.4689
  832MOL0     C 9738   0.892   8.376   1.067 -0.1374  0.3218  0.5945
  832MOL0     O 9739   0.728   8.121   1.043 -0.8647  0.0251 -0.1613
  832MOL0     C 9740   0.405   8.255   0.989  0.1575  0.1543 -0.3456
  832MOL0     C 9741   0.274   8.217   1.016 -0.4733  0.8963 -0.4967
  832MOL0     N 9742   0.207   8.338   1.448 -1.2217  0.3861  1.2158
  832MOL0     N 9743   0.327   8.371   1.489 -0.7501  0.0187 -0.0651
  832MOL0     C 9744   1.443   8.203   1.356  0.5020 -0.5409  0.5093
  832MOL0     C 9745   1.554   8.237   1.275 -0.5953  1.2881 -0.4299
  832MOL0     C 9746   1.881   8.468   1.071 -0.3158 -0.4699 -0.1795
  832MOL0     C 9747   2.012   8.522   1.100 -0.3275 -0.9129  0.5731
  832MOL0     C 9748   2.099   8.576   1.005 -0.6556  0.0645 -0.3877
  832MOL0     C 9749   2.064   8.578   0.871 -0.7213 -0.1450 -0.1953
  832MOL0     O 9750   2.165   8.610   0.781 -0.2117 -0.2594 -0.4748
  832MOL0     C 9751   2.136   8.609   0.643  0.0747  0.6202 -0.9714
  832MOL0     C 9752   2.068   8.737   0.593 -0.4471 -0.8073 -0.2287
  832MOL0     C 9753   2.151   8.866   0.601  0.2600 -0.3480 -0.1286
  832MOL0     C 9754   2.077   8.993   0.544 -0.2363  0.5995 -0.4543
  832MOL0     C 9755   2.070   8.997   0.395 -0.2417  0.3471  0.5270
  832MOL0     C 9756   2.063   8.997   0.269 -0.2463  0.2264 -0.1018
  832MOL0     C 9757   1.927   8.547   0.846 -1.0580  0.0256  0.1373
  832MOL0     C 9758   1.841   8.500   0.940  0.4754  0.3601 -0.7527
  832MOL0     H 9759   1.476   8.553   1.182 -3.7099  1.2347 -0.2185
  832MOL0     H 9760   1.284   8.505   1.339 -1.6494 -1.2052 -0.2095
  832MOL0     H 9761   1.201   8.207   1.657  2.9195 -1.2621  1.4967
  832MOL0     H 9762   1.358   8.165   1.594  0.1266 -1.8563  0.5159
  832MOL0     H 9763   1.172   7.976   1.598 -1.5482 -1.6309 -2.2346
  832MOL0     H 9764   1.235   7.997   1.433 -1.6083 -2.5397 -0.5533
  832MOL0     H 9765   1.006   7.977   1.417 -0.8785  1.5808 -0.9319
  832MOL0     H 9766   1.038   8.145   1.390  0.7329  1.0204  2.0603
  832MOL0     H 9767   0.946   8.028   1.656 -0.5952  1.3389  0.4738
  832MOL0     H 9768   0.987   8.196   1.615  3.2797 -2.0274 -0.2827
  832MOL0     H 9769   0.771   8.026   1.497  1.8732 -1.2526  2.1785
  832MOL0     H 9770   0.821   8.182   1.425  2.1955  0.5531  1.3686
  832MOL0     H 9771   0.762   8.308   1.636 -2.1066  0.6455  1.9751
  832MOL0     H 9772   0.719   8.172   1.717 -0.1948  1.1752 -0.1173
  832MOL0     H 9773   0.595   8.284   1.472 -1.1368  1.1169  0.4462
  832MOL0     H 9774   0.551   8.122   1.511 -0.5394 -1.5851  2.4662
  832MOL0     H 9775   0.509   8.368   1.694  3.4223 -0.1865 -0.3857
  832MOL0     H 9776   0.472   8.190   1.731  3.3982 -0.6703  0.2752
  832MOL0     H 9777   0.259   8.111   1.676 -0.5412  2.3423  1.7889
  832MOL0     H 9778  -0.046   8.250   1.524  2.1654  1.9528 -1.0491
  832MOL0     H 9779   0.001   8.099   1.587  2.5881  0.7430  1.4896
  832MOL0     H 9780  -0.091   8.048   1.357  0.6160 -1.3148  0.1483
  832MOL0     H 9781   0.086   8.034   1.351 -1.3212 -2.2376  0.5158
  832MOL0     H 9782  -0.064   8.294   1.266  1.3019  1.9239  2.7542
  832MOL0     H 9783   0.102   8.276   1.238 -0.6382  1.3149 -0.9268
  832MOL0     H 9784   0.010   8.229   1.045  2.0294 -0.2975  0.7699
  832MOL0     H 9785  -0.099   8.102   1.106  0.8533 -4.7260  1.6332
  832MOL0     H 9786   0.315   7.898   1.142 -1.2147  1.1521  2.0366
  832MOL0     H 9787   0.556   7.974   1.106  1.2638  0.1578 -2.0929
  832MOL0     H 9788   0.769   8.375   0.747  1.4532 -3.2674 -0.0479
  832MOL0     H 9789   0.999   8.433   0.695 -1.2895 -0.6381 -0.3559
  832MOL0     H 9790   1.367   8.421   0.980  0.1222 -0.6085 -0.3484
  832MOL0     H 9791   1.243   8.535   1.056  1.5713  0.7250  0.2582
  832MOL0     H 9792   1.451   8.655   0.994  0.7221  1.4207 -0.8543
  832MOL0     H 9793   1.303   8.719   0.925 -0.2265 -0.9159  1.1750
  832MOL0     H 9794   1.368   8.587   0.710  0.3818 -1.8132  0.9943
  832MOL0     H 9795   1.519   8.554   0.795 -0.0427  0.2628  2.1198
  832MOL0     H 9796   1.403   8.827   0.736 -0.0264  0.5183 -1.8102
  832MOL0     H 9797   1.549   8.792   0.828 -1.5746  1.5403  0.7350
  832MOL0     H 9798   1.474   8.719   0.537  0.4035 -1.3430  1.4633
  832MOL0     H 9799   1.632   8.667   0.600 -1.2038 -1.4129 -1.0064
  832MOL0     H 9800   1.692   8.891   0.631  2.8198 -0.3473 -3.6886
  832MOL0     H 9801   1.535   8.943   0.562 -0.0933  0.0637 -0.1722
  832MOL0     H 9802   1.767   8.794   0.432  0.2030  1.4273 -0.5110
  832MOL0     H 9803   1.611   8.797   0.361 -3.0620  2.1436  0.6993
  832MOL0     H 9804   1.747   8.973   0.266  0.5655 -0.4611  0.7815
  832MOL0     H 9805   1.782   9.051   0.411  0.0126 -0.1806  0.4053
  832MOL0     H 9806   1.101   8.382   1.109 -1.0323 -1.5042  0.0182
  832MOL0     H 9807   0.856   8.356   1.167 -1.1718 -0.4217  0.0995
  832MOL0     H 9808   0.413   8.353   0.943 -0.3773  0.4209  0.1069
  832MOL0     H 9809   0.207   8.297   0.987  1.1047  1.3494 -3.2442
  832MOL0     H 9810   1.422   8.100   1.384 -3.3817 -0.3679 -1.1098
  832MOL0     H 9811   1.626   8.156   1.264 -0.1627  1.4489  1.0110
  832MOL0     H 9812   2.052   8.507   1.200 -1.6065 -0.8121  1.1231
  832MOL0     H 9813   2.200   8.594   1.041 -0.1434 -1.2480 -1.1241
  832MOL0     H 9814   2.069   8.524   0.624  0.6788 -0.0998  0.0003
  832MOL0     H 9815   2.229   8.576   0.596  0.2882 -0.7519  0.3427
  832MOL0     H 9816   2.029   8.724   0.491  0.9230  1.2605 -1.0826
  832MOL0     H 9817   1.985   8.751   0.663  0.4154  0.7540  0.5288
  832MOL0     H 9818   2.233   8.840   0.533  0.1141 -2.0526  0.3117
  832MOL0     H 9819   2.188   8.882   0.703 -1.5097 -0.4728  0.5676
  832MOL0     H 9820   1.975   9.000   0.582 -0.0145  0.1787  0.2333
  832MOL0     H 9821   2.133   9.083   0.571  2.2310 -1.1185  0.5183
  832MOL0     H 9822   2.052   9.010   0.163 -0.6631 -0.3220 -0.1312
  832MOL0     H 9823   1.881   8.557   0.749 -2.3639 -1.5651  0.5438
  832MOL0     H 9824   1.739   8.476   0.913 -0.4395  3.7226 -0.6816
  833MOL0     O 9825   3.561   3.834  10.173 -0.2420 -0.1507  0.1649
  833MOL0     C 9826   3.562   3.891  10.284 -0.0034 -0.3544  0.5846
  833MOL0     O 9827   3.472   3.873  10.377  0.1606  0.0115 -0.3366
  833MOL0     C 9828   3.380   3.767  10.357 -0.8759 -0.2694 -0.1701
  833MOL0     C 9829   3.411   3.636  10.332  0.0541  0.0777  0.0703
  833MOL0     C 9830   3.321   3.532  10.338  0.3566 -0.6315 -0.0434
  833MOL0     C 9831   3.188   3.557  10.357 -0.0423  0.3861 -0.0252
  833MOL0     O 9832   3.097   3.458  10.362  0.1135 -0.5987  0.3801
  833MOL0     C 9833   3.065   3.391  10.236 -0.4932 -0.0114 -0.3295
  833MOL0     C 9834   3.008   3.258  10.273  0.1999 -0.3080  0.5915
  833MOL0     C 9835   2.864   3.284  10.332 -0.3296 -0.1413  0.3543
  833MOL0     C 9836   2.866   3.308  10.487 -0.1586 -0.3401  0.7929
  833MOL0     C 9837   2.721   3.319  10.539 -0.3126  1.2299  0.7878
  833MOL0     C 9838   2.649   3.448  10.505  0.3350 -0.2826  0.3873
  833MOL0     C 9839   2.529   3.491  10.589  0.6907 -0.0126 -0.2995
  833MOL0     C 9840   2.437   3.579  10.502 -1.0797 -0.0461  0.5175
  833MOL0     N 9841   2.325   3.644  10.571  0.2144 -0.5221 -0.8439
  833MOL0     C 9842   2.215   3.587  10.630  0.8278 -0.2933 -0.5154
  833MOL0     C 9843   2.152   3.691  10.693 -0.0613  1.0317  0.7331
  833MOL0     C 9844   2.018   3.676  10.776 -0.2142  0.5334 -0.0811
  833MOL0     C 9845   2.033   3.581  10.896 -0.0015 -0.6435 -0.2498
  833MOL0     C 9846   1.900   3.508  10.916 -0.3622 -0.0030  0.1320
  833MOL0     C 9847   1.920   3.411  11.032 -0.8682  0.6500 -0.5881
  833MOL0     O 9848   1.824   3.305  11.035  0.0745  0.2229 -0.5299
  833MOL0     C 9849   1.701   3.319  11.095 -0.7756 -0.4699 -0.4386
  833MOL0     C 9850   1.640   3.440  11.134 -0.3513 -0.3192  0.8923
  833MOL0     C 9851   1.508   3.442  11.183 -0.4393  0.1506 -0.2544
  833MOL0     C 9852   1.436   3.322  11.214  0.9614 -0.5817  0.6599
  833MOL0     C 9853   1.297   3.328  11.278  0.5325  0.1732  0.2944
  833MOL0     O 9854   1.257   3.453  11.312  0.0624  0.1880  0.0872
  833MOL0     C 9855   1.130   3.459  11.363  0.0554 -0.7172 -0.5503
  833MOL0     C 9856   1.020   3.423  11.286 -0.9582 -0.2622  0.0232
  833MOL0     C 9857   0.895   3.413  11.348 -0.3874  0.6023 -0.0878
  833MOL0     C 9858   0.872   3.456  11.476 -0.0476 -0.6363  0.5393
  833MOL0     O 9859   0.747   3.461  11.527 -0.6251 -0.8732  0.5284
  833MOL0     C 9860   0.718   3.562  11.619  0.4749  0.0719 -0.5270
  833MOL0     C 9861   0.571   3.587  11.622 -0.0313 -0.0429  1.0867
  833MOL0     C 9862   0.486   3.502  11.718  0.4627 -0.5490  0.7078
  833MOL0     C 9863   0.527   3.358  11.722 -0.0914 -0.3844 -0.0518
  833MOL0     C 9864   0.421   3.272  11.796 -0.3077 -0.0695 -1.2585
  833MOL0     C 9865   0.309   3.225  11.709 -0.0152 -0.5402 -0.2309
  833MOL0     C 9866   0.191   3.168  11.779 -0.3039  0.3868  0.8781
  833MOL0     C 9867   0.213   3.024  11.815 -0.1084 -0.8866 -0.8104
  833MOL0    Cl 9868   0.048   2.973  11.872 -0.2383 -0.5599 -0.3187
  833MOL0     C 9869   0.978   3.492  11.554  0.1971 -0.9472  0.2441
  833MOL0     C 9870   1.111   3.497  11.498  0.3109 -0.6469 -0.4679
  833MOL0     O 9871   1.234   3.222  11.288 -0.1863  0.0957 -0.5691
  833MOL0     C 9872   1.505   3.200  11.202 -0.7995  0.1639  0.8799
  833MOL0     C 9873   1.631   3.200  11.144 -0.1619  0.4104  0.8890
  833MOL0     N 9874   2.221   3.808  10.678  0.5846 -0.2548  0.6820
  833MOL0     N 9875   2.316   3.779  10.594  0.7159  0.5500  0.1565
  833MOL0     C 9876   3.148   3.685  10.391  0.6097 -0.3397  0.3791
  833MOL0     C 9877   3.242   3.792  10.394 -0.1916 -0.2784  0.0971
  833MOL0     C 9878   3.679   3.983  10.315 -0.2775 -0.3405 -1.5386
  833MOL0     C 9879   3.788   3.999  10.233 -0.1170  0.6411  0.0182
  833MOL0     C 9880   3.903   4.066  10.277  0.2275 -0.1991 -0.6704
  833MOL0     C 9881   3.907   4.148  10.390  0.4012 -0.1426 -0.6276
  833MOL0     O 9882   4.022   4.225  10.408  0.5348 -0.4352 -0.5869
  833MOL0     C 9883   4.049   4.269  10.540  1.3244 -0.5420 -0.7901
  833MOL0     C 9884   4.184   4.326  10.558  0.1952 -0.2105 -0.0214
  833MOL0     C 9885   4.235   4.421  10.450 -0.0095 -0.4591  0.0078
  833MOL0     C 9886   4.304   4.362  10.329  0.4452  1.0422  0.2030
  833MOL0     C 9887   4.321   4.472  10.226 -0.3254 -0.1220 -0.9168
  833MOL0     C 9888   4.315   4.547  10.129 -0.3613 -0.1832 -0.7320
  833MOL0     C 9889   3.799   4.132  10.475 -0.1377 -0.0143 -0.5915
  833MOL0     C 9890   3.688   4.052  10.443 -0.7026 -0.4634 -0.3404
  833MOL0     H 9891   3.516   3.618  10.308 -0.2409 -0.9733 -0.5062
  833MOL0     H 9892   3.360   3.433  10.318 -0.4552 -1.2980  1.4765
  833MOL0     H 9893   3.154   3.362  10.180 -1.6783 -4.5869 -0.2774
  833MOL0     H 9894   2.993   3.445  10.174  0.7273  1.1587 -0.7697
  833MOL0     H 9895   3.077   3.189  10.324  2.2406 -0.5941 -2.3068
  833MOL0     H 9896   2.981   3.210  10.179  0.6879 -1.6950  1.1409
  833MOL0     H 9897   2.819   3.185  10.316 -1.4111 -0.2420  3.4507
  833MOL0     H 9898   2.811   3.361  10.275 -1.0373 -1.2482 -0.5338
  833MOL0     H 9899   2.904   3.217  10.533 -0.6037 -1.7850 -1.5333
  833MOL0     H 9900   2.931   3.392  10.516  1.8083 -0.6724 -2.2488
  833MOL0     H 9901   2.730   3.305  10.647 -1.7256  0.4044  0.8125
  833MOL0     H 9902   2.667   3.230  10.509  1.4061  0.1641  0.7080
  833MOL0     H 9903   2.626   3.431  10.400  1.6550 -1.9799  0.3286
  833MOL0     H 9904   2.714   3.536  10.511 -1.3706  1.1153 -0.6408
  833MOL0     H 9905   2.464   3.411  10.626  0.8264  0.3913  0.8615
  833MOL0     H 9906   2.553   3.543  10.683 -3.2222  0.9623  0.3522
  833MOL0     H 9907   2.390   3.512  10.429 -3.2661  2.1145 -0.1619
  833MOL0     H 9908   2.500   3.653  10.451 -1.4919 -1.0531 -1.5820
  833MOL0     H 9909   2.183   3.483  10.634  1.5614 -0.5021  3.5883
  833MOL0     H 9910   1.949   3.620  10.713  1.4285 -0.2322 -1.2909
  833MOL0     H 9911   1.983   3.775  10.808  1.7730  0.9833  0.8724
  833MOL0     H 9912   2.048   3.633  10.991 -0.6497  0.0505 -0.5148
  833MOL0     H 9913   2.112   3.510  10.870  0.4559  0.4658 -2.1270
  833MOL0     H 9914   1.819   3.579  10.933 -0.0714  0.5765 -0.8427
  833MOL0     H 9915   1.862   3.460  10.825  0.1768 -1.7090  0.7569
  833MOL0     H 9916   1.924   3.462  11.129 -0.0527 -0.0261 -0.2550
  833MOL0     H 9917   2.018   3.364  11.024 -0.5270  0.3040  3.3729
  833MOL0     H 9918   1.683   3.535  11.105 -1.9033  0.4634  1.0763
  833MOL0     H 9919   1.470   3.540  11.209  0.0512 -0.0540  1.3098
  833MOL0     H 9920   1.033   3.387  11.185 -0.7186  2.3283 -0.9489
  833MOL0     H 9921   0.806   3.387  11.291 -0.7384  0.4342  0.5257
  833MOL0     H 9922   0.750   3.659  11.580 -4.0728  0.5211 -4.0458
  833MOL0     H 9923   0.758   3.544  11.719 -2.7789  1.8165  1.2400
  833MOL0     H 9924   0.526   3.578  11.522 -1.0387  0.9446  1.4301
  833MOL0     H 9925   0.571   3.693  11.649 -0.4960 -0.2470  1.9031
  833MOL0     H 9926   0.381   3.505  11.686  0.0683 -1.3748  1.8476
  833MOL0     H 9927   0.486   3.548  11.818 -0.1712  2.4176 -0.5386
  833MOL0     H 9928   0.542   3.324  11.619 -0.7679 -1.3210  0.1406
  833MOL0     H 9929   0.625   3.356  11.770  0.7917  2.1306 -1.6031
  833MOL0     H 9930   0.371   3.322  11.879 -1.1892 -1.5731 -0.8501
  833MOL0     H 9931   0.461   3.176  11.830 -2.0403  0.3389  2.3956
  833MOL0     H 9932   0.338   3.150  11.635 -3.2550 -2.2141  0.0057
  833MOL0     H 9933   0.256   3.309  11.664 -0.5877 -1.8281 -2.0842
  833MOL0     H 9934   0.155   3.218  11.870  0.2577 -0.8119  1.7769
  833MOL0     H 9935   0.104   3.160  11.713 -1.8206 -1.3152  2.9602
  833MOL0     H 9936   0.288   3.027  11.895 -0.4368 -0.0398 -0.5173
  833MOL0     H 9937   0.247   2.966  11.729  0.4373 -1.5507 -0.1572
  833MOL0     H 9938   0.983   3.518  11.660  0.3263  2.1243 -0.4119
  833MOL0     H 9939   1.196   3.527  11.560 -1.3977  1.1628  1.1453
  833MOL0     H 9940   1.453   3.111  11.237 -0.6938 -0.2644 -0.0285
  833MOL0     H 9941   1.691   3.110  11.131  1.1060  1.3039  0.2594
  833MOL0     H 9942   3.048   3.716  10.421  1.1396  0.6352  1.2125
  833MOL0     H 9943   3.220   3.894  10.425  1.7476  0.0180  0.6401
  833MOL0     H 9944   3.792   3.950  10.137  1.2802  0.8461 -0.0464
  833MOL0     H 9945   3.993   4.064  10.215  1.9168 -0.0630  1.6561
  833MOL0     H 9946   4.033   4.187  10.610  0.7119  0.5854  0.4256
  833MOL0     H 9947   3.976   4.345  10.567  0.3016 -2.4083  2.1849
  833MOL0     H 9948   4.172   4.380  10.653 -1.1985 -0.9546  0.2534
  833MOL0     H 9949   4.256   4.244  10.573  2.2192  1.1714 -1.6397
  833MOL0     H 9950   4.307   4.485  10.502  0.5056 -2.6886  2.2562
  833MOL0     H 9951   4.147   4.481  10.427  0.1638 -0.6320 -1.1475
  833MOL0     H 9952   4.402   4.328  10.364  0.9288  2.7250  0.5894
  833MOL0     H 9953   4.255   4.275  10.287  1.0376  1.3497 -1.1606
  833MOL0     H 9954   4.310   4.612  10.044 -0.1996  0.0049 -0.6001
  833MOL0     H 9955   3.792   4.203  10.557  2.1525  0.0307 -0.3847
  833MOL0     H 9956   3.608   4.052  10.516 -2.8917  1.2479 -2.6032
  834MOL0     O 9957   4.571  10.354   3.396  0.1188 -0.0557  0.1121
  834MOL0     C 9958   4.538  10.233   3.407 -0.6577 -0.5369 -0.3813
  834MOL0     O 9959   4.420  10.185   3.455  0.5297 -0.0995  0.5791
  834MOL0     C 9960   4.329  10.277   3.495 -0.9956 -0.9512 -0.2926
  834MOL0     C 9961   4.238  10.333   3.400 -0.7813  0.3486 -0.6881
  834MOL0     C 9962   4.146  10.427   3.444  0.5721 -0.3422  0.5246
  834MOL0     C 9963   4.151  10.471   3.576 -0.6972  0.1256 -0.4063
  834MOL0     O 9964   4.072  10.576   3.630 -0.9724  0.6536  0.2648
  834MOL0     C 9965   3.942  10.545   3.663  0.4377 -0.6559  0.2056
  834MOL0     C 9966   3.861  10.672   3.700  0.2849  0.6054  0.7345
  834MOL0     C 9967   3.711  10.659   3.707 -0.3720 -0.3862 -0.4629
  834MOL0     C 9968   3.642  10.777   3.771 -0.5318 -0.3732 -0.3756
  834MOL0     C 9969   3.490  10.763   3.768  0.0759 -0.6389  1.2877
  834MOL0     C 9970   3.430  10.653   3.857 -0.8014  0.4370 -0.7549
  834MOL0     C 9971   3.284  10.654   3.873 -0.1803 -0.3517 -0.5012
  834MOL0     C 9972   3.204  10.632   3.744 -0.2701  0.3600 -1.5005
  834MOL0     N 9973   3.061  10.631   3.774 -0.5104 -0.6505 -0.5724
  834MOL0     C 9974   2.987  10.746   3.806  0.1141 -0.9530  0.2863
  834MOL0     C 9975   2.869  10.697   3.847  0.4409  0.5316  0.2984
  834MOL0     C 9976   2.738  10.775   3.862 -1.3757 -0.5613  0.0025
  834MOL0     C 9977   2.705  10.822   3.718  0.4070 -0.0498  0.1347
  834MOL0     C 9978   2.630  10.715   3.638  0.6731 -0.6997 -0.8551
  834MOL0     C 9979   2.572  10.778   3.514  0.2359 -0.5871 -1.2842
  834MOL0     O 9980   2.471  10.881   3.543  1.1008 -0.0466  0.0854
  834MOL0     C 9981   2.345  10.846   3.526 -0.1246 -0.0922  0.6782
  834MOL0     C 9982   2.287  10.732   3.581 -0.3321  0.1617  0.2629
  834MOL0     C 9983   2.152  10.708   3.569  0.0010  0.5681  0.6026
  834MOL0     C 9984   2.070  10.800   3.504 -0.6622 -0.2655  0.0604
  834MOL0     C 9985   1.926  10.779   3.494  0.4767  0.1284  0.0280
  834MOL0     O 9986   1.884  10.653   3.506 -0.3819 -0.1439 -0.3009
  834MOL0     C 9987   1.760  10.618   3.507  0.8847  0.1596  0.0523
  834MOL0     C 9988   1.709  10.580   3.626 -0.3390  0.0955 -0.3583
  834MOL0     C 9989   1.576  10.539   3.646 -0.0439 -0.9800  0.4884
  834MOL0     C 9990   1.499  10.536   3.526  0.0108  0.2203  0.5278
  834MOL0     O 9991   1.368  10.487   3.546  0.6453 -0.4259  0.6062
  834MOL0     C 9992   1.270  10.501   3.440 -0.2201  0.0796  0.0882
  834MOL0     C 9993   1.144  10.468   3.509 -0.2111 -0.4756 -1.2434
  834MOL0     C 9994   1.087  10.569   3.612  0.5146  0.2098 -0.6389
  834MOL0     C 9995   0.941  10.532   3.649  0.4723 -0.4998 -0.3578
  834MOL0     C 9996   0.875  10.648   3.718 -0.2770 -0.3495 -0.2543
  834MOL0     C 9997   0.728  10.626   3.734 -0.9122 -0.6215  0.1568
  834MOL0     C 9998   0.669  10.718   3.831  0.5834 -0.3102 -0.3146
  834MOL0     C 9999   0.513  10.740   3.811  0.2748  0.0461  0.8322
  834MOL0    Cl10000   0.418  10.583   3.797  0.1389  0.1262  0.0788
  834MOL0     C10001   1.551  10.564   3.398  0.9017 -0.2515  0.0216
  834MOL0     C10002   1.679  10.613   3.386  0.0931 -0.1868 -0.6923
  834MOL0     O10003   1.853  10.877   3.485  0.1178  0.4210  0.6481
  834MOL0     C10004   2.129  10.917   3.445 -0.0405  0.2776  0.2895
  834MOL0     C10005   2.264  10.944   3.463 -0.6619 -0.2191  0.5379
  834MOL0     N10006   2.872  10.552   3.843  0.1728  0.1919 -0.7760
  834MOL0     N10007   2.997  10.518   3.818  0.6312  0.1193 -0.4156
  834MOL0     C10008   4.243  10.413   3.667  0.2611 -0.8960  0.1534
  834MOL0     C10009   4.339  10.320   3.625  0.3573  0.6285  0.1149
  834MOL0     C10010   4.642  10.142   3.353 -0.0151  0.0760  0.0246
  834MOL0     C10011   4.634  10.004   3.369  0.5313  0.1954 -0.4378
  834MOL0     C10012   4.729   9.913   3.332 -0.4156  0.8468  0.1983
  834MOL0     C10013   4.836   9.957   3.265 -0.2857 -0.3278 -0.2632
  834MOL0     O10014   4.933   9.881   3.214 -0.1007 -0.1341  0.0853
  834MOL0     C10015   5.004   9.803   3.308 -0.4993 -0.9108 -1.2613
  834MOL0     C10016   5.115   9.892   3.373  0.3966  0.2439  0.1401
  834MOL0     C10017   5.242   9.898   3.290 -0.1014 -0.1934 -0.1355
  834MOL0     C10018   5.232   9.956   3.149 -0.5319  0.2634  0.1446
  834MOL0     C10019   5.231  10.104   3.138  0.3917  0.2301  0.2215
  834MOL0     C10020   5.224  10.224   3.151 -0.0627  0.5635 -0.3556
  834MOL0     C10021   4.855  10.102   3.241  0.1270  0.4134  0.4446
  834MOL0     C10022   4.757  10.189   3.288  0.4246  0.7891  0.8382
  834MOL0     H10023   4.248  10.299   3.297 -0.7427  0.8969 -0.8681
  834MOL0     H10024   4.073  10.478   3.382  1.4309  0.9449  0.5294
  834MOL0     H10025   3.928  10.478   3.748 -0.1925  2.5485  2.8262
  834MOL0     H10026   3.893  10.498   3.577  0.6651 -1.4878  0.5150
  834MOL0     H10027   3.887  10.754   3.632 -1.0414  0.0484 -0.5059
  834MOL0     H10028   3.891  10.710   3.798 -0.8174  2.5851  0.3710
  834MOL0     H10029   3.690  10.574   3.773  1.2973  0.7025  1.6043
  834MOL0     H10030   3.667  10.637   3.609  1.6994 -2.1835 -1.0683
  834MOL0     H10031   3.668  10.796   3.876  0.3825  1.9285 -0.9699
  834MOL0     H10032   3.683  10.866   3.723  1.2637  0.0628  1.7801
  834MOL0     H10033   3.458  10.737   3.667 -1.1378  0.8278  1.2592
  834MOL0     H10034   3.441  10.858   3.792 -0.8519 -0.7039 -0.2381
  834MOL0     H10035   3.481  10.649   3.954 -0.8996  1.5848 -0.6360
  834MOL0     H10036   3.450  10.556   3.812  0.3265  0.6740 -0.7940
  834MOL0     H10037   3.263  10.588   3.957  1.4153 -2.0201 -1.3444
  834MOL0     H10038   3.250  10.751   3.910 -2.1815 -0.1886 -2.5495
  834MOL0     H10039   3.229  10.532   3.706 -2.9783 -0.6415 -0.8487
  834MOL0     H10040   3.234  10.709   3.672 -1.2385  1.5987 -0.6107
  834MOL0     H10041   3.022  10.848   3.791  0.8971 -1.3033 -0.3573
  834MOL0     H10042   2.749  10.859   3.931  3.0117 -1.1770  0.3495
  834MOL0     H10043   2.654  10.717   3.901 -2.9813  1.5859 -0.0865
  834MOL0     H10044   2.779  10.851   3.642 -2.1093  0.1931 -2.3950
  834MOL0     H10045   2.630  10.902   3.721 -0.4354 -0.6795 -2.0993
  834MOL0     H10046   2.693  10.631   3.607 -1.7859 -2.9921 -0.0403
  834MOL0     H10047   2.560  10.661   3.701  1.3914  1.0560  1.5817
  834MOL0     H10048   2.542  10.696   3.449 -1.7924 -1.2853  0.4333
  834MOL0     H10049   2.655  10.822   3.458 -0.3228 -1.3837 -2.7994
  834MOL0     H10050   2.351  10.654   3.621  0.2946  0.7246  0.3819
  834MOL0     H10051   2.114  10.619   3.617  0.0075  1.7457  2.9320
  834MOL0     H10052   1.784  10.581   3.705  3.0833 -0.0744 -3.3361
  834MOL0     H10053   1.548  10.531   3.751 -0.4994  0.3888  0.4975
  834MOL0     H10054   1.293  10.424   3.366 -3.2193 -1.4283  0.5858
  834MOL0     H10055   1.267  10.604   3.404 -2.5233  1.0262  2.6265
  834MOL0     H10056   1.162  10.370   3.555  1.3232  1.1118  1.8284
  834MOL0     H10057   1.073  10.450   3.428  0.7203 -2.9305 -1.6171
  834MOL0     H10058   1.095  10.668   3.567 -0.7441  1.7839  2.3261
  834MOL0     H10059   1.154  10.564   3.698  0.7747 -1.5941 -0.9129
  834MOL0     H10060   0.887  10.505   3.557 -0.6203 -1.2483  0.4757
  834MOL0     H10061   0.942  10.448   3.720  0.3310 -0.3159 -0.1376
  834MOL0     H10062   0.888  10.745   3.668 -2.7307  0.6786  0.9352
  834MOL0     H10063   0.931  10.669   3.809  0.7047 -0.8479 -0.7263
  834MOL0     H10064   0.712  10.523   3.766 -0.1034 -0.3282  1.6144
  834MOL0     H10065   0.682  10.638   3.636 -0.5476  0.0012  0.0507
  834MOL0     H10066   0.674  10.672   3.930 -1.1988 -3.2921 -1.4799
  834MOL0     H10067   0.714  10.818   3.826  1.6166 -0.7705 -0.6124
  834MOL0     H10068   0.498  10.794   3.717  1.3101 -1.7348 -0.4306
  834MOL0     H10069   0.472  10.799   3.893 -2.8114 -0.1731 -0.4200
  834MOL0     H10070   1.487  10.558   3.310  3.6653  2.1961 -2.3919
  834MOL0     H10071   1.723  10.637   3.290  0.6687 -1.5009 -0.7743
  834MOL0     H10072   2.074  10.998   3.399  0.7350  1.0474  0.6896
  834MOL0     H10073   2.312  11.036   3.432  3.3608 -2.9918 -2.5992
  834MOL0     H10074   4.244  10.452   3.768  0.4447 -0.4517 -0.0161
  834MOL0     H10075   4.402  10.266   3.694 -0.0326 -0.4010 -0.3183
  834MOL0     H10076   4.543   9.965   3.413  1.6788 -0.9571  1.0020
  834MOL0     H10077   4.714   9.806   3.348  2.5050 -0.1270 -2.4881
  834MOL0     H10078   5.053   9.718   3.257 -0.5756 -2.6569  1.3860
  834MOL0     H10079   4.941   9.741   3.372 -0.5409  0.1197 -0.2934
  834MOL0     H10080   5.081   9.991   3.405 -0.2754  0.1032 -0.1169
  834MOL0     H10081   5.159   9.849   3.463  2.6462  2.3356  0.1616
  834MOL0     H10082   5.285   9.798   3.278  0.6582 -0.3576  3.0057
  834MOL0     H10083   5.308   9.969   3.341 -1.2913  0.8543  0.0056
  834MOL0     H10084   5.317   9.910   3.097  0.9400  1.1093  1.6867
  834MOL0     H10085   5.135   9.927   3.108 -0.7602  1.6590 -0.3499
  834MOL0     H10086   5.219  10.324   3.191 -1.7735 -0.6162  2.6854
  834MOL0     H10087   4.943  10.144   3.195  0.8586  0.7460  2.0650
  834MOL0     H10088   4.763  10.296   3.268  1.4797  0.5771 -0.1029
  835MOL0     O10089   4.792   5.245   8.244 -0.2781  0.1163  0.2662
  835MOL0     C10090   4.783   5.138   8.190  0.1352 -0.1220 -0.0251
  835MOL0     O10091   4.667   5.080   8.154 -0.1041 -0.6987 -0.4822
  835MOL0     C10092   4.561   5.164   8.130 -0.0387  0.2883  0.3303
  835MOL0     C10093   4.558   5.266   8.038 -0.6301 -0.1076 -0.1510
  835MOL0     C10094   4.439   5.334   8.013  0.5174 -0.1859  0.0217
  835MOL0     C10095   4.326   5.313   8.091 -0.4615  0.0083  0.2102
  835MOL0     O10096   4.202   5.382   8.081 -0.4731  0.8859  0.9680
  835MOL0     C10097   4.208   5.515   8.017 -0.2688 -0.1551 -0.5699
  835MOL0     C10098   4.060   5.578   8.025 -0.1733 -1.1312  0.9933
  835MOL0     C10099   3.989   5.547   8.158 -0.5178  0.7561 -0.4881
  835MOL0     C10100   3.867   5.635   8.160  0.0542  0.5257 -0.5259
  835MOL0     C10101   3.779   5.622   8.282  0.0571 -0.6738 -0.0723
  835MOL0     C10102   3.735   5.466   8.281 -0.4758 -1.0148 -0.5350
  835MOL0     C10103   3.592   5.447   8.330 -0.5325  0.0731 -0.0473
  835MOL0     C10104   3.545   5.299   8.310  0.2021  0.1417  0.1972
  835MOL0     N10105   3.592   5.210   8.412  0.0920 -0.6147  0.9353
  835MOL0     C10106   3.518   5.159   8.512  0.3890  0.7565 -0.8466
  835MOL0     C10107   3.594   5.054   8.557 -0.3619 -0.6290 -0.6659
  835MOL0     C10108   3.562   4.950   8.663  0.4984  0.3031  0.2610
  835MOL0     C10109   3.414   4.946   8.688  0.3177  0.7494 -0.0055
  835MOL0     C10110   3.379   4.893   8.827 -0.0946 -0.2490 -0.1351
  835MOL0     C10111   3.226   4.893   8.873 -0.6606  0.0128  0.0234
  835MOL0     O10112   3.131   4.851   8.778  0.1658  0.5059  0.2030
  835MOL0     C10113   2.998   4.857   8.812 -0.9116 -1.4073  0.1507
  835MOL0     C10114   2.916   4.829   8.708  0.1081 -0.4441  0.2552
  835MOL0     C10115   2.777   4.834   8.718 -0.6700 -0.2377 -0.0530
  835MOL0     C10116   2.725   4.859   8.842 -1.1733 -0.9367  0.0686
  835MOL0     C10117   2.581   4.858   8.866 -0.1383 -0.1838  0.3745
  835MOL0     O10118   2.534   4.876   8.991  0.2817  0.1957 -0.5322
  835MOL0     C10119   2.393   4.855   8.988 -0.7854 -0.3390  0.7016
  835MOL0     C10120   2.314   4.961   8.935 -0.8354  0.7067  0.8783
  835MOL0     C10121   2.189   4.938   8.913  0.9425 -0.1304 -0.3013
  835MOL0     C10122   2.118   4.819   8.949  0.1920  0.4131 -0.2527
  835MOL0     O10123   1.983   4.796   8.936  0.4777  1.0278  0.0771
  835MOL0     C10124   1.888   4.908   8.943 -0.0991  0.4350 -0.5523
  835MOL0     C10125   1.747   4.851   8.989  0.7034 -0.2681 -0.0435
  835MOL0     C10126   1.728   4.826   9.143  0.7277  0.1744  0.2445
  835MOL0     C10127   1.586   4.776   9.166  0.3254 -0.3281  0.1017
  835MOL0     C10128   1.553   4.768   9.316 -0.0001 -1.1759 -0.4155
  835MOL0     C10129   1.407   4.763   9.347 -0.0953  0.5109  0.2925
  835MOL0     C10130   1.326   4.646   9.285 -0.9706 -1.0259  1.0608
  835MOL0     C10131   1.181   4.639   9.343 -0.8697  0.0056  1.2090
  835MOL0    Cl10132   1.110   4.482   9.288 -0.2389  0.1722 -0.6162
  835MOL0     C10133   2.192   4.721   9.017 -0.4978  0.7594  0.3732
  835MOL0     C10134   2.326   4.732   9.033  0.2837 -0.1338  0.1763
  835MOL0     O10135   2.516   4.835   8.765  0.1186 -0.6752 -0.3125
  835MOL0     C10136   2.809   4.886   8.951 -0.8430  0.2183  0.2558
  835MOL0     C10137   2.947   4.877   8.938  0.2134 -0.2430 -0.8325
  835MOL0     N10138   3.711   5.052   8.486  0.4668  0.5421  0.2412
  835MOL0     N10139   3.711   5.151   8.409 -0.0798  0.5370  0.3500
  835MOL0     C10140   4.330   5.215   8.193  0.7557  0.8855  0.0648
  835MOL0     C10141   4.453   5.149   8.217 -0.2306  0.4310  0.8131
  835MOL0     C10142   4.901   5.042   8.187  0.8769 -0.6049 -0.0547
  835MOL0     C10143   4.884   4.903   8.156  0.2992 -0.3438 -0.4309
  835MOL0     C10144   4.995   4.825   8.148 -0.3353  0.7637 -0.4213
  835MOL0     C10145   5.129   4.867   8.177 -0.4607  0.7615  0.1221
  835MOL0     O10146   5.250   4.796   8.166  0.2691  0.1468  0.1519
  835MOL0     C10147   5.250   4.656   8.133  0.6249 -0.0043  0.1820
  835MOL0     C10148   5.374   4.582   8.178 -1.1974  0.1094 -0.3435
  835MOL0     C10149   5.406   4.597   8.324  0.7386  0.0735  0.0003
  835MOL0     C10150   5.549   4.575   8.356  0.1334  0.7841 -0.1990
  835MOL0     C10151   5.615   4.445   8.329  0.4458 -0.0623 -0.2329
  835MOL0     C10152   5.659   4.327   8.321 -0.9267  0.2000 -0.0317
  835MOL0     C10153   5.136   4.997   8.220  0.4134  0.1255  0.3920
  835MOL0     C10154   5.027   5.087   8.212 -0.7575  0.5482  0.8230
  835MOL0     H10155   4.645   5.275   7.974 -0.0126 -1.5203  0.4529
  835MOL0     H10156   4.445   5.406   7.932  1.9068 -0.1328  0.1324
  835MOL0     H10157   4.249   5.502   7.917  2.3582 -0.0768  0.4199
  835MOL0     H10158   4.282   5.585   8.057  0.1073  0.8872 -2.9286
  835MOL0     H10159   4.004   5.544   7.937  2.0104 -0.7542 -0.6159
  835MOL0     H10160   4.065   5.686   8.008 -3.3496 -0.5183  3.0714
  835MOL0     H10161   4.049   5.577   8.245 -2.2323 -2.1761  1.9051
  835MOL0     H10162   3.968   5.440   8.165  1.6192  0.3181 -0.0619
  835MOL0     H10163   3.893   5.741   8.162 -2.9550  1.3520 -0.0137
  835MOL0     H10164   3.815   5.615   8.066 -1.0270 -2.3991  0.5763
  835MOL0     H10165   3.686   5.680   8.284 -0.7768 -1.9665  2.0037
  835MOL0     H10166   3.850   5.634   8.364  1.4847 -1.5908 -1.1209
  835MOL0     H10167   3.806   5.419   8.350 -1.7012  1.1870  2.5085
  835MOL0     H10168   3.747   5.418   8.184 -1.7093 -3.1870  0.3295
  835MOL0     H10169   3.601   5.481   8.433  2.2287 -3.1866  0.9569
  835MOL0     H10170   3.524   5.518   8.282 -1.2041  0.5910  1.5948
  835MOL0     H10171   3.582   5.270   8.211  2.6013  1.5208  0.6040
  835MOL0     H10172   3.437   5.313   8.306  0.2340  2.6106  3.7034
  835MOL0     H10173   3.419   5.190   8.545  0.1827  1.7211 -2.2691
  835MOL0     H10174   3.622   4.962   8.754  1.0719 -0.0717 -0.0584
  835MOL0     H10175   3.599   4.858   8.617  0.4673  1.1750 -1.6376
  835MOL0     H10176   3.364   4.892   8.607 -0.4471 -0.9882  1.5837
  835MOL0     H10177   3.369   5.045   8.672 -2.2871 -0.6443 -2.2119
  835MOL0     H10178   3.398   4.786   8.820 -1.6565 -0.8660  3.1652
  835MOL0     H10179   3.445   4.934   8.905  3.3900 -0.8463 -2.5359
  835MOL0     H10180   3.199   4.993   8.907  0.9550  0.2649  0.6450
  835MOL0     H10181   3.216   4.826   8.959 -1.3210  0.1412  0.0474
  835MOL0     H10182   2.964   4.792   8.618  0.3812  1.3805 -0.3809
  835MOL0     H10183   2.728   4.803   8.626 -0.4476 -0.4650 -0.0962
  835MOL0     H10184   2.371   5.050   8.913 -1.1852  1.0935  1.5187
  835MOL0     H10185   2.123   5.020   8.885  1.2032  0.8389  1.7501
  835MOL0     H10186   1.872   4.962   8.850 -3.2681  1.8231  0.6581
  835MOL0     H10187   1.918   4.993   9.006 -0.2621  0.2131 -0.1656
  835MOL0     H10188   1.726   4.762   8.929  0.3221  0.2661 -0.7073
  835MOL0     H10189   1.668   4.922   8.962  0.1623 -0.7877  0.1315
  835MOL0     H10190   1.751   4.920   9.193  4.1543 -0.8826  0.9279
  835MOL0     H10191   1.794   4.744   9.173  0.5643  0.5431  1.6672
  835MOL0     H10192   1.516   4.847   9.121  0.7705  0.4560  0.6307
  835MOL0     H10193   1.566   4.674   9.131 -1.1300  0.2735 -0.9533
  835MOL0     H10194   1.601   4.853   9.366 -0.8166 -0.5960 -0.6001
  835MOL0     H10195   1.602   4.683   9.366  2.7934  1.1547  1.1171
  835MOL0     H10196   1.360   4.849   9.300  0.4753  0.9130  0.4502
  835MOL0     H10197   1.386   4.760   9.455 -0.0706  2.7780  0.4127
  835MOL0     H10198   1.312   4.675   9.181  1.3088 -0.3785  0.8741
  835MOL0     H10199   1.376   4.549   9.293 -2.1660 -1.9281 -1.3797
  835MOL0     H10200   1.113   4.712   9.297 -0.6723 -0.6135 -0.1321
  835MOL0     H10201   1.190   4.655   9.451  3.3287  2.4129  0.7318
  835MOL0     H10202   2.154   4.626   9.053 -0.0397  1.5967  3.2581
  835MOL0     H10203   2.383   4.660   9.091 -0.1774 -0.7641 -0.1410
  835MOL0     H10204   2.763   4.909   9.047 -2.0347 -2.0036  0.2762
  835MOL0     H10205   3.014   4.907   9.019 -3.9034  0.2540  2.7649
  835MOL0     H10206   4.249   5.215   8.265  1.6440  1.5089  1.1029
  835MOL0     H10207   4.459   5.071   8.292  0.2673 -0.4634 -0.1318
  835MOL0     H10208   4.782   4.875   8.130 -0.6544  2.0388  0.4728
  835MOL0     H10209   4.980   4.721   8.122  0.8952  1.1777 -3.1639
  835MOL0     H10210   5.239   4.646   8.024 -1.9478 -2.1852  0.5492
  835MOL0     H10211   5.166   4.602   8.177  2.6363 -0.2971  4.0535
  835MOL0     H10212   5.369   4.476   8.153  0.1687  0.0986 -0.6328
  835MOL0     H10213   5.456   4.621   8.117 -0.9652  2.8153  1.5666
  835MOL0     H10214   5.337   4.528   8.374 -4.4398  3.4855 -1.5450
  835MOL0     H10215   5.372   4.692   8.368 -3.3481 -1.9797  1.8732
  835MOL0     H10216   5.601   4.653   8.299 -1.3552  1.1353 -1.1215
  835MOL0     H10217   5.561   4.585   8.465 -0.4241  1.3767 -0.1865
  835MOL0     H10218   5.693   4.225   8.329 -0.2357  0.2716 -1.7241
  835MOL0     H10219   5.230   5.041   8.253 -0.2713  1.2979  0.8667
  835MOL0     H10220   5.048   5.192   8.230 -4.5195  1.2076  2.3006
  836MOL0     O10221   2.205   5.561   2.956  0.3752  0.3288  0.0788
  836MOL0     C10222   2.177   5.444   2.935 -0.0772 -0.2656  0.0785
  836MOL0     O10223   2.255   5.352   2.891  0.7122 -0.2908 -0.1145
  836MOL0     C10224   2.392   5.363   2.881  0.4085  1.5671 -0.3083
  836MOL0     C10225   2.467   5.247   2.907  0.3506 -0.1928  0.4395
  836MOL0     C10226   2.610   5.244   2.895 -0.0926 -0.3218 -1.2210
  836MOL0     C10227   2.679   5.362   2.852 -0.5210  0.3139  0.5157
  836MOL0     O10228   2.814   5.372   2.829  0.1710 -0.5287 -0.4207
  836MOL0     C10229   2.887   5.302   2.927  0.1079  0.5624 -0.2127
  836MOL0     C10230   2.969   5.187   2.855 -0.4408 -0.5402 -0.1061
  836MOL0     C10231   3.023   5.080   2.947 -0.3271 -0.0564  0.0448
  836MOL0     C10232   3.124   5.146   3.051 -0.7088 -0.0932 -0.2694
  836MOL0     C10233   3.227   5.042   3.099 -0.2026 -0.4615 -1.2801
  836MOL0     C10234   3.330   5.106   3.192 -0.4373  0.1365 -0.3103
  836MOL0     C10235   3.395   4.988   3.257  0.3495  0.6182 -0.5370
  836MOL0     C10236   3.334   4.954   3.390  0.7423 -0.1771 -0.5810
  836MOL0     N10237   3.388   4.832   3.456  0.4900  0.3088 -0.4100
  836MOL0     C10238   3.517   4.832   3.500 -0.0068 -0.6755  0.0101
  836MOL0     C10239   3.537   4.705   3.540 -0.9406 -0.4493  0.3217
  836MOL0     C10240   3.656   4.648   3.616 -0.0615  0.2590  0.1568
  836MOL0     C10241   3.783   4.671   3.530  0.2308  0.3346  0.1595
  836MOL0     C10242   3.902   4.644   3.625 -0.1150 -0.3587 -0.5979
  836MOL0     C10243   4.036   4.695   3.574 -0.8270 -0.6004 -1.0954
  836MOL0     O10244   4.134   4.667   3.678  0.2430 -0.1947  0.1063
  836MOL0     C10245   4.162   4.767   3.765 -0.0129 -0.1423 -0.5089
  836MOL0     C10246   4.105   4.900   3.767 -0.3884 -0.5257  0.2295
  836MOL0     C10247   4.134   5.001   3.868  0.2946 -0.1764  0.2215
  836MOL0     C10248   4.222   4.965   3.976 -0.5463 -0.0799  0.5748
  836MOL0     C10249   4.257   5.058   4.082 -0.3220 -0.6550  0.4847
  836MOL0     O10250   4.322   5.018   4.191  0.0128 -0.4129  0.3869
  836MOL0     C10251   4.353   5.099   4.300  1.3660 -0.1103 -1.3491
  836MOL0     C10252   4.256   5.188   4.360 -1.0891  0.8541 -1.1676
  836MOL0     C10253   4.302   5.254   4.476 -0.4748 -0.4424 -0.0431
  836MOL0     C10254   4.433   5.229   4.531 -0.2807  0.7669 -0.1297
  836MOL0     O10255   4.466   5.300   4.643 -0.5326  0.5943  0.2671
  836MOL0     C10256   4.530   5.238   4.752  0.2228 -0.6257  0.3266
  836MOL0     C10257   4.502   5.325   4.877 -0.2859  0.5108 -0.5679
  836MOL0     C10258   4.362   5.318   4.936  0.2059 -0.2931  0.0350
  836MOL0     C10259   4.259   5.367   4.828  0.3452 -0.0670  0.2329
  836MOL0     C10260   4.117   5.380   4.883 -0.3884  0.8093  0.0205
  836MOL0     C10261   4.012   5.390   4.773  0.8052 -0.4472  0.3139
  836MOL0     C10262   3.870   5.428   4.821 -0.0782 -0.1198 -0.0338
  836MOL0     C10263   3.778   5.428   4.709 -0.8051 -0.0551  0.4057
  836MOL0    Cl10264   3.618   5.483   4.759  0.1504  0.5997  0.4657
  836MOL0     C10265   4.524   5.140   4.473  0.2536 -0.0428  0.4277
  836MOL0     C10266   4.478   5.080   4.352 -0.3034  0.1951 -0.2261
  836MOL0     O10267   4.243   5.176   4.052  0.2247  0.2643  0.4675
  836MOL0     C10268   4.282   4.837   3.969 -0.3530 -0.4837  0.0959
  836MOL0     C10269   4.245   4.739   3.874  0.4356 -0.8238  0.1506
  836MOL0     N10270   3.432   4.625   3.491 -0.1498  0.0667 -0.0549
  836MOL0     N10271   3.346   4.707   3.436 -0.5217  0.3837  0.4919
  836MOL0     C10272   2.597   5.465   2.803  0.1429 -0.9822  0.2693
  836MOL0     C10273   2.463   5.466   2.818  1.0809 -0.0981 -0.5226
  836MOL0     C10274   2.046   5.394   2.968  0.1854  0.3164 -0.6921
  836MOL0     C10275   2.004   5.256   2.949 -0.3234 -0.3901  0.4605
  836MOL0     C10276   1.878   5.210   2.986 -0.1086 -0.2573 -0.0957
  836MOL0     C10277   1.783   5.305   3.034  0.0869  0.0784 -1.0236
  836MOL0     O10278   1.655   5.257   3.052 -0.0869 -0.3015  0.3409
  836MOL0     C10279   1.546   5.343   3.062  0.4598  0.5952 -0.4464
  836MOL0     C10280   1.420   5.251   3.037 -0.2509 -0.3834 -0.3478
  836MOL0     C10281   1.303   5.351   3.027  0.5544  1.1555  0.2408
  836MOL0     C10282   1.172   5.271   3.066  0.4238  0.0605  0.1839
  836MOL0     C10283   1.132   5.192   2.953 -0.0242 -0.0257 -0.5625
  836MOL0     C10284   1.113   5.121   2.849  0.0193  0.4036 -0.6712
  836MOL0     C10285   1.820   5.438   3.062  0.2249  0.2433  0.2737
  836MOL0     C10286   1.947   5.482   3.022 -0.0510  0.7165 -0.9928
  836MOL0     H10287   2.412   5.156   2.929 -0.5800  0.4723  0.9612
  836MOL0     H10288   2.665   5.152   2.915 -0.7931 -0.7912 -1.4140
  836MOL0     H10289   2.844   5.260   3.018  1.1666  0.8593  0.4532
  836MOL0     H10290   2.956   5.376   2.969 -0.8484 -0.0123  2.5827
  836MOL0     H10291   3.055   5.221   2.797  1.4018 -2.0665  1.5992
  836MOL0     H10292   2.903   5.132   2.787 -2.4531 -0.9493  2.0601
  836MOL0     H10293   3.070   4.999   2.891  1.7516 -0.8086  2.6413
  836MOL0     H10294   2.950   5.030   3.011  0.6212 -0.5294  0.7962
  836MOL0     H10295   3.184   5.225   3.004  1.6239 -0.8448  1.2517
  836MOL0     H10296   3.056   5.172   3.132 -3.0081 -0.1763 -2.0557
  836MOL0     H10297   3.288   5.009   3.014  0.3231 -1.0083 -0.7078
  836MOL0     H10298   3.170   4.959   3.140  0.1254  1.0002  2.6562
  836MOL0     H10299   3.274   5.171   3.260 -4.0291 -2.2406 -0.7087
  836MOL0     H10300   3.400   5.167   3.134  0.9413  0.2936  1.4531
  836MOL0     H10301   3.375   4.900   3.195 -0.2561  2.0332 -2.4175
  836MOL0     H10302   3.504   4.999   3.262  1.2010 -4.0634 -2.8366
  836MOL0     H10303   3.225   4.948   3.387  0.6018 -1.0022  2.5249
  836MOL0     H10304   3.367   5.038   3.452 -0.6566 -0.6453  0.8456
  836MOL0     H10305   3.582   4.914   3.529 -2.3191  0.2870  2.9583
  836MOL0     H10306   3.636   4.543   3.640 -1.5540  0.7589  1.3095
  836MOL0     H10307   3.671   4.713   3.703 -0.3341  1.0783 -0.3926
  836MOL0     H10308   3.792   4.771   3.487  1.6067 -0.5842 -1.8980
  836MOL0     H10309   3.790   4.591   3.455 -0.8082 -0.9625  1.3873
  836MOL0     H10310   3.901   4.681   3.727 -1.4511 -0.8686 -0.4026
  836MOL0     H10311   3.907   4.535   3.634 -1.5068 -0.3679  0.2738
  836MOL0     H10312   4.039   4.797   3.535 -1.1770 -0.3018 -0.3622
  836MOL0     H10313   4.059   4.634   3.486  1.4906 -1.0475 -0.2346
  836MOL0     H10314   4.029   4.933   3.697  0.3149 -1.9170 -1.2700
  836MOL0     H10315   4.079   5.095   3.863 -0.9084 -0.9128 -1.1612
  836MOL0     H10316   4.159   5.196   4.313 -1.3771 -4.3054 -2.0751
  836MOL0     H10317   4.236   5.316   4.537 -0.5391 -1.4064  0.8960
  836MOL0     H10318   4.638   5.233   4.736 -0.1325 -0.9359 -2.5579
  836MOL0     H10319   4.500   5.132   4.755 -0.5863 -0.4127  0.0373
  836MOL0     H10320   4.519   5.430   4.851 -0.0222  0.3493 -1.0512
  836MOL0     H10321   4.576   5.293   4.951  0.4892 -2.1332 -2.3355
  836MOL0     H10322   4.355   5.374   5.030 -0.5416 -0.1035 -0.1223
  836MOL0     H10323   4.337   5.216   4.966  3.0231 -0.9958  0.2532
  836MOL0     H10324   4.297   5.462   4.789 -1.5511  1.4186  1.7821
  836MOL0     H10325   4.244   5.291   4.751  2.7708  0.0609 -0.4430
  836MOL0     H10326   4.107   5.470   4.945  0.3692  2.4761 -2.1646
  836MOL0     H10327   4.100   5.286   4.937  1.3584 -0.3335 -1.3421
  836MOL0     H10328   4.007   5.293   4.721  1.0075 -0.5790  0.5402
  836MOL0     H10329   4.038   5.469   4.702  0.5343  0.0182  0.7316
  836MOL0     H10330   3.829   5.356   4.893 -1.5024  0.5941 -0.0755
  836MOL0     H10331   3.871   5.530   4.861  1.7843 -0.9544  2.2795
  836MOL0     H10332   3.771   5.328   4.666  0.1057  0.5741 -1.2682
  836MOL0     H10333   3.817   5.484   4.624 -0.1912  1.6610  1.7390
  836MOL0     H10334   4.625   5.130   4.511  0.9639 -2.4470 -1.7953
  836MOL0     H10335   4.541   5.009   4.301 -0.9193 -1.9166  1.7675
  836MOL0     H10336   4.360   4.801   4.036 -0.2373 -2.2069 -0.9108
  836MOL0     H10337   4.304   4.648   3.863  0.5538 -0.5289 -2.2164
  836MOL0     H10338   2.644   5.552   2.758  1.0133 -1.3471  0.4444
  836MOL0     H10339   2.400   5.551   2.795  0.0369 -0.9011 -0.7124
  836MOL0     H10340   2.070   5.180   2.909 -2.2664 -1.6691 -0.4292
  836MOL0     H10341   1.846   5.106   2.991  1.7014 -0.7972  1.1084
  836MOL0     H10342   1.553   5.428   2.993 -0.7669  0.8041 -0.3371
  836MOL0     H10343   1.542   5.388   3.162 -1.1371  0.3247 -0.3652
  836MOL0     H10344   1.434   5.194   2.945  0.1598 -0.3156 -0.3300
  836MOL0     H10345   1.396   5.179   3.116 -1.0461  0.4755  0.2203
  836MOL0     H10346   1.298   5.402   2.931  0.1156 -0.8379 -0.8615
  836MOL0     H10347   1.312   5.433   3.099  0.0324  2.0918 -0.7281
  836MOL0     H10348   1.192   5.206   3.152 -1.1889 -2.2062 -1.0368
  836MOL0     H10349   1.090   5.333   3.102  0.2581 -1.3074  2.3424
  836MOL0     H10350   1.095   5.047   2.774  0.2953 -1.2713  0.8421
  836MOL0     H10351   1.760   5.512   3.115  3.2443  1.0123  2.9903
  836MOL0     H10352   1.958   5.589   3.035 -1.7822  1.0189 -1.7559
  837MOL0     O10353   4.269   6.672   1.444 -1.1151  0.2821 -0.1839
  837MOL0     C10354   4.316   6.614   1.544 -0.2041  0.3193  0.6393
  837MOL0     O10355   4.246   6.579   1.654  0.2486  0.0690 -0.5284
  837MOL0     C10356   4.110   6.603   1.668 -0.6960  0.0969  0.5426
  837MOL0     C10357   4.056   6.730   1.647 -0.3784  0.0955  0.8894
  837MOL0     C10358   3.922   6.750   1.688  0.2617 -0.2059 -0.4571
  837MOL0     C10359   3.851   6.648   1.743  0.8438  0.3397 -0.2375
  837MOL0     O10360   3.721   6.683   1.777 -0.7639  0.3060  0.0804
  837MOL0     C10361   3.638   6.578   1.824 -0.2380 -0.1273 -0.2297
  837MOL0     C10362   3.498   6.640   1.844 -0.3998  0.3621  0.7295
  837MOL0     C10363   3.391   6.532   1.853 -0.5414 -0.4021  0.7138
  837MOL0     C10364   3.256   6.598   1.893  0.6485  1.0047  0.8993
  837MOL0     C10365   3.141   6.500   1.865 -0.8850 -0.1469  0.5107
  837MOL0     C10366   3.161   6.352   1.920  0.6347 -0.5832  0.7264
  837MOL0     C10367   3.029   6.284   1.928 -0.4320  0.2056  0.4471
  837MOL0     C10368   3.043   6.139   1.965  0.0076  0.5443  0.7279
  837MOL0     N10369   2.915   6.070   1.948  0.6792  0.6510  0.7235
  837MOL0     C10370   2.906   5.934   1.906 -0.2509  0.0422  0.5013
  837MOL0     C10371   2.775   5.905   1.931 -0.6568  0.1663 -0.5673
  837MOL0     C10372   2.708   5.768   1.923  0.6924  0.1631  0.3331
  837MOL0     C10373   2.760   5.651   2.017  0.1576  0.5737 -0.7662
  837MOL0     C10374   2.693   5.511   1.983 -0.1291  0.0187 -0.5471
  837MOL0     C10375   2.680   5.475   1.833 -0.1946 -0.3162  0.4470
  837MOL0     O10376   2.642   5.343   1.815 -0.3487  0.1313 -0.3448
  837MOL0     C10377   2.517   5.300   1.857  0.2040  1.3409  0.4165
  837MOL0     C10378   2.495   5.160   1.876  0.0301 -0.6704 -0.4200
  837MOL0     C10379   2.367   5.114   1.921 -0.1804 -0.2697 -0.3101
  837MOL0     C10380   2.256   5.197   1.950  0.4952 -0.4128  0.1617
  837MOL0     C10381   2.125   5.151   1.992 -0.2124  0.4602  0.2974
  837MOL0     O10382   2.027   5.248   1.999  0.2728 -0.2015  0.8705
  837MOL0     C10383   1.901   5.204   2.021 -0.5655 -0.4366  0.5141
  837MOL0     C10384   1.830   5.174   1.909  0.0632 -0.1644  0.2939
  837MOL0     C10385   1.700   5.125   1.913 -1.0214  0.0673  0.3807
  837MOL0     C10386   1.630   5.127   2.033  0.3881 -0.3485  0.0124
  837MOL0     O10387   1.502   5.085   2.042  0.4934 -0.9240 -0.1457
  837MOL0     C10388   1.462   4.952   1.993  0.1023 -0.3040  0.0650
  837MOL0     C10389   1.380   4.888   2.102 -0.5328 -0.0229 -0.3972
  837MOL0     C10390   1.445   4.876   2.242 -0.4148  0.7825  1.0426
  837MOL0     C10391   1.366   4.804   2.353  1.0762 -0.2292  0.7453
  837MOL0     C10392   1.448   4.737   2.448  0.1990  0.7009 -0.4435
  837MOL0     C10393   1.510   4.832   2.550 -0.3339  0.1772 -0.5234
  837MOL0     C10394   1.575   4.749   2.658  0.3343 -0.4413  0.1445
  837MOL0     C10395   1.649   4.833   2.764  0.5191 -0.5975  0.7754
  837MOL0    Cl10396   1.809   4.911   2.725  0.0092  0.4675  0.4531
  837MOL0     C10397   1.700   5.164   2.154 -0.3853 -0.3848 -0.0676
  837MOL0     C10398   1.839   5.198   2.150  0.7412 -0.1992  0.1154
  837MOL0     O10399   2.115   5.032   2.019  0.2516  0.9453 -0.1641
  837MOL0     C10400   2.280   5.333   1.917 -0.4798 -0.5679 -0.1766
  837MOL0     C10401   2.405   5.384   1.882  0.5219 -0.0603 -0.1930
  837MOL0     N10402   2.709   6.012   1.966  0.0574  0.2882 -0.3790
  837MOL0     N10403   2.786   6.115   1.978 -1.2583  0.4308  0.0447
  837MOL0     C10404   3.902   6.525   1.772  0.4287  0.3947  0.0692
  837MOL0     C10405   4.029   6.502   1.733 -0.1779  0.2163 -0.7973
  837MOL0     C10406   4.461   6.574   1.534 -0.0055  1.0658 -0.7272
  837MOL0     C10407   4.526   6.575   1.409  0.3803  0.1642 -0.2574
  837MOL0     C10408   4.658   6.540   1.402 -0.0887  0.1305 -0.2636
  837MOL0     C10409   4.730   6.490   1.512 -0.5821 -0.9011 -0.0986
  837MOL0     O10410   4.863   6.451   1.479  0.5336 -0.6966  0.3209
  837MOL0     C10411   4.929   6.383   1.578  0.3631  0.1512  0.2488
  837MOL0     C10412   5.072   6.342   1.524  0.1497 -0.3013  0.2747
  837MOL0     C10413   5.142   6.251   1.630  0.6938  0.2850 -0.4479
  837MOL0     C10414   5.280   6.202   1.580  1.0234 -0.0205 -0.2164
  837MOL0     C10415   5.380   6.318   1.591  0.2052  0.7130 -0.1062
  837MOL0     C10416   5.472   6.402   1.603  0.1525  0.4837 -0.6566
  837MOL0     C10417   4.664   6.486   1.639  0.4917  0.3639  0.1952
  837MOL0     C10418   4.533   6.530   1.645 -1.2373  0.0255  0.3956
  837MOL0     H10419   4.119   6.811   1.613 -0.1423 -1.2879 -2.2494
  837MOL0     H10420   3.885   6.849   1.664  0.9307 -0.3627 -2.2863
  837MOL0     H10421   3.678   6.539   1.918  0.5698 -0.5812 -0.7499
  837MOL0     H10422   3.628   6.496   1.753  0.7638 -1.6265  1.2675
  837MOL0     H10423   3.471   6.707   1.762  0.3407  0.9501  0.9584
  837MOL0     H10424   3.500   6.713   1.925  1.9177  2.9032 -1.4301
  837MOL0     H10425   3.420   6.450   1.920 -0.6943 -3.0573 -2.2206
  837MOL0     H10426   3.382   6.486   1.755  2.8434  0.9986 -0.4150
  837MOL0     H10427   3.256   6.610   2.002  0.3817 -2.2827  1.3737
  837MOL0     H10428   3.240   6.696   1.849  3.1114  0.6585 -1.0003
  837MOL0     H10429   3.129   6.494   1.757 -1.1687 -1.7755  0.5988
  837MOL0     H10430   3.054   6.554   1.903 -0.3604  1.1890 -0.1225
  837MOL0     H10431   3.211   6.365   2.016  1.0932  1.7720  0.2300
  837MOL0     H10432   3.230   6.292   1.858 -0.6752  1.0394 -2.5123
  837MOL0     H10433   2.970   6.334   2.006 -0.4258  0.3526  0.3578
  837MOL0     H10434   2.981   6.288   1.830  1.7906 -0.2400 -0.7150
  837MOL0     H10435   3.084   6.124   2.065  0.6325  0.9847  0.5459
  837MOL0     H10436   3.099   6.089   1.885  0.2059  1.6954  0.1388
  837MOL0     H10437   2.983   5.863   1.876 -0.4160  0.6854 -1.6363
  837MOL0     H10438   2.703   5.735   1.818 -2.9567  2.0120 -0.2053
  837MOL0     H10439   2.603   5.786   1.947  0.4767  3.4778 -2.2995
  837MOL0     H10440   2.743   5.674   2.123 -5.1156 -1.2715 -0.9107
  837MOL0     H10441   2.868   5.632   2.008 -0.0068 -0.2685 -1.0199
  837MOL0     H10442   2.754   5.433   2.030 -0.1305  0.2965 -0.0680
  837MOL0     H10443   2.598   5.508   2.038 -0.5841  2.6622 -1.0753
  837MOL0     H10444   2.781   5.492   1.795  0.1721  1.4449  2.0369
  837MOL0     H10445   2.619   5.550   1.782  0.5350  0.6579  0.9773
  837MOL0     H10446   2.572   5.084   1.880 -0.4106 -1.0907  0.0752
  837MOL0     H10447   2.362   5.008   1.945  0.9929 -0.2883 -0.1045
  837MOL0     H10448   1.881   5.158   1.814  1.2549  0.4439  0.8065
  837MOL0     H10449   1.663   5.095   1.816  1.2202 -1.3559 -0.1078
  837MOL0     H10450   1.551   4.893   1.969 -0.2546 -1.3172  1.1356
  837MOL0     H10451   1.396   4.969   1.908 -0.1292 -0.9398  0.1166
  837MOL0     H10452   1.338   4.789   2.079 -0.0874 -0.9546  2.4345
  837MOL0     H10453   1.299   4.961   2.110  1.1069  1.8094  0.4173
  837MOL0     H10454   1.467   4.979   2.274  1.8336  0.3575  1.0426
  837MOL0     H10455   1.541   4.826   2.224  0.3134  2.1843  0.8153
  837MOL0     H10456   1.300   4.865   2.415  0.9171 -1.1030  1.4459
  837MOL0     H10457   1.299   4.732   2.305 -3.6180  2.2687  2.8454
  837MOL0     H10458   1.517   4.666   2.402  0.2956 -0.6764  1.7062
  837MOL0     H10459   1.381   4.675   2.509  0.4810  0.1683 -0.6729
  837MOL0     H10460   1.437   4.892   2.606  0.3961 -1.8533  2.8762
  837MOL0     H10461   1.576   4.908   2.507  0.3286  0.3476  0.7356
  837MOL0     H10462   1.499   4.684   2.703 -0.7964  0.8530  0.1791
  837MOL0     H10463   1.656   4.688   2.619  0.6634  0.2266 -0.2345
  837MOL0     H10464   1.661   4.773   2.855  2.8953 -3.7742 -1.4421
  837MOL0     H10465   1.587   4.917   2.796  2.6752  1.3700  0.0584
  837MOL0     H10466   1.650   5.163   2.250 -1.1227  0.0312 -0.4345
  837MOL0     H10467   1.884   5.213   2.248 -1.8534 -1.4470  1.6208
  837MOL0     H10468   2.196   5.401   1.932 -1.4176 -1.1357 -2.4455
  837MOL0     H10469   2.414   5.489   1.855  1.3420  0.1752  0.9739
  837MOL0     H10470   3.850   6.451   1.832  0.6063 -0.0104 -0.2783
  837MOL0     H10471   4.074   6.403   1.741 -1.7209 -0.4381  0.1480
  837MOL0     H10472   4.476   6.606   1.318  1.0606 -1.4416 -1.2363
  837MOL0     H10473   4.703   6.542   1.303  1.8253 -2.5556  0.4399
  837MOL0     H10474   4.882   6.291   1.614  1.4841  0.2419  2.1394
  837MOL0     H10475   4.941   6.438   1.672  0.9581 -0.0525  0.3000
  837MOL0     H10476   5.070   6.278   1.435 -1.0012 -1.6223  1.2010
  837MOL0     H10477   5.121   6.439   1.511  0.6932 -0.3176  1.9304
  837MOL0     H10478   5.077   6.171   1.666  2.2408 -0.7101  0.2859
  837MOL0     H10479   5.160   6.316   1.716 -1.9926  1.1466 -0.4555
  837MOL0     H10480   5.315   6.118   1.639 -1.2607 -0.5024  0.5434
  837MOL0     H10481   5.259   6.157   1.482  1.0088 -2.7033  0.9474
  837MOL0     H10482   5.548   6.477   1.610  0.4098  0.3252 -1.7310
  837MOL0     H10483   4.711   6.452   1.731 -2.8009  1.2950  2.3783
  837MOL0     H10484   4.480   6.530   1.740  2.5933 -1.7400  2.7850
  838MOL0     O10485   8.087   1.791   4.455 -0.0851  0.1152 -0.5188
  838MOL0     C10486   8.147   1.900   4.448 -0.2127 -0.5339  0.6715
  838MOL0     O10487   8.095   2.022   4.501 -0.3339 -0.8152  0.5308
  838MOL0     C10488   7.967   2.013   4.552 -0.6397 -0.0033 -0.2874
  838MOL0     C10489   7.860   1.967   4.480  0.5219 -0.0385  0.0276
  838MOL0     C10490   7.737   1.934   4.541  0.2464 -0.2381 -0.6637
  838MOL0     C10491   7.717   1.962   4.683 -0.1462  0.0253 -1.1385
  838MOL0     O10492   7.598   1.961   4.754  0.1957 -0.1089 -0.3737
  838MOL0     C10493   7.479   1.919   4.691  0.0237 -0.6749 -0.0783
  838MOL0     C10494   7.362   1.901   4.789 -0.1309  0.0721  0.3330
  838MOL0     C10495   7.246   1.822   4.725 -0.0683  0.3219 -0.4172
  838MOL0     C10496   7.113   1.833   4.808  0.4181 -0.2495  0.0778
  838MOL0     C10497   6.992   1.803   4.716 -0.0345 -0.8224  0.0237
  838MOL0     C10498   6.863   1.859   4.792 -0.8247 -0.0505  0.4421
  838MOL0     C10499   6.748   1.829   4.702 -0.9467  0.1661 -0.3865
  838MOL0     C10500   6.618   1.865   4.779 -0.9632 -0.0482  0.4702
  838MOL0     N10501   6.563   1.759   4.859  0.3252 -0.4207 -1.0229
  838MOL0     C10502   6.527   1.642   4.807  0.2082  0.5539  0.0998
  838MOL0     C10503   6.477   1.575   4.909 -0.7271  0.2360  0.5703
  838MOL0     C10504   6.411   1.438   4.896 -0.3271 -0.5194  0.1418
  838MOL0     C10505   6.256   1.436   4.939 -0.9872 -1.1537 -0.1429
  838MOL0     C10506   6.199   1.299   4.964  1.1774 -0.3744 -0.5499
  838MOL0     C10507   6.043   1.293   4.962 -0.9435  0.9318 -0.1094
  838MOL0     O10508   5.990   1.350   4.844  0.4903  0.0398 -0.1346
  838MOL0     C10509   5.854   1.354   4.837  0.0224  0.3894 -0.5831
  838MOL0     C10510   5.766   1.261   4.890  0.3672  0.5911  1.4891
  838MOL0     C10511   5.626   1.283   4.868 -0.2159 -0.3712  0.1908
  838MOL0     C10512   5.575   1.397   4.807  0.5568 -1.1760  0.2086
  838MOL0     C10513   5.425   1.426   4.796 -0.7523  0.2734 -0.2900
  838MOL0     O10514   5.378   1.524   4.708 -0.0995  0.2709 -0.0452
  838MOL0     C10515   5.237   1.525   4.695  0.1287 -1.0176 -0.3799
  838MOL0     C10516   5.153   1.588   4.786  0.4667 -0.4352 -0.2615
  838MOL0     C10517   5.014   1.606   4.759  0.4856  0.1360 -0.1319
  838MOL0     C10518   4.956   1.544   4.649  0.2955  1.8344 -0.4419
  838MOL0     O10519   4.818   1.556   4.626  0.7038 -0.5288 -0.4625
  838MOL0     C10520   4.727   1.587   4.729 -0.1837  0.4649  0.8395
  838MOL0     C10521   4.600   1.557   4.664  0.6877 -0.2318  0.0337
  838MOL0     C10522   4.482   1.578   4.760 -0.0466  1.0457  0.0915
  838MOL0     C10523   4.350   1.546   4.682 -0.9903 -0.3982  0.6779
  838MOL0     C10524   4.259   1.467   4.774 -0.8115  0.6880 -0.9922
  838MOL0     C10525   4.167   1.377   4.695 -0.8541  0.2771 -0.7177
  838MOL0     C10526   4.242   1.251   4.646 -0.3751 -0.0618  0.6546
  838MOL0     C10527   4.144   1.160   4.579 -0.2823 -0.1180  0.0496
  838MOL0    Cl10528   4.045   1.253   4.447 -0.1340 -0.1827 -0.4183
  838MOL0     C10529   5.033   1.472   4.564 -0.8541  0.3782  0.0311
  838MOL0     C10530   5.176   1.460   4.586  0.1741  0.0063 -1.0901
  838MOL0     O10531   5.355   1.368   4.875 -0.5605  0.1702  0.3348
  838MOL0     C10532   5.663   1.491   4.764 -0.4459  0.0872  0.7309
  838MOL0     C10533   5.800   1.466   4.773  0.3126 -0.0416  0.2020
  838MOL0     N10534   6.503   1.653   5.026  0.8712  0.1891 -0.7759
  838MOL0     N10535   6.547   1.767   4.997 -0.5233 -0.5708  1.3094
  838MOL0     C10536   7.826   2.013   4.754 -0.4174  0.1891 -0.0244
  838MOL0     C10537   7.953   2.038   4.694  0.4055  0.9723  0.4210
  838MOL0     C10538   8.290   1.891   4.406 -0.2029  0.7446 -1.0142
  838MOL0     C10539   8.369   2.002   4.382  0.5210  0.4282 -0.2652
  838MOL0     C10540   8.506   1.990   4.357 -0.0420 -0.6406 -0.3132
  838MOL0     C10541   8.571   1.868   4.360 -0.4475  0.6638 -0.0826
  838MOL0     O10542   8.707   1.852   4.356 -0.9973 -0.6848 -0.8759
  838MOL0     C10543   8.805   1.958   4.344 -0.0359 -0.4377 -0.3636
  838MOL0     C10544   8.950   1.902   4.363 -0.6345 -0.0042 -0.3002
  838MOL0     C10545   9.050   2.024   4.378 -0.2288  0.2933  0.2922
  838MOL0     C10546   9.188   1.970   4.388 -0.0343  0.1462 -0.3423
  838MOL0     C10547   9.236   1.905   4.260  0.9516 -0.7560  0.1698
  838MOL0     C10548   9.284   1.845   4.170  0.1145  0.1103  0.4850
  838MOL0     C10549   8.494   1.757   4.369  0.2603  0.6089  0.8177
  838MOL0     C10550   8.355   1.767   4.385  0.5363 -0.5147  0.1512
  838MOL0     H10551   7.875   1.956   4.373 -1.5056 -2.2163 -0.1295
  838MOL0     H10552   7.655   1.899   4.480  0.0092  0.5123 -0.7944
  838MOL0     H10553   7.501   1.824   4.642 -0.5363 -1.5173  1.2732
  838MOL0     H10554   7.449   1.994   4.616  2.8303  1.0345  0.3645
  838MOL0     H10555   7.329   2.003   4.815  1.0968  0.6645 -0.3456
  838MOL0     H10556   7.393   1.866   4.888  0.4977 -0.6792 -0.1177
  838MOL0     H10557   7.265   1.716   4.705 -2.0909 -0.1467 -0.0722
  838MOL0     H10558   7.225   1.870   4.629 -1.4401  0.6630  0.0345
  838MOL0     H10559   7.115   1.779   4.904  1.7647 -2.2290 -0.9890
  838MOL0     H10560   7.105   1.935   4.846  1.2667 -1.6764  4.7801
  838MOL0     H10561   6.983   1.700   4.680 -1.1098 -0.9187  0.5177
  838MOL0     H10562   6.995   1.869   4.629 -1.7103  2.5603  2.3152
  838MOL0     H10563   6.881   1.962   4.822  2.5058 -0.5838  0.7215
  838MOL0     H10564   6.851   1.804   4.886  4.3710 -0.7176  1.0175
  838MOL0     H10565   6.759   1.886   4.609  0.7515  0.3475 -0.0982
  838MOL0     H10566   6.739   1.723   4.676 -0.9903  0.1363 -0.2485
  838MOL0     H10567   6.551   1.896   4.698  0.1311  0.9580 -0.0849
  838MOL0     H10568   6.643   1.954   4.839  0.8454 -0.1938 -0.0146
  838MOL0     H10569   6.525   1.604   4.705  0.7380  1.9964 -0.4693
  838MOL0     H10570   6.465   1.375   4.967  0.3743  0.6806  0.7023
  838MOL0     H10571   6.419   1.408   4.791  1.6164 -0.2231  0.1696
  838MOL0     H10572   6.198   1.482   4.860 -1.4496  0.5596  1.1411
  838MOL0     H10573   6.246   1.508   5.021 -0.9922 -1.9847  0.6112
  838MOL0     H10574   6.248   1.237   4.888 -0.0789 -0.0553 -1.6533
  838MOL0     H10575   6.230   1.259   5.061  1.6345 -1.1964 -1.0154
  838MOL0     H10576   6.014   1.352   5.050 -0.8839 -0.5901  0.9865
  838MOL0     H10577   6.018   1.187   4.978  2.1411 -0.1697 -1.7352
  838MOL0     H10578   5.796   1.165   4.931 -0.6505  0.6952  2.5498
  838MOL0     H10579   5.556   1.204   4.893  0.5375 -1.3007 -0.5503
  838MOL0     H10580   5.187   1.641   4.874 -0.6278 -2.0590  1.2133
  838MOL0     H10581   4.958   1.671   4.825  0.4869 -0.8185  0.8601
  838MOL0     H10582   4.724   1.691   4.763 -3.0635  1.0960 -0.9406
  838MOL0     H10583   4.759   1.529   4.816  3.6081 -0.0690 -0.7280
  838MOL0     H10584   4.599   1.456   4.624 -1.3204  0.3942 -1.6847
  838MOL0     H10585   4.581   1.627   4.582 -1.0395  0.8816  1.2831
  838MOL0     H10586   4.479   1.681   4.794  0.5595  1.0173  0.2415
  838MOL0     H10587   4.492   1.519   4.852  0.0475  0.6981 -0.1366
  838MOL0     H10588   4.311   1.640   4.643  2.3849  0.5510 -0.8272
  838MOL0     H10589   4.384   1.485   4.597  0.5831  1.2189  0.0763
  838MOL0     H10590   4.189   1.528   4.832 -2.1090 -1.1102 -0.5586
  838MOL0     H10591   4.315   1.398   4.838 -1.1725 -0.1220 -1.5332
  838MOL0     H10592   4.122   1.445   4.622 -0.1213  2.0677  0.4264
  838MOL0     H10593   4.076   1.347   4.747 -0.5812  1.5532  0.5448
  838MOL0     H10594   4.313   1.287   4.571  0.7437  0.2957  1.8502
  838MOL0     H10595   4.289   1.199   4.730  2.8407 -2.6436 -2.3934
  838MOL0     H10596   4.076   1.130   4.659  0.6241  2.1893  1.8318
  838MOL0     H10597   4.186   1.068   4.538 -0.6348  0.0793 -0.7600
  838MOL0     H10598   4.966   1.435   4.487 -0.8538  1.2000 -0.3868
  838MOL0     H10599   5.251   1.407   4.529  2.2090  2.9868 -1.4157
  838MOL0     H10600   5.625   1.588   4.733 -1.4877 -0.0545  1.5269
  838MOL0     H10601   5.865   1.546   4.741  3.3385 -0.9736  3.3763
  838MOL0     H10602   7.813   2.025   4.861  1.4491 -0.4918  0.3082
  838MOL0     H10603   8.035   2.068   4.759  2.8859  0.1058 -2.0962
  838MOL0     H10604   8.319   2.097   4.393  0.7709  0.4472  0.8786
  838MOL0     H10605   8.563   2.082   4.347 -1.7174  0.4503 -0.2694
  838MOL0     H10606   8.780   2.028   4.425 -1.5570  0.2983 -1.4292
  838MOL0     H10607   8.796   2.009   4.248 -2.0610 -1.4556 -0.7671
  838MOL0     H10608   8.945   1.859   4.463 -0.5502  2.1481  0.6859
  838MOL0     H10609   8.952   1.831   4.279  1.8304 -0.4039  0.0078
  838MOL0     H10610   9.028   2.097   4.456  0.9642 -1.2692  2.1845
  838MOL0     H10611   9.047   2.077   4.282  0.4636 -0.5424 -0.2051
  838MOL0     H10612   9.255   2.055   4.408  1.4278 -1.5447  2.7141
  838MOL0     H10613   9.184   1.899   4.471 -2.3853 -0.1408 -0.6434
  838MOL0     H10614   9.316   1.774   4.096 -0.1537  0.7363 -0.2387
  838MOL0     H10615   8.540   1.662   4.343 -0.7563 -0.4219  2.5818
  838MOL0     H10616   8.292   1.679   4.392 -0.5227  0.2292  0.1160
  839MOL0     O10617   0.392   9.045   1.249  0.0513  0.6643  0.1958
  839MOL0     C10618   0.424   9.154   1.287  0.3611 -0.2970  1.0054
  839MOL0     O10619   0.345   9.261   1.307  0.7334 -0.4348 -0.2857
  839MOL0     C10620   0.206   9.253   1.323  0.5820 -0.0869 -0.2839
  839MOL0     C10621   0.140   9.368   1.358  0.5934 -0.0180  0.3735
  839MOL0     C10622  -0.001   9.373   1.371 -0.6674  0.1292 -0.4405
  839MOL0     C10623  -0.079   9.256   1.371 -0.0472 -0.0294 -0.5344
  839MOL0     O10624  -0.207   9.272   1.413  0.4617 -0.6066  0.2431
  839MOL0     C10625  -0.288   9.149   1.393 -0.0780 -0.5647 -0.3829
  839MOL0     C10626  -0.443   9.189   1.401 -0.1623  0.0641 -0.9187
  839MOL0     C10627  -0.519   9.071   1.357  0.2983  0.3066  0.6044
  839MOL0     C10628  -0.667   9.098   1.404  0.7685 -0.1265  0.8738
  839MOL0     C10629  -0.768   8.983   1.352 -0.6793  0.0323 -0.6664
  839MOL0     C10630  -0.914   9.030   1.374 -0.9209 -0.3126  0.0391
  839MOL0     C10631  -1.004   8.913   1.358  0.9301  0.8188  0.3422
  839MOL0     C10632  -1.150   8.958   1.366 -0.6899 -0.3234  0.1596
  839MOL0     N10633  -1.255   8.856   1.374  0.2678  0.7628 -0.2134
  839MOL0     C10634  -1.369   8.855   1.456 -0.5257 -0.2948 -0.4047
  839MOL0     C10635  -1.429   8.742   1.432 -0.2219  0.8285  0.0365
  839MOL0     C10636  -1.556   8.695   1.493  0.3472 -0.0101 -0.9719
  839MOL0     C10637  -1.673   8.785   1.453 -0.1151 -0.2892  0.1803
  839MOL0     C10638  -1.805   8.750   1.506  0.5730  0.1968  0.6505
  839MOL0     C10639  -1.915   8.765   1.393  0.2751 -0.5070 -0.4678
  839MOL0     O10640  -1.935   8.901   1.374 -1.0327 -0.2717  0.1599
  839MOL0     C10641  -2.046   8.941   1.302 -0.0555 -0.0727 -0.8663
  839MOL0     C10642  -2.144   8.862   1.240 -0.5012 -0.1247  1.0124
  839MOL0     C10643  -2.251   8.919   1.156 -0.6987 -0.5150  0.3287
  839MOL0     C10644  -2.250   9.057   1.141 -0.8101  0.8871 -0.8919
  839MOL0     C10645  -2.354   9.117   1.051 -0.7304  0.3448 -0.1013
  839MOL0     O10646  -2.470   9.052   1.052 -0.5227 -0.2844  0.1450
  839MOL0     C10647  -2.576   9.094   0.978  0.2182  0.2974  0.4424
  839MOL0     C10648  -2.636   9.000   0.893 -0.6008  0.6075 -0.1560
  839MOL0     C10649  -2.747   9.034   0.822 -0.2092  0.0617 -0.2034
  839MOL0     C10650  -2.819   9.159   0.842  0.4987  0.1449  0.0052
  839MOL0     O10651  -2.934   9.193   0.773  0.6346  0.1317  0.4400
  839MOL0     C10652  -2.984   9.105   0.663 -0.1023  0.1853  0.8155
  839MOL0     C10653  -3.093   9.186   0.603 -0.1378  0.0532  0.1584
  839MOL0     C10654  -3.042   9.317   0.540 -0.3622  0.6576  0.2176
  839MOL0     C10655  -3.157   9.387   0.459  0.1138 -0.5320  0.2495
  839MOL0     C10656  -3.251   9.465   0.551  0.0966  0.1019 -0.0427
  839MOL0     C10657  -3.374   9.525   0.478 -0.2854  0.4056 -0.1271
  839MOL0     C10658  -3.469   9.596   0.575 -0.4599 -1.0742 -0.9113
  839MOL0     C10659  -3.575   9.689   0.517  0.2774  0.3105  0.6539
  839MOL0    Cl10660  -3.718   9.594   0.485 -0.1980  0.2183  0.1069
  839MOL0     C10661  -2.764   9.245   0.944 -0.0928  0.0825  0.2618
  839MOL0     C10662  -2.642   9.206   1.009 -0.7433 -1.1224  0.4159
  839MOL0     O10663  -2.324   9.216   0.981  0.2398  0.2093  0.0343
  839MOL0     C10664  -2.161   9.138   1.210  0.1561 -0.5957  0.7827
  839MOL0     C10665  -2.057   9.076   1.274  0.3988 -0.0114  0.2308
  839MOL0     N10666  -1.363   8.672   1.338 -0.1710 -1.0297 -0.6412
  839MOL0     N10667  -1.260   8.738   1.304 -0.0547  0.7991  0.0321
  839MOL0     C10668  -0.014   9.131   1.345  0.9873  0.0563 -0.4988
  839MOL0     C10669   0.126   9.133   1.321 -0.2539 -0.4507  0.5662
  839MOL0     C10670   0.575   9.171   1.296  0.1778  0.6095 -0.3317
  839MOL0     C10671   0.619   9.304   1.317  0.2466 -0.4460  0.2835
  839MOL0     C10672   0.758   9.324   1.341  0.6167 -0.0455 -0.1510
  839MOL0     C10673   0.847   9.218   1.338 -0.2361  0.2990 -0.9141
  839MOL0     O10674   0.979   9.250   1.358  0.1300 -0.0987  0.0606
  839MOL0     C10675   1.074   9.213   1.261 -0.4719 -0.4101 -0.0992
  839MOL0     C10676   1.204   9.204   1.343 -0.4371  0.2800  0.7143
  839MOL0     C10677   1.231   9.333   1.427 -0.1933  0.9576  0.4664
  839MOL0     C10678   1.380   9.353   1.444 -0.1065  0.0885 -0.2241
  839MOL0     C10679   1.443   9.271   1.538  1.0919 -0.4051 -1.0420
  839MOL0     C10680   1.515   9.193   1.607 -0.4057 -0.1792  0.9093
  839MOL0     C10681   0.800   9.088   1.326  0.2468  0.1217 -0.5887
  839MOL0     C10682   0.664   9.062   1.315 -0.5119  1.0053  0.0942
  839MOL0     H10683   0.203   9.456   1.363  1.2394 -0.5620  2.9458
  839MOL0     H10684  -0.047   9.471   1.380  1.8941  1.3438  0.4402
  839MOL0     H10685  -0.267   9.070   1.466  0.0939  1.0330  1.3627
  839MOL0     H10686  -0.273   9.098   1.297  1.7088 -1.3369  0.2575
  839MOL0     H10687  -0.472   9.275   1.341 -0.1031  0.0994 -0.8955
  839MOL0     H10688  -0.468   9.214   1.504 -0.5754 -2.3496 -0.3657
  839MOL0     H10689  -0.483   8.975   1.397 -1.7091  0.0251  1.8592
  839MOL0     H10690  -0.519   9.061   1.248  1.6237  0.9203  0.5231
  839MOL0     H10691  -0.667   9.098   1.513 -0.4279  0.2112  0.8895
  839MOL0     H10692  -0.703   9.195   1.369 -1.5316 -1.0453  0.5037
  839MOL0     H10693  -0.751   8.890   1.406 -0.1751 -1.0520 -2.6017
  839MOL0     H10694  -0.748   8.963   1.247 -1.7927 -3.9325 -0.2578
  839MOL0     H10695  -0.931   9.113   1.304  2.1695  1.7323  1.4940
  839MOL0     H10696  -0.935   9.074   1.472 -0.7854 -1.7455  0.7365
  839MOL0     H10697  -0.988   8.869   1.259  0.2023 -1.5582  1.2244
  839MOL0     H10698  -0.990   8.835   1.434  0.8009 -1.2537 -1.6475
  839MOL0     H10699  -1.171   9.008   1.271 -2.6484 -3.0182 -0.9590
  839MOL0     H10700  -1.147   9.026   1.451  1.4010  1.2080 -1.0401
  839MOL0     H10701  -1.389   8.930   1.532  4.3715  0.5077  0.4094
  839MOL0     H10702  -1.541   8.698   1.601  2.1064 -4.4809 -0.8715
  839MOL0     H10703  -1.574   8.592   1.459 -1.0820  1.2218 -4.4406
  839MOL0     H10704  -1.672   8.784   1.343 -1.3310 -5.2104  0.0040
  839MOL0     H10705  -1.657   8.889   1.484 -0.7448 -0.0569 -0.2597
  839MOL0     H10706  -1.803   8.646   1.539  2.8317 -0.4688 -1.2887
  839MOL0     H10707  -1.829   8.818   1.588 -0.2875  1.4068 -0.5771
  839MOL0     H10708  -2.010   8.722   1.429  0.2015 -0.7683 -0.9653
  839MOL0     H10709  -1.883   8.704   1.308 -0.2954 -1.3750 -0.0825
  839MOL0     H10710  -2.133   8.754   1.241 -1.8438 -0.3863 -1.5760
  839MOL0     H10711  -2.318   8.864   1.092  0.1664  0.4750 -1.4901
  839MOL0     H10712  -2.597   8.899   0.884  3.3591  2.1249 -2.3578
  839MOL0     H10713  -2.797   8.952   0.771 -0.8615  1.2571 -1.5693
  839MOL0     H10714  -3.018   9.011   0.707 -0.7061  1.5498  3.4768
  839MOL0     H10715  -2.918   9.087   0.578 -1.8278 -2.2158 -0.1268
  839MOL0     H10716  -3.153   9.208   0.691  1.4008 -1.5337  1.6730
  839MOL0     H10717  -3.149   9.132   0.526  0.4639 -1.7350  0.9300
  839MOL0     H10718  -2.955   9.304   0.474 -0.5236  2.3086 -0.3691
  839MOL0     H10719  -2.999   9.384   0.615  0.6197 -0.3472  0.5800
  839MOL0     H10720  -3.112   9.453   0.384 -3.2684  0.1353 -1.3826
  839MOL0     H10721  -3.220   9.315   0.407  1.5779  0.6983 -3.6072
  839MOL0     H10722  -3.186   9.545   0.587  1.3345  0.7084 -3.2256
  839MOL0     H10723  -3.283   9.394   0.627  0.2099  0.4423  0.3238
  839MOL0     H10724  -3.431   9.448   0.424  0.1440 -1.5143  2.0075
  839MOL0     H10725  -3.336   9.596   0.404  1.6134  0.0799  0.4739
  839MOL0     H10726  -3.518   9.516   0.631  0.0178 -1.1139 -0.5409
  839MOL0     H10727  -3.406   9.656   0.642 -0.8261 -1.2795 -0.3763
  839MOL0     H10728  -3.539   9.729   0.421 -0.0438 -4.1320 -1.6087
  839MOL0     H10729  -3.601   9.763   0.593  0.6533 -0.4387  1.5309
  839MOL0     H10730  -2.804   9.344   0.962  1.9979  1.7195 -3.0037
  839MOL0     H10731  -2.599   9.278   1.079  0.4126 -0.4308 -0.9601
  839MOL0     H10732  -2.164   9.245   1.199 -0.5194 -0.5115  1.6710
  839MOL0     H10733  -1.983   9.143   1.316  3.0620 -2.7044  0.1573
  839MOL0     H10734  -0.057   9.032   1.346  0.2074  0.3427  1.9076
  839MOL0     H10735   0.180   9.040   1.302  1.5622  0.8295 -0.8517
  839MOL0     H10736   0.546   9.384   1.314  2.1459  1.3911  0.7025
  839MOL0     H10737   0.800   9.423   1.358 -0.7780  0.6576 -0.6700
  839MOL0     H10738   1.084   9.297   1.192 -0.5054 -0.0704  0.3037
  839MOL0     H10739   1.052   9.117   1.214 -0.6243  0.5251 -2.0388
  839MOL0     H10740   1.194   9.118   1.409 -2.5567 -1.3988 -1.5702
  839MOL0     H10741   1.285   9.192   1.271 -0.9417  0.7793  0.0490
  839MOL0     H10742   1.181   9.334   1.524 -2.0195  0.0199 -0.4189
  839MOL0     H10743   1.199   9.420   1.369 -0.0260  0.3731 -0.5348
  839MOL0     H10744   1.428   9.347   1.346  0.3898 -0.2669  0.0376
  839MOL0     H10745   1.390   9.458   1.474 -2.6831  0.3728 -0.1604
  839MOL0     H10746   1.581   9.140   1.674  1.4504 -1.1819 -1.5568
  839MOL0     H10747   0.877   9.012   1.324  1.1607  0.9932  0.5544
  839MOL0     H10748   0.626   8.961   1.318  0.7465  0.3898 -2.0569
  840MOL0     O10749   1.009   7.513   4.660  1.0804  0.1050 -0.2670
  840MOL0     C10750   0.991   7.571   4.552  0.1199  0.4920  0.2771
  840MOL0     O10751   1.087   7.644   4.478  0.1728  0.1060 -0.1634
  840MOL0     C10752   1.210   7.668   4.533 -0.3025  0.4423  0.2703
  840MOL0     C10753   1.312   7.669   4.436  0.7781  0.2030  0.4686
  840MOL0     C10754   1.439   7.721   4.467  0.2232  0.2743 -0.8744
  840MOL0     C10755   1.468   7.775   4.585 -0.5978 -0.7117 -0.5132
  840MOL0     O10756   1.587   7.832   4.610 -0.0214 -0.0375  0.1611
  840MOL0     C10757   1.696   7.821   4.518  1.0759 -0.0795  0.6238
  840MOL0     C10758   1.828   7.869   4.575  0.0913  0.0372  0.0609
  840MOL0     C10759   1.812   8.020   4.611  0.7833 -0.2360 -1.0758
  840MOL0     C10760   1.941   8.073   4.672  0.0261 -0.2816 -0.2368
  840MOL0     C10761   1.922   8.222   4.707 -0.4500  0.5257 -0.5624
  840MOL0     C10762   2.027   8.267   4.805 -0.1505 -0.1832 -0.4756
  840MOL0     C10763   1.981   8.391   4.889  0.4321  0.7075  0.2587
  840MOL0     C10764   2.077   8.433   4.997 -0.1962 -0.0254  0.0642
  840MOL0     N10765   2.051   8.568   5.044  0.3499 -0.4822 -0.6855
  840MOL0     C10766   2.009   8.589   5.175  0.3588 -0.6193  0.4065
  840MOL0     C10767   2.021   8.724   5.200 -0.1351  0.6361 -0.1625
  840MOL0     C10768   1.985   8.813   5.313 -0.0492  0.0745 -0.1289
  840MOL0     C10769   2.030   8.745   5.433 -0.3471  0.5778  0.1135
  840MOL0     C10770   2.027   8.824   5.568 -0.1799 -0.1323 -0.3262
  840MOL0     C10771   1.876   8.852   5.593  0.8742  0.5457 -0.0676
  840MOL0     O10772   1.801   8.737   5.606  0.5163  0.4836 -0.6925
  840MOL0     C10773   1.669   8.742   5.561  0.1777  1.4596  0.8535
  840MOL0     C10774   1.577   8.813   5.638  0.0135 -0.3181 -0.6331
  840MOL0     C10775   1.445   8.826   5.609  0.3970  0.2484 -0.3657
  840MOL0     C10776   1.393   8.770   5.491 -1.1262 -0.3793  0.6950
  840MOL0     C10777   1.247   8.760   5.476  0.0921 -0.2716 -0.1189
  840MOL0     O10778   1.209   8.662   5.381 -0.4014 -0.2780 -0.3764
  840MOL0     C10779   1.082   8.633   5.378 -0.1505  0.4759 -0.1427
  840MOL0     C10780   1.047   8.513   5.449  0.0068  0.4316 -0.5270
  840MOL0     C10781   0.920   8.473   5.461 -0.2974  0.1502  0.0604
  840MOL0     C10782   0.817   8.543   5.396 -0.0503 -0.1637  0.1167
  840MOL0     O10783   0.692   8.479   5.395 -0.0975  0.4151  0.2904
  840MOL0     C10784   0.646   8.422   5.275 -0.5013 -0.4159 -0.1168
  840MOL0     C10785   0.497   8.392   5.279  0.3600  0.2309  0.7549
  840MOL0     C10786   0.462   8.342   5.140  0.3615  0.3323 -0.3179
  840MOL0     C10787   0.309   8.352   5.122  0.1163 -0.1525  0.6640
  840MOL0     C10788   0.280   8.352   4.965 -0.2443 -0.2553 -0.3254
  840MOL0     C10789   0.321   8.206   4.918  0.5063  0.0047  0.5230
  840MOL0     C10790   0.282   8.197   4.770  0.0451 -0.4114 -0.0528
  840MOL0     C10791   0.345   8.093   4.692  0.1117  0.0715  0.2186
  840MOL0    Cl10792   0.280   7.941   4.763  0.1432 -0.7160 -0.0943
  840MOL0     C10793   0.853   8.650   5.321  0.1139 -0.3214  0.5698
  840MOL0     C10794   0.983   8.693   5.306  0.4181 -0.5976  0.1507
  840MOL0     O10795   1.167   8.832   5.540  0.2079  0.5066  0.4414
  840MOL0     C10796   1.483   8.705   5.401  0.1104 -0.0604  0.1513
  840MOL0     C10797   1.621   8.692   5.438 -0.0025  0.2186  0.2287
  840MOL0     N10798   2.057   8.775   5.079 -0.4675 -1.1669 -0.0361
  840MOL0     N10799   2.082   8.687   4.991 -0.1476  0.0491  0.9812
  840MOL0     C10800   1.361   7.786   4.669  0.3087  0.3530 -0.4394
  840MOL0     C10801   1.232   7.741   4.649  0.8783  0.1771  0.4710
  840MOL0     C10802   0.861   7.546   4.491  0.6289  0.5513 -0.1127
  840MOL0     C10803   0.748   7.491   4.559 -0.5486  0.0183 -0.2508
  840MOL0     C10804   0.633   7.456   4.492 -0.2903  0.5067  0.0548
  840MOL0     C10805   0.613   7.487   4.359  0.1868  0.1448  0.0591
  840MOL0     O10806   0.489   7.473   4.298  0.5381  0.2584  0.0692
  840MOL0     C10807   0.437   7.589   4.225  0.1066  0.2404  0.1033
  840MOL0     C10808   0.387   7.700   4.318 -0.0748  0.3287 -0.1010
  840MOL0     C10809   0.320   7.820   4.240 -0.1968  0.3201 -0.4584
  840MOL0     C10810   0.238   7.915   4.324 -0.0141 -0.6567  0.1183
  840MOL0     C10811   0.118   7.859   4.391 -0.1216  1.3232  0.6263
  840MOL0     C10812   0.019   7.817   4.453 -0.0214  0.3441 -0.7093
  840MOL0     C10813   0.725   7.548   4.288  0.0272  0.7369  0.2875
  840MOL0     C10814   0.852   7.571   4.355  0.2601  0.5747  0.5972
  840MOL0     H10815   1.290   7.621   4.341  0.6107  0.5156  0.3496
  840MOL0     H10816   1.519   7.710   4.394  1.1911  2.9550 -0.3387
  840MOL0     H10817   1.671   7.877   4.427  0.6803 -1.9292 -0.4590
  840MOL0     H10818   1.724   7.722   4.482  2.2493  1.0470 -1.7978
  840MOL0     H10819   1.900   7.864   4.493  0.2280 -0.0781  0.1880
  840MOL0     H10820   1.864   7.813   4.662  0.4924  1.3917  0.8084
  840MOL0     H10821   1.728   8.030   4.681  0.5422 -1.4466 -1.1630
  840MOL0     H10822   1.796   8.066   4.514  2.2426  0.4670 -1.0144
  840MOL0     H10823   1.970   8.013   4.758  3.9615 -0.2158 -1.2781
  840MOL0     H10824   2.030   8.055   4.609  0.5536 -2.2696  1.0068
  840MOL0     H10825   1.822   8.233   4.749 -0.7486 -3.1193 -0.0221
  840MOL0     H10826   1.929   8.289   4.621  1.8015  0.0485 -0.8196
  840MOL0     H10827   2.119   8.282   4.748  0.0496 -0.0948 -0.1392
  840MOL0     H10828   2.045   8.195   4.886 -1.1424  3.2482  3.1598
  840MOL0     H10829   1.963   8.477   4.824 -1.4892  1.2262  1.3669
  840MOL0     H10830   1.883   8.368   4.933  0.4297 -1.0283 -0.5769
  840MOL0     H10831   2.173   8.426   4.946 -0.3131 -1.6415  0.0141
  840MOL0     H10832   2.075   8.359   5.077 -0.2377 -0.7136 -0.5581
  840MOL0     H10833   1.961   8.520   5.245 -1.4468 -2.0036 -2.0462
  840MOL0     H10834   1.877   8.826   5.305 -0.3813 -2.5930 -0.6359
  840MOL0     H10835   2.038   8.909   5.312  1.0458 -0.5026  0.5862
  840MOL0     H10836   2.137   8.727   5.419 -0.1363 -1.8466  3.4647
  840MOL0     H10837   1.989   8.643   5.438 -0.2080  0.5032 -0.2414
  840MOL0     H10838   2.083   8.773   5.646 -0.4792 -2.1966 -1.4033
  840MOL0     H10839   2.071   8.924   5.556 -1.7660  1.0422  2.3871
  840MOL0     H10840   1.831   8.922   5.523 -1.8208  1.4586  2.3624
  840MOL0     H10841   1.860   8.899   5.691 -4.1859 -2.0364  0.6705
  840MOL0     H10842   1.611   8.861   5.730 -1.3673  0.9740 -0.7587
  840MOL0     H10843   1.365   8.865   5.672 -0.2918 -2.3733  0.5216
  840MOL0     H10844   1.129   8.462   5.500  0.2285  1.3026  0.0110
  840MOL0     H10845   0.891   8.381   5.509 -0.7901 -0.0718 -0.6498
  840MOL0     H10846   0.691   8.325   5.258  0.0253 -0.2762  0.4484
  840MOL0     H10847   0.662   8.490   5.191 -0.0020 -1.7332 -1.1174
  840MOL0     H10848   0.437   8.481   5.301 -1.6927 -1.6191  3.1721
  840MOL0     H10849   0.474   8.314   5.352  3.6801 -1.9956 -0.3401
  840MOL0     H10850   0.493   8.237   5.136  2.0572  0.8380 -1.7791
  840MOL0     H10851   0.523   8.394   5.066  0.8378  0.6313  0.2706
  840MOL0     H10852   0.250   8.280   5.180 -1.0187  0.1713 -0.0633
  840MOL0     H10853   0.272   8.451   5.153 -1.7425 -0.7000  0.3242
  840MOL0     H10854   0.345   8.428   4.921  0.6975  0.2661  1.8585
  840MOL0     H10855   0.176   8.381   4.950 -1.3580 -3.2476  0.8775
  840MOL0     H10856   0.265   8.130   4.973 -0.9615  1.3683  0.9770
  840MOL0     H10857   0.426   8.176   4.929  0.6044  0.1517 -0.0035
  840MOL0     H10858   0.175   8.181   4.759  0.0513 -0.3916 -0.1471
  840MOL0     H10859   0.300   8.296   4.726  1.4592 -1.1047 -1.1242
  840MOL0     H10860   0.454   8.086   4.697  0.0831 -2.0113 -0.8850
  840MOL0     H10861   0.311   8.091   4.588  2.2501  0.6993 -0.5533
  840MOL0     H10862   0.779   8.703   5.263  1.1233 -0.3698 -0.8191
  840MOL0     H10863   1.004   8.781   5.246 -1.8186  0.4759  0.8554
  840MOL0     H10864   1.444   8.656   5.313 -1.0669 -1.7187  1.5132
  840MOL0     H10865   1.677   8.643   5.359 -1.7243 -0.6197 -0.5504
  840MOL0     H10866   1.375   7.832   4.767 -1.9525 -1.6901  0.9593
  840MOL0     H10867   1.152   7.775   4.713 -0.0857  1.6047 -1.3653
  840MOL0     H10868   0.761   7.453   4.660 -0.4664 -2.9601 -1.2773
  840MOL0     H10869   0.554   7.418   4.556  2.0594  1.0619  3.6223
  840MOL0     H10870   0.366   7.557   4.148  2.9714 -1.9971 -1.8380
  840MOL0     H10871   0.517   7.642   4.171 -1.6835 -0.6334 -3.7236
  840MOL0     H10872   0.323   7.662   4.398  1.9959 -2.2769  0.4703
  840MOL0     H10873   0.476   7.744   4.365  0.1561  1.3344 -1.4047
  840MOL0     H10874   0.250   7.776   4.169 -1.5611  1.8040 -0.1006
  840MOL0     H10875   0.394   7.879   4.185 -0.7404 -0.7350 -2.4297
  840MOL0     H10876   0.307   7.957   4.398  0.4674 -0.5530 -0.3841
  840MOL0     H10877   0.200   8.001   4.268 -0.9029 -1.3352 -0.3561
  840MOL0     H10878  -0.075   7.783   4.492 -1.1857 -0.3721 -3.8045
  840MOL0     H10879   0.727   7.562   4.180 -0.5542 -1.8297 -0.1082
  840MOL0     H10880   0.933   7.594   4.286  0.1558  0.9960  0.6123
  841MOL0     O10881   2.818   1.377   8.879 -0.3111 -0.0188  0.0029
  841MOL0     C10882   2.826   1.490   8.824 -0.4225  0.7168 -0.2898
  841MOL0     O10883   2.749   1.544   8.728 -0.0182  0.5894 -0.0550
  841MOL0     C10884   2.653   1.460   8.671  0.1685 -0.5154 -0.6759
  841MOL0     C10885   2.514   1.480   8.682  0.0753 -0.2938  0.2160
  841MOL0     C10886   2.429   1.389   8.611 -0.8242 -0.2689 -0.4589
  841MOL0     C10887   2.486   1.288   8.532  0.0763 -0.0926  0.2606
  841MOL0     O10888   2.419   1.202   8.453  0.0051  0.1299  1.1181
  841MOL0     C10889   2.280   1.182   8.476 -0.5996  0.2333 -1.0011
  841MOL0     C10890   2.189   1.277   8.412  0.0346  0.8732  0.3670
  841MOL0     C10891   2.043   1.230   8.428  0.3388 -0.5471  0.3177
  841MOL0     C10892   1.982   1.244   8.573 -0.3530 -0.1624  0.8476
  841MOL0     C10893   1.830   1.225   8.558  1.0929 -0.0592 -0.0456
  841MOL0     C10894   1.763   1.356   8.509  0.8865  0.5565  1.0745
  841MOL0     C10895   1.611   1.352   8.531 -0.2826 -0.5660 -0.4315
  841MOL0     C10896   1.547   1.489   8.489  0.3331  0.3989  0.6972
  841MOL0     N10897   1.558   1.523   8.350  0.1529 -1.2040 -0.0808
  841MOL0     C10898   1.517   1.438   8.243 -0.7362  0.8548  0.5973
  841MOL0     C10899   1.584   1.491   8.135  0.6574  0.6210 -0.5575
  841MOL0     C10900   1.544   1.436   7.998  0.0524 -1.4949 -0.2820
  841MOL0     C10901   1.392   1.474   7.973  0.5294  0.8966 -0.5934
  841MOL0     C10902   1.360   1.606   7.908  0.0489  0.6346  0.9029
  841MOL0     C10903   1.219   1.643   7.916  0.0723 -0.0580 -0.4293
  841MOL0     O10904   1.142   1.570   7.819 -0.3192 -0.1668  0.2268
  841MOL0     C10905   1.039   1.490   7.858 -0.5209  0.4492 -0.1273
  841MOL0     C10906   1.023   1.360   7.810  0.6431 -0.1449  0.2742
  841MOL0     C10907   0.910   1.284   7.858 -0.1895  0.1574  0.7172
  841MOL0     C10908   0.816   1.339   7.948  0.4210 -0.2849 -0.5453
  841MOL0     C10909   0.704   1.257   8.007  0.1020  0.1912  0.2918
  841MOL0     O10910   0.679   1.132   7.942 -0.6588  0.2392 -0.0167
  841MOL0     C10911   0.603   1.047   8.022 -0.3187 -0.5393  0.2215
  841MOL0     C10912   0.668   0.936   8.079 -0.7425  0.3098 -0.3155
  841MOL0     C10913   0.603   0.840   8.155  0.4847  0.6920 -0.3827
  841MOL0     C10914   0.469   0.840   8.174  0.8185 -0.2144  0.7212
  841MOL0     O10915   0.416   0.735   8.244 -0.3373 -0.0712  0.4295
  841MOL0     C10916   0.287   0.749   8.290 -0.3049 -0.7808 -0.2808
  841MOL0     C10917   0.236   0.609   8.323 -0.5377 -0.3905  0.5360
  841MOL0     C10918   0.103   0.609   8.374  0.2471  0.0000 -0.5632
  841MOL0     C10919   0.045   0.468   8.393 -0.7918  0.1145  0.9384
  841MOL0     C10920  -0.079   0.473   8.486  1.1777 -0.5827  0.3408
  841MOL0     C10921  -0.138   0.336   8.510  0.5182 -0.4644 -0.2685
  841MOL0     C10922  -0.262   0.341   8.602  0.2635  0.7164  0.1244
  841MOL0     C10923  -0.327   0.201   8.615  0.3197 -0.4881 -0.3850
  841MOL0    Cl10924  -0.458   0.188   8.743  0.3337  0.1320 -0.0517
  841MOL0     C10925   0.399   0.954   8.112 -0.1260 -0.1181  0.0549
  841MOL0     C10926   0.463   1.051   8.037  0.1644 -0.7876 -0.0693
  841MOL0     O10927   0.642   1.312   8.093 -0.1454  0.2139 -1.4434
  841MOL0     C10928   0.834   1.475   7.994  0.9768  0.8078 -0.2757
  841MOL0     C10929   0.948   1.546   7.942  0.4316  0.1230  0.4593
  841MOL0     N10930   1.652   1.604   8.172 -0.1580 -0.1044 -0.4782
  841MOL0     N10931   1.642   1.620   8.299 -0.2697 -0.1114 -0.3321
  841MOL0     C10932   2.625   1.288   8.518  0.1710  0.2116  1.0030
  841MOL0     C10933   2.710   1.358   8.596  0.7743 -0.5154  0.4636
  841MOL0     C10934   2.955   1.559   8.861 -0.4608 -0.6466  0.2000
  841MOL0     C10935   3.011   1.653   8.778 -0.4312 -0.2329  0.0583
  841MOL0     C10936   3.140   1.713   8.806  0.1886  0.1161 -0.0072
  841MOL0     C10937   3.214   1.676   8.922 -0.0199  0.4025  0.2246
  841MOL0     O10938   3.336   1.741   8.938  0.1598  0.0107 -0.4469
  841MOL0     C10939   3.411   1.702   9.049 -0.3314  0.9853 -0.1494
  841MOL0     C10940   3.471   1.562   9.033 -0.3641 -0.3581  0.4009
  841MOL0     C10941   3.622   1.568   9.084  1.1548 -0.2590 -0.6484
  841MOL0     C10942   3.687   1.432   9.097  0.2294 -1.0981  0.5097
  841MOL0     C10943   3.827   1.458   9.128  1.0408 -0.0521 -0.5559
  841MOL0     C10944   3.941   1.474   9.173  0.1410 -0.3598 -1.1570
  841MOL0     C10945   3.156   1.583   9.010 -0.4076  1.2617 -0.6927
  841MOL0     C10946   3.028   1.527   8.976  0.0537 -0.6421 -0.0259
  841MOL0     H10947   2.467   1.562   8.735 -0.2452 -0.5570  0.3477
  841MOL0     H10948   2.323   1.405   8.624 -0.3958  2.5437  0.2526
  841MOL0     H10949   2.255   1.172   8.582 -3.0327 -1.3441 -1.6409
  841MOL0     H10950   2.254   1.083   8.438  1.2754 -0.1374 -1.4340
  841MOL0     H10951   2.206   1.282   8.304 -3.4825  0.1100 -0.3179
  841MOL0     H10952   2.202   1.376   8.456  1.8529  0.1798  1.5198
  841MOL0     H10953   2.032   1.130   8.387  1.6425 -0.1896 -0.9754
  841MOL0     H10954   1.985   1.287   8.355 -0.0744 -1.2930  0.0574
  841MOL0     H10955   2.040   1.179   8.638  2.8747  0.2824 -1.3340
  841MOL0     H10956   2.000   1.346   8.609  1.8398 -0.7765  1.6538
  841MOL0     H10957   1.797   1.211   8.661  3.4078  1.8768  1.0444
  841MOL0     H10958   1.792   1.138   8.503 -1.6952  1.1200 -0.1383
  841MOL0     H10959   1.781   1.376   8.403 -0.5675  2.8042  1.1773
  841MOL0     H10960   1.806   1.442   8.560  0.3185  0.0082  2.5525
  841MOL0     H10961   1.562   1.267   8.482  0.2590 -1.4998  0.6144
  841MOL0     H10962   1.587   1.337   8.636 -0.0822  0.1710 -0.2717
  841MOL0     H10963   1.588   1.568   8.552 -0.4113 -0.4264  2.2614
  841MOL0     H10964   1.438   1.483   8.495  0.1656  1.5117 -0.6338
  841MOL0     H10965   1.450   1.353   8.247  0.3413  0.0183  3.0569
  841MOL0     H10966   1.567   1.330   7.995  1.2724 -1.2324 -0.7359
  841MOL0     H10967   1.601   1.486   7.918 -3.0349  2.8522 -0.1530
  841MOL0     H10968   1.333   1.472   8.065  2.1013  1.0426  0.4433
  841MOL0     H10969   1.351   1.395   7.909  1.4821  0.2742 -0.4670
  841MOL0     H10970   1.414   1.690   7.953 -3.3838  2.9417  1.0343
  841MOL0     H10971   1.375   1.607   7.799 -1.5498 -1.9242  0.5513
  841MOL0     H10972   1.216   1.750   7.893 -0.8985  0.3865  1.5323
  841MOL0     H10973   1.186   1.632   8.020  1.1360 -3.5968 -0.3343
  841MOL0     H10974   1.091   1.319   7.736 -1.1564  1.7115 -2.6248
  841MOL0     H10975   0.885   1.183   7.827 -0.6691  0.9491 -1.6369
  841MOL0     H10976   0.775   0.931   8.063 -0.8799 -0.6739 -1.0080
  841MOL0     H10977   0.668   0.765   8.199  0.1772  1.2815  1.1093
  841MOL0     H10978   0.211   0.789   8.222 -1.4898  1.8424  2.3850
  841MOL0     H10979   0.287   0.815   8.377 -0.3676 -2.9628  1.4546
  841MOL0     H10980   0.309   0.557   8.386 -1.9860 -1.0241  1.7478
  841MOL0     H10981   0.232   0.553   8.229  0.7117  2.6872 -1.5232
  841MOL0     H10982   0.034   0.674   8.319  0.1877  0.8578  0.4869
  841MOL0     H10983   0.106   0.655   8.474  0.1389  0.1258 -0.6171
  841MOL0     H10984   0.024   0.419   8.297  0.2029 -0.2444  0.8943
  841MOL0     H10985   0.122   0.406   8.439  1.0252  2.3662  1.1011
  841MOL0     H10986  -0.159   0.541   8.455 -2.4789 -2.8587  3.9087
  841MOL0     H10987  -0.053   0.532   8.574 -1.6637  1.5586 -0.1377
  841MOL0     H10988  -0.075   0.264   8.561 -0.3547 -1.8590 -1.0832
  841MOL0     H10989  -0.172   0.296   8.414 -0.6113  0.2097 -0.1674
  841MOL0     H10990  -0.232   0.378   8.700  0.3836 -0.9204  0.7364
  841MOL0     H10991  -0.327   0.416   8.556 -1.0895  0.3841  1.4025
  841MOL0     H10992  -0.241   0.137   8.637  0.1633  0.3727  3.3652
  841MOL0     H10993  -0.368   0.174   8.517 -0.7135  0.8856 -0.3638
  841MOL0     H10994   0.291   0.956   8.128  0.0872 -2.9440  2.5920
  841MOL0     H10995   0.415   1.134   7.987  1.8218  0.2940  0.0692
  841MOL0     H10996   0.763   1.526   8.058 -1.1531 -0.5351 -1.4683
  841MOL0     H10997   0.966   1.647   7.976 -1.5455  1.6422 -2.5337
  841MOL0     H10998   2.668   1.219   8.446  0.6954 -0.7808  2.2179
  841MOL0     H10999   2.817   1.354   8.577  1.2124  1.8225  2.0480
  841MOL0     H11000   2.976   1.681   8.679  3.7865 -2.2922 -2.3187
  841MOL0     H11001   3.182   1.780   8.732  0.2775 -2.1059 -2.1230
  841MOL0     H11002   3.344   1.700   9.135  2.5925 -1.8835  2.3500
  841MOL0     H11003   3.482   1.779   9.078  0.4509 -0.9172  3.6073
  841MOL0     H11004   3.423   1.489   9.099  0.9448 -1.8220 -0.1812
  841MOL0     H11005   3.469   1.532   8.927 -1.0280 -2.2714  0.9191
  841MOL0     H11006   3.624   1.612   9.184  0.2113 -2.3153  0.3484
  841MOL0     H11007   3.683   1.629   9.017 -0.2970  1.0920 -0.7996
  841MOL0     H11008   3.632   1.368   9.166 -4.0854 -2.9166 -3.9888
  841MOL0     H11009   3.680   1.385   8.998  0.7214 -0.6331  0.2468
  841MOL0     H11010   4.041   1.491   9.205 -0.7903  0.4688  1.6349
  841MOL0     H11011   3.196   1.551   9.106 -0.8038 -1.5550 -1.3846
  841MOL0     H11012   2.973   1.455   9.037 -2.7354  2.4526  1.4392
  842MOL0     O11013   1.590   4.355   5.441 -0.5854  0.1966 -0.4514
  842MOL0     C11014   1.693   4.347   5.522  0.1799  0.1613 -0.6306
  842MOL0     O11015   1.685   4.345   5.657 -0.0630  0.5124  0.0868
  842MOL0     C11016   1.563   4.359   5.717  0.8154 -0.1944 -0.9415
  842MOL0     C11017   1.519   4.264   5.809 -0.3147  0.0466 -0.2883
  842MOL0     C11018   1.397   4.296   5.885  0.0823 -0.5948  0.5651
  842MOL0     C11019   1.328   4.411   5.852  0.5100 -0.5092 -0.0492
  842MOL0     O11020   1.217   4.454   5.922  0.2684  0.6526 -0.5276
  842MOL0     C11021   1.120   4.347   5.954 -0.9152 -1.3736 -0.1706
  842MOL0     C11022   0.983   4.419   5.957  0.4833 -0.6197 -0.5776
  842MOL0     C11023   0.873   4.330   6.011 -0.6607  0.1900 -0.5229
  842MOL0     C11024   0.740   4.407   6.006  0.3788 -0.4189 -0.0998
  842MOL0     C11025   0.644   4.345   6.110 -0.5120 -0.4269 -0.1304
  842MOL0     C11026   0.498   4.394   6.094  0.3278 -0.1998  0.2967
  842MOL0     C11027   0.400   4.316   6.194 -0.4009  0.2160 -0.0831
  842MOL0     C11028   0.273   4.269   6.134  1.0591  0.8353  1.0401
  842MOL0     N11029   0.174   4.209   6.226 -0.4696  0.5560  0.5529
  842MOL0     C11030   0.202   4.105   6.312  0.7375  0.2818 -0.6992
  842MOL0     C11031   0.073   4.078   6.354  0.5699 -0.3838 -0.2017
  842MOL0     C11032   0.036   3.976   6.462 -0.5002 -0.2405  0.6693
  842MOL0     C11033  -0.001   3.848   6.395 -0.2901 -0.0173 -0.1057
  842MOL0     C11034  -0.055   3.756   6.512 -0.2373 -0.2928  0.9076
  842MOL0     C11035  -0.092   3.616   6.467  0.2391 -0.3390  0.3418
  842MOL0     O11036   0.032   3.533   6.480 -0.1306  0.5258  0.1963
  842MOL0     C11037   0.029   3.397   6.493 -0.2095 -0.0522  0.3693
  842MOL0     C11038  -0.091   3.325   6.497 -0.1363 -0.0387 -0.1903
  842MOL0     C11039  -0.101   3.187   6.494 -0.2989  1.1916  0.4467
  842MOL0     C11040   0.014   3.103   6.485 -0.1859 -0.5960 -0.1071
  842MOL0     C11041   0.012   2.960   6.454 -0.5010 -0.4671 -0.3891
  842MOL0     O11042  -0.118   2.909   6.438 -0.1156 -0.3756 -0.4531
  842MOL0     C11043  -0.150   2.775   6.432  0.4255 -0.2095  0.5777
  842MOL0     C11044  -0.274   2.753   6.368 -0.2334  0.0535  0.1972
  842MOL0     C11045  -0.330   2.629   6.348  0.5915  1.3244 -0.4198
  842MOL0     C11046  -0.265   2.517   6.409  0.0059 -0.0169 -0.2534
  842MOL0     O11047  -0.326   2.396   6.420  0.6712  0.5725 -0.6635
  842MOL0     C11048  -0.272   2.283   6.483 -0.7364  0.4929 -0.0489
  842MOL0     C11049  -0.357   2.159   6.449  0.2090  0.2106 -0.6264
  842MOL0     C11050  -0.499   2.179   6.504 -0.3592 -0.2532  0.2139
  842MOL0     C11051  -0.588   2.062   6.459 -0.0089 -0.1007 -0.3016
  842MOL0     C11052  -0.716   2.087   6.547 -0.9914  0.6783  0.7450
  842MOL0     C11053  -0.805   1.966   6.542  0.5393  0.8476 -0.7765
  842MOL0     C11054  -0.942   1.998   6.593 -0.5153 -1.1403  0.4955
  842MOL0     C11055  -1.038   1.896   6.543  0.6742  0.2550  0.8584
  842MOL0    Cl11056  -1.195   1.906   6.627  0.1939 -0.2090  0.1481
  842MOL0     C11057  -0.148   2.543   6.490 -0.2291 -0.9402 -0.4721
  842MOL0     C11058  -0.085   2.668   6.494  0.3947  0.1612 -0.4064
  842MOL0     O11059   0.106   2.886   6.450 -0.0757  0.0974  0.3782
  842MOL0     C11060   0.134   3.171   6.475  0.3051  0.8282 -0.3520
  842MOL0     C11061   0.144   3.316   6.472  0.8088 -0.4032 -0.1611
  842MOL0     N11062  -0.020   4.166   6.297  0.2801  0.5556  0.7200
  842MOL0     N11063   0.047   4.242   6.226  0.3624 -0.2727  0.3129
  842MOL0     C11064   1.360   4.486   5.741  0.3143  1.7358 -0.1141
  842MOL0     C11065   1.484   4.471   5.687  0.8980  1.1489  0.6280
  842MOL0     C11066   1.826   4.346   5.471 -0.4384 -0.0617  0.2411
  842MOL0     C11067   1.940   4.388   5.542  0.3629  0.4165 -0.1074
  842MOL0     C11068   2.061   4.387   5.474  0.3622  0.1071 -0.5053
  842MOL0     C11069   2.076   4.358   5.334 -0.1598  0.0068 -0.7091
  842MOL0     O11070   2.208   4.357   5.284  0.4469  0.0818 -0.4322
  842MOL0     C11071   2.238   4.308   5.152  0.1602 -0.5260  0.0956
  842MOL0     C11072   2.380   4.353   5.115 -0.0387 -0.4535 -0.3688
  842MOL0     C11073   2.487   4.307   5.224  0.4977 -0.2774 -0.7171
  842MOL0     C11074   2.627   4.347   5.193 -0.4872 -0.7175 -0.3483
  842MOL0     C11075   2.648   4.486   5.233  0.4637 -0.2666 -0.1808
  842MOL0     C11076   2.669   4.598   5.271  0.9002  0.5386  0.0093
  842MOL0     C11077   1.956   4.324   5.265  0.2818 -0.2387  0.1474
  842MOL0     C11078   1.837   4.318   5.330 -0.3894 -1.1339 -0.8121
  842MOL0     H11079   1.575   4.173   5.827  0.1886  0.6605  1.4403
  842MOL0     H11080   1.351   4.223   5.951 -1.0011  0.8120  1.4033
  842MOL0     H11081   1.144   4.307   6.053  0.3939  0.8758  0.4842
  842MOL0     H11082   1.121   4.260   5.888 -0.2675 -0.8897 -0.8048
  842MOL0     H11083   0.962   4.454   5.856 -0.9141 -2.0050 -0.8025
  842MOL0     H11084   0.993   4.507   6.021  1.0414 -1.1336  0.0664
  842MOL0     H11085   0.886   4.294   6.113 -1.4941 -0.2170 -0.5494
  842MOL0     H11086   0.858   4.243   5.946 -2.7345 -0.1704  0.3548
  842MOL0     H11087   0.763   4.510   6.032  0.3273 -0.0216 -1.5095
  842MOL0     H11088   0.702   4.404   5.903 -0.2315  1.2993  0.0587
  842MOL0     H11089   0.676   4.372   6.211 -0.4780  0.4327 -0.3694
  842MOL0     H11090   0.645   4.238   6.088 -1.5876 -0.4312 -0.1921
  842MOL0     H11091   0.466   4.378   5.991 -1.5612 -0.6074  0.9009
  842MOL0     H11092   0.500   4.502   6.114 -0.3003  0.2823 -2.0258
  842MOL0     H11093   0.447   4.222   6.227 -1.2519 -0.6597 -1.2674
  842MOL0     H11094   0.379   4.386   6.276  3.7715  3.6124 -1.5535
  842MOL0     H11095   0.305   4.196   6.058 -2.0240  0.1592  0.2619
  842MOL0     H11096   0.229   4.346   6.069 -0.6396 -0.1099  1.0204
  842MOL0     H11097   0.298   4.065   6.343  0.3437  0.9219  1.5582
  842MOL0     H11098  -0.047   4.010   6.525 -1.4261  1.1914 -1.2127
  842MOL0     H11099   0.120   3.960   6.530 -0.0961 -1.5488 -0.0991
  842MOL0     H11100   0.079   3.807   6.333 -1.5200 -1.5673 -0.7753
  842MOL0     H11101  -0.086   3.869   6.329  0.5188  1.6210 -0.6805
  842MOL0     H11102   0.017   3.744   6.593 -2.2431 -3.3530  2.4422
  842MOL0     H11103  -0.145   3.808   6.549 -1.6269 -0.7019 -1.6728
  842MOL0     H11104  -0.137   3.618   6.367  1.8552 -2.3719 -0.5128
  842MOL0     H11105  -0.167   3.582   6.538  1.0168 -1.6623  0.5711
  842MOL0     H11106  -0.188   3.370   6.477 -0.3387  0.0754  0.9382
  842MOL0     H11107  -0.194   3.140   6.464  0.2998 -0.7310  1.4650
  842MOL0     H11108  -0.329   2.839   6.331 -2.3171 -1.2053  0.1806
  842MOL0     H11109  -0.422   2.616   6.293  1.9589  1.5403 -2.9229
  842MOL0     H11110  -0.271   2.288   6.592  1.4356  0.4041 -0.0254
  842MOL0     H11111  -0.170   2.267   6.445 -0.5892  1.5900 -0.1631
  842MOL0     H11112  -0.329   2.065   6.498  0.2960 -1.1844 -3.1942
  842MOL0     H11113  -0.360   2.141   6.341  0.9690 -0.1443 -0.5907
  842MOL0     H11114  -0.540   2.273   6.465  1.0505  0.3851  0.2075
  842MOL0     H11115  -0.488   2.190   6.612  0.4880  2.3290 -0.0641
  842MOL0     H11116  -0.610   2.067   6.352  5.2095  2.6370 -1.6113
  842MOL0     H11117  -0.532   1.969   6.469 -0.0447  0.0208  1.2955
  842MOL0     H11118  -0.768   2.179   6.519 -0.7060  1.0582  1.4372
  842MOL0     H11119  -0.689   2.108   6.651  2.0264  1.4126 -0.0955
  842MOL0     H11120  -0.768   1.882   6.600 -1.7501 -1.2361 -2.1386
  842MOL0     H11121  -0.818   1.932   6.439 -1.4227 -2.0400  0.3119
  842MOL0     H11122  -0.923   1.994   6.701 -0.5935 -0.6417  0.5260
  842MOL0     H11123  -0.979   2.099   6.577  1.8001  0.0132  1.8380
  842MOL0     H11124  -1.008   1.792   6.558 -4.0838 -1.2752  1.4569
  842MOL0     H11125  -1.042   1.902   6.433  2.4512 -1.0639  0.6921
  842MOL0     H11126  -0.107   2.453   6.537 -2.6259 -1.5768  0.5573
  842MOL0     H11127   0.002   2.684   6.557  0.6812  1.7548 -1.1760
  842MOL0     H11128   0.226   3.114   6.460 -1.3285 -1.6076 -1.6909
  842MOL0     H11129   0.241   3.364   6.465  1.0814 -0.8398  0.5132
  842MOL0     H11130   1.298   4.574   5.731 -2.7176 -0.1096  1.0682
  842MOL0     H11131   1.509   4.551   5.618 -2.0608  1.9581  0.3451
  842MOL0     H11132   1.928   4.430   5.641  1.0807 -2.6359  1.4122
  842MOL0     H11133   2.149   4.425   5.525 -0.2709 -0.5543  1.1340
  842MOL0     H11134   2.163   4.339   5.079 -0.5277 -3.2612 -0.4855
  842MOL0     H11135   2.231   4.200   5.135  2.0193 -0.7827  0.7600
  842MOL0     H11136   2.416   4.317   5.018  0.8703  2.2482 -1.1121
  842MOL0     H11137   2.388   4.461   5.103  0.0476 -0.5791 -1.5410
  842MOL0     H11138   2.486   4.199   5.239  1.7992 -0.1056  0.9752
  842MOL0     H11139   2.457   4.343   5.323  0.7669 -2.6200  0.2714
  842MOL0     H11140   2.697   4.285   5.251  1.3781  2.3185  0.8720
  842MOL0     H11141   2.661   4.329   5.091  0.2114  0.2118 -0.2887
  842MOL0     H11142   2.712   4.689   5.308  1.3966 -0.0473  0.8938
  842MOL0     H11143   1.970   4.310   5.159  1.2804 -1.1124  0.3703
  842MOL0     H11144   1.745   4.302   5.273  0.1320  0.5505 -2.2090
  843MOL0     O11145  10.718   3.431  10.847 -0.1545 -0.5785  0.3408
  843MOL0     C11146  10.692   3.315  10.879  0.2174 -0.6562 -0.0812
  843MOL0     O11147  10.635   3.216  10.803  1.1437 -0.6542  0.4291
  843MOL0     C11148  10.598   3.241  10.678  0.8318  0.3558  0.5924
  843MOL0     C11149  10.685   3.296  10.583 -0.5028  0.5991  0.4538
  843MOL0     C11150  10.633   3.335  10.454  0.1691 -0.0578  0.6654
  843MOL0     C11151  10.507   3.299  10.406  0.1301  0.1634  0.0389
  843MOL0     O11152  10.471   3.313  10.276  0.7635 -0.4945 -0.1885
  843MOL0     C11153  10.335   3.282  10.233 -0.6333 -0.1799 -0.0353
  843MOL0     C11154  10.320   3.329  10.094  0.0413  1.1053  0.0582
  843MOL0     C11155  10.441   3.307   9.999 -0.6233  0.1754  0.8671
  843MOL0     C11156  10.498   3.167   9.973 -0.0019 -0.2123  0.1002
  843MOL0     C11157  10.383   3.062   9.946 -0.8578  0.1094  0.0717
  843MOL0     C11158  10.303   3.096   9.821 -0.4706  0.0712 -0.2236
  843MOL0     C11159  10.214   2.974   9.784 -0.4812  0.0670 -0.2228
  843MOL0     C11160  10.148   3.006   9.650  0.3111 -0.4644 -0.1643
  843MOL0     N11161  10.066   2.899   9.590 -0.1345 -0.6244  0.0225
  843MOL0     C11162  10.075   2.860   9.458 -0.1128  0.9287  0.4763
  843MOL0     C11163   9.947   2.824   9.424  0.0015 -0.9583 -0.1398
  843MOL0     C11164   9.888   2.792   9.293  0.3823 -0.4848 -0.0172
  843MOL0     C11165   9.736   2.791   9.286 -0.8007  0.1695  0.4681
  843MOL0     C11166   9.691   2.941   9.269  0.0881 -0.1024  0.4954
  843MOL0     C11167   9.548   2.955   9.222 -0.5978  0.2486 -0.9182
  843MOL0     O11168   9.505   3.075   9.165  0.7392 -0.1202 -0.1274
  843MOL0     C11169   9.369   3.096   9.140  1.0377 -0.4397  0.1351
  843MOL0     C11170   9.273   2.992   9.137  0.0771 -0.1302 -0.5537
  843MOL0     C11171   9.138   3.017   9.091 -0.4410  0.0069 -0.6475
  843MOL0     C11172   9.098   3.153   9.067  0.4770  0.5435  0.1663
  843MOL0     C11173   8.962   3.196   9.017 -1.0329  0.0863 -0.2149
  843MOL0     O11174   8.877   3.093   8.994  0.0575 -0.4236  0.0542
  843MOL0     C11175   8.740   3.120   8.987 -0.8636 -1.0078 -0.1812
  843MOL0     C11176   8.672   3.151   9.102  0.2444  0.6444 -0.3164
  843MOL0     C11177   8.534   3.158   9.100  0.4551  0.0835 -0.1764
  843MOL0     C11178   8.460   3.128   8.987 -0.0186  0.4470 -0.3442
  843MOL0     O11179   8.327   3.127   8.993 -0.1268  0.1553 -1.3420
  843MOL0     C11180   8.237   3.117   8.884  0.7835 -0.1851  0.2648
  843MOL0     C11181   8.093   3.146   8.931 -0.0277  0.1767 -0.4608
  843MOL0     C11182   8.063   3.035   9.038  1.1726  0.2147 -0.2506
  843MOL0     C11183   7.911   3.014   9.072  0.6151  0.5870  0.2112
  843MOL0     C11184   7.819   3.139   9.063  0.3698  0.6796 -0.3138
  843MOL0     C11185   7.665   3.118   9.070 -0.0535  1.0706 -0.7089
  843MOL0     C11186   7.616   3.026   9.186  0.1247  0.3319  0.4825
  843MOL0     C11187   7.648   3.082   9.321  0.7248  0.4106 -0.2624
  843MOL0    Cl11188   7.554   3.238   9.353  0.0003  0.4565  0.0991
  843MOL0     C11189   8.530   3.105   8.865 -0.1128 -0.2717 -0.0849
  843MOL0     C11190   8.667   3.098   8.866 -0.1078 -0.2151 -0.6322
  843MOL0     O11191   8.934   3.317   9.014 -0.4496 -0.5187 -0.0844
  843MOL0     C11192   9.192   3.253   9.068 -0.1489 -0.7338 -0.1055
  843MOL0     C11193   9.322   3.221   9.100 -0.0996 -0.9343 -0.5411
  843MOL0     N11194   9.868   2.836   9.539 -0.7677 -1.0192  0.2422
  843MOL0     N11195   9.941   2.884   9.635  0.4085  0.4058 -1.0861
  843MOL0     C11196  10.422   3.230  10.501 -0.6603  0.1936 -0.2320
  843MOL0     C11197  10.470   3.202  10.632 -0.1892 -0.5664  1.0593
  843MOL0     C11198  10.719   3.284  11.022 -0.7457  0.2084  0.7403
  843MOL0     C11199  10.736   3.380  11.123 -0.5815 -0.0624 -0.1749
  843MOL0     C11200  10.752   3.343  11.258  0.4938  0.2553 -1.2172
  843MOL0     C11201  10.743   3.208  11.299 -0.4433 -0.6268  0.0810
  843MOL0     O11202  10.769   3.171  11.428 -0.5347  0.4631 -0.3175
  843MOL0     C11203  10.750   3.036  11.462 -0.5842 -0.5211 -0.3089
  843MOL0     C11204  10.747   3.028  11.612  0.3993  0.2341 -0.4564
  843MOL0     C11205  10.881   3.072  11.676  0.0938 -0.0351  0.1614
  843MOL0     C11206  10.854   3.168  11.799 -0.6314 -0.1743 -0.4576
  843MOL0     C11207  10.980   3.214  11.863 -0.4292 -0.2400 -0.1033
  843MOL0     C11208  11.080   3.265  11.902  0.2181 -0.1609  0.1075
  843MOL0     C11209  10.714   3.113  11.189  0.6825  0.1897 -0.5315
  843MOL0     C11210  10.717   3.149  11.053 -0.6373 -0.5253  0.3486
  843MOL0     H11211  10.784   3.334  10.608 -0.4637 -0.8679  2.8348
  843MOL0     H11212  10.691   3.395  10.385  0.4897 -0.1890  0.8185
  843MOL0     H11213  10.254   3.332  10.287  2.5547  3.5628  1.7603
  843MOL0     H11214  10.325   3.174  10.234  0.1343 -0.2900 -1.3054
  843MOL0     H11215  10.320   3.437  10.113 -2.4942  1.0853  0.4311
  843MOL0     H11216  10.225   3.293  10.054  1.2600 -2.3902  0.0097
  843MOL0     H11217  10.526   3.360  10.043  0.6941 -1.4345  0.3375
  843MOL0     H11218  10.412   3.346   9.901 -0.2260 -1.8478 -0.1013
  843MOL0     H11219  10.563   3.176   9.885  0.4235 -0.3677  0.3916
  843MOL0     H11220  10.546   3.133  10.066  2.1621  1.5867 -0.2616
  843MOL0     H11221  10.306   3.061  10.024 -1.1889  3.4601 -0.1080
  843MOL0     H11222  10.423   2.960   9.939 -2.2168 -0.4139 -0.3399
  843MOL0     H11223  10.372   3.099   9.736  1.7527  2.3066  1.4997
  843MOL0     H11224  10.250   3.190   9.837  0.3935  0.5928 -0.3668
  843MOL0     H11225  10.278   2.885   9.778 -0.8842 -0.2305 -0.1283
  843MOL0     H11226  10.138   2.962   9.860  0.2168 -0.1185  0.4598
  843MOL0     H11227  10.220   3.035   9.573 -0.8261 -2.5093 -2.1082
  843MOL0     H11228  10.079   3.091   9.655  2.0819  1.1109 -1.0993
  843MOL0     H11229  10.152   2.868   9.383 -0.2413  1.0740  0.3584
  843MOL0     H11230   9.909   2.688   9.267  1.5197 -0.5679  1.1145
  843MOL0     H11231   9.930   2.867   9.224 -0.1476  0.7914  1.0015
  843MOL0     H11232   9.705   2.744   9.379  2.1071 -0.4292  1.2343
  843MOL0     H11233   9.692   2.736   9.202 -1.9890  3.3222 -1.1841
  843MOL0     H11234   9.700   3.001   9.360  0.9499  1.6825 -0.6887
  843MOL0     H11235   9.751   2.986   9.189 -1.0398 -1.2186 -1.0435
  843MOL0     H11236   9.482   2.931   9.306  0.5940 -0.4407 -0.1400
  843MOL0     H11237   9.523   2.874   9.153  1.4655 -2.1383  0.9360
  843MOL0     H11238   9.311   2.893   9.160 -0.0821 -0.6797 -2.4590
  843MOL0     H11239   9.069   2.935   9.077  1.2882 -1.5569 -0.5080
  843MOL0     H11240   8.733   3.161   9.191  0.6150 -0.5636 -0.4167
  843MOL0     H11241   8.482   3.181   9.192 -0.7707  1.2550 -1.1114
  843MOL0     H11242   8.231   3.014   8.845  2.3787  0.8042 -2.9175
  843MOL0     H11243   8.264   3.182   8.801  2.3499 -0.3062  0.6553
  843MOL0     H11244   8.028   3.127   8.845 -0.5449 -2.5827  0.4346
  843MOL0     H11245   8.088   3.249   8.968 -2.3338 -0.0906  0.0978
  843MOL0     H11246   8.114   3.059   9.132 -1.5358 -2.9005  2.2542
  843MOL0     H11247   8.102   2.938   9.005 -0.9199 -1.2946  1.4287
  843MOL0     H11248   7.885   2.939   8.997  0.7870  0.8651 -0.1294
  843MOL0     H11249   7.898   2.975   9.173 -0.0451  6.0717  2.5416
  843MOL0     H11250   7.831   3.199   8.972 -0.3007  1.3360  0.0215
  843MOL0     H11251   7.844   3.202   9.148  0.1623  0.4096 -0.0517
  843MOL0     H11252   7.631   3.064   8.981 -0.8043 -0.1797  0.3069
  843MOL0     H11253   7.606   3.210   9.078 -2.4532 -0.3144 -1.2761
  843MOL0     H11254   7.508   3.009   9.177  0.0551  0.5778  0.8651
  843MOL0     H11255   7.664   2.927   9.183 -2.0631 -0.7823 -0.1086
  843MOL0     H11256   7.754   3.106   9.332  0.6110  1.8860 -1.9764
  843MOL0     H11257   7.628   3.017   9.407  2.2318  0.4271  0.1329
  843MOL0     H11258   8.476   3.087   8.772 -4.0680 -0.5866  2.0728
  843MOL0     H11259   8.733   3.068   8.784  2.6005 -2.7925  2.2151
  843MOL0     H11260   9.176   3.355   9.035  0.0915 -0.8074 -0.4549
  843MOL0     H11261   9.393   3.302   9.089 -0.1699 -0.8080 -0.0970
  843MOL0     H11262  10.320   3.203  10.476 -1.2457  0.6961  1.4898
  843MOL0     H11263  10.407   3.157  10.708  0.8120 -1.8078  1.1846
  843MOL0     H11264  10.743   3.483  11.090 -0.5975  0.0134  0.0564
  843MOL0     H11265  10.777   3.409  11.341 -1.7307 -0.5968  0.2280
  843MOL0     H11266  10.829   2.980  11.409 -1.4745  0.0083 -2.3013
  843MOL0     H11267  10.655   2.997  11.425 -2.2485  2.9471 -0.0484
  843MOL0     H11268  10.672   3.095  11.655  1.0194  0.3934  0.4046
  843MOL0     H11269  10.714   2.926  11.634  3.6781 -1.2841 -1.7494
  843MOL0     H11270  10.941   3.135  11.609  2.3701 -2.1717  0.0346
  843MOL0     H11271  10.954   2.994  11.699  2.5971  1.1493 -2.9328
  843MOL0     H11272  10.795   3.253  11.764 -4.8217 -3.4444 -2.2433
  843MOL0     H11273  10.785   3.113  11.864  1.5017 -2.1470  0.3087
  843MOL0     H11274  11.170   3.303  11.946 -1.5227 -0.1521  4.0832
  843MOL0     H11275  10.695   3.007  11.205  0.1016  0.7491  3.2927
  843MOL0     H11276  10.704   3.070  10.980  0.2707 -0.2833 -0.0926
  844MOL0     O11277   9.629   0.103   5.330 -1.3376  0.2270  0.1671
  844MOL0     C11278   9.616   0.153   5.442  0.4308  0.5337  0.8302
  844MOL0     O11279   9.720   0.208   5.515 -0.2409  0.2252 -0.0434
  844MOL0     C11280   9.861   0.201   5.486  0.8546  0.8169  0.2752
  844MOL0     C11281   9.942   0.300   5.537  0.1421  0.0445 -0.6256
  844MOL0     C11282  10.081   0.306   5.510  0.4398  0.1220  0.1725
  844MOL0     C11283  10.139   0.211   5.417  0.0039  0.0687 -0.5547
  844MOL0     O11284  10.267   0.219   5.373 -0.2232 -0.4424  0.5975
  844MOL0     C11285  10.371   0.284   5.448  0.6097 -0.3235  0.3461
  844MOL0     C11286  10.516   0.256   5.394 -0.6580 -0.1777 -0.3429
  844MOL0     C11287  10.625   0.340   5.475 -0.1133 -0.6731  0.3480
  844MOL0     C11288  10.763   0.298   5.454 -0.7592 -0.1945 -0.2630
  844MOL0     C11289  10.835   0.363   5.336 -0.7848 -0.4721  0.3657
  844MOL0     C11290  10.993   0.364   5.349  0.6114  0.1532  0.1402
  844MOL0     C11291  11.059   0.444   5.237 -0.5690 -0.1454 -1.2139
  844MOL0     C11292  11.210   0.458   5.256 -0.0206  0.4127  0.3400
  844MOL0     N11293  11.275   0.522   5.137 -0.3165  0.9101  0.2144
  844MOL0     C11294  11.331   0.468   5.019  0.6530  0.0785  0.8559
  844MOL0     C11295  11.366   0.567   4.942 -0.4945 -0.6671  0.3959
  844MOL0     C11296  11.448   0.545   4.810  0.0776  0.1976 -0.1714
  844MOL0     C11297  11.402   0.624   4.686 -0.0113  0.7021 -0.8739
  844MOL0     C11298  11.291   0.547   4.607 -0.2887 -0.4958 -0.2982
  844MOL0     C11299  11.172   0.539   4.705 -0.3524 -0.3352 -0.3953
  844MOL0     O11300  11.053   0.482   4.643 -0.5122 -0.2053  0.0677
  844MOL0     C11301  10.940   0.469   4.723 -0.9278 -0.7122 -1.0833
  844MOL0     C11302  10.940   0.504   4.866 -0.0520  0.7100 -0.1090
  844MOL0     C11303  10.829   0.487   4.945 -0.5934  0.1640  0.3118
  844MOL0     C11304  10.710   0.444   4.881  0.8587 -0.2590  0.4813
  844MOL0     C11305  10.586   0.426   4.955 -0.0668  0.3678 -0.4755
  844MOL0     O11306  10.474   0.408   4.887 -0.4887 -0.4952  0.8569
  844MOL0     C11307  10.342   0.408   4.930  1.1025 -0.9939  0.1735
  844MOL0     C11308  10.253   0.388   4.827 -0.7317  0.6101  0.6309
  844MOL0     C11309  10.115   0.381   4.849 -0.5701  0.3544  0.0548
  844MOL0     C11310  10.063   0.395   4.978 -0.6760 -0.0109  0.1318
  844MOL0     O11311   9.925   0.398   4.985 -0.0080 -0.7703 -0.3476
  844MOL0     C11312   9.868   0.420   5.114 -0.3096  0.7732 -0.8217
  844MOL0     C11313   9.721   0.427   5.099  0.0534 -0.1506  0.0957
  844MOL0     C11314   9.671   0.488   5.228  0.5117  0.7454  0.0218
  844MOL0     C11315   9.521   0.468   5.247 -0.1708  0.8055  0.0885
  844MOL0     C11316   9.454   0.554   5.359  0.0842 -0.2153 -0.6163
  844MOL0     C11317   9.530   0.520   5.490  0.8851  0.8910  0.9985
  844MOL0     C11318   9.438   0.554   5.612  0.1546 -0.2316 -0.1157
  844MOL0     C11319   9.519   0.528   5.743  0.1046  0.7349  0.0999
  844MOL0    Cl11320   9.419   0.603   5.871 -0.2428  0.1967 -0.0228
  844MOL0     C11321  10.159   0.408   5.090 -0.1700  0.4572  0.1955
  844MOL0     C11322  10.298   0.419   5.063  0.5272 -0.1987  0.0015
  844MOL0     O11323  10.595   0.430   5.075  0.0176 -0.0073 -0.0915
  844MOL0     C11324  10.704   0.415   4.743 -0.3755  0.9270  0.4611
  844MOL0     C11325  10.821   0.416   4.663 -0.1885 -0.9267 -0.1359
  844MOL0     N11326  11.337   0.685   5.004 -0.6198 -0.6823  0.3428
  844MOL0     N11327  11.291   0.660   5.124  0.5542  0.1036  0.2274
  844MOL0     C11328  10.055   0.122   5.353  1.0612  0.0101 -0.3493
  844MOL0     C11329   9.919   0.118   5.382 -0.6241 -0.6203 -0.4865
  844MOL0     C11330   9.477   0.166   5.506 -0.8383  0.0571  0.5284
  844MOL0     C11331   9.355   0.139   5.431 -0.4568 -0.2946 -0.2658
  844MOL0     C11332   9.235   0.149   5.502 -0.4773 -1.5859 -0.2300
  844MOL0     C11333   9.219   0.171   5.640  0.0546  0.9928  0.6510
  844MOL0     O11334   9.097   0.170   5.692 -0.6616 -0.9169  0.0638
  844MOL0     C11335   9.071   0.142   5.830 -0.5981 -0.5529 -0.1855
  844MOL0     C11336   9.090  -0.008   5.850 -0.4792  0.7612 -0.2192
  844MOL0     C11337   9.026  -0.109   5.755 -0.7284  0.2454 -0.1082
  844MOL0     C11338   8.884  -0.130   5.778  0.1120 -0.1858  0.2734
  844MOL0     C11339   8.853  -0.199   5.902 -0.7286  0.7982  0.1570
  844MOL0     C11340   8.835  -0.254   6.007 -0.0312 -0.3735  0.3205
  844MOL0     C11341   9.336   0.179   5.712  0.1315  0.1596  0.3066
  844MOL0     C11342   9.462   0.183   5.649  0.0587 -0.1618  0.5936
  844MOL0     H11343   9.904   0.372   5.608  0.4193 -0.2088 -0.2136
  844MOL0     H11344  10.142   0.380   5.561 -0.3678  1.2236 -0.4194
  844MOL0     H11345  10.366   0.238   5.547 -1.3103 -0.9643 -0.0199
  844MOL0     H11346  10.364   0.392   5.458  3.0006  0.0615 -1.1866
  844MOL0     H11347  10.527   0.282   5.288 -0.4406 -0.4988 -0.4027
  844MOL0     H11348  10.549   0.155   5.421 -0.2238  0.3583  1.2584
  844MOL0     H11349  10.602   0.333   5.582 -1.0482  1.0044  0.2791
  844MOL0     H11350  10.616   0.447   5.453 -2.3347 -0.7839  0.4994
  844MOL0     H11351  10.801   0.322   5.554 -1.6139 -1.4390  0.3852
  844MOL0     H11352  10.770   0.190   5.444  0.8667 -0.5608  3.3671
  844MOL0     H11353  10.802   0.467   5.330 -1.5910 -0.6119  1.8601
  844MOL0     H11354  10.807   0.301   5.251 -1.7049  0.4746 -0.0387
  844MOL0     H11355  11.013   0.257   5.342 -1.7618 -0.3178 -0.5016
  844MOL0     H11356  11.022   0.408   5.445 -3.2423  2.0276  0.6544
  844MOL0     H11357  11.035   0.397   5.141 -0.6573 -0.5150 -1.0097
  844MOL0     H11358  11.010   0.542   5.241 -1.4119 -0.6142  0.6110
  844MOL0     H11359  11.260   0.362   5.271 -1.0315 -0.3033 -0.6603
  844MOL0     H11360  11.230   0.521   5.343  0.7442  0.8248 -0.1288
  844MOL0     H11361  11.355   0.363   5.005  2.4260  0.4545  0.8321
  844MOL0     H11362  11.449   0.438   4.785  0.9670 -0.6458  3.0309
  844MOL0     H11363  11.551   0.579   4.821 -0.3035  1.2395  0.2503
  844MOL0     H11364  11.486   0.630   4.617  0.4756  1.7196 -0.2209
  844MOL0     H11365  11.373   0.727   4.705  4.5099  1.6539  2.8608
  844MOL0     H11366  11.263   0.611   4.523 -1.0405 -0.0479  0.2848
  844MOL0     H11367  11.312   0.448   4.566  0.7181 -0.1752 -0.5741
  844MOL0     H11368  11.142   0.637   4.743  0.9764  0.1873 -0.6336
  844MOL0     H11369  11.198   0.465   4.782  1.4790 -1.8988 -2.3772
  844MOL0     H11370  11.028   0.547   4.913  1.3063 -1.2019 -0.8283
  844MOL0     H11371  10.840   0.516   5.050 -0.4404 -0.9139  0.6050
  844MOL0     H11372  10.298   0.387   4.728  1.7658 -1.4707  1.6595
  844MOL0     H11373  10.048   0.379   4.763 -2.5432  3.6529  1.3368
  844MOL0     H11374   9.908   0.507   5.166  0.6579 -0.3958  0.4402
  844MOL0     H11375   9.887   0.330   5.172 -1.1169 -0.7974 -2.8630
  844MOL0     H11376   9.662   0.338   5.079  2.3737 -2.2655  2.0363
  844MOL0     H11377   9.702   0.497   5.017  2.4328 -1.6613 -1.8929
  844MOL0     H11378   9.683   0.597   5.219 -0.2113  0.8774  0.4951
  844MOL0     H11379   9.737   0.448   5.305  0.9258  1.3184 -0.0252
  844MOL0     H11380   9.467   0.487   5.154 -1.4216 -3.8925 -0.4336
  844MOL0     H11381   9.503   0.362   5.268  0.8669  0.6436  0.2278
  844MOL0     H11382   9.352   0.515   5.370  0.1848 -0.4796 -0.6041
  844MOL0     H11383   9.456   0.662   5.341 -0.2639 -0.2425 -0.8200
  844MOL0     H11384   9.624   0.577   5.487  0.4199  1.6660 -1.6127
  844MOL0     H11385   9.553   0.414   5.487 -2.1101  0.1571  0.1034
  844MOL0     H11386   9.402   0.657   5.605 -0.4850 -0.5578 -2.4243
  844MOL0     H11387   9.349   0.491   5.609 -0.8271  1.1274 -1.5604
  844MOL0     H11388   9.621   0.569   5.743  0.7185 -0.5146 -2.8492
  844MOL0     H11389   9.530   0.421   5.763 -1.1626 -0.0086 -2.7078
  844MOL0     H11390  10.123   0.426   5.191  0.5884 -0.9372  0.7385
  844MOL0     H11391  10.362   0.446   5.147 -1.5786  1.9915  1.0360
  844MOL0     H11392  10.624   0.386   4.677  1.7059 -3.4837 -0.5194
  844MOL0     H11393  10.813   0.394   4.557  1.0916  0.3363 -0.5287
  844MOL0     H11394  10.086   0.041   5.288 -0.0941 -0.0380 -0.8796
  844MOL0     H11395   9.850   0.054   5.327  0.0122 -1.2330 -0.5798
  844MOL0     H11396   9.360   0.141   5.322  1.8239  1.3386 -0.2089
  844MOL0     H11397   9.150   0.144   5.435  1.5750 -0.8847 -3.1138
  844MOL0     H11398   8.967   0.158   5.857 -0.7837 -1.7047 -0.1633
  844MOL0     H11399   9.114   0.205   5.908 -0.5707 -0.6863 -0.0912
  844MOL0     H11400   9.197  -0.023   5.835 -0.1497  3.2089 -0.7596
  844MOL0     H11401   9.067  -0.033   5.954  0.5044  1.8379  0.2913
  844MOL0     H11402   9.067  -0.209   5.773 -2.2248  0.1030  3.4196
  844MOL0     H11403   9.050  -0.073   5.655 -0.0544  1.5640  0.5073
  844MOL0     H11404   8.831  -0.034   5.776 -1.2611 -0.9159  0.9817
  844MOL0     H11405   8.854  -0.191   5.692  1.8783  0.8270 -1.1588
  844MOL0     H11406   8.833  -0.314   6.096  2.7056 -2.4209 -0.8534
  844MOL0     H11407   9.339   0.186   5.820  1.2135 -0.0727  0.3061
  844MOL0     H11408   9.551   0.208   5.705  2.0698 -1.0716 -1.9765
  845MOL0     O11409   1.818  10.556   2.847  0.4696 -0.3200  0.3624
  845MOL0     C11410   1.866  10.531   2.957 -0.3721  0.3086  0.5157
  845MOL0     O11411   1.810  10.462   3.052  0.3319  0.2772  0.3070
  845MOL0     C11412   1.679  10.422   3.065  0.9259 -0.3844  0.8087
  845MOL0     C11413   1.663  10.329   3.159  0.2253  0.3613  0.4454
  845MOL0     C11414   1.529  10.287   3.187 -0.5412 -0.0098 -0.0915
  845MOL0     C11415   1.425  10.352   3.121 -0.7591 -0.1348  0.1185
  845MOL0     O11416   1.297  10.300   3.150 -0.0953 -0.5901 -0.0250
  845MOL0     C11417   1.180  10.353   3.078  0.0428 -0.2691 -0.8796
  845MOL0     C11418   1.049  10.294   3.158  0.7173 -0.3025 -0.4328
  845MOL0     C11419   0.918  10.367   3.122  0.0697  0.1830 -0.3589
  845MOL0     C11420   0.789  10.336   3.198  0.7962  1.1494  0.0543
  845MOL0     C11421   0.666  10.349   3.124 -0.1197  0.3593 -0.3729
  845MOL0     C11422   0.542  10.326   3.210 -0.1347  0.0284 -0.5846
  845MOL0     C11423   0.412  10.365   3.133 -0.4635 -0.8645 -0.6196
  845MOL0     C11424   0.398  10.287   2.995  0.1622 -0.0896  0.3974
  845MOL0     N11425   0.260  10.258   2.961  0.2135  0.4378 -0.3303
  845MOL0     C11426   0.184  10.342   2.879  1.0181 -0.3386 -0.0137
  845MOL0     C11427   0.063  10.275   2.849  0.5655 -0.0380 -0.7782
  845MOL0     C11428  -0.030  10.333   2.753 -0.0369 -0.1721 -0.1848
  845MOL0     C11429  -0.115  10.436   2.823 -1.1267  0.6965  0.4351
  845MOL0     C11430  -0.181  10.542   2.731 -0.3707 -0.2205 -1.1032
  845MOL0     C11431  -0.216  10.508   2.589 -0.0981  0.3391  0.4242
  845MOL0     O11432  -0.302  10.395   2.584  0.0340 -1.0173 -0.7025
  845MOL0     C11433  -0.440  10.409   2.579 -0.0222  0.0855 -0.5971
  845MOL0     C11434  -0.517  10.290   2.563  0.6818  0.6081 -0.1304
  845MOL0     C11435  -0.659  10.290   2.551 -0.0431  0.0543  0.5240
  845MOL0     C11436  -0.729  10.412   2.563 -0.6249  0.1727  0.0775
  845MOL0     C11437  -0.869  10.416   2.557  0.1280 -0.4175 -0.3059
  845MOL0     O11438  -0.929  10.535   2.588 -0.6368  0.3498  0.1227
  845MOL0     C11439  -1.059  10.538   2.545 -0.1029  0.1375  0.4974
  845MOL0     C11440  -1.096  10.615   2.436 -0.5618  0.4261  0.2251
  845MOL0     C11441  -1.221  10.617   2.387  0.5051 -0.7871  0.0841
  845MOL0     C11442  -1.320  10.535   2.444 -0.2489  0.4628 -0.2770
  845MOL0     O11443  -1.449  10.529   2.400 -0.5870 -0.3391 -0.0024
  845MOL0     C11444  -1.500  10.648   2.335 -0.5150  0.4447  0.0101
  845MOL0     C11445  -1.628  10.608   2.270  0.0639 -0.0491  0.0987
  845MOL0     C11446  -1.699  10.712   2.189  0.2079 -0.7050 -0.1348
  845MOL0     C11447  -1.763  10.835   2.267 -0.3803 -0.3359  0.1900
  845MOL0     C11448  -1.852  10.918   2.181 -0.0892 -0.8779 -0.0937
  845MOL0     C11449  -1.988  10.857   2.154  0.7749 -0.0042  0.9219
  845MOL0     C11450  -2.098  10.959   2.112 -0.1956 -0.4383  0.2328
  845MOL0     C11451  -2.234  10.901   2.145  0.5169  0.2799  0.3986
  845MOL0    Cl11452  -2.348  11.026   2.148  0.2485  0.2560  0.1003
  845MOL0     C11453  -1.286  10.449   2.548 -0.3011 -0.1665  0.1004
  845MOL0     C11454  -1.158  10.448   2.600  0.8837 -0.1648 -0.4022
  845MOL0     O11455  -0.926  10.314   2.523 -0.2170 -0.1417  0.2788
  845MOL0     C11456  -0.656  10.534   2.582  0.1152 -0.6375  0.2157
  845MOL0     C11457  -0.515  10.528   2.589  0.0364 -0.2690 -0.2243
  845MOL0     N11458   0.078  10.145   2.898 -0.4546  0.6013  0.1382
  845MOL0     N11459   0.195  10.135   2.954  0.3679  0.2233 -0.0300
  845MOL0     C11460   1.444  10.460   3.027  0.6386  0.6216  0.5810
  845MOL0     C11461   1.571  10.491   2.996 -0.4952 -0.1814 -0.5862
  845MOL0     C11462   2.010  10.573   2.975 -0.7172  0.2466  0.9713
  845MOL0     C11463   2.099  10.566   2.873  1.4974  1.0980 -0.6937
  845MOL0     C11464   2.226  10.612   2.882  0.3599  0.2433  0.7535
  845MOL0     C11465   2.283  10.633   3.007  0.1335 -0.4543  0.0228
  845MOL0     O11466   2.407  10.688   2.995 -0.2499 -0.3874 -0.0785
  845MOL0     C11467   2.468  10.728   3.116 -0.2424 -0.1219 -0.4474
  845MOL0     C11468   2.623  10.746   3.119  0.4801 -1.0362  0.4544
  845MOL0     C11469   2.671  10.878   3.042 -0.5503  0.5780 -0.2146
  845MOL0     C11470   2.814  10.861   2.994 -0.2846  0.3592  0.7305
  845MOL0     C11471   2.881  10.988   2.956 -0.9075  0.1841 -0.3911
  845MOL0     C11472   2.939  11.088   2.925 -0.8924  0.3303  0.0707
  845MOL0     C11473   2.195  10.635   3.119 -0.0524 -0.3246 -0.2238
  845MOL0     C11474   2.063  10.604   3.103 -0.0603  0.4707 -0.3335
  845MOL0     H11475   1.748  10.286   3.211  1.7361 -0.2900 -2.3686
  845MOL0     H11476   1.508  10.204   3.254 -1.1441  1.5873  1.7754
  845MOL0     H11477   1.179  10.322   2.973 -1.3946 -2.5228 -0.2733
  845MOL0     H11478   1.163  10.461   3.089  0.9442 -0.2508  0.6710
  845MOL0     H11479   1.066  10.285   3.266  2.9536 -2.2138 -0.8741
  845MOL0     H11480   1.038  10.197   3.110  0.8662  1.3221 -4.0711
  845MOL0     H11481   0.898  10.335   3.019 -1.0126  0.9114 -0.3941
  845MOL0     H11482   0.941  10.474   3.128 -0.0354  0.1396  0.9165
  845MOL0     H11483   0.794  10.230   3.225  3.3845  1.3048  0.4628
  845MOL0     H11484   0.784  10.390   3.293 -2.5771 -0.4555  0.9433
  845MOL0     H11485   0.665  10.281   3.039 -1.7924 -1.0250  0.7015
  845MOL0     H11486   0.664  10.450   3.081  0.0304 -0.0913 -1.4440
  845MOL0     H11487   0.557  10.389   3.298  0.7725  3.5420 -3.0631
  845MOL0     H11488   0.529  10.219   3.230 -1.3582  0.0519 -1.1702
  845MOL0     H11489   0.321  10.349   3.191 -0.4363 -0.1535 -0.3761
  845MOL0     H11490   0.423  10.468   3.098  0.4500 -1.1642 -1.2691
  845MOL0     H11491   0.455  10.195   3.009  1.9925  0.5303 -2.2523
  845MOL0     H11492   0.453  10.332   2.913 -2.3239 -0.8638 -1.8583
  845MOL0     H11493   0.226  10.440   2.859  2.6097 -0.8508  0.6988
  845MOL0     H11494  -0.096  10.256   2.711  0.7261  0.1217 -2.0070
  845MOL0     H11495   0.036  10.377   2.678  2.0371  1.3604  2.3650
  845MOL0     H11496  -0.057  10.494   2.895  1.0446  1.2760 -1.6598
  845MOL0     H11497  -0.197  10.387   2.875  1.9155 -2.9853  2.2309
  845MOL0     H11498  -0.271  10.572   2.786  0.1424  1.0962 -0.9290
  845MOL0     H11499  -0.118  10.632   2.729  0.5898 -0.8015  0.8155
  845MOL0     H11500  -0.121  10.482   2.542  1.6025  3.2784  1.9583
  845MOL0     H11501  -0.256  10.596   2.538 -1.2921 -1.2652 -1.5973
  845MOL0     H11502  -0.465  10.195   2.553  0.7732  0.6904 -0.4376
  845MOL0     H11503  -0.702  10.195   2.520 -0.0981 -0.1969  1.3676
  845MOL0     H11504  -1.012  10.664   2.387 -0.4173 -1.1005 -1.1449
  845MOL0     H11505  -1.230  10.692   2.309 -0.4543 -0.0080  0.9184
  845MOL0     H11506  -1.428  10.680   2.259  0.4039 -0.0357  0.6599
  845MOL0     H11507  -1.509  10.724   2.414  2.0322 -2.2270  3.1328
  845MOL0     H11508  -1.695  10.575   2.350  0.1633 -0.2452  0.1021
  845MOL0     H11509  -1.607  10.529   2.197  0.8316  2.8736 -3.0982
  845MOL0     H11510  -1.780  10.663   2.134 -0.4528  0.2603 -0.0638
  845MOL0     H11511  -1.630  10.754   2.116  0.5179 -2.7821 -1.1049
  845MOL0     H11512  -1.822  10.800   2.352  0.8967 -1.2477  0.7270
  845MOL0     H11513  -1.677  10.891   2.305 -0.6934 -0.6347  1.3776
  845MOL0     H11514  -1.807  10.947   2.086 -2.4594  2.0567 -0.4859
  845MOL0     H11515  -1.867  11.018   2.223  0.6731 -1.0315  0.5762
  845MOL0     H11516  -2.027  10.796   2.236 -0.8864  2.1690  1.8425
  845MOL0     H11517  -1.984  10.797   2.062 -1.2450  1.2171 -0.0244
  845MOL0     H11518  -2.076  11.048   2.172  0.4014 -1.3807  1.4709
  845MOL0     H11519  -2.088  10.983   2.006  0.5315 -5.0009 -0.9488
  845MOL0     H11520  -2.235  10.855   2.244  0.6808 -1.9493 -0.5693
  845MOL0     H11521  -2.253  10.829   2.064  2.2051 -1.4121  1.4183
  845MOL0     H11522  -1.363  10.375   2.571 -0.3886 -0.1443 -0.1186
  845MOL0     H11523  -1.129  10.381   2.680  2.3051  3.0713  1.9854
  845MOL0     H11524  -0.703  10.628   2.609  2.3009  0.5503  0.1250
  845MOL0     H11525  -0.476  10.626   2.614 -0.0670 -0.7229  1.9006
  845MOL0     H11526   1.364  10.513   2.977 -0.3345 -0.8720  0.5049
  845MOL0     H11527   1.591  10.573   2.927  1.7698 -1.1577 -1.2058
  845MOL0     H11528   2.062  10.543   2.774  1.2359  2.3220 -0.9005
  845MOL0     H11529   2.275  10.632   2.787 -2.7105  1.1083 -0.7584
  845MOL0     H11530   2.450  10.647   3.187  0.7780 -0.5800 -0.6957
  845MOL0     H11531   2.428  10.823   3.152  0.0966  0.7876 -2.3311
  845MOL0     H11532   2.664  10.748   3.220 -0.0356 -1.1021  0.6703
  845MOL0     H11533   2.661  10.658   3.065  1.6090 -0.3214  0.0637
  845MOL0     H11534   2.663  10.940   3.132  2.2704 -2.2992  2.2610
  845MOL0     H11535   2.603  10.901   2.959 -1.3655 -2.9650 -0.6837
  845MOL0     H11536   2.880  10.813   3.067  0.3421  1.4476  0.8867
  845MOL0     H11537   2.805  10.803   2.901 -2.0883 -0.0240  1.1076
  845MOL0     H11538   2.999  11.176   2.915 -1.9584  1.0459 -0.2201
  845MOL0     H11539   2.226  10.660   3.220 -0.5518  0.5581 -0.2786
  845MOL0     H11540   2.003  10.606   3.193 -0.6519  0.9790 -0.7373
  846MOL0     O11541   1.757   0.756  10.842  0.0019 -0.2520  0.3454
  846MOL0     C11542   1.656   0.722  10.784  0.4807 -0.9501  0.3652
  846MOL0     O11543   1.624   0.748  10.643  0.7405  0.1200 -0.8573
  846MOL0     C11544   1.706   0.828  10.577 -0.3224 -0.8716  0.1304
  846MOL0     C11545   1.644   0.916  10.488  0.8727  0.1588 -0.1905
  846MOL0     C11546   1.709   1.010  10.412 -0.6002  0.1707  0.3880
  846MOL0     C11547   1.853   1.005  10.403 -0.2654 -0.0753  0.0442
  846MOL0     O11548   1.928   1.091  10.331  0.2850  0.0282  0.6401
  846MOL0     C11549   1.864   1.175  10.240 -0.5415 -0.3300  0.3019
  846MOL0     C11550   1.965   1.275  10.182 -0.2427  0.3361  0.7951
  846MOL0     C11551   2.059   1.204  10.085  0.1160 -0.3219 -0.3638
  846MOL0     C11552   2.177   1.293  10.038 -0.0757 -0.5776 -0.2410
  846MOL0     C11553   2.169   1.343   9.890 -0.0273  0.1982 -0.9556
  846MOL0     C11554   2.283   1.445   9.860 -0.1459  0.1077 -0.5700
  846MOL0     C11555   2.295   1.462   9.711  0.8426 -0.2971 -0.0332
  846MOL0     C11556   2.414   1.553   9.670 -0.6313 -0.5261  0.1922
  846MOL0     N11557   2.400   1.690   9.719 -0.9755  0.3504  0.0284
  846MOL0     C11558   2.303   1.780   9.683  0.9136  0.6527 -0.0207
  846MOL0     C11559   2.344   1.899   9.732 -0.7722 -0.4021 -0.0293
  846MOL0     C11560   2.263   2.027   9.725 -0.7127  0.9337  0.3337
  846MOL0     C11561   2.200   2.083   9.858  0.6824  0.2112  0.6951
  846MOL0     C11562   2.298   2.159   9.945  0.1695  0.3993  0.3492
  846MOL0     C11563   2.222   2.233  10.057  0.2224  0.8568 -0.5103
  846MOL0     O11564   2.106   2.158  10.113  0.1329  0.4031 -0.5853
  846MOL0     C11565   2.008   2.242  10.159  0.6114  0.2317 -0.5013
  846MOL0     C11566   1.882   2.219  10.097 -0.2014 -0.0929  0.8573
  846MOL0     C11567   1.777   2.294  10.142  0.5293 -0.9331  0.3553
  846MOL0     C11568   1.801   2.411  10.229  1.1897  0.7217  0.4626
  846MOL0     C11569   1.684   2.494  10.270 -0.3600 -0.1868  0.0775
  846MOL0     O11570   1.577   2.419  10.325  0.1042 -0.0225 -0.3223
  846MOL0     C11571   1.447   2.464  10.336  0.4548 -0.4970  0.5687
  846MOL0     C11572   1.385   2.544  10.243 -0.2521 -0.3143 -0.6911
  846MOL0     C11573   1.261   2.599  10.269  0.2561  0.7281  0.5411
  846MOL0     C11574   1.191   2.577  10.393  0.0178 -0.3633 -0.2021
  846MOL0     O11575   1.067   2.627  10.428  1.1872  0.0889  0.5737
  846MOL0     C11576   1.047   2.759  10.367 -0.0817 -0.0408 -0.0152
  846MOL0     C11577   0.955   2.846  10.442 -0.7875  0.5435 -0.3669
  846MOL0     C11578   0.835   2.784  10.515 -0.1363 -0.5061 -0.5421
  846MOL0     C11579   0.742   2.890  10.584 -0.4133  1.0847 -0.7090
  846MOL0     C11580   0.628   2.812  10.657  0.1573  0.0549  0.0415
  846MOL0     C11581   0.537   2.922  10.709  0.8587  0.0784  0.2474
  846MOL0     C11582   0.426   2.864  10.803 -0.1035  0.2061 -0.5563
  846MOL0     C11583   0.378   2.962  10.914  0.3079  0.0464 -0.2782
  846MOL0    Cl11584   0.324   3.120  10.845 -0.3508 -0.3213 -0.2332
  846MOL0     C11585   1.244   2.475  10.474 -0.1003 -0.8412  0.0033
  846MOL0     C11586   1.375   2.424  10.447  0.7227  0.4410  0.1562
  846MOL0     O11587   1.688   2.611  10.235  0.0044 -0.0173  0.3933
  846MOL0     C11588   1.930   2.440  10.270  0.7821  0.1024 -0.4374
  846MOL0     C11589   2.022   2.341  10.254 -0.0876 -0.0868 -0.4247
  846MOL0     N11590   2.464   1.891   9.796 -0.6288 -0.0950  0.1117
  846MOL0     N11591   2.495   1.763   9.787  0.3867  0.4972 -0.1138
  846MOL0     C11592   1.918   0.916  10.479 -0.5358  1.0976 -0.8439
  846MOL0     C11593   1.849   0.816  10.562 -0.7184 -0.0767  0.3506
  846MOL0     C11594   1.550   0.652  10.858  0.4573 -0.3412  0.0840
  846MOL0     C11595   1.573   0.612  10.992 -0.2249 -0.1909 -0.2104
  846MOL0     C11596   1.472   0.565  11.076 -0.0296  0.5586  0.2809
  846MOL0     C11597   1.345   0.560  11.036  0.0679  0.4713  1.0682
  846MOL0     O11598   1.244   0.516  11.122  0.0710  0.6670 -0.4992
  846MOL0     C11599   1.220   0.375  11.119 -0.4455  0.9014 -0.0083
  846MOL0     C11600   1.075   0.362  11.071  0.9307 -0.7332 -0.4856
  846MOL0     C11601   0.991   0.237  11.098  0.4560  0.2824  0.8730
  846MOL0     C11602   0.841   0.268  11.078 -0.6663  0.1147 -0.1074
  846MOL0     C11603   0.804   0.300  10.938 -0.0227 -0.9149  1.0605
  846MOL0     C11604   0.763   0.328  10.823  0.2195  1.0044 -1.1036
  846MOL0     C11605   1.318   0.606  10.906  0.4452 -0.0013 -0.1799
  846MOL0     C11606   1.419   0.645  10.814  0.5888 -0.9747 -0.1074
  846MOL0     H11607   1.536   0.922  10.480  0.9052 -0.4914 -1.3314
  846MOL0     H11608   1.651   1.087  10.362 -2.2332 -1.0706  0.2956
  846MOL0     H11609   1.785   1.235  10.285  0.4887  0.5718  0.9496
  846MOL0     H11610   1.818   1.120  10.157 -0.8031 -0.4331  0.5178
  846MOL0     H11611   2.004   1.320  10.274 -0.4708 -1.8588  2.0323
  846MOL0     H11612   1.915   1.355  10.126 -0.4600 -1.6528 -2.0561
  846MOL0     H11613   2.011   1.162   9.997 -1.3091  1.0377 -0.2748
  846MOL0     H11614   2.108   1.117  10.130  1.5652 -0.3376 -1.8973
  846MOL0     H11615   2.185   1.378  10.106  0.8991 -0.1328 -0.8753
  846MOL0     H11616   2.273   1.243  10.057 -0.5504 -0.6408  2.2677
  846MOL0     H11617   2.072   1.390   9.874 -0.5335  0.9741  3.2404
  846MOL0     H11618   2.163   1.254   9.827 -0.6870 -0.0746 -0.5073
  846MOL0     H11619   2.377   1.396   9.886 -0.6514 -0.7232 -0.2342
  846MOL0     H11620   2.265   1.538   9.915 -0.2071 -0.4464  0.3816
  846MOL0     H11621   2.307   1.360   9.673  1.5146 -1.4446  2.9391
  846MOL0     H11622   2.202   1.499   9.667 -0.2960 -3.9032 -1.0152
  846MOL0     H11623   2.428   1.549   9.561 -3.5386 -0.5027 -0.2802
  846MOL0     H11624   2.502   1.509   9.718 -0.1857  1.7210  1.5783
  846MOL0     H11625   2.213   1.762   9.626 -0.3127 -1.5336  2.3905
  846MOL0     H11626   2.191   2.020   9.643 -1.1071 -0.3607  0.7584
  846MOL0     H11627   2.338   2.099   9.693 -1.1580  0.7760 -1.1527
  846MOL0     H11628   2.161   1.991   9.905 -1.7217 -1.8901 -4.5962
  846MOL0     H11629   2.117   2.151   9.838 -1.0263 -1.8505  0.3378
  846MOL0     H11630   2.363   2.090   9.999 -1.2070  0.4186  2.1423
  846MOL0     H11631   2.360   2.234   9.897 -0.0921  1.3763  1.4837
  846MOL0     H11632   2.185   2.327  10.017 -0.4435  0.3462 -1.1268
  846MOL0     H11633   2.285   2.263  10.141 -0.5007  0.4367  0.2023
  846MOL0     H11634   1.884   2.143  10.020  2.0793  1.6510 -0.9615
  846MOL0     H11635   1.678   2.277  10.099  0.8161 -0.6303 -0.4420
  846MOL0     H11636   1.430   2.567  10.147 -2.2755  1.9092 -1.1927
  846MOL0     H11637   1.212   2.658  10.192 -0.3234 -0.5868 -0.1257
  846MOL0     H11638   0.995   2.743  10.272  0.5774 -1.6107 -0.1471
  846MOL0     H11639   1.144   2.803  10.342 -0.0846 -0.2763 -0.4539
  846MOL0     H11640   0.927   2.924  10.371  2.8573  2.7194  0.3470
  846MOL0     H11641   1.012   2.905  10.514 -1.2098  0.1126  0.3341
  846MOL0     H11642   0.877   2.714  10.588  2.6086 -1.7113 -3.0470
  846MOL0     H11643   0.774   2.742  10.434 -0.5856  0.8161 -0.9028
  846MOL0     H11644   0.794   2.964  10.645  0.0784  0.7480 -0.7166
  846MOL0     H11645   0.706   2.942  10.494  0.8049 -0.9104 -2.4218
  846MOL0     H11646   0.673   2.759  10.741  0.2528 -0.7919 -0.5318
  846MOL0     H11647   0.570   2.741  10.597  1.4675 -1.5310  0.6033
  846MOL0     H11648   0.489   2.979  10.629 -1.0176 -0.2587  1.0922
  846MOL0     H11649   0.599   2.999  10.757  0.6350  0.8406 -0.6591
  846MOL0     H11650   0.337   2.842  10.744 -1.1480  3.5074 -0.4162
  846MOL0     H11651   0.467   2.777  10.855  0.2830  0.3819 -0.5581
  846MOL0     H11652   0.464   2.986  10.977  1.4454 -1.4797 -1.1891
  846MOL0     H11653   0.296   2.913  10.969 -0.7389 -1.8212 -3.2505
  846MOL0     H11654   1.191   2.443  10.564  0.4979  0.1254  0.7172
  846MOL0     H11655   1.411   2.351  10.518 -3.2403 -1.2592  0.6501
  846MOL0     H11656   1.952   2.533  10.322  1.9935  0.1295 -0.9737
  846MOL0     H11657   2.115   2.373  10.300 -2.2493  5.5735  0.8793
  846MOL0     H11658   2.021   0.885  10.462 -0.8178  0.5821 -1.6747
  846MOL0     H11659   1.893   0.728  10.609  2.1669  1.8934  1.6152
  846MOL0     H11660   1.678   0.612  11.020 -1.0699  0.1960  3.4266
  846MOL0     H11661   1.499   0.513  11.167 -0.9489 -2.0270 -0.8205
  846MOL0     H11662   1.225   0.334  11.221 -0.4491 -0.6028 -0.5973
  846MOL0     H11663   1.291   0.314  11.063 -0.4582 -0.7499  1.6729
  846MOL0     H11664   1.023   0.442  11.124  0.2374 -1.4779 -0.0186
  846MOL0     H11665   1.069   0.392  10.965 -0.3723 -1.6654 -0.7065
  846MOL0     H11666   0.993   0.215  11.205  1.0805 -0.4904  0.7158
  846MOL0     H11667   1.028   0.152  11.038  1.1589  1.3498 -0.2628
  846MOL0     H11668   0.782   0.178  11.098  0.9297 -1.0411 -0.3975
  846MOL0     H11669   0.810   0.350  11.142  0.4534 -0.3815  1.1171
  846MOL0     H11670   0.718   0.352  10.729 -1.6855 -0.1647 -0.5649
  846MOL0     H11671   1.215   0.615  10.874 -0.2287  2.0889  2.2359
  846MOL0     H11672   1.388   0.689  10.720  0.4739 -2.3489 -0.7410
  847MOL0     O11673   2.105   3.606   0.651  0.2037 -0.0211 -0.3532
  847MOL0     C11674   2.136   3.490   0.663  0.3600 -0.2622 -0.3547
  847MOL0     O11675   2.050   3.389   0.702  0.3435  0.1209  0.8028
  847MOL0     C11676   1.913   3.408   0.720 -0.0771  0.1385  0.4414
  847MOL0     C11677   1.857   3.337   0.825 -0.9517  1.0687  0.5027
  847MOL0     C11678   1.722   3.357   0.862 -0.2877  1.0580 -0.5976
  847MOL0     C11679   1.630   3.440   0.789 -0.2431  0.0374 -0.4993
  847MOL0     O11680   1.499   3.451   0.828  1.6261 -0.6267  0.3416
  847MOL0     C11681   1.397   3.508   0.739 -0.0019  0.0202 -0.0106
  847MOL0     C11682   1.265   3.507   0.814  0.1596 -0.0827 -0.7899
  847MOL0     C11683   1.178   3.380   0.810 -0.3487  0.4260  0.2217
  847MOL0     C11684   1.116   3.368   0.670  0.2422  0.1010 -0.4722
  847MOL0     C11685   1.054   3.224   0.641  0.3593 -0.5296 -0.2196
  847MOL0     C11686   0.971   3.216   0.520 -0.0172 -0.8650  0.3743
  847MOL0     C11687   0.919   3.074   0.499  0.2553  0.4273  0.4340
  847MOL0     C11688   0.795   3.071   0.409 -0.0377  0.2174  0.4666
  847MOL0     N11689   0.726   2.942   0.412 -1.0075 -0.5767 -0.2540
  847MOL0     C11690   0.779   2.820   0.399  0.1270  0.2079 -0.2107
  847MOL0     C11691   0.680   2.738   0.421 -1.5769 -0.0071 -0.2411
  847MOL0     C11692   0.699   2.586   0.403 -0.0058 -0.2306 -0.6263
  847MOL0     C11693   0.614   2.516   0.509 -0.6899 -0.3114 -0.4578
  847MOL0     C11694   0.674   2.391   0.570  1.8166 -0.7065  0.5793
  847MOL0     C11695   0.565   2.313   0.659  0.2938  0.4767 -0.4074
  847MOL0     O11696   0.473   2.398   0.742 -0.0372 -0.8590  0.0619
  847MOL0     C11697   0.349   2.345   0.777 -0.5545 -1.0485  0.8644
  847MOL0     C11698   0.250   2.430   0.818 -0.2254  0.1143  0.4918
  847MOL0     C11699   0.119   2.389   0.854  0.1459  0.2770 -0.0429
  847MOL0     C11700   0.081   2.259   0.836  0.0039 -0.1422  0.0036
  847MOL0     C11701  -0.058   2.215   0.860  0.4955 -0.4950  0.0891
  847MOL0     O11702  -0.148   2.311   0.885 -0.5655 -0.0422  0.2225
  847MOL0     C11703  -0.282   2.275   0.877 -0.5703 -0.6726 -0.2278
  847MOL0     C11704  -0.362   2.379   0.817  0.8791  0.3954 -0.7793
  847MOL0     C11705  -0.498   2.359   0.822 -1.0697 -0.1007  0.6482
  847MOL0     C11706  -0.563   2.254   0.894 -0.3729 -0.0006  0.5031
  847MOL0     O11707  -0.695   2.240   0.909 -1.0161  0.2512  0.1943
  847MOL0     C11708  -0.784   2.312   0.817 -0.3813 -0.0410 -0.7713
  847MOL0     C11709  -0.927   2.268   0.813 -0.5742 -0.0756  1.1306
  847MOL0     C11710  -0.998   2.248   0.943 -0.3630 -0.4366 -0.2880
  847MOL0     C11711  -1.141   2.206   0.935  0.2296 -0.4595  0.3886
  847MOL0     C11712  -1.229   2.303   0.854 -0.5398 -0.4247 -0.1711
  847MOL0     C11713  -1.380   2.301   0.883  0.8327 -0.8390 -0.8316
  847MOL0     C11714  -1.448   2.168   0.857 -0.1568  0.1692  0.1858
  847MOL0     C11715  -1.593   2.173   0.882 -0.1525  0.0826  0.2936
  847MOL0    Cl11716  -1.617   2.179   1.054  0.0806 -0.1565  0.1689
  847MOL0     C11717  -0.479   2.160   0.954  0.5718  0.3297 -0.4149
  847MOL0     C11718  -0.338   2.167   0.948  0.3052  0.4163  1.2332
  847MOL0     O11719  -0.085   2.100   0.839  0.3690  0.6896  0.0147
  847MOL0     C11720   0.177   2.162   0.787 -0.0937  0.2730  0.3519
  847MOL0     C11721   0.310   2.211   0.756 -0.2170 -0.1162  0.2364
  847MOL0     N11722   0.571   2.811   0.454  0.0157  0.5761  0.4380
  847MOL0     N11723   0.593   2.935   0.440  0.2289  0.2329 -0.8241
  847MOL0     C11724   1.685   3.515   0.685 -0.2537 -0.8714 -0.0803
  847MOL0     C11725   1.828   3.501   0.664  0.1864 -0.2280 -0.0128
  847MOL0     C11726   2.267   3.452   0.615 -0.3625 -0.0272  0.7200
  847MOL0     C11727   2.362   3.538   0.560 -0.3795  0.0871 -0.4432
  847MOL0     C11728   2.490   3.507   0.530  0.0289 -0.0847  0.0347
  847MOL0     C11729   2.540   3.380   0.558  0.0532  0.1049 -0.3183
  847MOL0     O11730   2.675   3.332   0.533  1.2437  0.1899 -0.0273
  847MOL0     C11731   2.769   3.417   0.463 -0.8703  1.1917  0.3151
  847MOL0     C11732   2.762   3.379   0.314  0.6819  0.5521  0.6082
  847MOL0     C11733   2.845   3.478   0.234 -0.0242 -0.3639 -0.4559
  847MOL0     C11734   2.885   3.430   0.094 -0.5748 -0.2106 -0.0050
  847MOL0     C11735   3.004   3.516   0.051 -0.2887 -0.1879 -0.4387
  847MOL0     C11736   3.097   3.577   0.012 -0.7033  0.1798 -0.5741
  847MOL0     C11737   2.458   3.288   0.625  0.3385 -0.4784  0.3999
  847MOL0     C11738   2.319   3.321   0.633 -0.6741  0.1142 -0.5845
  847MOL0     H11739   1.907   3.264   0.888 -1.6425  0.4936  0.3942
  847MOL0     H11740   1.680   3.305   0.947  1.0132 -0.6613 -0.9457
  847MOL0     H11741   1.384   3.451   0.647  1.8660  1.1729 -1.0587
  847MOL0     H11742   1.436   3.607   0.712  1.1532 -0.7381 -1.2152
  847MOL0     H11743   1.206   3.585   0.766 -0.1625 -0.4056 -0.9158
  847MOL0     H11744   1.279   3.548   0.915  1.6662 -0.3431 -0.8688
  847MOL0     H11745   1.096   3.385   0.883 -1.1483 -0.4346 -0.5886
  847MOL0     H11746   1.243   3.295   0.830 -0.6380 -0.1066 -1.0471
  847MOL0     H11747   1.036   3.442   0.659 -0.1422 -0.3951 -1.1212
  847MOL0     H11748   1.183   3.390   0.587 -1.0343  1.8828 -1.0910
  847MOL0     H11749   1.000   3.200   0.733  2.4934  1.3690  1.6501
  847MOL0     H11750   1.134   3.151   0.625  1.4704  0.5474  0.2366
  847MOL0     H11751   1.026   3.242   0.429 -0.9472 -0.1250  0.0118
  847MOL0     H11752   0.884   3.282   0.525 -2.2541 -3.6035 -0.0813
  847MOL0     H11753   1.001   3.020   0.452 -1.1024 -0.8216 -0.5749
  847MOL0     H11754   0.888   3.033   0.595  0.6849  0.7926  0.7342
  847MOL0     H11755   0.832   3.087   0.308  0.4116 -0.5791  0.4916
  847MOL0     H11756   0.726   3.153   0.432 -1.2345 -1.3842  3.0631
  847MOL0     H11757   0.880   2.801   0.364  0.5514  2.0551 -0.0857
  847MOL0     H11758   0.806   2.574   0.422  0.3612  2.8535 -0.1788
  847MOL0     H11759   0.673   2.545   0.304  1.8215 -1.4249 -0.6567
  847MOL0     H11760   0.523   2.482   0.458 -0.9719  1.1646 -0.9873
  847MOL0     H11761   0.584   2.585   0.588 -0.0603 -1.7702  1.1239
  847MOL0     H11762   0.696   2.325   0.485 -1.2173 -0.8871 -0.2059
  847MOL0     H11763   0.767   2.404   0.625  1.4437  0.7865  0.9021
  847MOL0     H11764   0.607   2.236   0.723  0.5856  1.8358  1.0968
  847MOL0     H11765   0.509   2.263   0.580  0.7448  1.5257 -1.4312
  847MOL0     H11766   0.288   2.532   0.817  0.3066 -0.0750 -1.2836
  847MOL0     H11767   0.055   2.466   0.897 -2.0716  0.1144 -2.7367
  847MOL0     H11768  -0.315   2.466   0.773 -0.0003  0.7071 -1.1179
  847MOL0     H11769  -0.565   2.429   0.771 -1.9204 -1.3345  0.0127
  847MOL0     H11770  -0.742   2.300   0.716  0.0207  1.0337 -0.7442
  847MOL0     H11771  -0.781   2.419   0.838  0.2212  0.0210 -1.1258
  847MOL0     H11772  -0.929   2.180   0.748  1.9625  1.2479 -0.9172
  847MOL0     H11773  -0.970   2.347   0.750  1.0664 -1.1734 -1.5299
  847MOL0     H11774  -0.995   2.336   1.009 -1.8369 -1.3088  1.0137
  847MOL0     H11775  -0.949   2.165   0.993 -1.6518 -1.6836 -1.0252
  847MOL0     H11776  -1.151   2.107   0.889 -0.8883  0.5524 -1.6999
  847MOL0     H11777  -1.177   2.192   1.037  1.3011 -0.5868  0.7587
  847MOL0     H11778  -1.218   2.280   0.747  0.1987 -0.3337 -0.1202
  847MOL0     H11779  -1.187   2.404   0.867  2.0641 -1.4033 -0.2567
  847MOL0     H11780  -1.429   2.368   0.812 -1.9438 -1.6199  0.1890
  847MOL0     H11781  -1.382   2.336   0.987 -0.6668 -1.6471 -0.5521
  847MOL0     H11782  -1.436   2.158   0.749 -0.4628  1.5799  0.0034
  847MOL0     H11783  -1.400   2.081   0.902 -2.6972 -1.9732 -0.9808
  847MOL0     H11784  -1.636   2.083   0.838 -2.3584  0.4660  1.5145
  847MOL0     H11785  -1.639   2.259   0.834  3.9876  1.7351 -1.1282
  847MOL0     H11786  -0.522   2.078   1.010 -3.0529  1.6539 -0.9599
  847MOL0     H11787  -0.283   2.084   0.989  1.0715 -0.9160 -2.1681
  847MOL0     H11788   0.153   2.060   0.758  1.8653 -0.5302  1.3749
  847MOL0     H11789   0.386   2.144   0.719 -0.2471 -0.6355  1.0767
  847MOL0     H11790   1.632   3.595   0.634  0.6658 -0.0998  0.1574
  847MOL0     H11791   1.869   3.572   0.593 -1.0951 -1.7917 -2.4323
  847MOL0     H11792   2.338   3.641   0.538  1.6767  0.2369 -2.3714
  847MOL0     H11793   2.555   3.567   0.467 -1.0829 -0.5136 -1.6180
  847MOL0     H11794   2.868   3.391   0.500 -0.7509 -2.0390 -1.8968
  847MOL0     H11795   2.753   3.525   0.472 -1.5856  1.4047 -2.4943
  847MOL0     H11796   2.806   3.279   0.310  1.6005  0.9198  1.1694
  847MOL0     H11797   2.659   3.380   0.279  0.9363  1.7569 -0.1711
  847MOL0     H11798   2.932   3.516   0.287  0.4207 -3.8176  1.5201
  847MOL0     H11799   2.779   3.565   0.225 -0.1643 -0.4303 -0.0628
  847MOL0     H11800   2.912   3.324   0.099 -0.6553 -0.3806 -2.3086
  847MOL0     H11801   2.802   3.439   0.024 -0.1122 -3.0261 -1.0445
  847MOL0     H11802   3.177   3.638  -0.026 -0.9185  0.1152 -1.1372
  847MOL0     H11803   2.491   3.186   0.641  0.3585 -0.2178  2.3831
  847MOL0     H11804   2.254   3.238   0.660  0.3753 -0.1058  1.4373
  848MOL0     O11805   2.699   4.807   1.274 -0.6457 -0.5093 -0.4866
  848MOL0     C11806   2.747   4.719   1.351 -0.1613  0.4803 -0.5270
  848MOL0     O11807   2.698   4.598   1.369  0.0536  0.1448  0.0203
  848MOL0     C11808   2.572   4.578   1.315 -0.0178 -0.0659  0.2330
  848MOL0     C11809   2.559   4.567   1.176  0.6649 -0.1609 -0.2926
  848MOL0     C11810   2.436   4.530   1.129  0.8360  0.5654  0.3294
  848MOL0     C11811   2.321   4.508   1.205  0.2220  0.4024 -0.1664
  848MOL0     O11812   2.201   4.455   1.158  0.0824 -0.1121  0.5559
  848MOL0     C11813   2.166   4.469   1.019  0.1121  0.6802  0.5799
  848MOL0     C11814   2.042   4.382   0.986  0.0938 -0.5019  0.5021
  848MOL0     C11815   2.065   4.247   1.052  0.5217  1.3496 -0.7274
  848MOL0     C11816   1.947   4.149   1.009 -0.6681  1.1252 -0.7638
  848MOL0     C11817   1.984   4.000   1.031  0.0244 -0.8811  0.7201
  848MOL0     C11818   1.900   3.900   0.953  0.4754  0.0978  0.8794
  848MOL0     C11819   1.751   3.883   0.989  0.1089  0.3306  0.1393
  848MOL0     C11820   1.669   3.797   0.891  0.5487 -0.1895 -0.3666
  848MOL0     N11821   1.526   3.811   0.936  0.3543 -0.6613  0.2294
  848MOL0     C11822   1.465   3.768   1.048 -0.0777 -0.1365 -0.6519
  848MOL0     C11823   1.334   3.777   1.039  1.0403 -0.3178 -0.0917
  848MOL0     C11824   1.218   3.754   1.141 -0.0993  0.3059 -0.8520
  848MOL0     C11825   1.076   3.771   1.097 -0.0519 -0.2620  0.5415
  848MOL0     C11826   1.017   3.658   1.009 -0.1524  0.2663 -0.5480
  848MOL0     C11827   0.871   3.675   0.979 -0.1352 -0.6558 -0.4750
  848MOL0     O11828   0.808   3.555   0.949 -0.4869 -0.0600 -0.3651
  848MOL0     C11829   0.666   3.559   0.953 -0.6034 -0.0098  0.2178
  848MOL0     C11830   0.607   3.439   0.913  0.0328 -0.8944  0.0188
  848MOL0     C11831   0.468   3.432   0.896  0.3039 -0.9595  0.2739
  848MOL0     C11832   0.387   3.541   0.908 -0.3023 -0.8882 -1.0515
  848MOL0     C11833   0.243   3.542   0.878  0.4526  0.3673 -0.6489
  848MOL0     O11834   0.170   3.657   0.868 -0.5412 -0.4579 -0.4915
  848MOL0     C11835   0.036   3.632   0.859 -0.0588 -1.0236 -0.3623
  848MOL0     C11836  -0.023   3.631   0.738  0.6143  0.4117 -0.5103
  848MOL0     C11837  -0.170   3.613   0.722 -0.1450 -0.1058 -0.2816
  848MOL0     C11838  -0.243   3.586   0.839 -0.6327 -0.0459 -0.0549
  848MOL0     O11839  -0.378   3.556   0.854 -0.1833 -0.0953  0.2273
  848MOL0     C11840  -0.457   3.566   0.729 -0.0240 -0.0515 -0.3774
  848MOL0     C11841  -0.595   3.516   0.759  0.1313  0.4647 -0.1639
  848MOL0     C11842  -0.675   3.615   0.837  0.7004  0.1932 -0.2777
  848MOL0     C11843  -0.654   3.601   0.995  0.1439  0.3995 -0.0072
  848MOL0     C11844  -0.752   3.698   1.068 -1.2768 -1.1257  0.3329
  848MOL0     C11845  -0.893   3.651   1.041  0.2979 -0.3636  0.5753
  848MOL0     C11846  -0.975   3.688   1.159 -0.3898  0.1889  0.9261
  848MOL0     C11847  -1.111   3.749   1.129 -0.5091  1.2085  1.0800
  848MOL0    Cl11848  -1.226   3.609   1.126 -0.5945  0.2867 -0.6519
  848MOL0     C11849  -0.170   3.591   0.963  0.0713 -0.5684 -0.1147
  848MOL0     C11850  -0.037   3.611   0.969  0.0751  0.1461 -0.1763
  848MOL0     O11851   0.197   3.426   0.880  0.3682  0.0911 -0.0667
  848MOL0     C11852   0.446   3.659   0.954  0.1709  0.2023  0.1219
  848MOL0     C11853   0.585   3.665   0.972 -0.2365 -0.3678 -0.0016
  848MOL0     N11854   1.324   3.833   0.914  0.2371 -0.2152 -0.7942
  848MOL0     N11855   1.434   3.854   0.855 -0.0489 -0.4475 -0.2825
  848MOL0     C11856   2.340   4.521   1.343 -0.3955  0.6782 -0.5079
  848MOL0     C11857   2.464   4.557   1.402 -0.1857 -0.0938 -0.5687
  848MOL0     C11858   2.879   4.741   1.405  0.0867  0.5286 -0.2941
  848MOL0     C11859   2.958   4.645   1.473 -0.2239  0.0391  0.0281
  848MOL0     C11860   3.073   4.689   1.548 -0.0395 -0.3126  0.7159
  848MOL0     C11861   3.118   4.812   1.527  0.0057 -1.4225  0.1124
  848MOL0     O11862   3.229   4.856   1.602  0.3641 -0.1736 -0.3415
  848MOL0     C11863   3.327   4.952   1.552 -0.5708  0.8036  0.8668
  848MOL0     C11864   3.438   4.980   1.651  0.6312 -0.3956  0.4900
  848MOL0     C11865   3.528   5.084   1.588 -0.1608 -0.6222 -0.2008
  848MOL0     C11866   3.645   5.138   1.681 -0.1292  0.3103  1.0967
  848MOL0     C11867   3.741   5.028   1.705  0.7059 -0.0699  0.0764
  848MOL0     C11868   3.810   4.933   1.730  0.7587  0.3302 -0.4890
  848MOL0     C11869   3.052   4.904   1.445  0.0368  0.1255  0.4420
  848MOL0     C11870   2.932   4.867   1.385 -0.3485 -0.1858 -0.4625
  848MOL0     H11871   2.636   4.572   1.100 -1.8634  0.4275 -2.9761
  848MOL0     H11872   2.430   4.520   1.021  0.5531 -0.6713  0.4434
  848MOL0     H11873   2.251   4.441   0.955 -0.2630 -1.9406  1.1137
  848MOL0     H11874   2.141   4.570   0.986 -0.8040  0.5835  0.9664
  848MOL0     H11875   2.036   4.367   0.878 -1.4690  0.1177  0.4837
  848MOL0     H11876   1.953   4.435   1.022 -1.3088 -1.8792 -0.7833
  848MOL0     H11877   2.069   4.252   1.161  0.4248 -1.7913 -0.5083
  848MOL0     H11878   2.161   4.199   1.033  1.3768  2.3412  0.8034
  848MOL0     H11879   1.858   4.169   1.070 -0.1676 -0.9344  0.7779
  848MOL0     H11880   1.920   4.163   0.904  0.8373 -0.2317 -1.3683
  848MOL0     H11881   1.975   3.979   1.138 -0.2026  0.3055  0.9548
  848MOL0     H11882   2.088   3.990   0.999  1.3848  1.2552  3.9478
  848MOL0     H11883   1.943   3.800   0.953  0.8378  0.2043 -1.1417
  848MOL0     H11884   1.904   3.927   0.847  0.6975 -2.9787  0.0220
  848MOL0     H11885   1.760   3.834   1.087  0.8728  1.2036  0.5211
  848MOL0     H11886   1.696   3.977   0.998 -2.2341 -0.9820  0.4952
  848MOL0     H11887   1.707   3.694   0.892 -0.6812 -0.6636  1.4230
  848MOL0     H11888   1.684   3.831   0.788  3.3859 -1.6658 -0.5661
  848MOL0     H11889   1.517   3.728   1.134 -0.5599 -1.4979 -0.9595
  848MOL0     H11890   1.242   3.813   1.231  2.3789 -0.8727 -0.6443
  848MOL0     H11891   1.224   3.652   1.179  0.4008 -0.0651 -1.9116
  848MOL0     H11892   1.062   3.870   1.053 -2.4284 -1.1384 -0.8637
  848MOL0     H11893   1.022   3.765   1.192  0.8384 -5.1712  1.0006
  848MOL0     H11894   1.073   3.653   0.915 -0.1211 -1.3136 -0.4821
  848MOL0     H11895   1.029   3.558   1.053  0.5817 -0.2126 -1.7874
  848MOL0     H11896   0.861   3.728   0.883 -0.9007 -3.5646 -2.1418
  848MOL0     H11897   0.829   3.726   1.066  0.9184  0.1042 -0.3994
  848MOL0     H11898   0.661   3.345   0.905  2.8578  0.6041  0.3437
  848MOL0     H11899   0.432   3.335   0.863  2.0289 -1.0678 -1.4236
  848MOL0     H11900   0.042   3.637   0.651  2.5919 -1.7996  0.6894
  848MOL0     H11901  -0.217   3.604   0.625 -0.1909 -1.0796 -0.1837
  848MOL0     H11902  -0.418   3.499   0.651  0.7323 -0.1827  0.1030
  848MOL0     H11903  -0.453   3.667   0.688  1.1908 -0.3584 -1.0584
  848MOL0     H11904  -0.596   3.421   0.813 -1.1938 -0.2312 -1.3465
  848MOL0     H11905  -0.645   3.493   0.665  0.0133 -0.2620  0.0713
  848MOL0     H11906  -0.782   3.595   0.825  0.8434 -2.0183  1.3975
  848MOL0     H11907  -0.645   3.714   0.802  1.4080  0.2305  0.4073
  848MOL0     H11908  -0.663   3.500   1.037  0.6697  0.6127  0.6309
  848MOL0     H11909  -0.552   3.634   1.019  0.8594 -1.0733 -0.8461
  848MOL0     H11910  -0.731   3.797   1.026 -1.6782 -0.8529  0.7588
  848MOL0     H11911  -0.728   3.707   1.175 -1.0132 -1.8915  0.3406
  848MOL0     H11912  -0.892   3.543   1.026 -2.0605 -0.3045 -0.4899
  848MOL0     H11913  -0.928   3.706   0.953  1.9364 -0.3626 -0.1243
  848MOL0     H11914  -0.969   3.605   1.230  1.3885  0.4798  1.1727
  848MOL0     H11915  -0.929   3.775   1.206  0.8648 -0.6972  1.3857
  848MOL0     H11916  -1.102   3.803   1.035  2.0904 -1.1128 -0.1617
  848MOL0     H11917  -1.145   3.825   1.200 -0.8971  4.2038 -2.0534
  848MOL0     H11918  -0.222   3.572   1.056  1.6753 -1.5254  0.6148
  848MOL0     H11919   0.007   3.592   1.066  0.2696 -0.9896 -0.4727
  848MOL0     H11920   0.393   3.750   0.981  1.3411  1.6457 -2.0665
  848MOL0     H11921   0.639   3.752   1.009 -0.0264 -0.7430  0.5903
  848MOL0     H11922   2.271   4.504   1.425  2.3607  0.4980  1.9146
  848MOL0     H11923   2.468   4.569   1.510  0.7959 -2.4533 -0.2794
  848MOL0     H11924   2.918   4.544   1.478  0.7835 -0.3598  4.2236
  848MOL0     H11925   3.131   4.623   1.611  1.6477 -0.1922 -0.6310
  848MOL0     H11926   3.285   5.044   1.508  0.5140 -0.0400 -2.2059
  848MOL0     H11927   3.379   4.906   1.468 -0.1129  0.9137  1.0895
  848MOL0     H11928   3.398   5.027   1.741  1.7657 -0.6501  1.1424
  848MOL0     H11929   3.489   4.888   1.681 -1.6185 -0.9666  3.0066
  848MOL0     H11930   3.473   5.167   1.544  0.1811 -0.7544 -0.8835
  848MOL0     H11931   3.587   5.040   1.508  3.4122 -2.0058  2.8705
  848MOL0     H11932   3.694   5.222   1.631 -0.1945 -0.3365 -0.0838
  848MOL0     H11933   3.611   5.180   1.776  0.4124  1.7940  0.6533
  848MOL0     H11934   3.868   4.844   1.741 -1.3530 -0.9689  0.6841
  848MOL0     H11935   3.083   5.007   1.430 -3.4702  1.1005 -1.0234
  848MOL0     H11936   2.881   4.941   1.324  0.6858 -0.4325 -1.6678
  849MOL0     O11937   3.597   0.322   4.406  0.3756 -0.0021  0.3790
  849MOL0     C11938   3.642   0.393   4.491 -0.6270 -0.5979  1.1664
  849MOL0     O11939   3.568   0.476   4.570 -0.0421 -0.6463 -0.3434
  849MOL0     C11940   3.438   0.450   4.558 -0.4753  0.0893  0.0621
  849MOL0     C11941   3.368   0.367   4.642 -0.6832  0.1922 -0.6170
  849MOL0     C11942   3.231   0.349   4.637  0.5980 -0.4143 -0.2407
  849MOL0     C11943   3.151   0.421   4.548 -0.5110  0.2960 -0.3427
  849MOL0     O11944   3.015   0.395   4.552  0.3324  0.5836 -0.2083
  849MOL0     C11945   2.926   0.446   4.452 -0.4493  0.4177 -0.5850
  849MOL0     C11946   2.783   0.459   4.506  0.1377 -0.9648 -0.3505
  849MOL0     C11947   2.680   0.538   4.420 -0.8552  0.5080  0.7480
  849MOL0     C11948   2.533   0.532   4.464 -0.2020  0.2269  0.0059
  849MOL0     C11949   2.457   0.610   4.357 -0.2282 -1.4678 -0.9974
  849MOL0     C11950   2.312   0.647   4.400  0.3036  0.5425 -0.1262
  849MOL0     C11951   2.202   0.526   4.410 -0.0772 -0.3856 -0.6977
  849MOL0     C11952   2.224   0.408   4.316 -0.1681  0.3507  0.3936
  849MOL0     N11953   2.109   0.322   4.321  0.6443 -0.0459  0.4381
  849MOL0     C11954   2.041   0.275   4.211  0.0096 -0.1225 -0.0186
  849MOL0     C11955   1.964   0.167   4.244 -0.0054 -0.1692 -0.0146
  849MOL0     C11956   1.883   0.082   4.155 -0.1061  0.7485  1.4008
  849MOL0     C11957   1.736   0.126   4.157  0.4652  0.2417  0.4448
  849MOL0     C11958   1.646   0.063   4.055 -0.1876 -0.1271 -0.1726
  849MOL0     C11959   1.531  -0.008   4.115 -0.7016 -1.0041  0.0528
  849MOL0     O11960   1.467   0.078   4.219  0.7088  0.1714  0.6048
  849MOL0     C11961   1.333   0.058   4.240 -1.1601  0.3751 -0.8811
  849MOL0     C11962   1.264  -0.063   4.223  0.1546  0.1779  0.2429
  849MOL0     C11963   1.119  -0.076   4.244  0.5499 -0.1522  0.0328
  849MOL0     C11964   1.044   0.044   4.283 -0.7337 -0.2944 -0.0603
  849MOL0     C11965   0.898   0.052   4.292  0.5360 -0.0376 -0.0860
  849MOL0     O11966   0.831  -0.067   4.296  0.6031  0.6296  1.0317
  849MOL0     C11967   0.696  -0.063   4.319 -1.0392  0.7664 -0.1919
  849MOL0     C11968   0.610   0.008   4.238 -0.0441  0.4547 -0.0315
  849MOL0     C11969   0.471  -0.009   4.258 -0.0695 -0.0848  0.5769
  849MOL0     C11970   0.420  -0.091   4.363  0.2751  0.6689  0.3141
  849MOL0     O11971   0.287  -0.120   4.376  0.2943  0.3400 -0.6448
  849MOL0     C11972   0.191  -0.010   4.386 -0.4037 -0.6066  0.2701
  849MOL0     C11973   0.135  -0.005   4.535 -0.9181 -0.7140  0.5577
  849MOL0     C11974   0.042  -0.129   4.566 -0.3496 -0.4746 -0.1768
  849MOL0     C11975  -0.099  -0.141   4.514  0.5445 -0.5703 -0.1271
  849MOL0     C11976  -0.164  -0.004   4.503  0.5990  0.0507  0.7333
  849MOL0     C11977  -0.311  -0.016   4.450 -0.1679  0.3817  0.0904
  849MOL0     C11978  -0.410   0.075   4.527  0.3653 -0.5477 -0.3261
  849MOL0     C11979  -0.553   0.045   4.465 -0.4078  0.7481  0.6185
  849MOL0    Cl11980  -0.668   0.160   4.547  0.3853  0.0315  0.1829
  849MOL0     C11981   0.515  -0.164   4.437  0.7040 -1.0270  0.2202
  849MOL0     C11982   0.653  -0.151   4.420  0.0777 -0.5790  0.6890
  849MOL0     O11983   0.842   0.164   4.301 -0.8319 -0.3809  0.4891
  849MOL0     C11984   1.126   0.160   4.304  0.1258 -0.0440  0.1514
  849MOL0     C11985   1.258   0.162   4.287  0.1153 -0.6707  0.1010
  849MOL0     N11986   1.989   0.155   4.380 -0.0484  0.8813  0.3428
  849MOL0     N11987   2.063   0.251   4.423 -0.0460 -0.1054  0.0308
  849MOL0     C11988   3.219   0.509   4.461  0.1498 -0.9796 -0.0993
  849MOL0     C11989   3.357   0.522   4.470 -0.7133  0.8804  0.1324
  849MOL0     C11990   3.789   0.408   4.493 -0.8063 -1.0405 -0.0641
  849MOL0     C11991   3.875   0.340   4.405  0.8048 -0.3795 -0.1413
  849MOL0     C11992   4.017   0.357   4.412  0.0137  0.9845  0.3119
  849MOL0     C11993   4.078   0.433   4.513  0.0837  0.1820 -0.1072
  849MOL0     O11994   4.215   0.439   4.529  0.1076 -0.5266  0.6573
  849MOL0     C11995   4.276   0.549   4.455  0.1921  0.1403  0.2588
  849MOL0     C11996   4.312   0.651   4.560  0.0714  0.0891  0.4799
  849MOL0     C11997   4.379   0.768   4.483 -0.1558 -0.3800 -0.4210
  849MOL0     C11998   4.448   0.865   4.571 -0.1497 -1.1995 -0.2961
  849MOL0     C11999   4.475   0.992   4.502 -0.1206  0.1953 -0.0657
  849MOL0     C12000   4.499   1.100   4.448  0.6679  0.5575  0.8869
  849MOL0     C12001   3.991   0.492   4.607 -1.0235  0.2341  0.2455
  849MOL0     C12002   3.851   0.485   4.586 -0.3458  0.0124 -0.6589
  849MOL0     H12003   3.418   0.311   4.721 -1.6777  4.0027  3.1305
  849MOL0     H12004   3.175   0.289   4.707 -3.0467  0.3573 -2.2404
  849MOL0     H12005   2.929   0.384   4.363 -1.9947 -1.4499  0.5840
  849MOL0     H12006   2.972   0.545   4.438  0.0979  0.1018 -1.0374
  849MOL0     H12007   2.795   0.515   4.599  2.7249  2.3871 -2.4436
  849MOL0     H12008   2.738   0.362   4.529 -1.0597 -0.5479 -0.8406
  849MOL0     H12009   2.682   0.504   4.316 -1.2757 -1.0906  1.2351
  849MOL0     H12010   2.726   0.637   4.420 -0.1046  0.1636  0.6509
  849MOL0     H12011   2.500   0.429   4.475 -3.0173  1.2066  2.0635
  849MOL0     H12012   2.517   0.575   4.564  0.5365  0.4771  0.0224
  849MOL0     H12013   2.460   0.567   4.257  0.3098 -1.3648 -1.0294
  849MOL0     H12014   2.497   0.712   4.351  2.0173 -1.8814  3.1159
  849MOL0     H12015   2.279   0.720   4.325  0.8647  3.1935  2.0649
  849MOL0     H12016   2.306   0.689   4.501  1.6913 -2.0669  1.1444
  849MOL0     H12017   2.206   0.486   4.511  2.4896 -1.3108 -1.0814
  849MOL0     H12018   2.103   0.570   4.400 -0.5073 -1.0522  0.4533
  849MOL0     H12019   2.311   0.349   4.346 -0.9145  1.0341  4.6324
  849MOL0     H12020   2.240   0.451   4.217  1.6041 -0.6648  0.2001
  849MOL0     H12021   2.055   0.308   4.109  1.2149 -1.0021 -0.1674
  849MOL0     H12022   1.884  -0.019   4.196  0.7651 -0.8815 -2.2516
  849MOL0     H12023   1.937   0.088   4.061  1.1112 -2.1092  1.8250
  849MOL0     H12024   1.735   0.235   4.142  0.8813  0.1735 -0.1216
  849MOL0     H12025   1.701   0.111   4.260 -3.4473  0.0541 -0.7390
  849MOL0     H12026   1.607   0.137   3.985 -0.0891  0.8092  0.7291
  849MOL0     H12027   1.707  -0.016   4.011 -1.3599 -1.9820  1.3903
  849MOL0     H12028   1.562  -0.105   4.155  1.5855  0.0757  1.0692
  849MOL0     H12029   1.467  -0.037   4.030 -0.0626 -1.3674 -0.3179
  849MOL0     H12030   1.324  -0.150   4.199 -0.6692 -0.8234  1.7062
  849MOL0     H12031   1.068  -0.171   4.233  0.5563 -0.0934 -0.5375
  849MOL0     H12032   0.651   0.069   4.159  0.6975  2.5555  1.8710
  849MOL0     H12033   0.403   0.043   4.192  2.1577  0.0394 -1.7506
  849MOL0     H12034   0.116  -0.036   4.311 -2.0997 -0.6574  1.9226
  849MOL0     H12035   0.230   0.091   4.366  2.4524 -1.4181  1.2547
  849MOL0     H12036   0.085   0.092   4.545  2.4093  1.0808  1.4313
  849MOL0     H12037   0.216  -0.004   4.608  1.4107 -1.9738 -1.8129
  849MOL0     H12038   0.039  -0.122   4.675  0.9092  0.7769 -0.1957
  849MOL0     H12039   0.101  -0.219   4.548 -1.1781 -1.1782  0.5534
  849MOL0     H12040  -0.095  -0.192   4.417 -0.3196 -1.1767  0.1351
  849MOL0     H12041  -0.144  -0.216   4.580  1.0542  0.0437  0.9408
  849MOL0     H12042  -0.096   0.054   4.440  0.3713  0.0155  0.4532
  849MOL0     H12043  -0.172   0.051   4.597 -0.2074  1.8973 -0.3565
  849MOL0     H12044  -0.349  -0.118   4.461 -1.2742  0.8855  1.2976
  849MOL0     H12045  -0.316   0.003   4.343  1.3511 -0.0673 -0.0764
  849MOL0     H12046  -0.427   0.050   4.632 -2.2748 -0.0002 -0.5469
  849MOL0     H12047  -0.392   0.182   4.515 -0.1756 -0.4569 -0.3560
  849MOL0     H12048  -0.585  -0.056   4.493  2.5407 -0.6107 -0.4112
  849MOL0     H12049  -0.545   0.053   4.356  1.0103 -1.3563  0.5037
  849MOL0     H12050   0.467  -0.224   4.514 -0.0171 -0.4057  0.2641
  849MOL0     H12051   0.716  -0.220   4.475  1.6796  1.5635  1.6579
  849MOL0     H12052   1.079   0.254   4.333 -0.5193 -0.3083 -0.0186
  849MOL0     H12053   1.307   0.257   4.309 -0.3451  0.1654 -2.2021
  849MOL0     H12054   3.167   0.575   4.393 -0.4085 -1.3557 -0.0419
  849MOL0     H12055   3.412   0.591   4.406  2.6490 -1.2702  0.4411
  849MOL0     H12056   3.830   0.276   4.330  0.7908  0.5423 -0.9342
  849MOL0     H12057   4.078   0.306   4.338 -0.3254  0.9318  0.0666
  849MOL0     H12058   4.208   0.597   4.385  1.2099 -0.0202 -0.8657
  849MOL0     H12059   4.367   0.513   4.406  1.0074  2.0603  0.2954
  849MOL0     H12060   4.226   0.690   4.615 -0.0219  2.5074 -1.1831
  849MOL0     H12061   4.373   0.596   4.632  0.5770  1.2714  0.9802
  849MOL0     H12062   4.305   0.815   4.418 -0.5518 -0.6500 -0.1716
  849MOL0     H12063   4.464   0.731   4.425 -0.3157 -1.5617  0.0565
  849MOL0     H12064   4.385   0.875   4.660 -0.6637 -2.5968 -0.4746
  849MOL0     H12065   4.546   0.825   4.600  0.1420  0.3774  1.0264
  849MOL0     H12066   4.525   1.193   4.400 -1.5369  0.7076 -0.1504
  849MOL0     H12067   4.027   0.540   4.697 -1.6293  1.1348  0.0184
  849MOL0     H12068   3.796   0.531   4.668  3.3538  1.0340  1.5006
  850MOL0     O12069   5.394   8.167   7.396  1.1147 -0.4042  0.2031
  850MOL0     C12070   5.449   8.094   7.318 -0.0363 -0.5048 -0.2913
  850MOL0     O12071   5.435   7.961   7.312  0.7073  0.2980  0.0145
  850MOL0     C12072   5.337   7.892   7.381  0.6088 -0.8210 -0.4585
  850MOL0     C12073   5.361   7.794   7.473 -0.4241  0.8557 -0.5168
  850MOL0     C12074   5.259   7.736   7.553  0.4738  0.6707  1.1019
  850MOL0     C12075   5.129   7.769   7.524 -0.9368 -0.2179  0.0290
  850MOL0     O12076   5.015   7.718   7.580  0.4159  0.0529 -0.0100
  850MOL0     C12077   4.978   7.781   7.704  0.0618  0.7516 -0.4470
  850MOL0     C12078   4.850   7.728   7.766  1.2943  0.3925  0.2664
  850MOL0     C12079   4.739   7.748   7.658 -0.7262 -0.9845  0.5526
  850MOL0     C12080   4.615   7.686   7.707  0.1687  0.4562  0.1380
  850MOL0     C12081   4.540   7.613   7.592  0.2691 -0.5848 -0.2561
  850MOL0     C12082   4.426   7.546   7.659  0.5705 -0.2093 -0.2649
  850MOL0     C12083   4.472   7.427   7.740 -0.6110  0.4440  0.7963
  850MOL0     C12084   4.363   7.316   7.748 -0.1466 -0.2139  0.1881
  850MOL0     N12085   4.238   7.375   7.813 -0.6862  0.4999 -0.1761
  850MOL0     C12086   4.233   7.390   7.950  0.0064  0.1011 -0.7981
  850MOL0     C12087   4.110   7.450   7.966 -0.9716  0.4598  0.5642
  850MOL0     C12088   4.038   7.498   8.084  0.5262  0.2224 -0.1941
  850MOL0     C12089   4.106   7.629   8.119  0.0426 -0.3845  0.0355
  850MOL0     C12090   4.115   7.744   8.025  0.5110  0.0383 -0.3181
  850MOL0     C12091   3.978   7.812   8.011 -0.1244  0.2122  0.0255
  850MOL0     O12092   3.995   7.941   7.951 -0.4130  1.1672 -0.3848
  850MOL0     C12093   3.891   8.006   7.892  0.8557  0.4772  0.8556
  850MOL0     C12094   3.910   8.137   7.874 -0.1355 -0.2015 -0.0217
  850MOL0     C12095   3.804   8.220   7.828  0.5093  0.1050  0.0966
  850MOL0     C12096   3.682   8.159   7.784  0.0167 -0.6458  0.3321
  850MOL0     C12097   3.573   8.246   7.715  0.4531 -0.3883  0.3643
  850MOL0     O12098   3.444   8.235   7.755  0.5717 -0.1114  0.0551
  850MOL0     C12099   3.359   8.321   7.693 -0.0442  0.7724 -0.1864
  850MOL0     C12100   3.360   8.452   7.722  0.0579 -0.5856  0.0623
  850MOL0     C12101   3.259   8.544   7.675 -0.1563 -1.0070 -0.5460
  850MOL0     C12102   3.154   8.498   7.596 -0.5226 -0.5368 -0.0646
  850MOL0     O12103   3.045   8.575   7.564 -0.4572 -0.3623 -0.0310
  850MOL0     C12104   3.057   8.712   7.612 -0.5751  0.2227 -0.0016
  850MOL0     C12105   2.937   8.799   7.570  0.1099  0.3697 -0.2819
  850MOL0     C12106   2.949   8.949   7.617  0.3498  0.1624 -0.4418
  850MOL0     C12107   2.816   9.019   7.606  0.2386  0.6331  0.1857
  850MOL0     C12108   2.830   9.173   7.596  0.0845  0.0845 -0.3352
  850MOL0     C12109   2.714   9.220   7.499 -0.4877 -0.2078  0.3667
  850MOL0     C12110   2.577   9.220   7.567 -0.0994 -0.0190  0.0026
  850MOL0     C12111   2.464   9.257   7.480 -0.3453 -0.0605 -0.7584
  850MOL0    Cl12112   2.316   9.243   7.584  0.2066  0.1991 -0.0658
  850MOL0     C12113   3.155   8.361   7.571 -0.4084 -0.1639 -0.1418
  850MOL0     C12114   3.253   8.273   7.620  0.9289  0.3604  0.1606
  850MOL0     O12115   3.617   8.328   7.637  0.2084  0.1253  0.0767
  850MOL0     C12116   3.661   8.021   7.801 -0.2471  0.1032  0.1672
  850MOL0     C12117   3.774   7.949   7.850  0.0236  0.1251 -0.0645
  850MOL0     N12118   4.044   7.458   7.838 -0.0150 -0.0776  0.6057
  850MOL0     N12119   4.123   7.408   7.747 -0.9525 -0.2621  0.0461
  850MOL0     C12120   5.104   7.863   7.419 -0.3111 -0.6403 -0.1863
  850MOL0     C12121   5.205   7.927   7.352  0.3883  0.0629  0.4977
  850MOL0     C12122   5.540   8.163   7.226 -0.9351  0.7914  0.4307
  850MOL0     C12123   5.561   8.097   7.103 -0.7012  0.1262 -0.5607
  850MOL0     C12124   5.644   8.155   7.006 -0.4696  0.8175  0.2923
  850MOL0     C12125   5.718   8.269   7.035 -0.2811  0.4836  0.0066
  850MOL0     O12126   5.785   8.340   6.941  0.4507  0.4724  0.5785
  850MOL0     C12127   5.879   8.267   6.861  0.1343  0.2273 -0.3379
  850MOL0     C12128   5.962   8.153   6.931 -1.1519  0.2584  0.0956
  850MOL0     C12129   6.043   8.201   7.053 -1.0063  0.1622  0.0527
  850MOL0     C12130   6.119   8.078   7.109  0.4353 -0.1824 -0.4673
  850MOL0     C12131   6.203   8.010   7.014  0.4692  0.3986  0.0120
  850MOL0     C12132   6.286   7.955   6.946 -0.8531 -0.8925  0.4918
  850MOL0     C12133   5.702   8.333   7.161 -0.5884  0.3196  0.4875
  850MOL0     C12134   5.606   8.284   7.255 -0.9701  0.6754 -0.0486
  850MOL0     H12135   5.467   7.773   7.484 -0.7992 -0.9867 -0.1277
  850MOL0     H12136   5.293   7.667   7.630  5.2783 -0.4679 -1.6198
  850MOL0     H12137   4.958   7.888   7.692 -3.5040  0.4080  1.3064
  850MOL0     H12138   5.064   7.774   7.772  0.6531 -1.0558 -1.3115
  850MOL0     H12139   4.825   7.783   7.857 -0.3461  0.8003 -0.3872
  850MOL0     H12140   4.857   7.621   7.787 -1.6684  0.4429  2.0210
  850MOL0     H12141   4.768   7.698   7.565  0.5046  0.8932 -0.1223
  850MOL0     H12142   4.719   7.851   7.626 -0.9343 -1.8920 -2.5989
  850MOL0     H12143   4.634   7.614   7.787  0.8602 -1.4433 -1.6315
  850MOL0     H12144   4.546   7.761   7.745 -1.2635 -0.9612  0.4394
  850MOL0     H12145   4.606   7.546   7.536  2.8911  0.9075  0.8806
  850MOL0     H12146   4.498   7.682   7.517 -0.4452 -0.5036  0.2052
  850MOL0     H12147   4.342   7.521   7.594  1.5728 -1.5174 -1.0898
  850MOL0     H12148   4.369   7.614   7.724  0.6980  1.9787 -2.2806
  850MOL0     H12149   4.571   7.394   7.708  0.6678  2.7492  2.0829
  850MOL0     H12150   4.487   7.465   7.842 -1.9482 -0.7663  1.4913
  850MOL0     H12151   4.408   7.237   7.808  0.0303  0.6288  1.1873
  850MOL0     H12152   4.340   7.259   7.657  0.2154 -0.5856  0.3263
  850MOL0     H12153   4.305   7.375   8.031 -1.9346  0.8941  1.1808
  850MOL0     H12154   4.050   7.421   8.161 -0.1312  0.2642 -0.0452
  850MOL0     H12155   3.931   7.504   8.063  0.9777  1.4853 -2.5002
  850MOL0     H12156   4.211   7.603   8.138  0.1663  1.1352  1.6604
  850MOL0     H12157   4.065   7.650   8.218  1.9751 -1.5877  1.1611
  850MOL0     H12158   4.185   7.817   8.067  1.0771 -0.4053 -0.4784
  850MOL0     H12159   4.148   7.718   7.924 -0.9799 -0.8423 -0.6083
  850MOL0     H12160   3.923   7.817   8.105  0.0096 -1.3278  0.2220
  850MOL0     H12161   3.923   7.742   7.946  0.7171 -2.3518  1.8927
  850MOL0     H12162   4.004   8.177   7.911  0.5673 -2.9361  1.4146
  850MOL0     H12163   3.829   8.325   7.823 -3.8379  1.3543  0.3892
  850MOL0     H12164   3.447   8.492   7.772 -0.4798  0.1939  0.3841
  850MOL0     H12165   3.274   8.645   7.711  0.8382 -0.4966 -2.2214
  850MOL0     H12166   3.147   8.762   7.576 -1.6242  0.8467 -1.9350
  850MOL0     H12167   3.064   8.716   7.721 -3.7249 -0.4004  0.3171
  850MOL0     H12168   2.847   8.768   7.625  0.1297 -1.0355 -1.0024
  850MOL0     H12169   2.920   8.794   7.462 -2.3418 -1.1775  0.0870
  850MOL0     H12170   3.031   9.004   7.570 -0.3320  1.1236 -0.5329
  850MOL0     H12171   2.980   8.948   7.722 -0.1187 -1.9090 -0.2861
  850MOL0     H12172   2.770   8.984   7.514 -0.1713  1.4514  0.0739
  850MOL0     H12173   2.748   8.996   7.689  1.3735 -1.1896  0.6718
  850MOL0     H12174   2.925   9.203   7.549  0.3897 -0.3134  0.0166
  850MOL0     H12175   2.824   9.215   7.697  1.0941  1.1969 -0.7126
  850MOL0     H12176   2.718   9.165   7.404  2.5979 -1.2745  1.0001
  850MOL0     H12177   2.738   9.323   7.471 -1.5633 -0.4807 -1.7529
  850MOL0     H12178   2.564   9.118   7.603 -0.3901  0.4712  1.3344
  850MOL0     H12179   2.572   9.286   7.654 -3.9629 -1.9433  1.4803
  850MOL0     H12180   2.457   9.181   7.402  2.1059 -1.4535  0.2653
  850MOL0     H12181   2.471   9.360   7.444 -1.7050  1.4019  2.7232
  850MOL0     H12182   3.063   8.316   7.533 -0.8895 -1.4408  2.3155
  850MOL0     H12183   3.235   8.169   7.594 -0.0634  0.5670 -0.0374
  850MOL0     H12184   3.569   7.979   7.761 -1.2547  1.8662  0.5281
  850MOL0     H12185   3.767   7.842   7.864  0.3936 -0.1673 -1.8737
  850MOL0     H12186   5.002   7.900   7.408 -0.2722 -0.3376  0.4417
  850MOL0     H12187   5.177   8.010   7.287  1.5601 -0.2661 -0.4688
  850MOL0     H12188   5.501   8.010   7.077  0.2691 -0.4658 -0.8854
  850MOL0     H12189   5.647   8.107   6.909 -0.0893  1.3335  0.0432
  850MOL0     H12190   5.946   8.350   6.835 -0.7502  1.1625  0.2832
  850MOL0     H12191   5.838   8.225   6.768  2.7925  0.0453 -1.5268
  850MOL0     H12192   5.890   8.079   6.968 -3.2806  3.1918  2.2793
  850MOL0     H12193   6.024   8.098   6.859  0.9394  1.1856  1.0802
  850MOL0     H12194   5.981   8.246   7.131 -1.1760  1.7576 -0.9611
  850MOL0     H12195   6.107   8.275   7.004  0.3811 -0.9676  0.1155
  850MOL0     H12196   6.170   8.109   7.200 -1.8063  1.6482  0.2664
  850MOL0     H12197   6.048   8.005   7.150  0.9448  0.5494  1.8311
  850MOL0     H12198   6.358   7.901   6.887 -0.0753  1.0431 -0.4128
  850MOL0     H12199   5.742   8.432   7.184 -0.1232 -0.3355  2.7086
  850MOL0     H12200   5.605   8.336   7.350  0.8087 -1.2038  1.1008
  851MOL0     O12201   0.205   4.751   5.240  0.1776  0.5687  0.1633
  851MOL0     C12202   0.236   4.844   5.170  0.4721  0.0604  0.4975
  851MOL0     O12203   0.169   4.875   5.049  0.6098  0.2757 -0.0587
  851MOL0     C12204   0.070   4.792   5.001 -0.3934  0.1852 -0.2161
  851MOL0     C12205   0.075   4.727   4.872 -0.2130  0.6221  0.0410
  851MOL0     C12206  -0.026   4.639   4.826  0.2977  0.1471  0.3159
  851MOL0     C12207  -0.140   4.616   4.900 -0.4862 -0.1527  0.5434
  851MOL0     O12208  -0.242   4.542   4.846 -0.1397  0.3446 -0.0184
  851MOL0     C12209  -0.373   4.590   4.839  0.5491  0.1583 -0.2603
  851MOL0     C12210  -0.465   4.470   4.837  0.1422 -0.0744  0.1640
  851MOL0     C12211  -0.606   4.527   4.817  0.0604  0.4324 -0.7841
  851MOL0     C12212  -0.706   4.413   4.830  0.0754 -0.3636  0.4294
  851MOL0     C12213  -0.850   4.461   4.815  0.7279  0.7249  0.5867
  851MOL0     C12214  -0.944   4.356   4.851 -0.2662  1.1733  0.2159
  851MOL0     C12215  -1.089   4.400   4.850  0.0994  0.3663 -0.2246
  851MOL0     C12216  -1.173   4.286   4.923 -0.7713 -0.5512  0.7995
  851MOL0     N12217  -1.315   4.307   4.936 -0.3794  0.1407  0.1733
  851MOL0     C12218  -1.397   4.303   4.823 -0.1063  0.0283 -0.8991
  851MOL0     C12219  -1.517   4.341   4.878 -0.1788  0.0406 -0.2315
  851MOL0     C12220  -1.653   4.335   4.804  0.2815 -0.6521 -0.3387
  851MOL0     C12221  -1.695   4.190   4.807  0.9761  0.2403  1.3562
  851MOL0     C12222  -1.811   4.159   4.714 -1.0780 -1.1972  0.7597
  851MOL0     C12223  -1.946   4.217   4.760  0.0915  0.6916 -0.2550
  851MOL0     O12224  -2.055   4.167   4.681 -0.2449 -0.1114 -0.3669
  851MOL0     C12225  -2.179   4.220   4.714  0.8758 -0.3382  0.2232
  851MOL0     C12226  -2.208   4.327   4.812  0.4834 -0.1072  0.0400
  851MOL0     C12227  -2.343   4.382   4.820  0.3790  0.0513 -0.0798
  851MOL0     C12228  -2.438   4.341   4.735 -0.2662  0.3102 -0.2662
  851MOL0     C12229  -2.565   4.410   4.732 -0.8859 -0.2765 -0.1696
  851MOL0     O12230  -2.560   4.545   4.754 -0.2789  0.2902 -0.8719
  851MOL0     C12231  -2.688   4.604   4.751 -0.5091  0.1689 -0.0179
  851MOL0     C12232  -2.774   4.603   4.866 -0.1134  0.0773 -0.8369
  851MOL0     C12233  -2.903   4.645   4.869  0.6662  0.8082 -0.0106
  851MOL0     C12234  -2.962   4.684   4.752 -0.3130 -1.1080  0.2926
  851MOL0     O12235  -3.094   4.727   4.744  0.6125  0.3723  0.3591
  851MOL0     C12236  -3.169   4.744   4.857 -0.5027 -0.6707  0.1607
  851MOL0     C12237  -3.307   4.807   4.818  0.0888  0.7732  0.0085
  851MOL0     C12238  -3.385   4.830   4.948 -0.1137  0.1134 -0.8526
  851MOL0     C12239  -3.518   4.892   4.920  0.4159  0.2145  0.4069
  851MOL0     C12240  -3.581   4.949   5.044 -0.0652 -0.0714 -0.7232
  851MOL0     C12241  -3.701   5.029   5.015  0.7669 -0.0968  0.0539
  851MOL0     C12242  -3.759   5.100   5.138  0.4120  0.0507  0.5443
  851MOL0     C12243  -3.908   5.133   5.109 -0.1472  0.6319 -0.2397
  851MOL0    Cl12244  -3.897   5.266   4.995  0.0323  0.0914 -0.0016
  851MOL0     C12245  -2.887   4.688   4.634  0.5115 -0.9716  0.1284
  851MOL0     C12246  -2.750   4.645   4.636  0.1920 -0.5535 -0.2468
  851MOL0     O12247  -2.662   4.351   4.705 -0.2877 -0.1699 -0.2649
  851MOL0     C12248  -2.413   4.239   4.641 -0.2439 -0.1538 -0.4070
  851MOL0     C12249  -2.288   4.179   4.633  0.3323 -0.5949 -0.4307
  851MOL0     N12250  -1.507   4.368   5.015 -0.3454 -0.5287  0.2993
  851MOL0     N12251  -1.384   4.349   5.047  0.1806  0.5536 -0.3907
  851MOL0     C12252  -0.142   4.677   5.026 -0.6817 -0.9603 -1.1781
  851MOL0     C12253  -0.039   4.756   5.081  0.2194 -1.0516 -0.1953
  851MOL0     C12254   0.363   4.923   5.199  1.0064 -0.1412 -0.3077
  851MOL0     C12255   0.421   4.895   5.321 -0.1586  0.6378 -0.1864
  851MOL0     C12256   0.523   4.976   5.367  0.0983 -0.3773 -0.4959
  851MOL0     C12257   0.565   5.087   5.291 -0.5303  0.8062  0.2523
  851MOL0     O12258   0.656   5.180   5.330  0.1410 -0.4918 -0.1417
  851MOL0     C12259   0.699   5.186   5.468  0.4952  0.8750 -0.2296
  851MOL0     C12260   0.786   5.310   5.494  0.4040  0.9727  0.2566
  851MOL0     C12261   0.906   5.319   5.402  0.8826  0.6387  0.1955
  851MOL0     C12262   1.039   5.287   5.469 -0.4404 -0.1461  0.5210
  851MOL0     C12263   1.054   5.141   5.468  0.2338 -0.5429  0.2707
  851MOL0     C12264   1.068   5.017   5.456 -0.6482 -0.4048 -0.1961
  851MOL0     C12265   0.503   5.115   5.170  0.8399 -0.1236  0.6555
  851MOL0     C12266   0.402   5.037   5.120  0.5509  0.5217 -0.3073
  851MOL0     H12267   0.161   4.744   4.808 -0.0364 -0.7793 -0.1396
  851MOL0     H12268  -0.014   4.594   4.728  0.3051 -0.2307  0.4897
  851MOL0     H12269  -0.398   4.636   4.743  1.7055 -1.7225 -1.5256
  851MOL0     H12270  -0.395   4.663   4.918  3.3707  1.1091 -0.2450
  851MOL0     H12271  -0.463   4.413   4.931 -0.2930  1.6553  1.2591
  851MOL0     H12272  -0.444   4.392   4.763  0.2310  0.3285 -0.2427
  851MOL0     H12273  -0.622   4.579   4.722  0.1086  1.9293  0.0061
  851MOL0     H12274  -0.618   4.600   4.897  1.6213  0.3112 -0.4151
  851MOL0     H12275  -0.686   4.345   4.747  1.2010  1.6337 -1.0567
  851MOL0     H12276  -0.694   4.367   4.929 -2.4508 -2.4876 -0.1779
  851MOL0     H12277  -0.876   4.485   4.712 -0.4087 -0.1521  0.6504
  851MOL0     H12278  -0.870   4.548   4.878 -0.9956  1.7874 -1.3163
  851MOL0     H12279  -0.918   4.323   4.952  1.9960 -0.5720 -0.8492
  851MOL0     H12280  -0.931   4.266   4.789  2.2681  0.1752  2.0133
  851MOL0     H12281  -1.096   4.492   4.910 -2.4386  3.9305 -5.2178
  851MOL0     H12282  -1.135   4.418   4.752 -1.9445 -0.5660  0.5094
  851MOL0     H12283  -1.129   4.271   5.022 -0.6610 -0.7089  0.7270
  851MOL0     H12284  -1.160   4.201   4.855  0.5378  0.3469 -0.1475
  851MOL0     H12285  -1.374   4.271   4.722  2.0820 -0.8062 -0.1992
  851MOL0     H12286  -1.651   4.366   4.700 -0.6484  0.4121 -0.0628
  851MOL0     H12287  -1.736   4.395   4.843 -1.2561 -2.8024 -0.1631
  851MOL0     H12288  -1.738   4.168   4.906  0.1497 -1.0696  0.7398
  851MOL0     H12289  -1.607   4.128   4.789  0.7709  0.1836  0.5276
  851MOL0     H12290  -1.791   4.199   4.614  0.2289 -1.0869  1.0503
  851MOL0     H12291  -1.823   4.051   4.701  2.0722 -1.4403 -1.2185
  851MOL0     H12292  -1.935   4.325   4.742  1.6286  0.4538 -0.9135
  851MOL0     H12293  -1.956   4.184   4.864  0.4396  0.3569 -0.3246
  851MOL0     H12294  -2.132   4.367   4.878  1.1933 -0.2510 -0.6779
  851MOL0     H12295  -2.359   4.463   4.891  3.8809  1.5868 -0.8065
  851MOL0     H12296  -2.728   4.570   4.959  1.5341  2.4468 -0.7523
  851MOL0     H12297  -2.965   4.626   4.956 -1.7820  0.1364 -1.7833
  851MOL0     H12298  -3.118   4.807   4.930 -1.8421  0.1952  0.4036
  851MOL0     H12299  -3.183   4.652   4.915  3.7976 -0.9414  1.0580
  851MOL0     H12300  -3.372   4.737   4.765 -2.5060  0.8263  2.8141
  851MOL0     H12301  -3.308   4.899   4.759 -0.4065 -0.0805 -1.3553
  851MOL0     H12302  -3.333   4.893   5.020 -0.2340  0.5527 -1.1431
  851MOL0     H12303  -3.399   4.740   5.009 -0.4512  0.1189 -0.9191
  851MOL0     H12304  -3.502   4.973   4.849 -0.1986 -0.4596 -0.5244
  851MOL0     H12305  -3.582   4.818   4.872  0.3616  0.1781  0.5372
  851MOL0     H12306  -3.519   5.024   5.095 -0.2643  0.9470 -1.9359
  851MOL0     H12307  -3.623   4.878   5.117 -1.6048  0.4984 -1.0240
  851MOL0     H12308  -3.772   4.955   4.975  0.5296 -1.6390  3.0866
  851MOL0     H12309  -3.680   5.107   4.942 -0.6619 -0.0714 -0.3636
  851MOL0     H12310  -3.753   5.027   5.220 -0.0213 -1.0576 -0.3755
  851MOL0     H12311  -3.701   5.189   5.164  0.3132  1.6893 -4.0054
  851MOL0     H12312  -3.966   5.164   5.196 -2.0658 -0.1081 -1.1885
  851MOL0     H12313  -3.961   5.044   5.073  0.4405  1.0338 -2.2796
  851MOL0     H12314  -2.930   4.713   4.537  3.3345  0.2640 -0.9037
  851MOL0     H12315  -2.709   4.632   4.536 -2.0394 -1.2367 -1.1372
  851MOL0     H12316  -2.501   4.206   4.586 -0.8184 -0.7757  0.8481
  851MOL0     H12317  -2.266   4.095   4.568  2.4369 -0.9437  0.6314
  851MOL0     H12318  -0.233   4.650   5.079 -0.6798 -1.5160 -1.4444
  851MOL0     H12319  -0.047   4.795   5.182  0.6398 -0.6542 -0.3102
  851MOL0     H12320   0.392   4.802   5.370  0.3961  0.2685 -0.5423
  851MOL0     H12321   0.575   4.955   5.460  3.3533 -0.6453 -2.2062
  851MOL0     H12322   0.756   5.095   5.489 -1.7552 -0.1129  2.3550
  851MOL0     H12323   0.609   5.202   5.529  0.5703 -0.5004  0.2774
  851MOL0     H12324   0.717   5.391   5.466  1.3454  1.5118 -0.5422
  851MOL0     H12325   0.818   5.331   5.597 -1.6823 -0.3538  1.2617
  851MOL0     H12326   0.913   5.423   5.369  2.0124  0.8127  0.9542
  851MOL0     H12327   0.902   5.256   5.312 -0.2092 -1.3328  1.5338
  851MOL0     H12328   1.123   5.321   5.408 -2.3799  0.0004 -2.2541
  851MOL0     H12329   1.047   5.335   5.568  0.2133  1.0539 -0.0880
  851MOL0     H12330   1.069   4.910   5.455  1.4170 -0.4310 -0.3991
  851MOL0     H12331   0.530   5.211   5.129 -1.2042  1.0206  1.7884
  851MOL0     H12332   0.356   5.060   5.025 -0.3812 -1.2117 -0.3039
  852MOL0     O12333   8.460   1.934  10.801 -0.2788 -0.6482 -0.7730
  852MOL0     C12334   8.443   1.832  10.738  0.5721  0.3254 -0.3096
  852MOL0     O12335   8.324   1.770  10.710 -1.1265  0.6626 -0.1612
  852MOL0     C12336   8.214   1.785  10.800  0.2655  0.0534 -0.6350
  852MOL0     C12337   8.234   1.774  10.940 -0.4569  0.2508  0.2593
  852MOL0     C12338   8.125   1.768  11.028 -0.3556  0.4712 -0.4440
  852MOL0     C12339   7.995   1.775  10.979  0.1962  0.1632  0.1998
  852MOL0     O12340   7.898   1.763  11.072  0.5122  0.1854 -0.2616
  852MOL0     C12341   7.771   1.817  11.040 -0.0876  0.5505  0.1271
  852MOL0     C12342   7.703   1.787  11.174  0.8477  0.6056  0.5163
  852MOL0     C12343   7.564   1.860  11.172 -0.3221  0.0666  0.2268
  852MOL0     C12344   7.521   1.867  11.321  0.4469 -0.0357  0.6102
  852MOL0     C12345   7.382   1.938  11.340  0.0043  0.4128  0.1866
  852MOL0     C12346   7.265   1.859  11.284  0.2880  0.6907  0.1342
  852MOL0     C12347   7.142   1.942  11.249 -1.5815 -0.2863  0.4808
  852MOL0     C12348   7.041   1.958  11.363  0.0048 -0.7342  0.8262
  852MOL0     N12349   6.956   2.070  11.339  0.1758 -0.2505 -0.5833
  852MOL0     C12350   6.965   2.194  11.397 -0.9484  0.2808  0.5926
  852MOL0     C12351   6.850   2.259  11.359  0.2101  0.7399 -0.2575
  852MOL0     C12352   6.808   2.404  11.391 -0.4744 -0.1164 -0.3157
  852MOL0     C12353   6.754   2.475  11.265 -0.3352  0.8687 -0.2848
  852MOL0     C12354   6.739   2.620  11.299  0.0743 -0.3268  0.7768
  852MOL0     C12355   6.638   2.654  11.403  0.2621  0.3764  0.8895
  852MOL0     O12356   6.655   2.794  11.417 -0.4480 -0.3362  0.4855
  852MOL0     C12357   6.544   2.869  11.383  0.8802  0.1617 -0.1322
  852MOL0     C12358   6.439   2.861  11.468  0.4050  0.2722 -0.1273
  852MOL0     C12359   6.341   2.961  11.462  0.2403  0.0218  0.3503
  852MOL0     C12360   6.343   3.058  11.366  0.1332  0.6937  0.7402
  852MOL0     C12361   6.230   3.151  11.341 -0.0355  0.1418 -0.5339
  852MOL0     O12362   6.261   3.277  11.294 -0.2226 -0.2026 -0.4990
  852MOL0     C12363   6.157   3.367  11.279  0.5251  1.0420  0.6362
  852MOL0     C12364   6.082   3.357  11.167  0.6108  1.0218 -0.1505
  852MOL0     C12365   5.975   3.447  11.131 -0.3872 -0.1364  0.9668
  852MOL0     C12366   5.941   3.543  11.225  0.7549  0.6182 -0.3694
  852MOL0     O12367   5.833   3.637  11.221 -0.4573  0.6074 -0.1691
  852MOL0     C12368   5.740   3.617  11.108 -0.1920  0.6403 -1.0784
  852MOL0     C12369   5.647   3.739  11.131  0.8143  0.8164 -0.0687
  852MOL0     C12370   5.533   3.729  11.028 -0.5418 -0.4318 -0.8476
  852MOL0     C12371   5.426   3.840  11.054  0.5841 -0.1963 -0.4165
  852MOL0     C12372   5.318   3.844  10.943  0.6955  1.0615  0.5311
  852MOL0     C12373   5.203   3.943  10.966  0.0854  0.1175  0.6572
  852MOL0     C12374   5.110   3.935  10.842 -0.2969 -0.1937 -0.1218
  852MOL0     C12375   4.983   4.023  10.857  0.4160  0.3539 -0.9130
  852MOL0    Cl12376   5.002   4.190  10.823 -0.1214 -0.4861  0.3768
  852MOL0     C12377   6.018   3.557  11.346 -1.3830  0.7025  0.3207
  852MOL0     C12378   6.130   3.462  11.371 -0.4905 -0.1291 -0.6214
  852MOL0     O12379   6.121   3.117  11.380  0.3097 -0.4960 -0.5610
  852MOL0     C12380   6.439   3.059  11.267  0.0832  0.3046  0.2480
  852MOL0     C12381   6.545   2.967  11.283  0.0268 -0.0680 -0.3912
  852MOL0     N12382   6.784   2.178  11.270 -0.5787  0.6445  0.2472
  852MOL0     N12383   6.844   2.063  11.264  0.6419 -0.1833  0.8671
  852MOL0     C12384   7.975   1.777  10.838 -0.2888 -0.0944  0.3797
  852MOL0     C12385   8.087   1.786  10.752  0.0798  0.5788 -0.0389
  852MOL0     C12386   8.562   1.756  10.698  0.5863  0.0229 -0.4583
  852MOL0     C12387   8.565   1.687  10.578  0.3766  0.2224 -0.4301
  852MOL0     C12388   8.676   1.602  10.545 -0.3909  0.2633 -0.8661
  852MOL0     C12389   8.791   1.603  10.629  0.3942  0.0064  0.3757
  852MOL0     O12390   8.892   1.523  10.583  0.4398 -0.1038  0.0275
  852MOL0     C12391   9.026   1.526  10.635  0.7145 -0.1099  0.2412
  852MOL0     C12392   9.128   1.457  10.554  0.3296  0.4056 -0.6380
  852MOL0     C12393   9.156   1.309  10.594  1.0419 -0.2154 -0.0350
  852MOL0     C12394   9.221   1.219  10.484  0.3304 -0.5416  0.4022
  852MOL0     C12395   9.123   1.189  10.377  0.1993 -0.1361 -0.0197
  852MOL0     C12396   9.033   1.171  10.296 -0.3297 -0.2097 -0.4678
  852MOL0     C12397   8.791   1.678  10.744  0.5016 -0.2766  0.6538
  852MOL0     C12398   8.676   1.754  10.779 -0.3261  0.5388  0.1987
  852MOL0     H12399   8.337   1.779  10.975  0.2297 -0.9046 -1.4582
  852MOL0     H12400   8.149   1.780  11.134  0.9796 -0.9935 -0.5395
  852MOL0     H12401   7.718   1.772  10.955  0.0505 -2.6503  1.5888
  852MOL0     H12402   7.778   1.926  11.032 -0.9123  0.5761 -0.5196
  852MOL0     H12403   7.766   1.826  11.254  0.7580 -1.6026  1.7621
  852MOL0     H12404   7.695   1.680  11.198  0.6907  0.6589  0.7057
  852MOL0     H12405   7.489   1.805  11.115 -1.7033  1.4607  0.6177
  852MOL0     H12406   7.566   1.964  11.137 -1.6495  0.3452  0.9213
  852MOL0     H12407   7.512   1.769  11.367 -3.7966 -0.5385 -0.8230
  852MOL0     H12408   7.591   1.935  11.370 -0.0177  2.5118 -1.9610
  852MOL0     H12409   7.396   2.037  11.295  1.2158  0.9326  1.6410
  852MOL0     H12410   7.370   1.943  11.448  1.4339 -0.8851  0.4435
  852MOL0     H12411   7.236   1.785  11.359 -0.6571 -0.0058 -0.8816
  852MOL0     H12412   7.293   1.803  11.194  1.6457 -0.6910  1.3659
  852MOL0     H12413   7.166   2.043  11.215 -2.5186 -0.9384 -2.3454
  852MOL0     H12414   7.086   1.889  11.171 -1.0854  0.3683 -0.3419
  852MOL0     H12415   7.105   1.970  11.451  1.4927 -1.3451 -0.1515
  852MOL0     H12416   6.984   1.866  11.382  1.2265 -1.3808  1.4956
  852MOL0     H12417   7.053   2.238  11.441 -0.4332  1.0438 -1.0899
  852MOL0     H12418   6.898   2.458  11.422 -1.6543  1.6853  0.0755
  852MOL0     H12419   6.743   2.409  11.479 -0.4522  1.8459 -0.3780
  852MOL0     H12420   6.660   2.432  11.229 -0.9360  2.0928 -0.2355
  852MOL0     H12421   6.819   2.471  11.178  0.6267  2.2247  0.3433
  852MOL0     H12422   6.835   2.665  11.326 -0.2897  0.3608  0.9553
  852MOL0     H12423   6.706   2.667  11.206  0.1830 -3.4528 -0.9933
  852MOL0     H12424   6.667   2.614  11.501  0.0091  2.9292  2.0813
  852MOL0     H12425   6.540   2.618  11.371  1.5033 -2.4891 -0.0168
  852MOL0     H12426   6.445   2.799  11.557 -0.8142 -0.5262 -0.5618
  852MOL0     H12427   6.259   2.969  11.533 -1.1918  1.6408 -1.3701
  852MOL0     H12428   6.113   3.272  11.106  1.1258  0.0245  1.4461
  852MOL0     H12429   5.911   3.430  11.045 -0.3579 -0.0451  0.9272
  852MOL0     H12430   5.688   3.521  11.118  0.2264  0.3982 -1.1807
  852MOL0     H12431   5.797   3.607  11.014  0.1415 -1.3274 -0.7100
  852MOL0     H12432   5.705   3.831  11.121  2.0615  0.3032  1.9580
  852MOL0     H12433   5.601   3.733  11.230  1.3467  0.3169  0.1498
  852MOL0     H12434   5.478   3.636  11.046 -2.3035  1.0187  2.0952
  852MOL0     H12435   5.569   3.738  10.925 -3.6998  0.2815 -2.0256
  852MOL0     H12436   5.381   3.820  11.152 -1.3129  1.1149 -0.9603
  852MOL0     H12437   5.479   3.935  11.058  2.1759 -1.0900  0.9806
  852MOL0     H12438   5.286   3.741  10.928  1.9175  0.9126 -1.3999
  852MOL0     H12439   5.365   3.867  10.846  0.5621  0.6209  0.3621
  852MOL0     H12440   5.246   4.044  10.966  1.2603 -0.3486  1.7282
  852MOL0     H12441   5.140   3.927  11.054 -2.9312  3.0476 -0.7113
  852MOL0     H12442   5.168   3.978  10.760 -1.6968  2.8237  0.3271
  852MOL0     H12443   5.069   3.835  10.825 -0.0980 -1.0879  3.6044
  852MOL0     H12444   4.944   4.028  10.959 -3.1504 -0.2050 -2.1167
  852MOL0     H12445   4.900   3.982  10.798  2.1082 -3.3586 -1.0250
  852MOL0     H12446   5.980   3.623  11.424  0.1303  0.7306  1.0765
  852MOL0     H12447   6.200   3.472  11.453  3.2361 -1.8760 -3.2919
  852MOL0     H12448   6.438   3.133  11.188  3.6837  0.2720  0.0239
  852MOL0     H12449   6.621   2.963  11.205  0.4033  0.2215 -0.0441
  852MOL0     H12450   7.874   1.760  10.803  0.2557  1.9219 -2.5556
  852MOL0     H12451   8.060   1.779  10.647 -0.8844 -3.7136  0.3033
  852MOL0     H12452   8.486   1.694  10.504  1.5986  2.3278 -1.6298
  852MOL0     H12453   8.688   1.557  10.447 -1.0909 -0.5322 -0.5985
  852MOL0     H12454   9.032   1.494  10.740 -1.5507  2.2936  1.2171
  852MOL0     H12455   9.054   1.632  10.640 -1.0165  0.4251 -0.4248
  852MOL0     H12456   9.109   1.471  10.447  2.1199  1.9524 -0.8122
  852MOL0     H12457   9.221   1.513  10.568 -0.9681  2.5073 -0.0653
  852MOL0     H12458   9.062   1.262  10.624  0.8223 -0.4172 -1.0106
  852MOL0     H12459   9.212   1.303  10.688 -1.2136  3.1533  1.7328
  852MOL0     H12460   9.301   1.280  10.440 -0.4433 -1.0000 -1.7770
  852MOL0     H12461   9.252   1.125  10.531  1.0138 -0.1564  0.7518
  852MOL0     H12462   8.953   1.158  10.226 -0.9482 -0.5478  0.2754
  852MOL0     H12463   8.877   1.685  10.810  0.2740  1.0831  0.8360
  852MOL0     H12464   8.679   1.818  10.867 -0.0741  1.2513 -0.3225
  853MOL0     O12465   6.668   1.966   1.597 -0.4511  0.6976 -0.2877
  853MOL0     C12466   6.690   1.861   1.539  0.1276  0.4699 -0.7223
  853MOL0     O12467   6.594   1.784   1.471 -0.6925 -0.5749  0.2169
  853MOL0     C12468   6.465   1.822   1.457 -0.2496  0.1989  0.5377
  853MOL0     C12469   6.385   1.881   1.558  0.4600  0.5771  0.1505
  853MOL0     C12470   6.247   1.901   1.527  0.3956  0.5524 -0.4933
  853MOL0     C12471   6.185   1.870   1.408  0.1110  0.0290 -0.1892
  853MOL0     O12472   6.056   1.910   1.382 -0.4437 -0.3313  0.8465
  853MOL0     C12473   5.959   1.903   1.494 -0.1629  0.0361  0.9792
  853MOL0     C12474   5.821   1.878   1.427  0.1843 -0.3817 -0.7040
  853MOL0     C12475   5.801   1.739   1.359 -0.0688  0.3926 -0.4332
  853MOL0     C12476   5.675   1.731   1.275  1.0269 -0.1241 -0.5943
  853MOL0     C12477   5.663   1.587   1.222  0.5386  0.8300  0.2154
  853MOL0     C12478   5.562   1.514   1.310 -0.9518 -0.0148 -0.3802
  853MOL0     C12479   5.535   1.364   1.282 -0.2457 -0.0959  0.4614
  853MOL0     C12480   5.445   1.325   1.161 -0.2292  0.6192 -0.2137
  853MOL0     N12481   5.312   1.370   1.182  0.3976  0.4534  0.2623
  853MOL0     C12482   5.231   1.323   1.280  0.4531 -0.2014 -0.3764
  853MOL0     C12483   5.107   1.376   1.253 -0.0605 -0.1229 -0.3321
  853MOL0     C12484   4.993   1.371   1.348 -0.2406  0.3865  0.2260
  853MOL0     C12485   4.872   1.460   1.313  0.3592 -0.1507  0.1929
  853MOL0     C12486   4.739   1.424   1.382 -0.2974  0.3847 -0.8897
  853MOL0     C12487   4.633   1.507   1.328  0.0550  0.2180  0.5600
  853MOL0     O12488   4.519   1.476   1.399  0.0575 -0.2088 -1.0731
  853MOL0     C12489   4.394   1.509   1.359 -0.3084  0.0102  0.8167
  853MOL0     C12490   4.361   1.600   1.251 -0.3176 -0.2520 -0.5526
  853MOL0     C12491   4.226   1.623   1.225 -1.0201 -0.0319 -0.1217
  853MOL0     C12492   4.123   1.564   1.308  0.5112  0.5617 -0.3370
  853MOL0     C12493   3.980   1.597   1.269 -0.6097 -0.7561 -1.0702
  853MOL0     O12494   3.961   1.644   1.152  0.0917  0.0903 -0.0945
  853MOL0     C12495   3.837   1.674   1.103 -0.1148 -0.5607  0.1834
  853MOL0     C12496   3.799   1.630   0.978 -0.0601 -0.0114 -0.0955
  853MOL0     C12497   3.669   1.647   0.930  0.6214  0.3509  0.5996
  853MOL0     C12498   3.581   1.721   1.009  0.6530  0.2282 -0.3340
  853MOL0     O12499   3.451   1.741   0.968  1.0076 -0.7723 -0.8245
  853MOL0     C12500   3.357   1.657   1.039  0.4422 -1.0389  0.8506
  853MOL0     C12501   3.214   1.681   0.982  0.1391 -0.6420  0.2467
  853MOL0     C12502   3.187   1.646   0.839  0.5600  0.4258  0.3046
  853MOL0     C12503   3.059   1.699   0.781  0.4742 -0.2885  0.2584
  853MOL0     C12504   3.036   1.660   0.630  0.3795 -0.7326  0.1890
  853MOL0     C12505   2.894   1.675   0.579 -0.4037  0.1950  1.2546
  853MOL0     C12506   2.799   1.572   0.655 -0.2249  0.0294 -0.5002
  853MOL0     C12507   2.674   1.526   0.588  0.9290 -0.6169 -0.8553
  853MOL0    Cl12508   2.566   1.424   0.702  0.1205  0.1533  0.1630
  853MOL0     C12509   3.620   1.778   1.132  0.4696  0.3608 -0.6216
  853MOL0     C12510   3.745   1.749   1.178  0.2414 -0.6829 -0.4576
  853MOL0     O12511   3.898   1.594   1.363  0.4918  0.4685 -0.2415
  853MOL0     C12512   4.160   1.488   1.425  0.4214 -0.1408 -0.3065
  853MOL0     C12513   4.293   1.463   1.450 -0.4098 -0.4125  0.0670
  853MOL0     N12514   5.114   1.452   1.141 -0.8508  1.2168 -0.1259
  853MOL0     N12515   5.239   1.443   1.099 -0.1118 -0.1552  0.1339
  853MOL0     C12516   6.263   1.804   1.310 -1.0443  0.3633  0.2985
  853MOL0     C12517   6.405   1.787   1.334  0.0250 -0.3144 -0.2260
  853MOL0     C12518   6.824   1.802   1.538 -0.4687 -0.3612 -0.3016
  853MOL0     C12519   6.923   1.872   1.616 -0.2362 -0.2955 -0.4548
  853MOL0     C12520   7.056   1.824   1.617  0.2726  0.1320  0.1380
  853MOL0     C12521   7.092   1.716   1.539  0.2544 -0.3959 -0.1286
  853MOL0     O12522   7.226   1.691   1.527  0.3231  0.4888 -0.4932
  853MOL0     C12523   7.276   1.592   1.441  0.4175  0.1697  0.7039
  853MOL0     C12524   7.321   1.641   1.301  0.0700  0.6810 -0.4655
  853MOL0     C12525   7.452   1.724   1.317  0.6058 -0.5627 -0.1266
  853MOL0     C12526   7.576   1.659   1.268  0.5574  0.0567 -0.0698
  853MOL0     C12527   7.620   1.554   1.362 -0.2318  0.5340  0.2713
  853MOL0     C12528   7.663   1.467   1.439 -0.8719 -0.5740  0.2810
  853MOL0     C12529   6.991   1.658   1.465  0.2714  0.2183  0.1729
  853MOL0     C12530   6.863   1.703   1.462  0.6571  0.1840  0.2615
  853MOL0     H12531   6.418   1.908   1.658 -1.0759 -0.1894  0.8966
  853MOL0     H12532   6.198   1.960   1.604  1.0677 -1.3350  1.5082
  853MOL0     H12533   5.954   1.996   1.552  0.2354  2.1813 -2.1543
  853MOL0     H12534   5.980   1.818   1.560  0.8986  1.3299  2.3744
  853MOL0     H12535   5.820   1.950   1.345 -0.8131  2.5020  1.6399
  853MOL0     H12536   5.741   1.910   1.494 -0.7365 -2.0165 -0.9551
  853MOL0     H12537   5.796   1.672   1.445  1.0458  1.9842  0.9494
  853MOL0     H12538   5.887   1.724   1.294 -0.5047  0.7308 -1.1001
  853MOL0     H12539   5.593   1.770   1.336  1.5866  1.3508 -0.7211
  853MOL0     H12540   5.688   1.810   1.200  2.1577  0.1666 -0.1239
  853MOL0     H12541   5.761   1.538   1.227  0.0193 -0.2959 -0.3563
  853MOL0     H12542   5.637   1.581   1.116  2.7546  2.1471 -0.4740
  853MOL0     H12543   5.465   1.564   1.311 -2.0116 -2.0169 -0.0112
  853MOL0     H12544   5.600   1.515   1.412 -3.2658 -1.3680  0.5538
  853MOL0     H12545   5.628   1.308   1.270 -0.3445 -0.4849  1.3972
  853MOL0     H12546   5.496   1.326   1.377  1.8320 -2.0150  0.6378
  853MOL0     H12547   5.445   1.216   1.147  1.2918  0.9474 -3.6898
  853MOL0     H12548   5.487   1.366   1.069  0.5669  2.1456  0.7983
  853MOL0     H12549   5.257   1.261   1.365  0.6752  1.7391  1.0280
  853MOL0     H12550   5.014   1.406   1.450  0.9826  0.5680 -0.0690
  853MOL0     H12551   4.964   1.266   1.349  2.4930 -0.4565 -0.5156
  853MOL0     H12552   4.852   1.458   1.205 -2.9475 -1.8077  0.7016
  853MOL0     H12553   4.899   1.564   1.335 -0.7714 -0.4604  3.5782
  853MOL0     H12554   4.725   1.316   1.365 -1.1310  0.3342  0.0358
  853MOL0     H12555   4.752   1.439   1.490  0.3276  1.1193 -1.0624
  853MOL0     H12556   4.613   1.484   1.223 -7.3185 -0.1046  1.5111
  853MOL0     H12557   4.667   1.611   1.335 -2.3564  1.2244 -1.2172
  853MOL0     H12558   4.436   1.658   1.199  0.2660 -0.3431  0.1798
  853MOL0     H12559   4.211   1.687   1.140 -2.0401 -2.1119 -1.6044
  853MOL0     H12560   3.859   1.566   0.914 -0.3668 -1.0730  0.6684
  853MOL0     H12561   3.628   1.609   0.837 -1.9698  1.9741  1.0089
  853MOL0     H12562   3.357   1.690   1.144  1.7297  1.8176  0.0475
  853MOL0     H12563   3.389   1.552   1.041  1.3877 -0.7539  1.2986
  853MOL0     H12564   3.190   1.783   1.014 -0.7636 -1.0326  0.8703
  853MOL0     H12565   3.145   1.619   1.040  0.9906 -1.4477  0.4218
  853MOL0     H12566   3.189   1.538   0.823 -0.9725  0.8657 -4.3410
  853MOL0     H12567   3.270   1.689   0.782 -0.6736  1.5602 -0.7100
  853MOL0     H12568   2.971   1.661   0.834 -0.4704  1.4407 -0.0070
  853MOL0     H12569   3.055   1.807   0.794  0.3150 -0.5694  3.1105
  853MOL0     H12570   3.073   1.559   0.611  1.8979 -0.3828  1.1297
  853MOL0     H12571   3.106   1.731   0.583  0.3011  0.8032  2.2606
  853MOL0     H12572   2.906   1.637   0.477  0.5848 -2.0896  2.1424
  853MOL0     H12573   2.850   1.775   0.586 -3.4514 -1.0050  0.6742
  853MOL0     H12574   2.852   1.479   0.678 -1.0855 -0.6136 -1.0351
  853MOL0     H12575   2.774   1.629   0.745 -6.1455 -0.0755 -1.6871
  853MOL0     H12576   2.702   1.462   0.504  0.8412 -3.3044  1.0313
  853MOL0     H12577   2.613   1.612   0.558  1.1085 -1.0314 -2.4841
  853MOL0     H12578   3.549   1.832   1.193  1.9556  0.9711  0.6153
  853MOL0     H12579   3.774   1.794   1.273  0.2236  0.7401 -1.0909
  853MOL0     H12580   4.089   1.451   1.498  1.0527  0.2397  0.5201
  853MOL0     H12581   4.330   1.400   1.530 -2.0687 -2.8942 -0.9773
  853MOL0     H12582   6.211   1.793   1.216 -0.3901  0.9010 -0.1442
  853MOL0     H12583   6.464   1.741   1.256  0.5533 -1.7975  0.9915
  853MOL0     H12584   6.896   1.963   1.668 -2.6252 -1.0506 -0.2586
  853MOL0     H12585   7.137   1.873   1.669 -0.5246  0.7497  0.8217
  853MOL0     H12586   7.192   1.527   1.416 -0.1341  0.6582  1.2485
  853MOL0     H12587   7.354   1.537   1.495  2.5386 -0.3209 -2.5746
  853MOL0     H12588   7.351   1.554   1.242 -1.9711  0.3422 -1.0809
  853MOL0     H12589   7.235   1.687   1.251 -0.4668  1.4935  1.1239
  853MOL0     H12590   7.461   1.748   1.424  2.1727 -2.3662  0.2041
  853MOL0     H12591   7.450   1.820   1.265 -0.5508 -0.5496 -0.0720
  853MOL0     H12592   7.560   1.607   1.173  0.8743 -0.8875  0.3704
  853MOL0     H12593   7.659   1.729   1.258 -0.2852  0.8567 -1.7664
  853MOL0     H12594   7.690   1.379   1.494  0.5463 -0.7682 -0.6820
  853MOL0     H12595   7.012   1.572   1.403  1.4494  0.1188  0.6866
  853MOL0     H12596   6.795   1.643   1.402  2.5013 -0.1080 -1.6729
  854MOL0     O12597   3.007   1.820  10.994  0.6460 -0.1062 -0.0149
  854MOL0     C12598   3.104   1.750  10.970 -0.4182  0.4025  0.2784
  854MOL0     O12599   3.100   1.614  10.977  0.0259 -1.0379  0.2661
  854MOL0     C12600   2.979   1.558  11.004  0.1633  0.3582  0.4921
  854MOL0     C12601   2.877   1.575  10.913  0.2030 -0.0433  0.6289
  854MOL0     C12602   2.749   1.512  10.933  0.1682  0.3772  0.0262
  854MOL0     C12603   2.730   1.436  11.052 -0.2009 -0.4520  0.1392
  854MOL0     O12604   2.615   1.372  11.098  0.0677 -0.3590 -0.3574
  854MOL0     C12605   2.492   1.367  11.018 -0.1180 -0.8903  0.4939
  854MOL0     C12606   2.370   1.331  11.102 -0.3403 -0.5008 -0.6933
  854MOL0     C12607   2.246   1.331  11.006  0.0678 -0.2956 -0.2548
  854MOL0     C12608   2.129   1.295  11.099 -0.4851  0.3047 -0.0963
  854MOL0     C12609   1.992   1.300  11.030 -0.0293  0.7072 -0.5554
  854MOL0     C12610   2.000   1.230  10.885  0.2050 -0.1037 -0.5456
  854MOL0     C12611   1.877   1.172  10.819 -0.3486  0.4451  0.1394
  854MOL0     C12612   1.761   1.270  10.799  0.9211 -0.0214 -0.2679
  854MOL0     N12613   1.639   1.212  10.734 -0.1562 -0.8663 -0.0120
  854MOL0     C12614   1.542   1.129  10.782  0.0346 -0.2802  0.0921
  854MOL0     C12615   1.452   1.126  10.684  0.2862 -0.2550  0.4348
  854MOL0     C12616   1.316   1.060  10.685  0.1707  0.1510  0.0372
  854MOL0     C12617   1.232   1.119  10.800  0.0784  0.7309 -0.8672
  854MOL0     C12618   1.170   1.264  10.778  0.6237  0.5792 -0.5437
  854MOL0     C12619   1.122   1.334  10.907 -0.4098  0.6223 -0.3220
  854MOL0     O12620   1.146   1.474  10.897 -0.4632 -0.0074  0.6829
  854MOL0     C12621   1.281   1.519  10.918 -0.2639 -0.2897  0.0780
  854MOL0     C12622   1.300   1.655  10.913  0.3307 -0.6527  0.5089
  854MOL0     C12623   1.421   1.718  10.945  0.1073 -0.2105  0.6338
  854MOL0     C12624   1.532   1.638  10.982  0.5560  0.3790 -0.2690
  854MOL0     C12625   1.656   1.699  11.002 -0.2772  0.1993  0.3767
  854MOL0     O12626   1.763   1.607  11.023  0.1790 -0.0132 -0.2405
  854MOL0     C12627   1.892   1.655  11.050  0.3252 -0.3082 -0.8194
  854MOL0     C12628   1.954   1.620  11.178 -0.2974  0.6717  1.0117
  854MOL0     C12629   2.085   1.665  11.205  0.9309 -0.2960 -0.7579
  854MOL0     C12630   2.146   1.753  11.118 -1.1093  0.0760  0.8302
  854MOL0     O12631   2.254   1.813  11.172 -0.9299  0.1024  0.0513
  854MOL0     C12632   2.375   1.792  11.097 -0.7230 -0.1153  0.1134
  854MOL0     C12633   2.487   1.854  11.176 -0.8801 -0.1641 -0.1043
  854MOL0     C12634   2.488   2.006  11.188 -0.1074 -0.1983 -0.3323
  854MOL0     C12635   2.617   2.066  11.245  0.5626 -0.0837 -0.4783
  854MOL0     C12636   2.719   2.096  11.129 -0.2489  0.0593 -0.2799
  854MOL0     C12637   2.836   2.185  11.177 -0.3249 -0.5001  0.0884
  854MOL0     C12638   2.923   2.218  11.053  0.0419 -0.5200 -0.9038
  854MOL0     C12639   3.071   2.246  11.105 -0.6073 -0.8291  0.6545
  854MOL0    Cl12640   3.081   2.352  11.247 -0.4035 -0.1960 -0.1376
  854MOL0     C12641   2.093   1.792  10.998 -0.8495  0.7503  0.4653
  854MOL0     C12642   1.965   1.729  10.962 -0.3083 -0.7159  0.1544
  854MOL0     O12643   1.662   1.821  11.000  0.5958  0.1807 -0.1890
  854MOL0     C12644   1.513   1.496  10.986 -0.3766 -0.2483  0.1445
  854MOL0     C12645   1.393   1.440  10.956  0.3216  0.9700 -0.3852
  854MOL0     N12646   1.503   1.199  10.575 -0.1654  0.1716  0.2667
  854MOL0     N12647   1.607   1.260  10.610 -0.1369  0.0046 -0.4971
  854MOL0     C12648   2.835   1.418  11.139 -0.2699 -0.2310 -0.4707
  854MOL0     C12649   2.958   1.480  11.114 -0.3528 -0.1426 -0.5936
  854MOL0     C12650   3.234   1.811  10.919 -0.0222 -0.0655 -1.1536
  854MOL0     C12651   3.342   1.734  10.882  0.3939 -0.5770 -0.3328
  854MOL0     C12652   3.453   1.783  10.814  0.4444 -0.5522  0.5383
  854MOL0     C12653   3.468   1.922  10.804  0.2422  0.0044 -0.2349
  854MOL0     O12654   3.584   1.983  10.755  0.1655 -0.7059 -0.2604
  854MOL0     C12655   3.714   1.917  10.750  0.5944  0.0941 -0.3215
  854MOL0     C12656   3.819   1.993  10.823  0.2925 -0.5163 -0.4082
  854MOL0     C12657   3.835   2.136  10.770  0.0814  0.4572  0.2160
  854MOL0     C12658   3.884   2.153  10.630  0.1174 -0.7468  0.2229
  854MOL0     C12659   4.014   2.096  10.592 -0.6730  0.0137  0.4403
  854MOL0     C12660   4.121   2.039  10.562  0.0079 -0.0850 -0.7747
  854MOL0     C12661   3.362   2.007  10.848  1.2776  0.3421  0.0705
  854MOL0     C12662   3.241   1.954  10.901  0.7071  0.1404 -0.5139
  854MOL0     H12663   2.886   1.624  10.817 -0.6315 -0.3196  0.3971
  854MOL0     H12664   2.673   1.524  10.857 -0.9578  0.8817  1.1952
  854MOL0     H12665   2.507   1.289  10.942 -0.9819 -0.1633 -0.4717
  854MOL0     H12666   2.476   1.464  10.969  1.5543 -0.1887  1.2771
  854MOL0     H12667   2.358   1.404  11.183  0.3448  0.2701 -1.2629
  854MOL0     H12668   2.376   1.236  11.155 -2.1713  1.3015  3.1717
  854MOL0     H12669   2.260   1.251  10.933  0.3671  1.0857 -1.7579
  854MOL0     H12670   2.235   1.429  10.958 -1.2976 -0.9499 -1.3243
  854MOL0     H12671   2.140   1.195  11.141 -1.2622 -0.0793 -0.7848
  854MOL0     H12672   2.119   1.365  11.182  0.5622 -0.8070  0.9932
  854MOL0     H12673   1.965   1.406  11.024  1.2522  0.9748 -3.0662
  854MOL0     H12674   1.921   1.248  11.094  2.5832 -1.1797  1.0234
  854MOL0     H12675   2.070   1.147  10.879 -1.2754 -1.2772 -4.3670
  854MOL0     H12676   2.046   1.298  10.812  1.5608 -0.6903 -0.2846
  854MOL0     H12677   1.911   1.145  10.719  1.5671  1.0976  0.5596
  854MOL0     H12678   1.848   1.079  10.869 -1.3680  0.7396  0.1267
  854MOL0     H12679   1.791   1.360  10.745 -0.1948 -0.9847 -2.6651
  854MOL0     H12680   1.725   1.304  10.896  1.2075  0.8088 -0.4425
  854MOL0     H12681   1.548   1.097  10.885  3.2532  0.4553  0.2594
  854MOL0     H12682   1.332   0.955  10.708  1.6147  0.9869  3.3698
  854MOL0     H12683   1.276   1.077  10.584 -0.6636 -1.2248  0.1163
  854MOL0     H12684   1.299   1.133  10.885  2.3982  0.8281 -2.6159
  854MOL0     H12685   1.148   1.052  10.823  0.6118  0.2417 -0.3012
  854MOL0     H12686   1.243   1.333  10.734 -0.3553  1.2870 -1.1083
  854MOL0     H12687   1.081   1.267  10.713 -0.0238 -1.0360  0.2119
  854MOL0     H12688   1.163   1.294  11.000 -2.6959 -0.6806  0.2106
  854MOL0     H12689   1.015   1.310  10.911  0.0719 -1.9213 -0.6448
  854MOL0     H12690   1.230   1.734  10.886  1.0701  1.1057  3.3987
  854MOL0     H12691   1.430   1.826  10.947  2.9313 -0.3157 -1.0840
  854MOL0     H12692   1.903   1.570  11.260  0.0072  0.8484  1.3096
  854MOL0     H12693   2.127   1.659  11.305 -1.5964 -0.6898  0.3818
  854MOL0     H12694   2.365   1.825  10.993 -2.4811 -1.8941 -0.3465
  854MOL0     H12695   2.389   1.684  11.089 -0.6925 -0.0952 -0.1090
  854MOL0     H12696   2.585   1.818  11.144 -1.1001  0.5422 -1.6646
  854MOL0     H12697   2.467   1.812  11.275  2.5684 -3.0110 -0.4124
  854MOL0     H12698   2.413   2.025  11.266  2.2314  0.1871  1.9701
  854MOL0     H12699   2.452   2.063  11.102 -0.2097  0.8683  0.4026
  854MOL0     H12700   2.594   2.160  11.297  0.0531 -0.4560 -0.0253
  854MOL0     H12701   2.654   2.002  11.325  0.2215  1.6650  1.1620
  854MOL0     H12702   2.667   2.158  11.055  0.2422  1.8236  0.7999
  854MOL0     H12703   2.765   2.008  11.084  2.9724  1.7502 -0.6234
  854MOL0     H12704   2.896   2.129  11.250  1.1351  1.7025  0.6699
  854MOL0     H12705   2.798   2.276  11.225  1.4348 -0.9103  2.4975
  854MOL0     H12706   2.932   2.140  10.977  1.9943 -1.5013  0.2479
  854MOL0     H12707   2.893   2.313  11.009  2.5644  2.0444  2.3899
  854MOL0     H12708   3.135   2.280  11.023  0.6955 -1.6754  1.2850
  854MOL0     H12709   3.123   2.155  11.135 -0.4815 -0.7637  0.6329
  854MOL0     H12710   2.137   1.873  10.940 -2.1922 -0.4303 -2.4428
  854MOL0     H12711   1.914   1.748  10.868  0.2236 -2.2206 -0.4652
  854MOL0     H12712   1.589   1.427  11.022 -2.4835 -1.9979  1.5081
  854MOL0     H12713   1.380   1.332  10.954  2.1315  0.7335 -2.3590
  854MOL0     H12714   2.835   1.355  11.228  3.7249 -0.8339 -0.6912
  854MOL0     H12715   3.049   1.491  11.172  0.7108  0.2654 -2.2729
  854MOL0     H12716   3.335   1.627  10.902  1.7268 -0.7614 -0.7581
  854MOL0     H12717   3.526   1.709  10.783 -0.7746 -0.5365 -2.7418
  854MOL0     H12718   3.741   1.915  10.644  0.0108  2.3385 -0.5758
  854MOL0     H12719   3.707   1.817  10.793 -0.8110  0.2158 -0.2455
  854MOL0     H12720   3.784   1.983  10.926 -0.6896  1.3652 -0.5173
  854MOL0     H12721   3.922   1.957  10.810 -0.3382 -1.7353 -2.2968
  854MOL0     H12722   3.920   2.184  10.819  0.8533 -1.9266  1.3687
  854MOL0     H12723   3.745   2.198  10.778 -0.0804  0.3216 -0.5206
  854MOL0     H12724   3.809   2.122  10.557  0.2482  2.0863 -1.2688
  854MOL0     H12725   3.898   2.259  10.606 -1.7049 -0.5622 -0.1613
  854MOL0     H12726   4.208   1.984  10.532  2.2995  2.6821  0.2944
  854MOL0     H12727   3.388   2.112  10.849 -1.6616  1.1484  1.2203
  854MOL0     H12728   3.152   2.005  10.935  0.2222 -2.3338  2.4210
  855MOL0     O12729   6.120   9.808   4.282  0.9179 -0.2498 -0.0128
  855MOL0     C12730   6.198   9.884   4.233 -0.1278 -0.3218  0.0111
  855MOL0     O12731   6.193  10.018   4.238  0.6460  0.4960 -0.6026
  855MOL0     C12732   6.082  10.084   4.285 -0.0457 -0.5840  0.9032
  855MOL0     C12733   6.114  10.184   4.381  0.6076  0.3884 -0.7899
  855MOL0     C12734   6.006  10.267   4.438 -0.1246  0.6193 -0.4769
  855MOL0     C12735   5.879  10.253   4.395 -1.0750  0.0967  0.4295
  855MOL0     O12736   5.781  10.327   4.444  0.3495  0.6475 -0.9541
  855MOL0     C12737   5.773  10.325   4.589  0.0999  0.9602  1.0256
  855MOL0     C12738   5.627  10.357   4.619 -0.2582  0.3723  0.0372
  855MOL0     C12739   5.573  10.323   4.758  0.2471  0.3773  0.0999
  855MOL0     C12740   5.420  10.338   4.775  0.1678  0.6888 -0.1502
  855MOL0     C12741   5.381  10.478   4.742 -0.2441  0.1107 -0.3291
  855MOL0     C12742   5.230  10.504   4.765  0.5036  0.2134 -0.4438
  855MOL0     C12743   5.210  10.637   4.835  0.0695 -0.6609  0.1168
  855MOL0     C12744   5.097  10.709   4.770  0.7931 -0.0879  0.6003
  855MOL0     N12745   4.957  10.673   4.799  0.1062  0.1376  0.2288
  855MOL0     C12746   4.869  10.598   4.725 -0.1307 -0.0576 -0.3128
  855MOL0     C12747   4.772  10.556   4.814  0.2025  0.2810  0.0917
  855MOL0     C12748   4.652  10.475   4.780 -0.2918  0.5873 -0.4591
  855MOL0     C12749   4.554  10.541   4.684  0.9318 -0.5033  1.0193
  855MOL0     C12750   4.408  10.544   4.737 -0.0331  0.4312  0.3217
  855MOL0     C12751   4.309  10.596   4.637  0.4300 -0.4747  0.1462
  855MOL0     O12752   4.190  10.639   4.703  0.1890 -0.5067 -0.0308
  855MOL0     C12753   4.069  10.587   4.670  0.3583  0.2651 -1.0527
  855MOL0     C12754   4.014  10.529   4.560 -0.6938  0.1708 -0.2475
  855MOL0     C12755   3.886  10.479   4.553 -0.0274  0.9156  0.9350
  855MOL0     C12756   3.802  10.487   4.662 -0.2987  0.1080  0.6008
  855MOL0     C12757   3.671  10.422   4.664 -0.6539  0.2531 -0.1749
  855MOL0     O12758   3.584  10.438   4.772 -0.3573  0.8128  0.2360
  855MOL0     C12759   3.460  10.388   4.777  0.9444 -0.8230 -0.6314
  855MOL0     C12760   3.356  10.422   4.683 -0.0716 -0.3731  0.0394
  855MOL0     C12761   3.226  10.393   4.717  0.8606  0.5212  0.2598
  855MOL0     C12762   3.192  10.329   4.835 -1.1252  0.3439 -0.1618
  855MOL0     O12763   3.059  10.312   4.855 -0.7789  0.2732  0.5260
  855MOL0     C12764   3.018  10.237   4.963 -0.4995 -0.0478 -0.7292
  855MOL0     C12765   2.865  10.239   4.969  0.1073  0.4582  0.1969
  855MOL0     C12766   2.814  10.132   5.062 -0.1480 -0.1321 -0.1856
  855MOL0     C12767   2.655  10.127   5.039 -0.1249 -0.0622 -0.0367
  855MOL0     C12768   2.586  10.056   5.156 -0.2132 -0.4051  0.6015
  855MOL0     C12769   2.552  10.143   5.273  0.1045 -0.0684 -0.5519
  855MOL0     C12770   2.498  10.056   5.395 -0.4911 -0.0058  0.3873
  855MOL0     C12771   2.503  10.145   5.517  0.6478 -0.4820  0.4594
  855MOL0    Cl12772   2.558  10.050   5.653  0.2531 -0.0424 -0.3938
  855MOL0     C12773   3.293  10.293   4.925  0.5353  0.4862 -0.7006
  855MOL0     C12774   3.427  10.317   4.895  1.1694  0.4385  0.4888
  855MOL0     O12775   3.653  10.340   4.574  0.5649  0.1225 -0.3069
  855MOL0     C12776   3.845  10.559   4.772  0.2384  0.5208 -0.0107
  855MOL0     C12777   3.982  10.594   4.780  0.3751 -0.2354 -0.4250
  855MOL0     N12778   4.802  10.609   4.936  0.7826  0.7299  0.0695
  855MOL0     N12779   4.907  10.672   4.926  0.5966  0.0603 -0.2937
  855MOL0     C12780   5.836  10.149   4.305 -0.7834 -0.2954 -0.0679
  855MOL0     C12781   5.945  10.069   4.251 -0.3674 -0.3344 -0.1947
  855MOL0     C12782   6.305   9.806   4.170  0.1489  0.1883  0.3728
  855MOL0     C12783   6.389   9.874   4.092 -1.3042  0.1516  0.5491
  855MOL0     C12784   6.503   9.810   4.040 -0.2214 -0.6695 -0.9991
  855MOL0     C12785   6.527   9.668   4.060  0.2438  0.0987 -0.0713
  855MOL0     O12786   6.630   9.596   4.007 -0.6315  1.0579  0.2969
  855MOL0     C12787   6.725   9.653   3.911 -0.2929  0.0393  0.0811
  855MOL0     C12788   6.831   9.549   3.889  0.2835  0.9369 -0.0148
  855MOL0     C12789   6.946   9.601   3.810  0.2914  0.6718 -0.1729
  855MOL0     C12790   7.062   9.493   3.800 -0.2073 -0.2519  0.5231
  855MOL0     C12791   7.123   9.495   3.664  0.0003  0.5584 -0.5275
  855MOL0     C12792   7.186   9.507   3.562 -0.5451  0.3148  1.1871
  855MOL0     C12793   6.446   9.599   4.150  0.2329  0.6761 -0.1260
  855MOL0     C12794   6.342   9.670   4.204  0.3971  0.2027 -0.1665
  855MOL0     H12795   6.219  10.197   4.405  0.1203  0.8500  1.2289
  855MOL0     H12796   6.040  10.347   4.504 -0.7213 -0.6609  1.4673
  855MOL0     H12797   5.834  10.403   4.635  0.1640  0.4428  1.8431
  855MOL0     H12798   5.801  10.225   4.623  2.8836  0.4031 -2.4322
  855MOL0     H12799   5.573  10.307   4.538  0.2259  1.8792 -1.2696
  855MOL0     H12800   5.621  10.466   4.608 -1.0435  0.2977 -0.3137
  855MOL0     H12801   5.628  10.386   4.829 -1.3682  2.5523 -0.4755
  855MOL0     H12802   5.612  10.225   4.787  0.8230  0.5757  0.0075
  855MOL0     H12803   5.360  10.264   4.720 -2.1299  2.9113 -0.8388
  855MOL0     H12804   5.404  10.322   4.882  2.6702 -0.2571  0.1587
  855MOL0     H12805   5.405  10.501   4.638  0.7833  1.2923  0.1457
  855MOL0     H12806   5.441  10.533   4.815 -0.2210 -1.6630  1.0529
  855MOL0     H12807   5.181  10.431   4.831 -1.2718  1.3287 -0.4877
  855MOL0     H12808   5.176  10.491   4.672  0.0798 -0.1546 -0.1517
  855MOL0     H12809   5.181  10.633   4.940  0.5303 -2.3249  0.2101
  855MOL0     H12810   5.304  10.692   4.826  0.3753 -0.7581  2.1346
  855MOL0     H12811   5.112  10.714   4.662  0.9388  3.1557  0.6607
  855MOL0     H12812   5.108  10.813   4.802 -1.7472  1.4470 -2.8617
  855MOL0     H12813   4.894  10.580   4.621  2.0572  1.0833 -0.0324
  855MOL0     H12814   4.610  10.446   4.877  4.3343 -2.2994  1.0476
  855MOL0     H12815   4.687  10.379   4.739  0.2029 -1.1113  3.5036
  855MOL0     H12816   4.563  10.500   4.583  0.1050  1.2838  0.1725
  855MOL0     H12817   4.584  10.646   4.680 -1.7160  0.2804 -0.7154
  855MOL0     H12818   4.371  10.453   4.785  0.2991  1.0101  1.7200
  855MOL0     H12819   4.414  10.623   4.813 -2.1664 -0.0083  1.0127
  855MOL0     H12820   4.291  10.510   4.573  0.9196  1.4979 -2.8512
  855MOL0     H12821   4.350  10.675   4.573  1.0668 -0.7517  0.2123
  855MOL0     H12822   4.071  10.525   4.468  1.1984 -0.1290  0.8918
  855MOL0     H12823   3.856  10.424   4.464 -1.3350  0.3413  1.7051
  855MOL0     H12824   3.361  10.480   4.591 -0.9116 -0.3568 -0.0035
  855MOL0     H12825   3.150  10.436   4.653 -0.5073  0.5965  1.8727
  855MOL0     H12826   3.046  10.277   5.061 -3.0289 -6.1910  3.0862
  855MOL0     H12827   3.059  10.136   4.953  2.1966  0.8099  0.7595
  855MOL0     H12828   2.824  10.223   4.869  2.2745  0.9255 -0.8335
  855MOL0     H12829   2.828  10.335   5.007 -1.6216  0.8569 -2.2358
  855MOL0     H12830   2.835  10.166   5.164 -0.5824 -0.4282  0.0049
  855MOL0     H12831   2.859  10.034   5.043  0.0540 -0.1716  0.4653
  855MOL0     H12832   2.612  10.227   5.038 -2.2900 -0.8707  2.0947
  855MOL0     H12833   2.628  10.070   4.950  2.7062 -1.6740 -0.0000
  855MOL0     H12834   2.655   9.983   5.200 -2.1540 -1.0012  2.8576
  855MOL0     H12835   2.494  10.009   5.120  0.4935  0.9629 -3.5492
  855MOL0     H12836   2.478  10.218   5.245 -0.6349  0.3280  2.1875
  855MOL0     H12837   2.633  10.205   5.314 -1.9882  0.8763  2.5724
  855MOL0     H12838   2.397  10.019   5.379 -1.0595  1.5241  0.2910
  855MOL0     H12839   2.565   9.973   5.418 -0.3851  0.5382  2.1929
  855MOL0     H12840   2.399  10.176   5.532  0.4181 -0.7409 -0.5497
  855MOL0     H12841   2.563  10.235   5.501 -0.2252  0.2937  1.3906
  855MOL0     H12842   3.271  10.245   5.020 -3.6163 -0.1894 -1.7657
  855MOL0     H12843   3.506  10.286   4.963 -0.0029 -1.8766  0.9162
  855MOL0     H12844   3.782  10.570   4.860  0.9888  2.1197  0.3610
  855MOL0     H12845   4.005  10.643   4.874 -0.1855  5.1288 -2.7733
  855MOL0     H12846   5.730  10.143   4.284 -0.8884  0.9097  0.0011
  855MOL0     H12847   5.925   9.988   4.181 -0.2819 -1.7357  1.3303
  855MOL0     H12848   6.371   9.980   4.076 -0.4908  0.1658 -0.4606
  855MOL0     H12849   6.553   9.878   3.971 -0.9476  0.0057 -0.8700
  855MOL0     H12850   6.770   9.746   3.948  1.4018 -0.3599 -0.8610
  855MOL0     H12851   6.678   9.674   3.814 -1.4018  2.1580  1.0108
  855MOL0     H12852   6.875   9.533   3.988  0.7558  0.8681 -0.2330
  855MOL0     H12853   6.780   9.461   3.847 -2.4775  1.8060  1.2760
  855MOL0     H12854   6.985   9.688   3.864  0.8756 -0.0575  0.6142
  855MOL0     H12855   6.907   9.626   3.711  1.1935  2.3450 -0.1360
  855MOL0     H12856   7.139   9.521   3.873  0.7850  2.4612 -1.4293
  855MOL0     H12857   7.026   9.393   3.829  0.4781 -0.2410  1.4878
  855MOL0     H12858   7.249   9.523   3.477 -2.8042  0.6895 -0.5054
  855MOL0     H12859   6.466   9.496   4.176  0.7078  0.6437 -0.6080
  855MOL0     H12860   6.271   9.618   4.267 -0.5556  0.7684 -0.7458
  856MOL0     O12861   0.792   6.330   4.597  0.0305  0.2053 -0.1540
  856MOL0     C12862   0.807   6.406   4.696  0.6000  0.3025  2.1133
  856MOL0     O12863   0.715   6.491   4.750  0.1635  0.4865  0.1818
  856MOL0     C12864   0.594   6.494   4.700 -0.8919 -0.4855 -0.5279
  856MOL0     C12865   0.568   6.567   4.582 -0.1623  0.0673  0.3996
  856MOL0     C12866   0.439   6.581   4.531  0.4282 -0.7224  1.0833
  856MOL0     C12867   0.327   6.544   4.598  0.0273 -0.1534 -0.5537
  856MOL0     O12868   0.200   6.579   4.551 -0.0746 -0.0789 -0.9184
  856MOL0     C12869   0.096   6.595   4.647 -0.0906  0.3593  0.8031
  856MOL0     C12870  -0.041   6.624   4.588 -0.1677 -0.0004  0.2344
  856MOL0     C12871  -0.058   6.765   4.512  0.1924 -0.0199 -0.0369
  856MOL0     C12872   0.053   6.788   4.400  0.5224  0.0306 -0.9747
  856MOL0     C12873  -0.003   6.907   4.321  0.1910  0.1974 -0.2244
  856MOL0     C12874  -0.087   6.856   4.203  0.5737 -0.5546  0.6185
  856MOL0     C12875  -0.128   6.967   4.101  0.0989 -0.5320  0.9156
  856MOL0     C12876  -0.224   6.912   3.996  0.7779 -0.2575 -0.4017
  856MOL0     N12877  -0.349   6.848   4.056  0.2442 -0.0616 -1.4383
  856MOL0     C12878  -0.380   6.713   4.063  0.7431 -0.5206 -0.4874
  856MOL0     C12879  -0.512   6.713   4.110 -0.4612  0.1830  0.0891
  856MOL0     C12880  -0.608   6.605   4.131  0.5319  0.7361  0.3061
  856MOL0     C12881  -0.727   6.593   4.033 -0.3444 -0.3166  0.1305
  856MOL0     C12882  -0.815   6.485   4.085 -0.2803  0.8712 -0.3675
  856MOL0     C12883  -0.948   6.480   4.010  0.5340 -0.4196 -0.3935
  856MOL0     O12884  -1.040   6.580   4.057 -0.4212 -0.7181 -0.2041
  856MOL0     C12885  -1.173   6.550   4.033  0.1050 -0.3258  0.5565
  856MOL0     C12886  -1.214   6.482   3.916 -0.0171 -0.2823  0.0377
  856MOL0     C12887  -1.352   6.474   3.883 -0.2683  0.7969 -0.1774
  856MOL0     C12888  -1.450   6.515   3.978 -0.2154 -0.3158  0.9471
  856MOL0     C12889  -1.594   6.488   3.963 -0.2639 -0.6080  0.5492
  856MOL0     O12890  -1.624   6.434   3.847  0.2415  0.3240  0.2860
  856MOL0     C12891  -1.750   6.419   3.803 -0.9588 -0.2715  0.1296
  856MOL0     C12892  -1.862   6.489   3.856  0.8904  0.2399 -0.6926
  856MOL0     C12893  -1.993   6.454   3.822  0.6044  0.7501 -0.3150
  856MOL0     C12894  -2.020   6.351   3.733  0.0448 -0.0468 -0.1641
  856MOL0     O12895  -2.146   6.319   3.690 -0.5079  0.0884 -0.0372
  856MOL0     C12896  -2.259   6.384   3.735 -0.2006  0.5609 -1.8888
  856MOL0     C12897  -2.371   6.319   3.652 -0.4482  0.2212 -0.0241
  856MOL0     C12898  -2.511   6.384   3.680 -0.3592 -0.1605  0.7243
  856MOL0     C12899  -2.636   6.340   3.594  0.3481  0.2923  0.0496
  856MOL0     C12900  -2.775   6.344   3.660  0.2748  0.0362 -0.0966
  856MOL0     C12901  -2.786   6.247   3.781  0.0070  0.9861 -0.6026
  856MOL0     C12902  -2.931   6.213   3.817 -0.0879  0.7755 -0.4212
  856MOL0     C12903  -2.985   6.298   3.934 -0.1842 -0.1262  0.0241
  856MOL0    Cl12904  -3.137   6.223   3.999 -0.2984 -0.7183 -0.3144
  856MOL0     C12905  -1.911   6.291   3.670  0.4308  0.5929 -0.3334
  856MOL0     C12906  -1.773   6.315   3.709 -0.4355 -1.2761  0.2430
  856MOL0     O12907  -1.675   6.521   4.052 -0.4224 -0.0066  0.2878
  856MOL0     C12908  -1.404   6.582   4.092  0.6407  0.0472  0.0910
  856MOL0     C12909  -1.271   6.597   4.121 -0.6920  0.0193 -0.5219
  856MOL0     N12910  -0.554   6.840   4.110 -0.0370  0.2017  0.1154
  856MOL0     N12911  -0.462   6.920   4.075  0.4865  0.8839 -0.0049
  856MOL0     C12912   0.348   6.482   4.719 -0.6211 -0.2879 -0.9319
  856MOL0     C12913   0.478   6.454   4.766 -0.2142  0.4280  0.0091
  856MOL0     C12914   0.936   6.404   4.762  0.7494  0.7288 -0.1185
  856MOL0     C12915   0.959   6.447   4.893  0.4190  1.1128  0.0740
  856MOL0     C12916   1.082   6.445   4.954 -1.5456 -0.5439 -0.2015
  856MOL0     C12917   1.188   6.394   4.879 -0.1411 -0.3163 -0.2782
  856MOL0     O12918   1.304   6.370   4.937  0.4815 -0.2032 -0.0203
  856MOL0     C12919   1.416   6.449   4.873  0.3515  0.2862 -0.8876
  856MOL0     C12920   1.438   6.585   4.952 -0.0438  0.5034  0.1055
  856MOL0     C12921   1.476   6.568   5.105 -0.6744  0.6409  0.4681
  856MOL0     C12922   1.552   6.443   5.143  0.2317 -1.2055  0.3908
  856MOL0     C12923   1.688   6.474   5.112  0.2947 -0.0796  0.6567
  856MOL0     C12924   1.805   6.482   5.074 -0.2341  0.1282 -0.3989
  856MOL0     C12925   1.162   6.344   4.754 -0.4289 -0.8372  0.2296
  856MOL0     C12926   1.044   6.359   4.689  0.3517 -0.0800  0.2974
  856MOL0     H12927   0.649   6.609   4.522 -1.2936  0.3451 -1.0101
  856MOL0     H12928   0.420   6.644   4.444  0.6945 -2.3562 -0.2107
  856MOL0     H12929   0.123   6.684   4.705 -0.2495  1.4496 -0.7418
  856MOL0     H12930   0.087   6.498   4.698 -1.2812 -0.3838 -0.7493
  856MOL0     H12931  -0.110   6.611   4.672 -0.9930 -0.8100 -0.5576
  856MOL0     H12932  -0.070   6.552   4.511  0.6801  1.2700 -1.3346
  856MOL0     H12933  -0.037   6.843   4.586 -2.7576  1.0145 -0.1715
  856MOL0     H12934  -0.160   6.780   4.478  0.4544  2.6617  0.1172
  856MOL0     H12935   0.142   6.815   4.458 -0.8424  1.4342  0.5957
  856MOL0     H12936   0.058   6.695   4.344  0.9395 -1.1100  0.8562
  856MOL0     H12937   0.082   6.965   4.282 -0.1517  0.3394 -0.7731
  856MOL0     H12938  -0.061   6.981   4.378  0.5862  3.1317 -3.2829
  856MOL0     H12939  -0.177   6.811   4.246 -0.0696  0.5542  0.4819
  856MOL0     H12940  -0.046   6.771   4.148  2.3043  0.1345  0.7721
  856MOL0     H12941  -0.179   7.048   4.154 -1.8825 -0.5926 -0.7505
  856MOL0     H12942  -0.042   7.023   4.064  1.2712 -1.7222  1.7436
  856MOL0     H12943  -0.173   6.840   3.930  2.1391  1.1525 -0.9551
  856MOL0     H12944  -0.258   6.997   3.937 -0.1779 -1.3578 -1.4976
  856MOL0     H12945  -0.315   6.630   4.037  1.0674  0.3052 -2.5797
  856MOL0     H12946  -0.637   6.602   4.236 -0.7773 -0.7339 -0.0626
  856MOL0     H12947  -0.548   6.514   4.119 -0.0241  0.6298 -2.2644
  856MOL0     H12948  -0.690   6.561   3.936 -2.3403 -4.0802  0.4336
  856MOL0     H12949  -0.780   6.689   4.022 -0.4654 -0.4040 -0.0649
  856MOL0     H12950  -0.766   6.389   4.067 -0.5083  0.5827  0.5123
  856MOL0     H12951  -0.849   6.496   4.188 -1.5027  2.4366 -0.9062
  856MOL0     H12952  -0.989   6.379   4.017 -1.0583  0.1760 -0.5298
  856MOL0     H12953  -0.930   6.507   3.905 -0.5766  1.6146 -0.1047
  856MOL0     H12954  -1.133   6.450   3.852  1.5918  1.5182  1.0929
  856MOL0     H12955  -1.387   6.430   3.790 -0.6642  0.6224  0.0530
  856MOL0     H12956  -1.849   6.571   3.926  3.2356 -2.5575  2.4905
  856MOL0     H12957  -2.067   6.499   3.888  1.6182  0.8856  0.7775
  856MOL0     H12958  -2.260   6.490   3.710 -1.3880  0.7407 -1.1522
  856MOL0     H12959  -2.272   6.373   3.843 -0.5709  0.8904 -1.8980
  856MOL0     H12960  -2.363   6.215   3.684  1.6039  0.1446 -0.6485
  856MOL0     H12961  -2.353   6.320   3.544 -0.7313  0.4316 -0.0726
  856MOL0     H12962  -2.497   6.485   3.642  1.0302 -0.4690  0.3268
  856MOL0     H12963  -2.537   6.380   3.786  2.2080  0.4598  1.4534
  856MOL0     H12964  -2.632   6.402   3.505 -0.6513  1.9868  1.1270
  856MOL0     H12965  -2.620   6.236   3.562 -0.1838  0.4933 -0.8950
  856MOL0     H12966  -2.844   6.330   3.576 -0.7419 -1.0484  0.8885
  856MOL0     H12967  -2.786   6.446   3.699  1.1452 -0.7033  2.2361
  856MOL0     H12968  -2.744   6.289   3.873 -1.2470  0.0620  0.4402
  856MOL0     H12969  -2.738   6.151   3.761 -2.2552 -0.6125  1.0676
  856MOL0     H12970  -2.994   6.210   3.728  2.2603 -1.4358 -2.1564
  856MOL0     H12971  -2.926   6.112   3.859  1.5548 -0.4755 -3.3249
  856MOL0     H12972  -3.003   6.402   3.904 -2.0586  0.1526  1.8365
  856MOL0     H12973  -2.921   6.294   4.022  1.1225  1.9229 -0.7772
  856MOL0     H12974  -1.931   6.214   3.596 -1.5221 -2.0815  2.6721
  856MOL0     H12975  -1.698   6.254   3.660  2.7972  1.4246  1.4739
  856MOL0     H12976  -1.478   6.636   4.150  1.2747  2.6680 -1.3399
  856MOL0     H12977  -1.247   6.647   4.214 -1.6215  1.0541 -0.8146
  856MOL0     H12978   0.265   6.425   4.761 -1.1100 -0.0257 -1.5200
  856MOL0     H12979   0.506   6.404   4.858  1.6608 -1.7359 -1.6237
  856MOL0     H12980   0.875   6.487   4.949  0.2498  0.6261  0.1662
  856MOL0     H12981   1.091   6.486   5.054 -1.6035  4.7145 -2.0543
  856MOL0     H12982   1.405   6.480   4.768  0.4032  2.1888 -0.3698
  856MOL0     H12983   1.500   6.380   4.879  0.2438  0.2383  0.1697
  856MOL0     H12984   1.527   6.625   4.903 -0.0727 -0.8082 -1.0783
  856MOL0     H12985   1.352   6.651   4.938  0.7962  1.7776  0.6802
  856MOL0     H12986   1.376   6.562   5.150  0.1308 -0.7707  2.1325
  856MOL0     H12987   1.512   6.657   5.156 -0.0419  0.2417  0.7218
  856MOL0     H12988   1.544   6.417   5.249  5.3879  0.1639  1.3950
  856MOL0     H12989   1.516   6.355   5.089 -2.9306 -0.4113  1.0029
  856MOL0     H12990   1.905   6.488   5.034  0.5980 -0.7854  1.4194
  856MOL0     H12991   1.246   6.295   4.705 -0.7630  1.2407 -2.7120
  856MOL0     H12992   1.029   6.329   4.586 -1.9145  0.1419  0.5161
  857MOL0     O12993   2.029   3.290   2.072  0.1096 -0.3958  0.1567
  857MOL0     C12994   1.987   3.178   2.092 -0.0851 -0.4470 -0.1431
  857MOL0     O12995   2.064   3.065   2.097 -0.3511  0.0185 -0.6362
  857MOL0     C12996   2.193   3.061   2.047 -0.5457 -0.0957  0.2864
  857MOL0     C12997   2.208   2.980   1.937  0.3296 -0.4141  0.0094
  857MOL0     C12998   2.331   2.959   1.872 -0.3790 -0.2586 -0.6438
  857MOL0     C12999   2.439   3.038   1.917 -0.1636  0.6752  0.6010
  857MOL0     O13000   2.551   3.027   1.841 -0.7220  0.0169 -0.1781
  857MOL0     C13001   2.662   3.122   1.867  0.5641  0.2964  0.1718
  857MOL0     C13002   2.774   3.108   1.762  0.1431 -0.3261 -0.3250
  857MOL0     C13003   2.894   3.198   1.792 -0.0529 -0.4528  0.7855
  857MOL0     C13004   3.014   3.199   1.700  0.0446 -0.2020 -0.2564
  857MOL0     C13005   3.086   3.058   1.673  0.3971  0.3708  0.6427
  857MOL0     C13006   3.150   3.000   1.802 -0.0582  0.2713  0.0321
  857MOL0     C13007   3.054   2.911   1.889  0.2150 -0.3886 -0.0331
  857MOL0     C13008   3.098   2.860   2.028  0.1391  0.2700 -0.7463
  857MOL0     N13009   2.982   2.840   2.111  0.0458 -0.3038  0.8437
  857MOL0     C13010   2.882   2.745   2.089 -0.1385 -0.5763  0.6673
  857MOL0     C13011   2.785   2.790   2.160  0.4315  0.7472  0.1707
  857MOL0     C13012   2.666   2.708   2.202  0.2200  0.4077  0.0457
  857MOL0     C13013   2.552   2.801   2.210 -0.0141 -0.2399 -0.4551
  857MOL0     C13014   2.437   2.710   2.235 -0.0514 -0.3683 -0.1717
  857MOL0     C13015   2.310   2.794   2.252  0.1995 -0.2573 -0.4291
  857MOL0     O13016   2.246   2.766   2.380  0.1685 -0.4438 -0.0662
  857MOL0     C13017   2.125   2.825   2.400 -0.1378  0.6981 -0.2045
  857MOL0     C13018   2.090   2.872   2.535  0.5110 -0.2625  0.1511
  857MOL0     C13019   1.957   2.914   2.580 -0.5925 -1.2366  0.5303
  857MOL0     C13020   1.862   2.915   2.480 -0.2716 -0.1293 -0.5515
  857MOL0     C13021   1.717   2.947   2.520  1.0369 -0.6406 -0.8408
  857MOL0     O13022   1.611   2.915   2.438  0.5226 -0.1362 -0.1806
  857MOL0     C13023   1.482   2.952   2.471  0.4624 -0.1939 -0.8174
  857MOL0     C13024   1.398   2.850   2.512 -0.5530  0.6177 -0.6825
  857MOL0     C13025   1.260   2.879   2.542 -0.6841  0.0514  0.1497
  857MOL0     C13026   1.202   3.009   2.526 -0.8602 -0.2750  0.1104
  857MOL0     O13027   1.073   3.016   2.551 -1.0760  0.7624 -0.3279
  857MOL0     C13028   1.018   3.142   2.561  0.0290 -1.1179  0.8899
  857MOL0     C13029   0.891   3.120   2.646  0.1705 -0.8063  0.6733
  857MOL0     C13030   0.817   2.996   2.591 -0.0361 -0.5446 -0.2875
  857MOL0     C13031   0.680   2.973   2.664  0.3129  0.3171 -0.3152
  857MOL0     C13032   0.590   2.869   2.587 -0.1920 -0.4527  0.7178
  857MOL0     C13033   0.448   2.898   2.638 -0.5902  0.3939  0.4623
  857MOL0     C13034   0.362   2.800   2.551 -0.2039  0.0052  0.0671
  857MOL0     C13035   0.215   2.814   2.591  0.1823 -0.3016 -0.4364
  857MOL0    Cl13036   0.126   2.713   2.472 -0.0634  0.2715 -0.4155
  857MOL0     C13037   1.297   3.109   2.486 -0.6999 -0.3839  0.0581
  857MOL0     C13038   1.435   3.082   2.451 -0.2443 -0.6861  0.0063
  857MOL0     O13039   1.708   3.003   2.625  0.1238  0.1201 -0.0733
  857MOL0     C13040   1.886   2.875   2.347 -0.5854 -0.0532 -0.2829
  857MOL0     C13041   2.018   2.826   2.311  0.6335 -0.4224 -0.7206
  857MOL0     N13042   2.815   2.908   2.227 -0.5196  0.2766 -0.3632
  857MOL0     N13043   2.937   2.938   2.197  0.1343  0.5221  0.0498
  857MOL0     C13044   2.422   3.125   2.028  0.7159 -0.6808 -0.3146
  857MOL0     C13045   2.298   3.135   2.094 -1.0141  0.0450  0.2678
  857MOL0     C13046   1.840   3.158   2.086 -0.0261 -0.4337  0.0262
  857MOL0     C13047   1.772   3.047   2.044 -0.3763 -0.0943  0.3689
  857MOL0     C13048   1.640   3.027   2.063 -0.6452  0.9042  0.2471
  857MOL0     C13049   1.558   3.135   2.085  0.1924 -0.3986  0.3434
  857MOL0     O13050   1.422   3.123   2.079  0.1174  0.4526 -0.8172
  857MOL0     C13051   1.333   3.235   2.078  0.3791 -0.4565 -0.5466
  857MOL0     C13052   1.333   3.337   1.961 -1.2736 -0.4715  0.1081
  857MOL0     C13053   1.205   3.430   1.951 -0.7859  1.1047 -0.6740
  857MOL0     C13054   1.229   3.553   2.032  0.4887  0.3009 -0.3081
  857MOL0     C13055   1.142   3.673   1.996 -0.6833  0.4123  0.0329
  857MOL0     C13056   1.097   3.781   1.973  0.3856 -0.4100 -0.1533
  857MOL0     C13057   1.615   3.258   2.117 -0.0011  0.5360 -0.1981
  857MOL0     C13058   1.751   3.266   2.125 -0.3644  0.3141 -0.4926
  857MOL0     H13059   2.113   2.936   1.907 -0.1102 -0.5394  1.4952
  857MOL0     H13060   2.339   2.903   1.779 -0.9832  0.0759 -0.9036
  857MOL0     H13061   2.697   3.104   1.969 -2.9614 -3.0262  1.0197
  857MOL0     H13062   2.630   3.227   1.857 -1.1260 -0.2652 -0.7256
  857MOL0     H13063   2.727   3.124   1.665 -1.7606  0.6472  0.6858
  857MOL0     H13064   2.801   3.002   1.760 -2.0212 -0.9271 -0.2133
  857MOL0     H13065   2.935   3.183   1.892 -0.8693  1.8119  1.5215
  857MOL0     H13066   2.861   3.302   1.790 -0.1543 -0.4567 -1.9233
  857MOL0     H13067   2.980   3.241   1.605 -2.0326 -0.3777  0.3594
  857MOL0     H13068   3.085   3.276   1.732  0.9787 -0.5961 -1.3425
  857MOL0     H13069   3.157   3.074   1.592 -1.8018  1.8116 -1.1429
  857MOL0     H13070   3.007   2.993   1.633 -0.1255  0.7822  0.9899
  857MOL0     H13071   3.194   3.082   1.860 -0.4173  0.8364 -0.4817
  857MOL0     H13072   3.228   2.929   1.773 -0.6841 -0.5395  0.2916
  857MOL0     H13073   2.960   2.967   1.896 -0.5299 -1.3941 -1.4007
  857MOL0     H13074   3.034   2.821   1.830 -0.0700  0.5315 -1.3884
  857MOL0     H13075   3.157   2.927   2.091 -1.4915 -0.6017  1.9035
  857MOL0     H13076   3.154   2.767   2.018  0.4948  0.0228  2.4022
  857MOL0     H13077   2.889   2.653   2.032  0.9147 -1.1985  1.7391
  857MOL0     H13078   2.693   2.654   2.293 -0.3031 -2.9621 -1.6502
  857MOL0     H13079   2.655   2.622   2.136 -0.8231  0.0538  0.6528
  857MOL0     H13080   2.531   2.846   2.112  0.8651  0.9759 -0.1127
  857MOL0     H13081   2.570   2.881   2.283  1.9322 -0.4698 -0.6456
  857MOL0     H13082   2.427   2.642   2.150 -2.8747 -2.3422  1.5389
  857MOL0     H13083   2.454   2.645   2.321 -1.3505  0.5177  0.8055
  857MOL0     H13084   2.254   2.753   2.168  1.4818 -0.5151 -1.1866
  857MOL0     H13085   2.320   2.903   2.253 -1.2409 -0.0982 -0.7980
  857MOL0     H13086   2.158   2.872   2.620 -0.8123  0.6135  1.2580
  857MOL0     H13087   1.951   2.966   2.674  0.5444 -2.2972  1.2235
  857MOL0     H13088   1.445   2.753   2.517 -2.2863 -0.3931 -2.5753
  857MOL0     H13089   1.199   2.798   2.581 -0.1652 -0.6966 -0.5610
  857MOL0     H13090   0.983   3.172   2.462 -0.1249 -1.5439  0.8137
  857MOL0     H13091   1.085   3.214   2.608  0.2507  0.2654 -1.3984
  857MOL0     H13092   0.830   3.211   2.644  2.6349  0.9528 -0.7396
  857MOL0     H13093   0.916   3.109   2.752 -1.6212 -1.3196  1.0635
  857MOL0     H13094   0.876   2.904   2.590 -1.2856 -1.3928  0.7812
  857MOL0     H13095   0.801   3.016   2.484 -0.3513 -0.3634 -0.2064
  857MOL0     H13096   0.708   2.928   2.759  0.0001 -1.3627 -0.9789
  857MOL0     H13097   0.637   3.071   2.684  2.1776  1.1495 -0.1342
  857MOL0     H13098   0.620   2.770   2.623 -0.4504  0.2074  2.8667
  857MOL0     H13099   0.588   2.877   2.478 -0.8979  1.9931  0.8678
  857MOL0     H13100   0.413   3.002   2.634 -1.6616  0.1740  2.5016
  857MOL0     H13101   0.452   2.865   2.742 -1.4737  1.4013  0.8360
  857MOL0     H13102   0.376   2.833   2.448  1.7804  1.2017  0.6598
  857MOL0     H13103   0.401   2.697   2.557  0.8420  0.4566  1.8235
  857MOL0     H13104   0.187   2.919   2.591 -0.7308 -0.5370  0.7206
  857MOL0     H13105   0.192   2.773   2.689 -2.5784  0.4977 -0.6660
  857MOL0     H13106   1.265   3.213   2.476 -0.0150 -0.3646 -2.9840
  857MOL0     H13107   1.503   3.158   2.413  0.3184  0.0806  2.3859
  857MOL0     H13108   1.806   2.884   2.274 -0.4701 -0.4795 -0.4638
  857MOL0     H13109   2.031   2.776   2.216 -1.9283 -2.2497 -0.2278
  857MOL0     H13110   2.500   3.193   2.057 -0.1906  0.6014 -0.7912
  857MOL0     H13111   2.284   3.210   2.172 -0.0023  2.8727 -2.1090
  857MOL0     H13112   1.831   2.969   1.996  1.8163  1.2944  0.6309
  857MOL0     H13113   1.591   2.936   2.029 -0.7664  1.9643 -2.7276
  857MOL0     H13114   1.342   3.298   2.167  2.2898 -0.6001 -0.5821
  857MOL0     H13115   1.231   3.198   2.066 -0.8824  2.8159 -0.8327
  857MOL0     H13116   1.422   3.400   1.962 -0.6430 -1.3496  0.6383
  857MOL0     H13117   1.339   3.269   1.875 -0.1831 -0.7190  0.3646
  857MOL0     H13118   1.113   3.376   1.976  0.4697 -0.9194 -0.1971
  857MOL0     H13119   1.188   3.454   1.845 -0.1756 -1.1138 -1.3201
  857MOL0     H13120   1.205   3.533   2.137  1.1135  0.1869 -0.1873
  857MOL0     H13121   1.333   3.586   2.034  0.6368  0.0262 -1.9409
  857MOL0     H13122   1.040   3.871   1.958 -2.7618 -2.1443  0.5106
  857MOL0     H13123   1.557   3.342   2.153  1.6921  0.9689  1.7342
  857MOL0     H13124   1.807   3.355   2.151  2.4752 -1.1271 -1.1500
  858MOL0     O13125  11.176   6.627   6.190  0.0007 -0.2517 -0.1005
  858MOL0     C13126  11.200   6.504   6.196 -0.6063 -0.0912 -0.1336
  858MOL0     O13127  11.107   6.401   6.185 -0.5931 -0.2454  0.0162
  858MOL0     C13128  10.973   6.440   6.202 -0.0368  0.3835 -0.0018
  858MOL0     C13129  10.893   6.497   6.095 -0.1408 -1.1346 -0.3062
  858MOL0     C13130  10.758   6.537   6.128  0.4514  0.6694 -0.6806
  858MOL0     C13131  10.707   6.517   6.259 -0.1334  0.7211  0.2961
  858MOL0     O13132  10.584   6.566   6.293  0.5366 -0.9580  0.1577
  858MOL0     C13133  10.461   6.535   6.231 -0.4783 -0.3624 -1.3258
  858MOL0     C13134  10.458   6.392   6.178  0.3904 -0.3050 -0.6201
  858MOL0     C13135  10.315   6.372   6.125  0.0873 -0.3706 -0.0705
  858MOL0     C13136  10.272   6.227   6.097 -1.3151 -0.3981  0.6842
  858MOL0     C13137  10.266   6.136   6.213  0.5810 -0.1472  0.0773
  858MOL0     C13138  10.167   6.165   6.326 -0.6396 -0.2474  0.1309
  858MOL0     C13139  10.021   6.188   6.282  1.0848 -0.3140  0.4438
  858MOL0     C13140   9.924   6.225   6.396  0.7522 -0.5001  1.1579
  858MOL0     N13141   9.786   6.231   6.342 -0.1618 -1.0800  0.1817
  858MOL0     C13142   9.736   6.270   6.220 -0.6507  0.4178 -1.0189
  858MOL0     C13143   9.603   6.289   6.242 -0.6662 -0.3270  0.9587
  858MOL0     C13144   9.502   6.349   6.147 -0.3352 -0.1848 -0.0527
  858MOL0     C13145   9.381   6.411   6.220 -0.0850  0.1937 -0.8895
  858MOL0     C13146   9.263   6.310   6.220  0.4911 -0.5656  0.2151
  858MOL0     C13147   9.147   6.366   6.308  0.4737 -0.2629 -0.3142
  858MOL0     O13148   9.102   6.493   6.254 -0.0814 -0.2505 -0.3283
  858MOL0     C13149   8.968   6.523   6.233 -0.4468 -0.1573 -0.3732
  858MOL0     C13150   8.856   6.447   6.262 -0.3958  0.2161 -0.3516
  858MOL0     C13151   8.734   6.488   6.214  0.2407 -0.6466  0.3084
  858MOL0     C13152   8.716   6.612   6.152  0.2974 -0.1458  0.0873
  858MOL0     C13153   8.575   6.666   6.113  0.1133  0.9141  0.0006
  858MOL0     O13154   8.567   6.798   6.063  0.1080 -0.0699  0.4654
  858MOL0     C13155   8.441   6.854   6.033  0.6656  0.3832 -0.3856
  858MOL0     C13156   8.330   6.780   5.985 -0.0304  0.4027  0.2328
  858MOL0     C13157   8.208   6.843   5.959 -0.0335  1.1031 -0.1034
  858MOL0     C13158   8.197   6.977   5.991 -0.3048  0.2924 -0.2338
  858MOL0     O13159   8.077   7.027   5.963 -0.2880 -0.2610  0.4205
  858MOL0     C13160   8.047   7.037   5.821  0.7034 -0.4422 -0.5196
  858MOL0     C13161   7.974   7.170   5.798 -0.3217  0.0028 -0.4137
  858MOL0     C13162   8.070   7.289   5.821 -0.4306  0.6050 -0.7751
  858MOL0     C13163   8.004   7.421   5.757 -0.1371  0.0143 -0.3630
  858MOL0     C13164   8.009   7.440   5.611 -0.3825  0.6273  0.7184
  858MOL0     C13165   7.973   7.584   5.560 -0.0609 -0.1167 -0.1912
  858MOL0     C13166   7.988   7.599   5.410  0.0341 -0.5694  0.5834
  858MOL0     C13167   8.119   7.673   5.368 -0.0544 -0.3195 -0.5244
  858MOL0    Cl13168   8.266   7.560   5.391 -0.0455  0.2408  0.0189
  858MOL0     C13169   8.311   7.047   6.047  0.0998 -0.3063  0.2090
  858MOL0     C13170   8.433   6.992   6.062  0.0459  0.6701 -0.5130
  858MOL0     O13171   8.483   6.595   6.140 -0.2811 -0.2968  0.5348
  858MOL0     C13172   8.826   6.695   6.140 -0.5345 -0.0781  0.0281
  858MOL0     C13173   8.949   6.644   6.173 -0.1538 -0.0999 -0.1415
  858MOL0     N13174   9.579   6.236   6.363  0.3571  0.0238  0.5125
  858MOL0     N13175   9.689   6.211   6.428  0.6045  0.0081  0.0278
  858MOL0     C13176  10.782   6.462   6.357 -0.7283 -0.1508  0.5064
  858MOL0     C13177  10.914   6.422   6.332 -0.3510 -0.3930  0.2093
  858MOL0     C13178  11.345   6.467   6.216  0.7886 -0.4586  0.1827
  858MOL0     C13179  11.436   6.556   6.277  0.0367 -0.5067  0.2170
  858MOL0     C13180  11.569   6.511   6.294  0.7077  0.3714  0.1542
  858MOL0     C13181  11.612   6.393   6.243  0.6533 -0.6836  0.8883
  858MOL0     O13182  11.740   6.359   6.263  0.6732  0.4994 -1.1182
  858MOL0     C13183  11.818   6.356   6.141 -0.3718 -0.1658 -0.1851
  858MOL0     C13184  11.946   6.438   6.159  0.0901 -0.1305 -0.0165
  858MOL0     C13185  12.014   6.434   6.296 -0.4577  0.0241  1.0228
  858MOL0     C13186  12.101   6.562   6.327  0.0456  0.1102  0.2402
  858MOL0     C13187  12.242   6.534   6.320 -0.9335 -0.5630 -0.1032
  858MOL0     C13188  12.359   6.502   6.301  0.4610  0.1235  0.3833
  858MOL0     C13189  11.525   6.311   6.177 -0.2252 -0.1184  0.5112
  858MOL0     C13190  11.389   6.348   6.165 -0.4495  0.1959  0.0227
  858MOL0     H13191  10.944   6.524   6.004  0.6772 -2.0128 -0.1267
  858MOL0     H13192  10.691   6.591   6.062 -1.0373 -0.7781 -0.4143
  858MOL0     H13193  10.432   6.606   6.154 -2.5625  0.5937  0.2378
  858MOL0     H13194  10.389   6.528   6.313 -1.0234 -0.9700 -1.8365
  858MOL0     H13195  10.485   6.319   6.254 -0.9575  1.2055  1.4163
  858MOL0     H13196  10.529   6.379   6.096  1.8190 -2.7871  0.8760
  858MOL0     H13197  10.308   6.434   6.035 -3.8837  2.7806  2.1249
  858MOL0     H13198  10.236   6.411   6.189  0.5001 -0.5351  0.5460
  858MOL0     H13199  10.178   6.222   6.043 -0.2887 -0.3932 -1.1775
  858MOL0     H13200  10.343   6.196   6.021 -1.7464  0.5852 -0.1448
  858MOL0     H13201  10.363   6.121   6.260 -1.2095 -2.4058  3.4952
  858MOL0     H13202  10.234   6.037   6.181 -2.4879  0.5583  0.6273
  858MOL0     H13203  10.206   6.258   6.367  3.0909 -1.6373  0.1203
  858MOL0     H13204  10.172   6.084   6.400  0.8343 -0.2561  0.0513
  858MOL0     H13205  10.027   6.272   6.212 -0.6299  1.0597  1.8552
  858MOL0     H13206   9.980   6.103   6.227  3.0482 -1.0635  0.0593
  858MOL0     H13207   9.948   6.317   6.449  0.8190 -0.3485  0.8671
  858MOL0     H13208   9.930   6.140   6.464 -0.2528 -1.0669  0.5742
  858MOL0     H13209   9.797   6.298   6.134 -0.0933  0.0602 -0.7496
  858MOL0     H13210   9.480   6.264   6.082  0.0831 -1.8534  1.9132
  858MOL0     H13211   9.548   6.435   6.097  0.7401  0.4088  1.8501
  858MOL0     H13212   9.346   6.495   6.159 -0.8544 -0.7458 -1.7664
  858MOL0     H13213   9.415   6.446   6.318 -0.8178  1.0362 -0.9270
  858MOL0     H13214   9.220   6.290   6.121 -1.5379  3.1774  0.1225
  858MOL0     H13215   9.288   6.212   6.261 -3.9555 -2.7637 -1.6560
  858MOL0     H13216   9.187   6.391   6.407 -0.0769  1.0150 -0.3970
  858MOL0     H13217   9.068   6.292   6.324 -0.3745  0.6039 -0.4126
  858MOL0     H13218   8.848   6.347   6.302  1.4451  0.8117  1.7034
  858MOL0     H13219   8.644   6.429   6.225 -1.0428  1.2924  0.7239
  858MOL0     H13220   8.338   6.677   5.952  0.5922  0.6148 -0.3062
  858MOL0     H13221   8.131   6.789   5.905  0.1390  1.5163 -0.7782
  858MOL0     H13222   7.995   6.949   5.781  1.8588 -1.0387 -0.7437
  858MOL0     H13223   8.136   7.046   5.758  1.7807  1.5979  1.1880
  858MOL0     H13224   7.893   7.181   5.870  0.5332 -0.9048  0.7220
  858MOL0     H13225   7.935   7.167   5.696 -2.3443  0.9637  0.2862
  858MOL0     H13226   8.165   7.262   5.775 -0.9710 -1.3320 -0.8526
  858MOL0     H13227   8.084   7.300   5.929 -0.2056  1.1997 -0.8591
  858MOL0     H13228   7.897   7.423   5.783 -0.0541  4.7732  0.5130
  858MOL0     H13229   8.058   7.503   5.805  3.3319 -2.1434 -0.2297
  858MOL0     H13230   7.953   7.364   5.556  1.4955  0.2211 -0.7590
  858MOL0     H13231   8.114   7.424   5.582 -0.2281  0.2217  1.4828
  858MOL0     H13232   8.049   7.649   5.604  0.6028 -2.8748  3.1298
  858MOL0     H13233   7.871   7.610   5.590  0.5298  1.9467  0.1664
  858MOL0     H13234   7.970   7.509   5.351  1.1963 -0.6946  0.3814
  858MOL0     H13235   7.905   7.661   5.375 -0.2305 -0.7630  0.8671
  858MOL0     H13236   8.127   7.763   5.430  0.4908 -1.8284  1.7130
  858MOL0     H13237   8.112   7.709   5.265  1.5063  1.8275  0.0333
  858MOL0     H13238   8.306   7.153   6.071  0.3027 -0.1725 -0.3347
  858MOL0     H13239   8.527   7.030   6.102  0.3435 -2.2067  1.9454
  858MOL0     H13240   8.825   6.795   6.099 -1.1680 -0.1913 -0.2493
  858MOL0     H13241   9.032   6.709   6.148  1.5076 -1.1275  2.3645
  858MOL0     H13242  10.740   6.472   6.457 -1.9866  0.9944 -0.0921
  858MOL0     H13243  10.969   6.386   6.418 -0.4218 -1.8065 -0.3096
  858MOL0     H13244  11.408   6.656   6.308  1.0712  0.3358 -1.4478
  858MOL0     H13245  11.634   6.588   6.335  1.6997  0.5296 -1.6187
  858MOL0     H13246  11.776   6.403   6.052  0.3927  0.9039  0.0000
  858MOL0     H13247  11.848   6.252   6.124  1.0278  0.3198 -0.8299
  858MOL0     H13248  12.015   6.409   6.080  1.2358  0.3854  0.7707
  858MOL0     H13249  11.925   6.543   6.136  2.3768  0.7150  1.4222
  858MOL0     H13250  12.073   6.342   6.304 -0.5388 -0.3380 -1.6922
  858MOL0     H13251  11.938   6.438   6.375 -0.1082 -0.7252  1.4121
  858MOL0     H13252  12.069   6.647   6.266 -0.7969  1.2295  2.1448
  858MOL0     H13253  12.086   6.572   6.435  0.1384 -0.8377  0.3470
  858MOL0     H13254  12.461   6.475   6.281 -0.3201 -0.8151 -3.2088
  858MOL0     H13255  11.569   6.221   6.135 -3.4294 -1.0527 -1.2523
  858MOL0     H13256  11.312   6.281   6.127 -0.1322 -0.3645  0.3611
  859MOL0     O13257   6.755   0.837   2.038 -0.5156  0.1386 -0.0118
  859MOL0     C13258   6.800   0.731   2.000  0.1578  0.4218  1.6254
  859MOL0     O13259   6.730   0.625   1.941  0.5476 -0.1075 -0.0419
  859MOL0     C13260   6.597   0.649   1.912  0.0203  0.3695 -0.1181
  859MOL0     C13261   6.553   0.647   1.778  0.0753 -0.1079 -0.3784
  859MOL0     C13262   6.423   0.677   1.748  0.1151  0.3130  0.0716
  859MOL0     C13263   6.329   0.695   1.853 -0.0990  0.4569  0.9349
  859MOL0     O13264   6.203   0.715   1.796  0.2612 -0.4349  0.4908
  859MOL0     C13265   6.100   0.736   1.894  0.0886 -0.5386  0.1455
  859MOL0     C13266   5.974   0.785   1.822 -0.0793 -0.3202  0.8249
  859MOL0     C13267   5.847   0.810   1.911 -0.8008 -0.2134 -0.1863
  859MOL0     C13268   5.727   0.878   1.835 -0.2710 -0.6486  0.0901
  859MOL0     C13269   5.616   0.940   1.911  0.6848  0.1437  0.1198
  859MOL0     C13270   5.655   1.047   2.008 -0.8707  0.0598  0.5183
  859MOL0     C13271   5.530   1.097   2.084 -0.4440 -0.6092 -0.1817
  859MOL0     C13272   5.449   1.199   2.009  0.4639 -0.0288 -0.1382
  859MOL0     N13273   5.325   1.230   2.082 -0.1006  0.2906  0.1684
  859MOL0     C13274   5.199   1.206   2.041  0.0889 -0.2711  0.3084
  859MOL0     C13275   5.123   1.277   2.132 -0.0547 -0.4762  0.3905
  859MOL0     C13276   4.981   1.291   2.122  0.1274 -0.4418  1.0275
  859MOL0     C13277   4.915   1.293   2.256 -0.2074 -0.5944 -0.3371
  859MOL0     C13278   4.771   1.249   2.244  0.7392  0.1415 -0.7036
  859MOL0     C13279   4.686   1.241   2.370  0.9025 -0.1310 -0.2686
  859MOL0     O13280   4.549   1.223   2.324 -0.3820  0.7675 -0.6199
  859MOL0     C13281   4.447   1.297   2.381 -0.1116 -1.1888 -0.4169
  859MOL0     C13282   4.385   1.257   2.497 -0.1500 -0.5655 -0.3270
  859MOL0     C13283   4.281   1.334   2.549 -0.3212 -0.0508  0.8267
  859MOL0     C13284   4.244   1.463   2.494  0.6494  0.6522 -0.9967
  859MOL0     C13285   4.130   1.544   2.552  0.5675  0.7609 -0.9312
  859MOL0     O13286   4.045   1.470   2.641  0.3623 -0.3228  0.9373
  859MOL0     C13287   3.931   1.534   2.675  0.6260 -0.0317  0.5498
  859MOL0     C13288   3.935   1.670   2.721 -0.1243  0.8609 -0.4456
  859MOL0     C13289   3.822   1.739   2.760 -0.5158  0.5444 -0.0571
  859MOL0     C13290   3.697   1.673   2.754  0.0630 -0.1039 -0.1475
  859MOL0     O13291   3.576   1.731   2.788  0.3855 -0.4048 -0.3791
  859MOL0     C13292   3.552   1.871   2.800  0.9626  0.1130  0.5521
  859MOL0     C13293   3.579   1.934   2.936 -0.6552 -0.5097 -0.2079
  859MOL0     C13294   3.494   2.054   2.961 -0.4968  0.5098  0.0783
  859MOL0     C13295   3.521   2.104   3.109  0.3949  0.0047 -0.2195
  859MOL0     C13296   3.425   2.216   3.144 -0.5376 -0.2056  0.6026
  859MOL0     C13297   3.468   2.270   3.282  0.2933  0.3524  0.0140
  859MOL0     C13298   3.393   2.405   3.323  0.0892  0.2948  0.7553
  859MOL0     C13299   3.413   2.437   3.469  0.5203  0.0658 -0.5728
  859MOL0    Cl13300   3.338   2.592   3.511  0.0005 -0.0620 -0.0453
  859MOL0     C13301   3.692   1.539   2.711 -0.8726 -1.0024 -0.2298
  859MOL0     C13302   3.809   1.471   2.673 -0.0701 -0.1768  0.1916
  859MOL0     O13303   4.110   1.657   2.512 -0.7093 -0.0321 -0.2084
  859MOL0     C13304   4.305   1.496   2.376 -0.5362 -0.3120 -0.5338
  859MOL0     C13305   4.397   1.415   2.317  0.1283  0.0734  0.5691
  859MOL0     N13306   5.207   1.339   2.220 -0.7069 -0.2221  0.9992
  859MOL0     N13307   5.325   1.300   2.203 -0.7019  0.4218 -0.2742
  859MOL0     C13308   6.369   0.699   1.985 -0.9959  0.0870 -0.0923
  859MOL0     C13309   6.508   0.681   2.017  0.0569 -0.6778 -0.3592
  859MOL0     C13310   6.943   0.725   1.985 -1.0930 -1.7794  0.0810
  859MOL0     C13311   7.031   0.796   2.076  0.2162 -0.4172 -0.4685
  859MOL0     C13312   7.163   0.798   2.050 -0.0045  0.3892 -0.7415
  859MOL0     C13313   7.221   0.728   1.946  0.0309  0.0017  0.3216
  859MOL0     O13314   7.347   0.714   1.906  0.0449  0.1812  0.1282
  859MOL0     C13315   7.456   0.763   1.984 -0.2428  0.3214 -0.2726
  859MOL0     C13316   7.580   0.700   1.930  0.0567 -0.1326 -0.2823
  859MOL0     C13317   7.689   0.776   2.005  0.6193  0.0441 -0.0964
  859MOL0     C13318   7.826   0.722   1.980 -0.1829  0.2853  0.2516
  859MOL0     C13319   7.937   0.777   2.060  0.0670 -0.1111 -0.8837
  859MOL0     C13320   8.030   0.830   2.117  0.3949 -0.1739  0.4735
  859MOL0     C13321   7.137   0.653   1.860 -0.1470 -0.3162  0.2024
  859MOL0     C13322   7.004   0.653   1.877  0.0563  0.2238 -0.3509
  859MOL0     H13323   6.621   0.626   1.697  0.5262 -0.6913  0.1462
  859MOL0     H13324   6.388   0.674   1.645  0.0312  3.7825 -0.1025
  859MOL0     H13325   6.122   0.805   1.976  1.7775  0.4715 -1.1065
  859MOL0     H13326   6.080   0.639   1.942 -0.7540 -0.0190  0.8777
  859MOL0     H13327   5.949   0.712   1.744 -1.6073  2.2467 -1.2677
  859MOL0     H13328   6.000   0.879   1.772 -0.5207 -0.0585  1.0865
  859MOL0     H13329   5.875   0.875   1.994 -0.5558 -0.5333 -0.0169
  859MOL0     H13330   5.804   0.713   1.938  0.7919 -0.9470 -0.1559
  859MOL0     H13331   5.775   0.961   1.782 -1.4945 -0.2657 -0.4744
  859MOL0     H13332   5.694   0.810   1.756  1.4845 -1.1030 -0.2987
  859MOL0     H13333   5.563   0.858   1.962 -1.9751  0.9483 -1.1514
  859MOL0     H13334   5.540   0.982   1.844 -0.2531  0.8639  1.5937
  859MOL0     H13335   5.700   1.130   1.953 -0.8949  1.4466  2.4716
  859MOL0     H13336   5.730   1.003   2.074  0.7077 -1.0809 -1.9050
  859MOL0     H13337   5.464   1.018   2.120 -4.5128  2.4596 -0.2477
  859MOL0     H13338   5.563   1.145   2.176  0.8600 -0.2784 -0.7899
  859MOL0     H13339   5.424   1.149   1.915  1.6244  0.1569 -0.5623
  859MOL0     H13340   5.515   1.283   1.988 -0.4983  0.2837 -2.1737
  859MOL0     H13341   5.169   1.132   1.967  0.7958  0.8139 -1.1053
  859MOL0     H13342   4.946   1.199   2.073 -1.0679  0.9973 -0.9741
  859MOL0     H13343   4.946   1.370   2.056  0.2521 -1.5077 -0.3629
  859MOL0     H13344   4.924   1.391   2.304 -1.8639  0.5200 -2.1516
  859MOL0     H13345   4.964   1.217   2.318 -0.9253 -0.0330  0.9649
  859MOL0     H13346   4.728   1.311   2.165 -3.6282 -3.7765 -1.7933
  859MOL0     H13347   4.778   1.144   2.215  0.5474 -0.2575  0.6107
  859MOL0     H13348   4.700   1.326   2.436 -0.8876  0.4732 -0.6016
  859MOL0     H13349   4.719   1.153   2.426 -2.7796 -0.0482  2.3836
  859MOL0     H13350   4.409   1.156   2.528 -1.6474 -1.4520 -1.8503
  859MOL0     H13351   4.214   1.289   2.622 -2.7073  1.3087 -0.4373
  859MOL0     H13352   4.027   1.728   2.725  0.7247 -0.5198  1.3633
  859MOL0     H13353   3.832   1.841   2.795 -0.2134  0.5498 -0.1618
  859MOL0     H13354   3.450   1.900   2.773  1.6885  2.3794  0.0294
  859MOL0     H13355   3.612   1.914   2.718 -2.1267 -1.7139 -2.9907
  859MOL0     H13356   3.685   1.964   2.937 -0.7202 -0.2556  1.1438
  859MOL0     H13357   3.560   1.853   3.006  0.9401 -1.0487 -0.3517
  859MOL0     H13358   3.392   2.029   2.930  0.1487 -0.1912 -1.6265
  859MOL0     H13359   3.537   2.135   2.901  2.9067 -0.1996  1.3047
  859MOL0     H13360   3.500   2.015   3.169 -2.1992  1.0255  0.5167
  859MOL0     H13361   3.626   2.130   3.126  0.3486  0.7790 -1.0466
  859MOL0     H13362   3.324   2.174   3.138 -0.7710  0.4854 -0.4254
  859MOL0     H13363   3.432   2.284   3.059 -0.4222 -2.0463 -0.9374
  859MOL0     H13364   3.575   2.290   3.280  0.2868  0.3702 -0.1717
  859MOL0     H13365   3.459   2.194   3.359  1.5135  1.7355  1.5911
  859MOL0     H13366   3.448   2.484   3.271 -0.3417 -0.5560 -1.0652
  859MOL0     H13367   3.289   2.407   3.292  0.2316  1.4644  0.3054
  859MOL0     H13368   3.519   2.448   3.494  1.0199  0.8461 -2.8335
  859MOL0     H13369   3.367   2.358   3.530  0.2216  0.7613  0.1227
  859MOL0     H13370   3.593   1.495   2.700 -1.2187 -0.1643 -0.5034
  859MOL0     H13371   3.801   1.374   2.625 -3.6467  1.1494 -2.2830
  859MOL0     H13372   4.266   1.578   2.318 -0.2011  2.9638  3.4080
  859MOL0     H13373   4.449   1.443   2.226 -0.0587  2.7913  1.2375
  859MOL0     H13374   6.303   0.726   2.067 -2.8751 -2.3796 -0.7033
  859MOL0     H13375   6.547   0.689   2.118 -0.3882  1.9883 -0.3266
  859MOL0     H13376   7.000   0.855   2.162 -0.0447 -0.1563 -0.7402
  859MOL0     H13377   7.224   0.834   2.133 -1.9730 -0.1563  1.0175
  859MOL0     H13378   7.440   0.737   2.089  0.7273 -0.9741 -0.4271
  859MOL0     H13379   7.451   0.872   1.973  1.8533  0.4566 -0.2370
  859MOL0     H13380   7.572   0.596   1.963 -0.2445  0.4711  1.6404
  859MOL0     H13381   7.591   0.708   1.821 -0.8376  1.2598 -0.2889
  859MOL0     H13382   7.670   0.769   2.112  3.1743  0.6886  0.4768
  859MOL0     H13383   7.687   0.882   1.979  0.4512 -0.2853 -1.5101
  859MOL0     H13384   7.815   0.615   2.002 -0.8775  0.3411  0.1995
  859MOL0     H13385   7.856   0.723   1.875  4.7123  1.1171  1.4404
  859MOL0     H13386   8.115   0.874   2.166  1.2362 -1.2718  0.0689
  859MOL0     H13387   7.180   0.596   1.777 -0.0782  1.9014 -1.3567
  859MOL0     H13388   6.952   0.597   1.801  1.6660 -3.0181  0.7643
  860MOL0     O13389   2.806   5.891   7.255 -0.3074 -0.1306 -0.6416
  860MOL0     C13390   2.859   5.887   7.367  0.6072 -0.3224  0.1077
  860MOL0     O13391   2.794   5.871   7.489 -0.6162 -0.0540  0.7116
  860MOL0     C13392   2.657   5.872   7.514 -0.9254 -0.2124 -0.2223
  860MOL0     C13393   2.560   5.864   7.419  0.7643  0.6710  0.9371
  860MOL0     C13394   2.420   5.842   7.449 -0.1754 -0.4321  0.4595
  860MOL0     C13395   2.384   5.848   7.581 -0.7964  0.7494 -0.8855
  860MOL0     O13396   2.246   5.849   7.620 -0.2960  0.6526  0.1227
  860MOL0     C13397   2.194   5.943   7.712  1.0395  0.0773  0.3236
  860MOL0     C13398   2.098   5.876   7.812 -0.3125  0.4020  0.1858
  860MOL0     C13399   1.987   5.793   7.738  0.1403  0.6489 -0.0620
  860MOL0     C13400   1.867   5.733   7.826 -0.3468  0.2086  0.2763
  860MOL0     C13401   1.740   5.718   7.743 -0.2164 -0.1324  0.0324
  860MOL0     C13402   1.629   5.671   7.839  0.0169 -0.3194 -0.0617
  860MOL0     C13403   1.552   5.556   7.781  0.5466  1.0936  0.3266
  860MOL0     C13404   1.440   5.519   7.876  0.5593 -0.1956 -0.1899
  860MOL0     N13405   1.374   5.393   7.828  0.6283 -0.2521 -0.5128
  860MOL0     C13406   1.350   5.362   7.696  0.0659 -0.9180  0.5443
  860MOL0     C13407   1.293   5.237   7.708  0.4502 -0.1363  0.3022
  860MOL0     C13408   1.263   5.147   7.597  1.0525  0.0568  0.2063
  860MOL0     C13409   1.108   5.131   7.596 -0.0933 -0.1683  0.2053
  860MOL0     C13410   1.077   5.026   7.500  0.3013 -0.4090 -0.0899
  860MOL0     C13411   0.933   4.976   7.520 -0.3968 -0.7879 -0.4280
  860MOL0     O13412   0.834   5.087   7.484 -0.3661 -0.2011 -0.0751
  860MOL0     C13413   0.705   5.047   7.451 -0.2430  0.2875 -0.1788
  860MOL0     C13414   0.629   4.969   7.535 -0.5930  0.7780 -0.0711
  860MOL0     C13415   0.499   4.933   7.508  0.4209 -0.5943 -0.5073
  860MOL0     C13416   0.441   4.978   7.386 -0.6994  0.5102  0.0723
  860MOL0     C13417   0.295   4.949   7.367 -0.1317  0.9570 -0.6520
  860MOL0     O13418   0.229   5.006   7.261  0.1129 -0.1706  0.0352
  860MOL0     C13419   0.109   4.966   7.217  0.1393  0.2554 -0.2846
  860MOL0     C13420  -0.013   4.978   7.290 -0.9986  0.4724  0.3210
  860MOL0     C13421  -0.131   4.931   7.229  0.8784 -0.0785 -0.4296
  860MOL0     C13422  -0.135   4.894   7.095  0.5108  0.0913  0.6034
  860MOL0     O13423  -0.254   4.865   7.032  0.3549  0.4296  0.1860
  860MOL0     C13424  -0.353   4.965   7.038 -0.2532  0.0014 -0.3259
  860MOL0     C13425  -0.455   4.953   6.927 -0.1287 -0.3217 -0.4201
  860MOL0     C13426  -0.567   5.055   6.949  0.8100  0.2339  0.1384
  860MOL0     C13427  -0.650   5.069   6.822  0.1997 -0.2130 -0.0027
  860MOL0     C13428  -0.578   5.151   6.708 -0.0703  0.0103  0.3199
  860MOL0     C13429  -0.661   5.141   6.573  0.0222  0.6954 -0.1325
  860MOL0     C13430  -0.662   4.998   6.515  0.0292 -0.6241 -0.1195
  860MOL0     C13431  -0.741   4.995   6.378  0.1276 -0.1705 -0.7568
  860MOL0    Cl13432  -0.909   5.024   6.420 -0.3965  0.2512 -0.4112
  860MOL0     C13433  -0.015   4.884   7.021 -0.2987  0.6849 -0.3116
  860MOL0     C13434   0.105   4.911   7.088  0.5269 -0.8502  0.3120
  860MOL0     O13435   0.248   4.860   7.440  0.4999 -0.2538  1.0457
  860MOL0     C13436   0.515   5.062   7.299  0.0791  0.2259 -0.5946
  860MOL0     C13437   0.649   5.083   7.328 -0.7096  0.4839  0.1049
  860MOL0     N13438   1.268   5.204   7.839 -0.7032 -0.0014 -0.0118
  860MOL0     N13439   1.324   5.298   7.912  1.2482  1.0127  0.7928
  860MOL0     C13440   2.482   5.870   7.682  0.5468  0.4553  0.3310
  860MOL0     C13441   2.621   5.874   7.648  0.4562  0.6073 -0.8147
  860MOL0     C13442   3.004   5.918   7.378 -0.8572 -0.0263  0.4354
  860MOL0     C13443   3.070   5.977   7.269 -0.3217  1.0842 -0.4635
  860MOL0     C13444   3.214   5.992   7.266 -0.5250  0.2361 -0.0374
  860MOL0     C13445   3.286   5.953   7.380  0.0585 -0.2429 -0.0867
  860MOL0     O13446   3.422   5.976   7.405  0.4541 -0.0516  0.7279
  860MOL0     C13447   3.505   6.032   7.296 -0.4526  0.0871  0.3016
  860MOL0     C13448   3.493   6.188   7.276  0.5604 -0.2262  1.5984
  860MOL0     C13449   3.518   6.273   7.399 -0.3170  0.6556  0.0865
  860MOL0     C13450   3.481   6.416   7.360  0.0298 -1.3206  0.5031
  860MOL0     C13451   3.525   6.495   7.480 -0.0017 -0.0826  0.9189
  860MOL0     C13452   3.580   6.552   7.568  0.0253 -0.2523 -0.0420
  860MOL0     C13453   3.219   5.904   7.492  0.1541 -0.4488 -0.5374
  860MOL0     C13454   3.079   5.893   7.499 -0.0640  0.5732 -0.3975
  860MOL0     H13455   2.584   5.876   7.314  2.3812  2.1995  1.4410
  860MOL0     H13456   2.343   5.834   7.373  1.0671  0.4568 -0.9406
  860MOL0     H13457   2.149   6.014   7.642  0.3067 -0.5776  0.1220
  860MOL0     H13458   2.273   5.994   7.768 -0.1517  2.2507  0.1644
  860MOL0     H13459   2.051   5.956   7.870 -1.0620 -0.0861  0.2559
  860MOL0     H13460   2.163   5.813   7.874  2.7436  0.9086 -2.2500
  860MOL0     H13461   2.022   5.707   7.681 -2.4412 -1.7563  1.7031
  860MOL0     H13462   1.950   5.867   7.665  1.3753  0.8977 -0.4526
  860MOL0     H13463   1.893   5.630   7.852 -0.4923 -0.2941 -1.4377
  860MOL0     H13464   1.846   5.800   7.910  0.9242  1.4522 -0.3603
  860MOL0     H13465   1.760   5.646   7.663 -0.9053  1.0247 -1.2146
  860MOL0     H13466   1.721   5.816   7.699  1.7780  0.3294  0.1081
  860MOL0     H13467   1.560   5.748   7.873  2.2571  0.9674  1.9282
  860MOL0     H13468   1.680   5.634   7.928 -3.5520 -1.6977  1.5869
  860MOL0     H13469   1.509   5.577   7.682 -4.0522 -0.0413  1.8290
  860MOL0     H13470   1.617   5.468   7.781  1.1021  1.4856  1.4152
  860MOL0     H13471   1.363   5.597   7.879  0.3458 -0.4178  0.0620
  860MOL0     H13472   1.473   5.511   7.979 -2.7641  3.1168  1.3772
  860MOL0     H13473   1.365   5.430   7.613  0.2389  1.0980  2.1458
  860MOL0     H13474   1.321   5.055   7.599 -2.4122 -2.3883  3.7294
  860MOL0     H13475   1.296   5.202   7.508  2.2025 -1.3488 -0.2626
  860MOL0     H13476   1.047   5.220   7.578  0.1540 -0.0356  0.0186
  860MOL0     H13477   1.078   5.095   7.694  0.6675  1.2426  0.9863
  860MOL0     H13478   1.087   5.067   7.399  1.9294  0.0963  0.2465
  860MOL0     H13479   1.141   4.939   7.515  1.1945  0.6637  3.1180
  860MOL0     H13480   0.927   4.927   7.618  0.5438 -1.5875 -0.7470
  860MOL0     H13481   0.906   4.896   7.451  0.9156 -1.7097  0.0772
  860MOL0     H13482   0.658   4.947   7.637  1.0941  2.6240 -0.1010
  860MOL0     H13483   0.436   4.877   7.577  0.2316 -1.4608 -1.3600
  860MOL0     H13484  -0.011   5.032   7.384 -1.3168  0.4559  0.3402
  860MOL0     H13485  -0.215   4.941   7.297  1.2885 -1.5909  0.3433
  860MOL0     H13486  -0.306   5.062   7.025 -3.3974  1.7995  0.5472
  860MOL0     H13487  -0.393   4.964   7.140  0.5237  0.2225 -0.0122
  860MOL0     H13488  -0.495   4.852   6.926  0.4986 -0.5741 -0.3925
  860MOL0     H13489  -0.398   4.972   6.835 -0.4452  0.3711 -0.4761
  860MOL0     H13490  -0.528   5.154   6.973 -0.9676  0.9724  0.1095
  860MOL0     H13491  -0.629   5.022   7.033 -1.0064  2.0304 -0.4167
  860MOL0     H13492  -0.668   4.971   6.775  0.7738  0.7866 -2.5078
  860MOL0     H13493  -0.742   5.125   6.842  0.4784  0.1028  0.4074
  860MOL0     H13494  -0.477   5.113   6.693 -0.6315 -1.0632 -0.9932
  860MOL0     H13495  -0.574   5.255   6.740 -0.4197 -0.2487  1.2360
  860MOL0     H13496  -0.629   5.209   6.494 -0.9788 -2.1837 -3.2824
  860MOL0     H13497  -0.760   5.179   6.601  0.2269 -0.0800  1.8620
  860MOL0     H13498  -0.558   4.964   6.512  0.5427  0.9287 -1.8916
  860MOL0     H13499  -0.723   4.932   6.577 -0.2331 -0.0925  0.1946
  860MOL0     H13500  -0.728   4.904   6.318 -0.5421  0.2392 -1.5395
  860MOL0     H13501  -0.708   5.076   6.313 -1.8337  0.6722 -0.7709
  860MOL0     H13502  -0.021   4.843   6.921  2.1679  0.6150 -0.4766
  860MOL0     H13503   0.189   4.909   7.018 -2.3568 -1.2258 -3.4669
  860MOL0     H13504   0.479   5.107   7.206 -0.2679  4.8429  1.4869
  860MOL0     H13505   0.703   5.145   7.257 -0.4793  0.3696  0.1809
  860MOL0     H13506   2.445   5.877   7.784  3.3608  0.0862  1.4788
  860MOL0     H13507   2.704   5.881   7.718  1.3781 -1.2825 -1.6513
  860MOL0     H13508   3.021   6.011   7.178 -2.6386  1.0200  0.6996
  860MOL0     H13509   3.258   6.036   7.176  0.7842 -0.4645  0.2393
  860MOL0     H13510   3.481   5.985   7.200 -3.0401  2.5348 -0.4127
  860MOL0     H13511   3.612   6.014   7.305  0.4264  2.2915 -3.3910
  860MOL0     H13512   3.560   6.218   7.195 -0.9294 -1.2786 -0.0928
  860MOL0     H13513   3.392   6.204   7.236  0.0093 -2.7217  1.7988
  860MOL0     H13514   3.623   6.271   7.431  0.1138  1.2280 -1.2397
  860MOL0     H13515   3.448   6.232   7.473 -0.5362 -1.6813 -1.2988
  860MOL0     H13516   3.536   6.445   7.270 -0.5251  0.2842  0.6361
  860MOL0     H13517   3.373   6.417   7.347 -0.1751 -3.3823  1.6202
  860MOL0     H13518   3.636   6.601   7.645 -1.1815  1.0450  0.0433
  860MOL0     H13519   3.285   5.879   7.574 -1.0162  1.1950  0.9576
  860MOL0     H13520   3.018   5.864   7.584  0.9344 -1.0884 -0.2233
  861MOL0     O13521   9.273   3.810   0.711  0.2491  0.0063  0.2129
  861MOL0     C13522   9.194   3.799   0.618 -0.5569 -0.0025  0.2450
  861MOL0     O13523   9.224   3.796   0.483  0.1291 -0.0377  0.1060
  861MOL0     C13524   9.350   3.758   0.435  0.4127 -0.4805  0.0719
  861MOL0     C13525   9.451   3.689   0.495  0.2394  0.7988  0.5788
  861MOL0     C13526   9.582   3.658   0.436  0.8358  0.3838  0.0808
  861MOL0     C13527   9.602   3.690   0.301 -0.3315  0.3631  0.3292
  861MOL0     O13528   9.708   3.640   0.233 -0.0637 -0.9796 -1.0360
  861MOL0     C13529   9.706   3.633   0.091 -0.2838  0.7387  1.0944
  861MOL0     C13530   9.819   3.536   0.056  0.3833 -0.3798  0.4340
  861MOL0     C13531   9.821   3.499  -0.087  0.6167  0.0012  0.6295
  861MOL0     C13532   9.941   3.403  -0.115 -0.3101 -0.7105  0.6613
  861MOL0     C13533   9.933   3.331  -0.249  0.4361 -0.0229 -0.6944
  861MOL0     C13534   9.960   3.416  -0.368 -0.1311 -0.0061 -0.3450
  861MOL0     C13535   9.926   3.331  -0.487 -0.6055  0.7606 -0.1532
  861MOL0     C13536   9.954   3.416  -0.614  0.0676  0.0021  0.1898
  861MOL0     N13537   9.934   3.331  -0.731 -0.3428  0.8243 -0.3221
  861MOL0     C13538   9.812   3.278  -0.775 -0.4419  0.4015 -0.6036
  861MOL0     C13539   9.835   3.223  -0.894  0.2231  0.0189  0.0320
  861MOL0     C13540   9.741   3.156  -0.987  0.7818 -0.1189  0.4096
  861MOL0     C13541   9.612   3.249  -1.018  0.3805  0.8953  0.0329
  861MOL0     C13542   9.524   3.153  -1.101  0.2039 -0.1531 -0.6004
  861MOL0     C13543   9.383   3.203  -1.101  0.4357 -0.5419  0.4740
  861MOL0     O13544   9.370   3.327  -1.171  0.4412 -0.5011 -0.0723
  861MOL0     C13545   9.240   3.384  -1.185 -0.1840 -0.2330 -0.4809
  861MOL0     C13546   9.227   3.523  -1.190  0.4495  0.3829 -0.2339
  861MOL0     C13547   9.103   3.572  -1.176 -0.2106 -0.7234 -0.0008
  861MOL0     C13548   8.986   3.493  -1.172 -1.5756  0.5252  0.6017
  861MOL0     C13549   8.857   3.560  -1.137  0.4318  0.7146 -0.3785
  861MOL0     O13550   8.768   3.485  -1.072 -0.0056 -0.7909  0.0354
  861MOL0     C13551   8.648   3.541  -1.036  0.3320  0.6165 -0.4295
  861MOL0     C13552   8.530   3.528  -1.107  1.3649 -0.3650  0.0001
  861MOL0     C13553   8.407   3.558  -1.045  0.1165 -0.1656 -0.6338
  861MOL0     C13554   8.402   3.604  -0.907 -0.5478 -1.0993  0.6645
  861MOL0     O13555   8.287   3.613  -0.836 -0.5735  0.2854  0.1535
  861MOL0     C13556   8.173   3.577  -0.907 -0.3331  0.1894 -1.0712
  861MOL0     C13557   8.049   3.587  -0.808  0.4674 -0.2809  0.6613
  861MOL0     C13558   7.917   3.551  -0.871 -0.2901  0.3215 -0.1808
  861MOL0     C13559   7.806   3.584  -0.771  0.0564  0.6861 -0.8181
  861MOL0     C13560   7.668   3.559  -0.843 -0.3150  0.1153  0.3337
  861MOL0     C13561   7.559   3.520  -0.761  0.2284  0.8133 -0.0018
  861MOL0     C13562   7.439   3.514  -0.859  0.0177  0.1908  0.4961
  861MOL0     C13563   7.311   3.469  -0.788 -0.3990  0.2915 -0.0261
  861MOL0    Cl13564   7.278   3.577  -0.654  0.4067  0.1554 -0.2139
  861MOL0     C13565   8.525   3.631  -0.842  0.6896 -0.1004  0.2929
  861MOL0     C13566   8.640   3.596  -0.908  0.4575  0.5752 -0.7077
  861MOL0     O13567   8.838   3.669  -1.178  0.2104 -0.3455  0.2898
  861MOL0     C13568   9.001   3.356  -1.177  0.1972  0.1182  0.0196
  861MOL0     C13569   9.123   3.305  -1.182  0.5779  0.5945  0.1854
  861MOL0     N13570   9.969   3.228  -0.915 -0.1423 -0.1197 -0.0312
  861MOL0     N13571  10.028   3.304  -0.825 -0.0677  0.0967 -0.0323
  861MOL0     C13572   9.510   3.770   0.244  0.0480  0.3865  0.5067
  861MOL0     C13573   9.390   3.804   0.305 -0.1033  0.2243  0.0262
  861MOL0     C13574   9.052   3.805   0.657  0.4990 -0.2678 -0.0835
  861MOL0     C13575   8.951   3.759   0.567 -0.1839 -0.8101  0.7485
  861MOL0     C13576   8.822   3.765   0.608  0.2994  0.0732 -0.5113
  861MOL0     C13577   8.778   3.814   0.732  0.2482  1.1716  1.3050
  861MOL0     O13578   8.638   3.813   0.748  0.1449 -0.3844 -0.0869
  861MOL0     C13579   8.590   3.933   0.817  0.1596  0.3485  0.4874
  861MOL0     C13580   8.440   3.934   0.829 -0.1996  0.1518 -0.0891
  861MOL0     C13581   8.350   3.963   0.710  0.0720 -0.1185 -0.0398
  861MOL0     C13582   8.197   3.972   0.741 -0.5715 -0.2086 -0.0477
  861MOL0     C13583   8.118   3.994   0.622 -0.4738  0.4035 -0.1447
  861MOL0     C13584   8.048   4.010   0.518  0.1876  0.4091 -0.9160
  861MOL0     C13585   8.875   3.864   0.818 -0.4147 -0.0765  0.3411
  861MOL0     C13586   9.006   3.850   0.783  0.6645  0.2576 -0.3694
  861MOL0     H13587   9.436   3.656   0.597  0.5974  0.9799  0.6906
  861MOL0     H13588   9.657   3.608   0.497 -0.4660  0.8200  2.1731
  861MOL0     H13589   9.717   3.732   0.045 -0.1298  1.8694  3.4562
  861MOL0     H13590   9.612   3.589   0.056  1.0893 -1.0347 -0.6218
  861MOL0     H13591   9.815   3.443   0.113 -0.4663  0.2692  1.4642
  861MOL0     H13592   9.917   3.582   0.075  2.1889 -2.8413 -2.0720
  861MOL0     H13593   9.839   3.585  -0.153 -1.4110  0.1184  0.1765
  861MOL0     H13594   9.733   3.439  -0.108  1.8750 -1.6314 -0.1909
  861MOL0     H13595  10.024   3.473  -0.129 -3.3998  3.3691  0.8770
  861MOL0     H13596   9.965   3.334  -0.034 -1.1087 -1.0241  0.6390
  861MOL0     H13597   9.834   3.285  -0.255  0.3119  0.2183 -0.5258
  861MOL0     H13598  10.014   3.258  -0.251  0.8327  0.4255 -1.5844
  861MOL0     H13599  10.065   3.444  -0.378  0.2553 -1.3542 -0.3660
  861MOL0     H13600   9.889   3.499  -0.372 -2.3930 -1.8331 -0.7612
  861MOL0     H13601   9.992   3.244  -0.478 -0.0051  1.1261 -0.8669
  861MOL0     H13602   9.821   3.301  -0.477 -0.0269 -0.8400  1.7030
  861MOL0     H13603  10.058   3.448  -0.627 -0.0550 -0.3359 -2.1317
  861MOL0     H13604   9.884   3.499  -0.628 -1.3300 -0.8605  1.6823
  861MOL0     H13605   9.716   3.280  -0.724 -1.6107  0.5265 -2.6899
  861MOL0     H13606   9.718   3.053  -0.958  2.3336 -1.6158 -3.0895
  861MOL0     H13607   9.786   3.146  -1.086 -3.9246 -0.2492 -2.0069
  861MOL0     H13608   9.647   3.334  -1.077  2.4597 -0.7714 -1.3108
  861MOL0     H13609   9.556   3.276  -0.928 -2.3290 -2.5705 -0.4083
  861MOL0     H13610   9.569   3.155  -1.201 -1.3297  2.3865 -1.3247
  861MOL0     H13611   9.522   3.053  -1.056 -0.3278  0.3529  0.5557
  861MOL0     H13612   9.343   3.217  -1.000  1.8499 -0.2339  1.0146
  861MOL0     H13613   9.324   3.122  -1.146  0.0834 -0.8855  1.5354
  861MOL0     H13614   9.321   3.576  -1.193  0.1526  1.1456  2.0071
  861MOL0     H13615   9.089   3.679  -1.177  0.9169 -0.5709 -0.8147
  861MOL0     H13616   8.535   3.488  -1.208  0.1298 -1.8413  0.4798
  861MOL0     H13617   8.314   3.529  -1.093 -0.9798  2.9481 -0.5740
  861MOL0     H13618   8.173   3.473  -0.941 -2.7400 -0.0095 -0.6052
  861MOL0     H13619   8.138   3.637  -0.991 -1.9572  0.0529 -0.5209
  861MOL0     H13620   8.060   3.686  -0.763  2.5269  0.2859 -0.9420
  861MOL0     H13621   8.062   3.522  -0.721  1.2159  0.1714  0.8917
  861MOL0     H13622   7.921   3.447  -0.907 -0.7111  0.3160 -0.2168
  861MOL0     H13623   7.906   3.619  -0.956  1.0181  1.2969  0.4128
  861MOL0     H13624   7.807   3.515  -0.685  2.4204  0.0641 -1.2494
  861MOL0     H13625   7.826   3.682  -0.727  0.4256  0.0731  0.4505
  861MOL0     H13626   7.679   3.478  -0.916  2.4441 -0.9761  1.7780
  861MOL0     H13627   7.649   3.651  -0.899 -1.2180 -1.0577 -1.4147
  861MOL0     H13628   7.540   3.586  -0.675 -3.2530  0.3906 -0.2922
  861MOL0     H13629   7.582   3.418  -0.731 -1.1562 -0.6854 -3.4659
  861MOL0     H13630   7.432   3.620  -0.885 -1.0631  0.2466  0.9741
  861MOL0     H13631   7.455   3.442  -0.940 -0.2863  0.2366  0.3953
  861MOL0     H13632   7.324   3.366  -0.754  0.8153  0.6241  0.5739
  861MOL0     H13633   7.226   3.469  -0.857  0.8702 -2.8119 -1.8066
  861MOL0     H13634   8.514   3.664  -0.739 -3.4577  0.6082 -0.1891
  861MOL0     H13635   8.733   3.603  -0.853  0.5775 -0.9424 -0.6831
  861MOL0     H13636   8.918   3.287  -1.168  2.2320 -2.3268  1.0746
  861MOL0     H13637   9.119   3.197  -1.173 -0.1527  0.7393  1.9065
  861MOL0     H13638   9.548   3.795   0.145  1.2299 -1.8738  0.3270
  861MOL0     H13639   9.319   3.862   0.247 -0.0756 -1.0033 -1.2555
  861MOL0     H13640   8.983   3.712   0.475  0.9591  0.5030  0.4464
  861MOL0     H13641   8.751   3.713   0.545 -0.9562  1.2731 -0.1422
  861MOL0     H13642   8.620   4.015   0.752 -1.1217 -2.3534 -3.9223
  861MOL0     H13643   8.617   3.937   0.923 -3.5723  2.1186  1.5303
  861MOL0     H13644   8.404   3.842   0.875 -2.7386  1.7323  1.3228
  861MOL0     H13645   8.431   4.021   0.895  1.4603 -0.0981  0.5211
  861MOL0     H13646   8.359   3.892   0.628  0.0779  0.8537 -0.9015
  861MOL0     H13647   8.382   4.063   0.680  0.7833  0.1097  1.3693
  861MOL0     H13648   8.165   3.877   0.785  0.5196 -1.6493 -2.1217
  861MOL0     H13649   8.180   4.055   0.809  1.4789  2.0899 -2.1512
  861MOL0     H13650   7.978   4.024   0.438 -0.3274  3.0375 -0.0748
  861MOL0     H13651   8.845   3.910   0.912 -2.1675 -0.6156  0.0823
  861MOL0     H13652   9.075   3.889   0.857 -0.6837  0.3100  0.8993
  862MOL0     O13653   1.418   3.976   8.079  0.3677  0.3770 -0.7521
  862MOL0     C13654   1.372   3.866   8.117  0.2078 -0.3647  0.4570
  862MOL0     O13655   1.447   3.750   8.122 -0.3594  0.2579 -0.5101
  862MOL0     C13656   1.581   3.763   8.113 -0.1939 -0.2113 -0.3227
  862MOL0     C13657   1.633   3.737   7.983 -1.2078 -0.4368  0.8754
  862MOL0     C13658   1.775   3.728   7.963  0.4236 -1.0964  0.5729
  862MOL0     C13659   1.858   3.776   8.065  0.4454 -0.0411 -0.4468
  862MOL0     O13660   1.994   3.787   8.055 -0.6165  0.4640  0.5289
  862MOL0     C13661   2.059   3.685   7.966  0.2476 -0.2307 -0.0951
  862MOL0     C13662   2.177   3.623   8.047  0.0612 -0.5779  0.5392
  862MOL0     C13663   2.265   3.735   8.090 -0.1117  0.5355  0.2857
  862MOL0     C13664   2.409   3.682   8.129  0.5181 -0.1306  1.1503
  862MOL0     C13665   2.510   3.792   8.169 -0.4163  0.4291 -0.6649
  862MOL0     C13666   2.654   3.743   8.176 -0.9886  0.4524 -0.4660
  862MOL0     C13667   2.702   3.630   8.279 -0.0825  0.0282  0.2798
  862MOL0     C13668   2.653   3.648   8.417 -0.1804 -0.3565 -0.0307
  862MOL0     N13669   2.678   3.535   8.501  0.0523  0.6639 -0.3303
  862MOL0     C13670   2.608   3.419   8.519 -0.2317  0.7992  0.4130
  862MOL0     C13671   2.648   3.341   8.612 -0.5898 -0.2952  0.1181
  862MOL0     C13672   2.588   3.211   8.663  0.6710  0.0459  0.6478
  862MOL0     C13673   2.546   3.121   8.540 -0.8559 -0.0860  0.3202
  862MOL0     C13674   2.472   3.002   8.590 -0.6932 -0.1914 -0.0390
  862MOL0     C13675   2.414   2.918   8.483  0.2017  0.2719 -0.6295
  862MOL0     O13676   2.314   2.977   8.393 -0.3196  0.5571 -0.4738
  862MOL0     C13677   2.176   2.961   8.407 -0.2548  0.0102 -0.5484
  862MOL0     C13678   2.098   2.989   8.295  0.2301 -0.2599 -0.1196
  862MOL0     C13679   1.957   2.954   8.296  0.2541  0.3899  0.0091
  862MOL0     C13680   1.896   2.904   8.419 -0.5004 -0.1526  0.3319
  862MOL0     C13681   1.751   2.861   8.423 -0.1918  0.2032  0.0653
  862MOL0     O13682   1.706   2.799   8.538 -0.5787 -0.9225 -0.0864
  862MOL0     C13683   1.577   2.771   8.536  1.3014  0.2716  0.4402
  862MOL0     C13684   1.494   2.840   8.619 -0.2160  0.0760  0.2637
  862MOL0     C13685   1.357   2.826   8.625 -0.0126 -0.4873  0.4119
  862MOL0     C13686   1.297   2.723   8.554  0.5264 -0.4466 -0.3477
  862MOL0     O13687   1.159   2.698   8.560 -0.0112  0.6321 -0.5255
  862MOL0     C13688   1.092   2.746   8.676  0.2030 -0.3447  0.3569
  862MOL0     C13689   0.965   2.662   8.692 -0.3188 -0.2435 -0.5342
  862MOL0     C13690   0.862   2.718   8.792 -0.0384 -0.6074  0.2129
  862MOL0     C13691   0.769   2.604   8.842 -0.1404 -0.3869  0.3147
  862MOL0     C13692   0.653   2.657   8.924  0.2623  0.5856 -0.0572
  862MOL0     C13693   0.679   2.661   9.083 -0.0432  0.5707  0.2607
  862MOL0     C13694   0.559   2.740   9.135 -0.8989  0.4476  0.0739
  862MOL0     C13695   0.554   2.719   9.278 -0.3348 -0.1611 -0.2704
  862MOL0    Cl13696   0.478   2.560   9.335 -0.3140 -0.0366 -0.3226
  862MOL0     C13697   1.381   2.643   8.477  1.0340  1.2476  0.3363
  862MOL0     C13698   1.516   2.661   8.465 -0.0687 -0.2705  0.3990
  862MOL0     O13699   1.678   2.899   8.326 -0.1222  0.3055  0.3324
  862MOL0     C13700   1.977   2.888   8.532 -0.4653 -0.7132  0.9993
  862MOL0     C13701   2.117   2.917   8.521 -0.7504  0.7927  0.3526
  862MOL0     N13702   2.756   3.409   8.668  0.5937  0.5729 -0.5875
  862MOL0     N13703   2.773   3.522   8.600 -0.6194  0.3154  1.2623
  862MOL0     C13704   1.800   3.810   8.187 -0.1885 -0.0082 -0.4157
  862MOL0     C13705   1.666   3.801   8.218 -0.6574  0.3437 -0.1114
  862MOL0     C13706   1.231   3.860   8.151 -0.7158 -0.4352  1.2145
  862MOL0     C13707   1.162   3.737   8.129 -1.6993 -0.0014 -0.3006
  862MOL0     C13708   1.029   3.721   8.153  0.8710 -0.3389 -0.2552
  862MOL0     C13709   0.956   3.840   8.203  0.7499  0.3933  0.5568
  862MOL0     O13710   0.817   3.842   8.244 -0.4190 -0.5265  0.6429
  862MOL0     C13711   0.728   3.732   8.231  0.0479 -0.1264  0.4992
  862MOL0     C13712   0.615   3.750   8.336 -0.3799  0.0475 -0.2053
  862MOL0     C13713   0.533   3.885   8.325 -0.0425  0.4859  0.7097
  862MOL0     C13714   0.376   3.871   8.333  0.4048  1.6547  0.1391
  862MOL0     C13715   0.322   3.816   8.203 -0.3073  0.0002 -0.2464
  862MOL0     C13716   0.265   3.752   8.116  0.2883  0.2708 -0.1803
  862MOL0     C13717   1.027   3.949   8.235  0.2894 -0.4048  0.6946
  862MOL0     C13718   1.159   3.970   8.198 -0.4740  0.6304  0.7228
  862MOL0     H13719   1.562   3.722   7.902  0.5264 -1.2605 -0.5459
  862MOL0     H13720   1.813   3.713   7.862 -2.0284  0.4162 -0.6751
  862MOL0     H13721   2.100   3.732   7.877 -1.3648 -0.1923 -0.8475
  862MOL0     H13722   1.989   3.615   7.921 -2.5941  1.6506  1.0546
  862MOL0     H13723   2.230   3.553   7.982 -0.9546 -1.1599  0.3214
  862MOL0     H13724   2.137   3.560   8.127 -0.9254 -1.9539 -0.9760
  862MOL0     H13725   2.226   3.784   8.180  0.5942  0.1969  0.7873
  862MOL0     H13726   2.274   3.807   8.009  0.8148  1.1648  0.9293
  862MOL0     H13727   2.394   3.619   8.217  1.5241 -2.5509 -0.3173
  862MOL0     H13728   2.444   3.623   8.043 -3.1301 -4.1140  2.0324
  862MOL0     H13729   2.482   3.810   8.273  0.2746 -2.4637  0.1274
  862MOL0     H13730   2.512   3.887   8.115  1.8069  1.0920  0.4202
  862MOL0     H13731   2.710   3.832   8.207 -1.9458  1.1415 -0.6875
  862MOL0     H13732   2.684   3.710   8.076  2.5254  1.3474  0.1458
  862MOL0     H13733   2.668   3.538   8.230 -1.8836  0.0329  1.4290
  862MOL0     H13734   2.810   3.616   8.287  0.1208  0.1196 -1.8402
  862MOL0     H13735   2.547   3.672   8.429 -0.4862 -1.8169  0.4215
  862MOL0     H13736   2.699   3.739   8.457 -0.5877  0.2515 -0.8986
  862MOL0     H13737   2.522   3.385   8.463 -0.4821 -0.1008  1.3395
  862MOL0     H13738   2.520   3.224   8.747  1.8790 -2.3475  2.1203
  862MOL0     H13739   2.673   3.162   8.712  0.6142 -1.3664 -0.5735
  862MOL0     H13740   2.626   3.073   8.483 -1.0857  0.3489 -0.3972
  862MOL0     H13741   2.479   3.175   8.471 -0.3767  2.0036  1.4009
  862MOL0     H13742   2.556   2.955   8.641  1.3456  0.4927 -2.5334
  862MOL0     H13743   2.394   3.030   8.661  0.8585 -0.5202  1.8532
  862MOL0     H13744   2.375   2.826   8.526  0.4844  0.4519  0.0263
  862MOL0     H13745   2.501   2.889   8.422  0.8042 -1.9961  1.1736
  862MOL0     H13746   2.151   3.025   8.207  1.6127  1.9094  1.4702
  862MOL0     H13747   1.899   2.947   8.205 -1.2266 -0.1823  0.9621
  862MOL0     H13748   1.536   2.923   8.675  0.0165 -0.7373  1.3412
  862MOL0     H13749   1.301   2.892   8.690  0.8220  0.8354 -0.1579
  862MOL0     H13750   1.076   2.854   8.681 -0.5468 -0.4378  0.1174
  862MOL0     H13751   1.152   2.717   8.763  0.6482 -3.2285 -0.8033
  862MOL0     H13752   0.998   2.559   8.708 -0.1336  0.1992  2.3315
  862MOL0     H13753   0.921   2.663   8.592  0.7276  3.5489 -1.0919
  862MOL0     H13754   0.806   2.801   8.747 -0.3108  0.0092  1.6180
  862MOL0     H13755   0.913   2.758   8.880 -1.1636  0.1716  0.5392
  862MOL0     H13756   0.732   2.544   8.758 -1.0432 -0.9481  1.0937
  862MOL0     H13757   0.828   2.536   8.903  0.8043 -0.1014 -0.2530
  862MOL0     H13758   0.570   2.585   8.922  0.3005  0.5276 -1.8196
  862MOL0     H13759   0.606   2.748   8.886  2.6223  1.0513 -2.1260
  862MOL0     H13760   0.768   2.719   9.108 -0.6317  1.6781 -0.1008
  862MOL0     H13761   0.702   2.563   9.124  1.3102  1.3051  1.3425
  862MOL0     H13762   0.554   2.844   9.102 -1.4517  0.6906  0.9207
  862MOL0     H13763   0.471   2.689   9.096 -2.2354  1.0304  2.1974
  862MOL0     H13764   0.498   2.801   9.325  1.7892 -1.2420  4.8026
  862MOL0     H13765   0.657   2.728   9.314  0.4447  0.1605 -2.4541
  862MOL0     H13766   1.327   2.573   8.414 -2.7823  0.4076  4.0869
  862MOL0     H13767   1.584   2.595   8.412  1.4455  0.1076  1.8189
  862MOL0     H13768   1.934   2.860   8.628 -1.5686 -1.2896  0.3558
  862MOL0     H13769   2.180   2.906   8.609  0.9463 -1.3465 -1.0463
  862MOL0     H13770   1.875   3.833   8.261  0.3459 -0.5343 -0.7838
  862MOL0     H13771   1.631   3.826   8.317 -1.1794  0.8971 -0.4282
  862MOL0     H13772   1.212   3.648   8.094  0.1277  1.0470 -0.4681
  862MOL0     H13773   0.990   3.621   8.139  1.9105 -0.4939 -2.4143
  862MOL0     H13774   0.782   3.636   8.238  1.0894  0.4696  0.9546
  862MOL0     H13775   0.694   3.741   8.128 -2.2782  0.3987  1.2612
  862MOL0     H13776   0.552   3.661   8.335 -1.1259  0.5693 -1.1695
  862MOL0     H13777   0.670   3.752   8.430  0.7800 -1.9802 -0.7695
  862MOL0     H13778   0.557   3.939   8.233  0.0762  2.2837  1.7280
  862MOL0     H13779   0.574   3.952   8.403  1.7132  0.1243  0.1484
  862MOL0     H13780   0.343   3.795   8.404 -0.8268  1.2665 -0.8220
  862MOL0     H13781   0.315   3.959   8.352 -4.5525 -1.4826  0.4172
  862MOL0     H13782   0.198   3.715   8.040 -1.3444  2.7698 -0.0776
  862MOL0     H13783   0.972   4.028   8.285  2.8459  1.7075  0.3998
  862MOL0     H13784   1.217   4.062   8.196  3.5698 -1.6824 -2.0042
  863MOL0     O13785   4.038   5.888   7.159  0.1264  0.0093 -0.8023
  863MOL0     C13786   4.100   5.794   7.115  0.4896 -0.2200 -0.1326
  863MOL0     O13787   4.042   5.683   7.050 -0.1453 -0.1709 -0.2859
  863MOL0     C13788   3.910   5.657   7.058 -0.4403  0.6706 -0.7181
  863MOL0     C13789   3.856   5.576   6.950 -0.0632 -0.2294  0.0544
  863MOL0     C13790   3.722   5.548   6.945  0.2222  0.9779 -0.1782
  863MOL0     C13791   3.636   5.588   7.047  0.2714 -0.1623 -1.0243
  863MOL0     O13792   3.493   5.553   7.041  0.7026 -0.3740  0.0294
  863MOL0     C13793   3.403   5.578   7.147  0.3549 -0.0284 -0.4308
  863MOL0     C13794   3.416   5.484   7.260  0.4402  0.3407 -0.3515
  863MOL0     C13795   3.318   5.520   7.368 -1.2515 -0.4546  0.8164
  863MOL0     C13796   3.296   5.409   7.451 -1.1538  0.4553 -0.3038
  863MOL0     C13797   3.213   5.437   7.578 -0.6736  0.4978  0.7509
  863MOL0     C13798   3.231   5.320   7.678  0.4697  0.3792 -0.3045
  863MOL0     C13799   3.134   5.315   7.799  0.1680 -0.1155  0.6735
  863MOL0     C13800   3.153   5.433   7.895 -0.7810  0.3546  0.8397
  863MOL0     N13801   3.096   5.408   8.028 -0.0594  0.2267 -0.3110
  863MOL0     C13802   2.975   5.345   8.056 -0.0444 -0.0897  0.7894
  863MOL0     C13803   2.978   5.333   8.189  0.4043 -0.0981 -0.0126
  863MOL0     C13804   2.876   5.267   8.275  0.0606 -0.0650 -0.0929
  863MOL0     C13805   2.882   5.118   8.246 -0.4183  0.4763 -0.3619
  863MOL0     C13806   2.817   5.036   8.363  0.3677  0.6470  0.3207
  863MOL0     C13807   2.682   5.093   8.414  0.0674 -0.9121 -0.8640
  863MOL0     O13808   2.580   5.081   8.308  0.0313  0.1153 -0.5435
  863MOL0     C13809   2.451   5.065   8.347  0.4877  0.2732 -0.0013
  863MOL0     C13810   2.360   5.107   8.254 -0.0594  0.1806  0.2036
  863MOL0     C13811   2.229   5.083   8.279 -0.2722  0.4849 -0.1514
  863MOL0     C13812   2.183   5.026   8.400  0.3380 -0.8002 -0.9794
  863MOL0     C13813   2.039   4.996   8.425  0.6824  0.2063 -0.2597
  863MOL0     O13814   2.006   4.906   8.520  0.4976  0.0532  0.4216
  863MOL0     C13815   1.869   4.887   8.546  0.2987  0.0939 -0.6275
  863MOL0     C13816   1.788   4.986   8.581 -1.0219 -0.0017 -0.0702
  863MOL0     C13817   1.657   4.968   8.629 -0.3388 -0.3969  0.0172
  863MOL0     C13818   1.602   4.835   8.642 -0.4663  0.2880  0.5487
  863MOL0     O13819   1.474   4.816   8.674 -0.1745 -0.2758  0.2012
  863MOL0     C13820   1.449   4.689   8.752 -0.2192  0.0431 -0.0765
  863MOL0     C13821   1.332   4.731   8.838 -0.1394  0.4066  0.3671
  863MOL0     C13822   1.198   4.727   8.763  0.0632  0.0580  0.6948
  863MOL0     C13823   1.081   4.786   8.839 -0.2282  0.3755 -0.6888
  863MOL0     C13824   0.962   4.777   8.748 -0.5806  0.1825 -0.2742
  863MOL0     C13825   0.817   4.795   8.816 -0.9467 -0.2951 -0.4176
  863MOL0     C13826   0.795   4.935   8.887  1.5557  0.6508 -0.0980
  863MOL0     C13827   0.647   4.968   8.931  0.5210  0.4774  0.0386
  863MOL0    Cl13828   0.548   5.039   8.786  0.6209 -0.3481 -0.1169
  863MOL0     C13829   1.690   4.729   8.592  0.8544 -0.5202 -1.3066
  863MOL0     C13830   1.822   4.752   8.544 -0.3956  0.0881 -0.3889
  863MOL0     O13831   1.960   5.056   8.355  0.1456  0.4012 -0.2180
  863MOL0     C13832   2.271   5.006   8.505 -0.6701  0.6957  0.7420
  863MOL0     C13833   2.402   5.022   8.477 -0.7610 -0.0587  0.1291
  863MOL0     N13834   3.091   5.395   8.236  0.0949 -0.2605  0.3517
  863MOL0     N13835   3.171   5.429   8.138  0.0600  0.1415 -0.4970
  863MOL0     C13836   3.677   5.663   7.152  0.9940 -0.8077  0.0747
  863MOL0     C13837   3.813   5.693   7.166 -0.6823 -0.7236  0.7056
  863MOL0     C13838   4.242   5.798   7.131  0.1638 -1.0613  0.1429
  863MOL0     C13839   4.310   5.911   7.175  1.1571 -0.8319  0.0823
  863MOL0     C13840   4.449   5.910   7.184  0.0923  0.1988 -0.4129
  863MOL0     C13841   4.524   5.797   7.177 -0.5522 -0.0031  0.6625
  863MOL0     O13842   4.652   5.799   7.217  0.0246  0.0175  1.0916
  863MOL0     C13843   4.733   5.681   7.230 -0.4714 -0.8076  0.6981
  863MOL0     C13844   4.696   5.601   7.358 -0.0672 -0.0034  0.1305
  863MOL0     C13845   4.774   5.471   7.380  1.1787 -0.5308  0.0863
  863MOL0     C13846   4.708   5.341   7.330 -0.8649 -1.0537  0.0599
  863MOL0     C13847   4.799   5.232   7.337 -1.2518  0.4283  1.0837
  863MOL0     C13848   4.877   5.135   7.335  0.3019 -0.0453 -0.5334
  863MOL0     C13849   4.462   5.684   7.133  0.7274 -0.4632  0.1467
  863MOL0     C13850   4.327   5.682   7.101 -0.0743 -0.4013  0.0518
  863MOL0     H13851   3.922   5.537   6.873 -1.0171 -1.6024 -0.0998
  863MOL0     H13852   3.684   5.499   6.856  1.9373  0.7454 -0.8228
  863MOL0     H13853   3.304   5.593   7.103  1.5356 -0.8756 -3.7079
  863MOL0     H13854   3.425   5.675   7.192 -0.4328  0.5771 -1.3266
  863MOL0     H13855   3.514   5.485   7.307 -0.0216  0.5516  0.6224
  863MOL0     H13856   3.407   5.382   7.220  4.8887 -0.7530  0.9431
  863MOL0     H13857   3.223   5.554   7.326  0.8076 -0.1841 -4.3533
  863MOL0     H13858   3.367   5.594   7.431  1.0369 -1.6297  0.5320
  863MOL0     H13859   3.251   5.329   7.391 -0.2476 -1.0935  0.9821
  863MOL0     H13860   3.396   5.377   7.481 -1.4258 -1.9419 -1.6785
  863MOL0     H13861   3.109   5.443   7.545 -0.2478  1.1301 -0.5227
  863MOL0     H13862   3.238   5.537   7.615 -0.9445  0.3620  1.3102
  863MOL0     H13863   3.335   5.318   7.711  1.6349 -1.4101 -3.5280
  863MOL0     H13864   3.225   5.235   7.609 -0.5828  0.0750  0.1399
  863MOL0     H13865   3.029   5.298   7.770  0.4791 -2.2406  0.5881
  863MOL0     H13866   3.164   5.228   7.858 -0.6353  0.0429  1.3364
  863MOL0     H13867   3.110   5.518   7.842 -0.2786  0.4088  0.5160
  863MOL0     H13868   3.257   5.463   7.910 -1.0058  0.7180  1.7188
  863MOL0     H13869   2.894   5.312   7.992  1.5438  0.6731 -1.7790
  863MOL0     H13870   2.778   5.309   8.251 -0.1791  1.1224  2.6008
  863MOL0     H13871   2.900   5.277   8.382  1.8532  1.4499 -0.5708
  863MOL0     H13872   2.983   5.081   8.228  0.1042  1.0730  1.1391
  863MOL0     H13873   2.824   5.096   8.156 -2.1812  1.1026  0.5691
  863MOL0     H13874   2.801   4.932   8.333  0.7363  0.2984  1.2835
  863MOL0     H13875   2.885   5.037   8.449  1.8118  0.2342 -0.7806
  863MOL0     H13876   2.687   5.196   8.450  1.0720 -1.1764 -0.2055
  863MOL0     H13877   2.659   5.039   8.506  1.7985  0.5926  0.5220
  863MOL0     H13878   2.393   5.156   8.163  4.8103 -2.9783 -0.1223
  863MOL0     H13879   2.160   5.115   8.201  0.7679  1.2831 -0.7847
  863MOL0     H13880   1.827   5.088   8.583  2.9669 -1.3868  1.4572
  863MOL0     H13881   1.597   5.051   8.665  1.8122  1.9369 -1.3694
  863MOL0     H13882   1.527   4.686   8.829  1.5787  1.0039 -1.7727
  863MOL0     H13883   1.442   4.598   8.692  0.5507  0.1580 -0.3554
  863MOL0     H13884   1.336   4.830   8.883 -3.2512 -0.5989  3.3598
  863MOL0     H13885   1.318   4.660   8.920 -2.0143  1.4115  0.9801
  863MOL0     H13886   1.175   4.623   8.738  1.2572 -0.9949  3.5023
  863MOL0     H13887   1.201   4.782   8.669 -3.1112 -0.1977  0.3308
  863MOL0     H13888   1.055   4.742   8.935  2.6133  1.8573  0.8954
  863MOL0     H13889   1.093   4.892   8.863  1.6481 -0.1905  1.2103
  863MOL0     H13890   0.956   4.682   8.695  0.4546  1.0174 -1.9966
  863MOL0     H13891   0.957   4.844   8.661 -0.6117 -0.4977 -0.8018
  863MOL0     H13892   0.801   4.712   8.885  1.7791 -2.0308 -1.6973
  863MOL0     H13893   0.740   4.784   8.739 -3.5463  1.2931  1.7962
  863MOL0     H13894   0.854   4.944   8.979 -2.4409 -0.4631  2.8685
  863MOL0     H13895   0.827   5.020   8.827  2.0707  0.9818  0.6282
  863MOL0     H13896   0.658   5.038   9.015 -3.9112  0.7223  0.6485
  863MOL0     H13897   0.601   4.877   8.970  0.3416  0.6010  0.1182
  863MOL0     H13898   1.643   4.631   8.592 -2.0984  0.7785 -1.4108
  863MOL0     H13899   1.891   4.672   8.517  2.8643  1.1624  3.5990
  863MOL0     H13900   2.238   4.964   8.600 -2.5959 -1.4523 -0.7756
  863MOL0     H13901   2.477   4.999   8.552 -0.4395 -1.0944 -0.4973
  863MOL0     H13902   3.612   5.704   7.228  1.4577 -0.2851  0.2019
  863MOL0     H13903   3.847   5.749   7.252 -2.2236  0.9156  0.3372
  863MOL0     H13904   4.258   6.005   7.191  1.2942 -0.4494 -1.5552
  863MOL0     H13905   4.492   6.008   7.201 -2.0484  1.6882 -2.8721
  863MOL0     H13906   4.838   5.712   7.235 -0.1463 -1.0825 -2.6435
  863MOL0     H13907   4.723   5.609   7.149 -1.2757 -1.4280  1.3311
  863MOL0     H13908   4.712   5.658   7.450 -0.6812 -0.6950  0.6701
  863MOL0     H13909   4.589   5.578   7.357 -0.2970  0.8033  1.8248
  863MOL0     H13910   4.785   5.446   7.486 -0.0994 -2.1422 -0.1380
  863MOL0     H13911   4.872   5.481   7.332 -0.2498 -1.0797 -3.2333
  863MOL0     H13912   4.619   5.333   7.392 -1.1910  0.4170 -0.1964
  863MOL0     H13913   4.674   5.362   7.229 -4.2562  3.5459  1.8328
  863MOL0     H13914   4.963   5.072   7.335  2.0806  2.0005  3.3580
  863MOL0     H13915   4.517   5.591   7.136  2.5771  0.5885 -0.2139
  863MOL0     H13916   4.283   5.589   7.067  2.4637 -1.7012  0.1054
  864MOL0     O13917   9.895   4.277   9.843  0.2723  1.4712 -0.7086
  864MOL0     C13918   9.874   4.239   9.961 -0.1749 -0.1817  0.3355
  864MOL0     O13919   9.753   4.224  10.015 -0.0321 -0.2627 -0.1394
  864MOL0     C13920   9.638   4.230   9.935  0.1101 -0.8789  0.8987
  864MOL0     C13921   9.584   4.351   9.908 -1.0389 -0.2923  0.3774
  864MOL0     C13922   9.465   4.361   9.835 -0.0844 -0.3291 -0.6113
  864MOL0     C13923   9.403   4.244   9.783 -0.5924  0.4570  0.5220
  864MOL0     O13924   9.290   4.243   9.694 -0.4384  1.1579 -1.1158
  864MOL0     C13925   9.212   4.364   9.682  0.4527  0.0106  0.9572
  864MOL0     C13926   9.072   4.316   9.621 -0.1689 -0.0052  0.0337
  864MOL0     C13927   8.993   4.444   9.644  0.0463  0.5366 -0.4726
  864MOL0     C13928   8.863   4.426   9.566  0.0337  0.0710 -0.5336
  864MOL0     C13929   8.777   4.551   9.600 -0.0437 -0.5995  0.0613
  864MOL0     C13930   8.647   4.544   9.511 -0.0197 -0.2699 -0.0378
  864MOL0     C13931   8.553   4.664   9.541 -0.1542 -0.3808  0.1029
  864MOL0     C13932   8.426   4.657   9.454 -1.2282 -0.0709 -0.1839
  864MOL0     N13933   8.304   4.707   9.513  0.4241  0.1112  1.0989
  864MOL0     C13934   8.181   4.695   9.447 -0.3511 -0.1701 -0.0406
  864MOL0     C13935   8.092   4.704   9.551 -0.4234  1.1361  0.4224
  864MOL0     C13936   7.948   4.693   9.537  0.1601  0.3683 -0.0969
  864MOL0     C13937   7.863   4.750   9.660 -0.0793 -0.8439  0.1975
  864MOL0     C13938   7.715   4.800   9.622 -0.1988 -0.1839 -0.0509
  864MOL0     C13939   7.710   4.922   9.529  0.2275 -0.6053  0.1042
  864MOL0     O13940   7.582   4.986   9.532  0.2953  0.4939 -0.9213
  864MOL0     C13941   7.477   4.933   9.467  0.4431 -0.8171 -0.4422
  864MOL0     C13942   7.491   4.860   9.351 -0.3635  0.4593  0.5970
  864MOL0     C13943   7.384   4.823   9.275  0.1105 -0.1503 -0.0520
  864MOL0     C13944   7.255   4.871   9.307 -1.2268 -0.2041  0.1234
  864MOL0     C13945   7.141   4.859   9.207  1.1776  0.3184 -0.4913
  864MOL0     O13946   7.029   4.933   9.224 -0.8517  0.0113  0.6060
  864MOL0     C13947   6.922   4.901   9.142 -0.3270 -0.3847  0.5969
  864MOL0     C13948   6.877   4.768   9.143  0.0904 -0.5808 -1.3999
  864MOL0     C13949   6.771   4.735   9.054  0.4348  0.5079  0.5947
  864MOL0     C13950   6.711   4.833   8.968 -0.7310 -0.2548 -0.2304
  864MOL0     O13951   6.613   4.808   8.882 -0.0953 -0.0522 -0.0119
  864MOL0     C13952   6.611   4.681   8.822  0.0403  0.2861 -0.5080
  864MOL0     C13953   6.539   4.668   8.684  0.7002 -0.0666 -0.2721
  864MOL0     C13954   6.397   4.733   8.680 -0.4844 -0.0672  0.3690
  864MOL0     C13955   6.377   4.775   8.532 -0.2335  0.1514  0.2191
  864MOL0     C13956   6.233   4.832   8.508 -0.8647 -1.0968  0.2367
  864MOL0     C13957   6.193   4.804   8.367  0.2236 -0.4128  0.0826
  864MOL0     C13958   6.049   4.850   8.351 -0.2191  0.0531  0.0942
  864MOL0     C13959   5.967   4.788   8.241  0.5963  0.1758  0.1598
  864MOL0    Cl13960   5.813   4.859   8.223  0.3486  0.0859 -0.3892
  864MOL0     C13961   6.756   4.962   8.973 -0.9373  0.8780 -0.2942
  864MOL0     C13962   6.859   4.998   9.061  0.5988  0.6922 -1.2039
  864MOL0     O13963   7.160   4.781   9.108 -0.3527  0.0681  0.0332
  864MOL0     C13964   7.242   4.948   9.424 -0.5031  0.5342 -0.7815
  864MOL0     C13965   7.351   4.971   9.510  0.1062 -0.6414  0.3091
  864MOL0     N13966   8.155   4.714   9.674 -0.0036  0.0386 -0.5200
  864MOL0     N13967   8.287   4.723   9.651  0.2167 -1.0349 -0.9579
  864MOL0     C13968   9.469   4.122   9.812 -0.2544  0.1484  0.5449
  864MOL0     C13969   9.588   4.108   9.887  0.5474 -0.5974 -0.0338
  864MOL0     C13970   9.989   4.214  10.048 -0.2231 -0.3931 -0.0662
  864MOL0     C13971  10.122   4.253  10.010  0.0238  0.3657  0.4153
  864MOL0     C13972  10.226   4.240  10.097  0.0749  0.2167  0.2823
  864MOL0     C13973  10.208   4.186  10.224 -1.1932  0.8650 -0.3547
  864MOL0     O13974  10.324   4.167  10.303  0.0282  0.2939 -0.6352
  864MOL0     C13975  10.371   4.032  10.315  0.1054 -0.2845  0.0041
  864MOL0     C13976  10.512   4.007  10.258  0.8753 -0.6723 -0.2891
  864MOL0     C13977  10.537   4.009  10.106 -0.3391  0.0496  0.2712
  864MOL0     C13978  10.687   3.962  10.073  0.1340 -0.4849 -0.2067
  864MOL0     C13979  10.783   4.069  10.096  0.4046  0.6007 -0.0866
  864MOL0     C13980  10.861   4.164  10.120  0.6555 -0.3102  0.2756
  864MOL0     C13981  10.079   4.146  10.264  0.0940  0.3020  0.3401
  864MOL0     C13982   9.969   4.162  10.182  1.0101  0.0941  0.7168
  864MOL0     H13983   9.639   4.438   9.941  1.4577 -1.4260 -0.5712
  864MOL0     H13984   9.418   4.457   9.816 -2.9644 -1.5091  0.0990
  864MOL0     H13985   9.258   4.426   9.605 -0.4903  1.4747  1.5425
  864MOL0     H13986   9.200   4.419   9.776 -0.2809 -0.4325  1.1309
  864MOL0     H13987   9.039   4.225   9.672 -0.0236 -0.5527 -0.8346
  864MOL0     H13988   9.077   4.284   9.516 -0.5658  0.4351 -0.1233
  864MOL0     H13989   9.050   4.529   9.604 -1.0244  1.2596 -0.4939
  864MOL0     H13990   8.975   4.457   9.751  1.7450  1.4288 -0.2564
  864MOL0     H13991   8.887   4.431   9.459 -1.0144 -1.9897 -0.9281
  864MOL0     H13992   8.799   4.342   9.596 -1.2329  1.1687 -0.0430
  864MOL0     H13993   8.824   4.646   9.572 -0.7474 -1.3654 -4.4244
  864MOL0     H13994   8.756   4.558   9.707 -2.4406  0.1008 -0.3922
  864MOL0     H13995   8.590   4.455   9.537 -0.3431 -0.5185 -1.5172
  864MOL0     H13996   8.672   4.559   9.405  0.1552  0.0542  0.0467
  864MOL0     H13997   8.524   4.658   9.647  2.1962 -1.2527  0.7443
  864MOL0     H13998   8.589   4.767   9.528 -4.0417  1.0974 -0.5342
  864MOL0     H13999   8.410   4.555   9.419 -2.7239  0.3357 -0.7430
  864MOL0     H14000   8.442   4.731   9.374  0.2231  3.1855  2.8647
  864MOL0     H14001   8.157   4.681   9.342  0.7021  0.0216 -0.3240
  864MOL0     H14002   7.920   4.589   9.522  3.0427 -0.8204  1.8974
  864MOL0     H14003   7.923   4.748   9.445 -2.9884 -1.8827 -0.7678
  864MOL0     H14004   7.915   4.836   9.704 -0.8105  0.2109 -0.9254
  864MOL0     H14005   7.866   4.684   9.747 -3.6189 -0.7579  0.5318
  864MOL0     H14006   7.660   4.714   9.584  0.7588 -1.4155  1.2230
  864MOL0     H14007   7.666   4.829   9.716 -0.2616 -1.1880  0.2437
  864MOL0     H14008   7.739   4.901   9.425  0.1625 -1.9760  0.3443
  864MOL0     H14009   7.788   4.989   9.564 -0.9725  2.6660 -2.8373
  864MOL0     H14010   7.591   4.829   9.323 -0.6384  2.1921 -2.9218
  864MOL0     H14011   7.395   4.779   9.176 -2.4004  0.4383 -0.6685
  864MOL0     H14012   6.920   4.702   9.217  4.9746  1.5242 -1.9586
  864MOL0     H14013   6.736   4.633   9.043 -1.4571  1.1867 -0.2135
  864MOL0     H14014   6.559   4.618   8.896 -1.3052 -0.5452 -2.0961
  864MOL0     H14015   6.713   4.644   8.812 -0.1805 -0.2978 -0.6705
  864MOL0     H14016   6.529   4.564   8.650 -0.1740 -0.2186  0.4265
  864MOL0     H14017   6.609   4.722   8.619  1.1392  0.3310  0.5259
  864MOL0     H14018   6.384   4.820   8.745  0.3069 -0.2557  0.8002
  864MOL0     H14019   6.322   4.658   8.705 -2.4539  1.1175 -1.7075
  864MOL0     H14020   6.453   4.849   8.509  0.6179 -1.1033 -1.2131
  864MOL0     H14021   6.401   4.685   8.475 -1.4252 -0.6152  0.8897
  864MOL0     H14022   6.221   4.939   8.529 -0.7960 -1.3876  1.8692
  864MOL0     H14023   6.173   4.770   8.575  1.9007 -1.9672  2.0990
  864MOL0     H14024   6.200   4.696   8.352  0.2533 -0.5899  1.3259
  864MOL0     H14025   6.264   4.857   8.302 -0.1610  2.3929  1.7712
  864MOL0     H14026   5.996   4.827   8.444 -2.7401 -0.9734 -1.4876
  864MOL0     H14027   6.045   4.957   8.332 -2.2673 -0.3791 -2.4747
  864MOL0     H14028   5.954   4.680   8.247 -1.0739  0.3769  0.6054
  864MOL0     H14029   6.030   4.806   8.153  0.9435  2.5719  0.8216
  864MOL0     H14030   6.702   5.044   8.926 -1.9559  1.5291  1.8652
  864MOL0     H14031   6.874   5.106   9.065  2.3958  0.4223  0.1727
  864MOL0     H14032   7.146   4.992   9.447 -1.0107  0.3899 -2.5096
  864MOL0     H14033   7.325   5.040   9.590 -0.5486  1.1142 -1.3325
  864MOL0     H14034   9.430   4.032   9.765 -2.2517  1.0780  0.3222
  864MOL0     H14035   9.635   4.010   9.895 -2.2242 -2.1117 -0.8933
  864MOL0     H14036  10.130   4.301   9.914  2.7207  0.9510  0.8483
  864MOL0     H14037  10.321   4.277  10.059 -0.5391 -0.3608 -1.9606
  864MOL0     H14038  10.301   3.969  10.259  1.0864 -1.0939 -0.3574
  864MOL0     H14039  10.366   3.995  10.418  2.7358  1.2955  0.7993
  864MOL0     H14040  10.573   4.086  10.304 -0.1185 -0.6548  1.0716
  864MOL0     H14041  10.543   3.912  10.301 -2.9168 -1.1543  1.8342
  864MOL0     H14042  10.516   4.110  10.069  2.2491  1.1729  1.6529
  864MOL0     H14043  10.464   3.939  10.063 -2.0873  2.4735 -0.9980
  864MOL0     H14044  10.714   3.880  10.141  0.8969 -0.2828 -0.2545
  864MOL0     H14045  10.690   3.928   9.970  0.2681 -0.3027 -0.2638
  864MOL0     H14046  10.908   4.259  10.137 -2.8762  1.6261  0.0908
  864MOL0     H14047  10.061   4.112  10.366  1.4183  2.7701  1.4761
  864MOL0     H14048   9.870   4.129  10.211  0.2226 -0.1485 -1.9881
  865MOL0     O14049   1.969   2.766   1.948 -0.0583  0.3533 -0.3645
  865MOL0     C14050   1.985   2.649   1.971 -0.7744  0.4004 -0.2970
  865MOL0     O14051   1.915   2.572   2.055  0.8617  0.3143 -0.7836
  865MOL0     C14052   1.788   2.611   2.082  0.1214  0.0164 -0.2882
  865MOL0     C14053   1.699   2.649   1.979 -0.2601 -0.4281 -0.7866
  865MOL0     C14054   1.563   2.679   2.004 -0.2980 -0.0030  0.3644
  865MOL0     C14055   1.515   2.676   2.134  0.0078 -0.3925 -0.0848
  865MOL0     O14056   1.386   2.697   2.173 -0.6202 -0.1045  0.1780
  865MOL0     C14057   1.310   2.783   2.091 -0.0118  0.2403 -0.8023
  865MOL0     C14058   1.178   2.811   2.165  0.0182 -0.6311  0.1535
  865MOL0     C14059   1.106   2.930   2.117  0.1298 -0.6194  0.4100
  865MOL0     C14060   0.962   2.934   2.180  0.3756  0.2543 -0.7689
  865MOL0     C14061   0.906   3.075   2.138 -0.5673 -0.1489 -0.2101
  865MOL0     C14062   0.758   3.102   2.179 -0.5951  0.0560  0.0121
  865MOL0     C14063   0.652   3.004   2.130  0.5000 -0.3530 -0.4772
  865MOL0     C14064   0.529   3.010   2.221  0.8316 -0.4618  0.8385
  865MOL0     N14065   0.420   3.099   2.169  0.0569  0.3469  0.1293
  865MOL0     C14066   0.423   3.211   2.092  0.1889 -0.4160  0.0599
  865MOL0     C14067   0.296   3.238   2.054  0.6682  0.3815 -0.1424
  865MOL0     C14068   0.254   3.354   1.964  0.1211  0.4907  0.2783
  865MOL0     C14069   0.107   3.383   1.951 -0.2051  1.2991  0.0114
  865MOL0     C14070   0.041   3.420   2.077  0.1947 -0.0291  0.2681
  865MOL0     C14071  -0.079   3.498   2.064  0.7262  0.0629 -0.5674
  865MOL0     O14072  -0.169   3.456   1.963  0.0012 -0.5663 -0.0277
  865MOL0     C14073  -0.302   3.424   1.987 -0.1585 -0.6161  0.3824
  865MOL0     C14074  -0.352   3.409   2.114  0.6781  0.3300  0.1896
  865MOL0     C14075  -0.494   3.374   2.126  0.5158 -0.0629  0.2511
  865MOL0     C14076  -0.575   3.344   2.010 -0.2809  0.7522 -0.1289
  865MOL0     C14077  -0.718   3.317   2.020  1.0120 -0.1987 -0.0677
  865MOL0     O14078  -0.777   3.264   1.901 -0.3251 -0.8192 -0.1730
  865MOL0     C14079  -0.911   3.242   1.893  0.3702  1.0107 -0.2104
  865MOL0     C14080  -0.951   3.122   1.843  0.2373  0.1776 -0.0346
  865MOL0     C14081  -1.085   3.090   1.825  0.6908 -0.1696 -0.1775
  865MOL0     C14082  -1.181   3.188   1.865 -0.0574 -0.0739  0.3485
  865MOL0     O14083  -1.313   3.164   1.844 -0.3927  0.2113 -0.2979
  865MOL0     C14084  -1.383   3.148   1.971 -0.2201  0.9723 -0.0558
  865MOL0     C14085  -1.533   3.142   1.956 -1.0359  0.8010 -0.2239
  865MOL0     C14086  -1.590   3.259   1.883 -0.2465  0.8134  0.3848
  865MOL0     C14087  -1.565   3.395   1.966 -0.0026  0.2631  0.4563
  865MOL0     C14088  -1.640   3.512   1.913 -1.0243  0.4132 -0.0628
  865MOL0     C14089  -1.788   3.515   1.963 -1.1258  0.4044 -0.3610
  865MOL0     C14090  -1.847   3.652   1.932 -0.0724  0.1734 -0.5250
  865MOL0     C14091  -1.841   3.688   1.777  0.6128  0.4528  0.7650
  865MOL0    Cl14092  -1.903   3.857   1.771 -0.0469 -0.2153  0.3233
  865MOL0     C14093  -1.136   3.305   1.924  0.2918  0.1467 -0.7480
  865MOL0     C14094  -1.005   3.333   1.943  0.1594 -0.1466  0.1356
  865MOL0     O14095  -0.772   3.351   2.126  0.8803  0.2515 -0.8310
  865MOL0     C14096  -0.517   3.359   1.882 -0.0472 -0.5348  0.1359
  865MOL0     C14097  -0.386   3.400   1.874 -0.8963  0.3284  0.5712
  865MOL0     N14098   0.218   3.136   2.101 -0.2353 -0.5722  0.6101
  865MOL0     N14099   0.290   3.053   2.166  0.6249  0.5937  0.3251
  865MOL0     C14100   1.607   2.637   2.231 -0.4144  0.4341  0.4017
  865MOL0     C14101   1.742   2.609   2.209  0.4979 -0.6705  0.7110
  865MOL0     C14102   2.118   2.586   1.938 -0.2661 -1.0717 -0.3190
  865MOL0     C14103   2.165   2.480   2.006 -0.0549 -0.0696  0.0414
  865MOL0     C14104   2.290   2.427   1.973  1.1426  0.5076 -0.1999
  865MOL0     C14105   2.372   2.478   1.876 -0.3804  0.1800  0.5286
  865MOL0     O14106   2.500   2.437   1.847 -0.2215  0.0962 -0.2598
  865MOL0     C14107   2.551   2.313   1.906 -0.7554  0.5028  0.0419
  865MOL0     C14108   2.705   2.296   1.872 -0.1695  0.1746 -0.5190
  865MOL0     C14109   2.714   2.246   1.733 -1.0942 -0.4354 -0.3828
  865MOL0     C14110   2.849   2.192   1.687 -0.1867 -0.3242  0.4643
  865MOL0     C14111   2.912   2.288   1.586 -0.4218  0.2245 -0.4338
  865MOL0     C14112   2.974   2.342   1.498 -0.5809  0.7190  0.5307
  865MOL0     C14113   2.319   2.591   1.807  0.1542 -0.0695  0.6367
  865MOL0     C14114   2.199   2.648   1.846 -1.0334  0.0720  1.2659
  865MOL0     H14115   1.730   2.650   1.875 -2.2798 -1.6956 -1.4636
  865MOL0     H14116   1.493   2.710   1.927  1.4849  1.0403 -0.9126
  865MOL0     H14117   1.286   2.721   2.004 -1.2960 -1.2765  0.5546
  865MOL0     H14118   1.348   2.885   2.082 -0.9524  0.6687 -0.1010
  865MOL0     H14119   1.187   2.839   2.270  1.1964 -2.3306  0.5397
  865MOL0     H14120   1.120   2.720   2.149  0.3614 -0.4689 -2.5135
  865MOL0     H14121   1.098   2.920   2.008 -0.8827  0.5210  0.3527
  865MOL0     H14122   1.164   3.019   2.142 -1.8341  1.6350 -2.3837
  865MOL0     H14123   0.897   2.852   2.150  0.9405  0.1095 -1.6361
  865MOL0     H14124   0.969   2.942   2.289  0.1791 -1.4744 -0.6148
  865MOL0     H14125   0.909   3.082   2.029  0.0708 -0.5130 -0.2224
  865MOL0     H14126   0.973   3.153   2.175  1.3792 -2.3957  1.2722
  865MOL0     H14127   0.739   3.207   2.151  0.8871  0.3654  0.0594
  865MOL0     H14128   0.757   3.105   2.289 -0.0220  1.3506  0.0040
  865MOL0     H14129   0.619   3.025   2.028 -0.9916  0.7537  0.1781
  865MOL0     H14130   0.701   2.906   2.130  0.7154 -0.2442 -0.7269
  865MOL0     H14131   0.549   3.038   2.325 -0.1526  2.4054  0.3637
  865MOL0     H14132   0.476   2.914   2.224 -1.0207  0.4902  0.6116
  865MOL0     H14133   0.505   3.276   2.063 -0.8827 -0.2400 -2.9945
  865MOL0     H14134   0.305   3.332   1.870  2.3860  0.8776  1.3410
  865MOL0     H14135   0.299   3.442   2.012  0.1482 -0.6828  2.5241
  865MOL0     H14136   0.058   3.296   1.905  0.1218  2.2564 -2.2681
  865MOL0     H14137   0.088   3.451   1.868  1.2985 -1.3371 -2.7030
  865MOL0     H14138   0.003   3.327   2.119 -1.3451  1.5281  2.5588
  865MOL0     H14139   0.112   3.480   2.135 -0.5295  1.7921 -0.6127
  865MOL0     H14140  -0.044   3.599   2.042  0.7476 -0.2207 -1.9824
  865MOL0     H14141  -0.126   3.499   2.163 -0.2264 -2.9289 -0.8827
  865MOL0     H14142  -0.299   3.424   2.207 -1.9980  1.6309  1.6319
  865MOL0     H14143  -0.539   3.369   2.224  1.2740  1.9624  0.7376
  865MOL0     H14144  -0.865   3.067   1.806  1.1472  0.2671  1.8340
  865MOL0     H14145  -1.122   2.999   1.778  1.0345 -0.2284 -0.3402
  865MOL0     H14146  -1.354   3.223   2.045 -1.0470  1.3603 -0.1168
  865MOL0     H14147  -1.364   3.050   2.014 -2.0824  0.9516  0.7920
  865MOL0     H14148  -1.582   3.131   2.053  1.4468  0.0663  1.0265
  865MOL0     H14149  -1.551   3.047   1.905 -0.1631 -0.5680  1.8803
  865MOL0     H14150  -1.695   3.235   1.865  0.3405 -2.3502  0.5606
  865MOL0     H14151  -1.539   3.266   1.786 -1.8390 -2.9910 -0.9351
  865MOL0     H14152  -1.588   3.383   2.072  1.5318 -1.2450  0.6651
  865MOL0     H14153  -1.459   3.415   1.948 -0.4355  1.7017 -0.6508
  865MOL0     H14154  -1.624   3.517   1.805 -1.5619 -2.4207 -0.3419
  865MOL0     H14155  -1.597   3.602   1.960  0.5803 -1.1881  1.7138
  865MOL0     H14156  -1.802   3.494   2.069 -0.7130  0.0883 -0.3675
  865MOL0     H14157  -1.836   3.428   1.915  3.7678 -1.0136 -3.3691
  865MOL0     H14158  -1.954   3.653   1.952  0.3160  1.8393  1.8058
  865MOL0     H14159  -1.805   3.733   1.993  1.2979 -2.2655  2.0153
  865MOL0     H14160  -1.902   3.624   1.712  0.4752  0.4438  0.9032
  865MOL0     H14161  -1.741   3.685   1.732  0.5436  4.1705  0.0080
  865MOL0     H14162  -1.213   3.376   1.953  0.5395 -0.4372  1.5384
  865MOL0     H14163  -0.986   3.424   1.999  3.9240 -1.2285  0.9031
  865MOL0     H14164  -0.568   3.341   1.789  0.3253  1.2960 -0.4545
  865MOL0     H14165  -0.334   3.392   1.779 -0.2256  1.3494  0.8425
  865MOL0     H14166   1.557   2.628   2.327 -0.5915 -1.7964  0.1370
  865MOL0     H14167   1.813   2.580   2.286  1.1753 -1.4553 -0.1727
  865MOL0     H14168   2.111   2.431   2.087 -1.4427  1.0422 -0.1688
  865MOL0     H14169   2.319   2.345   2.038 -0.0228 -0.0495 -0.3590
  865MOL0     H14170   2.498   2.222   1.877 -1.5075  0.8797  0.1927
  865MOL0     H14171   2.558   2.307   2.015  3.1771 -0.7170 -0.1236
  865MOL0     H14172   2.755   2.392   1.889  0.8015 -0.4345  0.2182
  865MOL0     H14173   2.744   2.219   1.939 -1.3660  1.5321  1.9157
  865MOL0     H14174   2.686   2.331   1.669  1.5199  0.5621 -0.3423
  865MOL0     H14175   2.640   2.167   1.717 -1.3507  0.0538 -1.7807
  865MOL0     H14176   2.927   2.174   1.762  0.2798 -1.8373 -0.3383
  865MOL0     H14177   2.826   2.103   1.629 -1.8580  0.2301  0.2345
  865MOL0     H14178   3.033   2.386   1.420  0.6641  0.0588  1.0719
  865MOL0     H14179   2.383   2.652   1.744 -0.0230  0.2198  0.7364
  865MOL0     H14180   2.173   2.742   1.798  1.6175  1.1735  1.8334
  866MOL0     O14181  11.206   2.865   2.965 -0.2213 -0.9652  0.9083
  866MOL0     C14182  11.308   2.803   2.986 -0.5038 -0.1146 -0.3548
  866MOL0     O14183  11.308   2.668   2.992  0.1890  0.2837  0.0957
  866MOL0     C14184  11.190   2.601   2.969  0.2040 -0.0600 -1.5344
  866MOL0     C14185  11.083   2.609   3.063 -0.7401  0.8616  0.4194
  866MOL0     C14186  10.961   2.531   3.057  0.0355 -0.4905 -0.4547
  866MOL0     C14187  10.939   2.457   2.941 -0.6673 -0.6276 -0.4630
  866MOL0     O14188  10.817   2.392   2.924  0.1135 -0.4454 -0.0344
  866MOL0     C14189  10.728   2.462   2.838 -1.1958 -0.2566  0.6106
  866MOL0     C14190  10.622   2.363   2.776  0.1078  0.5124 -0.0613
  866MOL0     C14191  10.685   2.272   2.669  0.8445  0.4539  0.1109
  866MOL0     C14192  10.768   2.153   2.722  0.4474  1.0465  0.8150
  866MOL0     C14193  10.775   2.039   2.620 -0.4383  0.4160  0.1214
  866MOL0     C14194  10.825   1.905   2.671 -0.8179  0.5991 -0.7870
  866MOL0     C14195  10.783   1.786   2.580  0.6752 -0.6677  0.1244
  866MOL0     C14196  10.754   1.660   2.658  0.3495 -0.5796 -0.2881
  866MOL0     N14197  10.729   1.552   2.564  0.0945  0.2571  0.8878
  866MOL0     C14198  10.821   1.465   2.505  0.5521  0.5370  0.2135
  866MOL0     C14199  10.749   1.411   2.403 -0.3025  0.0182 -0.4043
  866MOL0     C14200  10.807   1.316   2.293 -1.0176 -2.0127  0.7176
  866MOL0     C14201  10.698   1.293   2.185 -1.6250  1.4523 -0.4166
  866MOL0     C14202  10.754   1.211   2.075  0.3518 -0.3930  0.7423
  866MOL0     C14203  10.647   1.175   1.970 -0.2779 -0.1116  0.2412
  866MOL0     O14204  10.532   1.129   2.033  0.0963  0.2230  0.7426
  866MOL0     C14205  10.438   1.100   1.944  0.3703  0.0515  0.8552
  866MOL0     C14206  10.370   1.199   1.860 -0.2549  0.5717 -0.3111
  866MOL0     C14207  10.258   1.169   1.782 -0.3419  0.3692  0.0037
  866MOL0     C14208  10.213   1.034   1.782 -0.9862 -0.2676  0.5282
  866MOL0     C14209  10.093   0.992   1.696  0.4829 -0.1964 -0.6419
  866MOL0     O14210  10.017   1.094   1.640  0.7590 -0.0075  0.3779
  866MOL0     C14211   9.898   1.058   1.586  0.5744  0.2729 -0.8602
  866MOL0     C14212   9.785   1.048   1.666 -0.2571 -0.2027  0.4720
  866MOL0     C14213   9.670   0.998   1.610 -0.4194  0.0935  0.4067
  866MOL0     C14214   9.663   0.958   1.474  0.4620 -1.1096 -0.1657
  866MOL0     O14215   9.547   0.914   1.414  0.4132 -0.4610  0.1397
  866MOL0     C14216   9.421   0.903   1.500 -0.0448  0.1564 -0.1997
  866MOL0     C14217   9.322   0.811   1.430 -0.1737  0.8546 -0.7631
  866MOL0     C14218   9.185   0.882   1.412 -0.9161  0.0879 -0.3280
  866MOL0     C14219   9.080   0.773   1.378  0.2163 -0.1430 -0.1350
  866MOL0     C14220   8.935   0.824   1.401  0.2069 -0.4371  0.9138
  866MOL0     C14221   8.878   0.923   1.296  0.1614  0.5378  0.4591
  866MOL0     C14222   8.731   0.962   1.323  0.4346  0.5134 -0.0572
  866MOL0     C14223   8.637   0.841   1.347  0.6943  0.0389  0.1089
  866MOL0    Cl14224   8.470   0.891   1.341 -0.2618 -0.1241  0.2437
  866MOL0     C14225   9.775   0.978   1.395  0.6601  0.9369 -0.0005
  866MOL0     C14226   9.888   1.026   1.447  0.4357  0.5774  1.1879
  866MOL0     O14227  10.066   0.865   1.688  1.1384 -0.5574  0.3575
  866MOL0     C14228  10.286   0.935   1.857 -0.1280  0.5725 -0.0578
  866MOL0     C14229  10.387   0.970   1.937 -0.3596 -0.6069 -0.2981
  866MOL0     N14230  10.624   1.450   2.420  0.3949  0.1128 -0.4108
  866MOL0     N14231  10.604   1.538   2.509 -0.3152  0.0402 -0.3045
  866MOL0     C14232  11.044   2.445   2.851  0.5991  0.4307 -0.6236
  866MOL0     C14233  11.171   2.502   2.868 -0.1153  0.1048 -0.0570
  866MOL0     C14234  11.440   2.869   2.999 -0.0942 -1.2956 -0.1460
  866MOL0     C14235  11.542   2.828   3.085  0.1343  0.8558 -1.0826
  866MOL0     C14236  11.665   2.896   3.081  1.1297  0.2401  0.6697
  866MOL0     C14237  11.675   3.028   3.018 -0.7927 -0.0395  0.1238
  866MOL0     O14238  11.788   3.106   3.024  0.3400  0.1724  0.1081
  866MOL0     C14239  11.917   3.040   3.048  0.0728  0.1562  0.1872
  866MOL0     C14240  12.037   3.134   3.040 -0.9088 -0.6655 -0.1255
  866MOL0     C14241  12.031   3.249   3.151  0.0649  0.0894 -0.7882
  866MOL0     C14242  12.036   3.193   3.293 -0.7558 -0.0952 -0.3599
  866MOL0     C14243  12.036   3.315   3.386 -0.5813  0.8003  0.0569
  866MOL0     C14244  12.039   3.401   3.469  0.2248 -0.0878 -0.2694
  866MOL0     C14245  11.572   3.072   2.945  0.1199  0.8897  0.0084
  866MOL0     C14246  11.460   2.990   2.925 -0.0553  0.3422 -0.1628
  866MOL0     H14247  11.096   2.668   3.153 -2.5448  0.0697  1.2513
  866MOL0     H14248  10.884   2.532   3.134  0.1890  1.6498 -0.2721
  866MOL0     H14249  10.778   2.527   2.766  2.1859 -1.2315  1.8663
  866MOL0     H14250  10.674   2.532   2.902 -2.9242  1.0009 -2.0876
  866MOL0     H14251  10.530   2.414   2.743  0.2020  1.7231  1.4313
  866MOL0     H14252  10.590   2.303   2.862  2.4613  1.1367  1.3281
  866MOL0     H14253  10.752   2.324   2.599  4.0047 -2.3969  0.7292
  866MOL0     H14254  10.598   2.235   2.614 -2.3746  3.7206  2.5102
  866MOL0     H14255  10.868   2.187   2.750  0.0177  2.0072  1.2167
  866MOL0     H14256  10.721   2.128   2.817  2.2373  1.3813  1.8250
  866MOL0     H14257  10.840   2.073   2.539  0.4114  1.2210  1.1237
  866MOL0     H14258  10.674   2.033   2.576 -0.8962  2.8114  0.6727
  866MOL0     H14259  10.780   1.890   2.770 -1.4011  1.1991 -0.9492
  866MOL0     H14260  10.933   1.906   2.681 -0.8021 -1.1382 -0.4634
  866MOL0     H14261  10.693   1.803   2.520  1.3340 -0.0282 -0.7012
  866MOL0     H14262  10.854   1.767   2.499 -1.9978  0.1253 -2.5868
  866MOL0     H14263  10.663   1.677   2.716  1.3317 -0.6382  1.3351
  866MOL0     H14264  10.832   1.637   2.731  0.4616  1.4703  0.3126
  866MOL0     H14265  10.921   1.432   2.531  0.8901  1.2343 -0.1663
  866MOL0     H14266  10.841   1.220   2.334  1.4835 -0.6280  2.1395
  866MOL0     H14267  10.899   1.347   2.242 -2.5624 -0.9219 -1.5800
  866MOL0     H14268  10.667   1.384   2.132  1.2926  1.2976 -2.6259
  866MOL0     H14269  10.613   1.240   2.228  0.8476 -2.3883  0.2208
  866MOL0     H14270  10.839   1.259   2.026  0.9512 -1.4038  0.7520
  866MOL0     H14271  10.797   1.122   2.122  0.7716  0.1603  1.4268
  866MOL0     H14272  10.695   1.097   1.910  0.8446  1.5927 -1.2082
  866MOL0     H14273  10.617   1.260   1.909  0.7340 -0.9025 -1.4281
  866MOL0     H14274  10.418   1.296   1.850  0.5640  0.4194  1.7045
  866MOL0     H14275  10.220   1.245   1.715 -1.7882  0.3167  0.7200
  866MOL0     H14276   9.788   1.074   1.771  1.2639  1.2836  0.0938
  866MOL0     H14277   9.588   0.998   1.681 -0.7834  0.9302 -0.0050
  866MOL0     H14278   9.375   1.002   1.505  0.1321  0.1573  2.4431
  866MOL0     H14279   9.435   0.870   1.603 -0.0450  0.1855 -0.1904
  866MOL0     H14280   9.326   0.729   1.503  0.4613  1.7477  0.2244
  866MOL0     H14281   9.363   0.765   1.340  1.3421 -3.8500  1.9614
  866MOL0     H14282   9.198   0.966   1.344  0.6163  0.6225  0.5839
  866MOL0     H14283   9.157   0.919   1.511 -3.0921 -1.3568 -0.3031
  866MOL0     H14284   9.111   0.733   1.281 -0.3531  0.3460 -0.5186
  866MOL0     H14285   9.103   0.690   1.446 -0.5902 -1.1120 -1.0318
  866MOL0     H14286   8.928   0.860   1.504  1.0375 -0.5943  1.0277
  866MOL0     H14287   8.885   0.727   1.399 -0.0707 -0.3099  1.4877
  866MOL0     H14288   8.875   0.875   1.199  0.3799  0.3606  0.5385
  866MOL0     H14289   8.939   1.014   1.297  1.4053 -0.2142 -1.3289
  866MOL0     H14290   8.720   1.029   1.408 -1.9575 -0.9295  0.8891
  866MOL0     H14291   8.683   1.019   1.242 -0.0531 -1.8138 -1.5222
  866MOL0     H14292   8.660   0.806   1.449 -0.0692  2.6704  1.2702
  866MOL0     H14293   8.650   0.751   1.286 -0.5540 -1.4246  1.8847
  866MOL0     H14294   9.770   0.952   1.290  1.7899  2.1280 -0.3796
  866MOL0     H14295   9.976   1.029   1.383 -0.3039 -0.6775  0.0422
  866MOL0     H14296  10.254   0.833   1.875 -0.1657  0.3764 -1.1809
  866MOL0     H14297  10.433   0.897   2.003 -2.5645 -3.1847 -1.4051
  866MOL0     H14298  11.027   2.374   2.771 -1.1302 -1.9657  1.7344
  866MOL0     H14299  11.245   2.493   2.789 -3.2354  1.6430 -3.4788
  866MOL0     H14300  11.530   2.736   3.141 -1.1291  1.0964 -0.9407
  866MOL0     H14301  11.749   2.858   3.139  0.8735  0.2647  1.0570
  866MOL0     H14302  11.946   2.979   2.962  1.4738  1.0925 -0.0540
  866MOL0     H14303  11.921   2.973   3.134  1.9107  0.5130  0.4282
  866MOL0     H14304  12.134   3.083   3.048 -0.0989  0.7824 -0.4278
  866MOL0     H14305  12.039   3.182   2.942 -0.4049  0.5704  0.4757
  866MOL0     H14306  11.928   3.283   3.134  0.0510  0.7246  0.4026
  866MOL0     H14307  12.107   3.326   3.135  2.9917 -1.4619  3.7205
  866MOL0     H14308  11.952   3.130   3.322 -0.3950 -0.6511 -0.5231
  866MOL0     H14309  12.134   3.145   3.302  0.1670  2.0365  3.1449
  866MOL0     H14310  12.045   3.467   3.553 -1.3631 -0.7539  0.4087
  866MOL0     H14311  11.575   3.163   2.886  1.6057  0.9485  0.1440
  866MOL0     H14312  11.391   3.014   2.845  0.8144 -1.6292 -1.5616
  867MOL0     O14313   3.912   7.094   0.397 -0.5244 -0.0181 -0.2851
  867MOL0     C14314   3.966   7.063   0.286 -0.4867 -0.0726  0.4527
  867MOL0     O14315   3.905   7.002   0.183 -0.2106  0.6707  0.3518
  867MOL0     C14316   3.771   6.977   0.203  0.8649  0.0115  0.4074
  867MOL0     C14317   3.671   7.076   0.195 -0.1790  0.4623  1.2353
  867MOL0     C14318   3.536   7.050   0.195 -0.7685  0.3351 -0.7682
  867MOL0     C14319   3.494   6.914   0.222  0.0612  0.1195  0.3475
  867MOL0     O14320   3.359   6.902   0.228  0.9731  0.5296  0.4572
  867MOL0     C14321   3.291   6.776   0.265  0.7889  0.0222 -0.3917
  867MOL0     C14322   3.140   6.806   0.251  0.0374  0.2932  0.7372
  867MOL0     C14323   3.054   6.689   0.287  1.0589  1.0667 -0.4651
  867MOL0     C14324   3.025   6.679   0.441 -0.4952  0.3730  0.3174
  867MOL0     C14325   3.009   6.531   0.495 -0.6846 -0.4658 -0.1529
  867MOL0     C14326   3.138   6.455   0.501  0.2048  0.7536  0.0780
  867MOL0     C14327   3.127   6.306   0.554  0.4585  0.0045 -0.2704
  867MOL0     C14328   3.261   6.240   0.519 -0.6859 -0.4388 -0.5009
  867MOL0     N14329   3.264   6.108   0.580  0.6776 -0.8209  0.3523
  867MOL0     C14330   3.279   6.087   0.714  0.2432  1.4763 -0.0817
  867MOL0     C14331   3.297   5.959   0.737 -0.5262 -0.7157  0.5907
  867MOL0     C14332   3.292   5.873   0.863 -0.0174  0.0483  0.5990
  867MOL0     C14333   3.399   5.759   0.860 -0.4751  0.7470  0.0585
  867MOL0     C14334   3.546   5.796   0.851 -0.2048  0.3349  0.3721
  867MOL0     C14335   3.618   5.659   0.840  0.2643 -0.5007  0.3044
  867MOL0     O14336   3.759   5.681   0.848  0.2280  0.3525 -0.4729
  867MOL0     C14337   3.839   5.568   0.883 -0.2181 -0.1221 -0.7013
  867MOL0     C14338   3.800   5.440   0.929  0.4737 -0.2154  0.3597
  867MOL0     C14339   3.885   5.332   0.961  0.1056 -0.2376  0.0868
  867MOL0     C14340   4.023   5.366   0.942  0.2375 -0.3613 -0.4176
  867MOL0     C14341   4.132   5.276   0.988 -0.1907 -0.1801 -0.3398
  867MOL0     O14342   4.264   5.304   0.975  0.1814  0.4271  0.2276
  867MOL0     C14343   4.361   5.243   1.056 -1.0235 -0.8425  0.2562
  867MOL0     C14344   4.353   5.210   1.193 -0.1166 -0.1324 -0.9695
  867MOL0     C14345   4.469   5.192   1.268 -0.7911 -0.1312 -0.9532
  867MOL0     C14346   4.594   5.173   1.211  0.4223  0.2274  0.0911
  867MOL0     O14347   4.695   5.152   1.295 -0.3633 -0.5853 -0.1439
  867MOL0     C14348   4.818   5.140   1.236 -0.5531  0.2184  0.4592
  867MOL0     C14349   4.911   5.134   1.358  0.1867 -0.2334 -0.0836
  867MOL0     C14350   5.051   5.094   1.301  0.5324  0.1707  0.2005
  867MOL0     C14351   5.165   5.090   1.405 -0.6849  0.2656  0.6733
  867MOL0     C14352   5.283   5.009   1.366 -0.6163  0.5923  0.6789
  867MOL0     C14353   5.337   5.062   1.234  0.1088 -0.2236  0.3440
  867MOL0     C14354   5.486   5.018   1.209 -0.0652  0.4747  0.2214
  867MOL0     C14355   5.528   4.878   1.228 -0.0274 -1.1120 -0.0800
  867MOL0    Cl14356   5.697   4.875   1.290 -0.0334 -0.1609  0.0193
  867MOL0     C14357   4.600   5.187   1.072  0.2198  0.1953  0.1158
  867MOL0     C14358   4.492   5.225   0.999  1.2790 -0.2842 -0.7644
  867MOL0     O14359   4.094   5.181   1.056  0.0181 -0.6772 -1.1262
  867MOL0     C14360   4.064   5.489   0.886  0.0906  0.2810 -0.4377
  867MOL0     C14361   3.969   5.586   0.864 -0.0843 -0.3237 -0.3158
  867MOL0     N14362   3.322   5.900   0.609 -0.0581  0.1890 -0.3606
  867MOL0     N14363   3.288   5.985   0.521 -0.5543 -0.3941  1.4363
  867MOL0     C14364   3.589   6.821   0.239  0.5659 -0.6412 -0.0342
  867MOL0     C14365   3.725   6.851   0.225  0.1530 -0.2043  0.0873
  867MOL0     C14366   4.110   7.089   0.275  0.1047 -0.2860  0.3046
  867MOL0     C14367   4.171   7.074   0.149 -0.8492  0.5977 -1.0310
  867MOL0     C14368   4.310   7.099   0.135  0.3082 -0.5737  0.0784
  867MOL0     C14369   4.387   7.158   0.235  0.1304 -0.4580 -0.3762
  867MOL0     O14370   4.518   7.194   0.220 -0.0603  0.5011  0.4908
  867MOL0     C14371   4.607   7.147   0.111  0.4755  0.5783 -0.3265
  867MOL0     C14372   4.751   7.137   0.157 -0.0253  0.3545  0.1830
  867MOL0     C14373   4.860   7.135   0.048 -0.6352  0.2824  0.4297
  867MOL0     C14374   4.996   7.102   0.120 -0.0955 -0.2659  0.3956
  867MOL0     C14375   5.088   7.038   0.025  0.1310  0.5188 -0.5752
  867MOL0     C14376   5.164   6.994  -0.060  0.2931 -0.1399  0.2674
  867MOL0     C14377   4.322   7.164   0.361  0.1129 -0.3862 -0.7246
  867MOL0     C14378   4.187   7.135   0.383  0.1367  0.0402 -0.0124
  867MOL0     H14379   3.712   7.176   0.192  1.5612 -0.1780  2.4312
  867MOL0     H14380   3.467   7.133   0.182 -2.2599 -0.2578  2.3240
  867MOL0     H14381   3.307   6.748   0.369 -0.8448  0.5263  0.0296
  867MOL0     H14382   3.328   6.698   0.199  0.8676 -0.3607  0.1043
  867MOL0     H14383   3.117   6.830   0.147  3.4903  0.3718 -0.1348
  867MOL0     H14384   3.105   6.890   0.312 -1.7904 -0.5517  0.9381
  867MOL0     H14385   3.103   6.597   0.254 -0.7392 -0.3024  0.5661
  867MOL0     H14386   2.965   6.692   0.224  2.6764  0.1282 -2.9671
  867MOL0     H14387   3.109   6.729   0.492 -0.5127 -0.3579  1.0755
  867MOL0     H14388   2.934   6.737   0.458 -2.4152 -2.0224 -1.2837
  867MOL0     H14389   2.946   6.485   0.418 -0.8270  0.9096 -0.8860
  867MOL0     H14390   2.959   6.529   0.593  1.5738 -0.9076  1.0647
  867MOL0     H14391   3.204   6.499   0.576  0.6973 -1.1009  0.8014
  867MOL0     H14392   3.199   6.466   0.411  2.2548 -3.2835  0.7329
  867MOL0     H14393   3.092   6.303   0.657 -3.8654 -0.1839 -1.5353
  867MOL0     H14394   3.051   6.250   0.499  2.2387 -2.8468 -0.0125
  867MOL0     H14395   3.343   6.294   0.567  0.0992 -2.1014  0.1367
  867MOL0     H14396   3.270   6.231   0.411  2.1465 -0.8043 -0.2939
  867MOL0     H14397   3.273   6.159   0.795  0.3337  0.7233  0.6046
  867MOL0     H14398   3.193   5.826   0.864  0.0561 -0.1862 -0.8833
  867MOL0     H14399   3.318   5.932   0.952  2.6593 -1.5247  0.9673
  867MOL0     H14400   3.383   5.708   0.765  0.7602 -0.9536  0.7311
  867MOL0     H14401   3.371   5.681   0.931 -3.3769  1.0723 -0.6046
  867MOL0     H14402   3.552   5.856   0.760 -0.7739 -1.2969 -0.7917
  867MOL0     H14403   3.572   5.863   0.933 -0.5887 -1.2708  1.8602
  867MOL0     H14404   3.582   5.618   0.745 -0.7947 -0.0884  0.5084
  867MOL0     H14405   3.585   5.591   0.919  1.1602 -0.8930  0.3490
  867MOL0     H14406   3.694   5.422   0.922  0.7425 -2.1665  0.7896
  867MOL0     H14407   3.838   5.241   0.996 -1.4111  0.5714  0.2226
  867MOL0     H14408   4.255   5.205   1.240  0.2144 -0.2830 -0.2903
  867MOL0     H14409   4.474   5.188   1.376 -0.2852  2.1180 -0.8527
  867MOL0     H14410   4.852   5.222   1.172  0.3786 -0.4720  0.0550
  867MOL0     H14411   4.823   5.044   1.183 -0.7359  0.0139  0.8074
  867MOL0     H14412   4.876   5.060   1.431 -3.4500  0.7667 -0.6103
  867MOL0     H14413   4.917   5.231   1.410  0.7059 -0.3393  0.0551
  867MOL0     H14414   5.082   5.150   1.213 -0.1696  0.6293  0.2362
  867MOL0     H14415   5.047   4.988   1.272 -1.0582  0.7781 -2.0623
  867MOL0     H14416   5.194   5.194   1.426 -0.9578  0.1742  1.5292
  867MOL0     H14417   5.121   5.047   1.495 -0.3633  1.5112  1.4608
  867MOL0     H14418   5.251   4.907   1.344 -0.7607  0.5749  0.9794
  867MOL0     H14419   5.357   5.007   1.447 -0.5784 -2.2979  0.6668
  867MOL0     H14420   5.346   5.171   1.229 -1.0088 -0.1685 -1.0994
  867MOL0     H14421   5.270   5.045   1.150  0.3604 -0.8809  0.2684
  867MOL0     H14422   5.505   5.029   1.102  0.4337  0.5865  0.3210
  867MOL0     H14423   5.558   5.086   1.255 -0.7375  1.7201 -0.5333
  867MOL0     H14424   5.512   4.826   1.133 -2.0269  1.0397 -1.0385
  867MOL0     H14425   5.458   4.835   1.300  1.3697  1.5284  3.1203
  867MOL0     H14426   4.690   5.173   1.013 -1.3320  0.0603 -2.3839
  867MOL0     H14427   4.504   5.236   0.892  1.2864 -0.6773 -0.8043
  867MOL0     H14428   4.167   5.519   0.869  0.4008 -0.4399  0.1067
  867MOL0     H14429   3.989   5.688   0.833 -1.1301 -0.4111 -1.3446
  867MOL0     H14430   3.555   6.719   0.253  0.0919 -0.8764 -2.4452
  867MOL0     H14431   3.802   6.778   0.244  0.6395  0.1158 -0.6090
  867MOL0     H14432   4.117   7.055   0.057 -2.6356  0.5768 -0.0346
  867MOL0     H14433   4.360   7.088   0.040  1.6655 -0.0964  0.7011
  867MOL0     H14434   4.598   7.223   0.033 -3.2930 -0.4891 -1.1309
  867MOL0     H14435   4.577   7.048   0.079 -1.4328  1.5626 -1.7714
  867MOL0     H14436   4.755   7.220   0.227 -0.9084 -0.5675  1.3697
  867MOL0     H14437   4.751   7.046   0.219 -2.9602  1.3449  1.8306
  867MOL0     H14438   4.860   7.233  -0.002 -2.3225  1.5904  2.8009
  867MOL0     H14439   4.837   7.055  -0.023  0.5850 -1.3731  1.8103
  867MOL0     H14440   5.045   7.196   0.146 -0.4990 -0.3843  1.6559
  867MOL0     H14441   4.990   7.044   0.212 -0.9217  1.9747  1.8106
  867MOL0     H14442   5.236   6.951  -0.127  1.1137  1.4824  0.0743
  867MOL0     H14443   4.389   7.191   0.442  1.2255 -1.4237 -1.2621
  867MOL0     H14444   4.141   7.132   0.481  1.0640 -5.6898  0.5722
  868MOL0     O14445   0.089   4.089   3.547 -0.4562 -0.2038  0.6591
  868MOL0     C14446   0.049   4.187   3.482 -0.7540  0.2199 -0.8735
  868MOL0     O14447  -0.089   4.222   3.463 -0.4157 -0.4865 -0.1832
  868MOL0     C14448  -0.183   4.154   3.543  0.3430 -0.2301  0.0914
  868MOL0     C14449  -0.166   4.137   3.685 -0.1320 -0.6945 -0.5789
  868MOL0     C14450  -0.282   4.088   3.754 -0.1864 -0.9859 -0.7497
  868MOL0     C14451  -0.393   4.039   3.691  1.6492  0.4296  0.5380
  868MOL0     O14452  -0.498   3.984   3.764  0.2605 -0.5008 -0.4490
  868MOL0     C14453  -0.633   4.032   3.731 -0.6431  0.0983  0.3126
  868MOL0     C14454  -0.701   3.923   3.636 -0.2700 -0.8237 -0.0591
  868MOL0     C14455  -0.849   3.965   3.633  0.4706 -1.3706 -0.4908
  868MOL0     C14456  -0.934   3.845   3.600  0.2319 -0.2518  0.4893
  868MOL0     C14457  -1.079   3.894   3.595  0.2582  0.0129 -0.0475
  868MOL0     C14458  -1.182   3.788   3.555  0.5652  0.4137  0.8704
  868MOL0     C14459  -1.150   3.718   3.430 -0.1120  0.2642  0.4542
  868MOL0     C14460  -1.251   3.607   3.385  0.2129 -0.2396 -0.3280
  868MOL0     N14461  -1.389   3.643   3.406  0.8096  0.1041  0.5625
  868MOL0     C14462  -1.466   3.598   3.505  0.0983  0.3936 -0.5193
  868MOL0     C14463  -1.584   3.658   3.486  0.4761 -0.3985  0.3922
  868MOL0     C14464  -1.712   3.637   3.558 -0.1182  1.2014  0.4347
  868MOL0     C14465  -1.834   3.622   3.466 -0.2724 -0.9154  0.4990
  868MOL0     C14466  -1.826   3.483   3.405  0.3051  0.5252 -0.6661
  868MOL0     C14467  -1.948   3.467   3.313  0.0300 -1.2607  0.5430
  868MOL0     O14468  -1.925   3.338   3.251  0.8596 -0.4322  0.4124
  868MOL0     C14469  -2.032   3.311   3.176 -0.2009 -0.3943 -0.7090
  868MOL0     C14470  -2.060   3.393   3.065  0.2458 -0.3530  0.1580
  868MOL0     C14471  -2.193   3.369   3.005  0.1656 -0.7555  0.3947
  868MOL0     C14472  -2.283   3.275   3.053 -0.7323  0.5550  0.4201
  868MOL0     C14473  -2.410   3.250   2.989 -0.0184 -0.0634 -0.4779
  868MOL0     O14474  -2.519   3.215   3.065  0.1965 -0.3016  0.3873
  868MOL0     C14475  -2.632   3.181   2.986 -0.0137 -0.0722  0.0176
  868MOL0     C14476  -2.699   3.266   2.900  0.5484 -0.0156 -0.1653
  868MOL0     C14477  -2.827   3.233   2.838  0.1274 -0.5193 -0.1757
  868MOL0     C14478  -2.889   3.108   2.864  0.2778  0.1760  0.1088
  868MOL0     O14479  -2.993   3.086   2.786  0.5547  0.6155 -0.1915
  868MOL0     C14480  -3.108   3.024   2.847  0.0899  0.0312 -0.5258
  868MOL0     C14481  -3.237   3.113   2.831  0.4486  0.0298 -0.3554
  868MOL0     C14482  -3.305   3.113   2.693 -0.8187 -0.0650 -0.1380
  868MOL0     C14483  -3.455   3.150   2.699  0.4412  0.2602 -0.2272
  868MOL0     C14484  -3.497   3.300   2.710  0.4889 -0.0068  0.4196
  868MOL0     C14485  -3.653   3.314   2.723  1.0175 -0.4713 -0.7036
  868MOL0     C14486  -3.722   3.256   2.847 -0.8580  0.2275  0.4042
  868MOL0     C14487  -3.642   3.275   2.977  0.4760  0.4063 -0.5251
  868MOL0    Cl14488  -3.737   3.207   3.121 -0.3591 -0.0984 -0.7780
  868MOL0     C14489  -2.817   3.021   2.941  0.0457 -0.0740  0.0421
  868MOL0     C14490  -2.691   3.056   3.002  0.8183 -0.3964 -0.6884
  868MOL0     O14491  -2.411   3.259   2.863 -0.5420 -0.4896 -0.4112
  868MOL0     C14492  -2.248   3.206   3.173  0.3667  0.2706 -0.4424
  868MOL0     C14493  -2.120   3.219   3.228 -0.4643 -0.1161 -1.0765
  868MOL0     N14494  -1.579   3.757   3.387  0.0801  0.2209 -0.0285
  868MOL0     N14495  -1.454   3.744   3.341 -0.1040 -0.2462  0.3320
  868MOL0     C14496  -0.396   4.044   3.550 -0.1180  0.0065  0.6260
  868MOL0     C14497  -0.300   4.109   3.478 -0.0626 -0.2633 -0.6683
  868MOL0     C14498   0.147   4.268   3.422  0.3588 -0.1085 -0.5223
  868MOL0     C14499   0.116   4.387   3.349 -0.1511  0.9426 -0.4644
  868MOL0     C14500   0.224   4.459   3.294 -0.2815  0.3193 -0.3382
  868MOL0     C14501   0.353   4.422   3.317 -1.2846  0.9584  1.4432
  868MOL0     O14502   0.467   4.491   3.269  0.5982  0.1126 -0.2474
  868MOL0     C14503   0.442   4.596   3.165 -0.0461 -0.4275  0.2912
  868MOL0     C14504   0.561   4.683   3.152 -0.1085  0.3571  0.7301
  868MOL0     C14505   0.701   4.617   3.121 -0.5055 -0.2633 -0.3829
  868MOL0     C14506   0.701   4.546   2.991  0.3586  0.2994  0.1181
  868MOL0     C14507   0.651   4.618   2.872  0.0649  0.1293 -0.8924
  868MOL0     C14508   0.629   4.681   2.773  0.8079 -0.4031  0.7823
  868MOL0     C14509   0.381   4.303   3.378 -0.9296 -0.2722  0.4194
  868MOL0     C14510   0.282   4.229   3.433  0.2005 -0.2410  0.1999
  868MOL0     H14511  -0.078   4.172   3.740  0.7728 -1.5487 -1.4508
  868MOL0     H14512  -0.279   4.080   3.862  2.3020  0.1222 -0.6821
  868MOL0     H14513  -0.644   4.131   3.685  1.6494  1.2469  2.0070
  868MOL0     H14514  -0.683   4.031   3.828  1.8357 -0.7072  1.6925
  868MOL0     H14515  -0.699   3.826   3.685 -1.2479 -0.0480  1.5991
  868MOL0     H14516  -0.656   3.915   3.536  3.7118  0.7818  1.3969
  868MOL0     H14517  -0.857   4.050   3.564  0.5737 -1.4917 -0.6553
  868MOL0     H14518  -0.867   4.004   3.733  2.6257 -2.5233  0.4304
  868MOL0     H14519  -0.904   3.798   3.506 -0.3334  2.2313 -1.0394
  868MOL0     H14520  -0.931   3.772   3.681  3.4791 -0.2398  0.5132
  868MOL0     H14521  -1.098   3.987   3.541 -0.3482  0.6305  1.1941
  868MOL0     H14522  -1.104   3.916   3.699  0.5544 -4.0486  1.0438
  868MOL0     H14523  -1.283   3.827   3.550 -0.3140 -1.7844  0.0237
  868MOL0     H14524  -1.185   3.699   3.619 -0.1044 -2.4438 -2.7437
  868MOL0     H14525  -1.148   3.794   3.351  1.5939  0.9307  1.0787
  868MOL0     H14526  -1.053   3.670   3.447  0.9079  1.0077 -2.5036
  868MOL0     H14527  -1.240   3.517   3.446  0.5165 -0.0677 -0.1249
  868MOL0     H14528  -1.227   3.583   3.281  1.7528  0.8795 -0.2753
  868MOL0     H14529  -1.432   3.540   3.590 -0.5214 -0.1339 -0.6255
  868MOL0     H14530  -1.736   3.722   3.622  1.1430  0.8745  1.3908
  868MOL0     H14531  -1.691   3.551   3.623 -0.1161 -1.5869 -2.9731
  868MOL0     H14532  -1.835   3.692   3.382  1.2717 -0.9876  0.3869
  868MOL0     H14533  -1.932   3.630   3.512 -0.9504  1.0847 -1.1396
  868MOL0     H14534  -1.733   3.474   3.350  1.2886  1.8760  0.7056
  868MOL0     H14535  -1.831   3.407   3.484  1.3141 -0.2022 -1.2866
  868MOL0     H14536  -1.938   3.543   3.235 -2.2102 -1.2836  0.1592
  868MOL0     H14537  -2.039   3.477   3.373  0.6481 -2.9444  1.8650
  868MOL0     H14538  -1.997   3.469   3.019 -3.0121  3.2412  1.0315
  868MOL0     H14539  -2.213   3.431   2.918  0.7172 -0.7333  0.2803
  868MOL0     H14540  -2.658   3.366   2.895 -1.1306  0.7313  0.1854
  868MOL0     H14541  -2.885   3.307   2.782  3.1157  0.3015 -2.4663
  868MOL0     H14542  -3.091   3.007   2.953  3.7286 -1.2790 -1.1806
  868MOL0     H14543  -3.131   2.929   2.796  1.0369  0.6398 -2.1479
  868MOL0     H14544  -3.211   3.216   2.857 -0.5852  0.3222 -0.4262
  868MOL0     H14545  -3.305   3.085   2.913 -1.1746  0.1715 -1.6005
  868MOL0     H14546  -3.292   3.010   2.658  3.3822  0.0950  0.3811
  868MOL0     H14547  -3.264   3.165   2.606 -1.4020 -0.9584 -0.9602
  868MOL0     H14548  -3.503   3.112   2.608 -2.0451  1.7757  0.3526
  868MOL0     H14549  -3.508   3.096   2.778  0.8265  0.0821 -0.0864
  868MOL0     H14550  -3.470   3.358   2.622  1.8353 -3.3734 -1.5379
  868MOL0     H14551  -3.444   3.345   2.795 -0.3464 -1.5915  1.8486
  868MOL0     H14552  -3.698   3.271   2.632  0.1737 -0.1743 -0.4343
  868MOL0     H14553  -3.679   3.420   2.728  1.8305 -0.2961 -0.1916
  868MOL0     H14554  -3.820   3.299   2.869 -1.0195 -1.5014  3.7964
  868MOL0     H14555  -3.736   3.149   2.835 -1.6066  0.1499  1.7134
  868MOL0     H14556  -3.606   3.376   2.998 -1.2489  0.9418  0.0939
  868MOL0     H14557  -3.553   3.212   2.973 -0.5886 -1.5209  2.2936
  868MOL0     H14558  -2.861   2.928   2.976 -1.7895  1.0400  0.8555
  868MOL0     H14559  -2.648   2.986   3.073 -1.5377 -1.2171  0.0141
  868MOL0     H14560  -2.318   3.133   3.214  0.5606  0.1857 -0.2607
  868MOL0     H14561  -2.091   3.160   3.314 -1.2666 -0.5852 -1.1161
  868MOL0     H14562  -0.478   3.999   3.495  0.1771  0.6903 -0.4097
  868MOL0     H14563  -0.330   4.129   3.376 -0.1998 -0.0842 -0.5937
  868MOL0     H14564   0.015   4.417   3.323 -0.3752 -0.9982 -2.1404
  868MOL0     H14565   0.188   4.545   3.239  0.3477  1.5691  1.1219
  868MOL0     H14566   0.362   4.657   3.207 -1.6281 -1.2749 -1.3448
  868MOL0     H14567   0.411   4.560   3.066 -0.1350  1.5517 -0.4385
  868MOL0     H14568   0.532   4.748   3.068 -0.1793 -0.8758 -0.2297
  868MOL0     H14569   0.558   4.731   3.250 -0.9671 -0.3513  1.0677
  868MOL0     H14570   0.714   4.554   3.210 -1.6125  1.0143  0.7115
  868MOL0     H14571   0.786   4.685   3.109 -1.8860  1.5112 -0.4902
  868MOL0     H14572   0.804   4.524   2.959 -0.1445 -0.8051 -0.8439
  868MOL0     H14573   0.643   4.454   3.008  1.2422 -0.1002  1.0394
  868MOL0     H14574   0.616   4.732   2.680 -1.3143 -0.2013  1.1414
  868MOL0     H14575   0.486   4.275   3.385 -0.7195  0.4111  0.0904
  868MOL0     H14576   0.313   4.140   3.487  0.3544  0.5575  1.4809
  869MOL0     O14577  10.288  10.630   7.716 -0.6282 -0.2826 -0.1118
  869MOL0     C14578  10.364  10.533   7.709 -0.6669 -0.5201 -0.2691
  869MOL0     O14579  10.328  10.411   7.697  0.1525  0.7500 -0.4422
  869MOL0     C14580  10.188  10.379   7.695 -0.5898 -0.6369 -0.1393
  869MOL0     C14581  10.111  10.370   7.815 -0.6944  0.3450 -0.1393
  869MOL0     C14582   9.978  10.318   7.807 -0.1668 -0.2199 -0.0972
  869MOL0     C14583   9.925  10.295   7.685  0.8973 -0.5205  0.9313
  869MOL0     O14584   9.790  10.250   7.675 -0.0223 -0.0273  0.0352
  869MOL0     C14585   9.711  10.212   7.789  0.5822 -0.7072  0.2003
  869MOL0     C14586   9.588  10.148   7.733 -0.0221  1.1089 -0.5272
  869MOL0     C14587   9.483  10.111   7.840  0.7131 -1.0321 -0.4149
  869MOL0     C14588   9.369  10.036   7.771  0.3870  0.8477  0.1269
  869MOL0     C14589   9.238  10.016   7.856 -0.5320 -0.4213  0.7834
  869MOL0     C14590   9.142   9.946   7.763 -0.0600 -0.6929 -0.4354
  869MOL0     C14591   9.029   9.865   7.836  0.1926  0.2251 -1.0362
  869MOL0     C14592   8.941   9.789   7.725 -0.2484  0.0459 -0.2236
  869MOL0     N14593   8.835   9.709   7.792 -0.2151  0.0151  0.0770
  869MOL0     C14594   8.855   9.608   7.887 -0.0569 -0.5422  0.6508
  869MOL0     C14595   8.724   9.560   7.901  0.3873 -0.5256 -0.7495
  869MOL0     C14596   8.696   9.436   7.979  0.3592 -0.3063  0.5139
  869MOL0     C14597   8.580   9.461   8.075 -0.7123 -0.2784 -0.9076
  869MOL0     C14598   8.525   9.333   8.135  0.5180 -1.1759  0.0010
  869MOL0     C14599   8.413   9.365   8.239 -0.4091 -0.2075  0.5635
  869MOL0     O14600   8.339   9.245   8.279  0.2485  0.5659 -0.0250
  869MOL0     C14601   8.199   9.257   8.282 -0.1184 -0.5930  0.4074
  869MOL0     C14602   8.134   9.219   8.165 -0.0548 -0.2773 -0.2990
  869MOL0     C14603   7.990   9.232   8.157 -0.7185 -0.2473 -0.4371
  869MOL0     C14604   7.919   9.278   8.265 -0.2672 -0.0726 -0.5541
  869MOL0     C14605   7.772   9.270   8.262 -0.2194 -0.2277 -0.0113
  869MOL0     O14606   7.709   9.360   8.348 -1.1037  0.4066 -0.1918
  869MOL0     C14607   7.577   9.387   8.351 -0.4030  0.5757 -0.0922
  869MOL0     C14608   7.485   9.343   8.252  0.4837 -1.0712 -0.5582
  869MOL0     C14609   7.353   9.376   8.268  0.4285  0.0443 -0.0914
  869MOL0     C14610   7.301   9.456   8.375  0.1623  1.1911 -0.1166
  869MOL0     O14611   7.170   9.458   8.382  0.7637  0.0666  0.0484
  869MOL0     C14612   7.117   9.552   8.483  0.2835 -0.4349 -0.0203
  869MOL0     C14613   7.149   9.698   8.437 -0.9373 -0.6223  0.2739
  869MOL0     C14614   7.101   9.733   8.296 -0.2495  0.5853 -0.9886
  869MOL0     C14615   6.946   9.729   8.279  0.3020 -0.7335 -1.3565
  869MOL0     C14616   6.865   9.864   8.319  0.0606  0.2492 -0.6855
  869MOL0     C14617   6.717   9.833   8.286 -1.0170 -0.3086  0.5792
  869MOL0     C14618   6.629   9.954   8.320 -0.0696  0.5653  0.1681
  869MOL0     C14619   6.614  10.051   8.209  0.6014 -0.1762  0.7887
  869MOL0    Cl14620   6.452  10.115   8.234  0.3579 -0.0599 -0.1142
  869MOL0     C14621   7.393   9.505   8.472 -0.7375  0.1148  0.1872
  869MOL0     C14622   7.525   9.474   8.451 -0.3585 -0.4276 -0.6240
  869MOL0     O14623   7.713   9.197   8.183 -0.6293  0.1597 -0.3453
  869MOL0     C14624   7.989   9.304   8.388 -0.0745  0.6848  0.2856
  869MOL0     C14625   8.129   9.298   8.400  0.2024 -0.1310  0.0236
  869MOL0     N14626   8.640   9.635   7.811  0.4374 -0.1781 -0.2257
  869MOL0     N14627   8.711   9.725   7.754  0.2607 -0.0807  0.4120
  869MOL0     C14628   9.989  10.331   7.573  0.0830 -0.3354 -0.1434
  869MOL0     C14629  10.124  10.367   7.571 -0.9137 -0.1050 -0.2869
  869MOL0     C14630  10.513  10.562   7.708 -0.6370  0.1369  0.0809
  869MOL0     C14631  10.612  10.457   7.708  0.6786 -0.0519 -0.2804
  869MOL0     C14632  10.738  10.498   7.680 -0.3947 -0.3195  0.2776
  869MOL0     C14633  10.777  10.627   7.664 -0.8342 -0.0467 -0.4630
  869MOL0     O14634  10.904  10.677   7.641 -0.3886  0.5219  0.1416
  869MOL0     C14635  11.012  10.590   7.621 -0.6637  0.1959  0.3058
  869MOL0     C14636  11.132  10.669   7.593 -0.6266  0.1168  0.0202
  869MOL0     C14637  11.256  10.580   7.575  0.2238  0.2223 -0.4672
  869MOL0     C14638  11.381  10.674   7.558  0.8570  0.0567 -0.2240
  869MOL0     C14639  11.508  10.614   7.587  0.8889  0.2652 -0.3272
  869MOL0     C14640  11.614  10.561   7.607  0.1905 -0.5703 -0.1894
  869MOL0     C14641  10.681  10.727   7.655  1.0043  0.3139  0.1713
  869MOL0     C14642  10.551  10.697   7.689 -0.4711  0.0496 -0.2301
  869MOL0     H14643  10.152  10.393   7.914  1.6652  0.3162 -1.0356
  869MOL0     H14644   9.919  10.291   7.894  0.3699  0.5701  0.5242
  869MOL0     H14645   9.673  10.301   7.840  0.9288  0.3094 -1.2668
  869MOL0     H14646   9.763  10.143   7.856 -1.7450 -2.2103  0.5821
  869MOL0     H14647   9.625  10.054   7.691 -0.5098  0.2733  0.8606
  869MOL0     H14648   9.541  10.213   7.659 -0.4416 -0.0135 -1.2819
  869MOL0     H14649   9.438  10.205   7.874  0.7808 -0.4981 -1.7115
  869MOL0     H14650   9.521  10.062   7.929  1.4169 -0.5712 -0.4548
  869MOL0     H14651   9.347  10.081   7.674  0.2427  0.4072 -0.0458
  869MOL0     H14652   9.418   9.940   7.757 -1.1087  0.3359 -2.0705
  869MOL0     H14653   9.204  10.114   7.890  0.8257  0.3142  0.1146
  869MOL0     H14654   9.255   9.947   7.939 -0.5680 -1.1254  0.2223
  869MOL0     H14655   9.201   9.867   7.716 -1.1302 -3.0140  1.8984
  869MOL0     H14656   9.106  10.020   7.691  0.0101  0.7523  0.9491
  869MOL0     H14657   9.064   9.786   7.902 -2.2537 -1.3584 -1.4763
  869MOL0     H14658   8.971   9.930   7.902 -1.9739 -0.4614 -2.1679
  869MOL0     H14659   9.004   9.724   7.662 -2.0725 -1.2252 -0.8145
  869MOL0     H14660   8.904   9.860   7.651 -0.4852 -1.8265 -2.0129
  869MOL0     H14661   8.942   9.565   7.936 -0.4525  0.7531  2.5964
  869MOL0     H14662   8.789   9.405   8.029  1.2909  0.0366 -0.9568
  869MOL0     H14663   8.660   9.352   7.920  0.0984 -2.1056  3.0750
  869MOL0     H14664   8.500   9.506   8.016 -0.9332 -0.8887 -1.0826
  869MOL0     H14665   8.617   9.532   8.149 -2.0596 -0.3976 -0.0975
  869MOL0     H14666   8.494   9.263   8.057 -2.1633 -1.0908  0.8932
  869MOL0     H14667   8.600   9.285   8.199  0.1141 -0.8056  0.7718
  869MOL0     H14668   8.345   9.437   8.192  0.4221 -0.4391 -1.0583
  869MOL0     H14669   8.453   9.411   8.330 -0.7439 -0.6660  0.9485
  869MOL0     H14670   8.194   9.194   8.078  0.2921 -1.6378  0.3100
  869MOL0     H14671   7.945   9.197   8.065 -0.1720 -0.1365 -0.7546
  869MOL0     H14672   7.511   9.297   8.157 -0.0292 -2.4075 -0.0823
  869MOL0     H14673   7.280   9.342   8.195  0.5879 -1.6417  0.4910
  869MOL0     H14674   7.160   9.529   8.580  2.4726 -1.2768 -1.1373
  869MOL0     H14675   7.008   9.539   8.484  0.0946  0.9718  1.0537
  869MOL0     H14676   7.255   9.724   8.448 -0.4694 -1.9762 -0.7702
  869MOL0     H14677   7.087   9.763   8.499 -0.5104 -0.0252  0.0887
  869MOL0     H14678   7.152   9.669   8.224  2.2172  0.8508  0.4162
  869MOL0     H14679   7.127   9.836   8.267 -0.3581 -0.2693 -4.5614
  869MOL0     H14680   6.929   9.708   8.173  0.2044  0.9246 -1.6943
  869MOL0     H14681   6.898   9.650   8.337 -0.4211  1.4767  1.2436
  869MOL0     H14682   6.913   9.942   8.260 -2.9810  3.2236  0.4526
  869MOL0     H14683   6.869   9.875   8.428  0.2469  0.2953 -0.6968
  869MOL0     H14684   6.689   9.745   8.344  0.3719 -0.7686  0.6086
  869MOL0     H14685   6.704   9.808   8.180 -2.4690  1.4525  0.2852
  869MOL0     H14686   6.528   9.926   8.351 -0.9027  0.5050 -2.3289
  869MOL0     H14687   6.670   9.992   8.413 -0.0724 -4.3382  2.5130
  869MOL0     H14688   6.591   9.997   8.117 -3.7794  0.1828  1.4753
  869MOL0     H14689   6.697  10.123   8.208  0.0750  0.4472  0.8336
  869MOL0     H14690   7.361   9.575   8.548 -0.9049  2.3840 -1.8374
  869MOL0     H14691   7.596   9.504   8.527 -2.1639  0.0889  0.9407
  869MOL0     H14692   7.931   9.327   8.476 -1.0045  0.2815 -0.2033
  869MOL0     H14693   8.187   9.320   8.489  0.0840 -0.4143  0.1704
  869MOL0     H14694   9.934  10.321   7.480  2.2278  2.2270 -1.8266
  869MOL0     H14695  10.190  10.371   7.485  0.1841 -1.1850  0.4737
  869MOL0     H14696  10.590  10.351   7.708  0.0633 -0.0162  2.5469
  869MOL0     H14697  10.806  10.414   7.668  0.4242  0.2540  0.8463
  869MOL0     H14698  10.986  10.532   7.532  0.6259 -1.0217  0.6850
  869MOL0     H14699  11.034  10.515   7.697 -1.8676 -0.2464  0.2430
  869MOL0     H14700  11.109  10.735   7.509 -0.6206  0.1327  0.0317
  869MOL0     H14701  11.144  10.725   7.687  2.3654  0.3296 -0.3671
  869MOL0     H14702  11.238  10.507   7.496 -0.7990 -2.7687  2.3587
  869MOL0     H14703  11.275  10.522   7.665  1.7750  1.7250  0.2485
  869MOL0     H14704  11.379  10.714   7.456  2.6426 -0.8604 -0.6607
  869MOL0     H14705  11.369  10.758   7.628 -0.2882  0.1618 -0.5161
  869MOL0     H14706  11.712  10.520   7.613  0.8010  0.9861  1.8793
  869MOL0     H14707  10.704  10.829   7.626 -0.6584  0.4264 -0.9174
  869MOL0     H14708  10.485  10.783   7.683 -1.0510 -0.3535  0.3691
  870MOL0     O14709   1.414   3.369   8.200  0.0915 -0.1182 -0.9377
  870MOL0     C14710   1.475   3.263   8.180  1.0879 -0.4565 -0.7754
  870MOL0     O14711   1.431   3.140   8.212  0.2099  0.0764 -0.0102
  870MOL0     C14712   1.302   3.111   8.253 -0.7990  0.0546  0.8794
  870MOL0     C14713   1.283   2.977   8.285 -0.2057  0.6148 -0.7097
  870MOL0     C14714   1.160   2.930   8.311  0.5607 -0.0640 -0.7384
  870MOL0     C14715   1.045   3.012   8.307 -0.2413 -0.3890  0.0431
  870MOL0     O14716   0.924   2.957   8.330 -0.5008  0.0549  0.0245
  870MOL0     C14717   0.800   3.030   8.300 -0.3103  0.2243 -0.5419
  870MOL0     C14718   0.696   2.929   8.349 -0.2656 -0.5170  0.4480
  870MOL0     C14719   0.565   2.995   8.341  0.0483  0.4537  0.0057
  870MOL0     C14720   0.453   2.892   8.330  0.3513  0.5893 -0.7908
  870MOL0     C14721   0.325   2.958   8.266 -0.2895  0.0876  0.1240
  870MOL0     C14722   0.214   2.862   8.234 -0.0160  0.9239 -0.6074
  870MOL0     C14723   0.089   2.920   8.165  1.0547 -0.5675  1.9963
  870MOL0     C14724   0.098   2.900   8.014  0.3068  0.3390  0.3767
  870MOL0     N14725  -0.024   2.949   7.942  0.1340  0.3289  0.1731
  870MOL0     C14726  -0.136   2.881   7.931  0.6234  0.7010  0.3426
  870MOL0     C14727  -0.223   2.965   7.873  0.8747  0.9956 -1.0351
  870MOL0     C14728  -0.373   2.963   7.859 -0.3565 -0.0446  0.6670
  870MOL0     C14729  -0.410   2.823   7.785  0.1313  0.4240 -0.5282
  870MOL0     C14730  -0.561   2.794   7.768 -0.6638 -0.4545  0.6614
  870MOL0     C14731  -0.656   2.896   7.710  0.3538 -0.1973  0.1546
  870MOL0     O14732  -0.765   2.822   7.650  0.5122 -1.0379 -0.3910
  870MOL0     C14733  -0.863   2.893   7.593  0.3331  0.6768 -0.3031
  870MOL0     C14734  -0.969   2.822   7.533 -0.3622 -0.3557 -0.2331
  870MOL0     C14735  -1.085   2.883   7.495 -0.5179 -0.6925  0.0852
  870MOL0     C14736  -1.103   3.024   7.499  0.0844 -0.8633 -0.2133
  870MOL0     C14737  -1.221   3.092   7.447 -0.6511 -0.2873 -0.3479
  870MOL0     O14738  -1.316   3.007   7.390 -0.1642 -0.5050 -0.4120
  870MOL0     C14739  -1.441   3.051   7.345  0.5528 -0.5154 -0.3680
  870MOL0     C14740  -1.503   2.955   7.262 -0.3823  0.5734 -0.2087
  870MOL0     C14741  -1.615   2.978   7.192 -0.3564  0.4593  1.1075
  870MOL0     C14742  -1.673   3.105   7.196  0.9413 -0.4777  1.0506
  870MOL0     O14743  -1.779   3.145   7.125 -0.2672 -0.6115 -0.4923
  870MOL0     C14744  -1.890   3.061   7.115 -0.4523  0.1724 -0.6882
  870MOL0     C14745  -1.967   3.079   6.987  0.2072  1.0574 -0.0923
  870MOL0     C14746  -2.085   2.977   6.978 -0.1797  0.5477  0.4170
  870MOL0     C14747  -2.186   3.017   6.868  0.6484  0.0039  0.4412
  870MOL0     C14748  -2.309   2.921   6.876 -0.6663  1.1484 -0.1474
  870MOL0     C14749  -2.405   2.942   6.757 -0.1575  0.1671 -0.9686
  870MOL0     C14750  -2.504   3.062   6.782 -0.0629 -0.9251  0.7692
  870MOL0     C14751  -2.642   3.045   6.723  0.4171  0.3763 -0.5355
  870MOL0    Cl14752  -2.636   3.038   6.535 -0.2319 -0.1364 -0.2088
  870MOL0     C14753  -1.606   3.208   7.273 -0.6807 -0.6430  0.9587
  870MOL0     C14754  -1.495   3.178   7.350 -0.2859 -0.0330  0.1793
  870MOL0     O14755  -1.224   3.213   7.449 -0.2896 -0.1022  0.2840
  870MOL0     C14756  -0.998   3.099   7.555 -0.2394  0.4073 -0.3708
  870MOL0     C14757  -0.879   3.033   7.599  0.3402  0.5894  1.0795
  870MOL0     N14758  -0.161   3.084   7.843 -0.2377 -0.0447  0.0387
  870MOL0     N14759  -0.045   3.071   7.889 -0.0938  0.8641 -0.0086
  870MOL0     C14760   1.063   3.141   8.262  0.2923  0.1249  0.2550
  870MOL0     C14761   1.191   3.192   8.231  0.0550  0.6377 -0.0787
  870MOL0     C14762   1.617   3.277   8.132  0.3617 -0.2174 -0.1498
  870MOL0     C14763   1.678   3.168   8.079 -0.4962 -0.3072  1.0363
  870MOL0     C14764   1.809   3.179   8.036  0.2115 -0.4060 -0.4591
  870MOL0     C14765   1.887   3.293   8.052 -0.1634  0.3198 -0.6236
  870MOL0     O14766   2.015   3.313   7.999  0.1660  0.2052 -0.2413
  870MOL0     C14767   2.085   3.201   7.940 -0.4658  0.4835  0.6714
  870MOL0     C14768   2.229   3.219   7.905  0.4821 -0.5821 -0.5217
  870MOL0     C14769   2.333   3.253   8.017  1.3442 -0.5030  0.2831
  870MOL0     C14770   2.360   3.146   8.121  0.0567 -0.2945  0.0446
  870MOL0     C14771   2.506   3.136   8.130 -0.9490 -0.3588 -0.3808
  870MOL0     C14772   2.623   3.147   8.143 -0.8881 -0.5193  0.3979
  870MOL0     C14773   1.833   3.404   8.106  0.5744 -0.7516 -0.5845
  870MOL0     C14774   1.698   3.394   8.151  0.8121  1.0885  0.0751
  870MOL0     H14775   1.363   2.904   8.299 -0.8078 -0.3578 -2.1492
  870MOL0     H14776   1.155   2.826   8.340  0.2939 -0.2877 -1.5420
  870MOL0     H14777   0.783   3.040   8.193 -1.1510  1.9892 -0.2870
  870MOL0     H14778   0.805   3.126   8.352  1.1395  0.5202 -1.1788
  870MOL0     H14779   0.712   2.900   8.453 -2.1419  0.0579  0.9365
  870MOL0     H14780   0.696   2.847   8.277 -0.8339  1.5231 -1.9981
  870MOL0     H14781   0.573   3.064   8.257  1.5064  2.0738  1.3898
  870MOL0     H14782   0.555   3.046   8.437  1.3500 -2.0313  1.5539
  870MOL0     H14783   0.487   2.805   8.273  1.8650 -0.0380  0.9409
  870MOL0     H14784   0.431   2.861   8.433  0.3506 -0.5677 -1.1333
  870MOL0     H14785   0.353   3.002   8.170  0.4822  1.7361  1.0745
  870MOL0     H14786   0.276   3.030   8.331 -0.4049  1.8696 -1.8404
  870MOL0     H14787   0.175   2.815   8.324 -0.2877  1.3482 -0.5020
  870MOL0     H14788   0.260   2.785   8.170 -1.2293  1.2169 -1.8861
  870MOL0     H14789  -0.003   2.871   8.197 -0.3750 -1.9122 -3.1762
  870MOL0     H14790   0.099   3.027   8.188  1.8800 -0.1607  0.0150
  870MOL0     H14791   0.118   2.794   7.998  1.2777  0.5837 -0.1702
  870MOL0     H14792   0.188   2.950   7.976  0.6331  0.3736  1.1749
  870MOL0     H14793  -0.167   2.785   7.971 -1.0625  0.1022 -2.1980
  870MOL0     H14794  -0.392   3.045   7.789 -0.9817 -1.5181 -0.9418
  870MOL0     H14795  -0.424   2.984   7.953 -1.2706  0.4596  0.0746
  870MOL0     H14796  -0.366   2.741   7.842 -2.9309 -1.5709 -0.8051
  870MOL0     H14797  -0.359   2.807   7.689 -1.1330  0.2038 -1.1971
  870MOL0     H14798  -0.560   2.703   7.707  3.5873 -0.4105  0.3400
  870MOL0     H14799  -0.591   2.764   7.869  1.7490 -0.8253  1.3436
  870MOL0     H14800  -0.605   2.959   7.635 -2.4949  0.8809 -1.0253
  870MOL0     H14801  -0.701   2.957   7.789 -1.6357  1.5055 -2.1484
  870MOL0     H14802  -0.963   2.714   7.541 -0.8006 -0.2900  1.3668
  870MOL0     H14803  -1.163   2.811   7.473  1.3862 -2.5060 -1.0013
  870MOL0     H14804  -1.452   2.859   7.260 -0.8603  0.2694  1.1238
  870MOL0     H14805  -1.656   2.914   7.115 -0.3213  2.2793 -0.5275
  870MOL0     H14806  -1.961   3.075   7.197  1.4065 -0.4275  1.1070
  870MOL0     H14807  -1.856   2.958   7.123  0.7987  0.6076 -0.2646
  870MOL0     H14808  -1.901   3.079   6.899 -2.1207  1.1305 -1.9449
  870MOL0     H14809  -2.002   3.183   6.985 -2.9287  0.1144  0.5273
  870MOL0     H14810  -2.124   2.964   7.080  1.9124 -1.9490  1.0124
  870MOL0     H14811  -2.044   2.877   6.965  1.7412  0.6755  4.0759
  870MOL0     H14812  -2.226   3.116   6.891 -0.9546 -0.4267 -0.3490
  870MOL0     H14813  -2.148   3.014   6.765 -1.8760 -0.5357 -0.5613
  870MOL0     H14814  -2.360   2.932   6.972  1.0036 -1.9887  1.2510
  870MOL0     H14815  -2.260   2.823   6.883 -2.1722  0.1098 -2.5755
  870MOL0     H14816  -2.464   2.849   6.758  1.8637 -1.1844 -1.5742
  870MOL0     H14817  -2.353   2.956   6.662  0.0772  4.9972 -0.3732
  870MOL0     H14818  -2.519   3.078   6.889 -1.0062  2.1563  0.2784
  870MOL0     H14819  -2.466   3.162   6.757 -4.2408  0.3999 -1.1966
  870MOL0     H14820  -2.711   3.125   6.751 -0.1699  0.3517 -1.8531
  870MOL0     H14821  -2.683   2.951   6.764 -0.9930  0.6950 -1.1360
  870MOL0     H14822  -1.641   3.309   7.256  2.0944  0.3683  0.7800
  870MOL0     H14823  -1.444   3.256   7.406  1.6233 -1.7203  0.9085
  870MOL0     H14824  -0.994   3.207   7.540  3.3573  0.1960 -1.8665
  870MOL0     H14825  -0.797   3.097   7.630  1.2407 -0.7360  1.5231
  870MOL0     H14826   0.974   3.203   8.269 -0.6705 -1.3692  3.1290
  870MOL0     H14827   1.198   3.295   8.196  1.2348  0.5903 -0.0148
  870MOL0     H14828   1.624   3.074   8.076 -0.5850 -0.2578  1.0478
  870MOL0     H14829   1.850   3.096   7.980 -1.1941 -0.4554 -1.4921
  870MOL0     H14830   2.026   3.178   7.851  0.9870  1.6058 -0.6323
  870MOL0     H14831   2.083   3.111   8.003  0.3373  0.0262  0.0535
  870MOL0     H14832   2.269   3.129   7.857  1.1155 -1.9034  2.2635
  870MOL0     H14833   2.230   3.297   7.828 -0.9770  0.1623  0.1744
  870MOL0     H14834   2.303   3.346   8.067  0.2359  0.3036 -1.7493
  870MOL0     H14835   2.425   3.275   7.962 -0.8083  1.5653 -2.7914
  870MOL0     H14836   2.314   3.179   8.215 -0.3650  1.3780 -0.7172
  870MOL0     H14837   2.325   3.048   8.089 -0.5714 -0.1726  0.3480
  870MOL0     H14838   2.728   3.152   8.161 -1.0367  0.8339  1.0188
  870MOL0     H14839   1.880   3.499   8.129  5.4647 -3.3647  1.6976
  870MOL0     H14840   1.649   3.470   8.211 -0.8085 -1.2222  1.8722
  871MOL0     O14841   6.032   3.520   3.449  0.2772  0.1601  0.3972
  871MOL0     C14842   6.070   3.426   3.376 -0.2989 -0.0508  0.3438
  871MOL0     O14843   5.987   3.360   3.279  0.0300 -0.1196 -0.5127
  871MOL0     C14844   5.859   3.399   3.261  1.4846  0.8561  0.0026
  871MOL0     C14845   5.764   3.386   3.364 -0.2290  0.0654 -0.6035
  871MOL0     C14846   5.630   3.412   3.342  0.9677  0.0527 -0.1134
  871MOL0     C14847   5.588   3.435   3.210  0.9068  0.5944 -1.1125
  871MOL0     O14848   5.456   3.467   3.199 -0.1562  0.3969 -0.4561
  871MOL0     C14849   5.413   3.564   3.106  0.0958  0.1925  0.2041
  871MOL0     C14850   5.273   3.609   3.136 -0.2248 -0.4630  0.8626
  871MOL0     C14851   5.249   3.633   3.280  0.1336  0.3279  0.1760
  871MOL0     C14852   5.353   3.723   3.344  0.0302  0.5503  0.2065
  871MOL0     C14853   5.369   3.857   3.273 -0.4807 -0.4304  0.8499
  871MOL0     C14854   5.246   3.947   3.293  0.2680 -0.8345  0.1333
  871MOL0     C14855   5.256   4.077   3.217 -0.9689 -0.0231 -0.8065
  871MOL0     C14856   5.357   4.174   3.289  0.7783  0.8481  0.1571
  871MOL0     N14857   5.335   4.203   3.435 -0.0136  0.0507  0.6898
  871MOL0     C14858   5.390   4.135   3.538 -0.3570  0.3031 -0.5750
  871MOL0     C14859   5.323   4.168   3.654  0.2590  0.4243  0.1344
  871MOL0     C14860   5.332   4.118   3.792 -0.6105 -0.3066 -0.4448
  871MOL0     C14861   5.191   4.137   3.856 -0.3331 -0.4743  0.1919
  871MOL0     C14862   5.194   4.078   3.989 -0.4777  0.5174 -0.6711
  871MOL0     C14863   5.061   4.101   4.067 -0.0661 -0.1847 -0.8500
  871MOL0     O14864   4.960   4.025   3.999  0.4777  0.0174 -0.5095
  871MOL0     C14865   4.845   3.997   4.072 -0.0701  0.4602 -0.4564
  871MOL0     C14866   4.860   3.913   4.184  0.4252  0.0261 -0.1811
  871MOL0     C14867   4.754   3.884   4.272 -0.7109 -0.3254 -0.9401
  871MOL0     C14868   4.638   3.954   4.257 -0.1211  1.4446 -0.2747
  871MOL0     C14869   4.522   3.921   4.353  0.1982 -0.2382 -0.1721
  871MOL0     O14870   4.402   3.962   4.308  1.1758  0.8103 -0.1587
  871MOL0     C14871   4.290   3.942   4.387 -0.5395  0.7736 -0.0000
  871MOL0     C14872   4.223   4.047   4.448  0.2227  0.5343  0.5407
  871MOL0     C14873   4.106   4.019   4.518 -0.2070 -0.2622 -0.8580
  871MOL0     C14874   4.057   3.891   4.549 -1.1082  0.0993 -0.3340
  871MOL0     O14875   3.940   3.867   4.619  0.2097 -0.5392 -0.7765
  871MOL0     C14876   3.879   3.734   4.614  0.6672  0.7381 -0.2567
  871MOL0     C14877   3.738   3.753   4.658 -0.3575  0.2988  0.1428
  871MOL0     C14878   3.647   3.639   4.616  0.1645 -0.0032 -0.3613
  871MOL0     C14879   3.516   3.652   4.700 -0.1753 -0.4297  0.1565
  871MOL0     C14880   3.429   3.531   4.689 -0.2355 -0.0257  0.1074
  871MOL0     C14881   3.356   3.517   4.547  0.4499  0.5129  0.2764
  871MOL0     C14882   3.234   3.603   4.551 -0.1192  0.4602 -0.3422
  871MOL0     C14883   3.163   3.588   4.416  0.4100 -0.9868  0.9119
  871MOL0    Cl14884   3.070   3.436   4.413 -0.0402 -0.0758 -0.1245
  871MOL0     C14885   4.130   3.789   4.495  0.3037  0.2476 -0.2668
  871MOL0     C14886   4.241   3.809   4.415 -0.6751 -0.3802  0.4231
  871MOL0     O14887   4.547   3.859   4.452 -0.0192 -0.0494  0.0250
  871MOL0     C14888   4.621   4.035   4.141  0.5403  0.1464 -0.2874
  871MOL0     C14889   4.725   4.057   4.058  0.8749  0.5885 -0.0079
  871MOL0     N14890   5.228   4.265   3.605  0.2175 -0.4388 -0.0870
  871MOL0     N14891   5.240   4.293   3.483  0.4683  0.8635 -0.7505
  871MOL0     C14892   5.682   3.460   3.109 -0.1756  0.1249 -0.0659
  871MOL0     C14893   5.817   3.439   3.140 -0.3644  0.0493  0.0300
  871MOL0     C14894   6.213   3.382   3.390  0.4628  0.3357 -0.6749
  871MOL0     C14895   6.310   3.458   3.457  0.2438 -0.2718  0.1562
  871MOL0     C14896   6.438   3.406   3.463  0.2807 -0.2812  0.2021
  871MOL0     C14897   6.476   3.289   3.403  0.4648 -0.7505  0.0142
  871MOL0     O14898   6.602   3.244   3.402 -0.2488 -0.6309 -0.1119
  871MOL0     C14899   6.711   3.320   3.466  0.0572 -0.5321  0.7707
  871MOL0     C14900   6.840   3.246   3.450  0.5429  0.5663  0.1159
  871MOL0     C14901   6.903   3.300   3.329  0.8699 -0.4078  0.3416
  871MOL0     C14902   7.043   3.229   3.312  0.6005 -0.3106 -0.1190
  871MOL0     C14903   7.123   3.298   3.208  0.2752  0.4415  0.0705
  871MOL0     C14904   7.173   3.335   3.101 -0.1835  0.5951  0.8027
  871MOL0     C14905   6.376   3.223   3.330 -0.6498 -0.2565 -0.2031
  871MOL0     C14906   6.249   3.266   3.329 -0.3666  0.7629  0.0820
  871MOL0     H14907   5.792   3.346   3.460  0.1144 -0.7947 -1.0507
  871MOL0     H14908   5.554   3.399   3.418 -1.0623 -0.0396 -2.0479
  871MOL0     H14909   5.406   3.526   3.003  0.0283 -1.0925  0.6754
  871MOL0     H14910   5.483   3.648   3.100  0.2410 -0.0271 -3.1653
  871MOL0     H14911   5.205   3.530   3.103 -0.7340  0.0695  0.6259
  871MOL0     H14912   5.248   3.698   3.079 -1.7396 -0.5226  1.4038
  871MOL0     H14913   5.253   3.540   3.337 -1.6139  1.1146  1.6782
  871MOL0     H14914   5.152   3.680   3.297 -0.8618 -0.4716 -2.7014
  871MOL0     H14915   5.326   3.749   3.447 -3.4863  1.3983 -0.8096
  871MOL0     H14916   5.450   3.671   3.345 -1.4522 -2.4145  0.1717
  871MOL0     H14917   5.384   3.850   3.165 -1.4046  0.0709  0.6778
  871MOL0     H14918   5.459   3.908   3.307  1.0384 -0.6320 -2.4446
  871MOL0     H14919   5.218   3.959   3.398 -0.3836 -3.3877  0.2988
  871MOL0     H14920   5.169   3.892   3.238 -1.7822  0.8167  1.1617
  871MOL0     H14921   5.292   4.063   3.115  0.9680  1.7299 -0.4325
  871MOL0     H14922   5.160   4.127   3.199 -1.7782  0.0868  2.9869
  871MOL0     H14923   5.338   4.271   3.241 -1.4721  1.3513  1.9134
  871MOL0     H14924   5.461   4.147   3.268  0.9737  0.6776  1.2916
  871MOL0     H14925   5.469   4.061   3.533  1.5961  2.3863 -4.0348
  871MOL0     H14926   5.411   4.167   3.849 -0.2175 -0.3691 -0.9370
  871MOL0     H14927   5.342   4.009   3.795  1.5561 -0.1557 -0.7853
  871MOL0     H14928   5.127   4.073   3.795  2.0928 -2.8950  0.0080
  871MOL0     H14929   5.170   4.244   3.858  3.0760  0.3086  0.7310
  871MOL0     H14930   5.209   3.970   3.984 -1.9888  0.1042  2.0153
  871MOL0     H14931   5.284   4.111   4.042 -2.0541  1.0056  1.8601
  871MOL0     H14932   5.028   4.205   4.079 -1.6292 -0.4649 -2.4091
  871MOL0     H14933   5.070   4.068   4.171  0.9261  2.4609  0.0065
  871MOL0     H14934   4.951   3.855   4.196 -0.7812 -1.8064  0.5827
  871MOL0     H14935   4.771   3.812   4.351 -3.2829 -0.5011 -0.4698
  871MOL0     H14936   4.247   4.150   4.426  1.6444  0.0286 -0.4310
  871MOL0     H14937   4.044   4.104   4.546  0.5028  1.8716 -4.8753
  871MOL0     H14938   3.930   3.671   4.687 -0.3003 -0.7518 -0.8275
  871MOL0     H14939   3.882   3.700   4.510 -0.8375 -1.5077  0.3705
  871MOL0     H14940   3.695   3.844   4.615  0.2363 -1.2245 -4.1693
  871MOL0     H14941   3.733   3.760   4.767  2.0183  0.9713  0.2646
  871MOL0     H14942   3.701   3.545   4.627  0.2098  0.2418  2.0597
  871MOL0     H14943   3.621   3.644   4.510 -0.1584 -0.0649 -0.2868
  871MOL0     H14944   3.546   3.656   4.805 -1.4715 -1.9818  0.6344
  871MOL0     H14945   3.451   3.738   4.685 -0.6122 -1.1987 -3.1009
  871MOL0     H14946   3.361   3.537   4.774  0.9328  1.8635  0.9664
  871MOL0     H14947   3.494   3.447   4.716 -0.3323  0.2291  1.1935
  871MOL0     H14948   3.324   3.412   4.543  0.0471  0.6696 -3.4961
  871MOL0     H14949   3.414   3.539   4.458 -1.7687  2.5371 -0.7891
  871MOL0     H14950   3.165   3.573   4.631  1.1675  3.4746  2.1030
  871MOL0     H14951   3.263   3.707   4.571  0.4704  0.0110  1.2821
  871MOL0     H14952   3.223   3.583   4.325 -0.0766 -2.0926  0.6321
  871MOL0     H14953   3.094   3.671   4.401  1.7463  1.1182  4.8014
  871MOL0     H14954   4.102   3.686   4.509  0.7874  0.0671 -0.6153
  871MOL0     H14955   4.299   3.727   4.374 -0.6158  0.2720 -0.8257
  871MOL0     H14956   4.529   4.093   4.135 -0.6488 -1.6696 -0.2732
  871MOL0     H14957   4.705   4.120   3.972 -1.1666 -3.7172 -3.0223
  871MOL0     H14958   5.660   3.476   3.004  1.3287  4.1229  0.0485
  871MOL0     H14959   5.882   3.450   3.053  1.7237 -0.3944  1.4661
  871MOL0     H14960   6.292   3.548   3.515  1.0236 -0.0472  0.0607
  871MOL0     H14961   6.511   3.466   3.517 -1.0860  1.1663  0.5082
  871MOL0     H14962   6.680   3.328   3.570  2.2202  2.7996  1.3055
  871MOL0     H14963   6.708   3.418   3.417 -1.9843 -2.0939 -2.6824
  871MOL0     H14964   6.904   3.258   3.538  1.0670  0.7825 -0.2891
  871MOL0     H14965   6.816   3.140   3.438 -2.2140  1.0266  0.9593
  871MOL0     H14966   6.925   3.407   3.335 -1.2248  0.6209 -5.1490
  871MOL0     H14967   6.843   3.282   3.240  0.2480  1.8007  0.2441
  871MOL0     H14968   7.107   3.225   3.401  2.2649  1.0239 -1.1858
  871MOL0     H14969   7.044   3.123   3.285 -0.1304 -1.2143  2.9181
  871MOL0     H14970   7.213   3.376   3.010 -1.1266 -2.3369 -1.0814
  871MOL0     H14971   6.407   3.131   3.282 -0.0524 -0.0749 -0.1763
  871MOL0     H14972   6.173   3.212   3.272  0.9577  0.7797 -1.8172
  872MOL0     O14973   5.443   1.047   4.100  0.3865  0.1473  0.0042
  872MOL0     C14974   5.478   1.133   4.018 -0.4599 -0.5661 -0.2999
  872MOL0     O14975   5.408   1.250   3.985  0.1943  0.1374  0.3000
  872MOL0     C14976   5.281   1.252   4.029  1.1315 -0.2746 -0.1399
  872MOL0     C14977   5.237   1.328   4.138 -0.3769 -0.0851  0.4182
  872MOL0     C14978   5.111   1.328   4.180 -0.0271 -0.7156  0.5225
  872MOL0     C14979   5.016   1.252   4.103 -0.5341 -0.5156  0.2062
  872MOL0     O14980   4.889   1.259   4.161 -0.1515  0.1609 -0.4630
  872MOL0     C14981   4.781   1.231   4.068  0.0972 -0.4395  0.1921
  872MOL0     C14982   4.640   1.253   4.141  0.6821  0.4268  0.1804
  872MOL0     C14983   4.595   1.402   4.142  0.8957 -0.5603 -0.6521
  872MOL0     C14984   4.443   1.417   4.169  0.4373 -0.3183  0.5255
  872MOL0     C14985   4.391   1.560   4.182 -0.4744  0.4305 -0.4590
  872MOL0     C14986   4.237   1.558   4.202 -0.3041  0.7261  0.5264
  872MOL0     C14987   4.165   1.696   4.207  0.4858 -1.0300  0.3105
  872MOL0     C14988   4.212   1.785   4.318 -0.1622 -0.1417 -0.2292
  872MOL0     N14989   4.090   1.866   4.344  0.2106  0.2117  0.7518
  872MOL0     C14990   4.028   1.958   4.261 -0.8467 -0.3153 -0.0582
  872MOL0     C14991   3.921   1.995   4.331 -0.1468 -0.2365  0.3513
  872MOL0     C14992   3.834   2.104   4.278  0.0432 -0.2440 -0.3568
  872MOL0     C14993   3.693   2.059   4.273  0.5662  0.2075 -0.9809
  872MOL0     C14994   3.605   2.180   4.252 -0.2490 -0.4652  0.6752
  872MOL0     C14995   3.461   2.152   4.241 -0.6100 -0.1193 -0.7430
  872MOL0     O14996   3.399   2.252   4.163 -1.0229 -0.6303  0.4763
  872MOL0     C14997   3.261   2.262   4.161  0.5307 -0.2255 -0.4555
  872MOL0     C14998   3.173   2.155   4.184  0.1151  0.1273 -0.2018
  872MOL0     C14999   3.034   2.166   4.191 -0.1333 -0.3705  0.4103
  872MOL0     C15000   2.976   2.289   4.176  0.8985 -0.7575  0.0170
  872MOL0     C15001   2.826   2.303   4.156  0.3786 -0.6325 -0.2831
  872MOL0     O15002   2.773   2.429   4.158  0.2602 -0.1628 -0.2196
  872MOL0     C15003   2.638   2.440   4.140 -0.5593  0.3863 -0.1509
  872MOL0     C15004   2.559   2.451   4.249  0.5291 -0.3781 -0.3708
  872MOL0     C15005   2.425   2.467   4.232  0.4971 -0.0418 -0.1577
  872MOL0     C15006   2.369   2.483   4.106 -0.8536  1.1206 -0.1563
  872MOL0     O15007   2.232   2.495   4.106 -0.1058  0.1479  0.5586
  872MOL0     C15008   2.152   2.404   4.030 -0.5625 -0.2388  0.1079
  872MOL0     C15009   2.051   2.488   3.947  0.5221  0.1728 -0.1023
  872MOL0     C15010   2.122   2.576   3.852 -0.2257 -0.2740  0.9030
  872MOL0     C15011   2.032   2.678   3.778  0.4193  0.0799  0.4934
  872MOL0     C15012   2.110   2.782   3.698  0.6039 -0.1210 -0.6720
  872MOL0     C15013   2.024   2.889   3.640 -0.0955  0.3321  0.0341
  872MOL0     C15014   1.917   2.953   3.737  0.2688  0.3513 -0.2053
  872MOL0     C15015   1.848   3.068   3.672  0.6534 -1.1600 -0.1330
  872MOL0    Cl15016   1.810   3.039   3.497  0.1515  0.1090 -0.5489
  872MOL0     C15017   2.453   2.480   3.992  0.2351 -0.4368 -0.3107
  872MOL0     C15018   2.588   2.458   4.016 -0.2566 -1.5636  0.0804
  872MOL0     O15019   2.759   2.206   4.142  0.7887  0.3603  0.1807
  872MOL0     C15020   3.062   2.399   4.143 -0.4329 -0.2891  0.2415
  872MOL0     C15021   3.202   2.390   4.145 -0.5122  1.7561  0.0533
  872MOL0     N15022   3.911   1.915   4.444 -0.0277  0.0185 -0.5848
  872MOL0     N15023   4.012   1.841   4.452  0.3557 -0.6397  0.2602
  872MOL0     C15024   5.050   1.178   3.995 -0.3118 -0.1886 -1.3768
  872MOL0     C15025   5.185   1.174   3.963 -0.8639 -0.1276  0.0855
  872MOL0     C15026   5.616   1.125   3.966  0.4264 -0.1504  0.9505
  872MOL0     C15027   5.658   1.182   3.839 -0.0503 -0.3740  0.3001
  872MOL0     C15028   5.792   1.193   3.808  0.3311  0.3068  1.1200
  872MOL0     C15029   5.895   1.128   3.883  1.0042 -0.0348 -0.0760
  872MOL0     O15030   6.025   1.144   3.858 -1.0111  0.1020 -0.6599
  872MOL0     C15031   6.076   1.174   3.728 -0.1929 -0.3651  0.4043
  872MOL0     C15032   6.233   1.178   3.732  0.2268  0.2371  0.1006
  872MOL0     C15033   6.287   1.059   3.807 -0.0898 -0.6544  0.1998
  872MOL0     C15034   6.436   1.045   3.778  0.6615  0.7562 -0.1628
  872MOL0     C15035   6.497   0.943   3.864  0.5897  0.4648 -0.3659
  872MOL0     C15036   6.541   0.849   3.928 -0.2077  0.4466  0.4785
  872MOL0     C15037   5.853   1.049   3.995 -0.2655 -0.6473 -0.1442
  872MOL0     C15038   5.715   1.060   4.039 -0.1412  0.0962 -0.3177
  872MOL0     H15039   5.309   1.393   4.186 -1.2468  2.4379 -1.4315
  872MOL0     H15040   5.079   1.388   4.264 -1.6423  1.5272 -1.5439
  872MOL0     H15041   4.783   1.124   4.043 -3.0385 -0.7489  0.7400
  872MOL0     H15042   4.793   1.291   3.977 -1.5251 -1.1820 -0.5561
  872MOL0     H15043   4.649   1.213   4.242 -0.2407 -0.9309 -0.2491
  872MOL0     H15044   4.569   1.187   4.090  0.3489  1.0437 -0.1696
  872MOL0     H15045   4.625   1.452   4.050 -1.1189  0.0830 -1.0017
  872MOL0     H15046   4.643   1.458   4.224 -0.0510  1.1103 -1.2031
  872MOL0     H15047   4.387   1.354   4.099  2.4175 -0.7575 -0.7550
  872MOL0     H15048   4.430   1.364   4.264  1.5275 -1.7012 -0.0520
  872MOL0     H15049   4.421   1.611   4.090  0.4889 -0.1649 -0.4927
  872MOL0     H15050   4.432   1.615   4.267  2.2056  1.2894 -2.1689
  872MOL0     H15051   4.218   1.512   4.299  1.2789 -0.3432  0.3480
  872MOL0     H15052   4.189   1.490   4.131  0.9833 -0.7937  1.0801
  872MOL0     H15053   4.191   1.739   4.109  0.1394  1.7614  1.3441
  872MOL0     H15054   4.058   1.676   4.209  0.9536 -4.0139  1.9148
  872MOL0     H15055   4.291   1.852   4.285 -0.4622  0.4927  0.3195
  872MOL0     H15056   4.241   1.735   4.411  4.0479  3.7549  0.9080
  872MOL0     H15057   4.057   2.002   4.166  0.5668  2.5772  1.5692
  872MOL0     H15058   3.865   2.139   4.179  0.8145 -0.5876 -0.2431
  872MOL0     H15059   3.843   2.189   4.347 -2.1101 -1.1571  1.1530
  872MOL0     H15060   3.660   2.019   4.369  0.0280  1.1356 -0.7599
  872MOL0     H15061   3.686   1.992   4.187 -0.1883 -0.8840 -0.0995
  872MOL0     H15062   3.624   2.262   4.321  1.6169  0.2257 -0.5734
  872MOL0     H15063   3.644   2.226   4.160  0.2286 -0.9917  0.6097
  872MOL0     H15064   3.410   2.138   4.337 -1.0309 -1.4027 -1.1321
  872MOL0     H15065   3.442   2.055   4.195 -0.9659 -0.0084 -0.8341
  872MOL0     H15066   3.206   2.052   4.190 -0.2015  0.0943  1.9791
  872MOL0     H15067   2.981   2.074   4.215  1.7294 -1.3898  0.8249
  872MOL0     H15068   2.605   2.428   4.344 -0.1257 -3.9411 -0.7780
  872MOL0     H15069   2.365   2.453   4.322 -0.2513 -2.6393 -0.9562
  872MOL0     H15070   2.100   2.337   4.100 -3.6684 -0.6485 -2.3665
  872MOL0     H15071   2.219   2.339   3.973 -1.2405 -2.4166  1.6250
  872MOL0     H15072   2.006   2.563   4.014 -0.1753 -0.2359 -0.1096
  872MOL0     H15073   1.977   2.421   3.904  0.6655 -1.3964  1.9690
  872MOL0     H15074   2.182   2.516   3.783  0.4563 -1.3772  2.4223
  872MOL0     H15075   2.193   2.637   3.910  1.1670 -0.2859 -0.6979
  872MOL0     H15076   1.964   2.627   3.710  2.2394 -2.1981  0.2539
  872MOL0     H15077   1.979   2.729   3.859  1.2661  1.0236  0.4787
  872MOL0     H15078   2.161   2.733   3.615  1.3720  1.2837 -1.0635
  872MOL0     H15079   2.175   2.829   3.772 -3.6470  2.2677  2.0039
  872MOL0     H15080   1.975   2.841   3.555  0.5064 -2.8373  1.3239
  872MOL0     H15081   2.087   2.972   3.607  0.3803 -0.0811 -0.1084
  872MOL0     H15082   1.846   2.872   3.757 -0.9093  0.6392 -2.8984
  872MOL0     H15083   1.962   2.969   3.836 -0.0618 -0.1847  0.0402
  872MOL0     H15084   1.900   3.163   3.687  0.9389 -1.2819 -0.3374
  872MOL0     H15085   1.765   3.094   3.739  0.8303 -0.7012 -0.0888
  872MOL0     H15086   2.421   2.490   3.889  1.3010 -0.7490 -0.6859
  872MOL0     H15087   2.659   2.471   3.935 -0.3952 -1.7174 -0.0688
  872MOL0     H15088   3.012   2.492   4.117 -0.0863 -0.7457 -2.3307
  872MOL0     H15089   3.267   2.476   4.132  0.6578  0.9821  0.6100
  872MOL0     H15090   4.985   1.109   3.941 -0.3898 -0.8227 -0.5048
  872MOL0     H15091   5.216   1.131   3.868  2.5693  1.6701  0.2623
  872MOL0     H15092   5.577   1.236   3.792  0.8793  3.4263  2.6567
  872MOL0     H15093   5.812   1.248   3.717 -2.6383 -1.5409 -0.8364
  872MOL0     H15094   6.039   1.269   3.686  0.1485  0.8462  2.6682
  872MOL0     H15095   6.045   1.092   3.663 -0.4227 -1.4078  1.7915
  872MOL0     H15096   6.281   1.171   3.634 -0.6996  0.5002 -0.3805
  872MOL0     H15097   6.267   1.276   3.768 -2.3301  2.1131 -2.1610
  872MOL0     H15098   6.228   0.974   3.773 -2.9425  1.8924 -1.7141
  872MOL0     H15099   6.257   1.071   3.912  0.9568  2.9524  0.2025
  872MOL0     H15100   6.454   1.013   3.675  0.7308 -2.1760  0.6783
  872MOL0     H15101   6.493   1.138   3.792  1.9834  0.3041 -2.1123
  872MOL0     H15102   6.580   0.774   3.994 -0.7162 -0.7086 -0.4793
  872MOL0     H15103   5.930   0.992   4.046 -0.7841 -1.6489 -0.4515
  872MOL0     H15104   5.686   1.016   4.133 -0.1200  1.2445  0.2499
  873MOL0     O15105  10.223   1.204   5.309 -0.1905 -0.4149 -0.4148
  873MOL0     C15106  10.205   1.319   5.342  0.3753 -0.3778 -0.3269
  873MOL0     O15107  10.085   1.381   5.357 -0.3134 -0.1631 -0.1693
  873MOL0     C15108   9.968   1.340   5.301 -0.0157 -0.4158  0.7440
  873MOL0     C15109   9.971   1.293   5.170 -0.1749  0.2949  0.3474
  873MOL0     C15110   9.851   1.260   5.098  0.4439 -0.3675 -0.2955
  873MOL0     C15111   9.732   1.281   5.159 -0.1908 -0.9014  0.2523
  873MOL0     O15112   9.616   1.236   5.099 -0.0194 -0.5260  0.0565
  873MOL0     C15113   9.499   1.319   5.103  0.4666 -0.1428 -0.2723
  873MOL0     C15114   9.389   1.272   5.005 -0.7684 -0.3901  0.5278
  873MOL0     C15115   9.427   1.281   4.860 -0.0723  0.3534 -0.4578
  873MOL0     C15116   9.349   1.181   4.778  0.0852  0.3323  0.7320
  873MOL0     C15117   9.198   1.215   4.750  0.1109  0.3043  0.0347
  873MOL0     C15118   9.111   1.105   4.702 -0.2668  0.9650  0.0059
  873MOL0     C15119   9.160   1.051   4.567  0.3160  0.2752 -0.0618
  873MOL0     C15120   9.089   0.916   4.541 -0.7794  0.4081 -0.1412
  873MOL0     N15121   8.944   0.917   4.503  0.2799 -1.3787 -0.9560
  873MOL0     C15122   8.841   0.915   4.589 -0.4522 -0.0311  0.0304
  873MOL0     C15123   8.732   0.922   4.505  0.3785 -0.8210 -0.2116
  873MOL0     C15124   8.586   0.935   4.546 -0.8230  0.0888 -0.7783
  873MOL0     C15125   8.496   0.853   4.454  0.2511  0.6688  0.3508
  873MOL0     C15126   8.344   0.879   4.484 -0.4797 -0.3606  0.4449
  873MOL0     C15127   8.252   0.805   4.391  0.1625 -0.0281  0.0339
  873MOL0     O15128   8.120   0.855   4.394  0.3557 -0.5509 -0.5717
  873MOL0     C15129   8.013   0.779   4.349 -0.4254  0.6084  0.5183
  873MOL0     C15130   7.896   0.850   4.345  0.5358  0.1619  0.1895
  873MOL0     C15131   7.778   0.786   4.306 -0.0868  0.4455 -0.9008
  873MOL0     C15132   7.787   0.642   4.285 -0.0119  0.0826 -0.9484
  873MOL0     C15133   7.666   0.569   4.244 -1.1494 -0.1261 -0.7513
  873MOL0     O15134   7.670   0.444   4.198 -0.8978  0.0465  0.4679
  873MOL0     C15135   7.571   0.356   4.219 -0.1430 -0.6327  0.6545
  873MOL0     C15136   7.537   0.285   4.104  0.7212 -0.3129 -0.2667
  873MOL0     C15137   7.421   0.215   4.106  0.1501  0.7410  0.3532
  873MOL0     C15138   7.344   0.196   4.219  0.1633 -0.9173 -0.1220
  873MOL0     O15139   7.225   0.124   4.221  0.3888 -0.2113 -0.0392
  873MOL0     C15140   7.167   0.066   4.103 -1.1503 -0.0437  0.2068
  873MOL0     C15141   7.020   0.031   4.143 -0.5770  0.1658  0.2547
  873MOL0     C15142   6.996  -0.047   4.277  0.0464  0.5675  0.3070
  873MOL0     C15143   6.846  -0.067   4.321  0.4907  0.6908  0.3173
  873MOL0     C15144   6.819  -0.163   4.440  0.4422 -0.8200  0.6382
  873MOL0     C15145   6.872  -0.110   4.574  0.0861 -0.6470 -0.7538
  873MOL0     C15146   6.809   0.013   4.636 -0.3863 -1.1440  0.8972
  873MOL0     C15147   6.659  -0.011   4.657 -0.4520  0.3910 -0.1030
  873MOL0    Cl15148   6.617  -0.154   4.761  0.2739 -0.6834 -0.1204
  873MOL0     C15149   7.384   0.261   4.333  1.1989 -0.3533 -0.4147
  873MOL0     C15150   7.497   0.347   4.334  0.4245  0.4849  0.4638
  873MOL0     O15151   7.559   0.633   4.255  0.0385 -0.0818 -0.7001
  873MOL0     C15152   7.904   0.571   4.288 -0.3820 -0.4742  0.3397
  873MOL0     C15153   8.021   0.644   4.315 -0.4680  0.0617  0.4060
  873MOL0     N15154   8.773   0.927   4.375  0.2003 -0.7246 -0.8936
  873MOL0     N15155   8.901   0.925   4.377  0.6331 -0.2047 -0.1842
  873MOL0     C15156   9.725   1.335   5.290  0.4378 -0.3690  0.8026
  873MOL0     C15157   9.844   1.362   5.355 -0.1612 -0.2175  0.0169
  873MOL0     C15158  10.329   1.405   5.362  0.2527 -0.4430 -0.2159
  873MOL0     C15159  10.453   1.349   5.338  0.0599 -0.1951 -0.5679
  873MOL0     C15160  10.575   1.419   5.358  0.5353  0.3040 -0.3665
  873MOL0     C15161  10.567   1.552   5.409 -0.1116  0.8904  0.7493
  873MOL0     O15162  10.695   1.597   5.431 -0.1038 -0.4726  0.1984
  873MOL0     C15163  10.718   1.728   5.476  0.9374 -0.5200  0.2192
  873MOL0     C15164  10.698   1.735   5.628 -0.3065  0.5875 -0.3678
  873MOL0     C15165  10.805   1.656   5.708  1.6172  0.4746 -0.2922
  873MOL0     C15166  10.766   1.646   5.850  0.2561  0.3613 -0.9025
  873MOL0     C15167  10.878   1.583   5.917  0.6915 -0.5712  0.0894
  873MOL0     C15168  10.965   1.540   5.985  0.6758 -0.1787 -0.4236
  873MOL0     C15169  10.439   1.616   5.427  0.0580 -0.9349  0.9232
  873MOL0     C15170  10.326   1.544   5.398 -0.2788  0.5815 -0.4589
  873MOL0     H15171  10.067   1.282   5.121 -0.8578 -1.1928 -0.7244
  873MOL0     H15172   9.854   1.212   5.001  0.3086 -2.0555  0.4989
  873MOL0     H15173   9.525   1.423   5.078 -1.5422  0.7353  1.0565
  873MOL0     H15174   9.454   1.318   5.202  1.9117  1.7617  0.4711
  873MOL0     H15175   9.300   1.331   5.026 -0.4509 -0.3375  1.8581
  873MOL0     H15176   9.362   1.172   5.040 -0.7701 -0.1123  1.3407
  873MOL0     H15177   9.532   1.256   4.843  0.1358 -2.4219  3.6192
  873MOL0     H15178   9.422   1.386   4.829 -1.1755  0.7209  0.9064
  873MOL0     H15179   9.394   1.179   4.678 -0.4296 -0.2188  0.5061
  873MOL0     H15180   9.364   1.087   4.831  0.9281  0.2223  0.3090
  873MOL0     H15181   9.192   1.286   4.666  0.0139 -0.7962 -0.9134
  873MOL0     H15182   9.148   1.254   4.839 -1.6136 -2.0170  0.1720
  873MOL0     H15183   9.007   1.137   4.694 -0.6351 -0.3298 -0.7271
  873MOL0     H15184   9.107   1.020   4.771  3.0159  0.3478 -0.3998
  873MOL0     H15185   9.141   1.127   4.491  3.5570  1.3677  0.0888
  873MOL0     H15186   9.263   1.014   4.570 -0.1733 -1.2171 -0.7391
  873MOL0     H15187   9.094   0.858   4.634 -1.8767 -0.7814 -0.8007
  873MOL0     H15188   9.152   0.867   4.466 -0.1461  1.3223 -0.2273
  873MOL0     H15189   8.838   0.905   4.697  0.9177 -3.4900 -0.1488
  873MOL0     H15190   8.563   1.041   4.530  1.7259  0.7148 -0.6709
  873MOL0     H15191   8.574   0.897   4.648  0.1268  1.8936  0.0343
  873MOL0     H15192   8.510   0.746   4.474 -2.2717 -0.4410 -2.8962
  873MOL0     H15193   8.518   0.881   4.350 -1.0338  1.7218  0.3468
  873MOL0     H15194   8.317   0.850   4.586 -0.7950  1.6098  0.9705
  873MOL0     H15195   8.326   0.986   4.467 -1.4401 -0.4255  0.9640
  873MOL0     H15196   8.265   0.702   4.425  1.9034 -0.6009 -2.1225
  873MOL0     H15197   8.281   0.818   4.286 -2.8183  2.4576 -0.6099
  873MOL0     H15198   7.896   0.956   4.371 -1.2536  0.0148  0.9190
  873MOL0     H15199   7.684   0.837   4.293 -1.8527 -1.7668  1.8919
  873MOL0     H15200   7.578   0.314   4.008 -1.3901 -1.2419 -1.5084
  873MOL0     H15201   7.386   0.168   4.016 -1.5182 -0.0490  1.3699
  873MOL0     H15202   7.227  -0.022   4.081 -0.2154  0.1882  1.7008
  873MOL0     H15203   7.171   0.132   4.016 -3.2725 -1.6210 -1.2125
  873MOL0     H15204   6.968  -0.022   4.062  0.9504  0.2458 -0.8180
  873MOL0     H15205   6.971   0.128   4.144 -2.2598 -0.6126 -1.0064
  873MOL0     H15206   7.050  -0.004   4.362  2.6385 -0.3871 -0.7591
  873MOL0     H15207   7.029  -0.149   4.255 -2.8126 -0.3536 -0.0640
  873MOL0     H15208   6.799   0.027   4.351 -0.5448  0.4606 -0.5391
  873MOL0     H15209   6.790  -0.106   4.235 -0.6991 -2.3449  2.2670
  873MOL0     H15210   6.870  -0.255   4.410  0.5360 -0.4294 -0.4459
  873MOL0     H15211   6.713  -0.188   4.432  0.8396 -2.1844 -0.8378
  873MOL0     H15212   6.977  -0.081   4.562  0.2094  0.9431  2.8435
  873MOL0     H15213   6.877  -0.195   4.643 -0.1156 -2.1384 -2.4973
  873MOL0     H15214   6.848   0.024   4.737 -1.0215  0.4002  1.0039
  873MOL0     H15215   6.827   0.106   4.581 -1.4838 -2.0307 -1.0860
  873MOL0     H15216   6.604  -0.009   4.563 -0.4778  0.7121 -0.0806
  873MOL0     H15217   6.629   0.071   4.723  1.8094  2.8885 -1.9381
  873MOL0     H15218   7.329   0.247   4.425  0.9283  0.1121 -0.5067
  873MOL0     H15219   7.534   0.404   4.419 -2.3452  2.0888  0.7002
  873MOL0     H15220   7.909   0.466   4.261 -1.0102 -0.9649  2.0303
  873MOL0     H15221   8.111   0.584   4.320 -1.1262 -1.2328 -1.9011
  873MOL0     H15222   9.632   1.353   5.343  1.8862  1.8600  2.7917
  873MOL0     H15223   9.841   1.411   5.452  0.1696  0.4255 -0.2849
  873MOL0     H15224  10.450   1.243   5.313 -0.9093 -0.1483 -0.6871
  873MOL0     H15225  10.664   1.366   5.323 -1.1060 -2.2104 -0.9841
  873MOL0     H15226  10.653   1.791   5.414 -2.7238 -1.4329  2.8136
  873MOL0     H15227  10.822   1.753   5.451  0.1790  2.0437 -0.7603
  873MOL0     H15228  10.699   1.841   5.658 -2.7547  0.6609 -0.3056
  873MOL0     H15229  10.598   1.695   5.650  0.3346 -2.3331 -2.2484
  873MOL0     H15230  10.903   1.702   5.690  2.0436 -0.5476 -0.6627
  873MOL0     H15231  10.813   1.555   5.666 -1.4945  0.4239 -1.0188
  873MOL0     H15232  10.752   1.745   5.894  3.2215  1.0621 -1.3290
  873MOL0     H15233  10.676   1.588   5.873  1.5282 -1.2562  0.2270
  873MOL0     H15234  11.044   1.500   6.044 -1.5255  1.0035  3.7408
  873MOL0     H15235  10.427   1.720   5.456 -1.6887 -1.5175  2.4745
  873MOL0     H15236  10.230   1.594   5.410 -0.6729 -0.3928  0.6411
  874MOL0     O15237   8.668  11.209   0.610  0.4571  0.2725 -0.7372
  874MOL0     C15238   8.704  11.281   0.703 -0.0951 -0.2832  0.9453
  874MOL0     O15239   8.618  11.331   0.809  0.3617 -0.6715  0.2850
  874MOL0     C15240   8.482  11.284   0.828  0.2677 -0.7306 -0.4211
  874MOL0     C15241   8.424  11.327   0.942  0.1659  0.1645  0.3619
  874MOL0     C15242   8.292  11.299   0.971  0.3749  0.3729  0.1148
  874MOL0     C15243   8.207  11.236   0.881  0.6473  0.0954  0.0216
  874MOL0     O15244   8.081  11.229   0.920  0.1815  0.1842 -0.1858
  874MOL0     C15245   7.973  11.245   0.822  0.3278 -0.1732  0.4130
  874MOL0     C15246   7.906  11.107   0.801  0.1384 -0.1386  0.7271
  874MOL0     C15247   7.843  11.062   0.932 -0.6506  0.3454 -0.5438
  874MOL0     C15248   7.709  11.126   0.947 -0.1389 -0.2174  0.0667
  874MOL0     C15249   7.630  11.070   1.061  0.5528  0.0096  0.2531
  874MOL0     C15250   7.493  11.123   1.100 -0.3680 -0.1410 -0.1120
  874MOL0     C15251   7.446  11.057   1.222 -0.1643 -0.2170  0.0049
  874MOL0     C15252   7.304  11.089   1.269 -0.0888 -0.2620  0.3069
  874MOL0     N15253   7.282  11.052   1.406 -0.2252 -0.5033  0.0164
  874MOL0     C15254   7.229  10.924   1.434 -0.2547 -0.0655  0.2936
  874MOL0     C15255   7.171  10.941   1.557 -0.8424 -0.0331 -0.3555
  874MOL0     C15256   7.100  10.829   1.628 -0.2028 -0.5278 -0.0486
  874MOL0     C15257   6.955  10.850   1.627 -0.2281  0.5837  0.0569
  874MOL0     C15258   6.912  10.951   1.732  0.3053 -0.2106  0.0944
  874MOL0     C15259   6.757  10.942   1.748 -0.4508 -1.0298 -0.8736
  874MOL0     O15260   6.703  10.809   1.770 -0.0558  0.1474  0.0154
  874MOL0     C15261   6.561  10.792   1.787 -0.1645  0.2554  0.4724
  874MOL0     C15262   6.507  10.668   1.799 -0.6622  0.2460  0.4843
  874MOL0     C15263   6.366  10.652   1.809 -0.2237 -0.3149 -0.2378
  874MOL0     C15264   6.279  10.764   1.811 -0.0200  0.9792  1.3878
  874MOL0     C15265   6.134  10.737   1.838  0.5223 -0.5469 -0.0279
  874MOL0     O15266   6.064  10.852   1.862  0.4896  0.2506 -0.5913
  874MOL0     C15267   5.933  10.856   1.912 -0.1213  0.1088  1.4366
  874MOL0     C15268   5.862  10.973   1.878 -0.1504 -0.2927  0.0993
  874MOL0     C15269   5.730  10.983   1.913  0.1924 -0.3143 -0.0454
  874MOL0     C15270   5.672  10.884   1.996  0.3992 -0.6428 -0.1621
  874MOL0     O15271   5.540  10.910   2.026  0.3770 -0.4025 -0.2546
  874MOL0     C15272   5.464  10.794   2.077 -0.0320 -0.3596  0.4707
  874MOL0     C15273   5.319  10.832   2.066 -0.3069  0.0241  0.1555
  874MOL0     C15274   5.241  10.752   2.169  0.3787  0.0164  1.2973
  874MOL0     C15275   5.090  10.789   2.147 -0.1889  0.7146  0.0121
  874MOL0     C15276   4.995  10.702   2.229 -0.2412  0.8635  0.5445
  874MOL0     C15277   4.856  10.762   2.220  0.3369 -1.0667 -0.0314
  874MOL0     C15278   4.742  10.663   2.280 -0.0901  0.5628 -0.4712
  874MOL0     C15279   4.609  10.687   2.195  0.5313 -0.6521 -0.3997
  874MOL0    Cl15280   4.557  10.856   2.179  0.1647 -0.0832 -0.0982
  874MOL0     C15281   5.744  10.777   2.036 -0.3393  0.7399 -0.3308
  874MOL0     C15282   5.877  10.762   2.004 -0.0792  0.4737 -0.2109
  874MOL0     O15283   6.084  10.626   1.845 -0.2920 -0.2711 -0.1575
  874MOL0     C15284   6.342  10.890   1.815  0.2662 -0.0918  0.2081
  874MOL0     C15285   6.477  10.902   1.793  0.4143  0.4861 -0.3120
  874MOL0     N15286   7.193  11.070   1.598  0.5642  0.1867 -0.7526
  874MOL0     N15287   7.244  11.144   1.506 -0.6264  0.1786  0.6304
  874MOL0     C15288   8.261  11.183   0.765 -0.0360 -0.0473 -0.2625
  874MOL0     C15289   8.396  11.216   0.741 -0.3108  0.7957 -0.0252
  874MOL0     C15290   8.849  11.309   0.704 -0.4540 -0.3474 -0.9452
  874MOL0     C15291   8.902  11.412   0.786 -0.5317  0.3596 -1.0089
  874MOL0     C15292   9.027  11.466   0.766  0.9707 -0.2222  0.1078
  874MOL0     C15293   9.118  11.410   0.673  0.8950 -0.3552 -0.1819
  874MOL0     O15294   9.237  11.471   0.666 -0.0260 -0.3064  0.1146
  874MOL0     C15295   9.331  11.419   0.572 -0.7681  0.3488 -0.3044
  874MOL0     C15296   9.398  11.289   0.629 -0.4850 -0.7625  0.3126
  874MOL0     C15297   9.462  11.291   0.764 -0.7318  0.4050  0.0471
  874MOL0     C15298   9.497  11.155   0.815 -0.4200  0.9557 -0.6226
  874MOL0     C15299   9.380  11.077   0.851  0.7348 -0.8540 -0.2508
  874MOL0     C15300   9.266  11.027   0.872  0.3245  0.2479 -0.0660
  874MOL0     C15301   9.062  11.306   0.588 -0.4654  0.4040 -0.0110
  874MOL0     C15302   8.932  11.265   0.602 -0.1954  0.0782  0.6798
  874MOL0     H15303   8.484  11.386   1.010 -1.6948  1.4896  0.9210
  874MOL0     H15304   8.252  11.335   1.065 -0.6745  0.1541 -0.2373
  874MOL0     H15305   8.010  11.277   0.724  2.1016 -1.6700  0.5284
  874MOL0     H15306   7.899  11.313   0.866 -0.8502 -0.7680 -0.6196
  874MOL0     H15307   7.988  11.038   0.778  1.1172  1.1944  0.1213
  874MOL0     H15308   7.831  11.102   0.722 -0.3938  0.8198  1.1537
  874MOL0     H15309   7.902  11.086   1.020  1.1685 -2.6935 -0.7746
  874MOL0     H15310   7.825  10.954   0.934  1.6209 -0.0943 -0.8667
  874MOL0     H15311   7.728  11.228   0.981  0.5684 -0.1649 -0.4789
  874MOL0     H15312   7.663  11.116   0.849  2.1839 -1.9519 -0.9586
  874MOL0     H15313   7.690  11.093   1.150  3.1425  3.3522 -2.1059
  874MOL0     H15314   7.616  10.963   1.043 -0.3502  0.4153 -1.6411
  874MOL0     H15315   7.423  11.095   1.021  1.9401 -0.9862 -2.0005
  874MOL0     H15316   7.497  11.231   1.116  2.1535 -0.1152 -0.4164
  874MOL0     H15317   7.455  10.949   1.208 -3.1565 -0.2942 -2.2807
  874MOL0     H15318   7.506  11.092   1.306  0.5523  2.3837 -1.4722
  874MOL0     H15319   7.250  11.028   1.196  0.8960  0.3469 -0.9728
  874MOL0     H15320   7.286  11.195   1.250 -0.1664 -0.4025 -0.4415
  874MOL0     H15321   7.226  10.828   1.383  0.6934 -1.2447  2.3307
  874MOL0     H15322   7.134  10.827   1.732 -2.3153  0.6345  0.7239
  874MOL0     H15323   7.133  10.737   1.579  0.8273 -1.4615  2.2612
  874MOL0     H15324   6.906  10.755   1.652 -0.3854  0.6333 -0.0582
  874MOL0     H15325   6.916  10.884   1.531 -1.2462  1.2715  0.6931
  874MOL0     H15326   6.963  10.933   1.827 -1.2806  1.3234  1.2924
  874MOL0     H15327   6.929  11.055   1.704  0.9037  0.5922  3.0594
  874MOL0     H15328   6.715  10.990   1.659 -2.2089 -0.4863  0.2159
  874MOL0     H15329   6.724  11.002   1.833 -0.5130 -1.0216 -0.9039
  874MOL0     H15330   6.570  10.580   1.788 -1.4188 -0.6475  2.8346
  874MOL0     H15331   6.326  10.552   1.821  2.0302 -1.3077 -0.3929
  874MOL0     H15332   5.912  11.044   1.813  0.5287 -0.5928  0.2919
  874MOL0     H15333   5.672  11.070   1.884  2.0875  0.4008 -1.9994
  874MOL0     H15334   5.492  10.770   2.180 -0.8668  0.5304  0.9122
  874MOL0     H15335   5.471  10.708   2.009 -3.7794  1.1838 -2.1935
  874MOL0     H15336   5.276  10.793   1.973 -1.4705 -0.2492  0.8015
  874MOL0     H15337   5.296  10.939   2.075  0.4483  0.2026  0.1137
  874MOL0     H15338   5.263  10.781   2.272  0.0997  1.8956  0.8735
  874MOL0     H15339   5.261  10.647   2.147  0.0879  0.7251 -3.1567
  874MOL0     H15340   5.080  10.894   2.174  2.6012  1.0389  0.0460
  874MOL0     H15341   5.061  10.787   2.042 -1.6991  0.1137  0.4138
  874MOL0     H15342   5.030  10.707   2.332 -0.0082 -1.6003  0.6425
  874MOL0     H15343   4.995  10.596   2.201 -0.6149  0.7823  0.8444
  874MOL0     H15344   4.824  10.783   2.117  0.0179  0.1378  0.2905
  874MOL0     H15345   4.865  10.859   2.270  2.2148 -1.6559  0.8407
  874MOL0     H15346   4.771  10.561   2.254  3.0593  0.9006  1.1927
  874MOL0     H15347   4.721  10.674   2.387  0.5392 -3.3673  0.2052
  874MOL0     H15348   4.524  10.633   2.237  0.4291  0.0272  0.2833
  874MOL0     H15349   4.628  10.651   2.093 -0.8326  1.6562 -1.5833
  874MOL0     H15350   5.691  10.706   2.098  0.3632 -0.9761 -1.6389
  874MOL0     H15351   5.934  10.683   2.052 -0.1852 -0.5629 -1.7348
  874MOL0     H15352   6.270  10.969   1.833 -0.1987 -0.4104 -0.2292
  874MOL0     H15353   6.516  11.003   1.784 -1.6367  1.2642 -1.1948
  874MOL0     H15354   8.209  11.117   0.697  2.7154 -0.8283 -1.7310
  874MOL0     H15355   8.436  11.182   0.646 -0.3523  1.3677 -0.2462
  874MOL0     H15356   8.843  11.456   0.866  0.7853  0.2797  0.0327
  874MOL0     H15357   9.074  11.552   0.812  0.8781  0.3764 -0.8683
  874MOL0     H15358   9.403  11.495   0.542 -0.1705 -0.7052 -1.6454
  874MOL0     H15359   9.284  11.392   0.477  1.4681 -3.4051 -0.5695
  874MOL0     H15360   9.317  11.215   0.628 -0.9063 -0.3167 -1.1035
  874MOL0     H15361   9.471  11.260   0.553  1.2353  2.1415  0.7375
  874MOL0     H15362   9.393  11.334   0.837 -1.0013  0.8884 -0.4895
  874MOL0     H15363   9.555  11.349   0.762 -0.6371  0.3045  0.8920
  874MOL0     H15364   9.555  11.101   0.739 -0.0847 -0.3604  0.5423
  874MOL0     H15365   9.559  11.166   0.904 -0.3376 -0.4126 -0.4928
  874MOL0     H15366   9.166  10.997   0.897 -0.1012  2.9292  1.9770
  874MOL0     H15367   9.122  11.256   0.513 -1.9264  0.8475 -1.5503
  874MOL0     H15368   8.895  11.192   0.531 -0.1316  1.2356 -0.5911
  875MOL0     O15369   6.432   1.298   4.003 -0.0301 -0.7091  0.2509
  875MOL0     C15370   6.424   1.367   4.107 -0.1578  0.3403 -0.2883
  875MOL0     O15371   6.513   1.464   4.141 -0.0528 -0.5388 -0.5166
  875MOL0     C15372   6.635   1.479   4.076  0.3248  0.1168  0.0129
  875MOL0     C15373   6.710   1.367   4.022 -1.2775  0.2514  0.0797
  875MOL0     C15374   6.828   1.396   3.948  0.2692 -0.6056  0.1309
  875MOL0     C15375   6.858   1.526   3.901  1.2418 -0.0910 -0.7323
  875MOL0     O15376   6.971   1.567   3.828  0.5619 -0.5487 -0.1649
  875MOL0     C15377   7.081   1.475   3.812 -0.3695 -0.3684  0.2996
  875MOL0     C15378   7.203   1.559   3.757 -0.0292 -0.4778  1.1529
  875MOL0     C15379   7.342   1.488   3.750 -0.3538  0.0389 -0.1814
  875MOL0     C15380   7.452   1.581   3.698  0.2305 -0.0674 -0.2675
  875MOL0     C15381   7.577   1.498   3.653  0.4612 -0.4729 -0.0683
  875MOL0     C15382   7.673   1.584   3.574  0.4487  0.0299 -0.0914
  875MOL0     C15383   7.796   1.498   3.527  0.0499  0.2719 -0.9898
  875MOL0     C15384   7.906   1.589   3.470  0.2031  0.7230 -0.0891
  875MOL0     N15385   7.870   1.669   3.354  0.2198  0.1998 -0.1782
  875MOL0     C15386   7.798   1.625   3.241  0.0776  0.2729  0.1132
  875MOL0     C15387   7.769   1.738   3.173 -0.3987 -0.5502 -0.0266
  875MOL0     C15388   7.677   1.737   3.049 -0.0450  0.3075 -0.3548
  875MOL0     C15389   7.638   1.871   2.987  0.1853 -0.7101  0.6650
  875MOL0     C15390   7.532   1.867   2.868 -0.9624  0.3537 -0.9564
  875MOL0     C15391   7.383   1.865   2.926 -0.3127  0.4517  0.9182
  875MOL0     O15392   7.294   1.912   2.823  0.2452  0.4022 -0.1499
  875MOL0     C15393   7.181   1.965   2.854  0.8213 -0.6662  0.3079
  875MOL0     C15394   7.107   1.948   2.967 -0.2551 -0.3421 -0.9088
  875MOL0     C15395   6.981   2.006   2.981 -0.0021  0.0347 -0.2671
  875MOL0     C15396   6.920   2.076   2.873 -0.5492  0.4937  0.6040
  875MOL0     C15397   6.785   2.132   2.881  0.3432  0.8740 -0.1691
  875MOL0     O15398   6.724   2.175   2.766 -0.3272 -0.1087  0.0588
  875MOL0     C15399   6.603   2.244   2.756  0.4339  0.1599  0.4841
  875MOL0     C15400   6.573   2.281   2.624 -0.3087  0.2871  0.3672
  875MOL0     C15401   6.446   2.332   2.599  0.2982 -0.2323 -0.1510
  875MOL0     C15402   6.342   2.335   2.694  0.5906  0.2218 -0.4315
  875MOL0     O15403   6.213   2.380   2.669 -0.2405  0.3995  0.3812
  875MOL0     C15404   6.128   2.423   2.775 -0.6051 -0.0999 -0.0192
  875MOL0     C15405   5.992   2.459   2.719 -0.7278 -0.4383 -0.7364
  875MOL0     C15406   5.925   2.544   2.827  0.5510  0.1916  0.0580
  875MOL0     C15407   5.792   2.603   2.784  0.0917 -0.3305  0.8034
  875MOL0     C15408   5.709   2.678   2.889 -0.3061  0.2076 -0.6027
  875MOL0     C15409   5.576   2.720   2.824  0.6270 -0.4127 -0.0214
  875MOL0     C15410   5.502   2.824   2.909  0.1658  0.6318 -0.4561
  875MOL0     C15411   5.354   2.826   2.873  0.0655  0.2769  0.0827
  875MOL0    Cl15412   5.263   2.905   3.003 -0.0366  0.0521  0.1907
  875MOL0     C15413   6.386   2.316   2.823  1.0464  0.3311  0.2859
  875MOL0     C15414   6.511   2.276   2.856  0.1323 -0.6179 -0.8217
  875MOL0     O15415   6.742   2.154   2.993  0.6208 -0.6126  0.0028
  875MOL0     C15416   6.992   2.086   2.757  0.1947  0.2212 -0.0918
  875MOL0     C15417   7.118   2.038   2.749 -0.3403 -0.1598 -0.4127
  875MOL0     N15418   7.817   1.849   3.242  0.4422 -0.2384 -0.4165
  875MOL0     N15419   7.874   1.804   3.347 -0.2404 -0.4551 -0.4022
  875MOL0     C15420   6.772   1.631   3.952 -0.6320 -0.5174  0.0193
  875MOL0     C15421   6.668   1.603   4.038 -0.1251 -0.1787 -0.2721
  875MOL0     C15422   6.300   1.351   4.188 -0.6277 -0.2965  0.6860
  875MOL0     C15423   6.299   1.384   4.320 -0.5442 -0.3984 -0.2088
  875MOL0     C15424   6.185   1.381   4.392 -0.6797  0.5522 -0.2560
  875MOL0     C15425   6.074   1.336   4.336 -0.0033 -0.2050  0.2503
  875MOL0     O15426   5.960   1.322   4.414 -0.4388 -0.2849  0.4484
  875MOL0     C15427   5.837   1.293   4.354  0.5756 -0.7029  0.5078
  875MOL0     C15428   5.725   1.288   4.465  0.7745  0.3002  0.9307
  875MOL0     C15429   5.592   1.217   4.411  0.7408  0.7539  0.4849
  875MOL0     C15430   5.528   1.128   4.516  0.2164 -0.6100  0.6999
  875MOL0     C15431   5.383   1.110   4.494  0.6212 -1.2579  0.7419
  875MOL0     C15432   5.263   1.102   4.468  0.8862  0.3402 -0.0969
  875MOL0     C15433   6.068   1.301   4.198  0.3856 -0.1660 -0.2125
  875MOL0     C15434   6.192   1.297   4.127  0.2091  0.1369 -0.6385
  875MOL0     H15435   6.681   1.264   4.041  0.2304 -0.0393  0.9996
  875MOL0     H15436   6.904   1.322   3.925  3.1657  1.7986  1.3039
  875MOL0     H15437   7.059   1.398   3.738  1.9341 -1.9698  1.1643
  875MOL0     H15438   7.109   1.430   3.908  1.1916  0.7050  0.3793
  875MOL0     H15439   7.210   1.650   3.818 -1.0219  1.0563 -0.9169
  875MOL0     H15440   7.178   1.587   3.654  2.5475 -1.4832  0.1497
  875MOL0     H15441   7.338   1.401   3.683 -2.2318  0.5101 -0.7520
  875MOL0     H15442   7.363   1.455   3.852 -1.3957 -0.6148 -0.1539
  875MOL0     H15443   7.414   1.639   3.613 -0.1239  0.0795 -0.0126
  875MOL0     H15444   7.486   1.664   3.759 -0.4136 -0.7621  1.0817
  875MOL0     H15445   7.552   1.422   3.579 -0.5446  1.2661 -1.6289
  875MOL0     H15446   7.620   1.465   3.748 -0.2038 -2.4191 -0.4020
  875MOL0     H15447   7.703   1.666   3.640 -2.4639 -0.4468  2.0294
  875MOL0     H15448   7.622   1.615   3.483 -0.0545  0.0170  0.1860
  875MOL0     H15449   7.829   1.447   3.618 -3.0108  0.0242  0.1151
  875MOL0     H15450   7.773   1.421   3.452 -1.5870 -0.0314 -0.2145
  875MOL0     H15451   7.978   1.519   3.429 -2.0049 -1.1723 -0.9554
  875MOL0     H15452   7.949   1.648   3.552 -1.3946 -0.4470  1.6929
  875MOL0     H15453   7.773   1.522   3.218 -1.6909  0.2326  1.9338
  875MOL0     H15454   7.587   1.679   3.070 -1.2105  2.5503  1.2759
  875MOL0     H15455   7.731   1.684   2.969 -1.7421  1.2022 -2.1886
  875MOL0     H15456   7.726   1.927   2.953 -1.2207  1.3235  0.1666
  875MOL0     H15457   7.594   1.933   3.066 -3.3679  1.3064 -2.5615
  875MOL0     H15458   7.539   1.958   2.808 -1.0493  0.4723 -0.7898
  875MOL0     H15459   7.551   1.787   2.796  1.1852 -0.0953  0.0218
  875MOL0     H15460   7.378   1.935   3.010 -1.2028 -0.8410  1.9801
  875MOL0     H15461   7.349   1.767   2.959  1.3828 -0.5444 -0.1507
  875MOL0     H15462   7.143   1.892   3.053 -3.0846  0.7698  1.1431
  875MOL0     H15463   6.935   1.990   3.078  1.3841  0.6033  0.5129
  875MOL0     H15464   6.632   2.258   2.536  1.1238  0.8685  1.1521
  875MOL0     H15465   6.412   2.367   2.502  1.4493  4.6573  0.9823
  875MOL0     H15466   6.173   2.512   2.820 -1.1098  0.3779 -0.4427
  875MOL0     H15467   6.115   2.336   2.841  3.5185 -1.0947 -0.2799
  875MOL0     H15468   5.930   2.369   2.712  0.5834 -2.0485  4.2781
  875MOL0     H15469   5.994   2.512   2.623 -0.5900  1.0949  0.0868
  875MOL0     H15470   5.986   2.623   2.871 -0.4449 -1.0525  4.1544
  875MOL0     H15471   5.910   2.479   2.914 -1.1269 -1.3449 -1.2693
  875MOL0     H15472   5.812   2.670   2.699  1.7521 -0.5018  1.0194
  875MOL0     H15473   5.725   2.525   2.747  1.8003 -1.4390 -0.1174
  875MOL0     H15474   5.766   2.761   2.930  0.3148 -0.6616  0.3593
  875MOL0     H15475   5.690   2.619   2.979  1.0725  0.1068 -0.3650
  875MOL0     H15476   5.511   2.638   2.793  0.9352 -0.4337 -0.6244
  875MOL0     H15477   5.607   2.772   2.733  2.0431 -0.4030  0.4347
  875MOL0     H15478   5.511   2.781   3.009  0.2050 -1.7632 -1.4144
  875MOL0     H15479   5.543   2.925   2.905  1.6930  0.2868  3.0438
  875MOL0     H15480   5.323   2.722   2.857  0.9131 -0.0659  0.6094
  875MOL0     H15481   5.341   2.879   2.778 -1.0378 -2.0396 -1.1364
  875MOL0     H15482   6.323   2.328   2.910  0.6851 -1.8961  0.3993
  875MOL0     H15483   6.531   2.264   2.962  0.0270  1.3728 -0.5436
  875MOL0     H15484   6.965   2.138   2.666  1.8908  0.6670 -0.3744
  875MOL0     H15485   7.177   2.050   2.659 -0.6823 -1.1866 -0.7805
  875MOL0     H15486   6.794   1.733   3.922  1.9467 -1.6936 -2.4387
  875MOL0     H15487   6.617   1.681   4.094  0.5316 -0.1901  0.3556
  875MOL0     H15488   6.391   1.409   4.372 -0.5199 -0.6771 -0.1136
  875MOL0     H15489   6.178   1.412   4.496 -0.4658 -0.5479  0.1023
  875MOL0     H15490   5.840   1.199   4.298  1.3375 -0.1322 -0.4372
  875MOL0     H15491   5.803   1.361   4.276  0.4584 -0.4932  0.7378
  875MOL0     H15492   5.767   1.227   4.546 -2.1025 -0.4271  2.0070
  875MOL0     H15493   5.707   1.388   4.506 -1.4048 -0.4088  1.8580
  875MOL0     H15494   5.622   1.159   4.324 -1.9392 -1.5649  0.9648
  875MOL0     H15495   5.516   1.290   4.380  1.4230  3.2742  4.0775
  875MOL0     H15496   5.578   1.031   4.521  0.8240 -0.3985 -0.8486
  875MOL0     H15497   5.548   1.182   4.609  4.6264  1.0521 -0.9675
  875MOL0     H15498   5.159   1.100   4.445  1.0410  3.2763 -1.4991
  875MOL0     H15499   5.983   1.254   4.149  0.0606 -1.2680  1.3135
  875MOL0     H15500   6.188   1.275   4.021  1.6026  0.7744 -0.8380
  876MOL0     O15501   9.039   5.737  10.938  0.5677  0.0621 -0.6065
  876MOL0     C15502   9.067   5.686  11.046 -0.2787 -0.3207  0.4481
  876MOL0     O15503   8.978   5.638  11.145  0.1701  0.2813 -0.0469
  876MOL0     C15504   8.845   5.656  11.120 -0.0533 -0.6144 -0.2701
  876MOL0     C15505   8.772   5.743  11.197  0.0698 -0.2556 -0.2263
  876MOL0     C15506   8.640   5.775  11.175  0.3802  1.0492  0.4329
  876MOL0     C15507   8.572   5.712  11.068 -0.1936 -0.2888  0.3385
  876MOL0     O15508   8.434   5.724  11.044  0.0907  0.2813  0.1885
  876MOL0     C15509   8.350   5.740  11.158 -0.1814  0.1868  0.2250
  876MOL0     C15510   8.208   5.739  11.112  0.9461 -0.5514  0.8244
  876MOL0     C15511   8.120   5.790  11.227 -0.1315 -0.2068 -0.8188
  876MOL0     C15512   7.976   5.817  11.178 -0.2510  0.5055  0.7565
  876MOL0     C15513   7.881   5.867  11.282 -0.4000  0.4469  0.3603
  876MOL0     C15514   7.741   5.879  11.222 -0.1437 -0.8869  0.1042
  876MOL0     C15515   7.628   5.921  11.327 -0.0814  0.7919 -0.0758
  876MOL0     C15516   7.499   5.946  11.249 -0.1062  0.3311  0.6963
  876MOL0     N15517   7.389   5.988  11.331  0.5949 -0.3034 -0.2978
  876MOL0     C15518   7.257   5.954  11.319 -0.7300  0.5576  0.1620
  876MOL0     C15519   7.194   6.033  11.408  0.2831  0.0161 -0.1638
  876MOL0     C15520   7.047   6.042  11.411 -0.0810 -0.9648  0.6223
  876MOL0     C15521   7.008   6.081  11.553 -0.0373  0.1002 -0.1816
  876MOL0     C15522   6.868   6.155  11.552 -0.2534  0.2280 -0.0796
  876MOL0     C15523   6.753   6.063  11.498  0.5803 -0.0011 -0.0918
  876MOL0     O15524   6.637   6.144  11.473 -0.2096  0.3560  0.1753
  876MOL0     C15525   6.547   6.171  11.576  0.1005 -0.1920 -0.3084
  876MOL0     C15526   6.561   6.126  11.706 -0.7083 -0.3109 -0.3218
  876MOL0     C15527   6.473   6.157  11.808  0.0438 -0.6143 -0.1178
  876MOL0     C15528   6.356   6.231  11.780  0.0262  0.1371  0.5946
  876MOL0     C15529   6.250   6.249  11.881 -0.4564 -0.6414 -0.6070
  876MOL0     O15530   6.173   6.359  11.872 -0.0540  0.0420 -0.4746
  876MOL0     C15531   6.080   6.378  11.971 -0.1532  0.5943  0.2787
  876MOL0     C15532   5.961   6.437  11.925  0.4567 -0.0173 -0.5001
  876MOL0     C15533   5.856   6.443  12.012 -0.1164 -0.3643 -0.2031
  876MOL0     C15534   5.867   6.408  12.152 -0.1070  0.0766  0.7071
  876MOL0     O15535   5.746   6.410  12.210  0.0875 -0.6641 -0.3143
  876MOL0     C15536   5.752   6.417  12.358  0.3156  0.0911  0.6070
  876MOL0     C15537   5.614   6.467  12.415 -0.3914 -0.4183  0.4150
  876MOL0     C15538   5.498   6.383  12.349  0.2009 -0.1344 -0.0677
  876MOL0     C15539   5.357   6.413  12.401 -0.2107 -0.1268  0.5149
  876MOL0     C15540   5.301   6.550  12.360 -0.2421 -0.4024  0.1769
  876MOL0     C15541   5.153   6.561  12.413 -0.1246  0.0834 -0.4370
  876MOL0     C15542   5.089   6.700  12.391 -1.2689  0.0039 -0.5752
  876MOL0     C15543   4.971   6.723  12.478  0.6114 -0.8072  0.6958
  876MOL0    Cl15544   4.888   6.884  12.459  0.6397  0.1930 -0.2186
  876MOL0     C15545   5.987   6.371  12.199 -0.1606 -0.0879  0.6561
  876MOL0     C15546   6.086   6.350  12.112 -0.0964 -0.6793  0.8081
  876MOL0     O15547   6.245   6.174  11.972 -0.2781 -0.6287  0.0450
  876MOL0     C15548   6.358   6.297  11.658  0.6748 -0.1223 -0.3804
  876MOL0     C15549   6.440   6.258  11.554  0.0413  0.4350 -0.3383
  876MOL0     N15550   7.286   6.094  11.485 -0.0357  0.1802 -0.3756
  876MOL0     N15551   7.407   6.066  11.438 -0.0378 -0.2096  0.0171
  876MOL0     C15552   8.635   5.630  10.977 -0.0652  0.6798  0.0311
  876MOL0     C15553   8.775   5.606  11.005 -0.5183  0.7923  0.0678
  876MOL0     C15554   9.214   5.685  11.071  1.2089  0.3590  0.1380
  876MOL0     C15555   9.259   5.614  11.185 -0.1820 -0.7511  0.5575
  876MOL0     C15556   9.391   5.619  11.222 -1.0537 -0.2970 -0.1433
  876MOL0     C15557   9.487   5.682  11.139  0.8681  0.0182 -0.1129
  876MOL0     O15558   9.617   5.663  11.164 -0.0351 -0.1337  0.1929
  876MOL0     C15559   9.724   5.735  11.100  0.4709 -0.3655  0.0424
  876MOL0     C15560   9.764   5.661  10.976 -0.4804  0.1981  0.0329
  876MOL0     C15561   9.866   5.738  10.890 -1.0669 -0.7388  0.0937
  876MOL0     C15562   9.808   5.865  10.833 -0.8485  0.6855  0.0630
  876MOL0     C15563   9.690   5.845  10.743 -0.1318 -0.4419 -0.6034
  876MOL0     C15564   9.597   5.814  10.671 -0.2512  0.1792 -0.1124
  876MOL0     C15565   9.443   5.748  11.030  0.2553 -0.1443  0.2445
  876MOL0     C15566   9.306   5.754  10.997  0.3398 -0.7008 -0.3400
  876MOL0     H15567   8.829   5.784  11.280  1.4475  0.7930 -1.6156
  876MOL0     H15568   8.586   5.839  11.243 -1.6060 -0.1115  0.0190
  876MOL0     H15569   8.375   5.835  11.205  1.9020 -0.8828  1.4212
  876MOL0     H15570   8.374   5.664  11.233 -2.5206  1.6055  2.5357
  876MOL0     H15571   8.174   5.639  11.081 -1.6818  0.4162  0.3060
  876MOL0     H15572   8.194   5.798  11.021  0.3084 -1.0419  0.5938
  876MOL0     H15573   8.157   5.887  11.262  1.7170 -0.7241 -1.2228
  876MOL0     H15574   8.125   5.716  11.307 -1.1737 -1.4316 -1.8449
  876MOL0     H15575   7.980   5.891  11.098  0.8157 -0.2634  0.0703
  876MOL0     H15576   7.940   5.718  11.148 -1.7491  0.9541  0.9902
  876MOL0     H15577   7.908   5.966  11.319  0.1172 -0.4726  2.5979
  876MOL0     H15578   7.882   5.804  11.371 -1.3769 -0.2427 -0.0929
  876MOL0     H15579   7.714   5.778  11.189 -1.8327 -1.2284  2.2637
  876MOL0     H15580   7.741   5.952  11.140  1.3920  0.2719  1.0756
  876MOL0     H15581   7.618   5.849  11.409  1.5231 -0.2760 -0.7636
  876MOL0     H15582   7.661   6.018  11.366  3.1455  0.0469 -0.6729
  876MOL0     H15583   7.472   5.848  11.208  2.9578 -0.6734  0.8778
  876MOL0     H15584   7.509   6.005  11.157 -1.1363 -0.4497  0.0549
  876MOL0     H15585   7.219   5.884  11.245  0.3412  0.5360 -0.3821
  876MOL0     H15586   6.996   5.949  11.383 -2.2209 -0.1667  1.6523
  876MOL0     H15587   7.017   6.119  11.339  0.7029 -0.6878  0.5802
  876MOL0     H15588   7.080   6.149  11.599 -3.0967  2.8548  0.9643
  876MOL0     H15589   6.995   5.987  11.608 -0.2642 -0.1713 -0.6952
  876MOL0     H15590   6.841   6.177  11.656 -2.3607 -1.5881 -0.1656
  876MOL0     H15591   6.874   6.245  11.490 -0.2762 -0.7236 -1.5042
  876MOL0     H15592   6.735   5.970  11.552 -0.3790 -0.8431 -1.8027
  876MOL0     H15593   6.782   6.038  11.396 -2.0217 -0.0071 -0.9119
  876MOL0     H15594   6.635   6.056  11.745 -2.4993 -0.5914  2.9215
  876MOL0     H15595   6.490   6.122  11.909  1.0004  1.0377  0.3319
  876MOL0     H15596   5.935   6.469  11.824  1.0516 -0.7481 -0.8977
  876MOL0     H15597   5.763   6.477  11.967  1.1312  0.1186 -2.6298
  876MOL0     H15598   5.829   6.487  12.390  1.7355 -0.1056 -2.0943
  876MOL0     H15599   5.773   6.317  12.395  0.0072  0.2031  1.0918
  876MOL0     H15600   5.607   6.576  12.405  4.0877  0.3314  2.7082
  876MOL0     H15601   5.623   6.448  12.522 -0.9064 -0.5136  0.4450
  876MOL0     H15602   5.517   6.278  12.373 -0.2347 -0.3271 -0.5506
  876MOL0     H15603   5.496   6.394  12.240 -0.5008  2.1598  0.1292
  876MOL0     H15604   5.297   6.332  12.359  0.5619  0.3041 -1.4905
  876MOL0     H15605   5.359   6.396  12.510 -3.1808 -0.6242  0.5788
  876MOL0     H15606   5.298   6.571  12.253  0.5461 -2.1339 -0.2142
  876MOL0     H15607   5.362   6.627  12.408  0.8169 -0.7357 -0.5902
  876MOL0     H15608   5.159   6.534  12.519  2.8951 -0.0917 -0.5589
  876MOL0     H15609   5.097   6.486  12.357  0.3552 -0.2153 -0.5153
  876MOL0     H15610   5.170   6.772  12.399 -1.5090  0.2870 -0.6662
  876MOL0     H15611   5.062   6.704  12.285  2.3668 -1.4417 -1.7036
  876MOL0     H15612   5.009   6.710  12.580 -0.2646 -0.3445  1.0939
  876MOL0     H15613   4.889   6.650  12.473 -1.0005  0.9347  0.6976
  876MOL0     H15614   5.989   6.351  12.305 -2.9050  1.3267  1.0725
  876MOL0     H15615   6.181   6.313  12.149 -0.4863 -0.3819  2.1724
  876MOL0     H15616   6.273   6.360  11.637  0.0606 -0.7755  0.1035
  876MOL0     H15617   6.436   6.317  11.463  0.1552  0.1667 -0.5169
  876MOL0     H15618   8.581   5.584  10.895 -0.0252 -1.6470  1.2086
  876MOL0     H15619   8.825   5.538  10.936 -0.2351  1.4461 -0.3794
  876MOL0     H15620   9.195   5.554  11.249 -0.4332  0.8894  1.9074
  876MOL0     H15621   9.422   5.556  11.304 -1.8450  0.3908  0.7031
  876MOL0     H15622   9.817   5.747  11.157  0.8153 -0.0215 -0.5759
  876MOL0     H15623   9.694   5.836  11.070  2.8111  0.1957 -0.7129
  876MOL0     H15624   9.822   5.573  11.004 -0.7717 -0.0166 -0.0391
  876MOL0     H15625   9.673   5.633  10.922  0.3758 -1.3359 -0.7023
  876MOL0     H15626   9.906   5.667  10.817  3.5748  1.0401  0.5669
  876MOL0     H15627   9.948   5.771  10.955 -1.3963 -2.8902  1.6918
  876MOL0     H15628   9.788   5.940  10.910 -1.7715 -1.4308  1.9867
  876MOL0     H15629   9.888   5.904  10.770  2.2163 -1.4739  2.3591
  876MOL0     H15630   9.520   5.794  10.599  0.2645 -2.8184  0.0668
  876MOL0     H15631   9.509   5.795  10.958 -1.3722 -0.5044 -1.5948
  876MOL0     H15632   9.282   5.824  10.917  3.7298  1.3473  0.2494
  877MOL0     O15633   7.983   1.752   1.162  0.2817 -0.6159  0.0444
  877MOL0     C15634   8.047   1.795   1.072  0.3047 -0.1078  0.3087
  877MOL0     O15635   8.003   1.840   0.952 -0.1703 -0.1998 -0.2487
  877MOL0     C15636   7.874   1.875   0.931 -0.6038 -0.0471 -0.0622
  877MOL0     C15637   7.830   1.885   0.793  0.6692 -0.2393 -0.9923
  877MOL0     C15638   7.691   1.929   0.766  0.8248  0.3990 -0.9799
  877MOL0     C15639   7.591   1.939   0.864 -1.6777 -0.2240  0.1982
  877MOL0     O15640   7.468   1.978   0.830 -0.7847  0.5427 -0.5349
  877MOL0     C15641   7.399   2.082   0.903  0.0056  0.0397 -0.1757
  877MOL0     C15642   7.251   2.062   0.901 -0.6601  0.7137  0.6444
  877MOL0     C15643   7.178   2.191   0.931  0.6496 -0.1875  0.1452
  877MOL0     C15644   7.024   2.194   0.902  0.2634 -0.2431 -0.1711
  877MOL0     C15645   6.959   2.329   0.945  0.4919  0.3220  0.1883
  877MOL0     C15646   6.809   2.353   0.906  0.2452 -0.1324  0.0270
  877MOL0     C15647   6.770   2.484   0.975 -1.1123  0.3153  0.2256
  877MOL0     C15648   6.645   2.533   0.920  0.6247  0.3340 -0.3739
  877MOL0     N15649   6.607   2.654   0.984  0.1679 -0.0549 -0.3483
  877MOL0     C15650   6.489   2.673   1.049 -0.3245 -0.3921  0.6745
  877MOL0     C15651   6.492   2.803   1.077  0.3189 -0.2025 -0.4470
  877MOL0     C15652   6.354   2.875   1.117  0.0652  0.1552 -0.0930
  877MOL0     C15653   6.219   2.790   1.091  0.1423 -0.3376 -0.4574
  877MOL0     C15654   6.092   2.874   1.125  0.1652 -0.1443  0.3899
  877MOL0     C15655   5.963   2.791   1.135  0.6945 -0.6141  0.2362
  877MOL0     O15656   5.852   2.871   1.170 -0.5131 -0.1983 -0.1491
  877MOL0     C15657   5.724   2.835   1.146  0.2676 -0.1841  0.0227
  877MOL0     C15658   5.628   2.919   1.193 -0.1733  0.5550  1.0849
  877MOL0     C15659   5.495   2.889   1.166 -0.7999 -0.9590 -0.2104
  877MOL0     C15660   5.458   2.766   1.105  1.0578  0.4296 -0.4217
  877MOL0     C15661   5.314   2.724   1.099 -0.3162  0.5045  0.0669
  877MOL0     O15662   5.221   2.814   1.132 -0.0882 -0.2188 -0.2103
  877MOL0     C15663   5.091   2.792   1.101 -0.7715 -0.4334 -0.7173
  877MOL0     C15664   4.999   2.743   1.194  0.1686  0.1582 -0.3274
  877MOL0     C15665   4.864   2.726   1.168  0.0700 -0.6455  1.2695
  877MOL0     C15666   4.824   2.766   1.046 -0.3353  0.1354  0.2488
  877MOL0     O15667   4.691   2.779   1.018 -0.0755  0.9032 -0.3229
  877MOL0     C15668   4.630   2.891   1.095 -0.6395  0.1983 -0.2052
  877MOL0     C15669   4.505   2.948   1.023  0.0614 -0.2355 -0.0346
  877MOL0     C15670   4.399   2.996   1.125  0.0412 -0.1832 -0.0255
  877MOL0     C15671   4.262   3.007   1.052  0.2712  0.2010 -1.2078
  877MOL0     C15672   4.148   3.025   1.155 -0.0169 -0.3203 -1.0370
  877MOL0     C15673   4.005   3.016   1.084 -0.2620  0.2826 -0.0702
  877MOL0     C15674   3.898   3.038   1.178 -0.0057 -0.1880  0.5920
  877MOL0     C15675   3.769   3.047   1.111 -0.4712  0.3416 -0.3576
  877MOL0    Cl15676   3.639   3.100   1.223 -0.2893 -0.4480 -0.1911
  877MOL0     C15677   4.912   2.808   0.943 -0.4374 -0.2769 -0.6500
  877MOL0     C15678   5.045   2.820   0.976  0.3938  0.3985 -0.5613
  877MOL0     O15679   5.292   2.616   1.042  0.3931 -0.0941 -0.2263
  877MOL0     C15680   5.558   2.677   1.072  0.2402  0.1379  0.0467
  877MOL0     C15681   5.692   2.709   1.090 -0.5367  0.0949  0.0177
  877MOL0     N15682   6.612   2.862   1.032 -0.4251  0.2669  0.1124
  877MOL0     N15683   6.679   2.764   0.978 -0.2907 -0.1445 -0.5165
  877MOL0     C15684   7.636   1.930   0.992 -0.5030  0.1206 -0.2447
  877MOL0     C15685   7.768   1.897   1.024 -0.6857  0.0291  0.0877
  877MOL0     C15686   8.192   1.801   1.091 -0.3022 -0.6308 -0.7499
  877MOL0     C15687   8.252   1.785   1.217  1.0113 -0.0329  0.7166
  877MOL0     C15688   8.392   1.788   1.238 -0.5099 -0.2917 -0.4107
  877MOL0     C15689   8.473   1.810   1.131 -0.1127 -0.4857  1.0105
  877MOL0     O15690   8.613   1.828   1.148  0.0856  0.3553  0.3647
  877MOL0     C15691   8.677   1.837   1.274 -0.0572 -0.3041 -0.2758
  877MOL0     C15692   8.819   1.869   1.273 -0.4982 -0.2548 -0.1614
  877MOL0     C15693   8.903   1.787   1.174  0.4128  0.3639 -0.1046
  877MOL0     C15694   9.051   1.831   1.185  0.6971 -0.0919  0.8586
  877MOL0     C15695   9.145   1.732   1.132  0.5858  0.2297  0.3072
  877MOL0     C15696   9.221   1.650   1.102 -0.5855  0.6290  0.1693
  877MOL0     C15697   8.424   1.820   1.000  0.4027  0.6502  0.7031
  877MOL0     C15698   8.284   1.811   0.984  0.1606  0.8143 -0.0497
  877MOL0     H15699   7.897   1.894   0.708 -1.0971 -0.0368 -2.4109
  877MOL0     H15700   7.660   1.964   0.668 -0.9590 -0.2868 -0.7040
  877MOL0     H15701   7.414   2.165   0.834 -0.9257 -0.2149 -0.7072
  877MOL0     H15702   7.434   2.091   1.007  0.7514 -1.4335 -0.2748
  877MOL0     H15703   7.218   1.976   0.960 -1.4710  0.3688 -0.2830
  877MOL0     H15704   7.231   2.047   0.795  0.5885  3.0024  0.0133
  877MOL0     H15705   7.217   2.273   0.870  0.1397 -0.2076 -0.2169
  877MOL0     H15706   7.186   2.226   1.034 -1.3357  1.5270 -0.2109
  877MOL0     H15707   7.011   2.193   0.793 -1.4906 -0.0740 -0.0021
  877MOL0     H15708   6.972   2.106   0.941  1.2237 -1.0896 -0.7585
  877MOL0     H15709   7.018   2.404   0.892  0.8559 -1.2724 -1.8111
  877MOL0     H15710   6.965   2.342   1.053  0.5390  0.3284  0.1847
  877MOL0     H15711   6.746   2.268   0.932 -0.0335  0.3964  1.0965
  877MOL0     H15712   6.804   2.359   0.797 -0.6072 -1.3093 -0.0090
  877MOL0     H15713   6.777   2.480   1.084 -1.5469  1.1171  0.2916
  877MOL0     H15714   6.847   2.557   0.947 -1.9822  0.6679 -1.3527
  877MOL0     H15715   6.570   2.456   0.945  1.6014 -1.7940 -3.3557
  877MOL0     H15716   6.652   2.547   0.811 -0.1454 -2.5509 -0.9022
  877MOL0     H15717   6.406   2.605   1.065 -0.5108  0.4245  3.8159
  877MOL0     H15718   6.341   2.963   1.054  1.1167 -1.4911 -2.7765
  877MOL0     H15719   6.349   2.914   1.220 -2.1452  0.2068 -0.1715
  877MOL0     H15720   6.215   2.706   1.161 -0.2216 -0.8519 -1.0809
  877MOL0     H15721   6.212   2.768   0.984  2.6121 -1.1094 -0.5345
  877MOL0     H15722   6.113   2.920   1.221 -0.3845  1.5912 -0.2926
  877MOL0     H15723   6.087   2.950   1.046  0.0450 -0.0653  0.4740
  877MOL0     H15724   5.986   2.715   1.210  0.3738 -0.5484  0.4013
  877MOL0     H15725   5.945   2.743   1.039 -3.6893 -1.5071  1.3158
  877MOL0     H15726   5.666   3.002   1.251  0.1746  0.3055  1.2234
  877MOL0     H15727   5.423   2.965   1.196  0.8837  0.8578 -0.5525
  877MOL0     H15728   5.038   2.715   1.291 -3.8892 -0.4696  1.3356
  877MOL0     H15729   4.801   2.684   1.245 -2.4335  0.8722  0.1554
  877MOL0     H15730   4.700   2.973   1.109  0.9322 -0.7040 -2.2440
  877MOL0     H15731   4.602   2.867   1.198 -2.6244  2.1928 -0.2010
  877MOL0     H15732   4.462   2.879   0.950  1.8483  0.1596 -1.5402
  877MOL0     H15733   4.540   3.034   0.965  0.4024 -0.8749 -0.8002
  877MOL0     H15734   4.432   3.092   1.165 -2.5865  0.4479  0.7925
  877MOL0     H15735   4.386   2.925   1.207 -1.2496 -0.8398 -0.7727
  877MOL0     H15736   4.258   3.090   0.980 -0.0450  0.7898 -0.5230
  877MOL0     H15737   4.238   2.915   0.998  1.5666 -0.5395 -0.5666
  877MOL0     H15738   4.157   3.120   1.209 -2.1974  0.0207 -1.1797
  877MOL0     H15739   4.165   2.944   1.226  2.0215  1.2477  0.3869
  877MOL0     H15740   3.983   2.921   1.035  0.4850 -0.0730  0.2728
  877MOL0     H15741   4.007   3.090   1.003  2.2319 -0.1777 -0.5284
  877MOL0     H15742   3.903   2.956   1.251 -1.2525 -1.2993 -0.5127
  877MOL0     H15743   3.922   3.135   1.222 -0.7445  0.5356 -0.5440
  877MOL0     H15744   3.744   2.950   1.069  2.2328 -0.5994  0.0219
  877MOL0     H15745   3.787   3.112   1.025 -3.2223  1.0451 -0.4956
  877MOL0     H15746   4.870   2.838   0.848 -0.8750 -1.4017 -0.8194
  877MOL0     H15747   5.122   2.858   0.909  0.4742  0.2341 -0.5635
  877MOL0     H15748   5.527   2.577   1.042  1.2703 -0.4096  0.7467
  877MOL0     H15749   5.772   2.639   1.070  2.7112  3.2358  0.8847
  877MOL0     H15750   7.563   1.943   1.071 -0.6578  1.9806 -0.6510
  877MOL0     H15751   7.798   1.887   1.128 -2.3698 -4.0994  0.3560
  877MOL0     H15752   8.188   1.762   1.302 -0.3581  1.8966  0.2619
  877MOL0     H15753   8.434   1.790   1.338 -0.3296 -1.1237 -0.4569
  877MOL0     H15754   8.661   1.743   1.329 -1.2523  0.6331  1.0589
  877MOL0     H15755   8.627   1.910   1.338 -1.7827 -0.6636 -1.1352
  877MOL0     H15756   8.826   1.972   1.237 -0.7699 -0.3332 -0.4376
  877MOL0     H15757   8.851   1.861   1.377 -2.1488 -0.4356  0.3628
  877MOL0     H15758   8.865   1.797   1.071  2.1816  0.7483 -0.7531
  877MOL0     H15759   8.890   1.684   1.207 -0.6713 -0.0811 -1.7883
  877MOL0     H15760   9.052   1.928   1.134  0.0870  0.4721  1.8698
  877MOL0     H15761   9.079   1.840   1.291  0.2050 -1.0621  1.0774
  877MOL0     H15762   9.294   1.575   1.079 -1.8547 -0.5267 -0.2559
  877MOL0     H15763   8.480   1.831   0.908 -2.4347 -1.2666 -1.4375
  877MOL0     H15764   8.243   1.808   0.884  2.1992  0.7989 -0.9389
  878MOL0     O15765   0.743   9.960   1.300 -0.5039 -0.7424  0.7194
  878MOL0     C15766   0.789   9.864   1.354  0.1324 -0.2796 -0.7479
  878MOL0     O15767   0.717   9.758   1.414  0.5137 -1.0007 -0.5634
  878MOL0     C15768   0.577   9.758   1.425 -1.0600 -0.9516  0.7035
  878MOL0     C15769   0.529   9.674   1.521  0.6287 -0.8988  0.1318
  878MOL0     C15770   0.392   9.655   1.537 -0.5644  0.6025 -0.0393
  878MOL0     C15771   0.298   9.715   1.451  0.9902 -0.8066 -0.1645
  878MOL0     O15772   0.162   9.703   1.480 -0.1517 -0.1015 -0.4809
  878MOL0     C15773   0.065   9.774   1.410 -0.2371  0.1686 -0.1901
  878MOL0     C15774  -0.069   9.768   1.485 -0.6920  0.6577 -0.2721
  878MOL0     C15775  -0.182   9.853   1.425  0.7544 -0.2059  0.1324
  878MOL0     C15776  -0.314   9.847   1.511  1.0067 -0.2683  0.2530
  878MOL0     C15777  -0.383   9.709   1.528 -0.0337 -0.2214  0.1492
  878MOL0     C15778  -0.468   9.684   1.406 -0.6339  0.4750 -0.0898
  878MOL0     C15779  -0.491   9.540   1.380  0.0137  0.1604 -0.1086
  878MOL0     C15780  -0.613   9.504   1.290 -0.6012  0.5664 -0.8800
  878MOL0     N15781  -0.730   9.567   1.349 -0.5975 -0.7328  0.5274
  878MOL0     C15782  -0.806   9.668   1.301  0.7219  0.3020 -0.9511
  878MOL0     C15783  -0.891   9.696   1.400 -0.5847  0.2082 -0.1652
  878MOL0     C15784  -0.970   9.813   1.421 -0.4927 -0.3419 -0.9663
  878MOL0     C15785  -1.102   9.822   1.337  0.8282  0.2974 -0.0583
  878MOL0     C15786  -1.213   9.902   1.412  0.4528 -0.7139 -0.2258
  878MOL0     C15787  -1.334   9.930   1.325 -0.0215 -0.1328 -1.4787
  878MOL0     O15788  -1.312  10.040   1.235  0.0624 -0.5270 -0.6390
  878MOL0     C15789  -1.405  10.047   1.135  0.6476 -0.3180 -0.3050
  878MOL0     C15790  -1.366  10.016   1.005  0.6088 -0.0066 -0.6287
  878MOL0     C15791  -1.463  10.034   0.902  0.0536  0.6317  0.3039
  878MOL0     C15792  -1.601  10.076   0.934  0.0331  1.1242 -0.4211
  878MOL0     C15793  -1.705  10.075   0.832  0.5928 -1.1882 -0.6699
  878MOL0     O15794  -1.829  10.043   0.885  0.1714  0.2130  0.2132
  878MOL0     C15795  -1.946  10.050   0.814 -0.3006  0.0037 -0.3253
  878MOL0     C15796  -1.968  10.075   0.675  0.0954 -0.8688  0.4048
  878MOL0     C15797  -2.095  10.076   0.616  0.4561 -0.5157 -0.6641
  878MOL0     C15798  -2.210  10.046   0.697 -0.0079 -0.9182 -0.0035
  878MOL0     O15799  -2.340  10.031   0.646  0.4609 -0.2228  1.0344
  878MOL0     C15800  -2.370   9.893   0.626 -0.2458 -0.3235 -0.7479
  878MOL0     C15801  -2.491   9.877   0.524 -0.7085 -0.0505 -0.1040
  878MOL0     C15802  -2.620   9.922   0.580  0.3323  1.0219  0.7992
  878MOL0     C15803  -2.734   9.870   0.505  0.7430  0.4472 -0.2808
  878MOL0     C15804  -2.862   9.943   0.569 -0.4341  0.5084 -0.1058
  878MOL0     C15805  -2.984   9.863   0.526 -0.1114 -0.1000 -0.0738
  878MOL0     C15806  -3.104   9.915   0.603  0.2000 -0.5489  0.4326
  878MOL0     C15807  -3.235   9.889   0.516 -0.6036 -0.2584 -0.5976
  878MOL0    Cl15808  -3.379   9.959   0.603  0.2129  0.2081 -0.3758
  878MOL0     C15809  -2.190  10.001   0.828  0.1431 -0.1132 -0.1707
  878MOL0     C15810  -2.060   9.996   0.880  0.4926 -0.3902  0.6544
  878MOL0     O15811  -1.682  10.101   0.717  0.0569 -0.3221  0.4842
  878MOL0     C15812  -1.633  10.103   1.066 -0.3086  0.5973  0.3967
  878MOL0     C15813  -1.534  10.087   1.169 -0.6058 -0.5136 -0.1033
  878MOL0     N15814  -0.882   9.594   1.498  0.0070 -1.2126  0.6771
  878MOL0     N15815  -0.786   9.521   1.464  0.2288  0.8310  0.5549
  878MOL0     C15816   0.349   9.799   1.347  0.1507 -0.4035 -0.1215
  878MOL0     C15817   0.487   9.818   1.339  0.0177  0.3203  0.3921
  878MOL0     C15818   0.931   9.861   1.384  0.1531  0.3129 -0.1464
  878MOL0     C15819   1.030   9.942   1.323  0.1434  0.6042  0.3813
  878MOL0     C15820   1.163   9.921   1.355  0.4147 -0.0535 -0.3259
  878MOL0     C15821   1.206   9.830   1.458 -0.8322 -0.7812 -0.1206
  878MOL0     O15822   1.335   9.813   1.502 -0.1257 -0.8432 -0.1652
  878MOL0     C15823   1.433   9.855   1.413 -0.1443  0.4272 -0.6019
  878MOL0     C15824   1.570   9.818   1.474  0.3440 -0.9748  0.4305
  878MOL0     C15825   1.667   9.840   1.362 -0.1485  0.4704 -0.9683
  878MOL0     C15826   1.813   9.871   1.413 -0.6588  0.3600 -0.1320
  878MOL0     C15827   1.908   9.880   1.303 -0.7681  0.6933 -0.4311
  878MOL0     C15828   1.990   9.901   1.213 -0.0655 -0.5063 -0.5426
  878MOL0     C15829   1.107   9.771   1.530  0.0371 -0.0678  0.0026
  878MOL0     C15830   0.974   9.776   1.490 -0.0162 -0.2706  0.6891
  878MOL0     H15831   0.591   9.618   1.591  0.4169  0.7592  1.7251
  878MOL0     H15832   0.365   9.588   1.617  0.2118 -2.3829 -2.0986
  878MOL0     H15833   0.062   9.724   1.313 -0.6503 -0.0718 -0.0582
  878MOL0     H15834   0.092   9.878   1.391 -3.1716  0.9612 -0.6497
  878MOL0     H15835  -0.055   9.812   1.584 -1.4308  3.3724 -1.3025
  878MOL0     H15836  -0.091   9.660   1.486 -0.4121  0.5279 -2.4589
  878MOL0     H15837  -0.202   9.829   1.320 -1.2841  3.2407 -0.4015
  878MOL0     H15838  -0.147   9.956   1.423 -0.3865  0.2044 -2.1073
  878MOL0     H15839  -0.298   9.894   1.608  0.4656 -0.2618  0.3414
  878MOL0     H15840  -0.391   9.909   1.465 -0.2321 -1.4920  0.6251
  878MOL0     H15841  -0.432   9.701   1.625  2.5073 -2.9125  1.3615
  878MOL0     H15842  -0.300   9.638   1.523 -0.4017 -0.5941 -1.6122
  878MOL0     H15843  -0.434   9.729   1.313 -0.4561 -1.2156 -0.8738
  878MOL0     H15844  -0.562   9.740   1.418 -1.0504  0.2120 -1.9004
  878MOL0     H15845  -0.402   9.503   1.328  0.5071  1.2966 -0.1068
  878MOL0     H15846  -0.488   9.492   1.478  1.0576  1.7560  0.6858
  878MOL0     H15847  -0.627   9.396   1.285  3.1617 -0.1313  0.5842
  878MOL0     H15848  -0.597   9.541   1.188 -1.7332 -0.6152 -1.5081
  878MOL0     H15849  -0.786   9.725   1.210  0.8963  0.1604 -1.0007
  878MOL0     H15850  -0.912   9.901   1.391 -4.6930  2.5463 -1.5818
  878MOL0     H15851  -0.998   9.816   1.526 -0.2228  0.6005 -0.9079
  878MOL0     H15852  -1.142   9.720   1.337 -1.2473  1.0537  0.9576
  878MOL0     H15853  -1.087   9.863   1.237  2.3359  1.2411  0.5046
  878MOL0     H15854  -1.254   9.855   1.501 -1.5621  2.3054  0.6123
  878MOL0     H15855  -1.167   9.995   1.447  1.8479 -0.6261 -2.1211
  878MOL0     H15856  -1.417   9.957   1.390  1.3592 -1.4012  0.9312
  878MOL0     H15857  -1.364   9.847   1.259 -2.5642  0.7786 -1.5583
  878MOL0     H15858  -1.264   9.980   0.995  1.2764  1.6262  0.0195
  878MOL0     H15859  -1.436  10.014   0.798 -1.5985 -2.3551  0.3415
  878MOL0     H15860  -1.888  10.121   0.618  2.4558  0.2510  4.2001
  878MOL0     H15861  -2.112  10.096   0.511  0.1281 -1.2396 -0.7527
  878MOL0     H15862  -2.395   9.844   0.721  2.0261  1.0946  0.7085
  878MOL0     H15863  -2.280   9.838   0.597 -2.2823 -2.4133 -3.6088
  878MOL0     H15864  -2.500   9.771   0.496 -0.3455 -0.0118 -0.3803
  878MOL0     H15865  -2.472   9.927   0.429 -0.9479  0.7547  0.2634
  878MOL0     H15866  -2.619  10.031   0.591  1.0383  1.4096 -2.3218
  878MOL0     H15867  -2.625   9.880   0.682 -0.4089  0.8399  0.6906
  878MOL0     H15868  -2.719   9.901   0.401 -0.0077 -5.5391 -2.5544
  878MOL0     H15869  -2.739   9.761   0.509  1.2538  0.4456  0.4625
  878MOL0     H15870  -2.863  10.048   0.536 -1.5190  0.9834  1.3387
  878MOL0     H15871  -2.856   9.945   0.679  1.2828  1.7676 -0.1750
  878MOL0     H15872  -2.978   9.759   0.559 -0.7556  0.3748  1.6518
  878MOL0     H15873  -3.002   9.868   0.419 -0.6221  2.3401  0.0716
  878MOL0     H15874  -3.122   9.876   0.704 -0.6429  0.6121  0.7527
  878MOL0     H15875  -3.100  10.024   0.614 -1.8963 -0.5028  1.2436
  878MOL0     H15876  -3.247   9.780   0.516 -1.3720 -0.1966  0.6282
  878MOL0     H15877  -3.235   9.926   0.413 -1.5385 -0.8509 -0.8178
  878MOL0     H15878  -2.273   9.976   0.894  0.1393  0.2171 -0.0467
  878MOL0     H15879  -2.060   9.963   0.983  1.3070 -1.2006  0.4140
  878MOL0     H15880  -1.734  10.128   1.095 -0.3805 -1.5631  2.3342
  878MOL0     H15881  -1.566  10.106   1.271  0.2966 -2.1177  0.4970
  878MOL0     H15882   0.291   9.862   1.280  1.8818  2.4763  0.8805
  878MOL0     H15883   0.517   9.867   1.247  0.0793 -0.7818 -0.1916
  878MOL0     H15884   1.002  10.014   1.247 -0.4949  1.1258  1.0907
  878MOL0     H15885   1.234   9.979   1.297  0.2158  1.9889  1.3460
  878MOL0     H15886   1.427   9.965   1.411 -4.3630  0.3839  0.5748
  878MOL0     H15887   1.419   9.808   1.315 -1.0052  0.9110 -0.7231
  878MOL0     H15888   1.580   9.876   1.567  0.1919  0.9441 -0.7146
  878MOL0     H15889   1.580   9.715   1.510 -1.6516 -0.9017  1.2982
  878MOL0     H15890   1.635   9.918   1.292  1.1346  1.8060 -0.1311
  878MOL0     H15891   1.686   9.747   1.307  1.3406  1.6931 -2.6769
  878MOL0     H15892   1.816   9.965   1.469  2.2553 -0.2130  0.8232
  878MOL0     H15893   1.846   9.797   1.486 -0.8075  0.1904 -0.2351
  878MOL0     H15894   2.070   9.935   1.150  0.7640  1.9935  1.6313
  878MOL0     H15895   1.134   9.706   1.612  1.0847  1.6169  1.0490
  878MOL0     H15896   0.906   9.708   1.540 -2.3665  1.1749 -0.3742
  879MOL0     O15897  10.302   6.526   9.882  0.0582 -0.0278  0.0742
  879MOL0     C15898  10.391   6.528   9.803  0.3617 -0.0531  0.0211
  879MOL0     O15899  10.373   6.508   9.669  0.7979 -0.3500  0.0421
  879MOL0     C15900  10.240   6.491   9.629 -0.7699 -0.2797  0.2632
  879MOL0     C15901  10.193   6.364   9.658 -0.4798  1.0567 -0.2948
  879MOL0     C15902  10.066   6.321   9.618  0.0362 -0.7706  0.4513
  879MOL0     C15903   9.981   6.407   9.548  0.4692  0.1947  0.9572
  879MOL0     O15904   9.856   6.371   9.503  0.4249  0.6236  0.2849
  879MOL0     C15905   9.826   6.226   9.522 -0.7830 -0.1310 -0.2131
  879MOL0     C15906   9.690   6.184   9.458  0.3757  0.1851  0.3321
  879MOL0     C15907   9.579   6.265   9.524  0.1108  0.8204  0.4963
  879MOL0     C15908   9.448   6.232   9.454  0.3022 -0.6028  0.2374
  879MOL0     C15909   9.331   6.316   9.523  0.6425  0.2238 -0.0223
  879MOL0     C15910   9.198   6.244   9.537 -0.1406  0.6812  0.2389
  879MOL0     C15911   9.116   6.258   9.404  0.3107  0.6678 -0.3010
  879MOL0     C15912   9.051   6.393   9.383  0.6669 -0.5056 -0.4553
  879MOL0     N15913   8.927   6.395   9.467 -0.3592 -0.6405 -0.8411
  879MOL0     C15914   8.796   6.385   9.416 -0.1830 -0.0695  0.7854
  879MOL0     C15915   8.722   6.431   9.516  0.2597 -0.1923 -0.3658
  879MOL0     C15916   8.572   6.432   9.508  0.8523 -0.3252  0.3007
  879MOL0     C15917   8.514   6.461   9.646  0.1292 -0.7944  1.2192
  879MOL0     C15918   8.511   6.345   9.746 -0.1007  0.2066  0.6540
  879MOL0     C15919   8.435   6.215   9.699 -0.4981 -0.1342  0.4247
  879MOL0     O15920   8.301   6.251   9.662 -0.0127  0.0307 -0.3088
  879MOL0     C15921   8.195   6.229   9.750 -0.1625  0.1499 -0.0814
  879MOL0     C15922   8.075   6.241   9.680  0.7975 -0.6023  0.1547
  879MOL0     C15923   7.947   6.228   9.747 -0.1641 -0.1242 -0.4694
  879MOL0     C15924   7.950   6.189   9.880  0.6139 -0.1112 -0.4442
  879MOL0     C15925   7.822   6.199   9.952 -0.2381  0.3295 -0.5775
  879MOL0     O15926   7.716   6.246   9.878  0.3095 -0.5593 -0.1060
  879MOL0     C15927   7.595   6.251   9.938 -0.4607 -0.5834  0.1520
  879MOL0     C15928   7.556   6.367  10.012  0.5970 -0.3694 -0.4990
  879MOL0     C15929   7.427   6.380  10.063 -0.3495  0.0208 -0.2297
  879MOL0     C15930   7.334   6.270  10.054  0.0726  0.1082 -0.9975
  879MOL0     O15931   7.204   6.264  10.100 -0.4903 -0.2764 -0.2588
  879MOL0     C15932   7.155   6.369  10.183 -0.4841 -0.0374 -0.0061
  879MOL0     C15933   7.043   6.308  10.268  0.0115 -0.6712 -0.1653
  879MOL0     C15934   6.935   6.254  10.177  0.6550 -0.1211 -0.4452
  879MOL0     C15935   6.811   6.233  10.258  0.3022  0.4588  0.2599
  879MOL0     C15936   6.693   6.177  10.172  0.3494  0.3310  0.0140
  879MOL0     C15937   6.582   6.120  10.261 -0.3941  0.6131  0.6749
  879MOL0     C15938   6.454   6.067  10.178 -0.5497 -0.1414  0.0998
  879MOL0     C15939   6.355   6.007  10.267 -0.2328 -0.5426  0.7250
  879MOL0    Cl15940   6.325   6.101  10.419  0.2871 -0.3479  0.0272
  879MOL0     C15941   7.375   6.158   9.984 -0.3725 -0.0288 -0.2706
  879MOL0     C15942   7.503   6.150   9.921  0.4140  0.2796 -0.5748
  879MOL0     O15943   7.817   6.164  10.068  0.3813  0.9259 -0.4091
  879MOL0     C15944   8.072   6.182   9.944  0.2996 -0.2567  0.5900
  879MOL0     C15945   8.195   6.198   9.881  0.4199 -0.0563 -0.7139
  879MOL0     N15946   8.798   6.460   9.626 -0.0898 -0.1021 -1.3985
  879MOL0     N15947   8.924   6.454   9.584 -1.0996 -0.8185  1.0324
  879MOL0     C15948  10.036   6.537   9.524 -0.0766 -0.1316  0.0470
  879MOL0     C15949  10.161   6.587   9.570  0.3894  0.3995  0.9020
  879MOL0     C15950  10.525   6.541   9.858 -0.1439  0.5369  0.3369
  879MOL0     C15951  10.550   6.542  10.001  0.1547 -0.3734 -0.1648
  879MOL0     C15952  10.682   6.529  10.049  0.0359  0.1560  0.4016
  879MOL0     C15953  10.793   6.520   9.956  0.1518 -1.1522 -0.2829
  879MOL0     O15954  10.918   6.494  10.006 -0.2053 -0.1570 -0.1515
  879MOL0     C15955  11.032   6.540   9.926  0.2946 -0.0130 -0.1911
  879MOL0     C15956  11.110   6.640  10.009  0.4506 -0.7253 -0.7036
  879MOL0     C15957  11.039   6.778  10.003  0.4136 -0.0850  0.1991
  879MOL0     C15958  11.078   6.876  10.104  0.0079 -0.4267 -0.5491
  879MOL0     C15959  11.215   6.930  10.083 -0.2954 -0.4934  0.4244
  879MOL0     C15960  11.330   6.978  10.089 -0.4380  0.2676 -0.2562
  879MOL0     C15961  10.764   6.526   9.815 -0.0114 -0.2351 -0.6521
  879MOL0     C15962  10.634   6.528   9.772  1.2823  0.7916 -0.1239
  879MOL0     H15963  10.259   6.294   9.709 -1.4240  0.7740  0.5587
  879MOL0     H15964  10.042   6.220   9.648 -3.5540  0.4552  2.3777
  879MOL0     H15965   9.828   6.202   9.628  0.3689  4.1018  0.9246
  879MOL0     H15966   9.904   6.180   9.460  2.1870  0.9624  2.4259
  879MOL0     H15967   9.674   6.076   9.459 -0.0811  0.2445 -0.1444
  879MOL0     H15968   9.691   6.222   9.355 -1.7922  1.2033  0.6395
  879MOL0     H15969   9.615   6.368   9.515 -2.2485  1.7316  0.8413
  879MOL0     H15970   9.571   6.241   9.631 -0.6221  2.4389  0.8235
  879MOL0     H15971   9.449   6.252   9.347 -2.7468 -1.3373 -0.0145
  879MOL0     H15972   9.428   6.125   9.468 -3.0998  0.2111  2.9162
  879MOL0     H15973   9.320   6.407   9.464 -0.0936 -1.3909 -2.5207
  879MOL0     H15974   9.371   6.348   9.620 -1.3375 -0.4752  1.1094
  879MOL0     H15975   9.122   6.274   9.609 -0.6197 -2.8433  1.3801
  879MOL0     H15976   9.221   6.140   9.560 -0.1169  0.6980  0.2903
  879MOL0     H15977   9.192   6.241   9.326  0.4167 -0.6738  0.0682
  879MOL0     H15978   9.051   6.172   9.390  1.3857 -0.4866  1.3835
  879MOL0     H15979   9.025   6.409   9.278 -0.4893 -0.2651 -0.1456
  879MOL0     H15980   9.116   6.475   9.415  0.0887 -0.3491  0.3592
  879MOL0     H15981   8.765   6.352   9.318 -1.1581  0.3816  0.9295
  879MOL0     H15982   8.520   6.346   9.465 -1.0815  0.0973  1.6945
  879MOL0     H15983   8.552   6.515   9.439 -0.6978 -0.0490  1.0417
  879MOL0     H15984   8.409   6.491   9.632  0.4246  0.3962  1.3843
  879MOL0     H15985   8.559   6.554   9.682 -0.4937  0.4967 -1.0689
  879MOL0     H15986   8.612   6.306   9.758 -0.2224  0.3638  2.3115
  879MOL0     H15987   8.473   6.383   9.841  3.2924  1.3221  1.6889
  879MOL0     H15988   8.451   6.142   9.779  1.5846  2.3423  2.4578
  879MOL0     H15989   8.483   6.181   9.606  1.3108 -1.0885  1.6381
  879MOL0     H15990   8.089   6.269   9.576  1.6429 -1.9024 -0.1016
  879MOL0     H15991   7.861   6.250   9.685  1.4493  2.1697 -2.0570
  879MOL0     H15992   7.633   6.443  10.027 -0.4824  0.5417  0.6297
  879MOL0     H15993   7.401   6.471  10.115  0.1185 -0.9409  1.7620
  879MOL0     H15994   7.109   6.447  10.121  1.6945  0.3672 -1.2145
  879MOL0     H15995   7.242   6.397  10.242  0.2823 -1.2830 -0.4957
  879MOL0     H15996   7.007   6.386  10.336 -0.9051  1.5968 -3.0228
  879MOL0     H15997   7.075   6.220  10.324 -1.0492 -4.1418 -4.5005
  879MOL0     H15998   6.967   6.155  10.143 -1.8619 -0.9812 -0.5385
  879MOL0     H15999   6.917   6.314  10.087  0.0343  1.6074  0.7797
  879MOL0     H16000   6.824   6.176  10.350 -0.5094  1.9636  1.3689
  879MOL0     H16001   6.773   6.327  10.299 -2.4051 -1.0500  1.4948
  879MOL0     H16002   6.718   6.100  10.099 -1.6358 -1.3352  0.9756
  879MOL0     H16003   6.645   6.265  10.128 -0.4663  1.2321  2.5492
  879MOL0     H16004   6.548   6.204  10.323 -2.0829  1.2599 -1.0165
  879MOL0     H16005   6.619   6.041  10.326 -1.3237 -0.2686  0.1670
  879MOL0     H16006   6.406   6.156  10.138  0.7733 -0.2045 -1.7502
  879MOL0     H16007   6.486   5.997  10.100 -1.4332 -0.2417 -0.1827
  879MOL0     H16008   6.381   5.902  10.283  0.1202 -0.4738  0.6109
  879MOL0     H16009   6.255   5.991  10.225 -1.6386  0.6084  3.3806
  879MOL0     H16010   7.304   6.077   9.967 -2.1380  0.9796  1.7838
  879MOL0     H16011   7.531   6.061   9.866  2.1151 -0.5691  1.5245
  879MOL0     H16012   8.073   6.161  10.051  3.0541  0.5110  0.8024
  879MOL0     H16013   8.283   6.187   9.943 -1.0040  1.1584  1.6810
  879MOL0     H16014   9.979   6.601   9.458  1.6716 -0.4334 -1.8756
  879MOL0     H16015  10.197   6.683   9.533 -1.6493  0.8607  0.0075
  879MOL0     H16016  10.471   6.544  10.076  2.1585  0.2119  2.0836
  879MOL0     H16017  10.704   6.526  10.155  1.6683 -3.1384  0.1049
  879MOL0     H16018  11.005   6.601   9.839  1.9807  3.0605  1.2675
  879MOL0     H16019  11.092   6.457   9.887  0.8138  0.9044 -1.4532
  879MOL0     H16020  11.102   6.612  10.115 -1.1502  0.4860 -0.4689
  879MOL0     H16021  11.215   6.650   9.980  0.3022 -1.6157 -1.5735
  879MOL0     H16022  10.933   6.760  10.021  1.1248 -1.7502  3.5528
  879MOL0     H16023  11.054   6.824   9.905 -0.7297  1.4353  0.6913
  879MOL0     H16024  11.015   6.965  10.098 -1.1689 -1.2492 -0.9973
  879MOL0     H16025  11.063   6.845  10.208 -4.1645  1.9457 -0.2219
  879MOL0     H16026  11.429   7.014  10.107 -0.1768 -0.4466 -0.1992
  879MOL0     H16027  10.837   6.529   9.735  0.0360 -1.8147 -0.7112
  879MOL0     H16028  10.616   6.519   9.666  2.9009  1.3844 -0.4832
  880MOL0     O16029   5.918   1.076   6.932  0.4353 -0.3721 -0.4825
  880MOL0     C16030   5.868   1.150   6.843 -0.9608  0.8814 -0.4708
  880MOL0     O16031   5.942   1.234   6.775  0.3815 -0.2070 -0.1648
  880MOL0     C16032   6.083   1.221   6.754 -0.0379 -0.3340 -0.2276
  880MOL0     C16033   6.148   1.096   6.736  0.7021  0.3439 -0.6819
  880MOL0     C16034   6.289   1.079   6.737  0.7035  0.8694 -0.2041
  880MOL0     C16035   6.366   1.195   6.729  0.5591  0.6731  0.8103
  880MOL0     O16036   6.500   1.199   6.706 -0.0957 -0.4074  0.3990
  880MOL0     C16037   6.559   1.083   6.642  0.5359 -0.3450 -0.6313
  880MOL0     C16038   6.708   1.099   6.634 -0.0990 -0.0441  0.3373
  880MOL0     C16039   6.771   0.953   6.620 -0.0451  0.0347  0.2600
  880MOL0     C16040   6.711   0.872   6.500 -0.9138 -0.1969  0.8446
  880MOL0     C16041   6.747   0.719   6.502  0.0819  0.6823  0.1301
  880MOL0     C16042   6.733   0.639   6.378  0.7043 -0.0748  0.3872
  880MOL0     C16043   6.770   0.488   6.400 -0.5451 -0.4438  0.1488
  880MOL0     C16044   6.836   0.423   6.279 -0.7871  0.5808 -0.7074
  880MOL0     N16045   6.741   0.428   6.170 -0.4124 -0.2758 -0.1503
  880MOL0     C16046   6.609   0.438   6.172  0.8846 -0.6248 -0.1654
  880MOL0     C16047   6.572   0.441   6.044 -1.0342 -0.6070 -0.3451
  880MOL0     C16048   6.435   0.428   6.004 -0.4167 -0.0828  0.0657
  880MOL0     C16049   6.362   0.560   5.983 -1.0278  0.3789  0.8359
  880MOL0     C16050   6.240   0.531   5.895 -0.7096 -0.1306 -0.1784
  880MOL0     C16051   6.120   0.472   5.969  0.3638  0.8107  0.1471
  880MOL0     O16052   6.081   0.352   5.909  0.6260  0.8338  0.1411
  880MOL0     C16053   5.951   0.306   5.917  0.6270  0.5395 -0.0257
  880MOL0     C16054   5.864   0.352   6.022 -0.1978  0.7481 -0.2330
  880MOL0     C16055   5.738   0.292   6.031  0.2229  0.7652  0.1717
  880MOL0     C16056   5.695   0.185   5.938  0.2582 -0.0540  0.3788
  880MOL0     C16057   5.563   0.122   5.954  0.1262 -0.2382  0.7386
  880MOL0     O16058   5.518   0.046   5.856 -0.4006  0.6091  0.7669
  880MOL0     C16059   5.395   0.002   5.858  0.4273 -0.3074 -0.2872
  880MOL0     C16060   5.285   0.084   5.884 -0.2858 -1.0480  0.5731
  880MOL0     C16061   5.156   0.035   5.870  0.2378  0.5509  0.0939
  880MOL0     C16062   5.139  -0.086   5.805 -0.6141 -0.0686 -0.0402
  880MOL0     O16063   5.009  -0.124   5.761 -0.6351 -0.4144 -0.1322
  880MOL0     C16064   4.926  -0.011   5.724 -0.4107  0.9106 -0.1955
  880MOL0     C16065   4.832  -0.060   5.612  1.0481  0.2994  0.8244
  880MOL0     C16066   4.719   0.042   5.584  0.7549  0.4493  1.6691
  880MOL0     C16067   4.595  -0.040   5.524  0.2441 -0.1041 -1.2413
  880MOL0     C16068   4.471   0.045   5.521  0.6670 -0.1447  0.2310
  880MOL0     C16069   4.352  -0.023   5.471 -0.2617  0.2255 -0.1007
  880MOL0     C16070   4.225   0.057   5.460  0.1924  0.0235 -0.2628
  880MOL0     C16071   4.108  -0.013   5.397  0.1826 -0.3652 -0.0490
  880MOL0    Cl16072   4.055  -0.163   5.474  0.1023  0.3330  0.1975
  880MOL0     C16073   5.247  -0.179   5.795  0.5410  0.0038  0.0758
  880MOL0     C16074   5.379  -0.131   5.824  0.3427  0.6175 -0.3971
  880MOL0     O16075   5.497   0.146   6.058 -0.8717 -1.2363 -0.6458
  880MOL0     C16076   5.780   0.147   5.828  0.5076  0.0619  0.4938
  880MOL0     C16077   5.906   0.203   5.831  0.1494 -0.2687 -0.0731
  880MOL0     N16078   6.685   0.459   5.970 -0.6519 -0.0797 -0.3883
  880MOL0     N16079   6.785   0.448   6.048 -0.6769 -0.2572 -0.1180
  880MOL0     C16080   6.313   1.326   6.723  0.9749 -0.1024  0.2056
  880MOL0     C16081   6.171   1.339   6.739  0.2352  0.8126 -0.0585
  880MOL0     C16082   5.725   1.140   6.811 -0.1034  0.1174  1.2158
  880MOL0     C16083   5.661   1.202   6.701 -0.6786 -0.6730 -0.0575
  880MOL0     C16084   5.522   1.185   6.678  0.1041 -0.1161 -0.4115
  880MOL0     C16085   5.456   1.081   6.744 -0.0290  0.5586 -0.4500
  880MOL0     O16086   5.328   1.048   6.701  0.0329 -0.5359  0.1383
  880MOL0     C16087   5.214   1.120   6.758  0.4615 -0.7558 -0.0103
  880MOL0     C16088   5.105   1.162   6.652 -0.0243  0.4577  0.2662
  880MOL0     C16089   5.035   1.036   6.600  0.5487 -0.9923  0.6303
  880MOL0     C16090   4.929   1.072   6.489  0.4446 -0.0597  0.0745
  880MOL0     C16091   4.994   1.086   6.361 -0.8437 -0.0311  0.4861
  880MOL0     C16092   5.073   1.072   6.263 -0.6790 -0.2829 -0.1466
  880MOL0     C16093   5.514   1.018   6.850 -0.8631  0.6893  0.7597
  880MOL0     C16094   5.646   1.052   6.884 -0.0706 -0.0605  0.3929
  880MOL0     H16095   6.083   1.009   6.742  1.5716 -0.4232 -1.9691
  880MOL0     H16096   6.338   0.983   6.744  0.2117  0.4679 -1.8288
  880MOL0     H16097   6.514   1.054   6.547 -2.4108 -2.0293  1.1257
  880MOL0     H16098   6.543   0.998   6.709 -0.8542  1.1818  1.0680
  880MOL0     H16099   6.753   1.147   6.721  1.2719 -1.9134  0.7413
  880MOL0     H16100   6.738   1.161   6.550 -1.7904  0.5938  0.1692
  880MOL0     H16101   6.749   0.892   6.708  0.8552  0.7727  1.0321
  880MOL0     H16102   6.876   0.982   6.615 -0.2226  0.4867 -1.8516
  880MOL0     H16103   6.602   0.879   6.495 -0.9044 -0.7346 -1.5950
  880MOL0     H16104   6.733   0.934   6.413 -1.3969  1.6264  1.9634
  880MOL0     H16105   6.695   0.659   6.577  1.6079 -0.2333  0.4964
  880MOL0     H16106   6.852   0.717   6.534 -0.0445 -0.1495  0.5170
  880MOL0     H16107   6.801   0.678   6.302 -0.5587  0.2029 -0.6350
  880MOL0     H16108   6.630   0.641   6.341  1.1352  0.7105 -0.8499
  880MOL0     H16109   6.837   0.480   6.486 -0.3247  0.0073  0.0206
  880MOL0     H16110   6.678   0.434   6.424 -0.0828 -1.0892  0.5132
  880MOL0     H16111   6.882   0.326   6.303 -0.8323  1.2091  2.2433
  880MOL0     H16112   6.921   0.487   6.254 -2.2491  2.4389 -1.0657
  880MOL0     H16113   6.542   0.424   6.256  0.5017 -2.4877 -0.7551
  880MOL0     H16114   6.372   0.372   6.074 -1.1841  1.0490  0.3053
  880MOL0     H16115   6.448   0.364   5.917 -0.6651 -1.8166  1.2540
  880MOL0     H16116   6.428   0.629   5.931  2.3497 -1.8427  1.8766
  880MOL0     H16117   6.332   0.600   6.080 -1.4057  0.4831  0.6789
  880MOL0     H16118   6.204   0.624   5.848 -1.4689  0.3636  1.3148
  880MOL0     H16119   6.251   0.466   5.808 -2.8380  1.4022 -1.7095
  880MOL0     H16120   6.037   0.543   5.966 -0.1930  0.1587 -1.9524
  880MOL0     H16121   6.135   0.446   6.074 -0.1303 -2.2696 -0.4501
  880MOL0     H16122   5.889   0.429   6.094  2.9732  0.2930 -0.6929
  880MOL0     H16123   5.671   0.333   6.105  0.8726  2.2125 -0.0144
  880MOL0     H16124   5.295   0.186   5.922  0.8875 -1.0597  0.3365
  880MOL0     H16125   5.066   0.093   5.885 -1.0988 -1.3914  0.0053
  880MOL0     H16126   4.983   0.071   5.679  2.5141 -2.0220 -2.3232
  880MOL0     H16127   4.857   0.018   5.804  0.3586  3.5838 -0.4234
  880MOL0     H16128   4.796  -0.159   5.644  2.1863  0.4356  2.6952
  880MOL0     H16129   4.889  -0.062   5.519 -1.1751  0.9586 -0.6403
  880MOL0     H16130   4.755   0.115   5.511  0.7492 -1.4626 -0.3578
  880MOL0     H16131   4.695   0.104   5.671  1.9717  1.7704  1.1050
  880MOL0     H16132   4.628  -0.084   5.429 -0.1535  1.2398 -2.0424
  880MOL0     H16133   4.575  -0.119   5.596  0.5058  1.1870  0.3202
  880MOL0     H16134   4.499   0.132   5.460 -0.4286  0.3616  0.4174
  880MOL0     H16135   4.452   0.097   5.616  0.3169 -0.2804  0.2351
  880MOL0     H16136   4.327  -0.108   5.535  1.5835 -0.5567 -0.3594
  880MOL0     H16137   4.372  -0.061   5.371 -0.1465  0.0086  0.0050
  880MOL0     H16138   4.199   0.096   5.559  0.3671  1.1692 -0.6582
  880MOL0     H16139   4.253   0.145   5.403  3.4304 -1.2851 -0.9064
  880MOL0     H16140   4.115  -0.017   5.288 -2.6651 -2.2450 -0.2679
  880MOL0     H16141   4.021   0.051   5.411 -0.5029 -1.3640  0.4570
  880MOL0     H16142   5.235  -0.277   5.749  2.9253 -0.4714  0.3374
  880MOL0     H16143   5.469  -0.187   5.803  1.4506  1.6364  1.3052
  880MOL0     H16144   5.757   0.074   5.751  1.7711  2.1789 -2.0743
  880MOL0     H16145   5.976   0.162   5.759 -0.8142  1.6618 -2.2331
  880MOL0     H16146   6.375   1.414   6.734 -0.4678  1.4060 -2.6039
  880MOL0     H16147   6.126   1.438   6.736  0.6779  0.9973 -0.7789
  880MOL0     H16148   5.716   1.284   6.656 -1.0949 -0.3412  0.0189
  880MOL0     H16149   5.474   1.243   6.600 -1.8117  0.6791  1.2431
  880MOL0     H16150   5.248   1.211   6.808  2.4447 -0.7922 -1.1776
  880MOL0     H16151   5.176   1.067   6.846  0.6795  1.9441  1.8225
  880MOL0     H16152   5.040   1.238   6.697  0.9238  1.4794 -0.0313
  880MOL0     H16153   5.145   1.220   6.568 -1.6333 -0.1658 -0.9750
  880MOL0     H16154   4.989   0.973   6.678  0.4689 -1.3597  0.2909
  880MOL0     H16155   5.108   0.967   6.557 -0.5963 -2.4712  0.9715
  880MOL0     H16156   4.855   0.992   6.498 -0.4152  0.6360 -0.7061
  880MOL0     H16157   4.877   1.167   6.502  0.0444 -0.0455 -1.4364
  880MOL0     H16158   5.132   1.052   6.176 -1.3453 -0.8592 -0.4768
  880MOL0     H16159   5.468   0.933   6.900 -1.1864  0.1085 -0.4956
  880MOL0     H16160   5.690   0.987   6.959 -1.2872  1.0086  2.1061
  881MOL0     O16161   4.873   0.237   3.071  0.3495 -0.0692 -0.2042
  881MOL0     C16162   4.889   0.145   2.993 -0.1144 -0.9153  0.1617
  881MOL0     O16163   4.788   0.078   2.933  0.5458  0.7057  0.5191
  881MOL0     C16164   4.658   0.083   2.974  0.2568  0.3046  1.0382
  881MOL0     C16165   4.611   0.107   3.101  0.3007 -0.3312 -0.2497
  881MOL0     C16166   4.476   0.127   3.121 -0.0048  0.4251  0.4773
  881MOL0     C16167   4.389   0.105   3.023  0.4036 -0.3722  0.0481
  881MOL0     O16168   4.259   0.124   3.063 -0.3449  0.0730 -0.3212
  881MOL0     C16169   4.166   0.132   2.958 -0.3088 -0.7162 -0.4404
  881MOL0     C16170   4.034   0.155   3.028  0.8257 -0.2028 -0.1289
  881MOL0     C16171   3.913   0.140   2.938 -0.0917 -0.7177 -0.0710
  881MOL0     C16172   3.780   0.141   3.016  0.6283  0.3160  1.1392
  881MOL0     C16173   3.748   0.266   3.096  0.1471  0.3772  0.0805
  881MOL0     C16174   3.728   0.398   3.012  0.2755 -0.4595  0.6210
  881MOL0     C16175   3.584   0.391   2.951 -0.9365  0.1398  0.7358
  881MOL0     C16176   3.546   0.535   2.905 -0.1940  0.1323  0.3676
  881MOL0     N16177   3.489   0.625   3.011 -0.0444 -0.0947 -0.2179
  881MOL0     C16178   3.452   0.754   2.992 -1.1659  0.2450  1.0653
  881MOL0     C16179   3.417   0.796   3.122  0.1412  0.0781  0.8546
  881MOL0     C16180   3.370   0.939   3.146 -0.4354  0.2496 -0.5354
  881MOL0     C16181   3.238   0.973   3.084 -0.6687  0.0184  0.0614
  881MOL0     C16182   3.211   1.114   3.157  0.0411 -0.0932  0.3641
  881MOL0     C16183   3.074   1.169   3.111  0.1332  0.6867 -0.1259
  881MOL0     O16184   3.049   1.297   3.157 -0.1289 -0.0589 -0.3927
  881MOL0     C16185   2.930   1.354   3.124  0.1722 -0.5589 -0.0824
  881MOL0     C16186   2.898   1.480   3.170 -0.3430 -0.3332 -0.7605
  881MOL0     C16187   2.774   1.536   3.151  0.8694  0.0365  0.2183
  881MOL0     C16188   2.679   1.478   3.062  0.0913 -0.0789 -0.4854
  881MOL0     C16189   2.544   1.537   3.024 -0.6906 -0.3039  0.0015
  881MOL0     O16190   2.446   1.454   2.988  0.7172  0.7608  0.0360
  881MOL0     C16191   2.318   1.508   2.962 -0.8795  0.0695 -0.2697
  881MOL0     C16192   2.296   1.595   2.860 -0.2098  0.1106 -0.2037
  881MOL0     C16193   2.159   1.642   2.844 -1.1145 -0.2722 -0.9754
  881MOL0     C16194   2.060   1.624   2.945 -0.4763 -0.3192  0.1233
  881MOL0     O16195   1.938   1.680   2.941  0.4480 -0.1553 -0.2302
  881MOL0     C16196   1.846   1.606   2.852  0.0065 -0.4431  0.1027
  881MOL0     C16197   1.706   1.670   2.847 -0.2818  0.0976 -0.2585
  881MOL0     C16198   1.603   1.575   2.773  0.3489  0.7488  0.6885
  881MOL0     C16199   1.466   1.644   2.747 -0.3896  0.1142 -1.0638
  881MOL0     C16200   1.373   1.560   2.660 -0.3840 -0.0189  0.1300
  881MOL0     C16201   1.236   1.623   2.632 -0.1214 -0.2079  0.2655
  881MOL0     C16202   1.147   1.521   2.557 -0.2960 -0.1502 -0.6889
  881MOL0     C16203   1.000   1.568   2.534  0.1816 -0.1960  0.2844
  881MOL0    Cl16204   0.910   1.431   2.471  0.2112  0.1715  0.0208
  881MOL0     C16205   2.088   1.518   3.033  0.2787  0.3350 -0.4348
  881MOL0     C16206   2.220   1.459   3.046  0.6647 -0.3348 -0.3291
  881MOL0     O16207   2.542   1.663   3.034 -0.2908 -0.6643  0.3602
  881MOL0     C16208   2.705   1.346   3.021  0.1632 -0.3590  0.7616
  881MOL0     C16209   2.828   1.289   3.051  0.1658  0.5827 -0.7571
  881MOL0     N16210   3.415   0.690   3.205  0.6741  0.4732 -0.9035
  881MOL0     N16211   3.458   0.588   3.139 -0.5402 -0.1886 -0.1286
  881MOL0     C16212   4.432   0.067   2.896  0.2007  1.1498  0.3563
  881MOL0     C16213   4.572   0.060   2.867  0.0689 -0.2204  0.2919
  881MOL0     C16214   5.028   0.109   2.969  0.0724  0.3376  0.1407
  881MOL0     C16215   5.128   0.149   3.060 -0.3943 -0.0390 -0.2003
  881MOL0     C16216   5.262   0.108   3.048  0.8078 -0.3670 -0.2392
  881MOL0     C16217   5.300   0.017   2.953  0.2683 -0.0616 -0.1248
  881MOL0     O16218   5.428  -0.025   2.962  0.1732  0.1623  0.3297
  881MOL0     C16219   5.468  -0.135   2.876  0.9207  0.3486 -0.4773
  881MOL0     C16220   5.606  -0.177   2.921 -0.3500  0.1813  0.5846
  881MOL0     C16221   5.652  -0.300   2.841 -1.0496 -0.7640 -0.1839
  881MOL0     C16222   5.797  -0.319   2.880 -0.6385  0.1823 -0.0488
  881MOL0     C16223   5.859  -0.391   2.773 -0.2110  1.0474  0.8975
  881MOL0     C16224   5.911  -0.459   2.677 -0.5691 -0.5345  0.8237
  881MOL0     C16225   5.198  -0.037   2.860 -0.7191 -0.0807 -0.7093
  881MOL0     C16226   5.065   0.018   2.866 -0.6268 -0.0634  0.6559
  881MOL0     H16227   4.680   0.114   3.184 -0.3091  3.2005  0.1192
  881MOL0     H16228   4.442   0.152   3.221  1.8354 -0.5736  1.4075
  881MOL0     H16229   4.156   0.034   2.910 -3.5353 -2.1708  2.6778
  881MOL0     H16230   4.193   0.214   2.891 -0.1302  1.1435  1.7809
  881MOL0     H16231   4.032   0.256   3.071 -1.1390 -0.3503  0.2434
  881MOL0     H16232   4.037   0.081   3.108  2.0746 -1.3502 -1.1984
  881MOL0     H16233   3.914   0.047   2.881  0.5767 -0.0972 -1.1044
  881MOL0     H16234   3.914   0.221   2.865 -0.2227 -0.2347  0.4551
  881MOL0     H16235   3.699   0.122   2.947  0.5020 -1.1975  1.6719
  881MOL0     H16236   3.777   0.062   3.092 -2.4428 -0.8484 -0.0725
  881MOL0     H16237   3.836   0.282   3.159  2.4723  0.8291 -3.0843
  881MOL0     H16238   3.658   0.259   3.158 -1.2155 -1.3098 -1.9728
  881MOL0     H16239   3.805   0.413   2.935 -0.1239 -1.3094  0.0430
  881MOL0     H16240   3.729   0.480   3.084  2.3221  0.4874 -0.3784
  881MOL0     H16241   3.595   0.334   2.858 -0.3499  0.4763  0.5954
  881MOL0     H16242   3.512   0.354   3.025  0.2881  1.3390  2.5954
  881MOL0     H16243   3.479   0.522   2.819 -0.0821  0.9462  0.1483
  881MOL0     H16244   3.642   0.576   2.870  1.1459 -0.4108  3.1656
  881MOL0     H16245   3.465   0.820   2.907  2.3951  0.7945  1.8988
  881MOL0     H16246   3.442   1.014   3.114 -0.6853  0.4656 -0.5908
  881MOL0     H16247   3.356   0.956   3.253  0.7312  3.1553 -0.7582
  881MOL0     H16248   3.169   0.893   3.110 -0.6071 -0.8650 -2.2635
  881MOL0     H16249   3.238   0.970   2.975 -0.3168 -0.7226  0.0775
  881MOL0     H16250   3.209   1.102   3.266 -0.2871 -1.5819  0.2012
  881MOL0     H16251   3.289   1.185   3.127 -0.7789 -0.6054 -3.3472
  881MOL0     H16252   3.005   1.093   3.147  0.7542  0.1564 -0.0247
  881MOL0     H16253   3.072   1.172   3.001 -2.9376 -0.1118 -0.1714
  881MOL0     H16254   2.983   1.528   3.219 -0.9245  0.7498 -0.7796
  881MOL0     H16255   2.769   1.642   3.175 -0.2315  0.2336 -0.7675
  881MOL0     H16256   2.387   1.629   2.813  1.2513  0.6428  2.7690
  881MOL0     H16257   2.133   1.709   2.762 -4.3963  0.3290  0.3888
  881MOL0     H16258   1.840   1.498   2.873 -0.7056 -0.4605 -0.1598
  881MOL0     H16259   1.888   1.606   2.752 -1.9354  0.6091 -0.7760
  881MOL0     H16260   1.708   1.771   2.805 -2.6516  0.9561  1.4832
  881MOL0     H16261   1.670   1.689   2.948 -1.6838  0.2093 -0.7552
  881MOL0     H16262   1.602   1.480   2.827  2.3361  0.2036 -0.1364
  881MOL0     H16263   1.650   1.556   2.676  0.8868  0.5913  0.9754
  881MOL0     H16264   1.414   1.651   2.843 -0.3969 -0.6890 -1.0030
  881MOL0     H16265   1.487   1.738   2.695 -0.1285  0.0374 -1.1004
  881MOL0     H16266   1.347   1.470   2.717 -2.1606  1.0536  1.0987
  881MOL0     H16267   1.416   1.546   2.561 -1.6377 -1.1253 -0.2848
  881MOL0     H16268   1.238   1.723   2.587  0.0038  0.4410  1.6606
  881MOL0     H16269   1.186   1.623   2.730 -2.6706  1.3342 -0.9263
  881MOL0     H16270   1.195   1.511   2.459  1.7786 -0.9213  0.3236
  881MOL0     H16271   1.161   1.422   2.604  2.0605  0.1444 -0.6215
  881MOL0     H16272   0.994   1.657   2.471 -1.9319 -1.3860 -1.3055
  881MOL0     H16273   0.943   1.596   2.624 -0.2831  1.0668 -0.3841
  881MOL0     H16274   2.013   1.479   3.100  1.1212  1.8646  1.4914
  881MOL0     H16275   2.251   1.383   3.117  3.9475 -0.5709 -1.8443
  881MOL0     H16276   2.638   1.286   2.960  0.1218 -0.1714  0.6205
  881MOL0     H16277   2.855   1.191   3.014 -1.1759  0.0500 -0.4097
  881MOL0     H16278   4.360   0.051   2.817  0.1416  2.3560  0.1517
  881MOL0     H16279   4.609   0.021   2.773  1.3474  1.6563 -0.0304
  881MOL0     H16280   5.114   0.201   3.154 -0.6602  0.2918 -0.4198
  881MOL0     H16281   5.341   0.145   3.113  3.2610 -1.7244 -2.2767
  881MOL0     H16282   5.478  -0.116   2.769 -0.6341 -0.6321 -0.8334
  881MOL0     H16283   5.408  -0.226   2.878  1.0372  0.2750 -0.2903
  881MOL0     H16284   5.670  -0.094   2.889 -2.6701  1.1783 -1.8881
  881MOL0     H16285   5.610  -0.191   3.029 -0.3870  0.6355  0.6454
  881MOL0     H16286   5.640  -0.261   2.740  2.5121  1.6352  0.1349
  881MOL0     H16287   5.599  -0.394   2.859 -1.6311 -0.3907  0.1099
  881MOL0     H16288   5.848  -0.223   2.893  0.5239 -0.5611  1.1334
  881MOL0     H16289   5.802  -0.364   2.980  1.9466 -0.4358 -0.3726
  881MOL0     H16290   5.954  -0.498   2.587  2.8690  3.0236  0.6299
  881MOL0     H16291   5.235  -0.102   2.780  3.2276  0.1632  0.7066
  881MOL0     H16292   4.993  -0.023   2.796 -0.7203 -1.1194  1.3413
  882MOL0     O16293   0.123   8.179   3.992 -0.5461 -0.3040  0.0861
  882MOL0     C16294   0.228   8.121   3.961 -0.1191  0.2694 -0.1617
  882MOL0     O16295   0.231   7.998   3.909  0.2745  0.0156  0.1123
  882MOL0     C16296   0.110   7.943   3.878  0.3855  1.2154 -0.7577
  882MOL0     C16297   0.023   7.907   3.984  0.5138  0.2187 -0.4815
  882MOL0     C16298  -0.096   7.837   3.946  0.1766 -0.5311  0.9781
  882MOL0     C16299  -0.120   7.800   3.812 -0.0621  0.2320 -0.5413
  882MOL0     O16300  -0.227   7.718   3.784 -0.0711  0.0867 -0.4437
  882MOL0     C16301  -0.244   7.667   3.652  0.0915  0.5662  0.8986
  882MOL0     C16302  -0.335   7.541   3.666 -0.0518 -0.0913 -1.2422
  882MOL0     C16303  -0.479   7.571   3.671  0.0942  0.5687  0.3256
  882MOL0     C16304  -0.534   7.617   3.803 -1.0065 -0.2574 -0.4699
  882MOL0     C16305  -0.686   7.641   3.811  0.1789 -0.7438 -0.1579
  882MOL0     C16306  -0.720   7.783   3.749  0.0463  0.5080 -0.3225
  882MOL0     C16307  -0.874   7.799   3.753  0.0219 -0.0850  0.7920
  882MOL0     C16308  -0.929   7.804   3.890 -0.0297 -0.4044 -0.5937
  882MOL0     N16309  -1.075   7.841   3.883 -0.3621  0.5732 -0.5497
  882MOL0     C16310  -1.186   7.760   3.866 -0.0850 -0.0153  0.2703
  882MOL0     C16311  -1.292   7.844   3.846 -0.8424 -0.5349  0.1566
  882MOL0     C16312  -1.427   7.788   3.805 -0.0564  0.4886  0.0223
  882MOL0     C16313  -1.518   7.793   3.928  0.6155 -0.1257  0.3074
  882MOL0     C16314  -1.661   7.849   3.914  0.6331  0.0465 -0.3731
  882MOL0     C16315  -1.759   7.770   3.826  0.2741 -0.1021  0.2810
  882MOL0     O16316  -1.894   7.799   3.844  0.0164 -0.3170  0.1484
  882MOL0     C16317  -1.989   7.726   3.788  0.1770  0.7362  1.0334
  882MOL0     C16318  -2.120   7.777   3.813 -0.2353  0.3329  0.3897
  882MOL0     C16319  -2.236   7.714   3.766  0.6358  0.4794 -0.0245
  882MOL0     C16320  -2.216   7.597   3.687  0.4874  0.2151  0.1186
  882MOL0     C16321  -2.332   7.515   3.646 -0.4352  0.0009 -0.2058
  882MOL0     O16322  -2.450   7.566   3.688  0.5401 -0.5460 -0.2266
  882MOL0     C16323  -2.574   7.520   3.641 -0.0143 -0.5239  0.1344
  882MOL0     C16324  -2.601   7.468   3.518 -0.1161  0.1836 -0.3913
  882MOL0     C16325  -2.730   7.436   3.486 -0.2408  0.0615 -0.2877
  882MOL0     C16326  -2.835   7.459   3.578  0.0884  0.1804  0.4309
  882MOL0     O16327  -2.963   7.428   3.554 -0.2466 -0.3028  0.5258
  882MOL0     C16328  -3.001   7.293   3.562 -0.4490  0.3540  0.2669
  882MOL0     C16329  -3.146   7.276   3.536 -0.7730 -0.6624  0.3685
  882MOL0     C16330  -3.240   7.327   3.651 -0.0831  0.1005  0.8655
  882MOL0     C16331  -3.375   7.286   3.603  0.1967 -0.5614 -0.4481
  882MOL0     C16332  -3.482   7.337   3.711  0.4730  0.9938  0.0236
  882MOL0     C16333  -3.619   7.266   3.697 -0.4321 -0.6348  0.2372
  882MOL0     C16334  -3.720   7.296   3.809 -0.4526  0.2164 -0.3638
  882MOL0     C16335  -3.791   7.429   3.796 -0.4716  0.5651  0.5147
  882MOL0    Cl16336  -3.856   7.473   3.632  0.2648 -0.0332  0.0307
  882MOL0     C16337  -2.808   7.506   3.701 -0.4660 -0.0464  0.0142
  882MOL0     C16338  -2.678   7.541   3.735 -0.6843 -0.4067  0.9343
  882MOL0     O16339  -2.320   7.419   3.574  0.1739  0.0166 -0.7565
  882MOL0     C16340  -2.089   7.548   3.661  0.0585  0.6517 -0.1079
  882MOL0     C16341  -1.976   7.611   3.709 -0.2762  0.4897 -0.3796
  882MOL0     N16342  -1.255   7.978   3.865  0.0964 -0.3327 -0.4526
  882MOL0     N16343  -1.126   7.969   3.868 -0.4444 -0.6195  0.4197
  882MOL0     C16344  -0.034   7.844   3.715  0.4036  0.5351  0.0470
  882MOL0     C16345   0.073   7.917   3.747 -0.9595  0.0754 -0.4594
  882MOL0     C16346   0.354   8.191   3.973 -0.2262  0.2817 -0.2724
  882MOL0     C16347   0.452   8.183   3.872  0.0133  0.0033 -0.9785
  882MOL0     C16348   0.557   8.278   3.867  0.5151  0.1841  1.0612
  882MOL0     C16349   0.570   8.383   3.957  0.9666 -0.8107  0.5953
  882MOL0     O16350   0.667   8.471   3.977 -0.5650 -0.4559  0.0816
  882MOL0     C16351   0.772   8.487   3.878 -0.3865  0.4424  0.5885
  882MOL0     C16352   0.870   8.602   3.926  0.1868  0.4615 -0.0441
  882MOL0     C16353   0.971   8.620   3.808 -0.8115  0.9431 -0.2137
  882MOL0     C16354   1.027   8.757   3.796 -0.4566 -0.0140  0.3427
  882MOL0     C16355   0.924   8.858   3.764 -0.2369  0.0836  0.4065
  882MOL0     C16356   0.840   8.941   3.754  0.8103 -0.0106 -0.4305
  882MOL0     C16357   0.474   8.392   4.062 -0.0088 -0.6734  0.2875
  882MOL0     C16358   0.369   8.301   4.069 -0.1741  0.9217  0.0148
  882MOL0     H16359   0.047   7.930   4.087  3.7023 -0.0881 -1.0532
  882MOL0     H16360  -0.172   7.803   4.016 -1.9594  0.9300 -0.5037
  882MOL0     H16361  -0.149   7.632   3.611 -1.5906 -0.5764 -2.3629
  882MOL0     H16362  -0.289   7.741   3.585 -1.9417  0.5954  2.1927
  882MOL0     H16363  -0.308   7.491   3.760 -1.9293  0.6824 -0.2397
  882MOL0     H16364  -0.324   7.469   3.584 -2.3697 -0.7827 -1.0225
  882MOL0     H16365  -0.535   7.488   3.628 -0.3022  0.3590  1.2284
  882MOL0     H16366  -0.497   7.654   3.602 -0.2791 -0.7555 -1.2432
  882MOL0     H16367  -0.514   7.532   3.868 -2.4666 -1.1123 -1.1011
  882MOL0     H16368  -0.476   7.706   3.831  1.2137 -2.3025  1.9729
  882MOL0     H16369  -0.716   7.628   3.915 -2.7024 -2.1472 -1.0309
  882MOL0     H16370  -0.739   7.558   3.764  1.4857 -1.7605  0.0892
  882MOL0     H16371  -0.688   7.778   3.644 -0.0963 -0.1922 -0.3410
  882MOL0     H16372  -0.668   7.866   3.797 -0.7349  0.6571  0.2800
  882MOL0     H16373  -0.911   7.886   3.696  2.1203 -0.5501 -1.4575
  882MOL0     H16374  -0.911   7.712   3.698 -2.3012  1.1011  0.2951
  882MOL0     H16375  -0.874   7.878   3.947 -1.2298  0.0580  0.0058
  882MOL0     H16376  -0.930   7.701   3.928 -3.2469 -2.4131 -5.1680
  882MOL0     H16377  -1.177   7.652   3.863 -0.5584 -0.0787  0.7899
  882MOL0     H16378  -1.426   7.683   3.774  0.7848 -0.5551  3.2443
  882MOL0     H16379  -1.466   7.863   3.735 -0.6158  2.2969  2.1360
  882MOL0     H16380  -1.467   7.849   4.007  2.2777 -1.7879  0.4633
  882MOL0     H16381  -1.527   7.688   3.958  1.1429 -0.7702 -1.6237
  882MOL0     H16382  -1.705   7.846   4.014 -0.3339 -2.1926 -0.8172
  882MOL0     H16383  -1.657   7.954   3.884 -1.3376  1.4823  3.6475
  882MOL0     H16384  -1.738   7.663   3.834  0.6338 -0.0344  0.2439
  882MOL0     H16385  -1.738   7.800   3.722 -0.0340 -0.8034  0.0077
  882MOL0     H16386  -2.117   7.871   3.868  0.1980  0.0091  0.9347
  882MOL0     H16387  -2.333   7.761   3.779  1.3607  1.2215  4.5731
  882MOL0     H16388  -2.526   7.454   3.442 -0.5052 -1.2147 -0.5404
  882MOL0     H16389  -2.752   7.404   3.384  0.2429  0.3106 -0.4734
  882MOL0     H16390  -2.974   7.250   3.659  0.1925 -1.1740 -0.5554
  882MOL0     H16391  -2.947   7.236   3.486 -0.0882 -0.1468  0.8895
  882MOL0     H16392  -3.147   7.166   3.533  0.3595 -0.7775  2.3563
  882MOL0     H16393  -3.168   7.321   3.439  1.7016  3.0260  1.3074
  882MOL0     H16394  -3.237   7.436   3.659 -0.0897  0.0210  2.1569
  882MOL0     H16395  -3.216   7.291   3.752 -0.7602  1.5666  1.5794
  882MOL0     H16396  -3.395   7.337   3.509  2.7674  0.4531 -0.5171
  882MOL0     H16397  -3.378   7.179   3.579 -0.7984 -0.7777  0.5269
  882MOL0     H16398  -3.495   7.444   3.691  1.3888  0.6643 -2.6940
  882MOL0     H16399  -3.454   7.314   3.814  1.4311 -1.5041 -0.7199
  882MOL0     H16400  -3.606   7.158   3.706  0.8977 -0.3618  1.9893
  882MOL0     H16401  -3.657   7.287   3.596  0.8182  2.6526  0.3195
  882MOL0     H16402  -3.803   7.225   3.798 -0.4280 -0.5253  3.1107
  882MOL0     H16403  -3.662   7.281   3.900  0.8165 -1.8060 -1.4130
  882MOL0     H16404  -3.731   7.517   3.818 -0.6380  0.5014  1.2470
  882MOL0     H16405  -3.868   7.422   3.873  1.1287 -3.5347  2.0072
  882MOL0     H16406  -2.889   7.522   3.771 -0.5655  1.9599 -0.4940
  882MOL0     H16407  -2.650   7.603   3.820 -0.8553 -2.1102  2.2964
  882MOL0     H16408  -2.076   7.462   3.597  2.4287  0.8230  0.0838
  882MOL0     H16409  -1.878   7.569   3.685 -0.2584  1.1653 -1.5802
  882MOL0     H16410  -0.062   7.836   3.610  1.4170  0.8322 -0.2553
  882MOL0     H16411   0.144   7.961   3.677 -1.9647  1.7687 -0.4762
  882MOL0     H16412   0.437   8.114   3.790  5.1981 -2.4712 -0.2133
  882MOL0     H16413   0.625   8.279   3.783 -0.4637 -0.4437  0.2494
  882MOL0     H16414   0.739   8.494   3.774 -0.8293 -2.7166  0.4223
  882MOL0     H16415   0.827   8.392   3.876  1.9227  1.6197 -3.8220
  882MOL0     H16416   0.803   8.688   3.936 -2.0254 -1.2184  0.3932
  882MOL0     H16417   0.934   8.568   4.007 -1.9322 -1.3239  0.9697
  882MOL0     H16418   0.916   8.594   3.718 -0.9896  0.3147  0.0698
  882MOL0     H16419   1.054   8.551   3.825 -2.2761 -0.4569  1.7586
  882MOL0     H16420   1.070   8.783   3.893  1.0477 -0.4866 -0.1839
  882MOL0     H16421   1.109   8.758   3.724 -0.5408  1.2272  0.2440
  882MOL0     H16422   0.765   9.015   3.734  0.1921 -1.3151 -3.5759
  882MOL0     H16423   0.490   8.464   4.141  2.5081 -3.0148  2.1275
  882MOL0     H16424   0.292   8.317   4.143  0.4872 -2.6692  1.6985
  883MOL0     O16425   2.815   9.548   7.709 -0.3801  0.4750 -0.1090
  883MOL0     C16426   2.862   9.647   7.766 -0.4478  0.0171 -0.5489
  883MOL0     O16427   2.785   9.739   7.842  0.0462  0.2279  0.6920
  883MOL0     C16428   2.648   9.728   7.868 -0.2348  0.7394 -0.3807
  883MOL0     C16429   2.578   9.844   7.881  0.1056 -0.3913 -0.3102
  883MOL0     C16430   2.441   9.851   7.916  0.2961 -0.2079 -0.3796
  883MOL0     C16431   2.382   9.725   7.957  0.3882  0.4273  0.4504
  883MOL0     O16432   2.251   9.734   7.999  0.5086 -0.2684  0.0499
  883MOL0     C16433   2.186   9.624   8.059  0.8799 -0.3744 -0.2639
  883MOL0     C16434   2.058   9.677   8.132 -0.2721 -0.2350 -0.1369
  883MOL0     C16435   1.950   9.695   8.023 -0.3562 -0.0194 -0.8596
  883MOL0     C16436   1.821   9.747   8.087  0.7336  0.2646 -0.3025
  883MOL0     C16437   1.697   9.714   7.996  0.7440  0.3519  0.4014
  883MOL0     C16438   1.558   9.769   8.047 -0.1752  0.9767 -0.0037
  883MOL0     C16439   1.516   9.914   8.012  0.1566  0.9170  1.2652
  883MOL0     C16440   1.435   9.952   7.886  0.9496  0.7565 -0.6824
  883MOL0     N16441   1.299   9.891   7.880  0.2039  0.7180  0.5056
  883MOL0     C16442   1.254   9.796   7.785 -0.1386  0.2090 -0.4725
  883MOL0     C16443   1.125   9.776   7.827  0.3821  0.5601  0.5204
  883MOL0     C16444   1.023   9.679   7.776  0.4344 -0.7064  0.6898
  883MOL0     C16445   0.894   9.763   7.757 -0.2610  0.3929 -0.2073
  883MOL0     C16446   0.799   9.664   7.689  0.1378 -0.5934  0.1701
  883MOL0     C16447   0.649   9.699   7.713 -1.2205  0.6691 -0.2510
  883MOL0     O16448   0.586   9.592   7.665 -0.1016 -0.0971 -0.5278
  883MOL0     C16449   0.453   9.610   7.648 -0.4791 -0.5417  0.3090
  883MOL0     C16450   0.405   9.540   7.535  0.0119 -0.8882  0.1277
  883MOL0     C16451   0.269   9.555   7.498 -0.6937 -1.3179 -0.1886
  883MOL0     C16452   0.181   9.620   7.585 -0.6063  0.2523  0.1488
  883MOL0     C16453   0.040   9.621   7.563 -0.2639 -0.3933  0.4326
  883MOL0     O16454  -0.022   9.732   7.612 -0.2290 -0.0663 -0.0274
  883MOL0     C16455  -0.160   9.717   7.614  0.1056 -0.0925 -0.0380
  883MOL0     C16456  -0.213   9.651   7.720  0.0875  0.2872 -0.4366
  883MOL0     C16457  -0.349   9.621   7.713 -0.6261  0.5043 -0.5499
  883MOL0     C16458  -0.433   9.678   7.620 -0.1594  0.2034 -0.4607
  883MOL0     O16459  -0.566   9.666   7.614  0.2566 -0.2378  0.4684
  883MOL0     C16460  -0.642   9.589   7.711  0.4997  0.1897  0.0132
  883MOL0     C16461  -0.645   9.437   7.676 -1.0854  0.9447 -0.4431
  883MOL0     C16462  -0.767   9.415   7.580 -0.1327  0.1752 -1.1550
  883MOL0     C16463  -0.797   9.267   7.561  0.8632 -0.3081 -0.0784
  883MOL0     C16464  -0.946   9.247   7.518  0.1393 -0.1331 -0.0497
  883MOL0     C16465  -0.977   9.292   7.375  0.3128  0.6669 -0.0623
  883MOL0     C16466  -1.101   9.221   7.311 -0.7365 -0.0494  0.5331
  883MOL0     C16467  -1.199   9.317   7.231 -0.5905 -0.1009 -0.5174
  883MOL0    Cl16468  -1.315   9.208   7.146  0.2353 -0.1297 -0.1425
  883MOL0     C16469  -0.374   9.751   7.512  0.2272  0.5561  0.4736
  883MOL0     C16470  -0.238   9.760   7.507 -1.0298  0.7912  0.1026
  883MOL0     O16471  -0.011   9.530   7.500  0.6930  0.3281  0.5829
  883MOL0     C16472   0.228   9.683   7.697  0.7033  0.3867 -0.1539
  883MOL0     C16473   0.362   9.680   7.726  0.0001 -0.0132  0.1152
  883MOL0     N16474   1.097   9.858   7.930 -0.2616 -0.1444 -0.5331
  883MOL0     N16475   1.201   9.922   7.962 -0.2220 -0.5226  0.1998
  883MOL0     C16476   2.448   9.604   7.943 -0.0535 -0.2852 -0.1409
  883MOL0     C16477   2.583   9.604   7.902  0.5074  0.9042  0.1464
  883MOL0     C16478   3.007   9.683   7.751 -0.3189 -0.2690 -0.1515
  883MOL0     C16479   3.051   9.813   7.792 -0.2261 -0.0166  0.5100
  883MOL0     C16480   3.184   9.857   7.772  0.3366  0.4980  0.7876
  883MOL0     C16481   3.272   9.773   7.708 -0.1533 -0.1617  0.2637
  883MOL0     O16482   3.402   9.830   7.691 -0.6810 -0.1105  0.0236
  883MOL0     C16483   3.501   9.764   7.601  0.0309 -0.4951 -0.0354
  883MOL0     C16484   3.646   9.835   7.628 -0.5588  0.0211 -0.1387
  883MOL0     C16485   3.706   9.785   7.768 -0.2806 -0.1050  0.4660
  883MOL0     C16486   3.788   9.662   7.737 -0.2495 -0.0423 -0.5115
  883MOL0     C16487   3.864   9.624   7.855 -0.0201  0.4625 -0.3320
  883MOL0     C16488   3.924   9.577   7.957  0.4577 -0.5378  0.3886
  883MOL0     C16489   3.231   9.651   7.660 -0.2213  0.2658 -0.1561
  883MOL0     C16490   3.100   9.604   7.691  0.3525 -0.4582 -0.1583
  883MOL0     H16491   2.633   9.937   7.874 -2.3252  1.2679  0.7956
  883MOL0     H16492   2.388   9.946   7.922 -1.5602 -1.2705  1.4956
  883MOL0     H16493   2.249   9.571   8.131 -1.6486 -0.8277  1.7739
  883MOL0     H16494   2.164   9.555   7.977  2.7253 -0.5024 -0.6905
  883MOL0     H16495   2.071   9.767   8.193 -3.6656 -0.3373  0.9395
  883MOL0     H16496   2.036   9.595   8.201  1.0881  1.0682  1.9602
  883MOL0     H16497   1.935   9.594   7.986 -0.9066 -0.8138  1.3578
  883MOL0     H16498   1.994   9.762   7.948 -1.1062  1.7146  0.1691
  883MOL0     H16499   1.808   9.720   8.193  1.3277  0.3027 -0.2190
  883MOL0     H16500   1.833   9.853   8.108 -0.4485  0.0522  1.7546
  883MOL0     H16501   1.688   9.605   7.987  0.1091  0.2596  1.8098
  883MOL0     H16502   1.720   9.759   7.899  0.2130 -0.5633 -0.1706
  883MOL0     H16503   1.558   9.765   8.156 -1.7398  2.4498  0.0846
  883MOL0     H16504   1.475   9.707   8.012  0.4168 -0.8825  1.6975
  883MOL0     H16505   1.463   9.953   8.099 -2.5983  1.7745 -0.6848
  883MOL0     H16506   1.613   9.964   8.013  0.2172  0.9174 -0.8318
  883MOL0     H16507   1.494   9.933   7.796  2.8011  0.8874  0.4547
  883MOL0     H16508   1.431  10.061   7.891  0.6028  0.7097  0.2322
  883MOL0     H16509   1.302   9.752   7.698  0.2200 -2.1367  0.8424
  883MOL0     H16510   1.013   9.594   7.845  1.0455 -2.4584 -1.2685
  883MOL0     H16511   1.064   9.641   7.683  0.7262 -0.7931  0.8516
  883MOL0     H16512   0.923   9.844   7.690  0.0701 -0.4796 -1.1402
  883MOL0     H16513   0.857   9.806   7.851 -0.7860 -0.8946  0.1986
  883MOL0     H16514   0.827   9.670   7.584 -1.3431 -0.5190 -0.2408
  883MOL0     H16515   0.817   9.561   7.722 -0.3234 -0.0404  2.3061
  883MOL0     H16516   0.621   9.789   7.657 -1.6768  1.2633  0.9048
  883MOL0     H16517   0.623   9.706   7.819  0.6962 -1.3848  0.4341
  883MOL0     H16518   0.474   9.470   7.489 -1.1455 -2.0445  0.0860
  883MOL0     H16519   0.227   9.525   7.402  1.1341  3.4573 -2.8196
  883MOL0     H16520  -0.145   9.633   7.802 -1.8445 -2.1738  0.7547
  883MOL0     H16521  -0.393   9.555   7.788  0.7048  1.1454  0.8522
  883MOL0     H16522  -0.743   9.630   7.724  1.1811  2.1219 -0.4203
  883MOL0     H16523  -0.587   9.606   7.803  0.4989  1.5505 -0.2229
  883MOL0     H16524  -0.650   9.379   7.769  0.4109 -1.2076 -1.6130
  883MOL0     H16525  -0.551   9.407   7.628 -1.2244  0.3575 -0.3545
  883MOL0     H16526  -0.754   9.468   7.485 -2.0310  1.8693 -0.5281
  883MOL0     H16527  -0.849   9.466   7.630 -1.0038 -1.0966 -1.2552
  883MOL0     H16528  -0.729   9.238   7.480  0.8662  1.7373 -0.8606
  883MOL0     H16529  -0.786   9.208   7.653  0.7205 -0.8425 -0.3993
  883MOL0     H16530  -1.008   9.312   7.581  2.7874  0.5422  2.0146
  883MOL0     H16531  -0.988   9.148   7.534  0.2979 -0.2656 -0.4570
  883MOL0     H16532  -0.892   9.266   7.311 -0.9128 -3.0751 -0.4253
  883MOL0     H16533  -0.993   9.400   7.376 -1.8481  0.4005 -0.0714
  883MOL0     H16534  -1.059   9.146   7.243  3.4183  2.9812 -0.6756
  883MOL0     H16535  -1.161   9.173   7.389  1.7321 -0.0086  2.5814
  883MOL0     H16536  -1.144   9.375   7.156  0.8325 -0.0443  0.5392
  883MOL0     H16537  -1.257   9.382   7.297 -0.4696 -0.7494  0.2424
  883MOL0     H16538  -0.439   9.782   7.431  0.9141 -0.0824 -0.3326
  883MOL0     H16539  -0.191   9.810   7.423 -1.0597 -0.6067 -0.7715
  883MOL0     H16540   0.170   9.738   7.770  2.1730  0.3368  1.0922
  883MOL0     H16541   0.390   9.728   7.819 -1.2535  2.0329 -0.4945
  883MOL0     H16542   2.397   9.510   7.960 -1.5499  0.1098 -2.1706
  883MOL0     H16543   2.639   9.512   7.890  0.9688  1.3139 -0.9903
  883MOL0     H16544   2.982   9.883   7.838  0.3279 -0.7183  2.4718
  883MOL0     H16545   3.214   9.956   7.804  3.4631  0.0856 -0.5582
  883MOL0     H16546   3.471   9.770   7.496 -0.9782  0.1799  0.2808
  883MOL0     H16547   3.503   9.657   7.623  0.2263 -0.7240 -1.1092
  883MOL0     H16548   3.717   9.814   7.548  1.4429  5.7767 -0.3350
  883MOL0     H16549   3.627   9.941   7.612 -0.8164 -0.2489 -1.7627
  883MOL0     H16550   3.628   9.757   7.841 -0.3600 -1.4293 -0.1056
  883MOL0     H16551   3.761   9.869   7.811 -4.1763  1.6034  2.7286
  883MOL0     H16552   3.716   9.585   7.705  0.6447 -0.9385 -0.4234
  883MOL0     H16553   3.862   9.681   7.659  2.5481  0.0619  1.9709
  883MOL0     H16554   3.964   9.534   8.046 -1.3993  1.5970  2.4017
  883MOL0     H16555   3.288   9.587   7.593 -1.7285 -0.3121 -0.9533
  883MOL0     H16556   3.071   9.505   7.655 -1.3048 -1.4761  3.5488
  884MOL0     O16557   9.961  10.543   3.835 -0.2251  0.5435 -0.5073
  884MOL0     C16558  10.020  10.589   3.934 -0.0062  0.1481 -0.0632
  884MOL0     O16559   9.962  10.611   4.052  0.2592 -0.5209 -0.0847
  884MOL0     C16560   9.833  10.577   4.084  0.4670  0.4191 -0.4373
  884MOL0     C16561   9.778  10.450   4.055 -0.1932  0.5858 -0.3466
  884MOL0     C16562   9.654  10.420   4.112 -0.5819 -0.3871  0.2113
  884MOL0     C16563   9.578  10.506   4.187  0.3382 -0.1170 -0.1080
  884MOL0     O16564   9.451  10.498   4.232  0.9277  0.1017  0.0691
  884MOL0     C16565   9.364  10.406   4.164 -0.6772  0.0779  0.3246
  884MOL0     C16566   9.221  10.446   4.163  0.3304 -1.1236 -0.2352
  884MOL0     C16567   9.135  10.445   4.290 -0.4488  0.3429  0.0466
  884MOL0     C16568   8.995  10.503   4.251 -0.6737  0.3408 -0.0184
  884MOL0     C16569   8.901  10.521   4.365 -0.6812 -0.8741  0.4173
  884MOL0     C16570   8.879  10.395   4.444 -0.2793  0.2420  0.6215
  884MOL0     C16571   8.743  10.400   4.525 -0.8607 -0.4022 -0.0041
  884MOL0     C16572   8.736  10.504   4.651 -1.1406  0.1266  0.4385
  884MOL0     N16573   8.654  10.476   4.769 -0.2591  0.2013  0.5496
  884MOL0     C16574   8.667  10.361   4.829 -0.1227  0.0171 -1.0713
  884MOL0     C16575   8.548  10.347   4.895 -0.6627  0.3289  0.2510
  884MOL0     C16576   8.506  10.215   4.959 -0.5715 -0.4317 -1.0604
  884MOL0     C16577   8.377  10.221   5.054 -0.9923 -0.2845 -0.6494
  884MOL0     C16578   8.249  10.237   4.978  0.7315 -0.2644 -0.1883
  884MOL0     C16579   8.125  10.269   5.075  0.6145  0.3165  0.2803
  884MOL0     O16580   8.121  10.171   5.186 -0.5156 -0.0964 -0.6190
  884MOL0     C16581   8.075  10.214   5.312  0.1454 -0.4904 -0.2704
  884MOL0     C16582   8.066  10.112   5.413 -0.2976  0.8498  1.2571
  884MOL0     C16583   8.020  10.125   5.541  0.3977 -0.1856  0.4133
  884MOL0     C16584   7.978  10.250   5.578  0.2854 -0.1402 -0.4294
  884MOL0     C16585   7.907  10.271   5.707 -1.3887 -0.1691 -0.5867
  884MOL0     O16586   7.893  10.397   5.763 -0.3095 -0.2966  0.3837
  884MOL0     C16587   7.804  10.410   5.867  0.2045  0.1347  0.3479
  884MOL0     C16588   7.825  10.353   5.996 -0.5099  0.4350 -0.9868
  884MOL0     C16589   7.731  10.373   6.097 -0.9212  0.0373  0.0770
  884MOL0     C16590   7.623  10.462   6.079  0.2404  0.1214  0.3315
  884MOL0     O16591   7.541  10.499   6.179  0.9066  0.4356 -0.3856
  884MOL0     C16592   7.501  10.406   6.280  0.4059 -0.8042 -0.1360
  884MOL0     C16593   7.396  10.473   6.364  0.1222  0.2348 -0.8964
  884MOL0     C16594   7.253  10.468   6.311 -0.8580  0.8592  0.0372
  884MOL0     C16595   7.169  10.554   6.402 -0.5791  0.3249  0.3827
  884MOL0     C16596   7.015  10.542   6.409 -0.3927  0.6931  0.0831
  884MOL0     C16597   6.974  10.424   6.508  0.2496 -0.1442  0.3100
  884MOL0     C16598   6.820  10.412   6.500 -1.0283  0.1026 -0.5045
  884MOL0     C16599   6.754  10.303   6.583 -0.5676  0.2980 -0.7170
  884MOL0    Cl16600   6.840  10.152   6.603  0.3278 -0.6018  0.2475
  884MOL0     C16601   7.596  10.515   5.951 -0.0288  0.1403 -0.3312
  884MOL0     C16602   7.693  10.493   5.847 -0.5073 -0.3652 -0.0445
  884MOL0     O16603   7.858  10.170   5.757 -0.2647 -0.0131  0.2239
  884MOL0     C16604   7.985  10.355   5.484 -0.3062 -0.8994  0.3352
  884MOL0     C16605   8.029  10.342   5.348 -0.4155 -0.3785  0.0153
  884MOL0     N16606   8.467  10.461   4.871 -0.1099 -0.1071  0.9717
  884MOL0     N16607   8.527  10.535   4.783 -0.3994 -0.0579  0.1419
  884MOL0     C16608   9.623  10.638   4.209 -0.1123  0.6936  0.1550
  884MOL0     C16609   9.753  10.671   4.158 -0.7418  0.9855 -0.0816
  884MOL0     C16610  10.162  10.644   3.911 -0.7707  0.4461  0.5606
  884MOL0     C16611  10.227  10.627   3.784 -0.1708 -0.1083 -0.9864
  884MOL0     C16612  10.360  10.670   3.765 -0.0720 -0.3166 -0.7373
  884MOL0     C16613  10.437  10.718   3.869  0.2733  0.2243 -0.6817
  884MOL0     O16614  10.559  10.773   3.872 -0.4840 -0.3835  0.2561
  884MOL0     C16615  10.618  10.809   3.744  0.2494 -0.0822 -0.8099
  884MOL0     C16616  10.749  10.895   3.766 -0.5282 -0.2898 -0.0339
  884MOL0     C16617  10.890  10.853   3.716 -0.3412  1.3937 -0.0834
  884MOL0     C16618  10.931  10.725   3.786  0.0048  0.0526  0.4217
  884MOL0     C16619  11.074  10.716   3.811  0.2202  0.6114 -0.1852
  884MOL0     C16620  11.190  10.722   3.823 -0.6118  0.2816  0.1902
  884MOL0     C16621  10.368  10.729   3.992 -0.4430  0.2576 -0.5188
  884MOL0     C16622  10.243  10.692   4.014 -0.7083  1.0174 -0.0443
  884MOL0     H16623   9.833  10.378   3.995 -1.9010  1.8929 -3.7359
  884MOL0     H16624   9.612  10.321   4.094  1.8407 -1.5283  0.4397
  884MOL0     H16625   9.377  10.304   4.201  1.0398  0.6904  1.5350
  884MOL0     H16626   9.396  10.400   4.060  1.8415 -0.0377  1.0362
  884MOL0     H16627   9.165  10.381   4.095 -0.2505 -0.2712 -0.6049
  884MOL0     H16628   9.231  10.543   4.114  3.1031 -1.3267 -0.1934
  884MOL0     H16629   9.170  10.506   4.373  1.4108 -1.8869  0.9895
  884MOL0     H16630   9.121  10.344   4.327  1.7472  0.7427  2.1653
  884MOL0     H16631   9.010  10.603   4.210 -0.1602  0.8548  1.3690
  884MOL0     H16632   8.940  10.447   4.175 -1.1374  3.5125 -2.2095
  884MOL0     H16633   8.806  10.551   4.320 -2.1671 -3.5980  1.4808
  884MOL0     H16634   8.948  10.600   4.424 -0.1904  0.3068 -1.4836
  884MOL0     H16635   8.967  10.371   4.505 -0.1540 -0.6279  0.1084
  884MOL0     H16636   8.874  10.306   4.381  3.8892  0.1508  0.1056
  884MOL0     H16637   8.659  10.422   4.459  0.3723  0.7733 -1.2411
  884MOL0     H16638   8.739  10.298   4.565 -1.3450 -0.5893 -0.5287
  884MOL0     H16639   8.723  10.606   4.615  2.6731  0.5544 -0.1735
  884MOL0     H16640   8.838  10.512   4.691 -1.5670  3.5385  1.1361
  884MOL0     H16641   8.761  10.306   4.834 -2.0626 -3.3944  1.5602
  884MOL0     H16642   8.589  10.168   5.011 -1.9356  0.6666  2.4177
  884MOL0     H16643   8.484  10.150   4.874 -0.3218 -0.6870 -0.9316
  884MOL0     H16644   8.387  10.296   5.133  0.1405  1.6562 -2.5180
  884MOL0     H16645   8.372  10.125   5.105 -0.6534  0.3100  0.5396
  884MOL0     H16646   8.249  10.321   4.908  0.0169 -0.8491 -0.9077
  884MOL0     H16647   8.222  10.142   4.931 -1.9989 -1.0298  2.5582
  884MOL0     H16648   8.031  10.272   5.020  0.9759  0.3331 -0.3467
  884MOL0     H16649   8.153  10.366   5.116 -0.9938  0.0985  2.0096
  884MOL0     H16650   8.117  10.025   5.374  1.6780  3.8128 -3.6175
  884MOL0     H16651   8.010  10.035   5.602 -0.5520 -2.4127 -2.7762
  884MOL0     H16652   7.912  10.293   6.018 -0.1912  1.8837  2.4421
  884MOL0     H16653   7.754  10.325   6.192 -0.7876 -0.3758 -0.1591
  884MOL0     H16654   7.589  10.373   6.337  1.0244 -0.9141 -1.1305
  884MOL0     H16655   7.452  10.315   6.245 -0.0126 -0.8624  0.5664
  884MOL0     H16656   7.407  10.575   6.400  0.0623 -0.4545  1.2139
  884MOL0     H16657   7.388  10.423   6.461  0.4396  3.3336  0.8428
  884MOL0     H16658   7.220  10.366   6.329  2.2786 -0.0836  1.2339
  884MOL0     H16659   7.257  10.503   6.208 -0.0408 -1.7563 -0.8904
  884MOL0     H16660   7.202  10.548   6.506  0.7989  1.7136  0.0454
  884MOL0     H16661   7.193  10.655   6.370  1.4848 -0.3319 -0.2652
  884MOL0     H16662   6.972  10.519   6.311 -0.4559 -1.8757  0.6277
  884MOL0     H16663   6.959  10.632   6.436 -3.9050 -1.2250 -0.0866
  884MOL0     H16664   7.006  10.446   6.610  1.2662  3.5521 -0.6890
  884MOL0     H16665   7.008  10.331   6.462 -0.7061  0.9064 -2.7249
  884MOL0     H16666   6.780  10.513   6.515  1.2504  1.3273 -2.0676
  884MOL0     H16667   6.793  10.391   6.396 -1.2549  3.1884 -1.1656
  884MOL0     H16668   6.658  10.280   6.535 -0.0355  1.1365 -2.2327
  884MOL0     H16669   6.737  10.346   6.682 -0.8715 -1.0140 -0.1681
  884MOL0     H16670   7.516  10.586   5.934 -0.6581  0.6732  3.7272
  884MOL0     H16671   7.680  10.538   5.749 -0.9569 -0.1054  0.1327
  884MOL0     H16672   7.949  10.452   5.520 -0.9441 -0.9722 -0.0878
  884MOL0     H16673   8.036  10.423   5.276 -0.4647 -1.7504 -1.5911
  884MOL0     H16674   9.570  10.703   4.278 -0.0589 -1.1364  2.0062
  884MOL0     H16675   9.796  10.769   4.176  1.9528 -0.4627  1.9720
  884MOL0     H16676  10.164  10.585   3.707  0.3622 -0.1402 -1.4163
  884MOL0     H16677  10.405  10.661   3.666 -0.0633 -1.1859 -0.6621
  884MOL0     H16678  10.544  10.872   3.694  1.9800 -0.2357 -3.8572
  884MOL0     H16679  10.643  10.717   3.691 -0.2653 -2.0200  2.0978
  884MOL0     H16680  10.722  10.987   3.715 -2.6208 -1.5714 -1.3898
  884MOL0     H16681  10.764  10.916   3.873  0.0145 -0.2126 -0.1220
  884MOL0     H16682  10.968  10.928   3.730  1.9414 -0.8602  0.0720
  884MOL0     H16683  10.887  10.829   3.609 -0.4265 -0.1165  0.2392
  884MOL0     H16684  10.882  10.724   3.883  0.2369  1.2597  0.5615
  884MOL0     H16685  10.898  10.637   3.730 -1.6378 -0.9996  2.9086
  884MOL0     H16686  11.296  10.714   3.835 -0.5678 -0.8566 -0.7354
  884MOL0     H16687  10.429  10.769   4.073  0.7664 -1.9632 -0.2417
  884MOL0     H16688  10.201  10.674   4.113 -2.8079  0.9093 -0.9125
  885MOL0     O16689   2.250  10.677   6.681 -0.6637 -0.3500  0.1653
  885MOL0     C16690   2.286  10.729   6.575 -0.4323  0.0698 -1.0478
  885MOL0     O16691   2.223  10.823   6.515  0.5761  0.7060 -0.3221
  885MOL0     C16692   2.099  10.868   6.554  0.0502  0.1623  0.3378
  885MOL0     C16693   2.082  11.005   6.549 -0.0833  0.6741  0.1437
  885MOL0     C16694   1.969  11.064   6.602 -0.5867 -0.9990 -0.7488
  885MOL0     C16695   1.864  10.990   6.662  0.5924  0.1778 -0.0731
  885MOL0     O16696   1.741  11.052   6.695  0.4608 -0.2063  0.1501
  885MOL0     C16697   1.757  11.180   6.756  0.3318  0.5370 -0.6435
  885MOL0     C16698   1.631  11.225   6.817  0.5584  0.0222 -0.3692
  885MOL0     C16699   1.534  11.284   6.720  0.9217  0.4286 -0.8777
  885MOL0     C16700   1.404  11.325   6.784  0.2378 -0.0431 -0.4130
  885MOL0     C16701   1.305  11.358   6.672 -1.0113 -0.0838 -0.0149
  885MOL0     C16702   1.173  11.416   6.740 -0.1760 -1.2831  0.3426
  885MOL0     C16703   1.076  11.460   6.623 -0.0229  0.9352 -0.0939
  885MOL0     C16704   0.943  11.508   6.677  1.0025  0.1272  0.1025
  885MOL0     N16705   0.847  11.398   6.709 -0.2422 -0.2519 -0.4173
  885MOL0     C16706   0.857  11.331   6.830 -0.1893 -0.5633  0.8926
  885MOL0     C16707   0.753  11.251   6.828  0.5330  0.5638  0.7553
  885MOL0     C16708   0.714  11.158   6.936 -0.2521 -0.0433 -0.1712
  885MOL0     C16709   0.756  11.010   6.904  0.6390 -0.0355 -0.1858
  885MOL0     C16710   0.667  10.931   6.802 -0.5156  0.8802  0.8455
  885MOL0     C16711   0.520  10.921   6.832  0.3088  0.6077  0.0587
  885MOL0     O16712   0.527  10.860   6.964  0.0681 -0.2705  0.5713
  885MOL0     C16713   0.408  10.813   7.019 -0.2559  0.5698 -0.0720
  885MOL0     C16714   0.415  10.699   7.108  1.3193 -0.4306  0.0801
  885MOL0     C16715   0.295  10.636   7.155  0.9162  0.3072 -0.0184
  885MOL0     C16716   0.167  10.689   7.120 -0.2859 -0.6014  0.5686
  885MOL0     C16717   0.041  10.615   7.144 -0.5573 -0.6324 -0.1705
  885MOL0     O16718  -0.077  10.693   7.135  0.5103 -0.9193 -0.1113
  885MOL0     C16719  -0.201  10.629   7.157  0.2618  0.1323  0.7347
  885MOL0     C16720  -0.238  10.512   7.081  0.1969 -0.6542 -0.4054
  885MOL0     C16721  -0.362  10.452   7.110  0.1193  0.8801 -0.3168
  885MOL0     C16722  -0.441  10.491   7.222 -0.1163 -0.6400  0.0862
  885MOL0     O16723  -0.557  10.425   7.238  0.7343  0.5732  0.0192
  885MOL0     C16724  -0.684  10.502   7.234 -0.8116 -0.1854  0.5273
  885MOL0     C16725  -0.787  10.427   7.151  0.1507 -0.5620 -0.3100
  885MOL0     C16726  -0.742  10.408   7.008  0.1182 -0.1438  0.5986
  885MOL0     C16727  -0.858  10.337   6.933  0.5414 -0.4090  0.2014
  885MOL0     C16728  -0.988  10.408   6.899 -0.3281  0.1589  0.3158
  885MOL0     C16729  -1.084  10.339   6.807  0.3952 -0.3289  0.4189
  885MOL0     C16730  -1.214  10.418   6.792  0.6294  0.0988  0.1366
  885MOL0     C16731  -1.313  10.399   6.904 -0.1659 -0.0717 -0.0422
  885MOL0    Cl16732  -1.391  10.229   6.900  0.2904 -0.4173  0.1587
  885MOL0     C16733  -0.411  10.604   7.293 -0.3979  0.5701  0.0236
  885MOL0     C16734  -0.288  10.673   7.255 -0.3681  0.2691  0.0472
  885MOL0     O16735   0.053  10.497   7.175 -0.3648 -0.6794 -0.4143
  885MOL0     C16736   0.162  10.805   7.035 -0.2963  0.4029  0.7231
  885MOL0     C16737   0.283  10.863   6.981 -0.2946  0.6210  0.0777
  885MOL0     N16738   0.681  11.269   6.708  0.4587  0.5323  0.9471
  885MOL0     N16739   0.741  11.360   6.640 -0.5927  0.0533 -0.0329
  885MOL0     C16740   1.879  10.850   6.668  0.0602  0.2211  0.4803
  885MOL0     C16741   1.997  10.791   6.622 -0.0075  0.4934 -0.6312
  885MOL0     C16742   2.399  10.666   6.515 -0.3164 -0.2126 -0.4667
  885MOL0     C16743   2.441  10.703   6.378  0.2934  0.5783 -0.8917
  885MOL0     C16744   2.554  10.654   6.323  0.0344 -0.1921  0.0222
  885MOL0     C16745   2.651  10.582   6.399 -0.6713  0.0412 -0.0362
  885MOL0     O16746   2.778  10.549   6.358  0.5495  0.3194 -0.0750
  885MOL0     C16747   2.780  10.427   6.279  0.0704 -0.2702 -0.0831
  885MOL0     C16748   2.920  10.394   6.248  0.2870  0.3744 -0.2292
  885MOL0     C16749   3.005  10.522   6.212  0.9782  0.1536  0.6747
  885MOL0     C16750   3.142  10.490   6.163 -0.9017 -0.4790  0.2527
  885MOL0     C16751   3.248  10.451   6.261  0.1898 -0.1451 -0.5315
  885MOL0     C16752   3.333  10.398   6.332 -0.2874  0.3081  0.3330
  885MOL0     C16753   2.618  10.544   6.535 -0.1191 -0.0196 -0.2706
  885MOL0     C16754   2.494  10.588   6.584 -0.4715 -0.2651 -0.4940
  885MOL0     H16755   2.161  11.071   6.513  0.2514  0.2241  0.0379
  885MOL0     H16756   1.970  11.173   6.602  1.0823 -0.9833  0.1786
  885MOL0     H16757   1.792  11.259   6.689 -2.3963  1.3305 -1.2838
  885MOL0     H16758   1.828  11.177   6.839 -0.1753 -2.0160 -0.2184
  885MOL0     H16759   1.667  11.290   6.897  2.5156 -0.1428 -1.0750
  885MOL0     H16760   1.583  11.138   6.863  1.3170 -0.5883 -0.7171
  885MOL0     H16761   1.518  11.207   6.644  0.8448  0.9273 -1.3720
  885MOL0     H16762   1.574  11.373   6.672  4.2739 -0.9087 -0.9134
  885MOL0     H16763   1.371  11.245   6.851  0.1641 -1.1909 -1.7650
  885MOL0     H16764   1.420  11.415   6.843 -2.9688  0.3804 -0.0030
  885MOL0     H16765   1.276  11.268   6.616  0.5205  0.2006 -1.3407
  885MOL0     H16766   1.350  11.435   6.609  2.3369  0.0130  2.2035
  885MOL0     H16767   1.197  11.501   6.805  0.6177  0.7321 -2.3662
  885MOL0     H16768   1.133  11.333   6.799  0.7391 -1.2092  1.0856
  885MOL0     H16769   1.117  11.545   6.566  2.2368  1.6163  2.3465
  885MOL0     H16770   1.068  11.377   6.553 -0.1120 -0.8664  1.9575
  885MOL0     H16771   0.893  11.561   6.595 -1.2853 -0.7619  0.8532
  885MOL0     H16772   0.950  11.568   6.768  2.5100  2.3029 -1.3491
  885MOL0     H16773   0.943  11.330   6.896  2.6579  3.2015 -2.2868
  885MOL0     H16774   0.608  11.169   6.959 -0.2008  1.3747 -0.5059
  885MOL0     H16775   0.772  11.190   7.023  0.2542 -0.3802 -0.3799
  885MOL0     H16776   0.769  10.956   6.998 -3.0500 -1.4285 -0.3147
  885MOL0     H16777   0.854  11.016   6.858  0.8310 -1.9870 -0.1233
  885MOL0     H16778   0.681  10.977   6.704  0.3730 -0.4609  0.3188
  885MOL0     H16779   0.707  10.830   6.796 -1.6829  0.4517 -0.1162
  885MOL0     H16780   0.459  10.866   6.759 -1.5925 -0.7090  2.4550
  885MOL0     H16781   0.479  11.022   6.835 -1.6671 -0.1322  0.0291
  885MOL0     H16782   0.509  10.651   7.133 -0.0210 -2.9564  0.5100
  885MOL0     H16783   0.298  10.553   7.224  0.7364  1.1477  1.0236
  885MOL0     H16784  -0.182  10.466   7.000  1.1127 -1.3151  0.5800
  885MOL0     H16785  -0.395  10.371   7.046 -1.1203  0.3293  0.9694
  885MOL0     H16786  -0.674  10.606   7.203  3.5476  0.0672  2.1573
  885MOL0     H16787  -0.723  10.502   7.336  1.1074  0.5203  1.2928
  885MOL0     H16788  -0.881  10.483   7.159  1.1000  0.8627  1.6206
  885MOL0     H16789  -0.810  10.330   7.196  0.0018  0.0740  1.0134
  885MOL0     H16790  -0.655  10.343   7.007 -2.1440 -3.4502  1.2171
  885MOL0     H16791  -0.716  10.501   6.957 -2.9833 -0.2867 -1.5295
  885MOL0     H16792  -0.819  10.311   6.834 -1.9979 -1.2814 -0.6440
  885MOL0     H16793  -0.884  10.245   6.986 -1.0942 -1.8937 -2.8595
  885MOL0     H16794  -0.966  10.504   6.850 -0.8931 -0.6046 -1.4863
  885MOL0     H16795  -1.033  10.435   6.995 -1.0742  0.5380 -0.1350
  885MOL0     H16796  -1.112  10.238   6.838 -0.9287 -0.5171 -1.2295
  885MOL0     H16797  -1.036  10.321   6.709  2.2899 -0.1711  1.2680
  885MOL0     H16798  -1.187  10.523   6.783  0.3947 -0.0131 -3.4957
  885MOL0     H16799  -1.256  10.394   6.693  2.4240  5.5052 -2.3093
  885MOL0     H16800  -1.397  10.467   6.886 -2.3862 -2.7154 -0.4049
  885MOL0     H16801  -1.268  10.424   7.000 -0.7428 -1.3194  0.5814
  885MOL0     H16802  -0.482  10.646   7.364 -0.4655  0.6069 -0.0664
  885MOL0     H16803  -0.272  10.768   7.305 -2.0222  1.5460 -1.7264
  885MOL0     H16804   0.071  10.861   7.017 -0.6786 -0.5692 -0.4680
  885MOL0     H16805   0.262  10.942   6.910 -1.9927  0.1867  0.0690
  885MOL0     H16806   1.807  10.778   6.705 -1.9013  0.1456 -3.0541
  885MOL0     H16807   2.008  10.683   6.629  1.7057  0.7321  1.6966
  885MOL0     H16808   2.381  10.769   6.316  1.3977 -0.6788 -3.4827
  885MOL0     H16809   2.577  10.682   6.221 -0.3715 -0.2305 -0.0813
  885MOL0     H16810   2.718  10.431   6.189  2.0771 -2.1480 -1.6423
  885MOL0     H16811   2.738  10.349   6.342  0.5086  0.4233  1.1154
  885MOL0     H16812   2.961  10.345   6.337 -1.0728 -0.0240  0.2097
  885MOL0     H16813   2.933  10.320   6.169 -0.0540  1.0955 -0.9782
  885MOL0     H16814   3.025  10.589   6.296  1.7191 -0.1286  0.7390
  885MOL0     H16815   2.946  10.572   6.135 -0.9128 -0.1186  1.8983
  885MOL0     H16816   3.132  10.402   6.099 -1.8598 -1.9663  2.3237
  885MOL0     H16817   3.181  10.566   6.095 -0.2872 -2.6182 -1.9254
  885MOL0     H16818   3.419  10.368   6.387 -0.1898  3.5256  2.1673
  885MOL0     H16819   2.691  10.507   6.606 -0.4527  2.1742  1.3039
  885MOL0     H16820   2.475  10.561   6.688 -0.8755 -1.7378 -0.9399
  886MOL0     O16821   5.538   9.471  10.677 -0.7084  0.0528 -0.1337
  886MOL0     C16822   5.601   9.395  10.605 -0.3899  0.4444  0.9812
  886MOL0     O16823   5.617   9.262  10.624 -0.2042 -0.0365  0.6234
  886MOL0     C16824   5.578   9.204  10.745 -0.0789 -0.4243  0.0803
  886MOL0     C16825   5.438   9.199  10.776  0.4306 -0.2284 -0.3483
  886MOL0     C16826   5.394   9.159  10.904  0.2938  0.2390 -0.3307
  886MOL0     C16827   5.486   9.120  10.998  0.1443  0.1465 -0.1819
  886MOL0     O16828   5.443   9.088  11.122 -0.9721  0.0307 -0.1539
  886MOL0     C16829   5.535   9.024  11.218 -0.2874 -0.2400 -0.2924
  886MOL0     C16830   5.454   9.006  11.349 -0.3660 -1.1031  0.0503
  886MOL0     C16831   5.324   8.938  11.329  0.0232 -0.3987  0.4335
  886MOL0     C16832   5.253   8.933  11.466 -0.8242 -0.2079  0.2638
  886MOL0     C16833   5.121   8.856  11.454 -0.1107 -0.7375  0.1033
  886MOL0     C16834   5.035   8.863  11.586 -0.2228 -0.1439  0.1547
  886MOL0     C16835   4.922   8.755  11.585 -0.1931  0.2038 -0.1844
  886MOL0     C16836   4.831   8.763  11.469 -0.1381 -0.6537  0.1238
  886MOL0     N16837   4.761   8.901  11.478 -0.2387  0.3194  0.3092
  886MOL0     C16838   4.749   9.002  11.381 -0.1590  0.3487  0.0593
  886MOL0     C16839   4.672   9.098  11.445 -0.4831 -0.4014  0.2806
  886MOL0     C16840   4.650   9.241  11.407  0.2901  0.5593 -1.0444
  886MOL0     C16841   4.505   9.274  11.410 -0.2706 -0.0252  0.8733
  886MOL0     C16842   4.479   9.396  11.332  0.5220  0.0166  0.1322
  886MOL0     C16843   4.321   9.424  11.338  0.7245  0.7271  0.6438
  886MOL0     O16844   4.275   9.473  11.460  0.0931  0.1376  0.1630
  886MOL0     C16845   4.139   9.500  11.474  1.4030  0.1729 -0.6748
  886MOL0     C16846   4.105   9.499  11.612  0.2438 -0.5402  0.4041
  886MOL0     C16847   3.973   9.531  11.647 -0.8194 -0.2450  0.0806
  886MOL0     C16848   3.874   9.553  11.548 -0.3785  0.7050 -1.1708
  886MOL0     C16849   3.739   9.573  11.595 -1.1267  0.3224 -0.2042
  886MOL0     O16850   3.720   9.565  11.727  0.2077 -0.1970 -0.0546
  886MOL0     C16851   3.602   9.612  11.772  0.1205  0.3168 -0.1556
  886MOL0     C16852   3.569   9.747  11.749 -0.4640  0.3543 -0.0949
  886MOL0     C16853   3.451   9.796  11.796 -0.0842  0.3771  0.7077
  886MOL0     C16854   3.363   9.725  11.868  0.3631 -0.6191 -0.8888
  886MOL0     O16855   3.240   9.785  11.889  0.0835 -0.3678 -0.3678
  886MOL0     C16856   3.126   9.706  11.913  0.1238  1.2883  0.1745
  886MOL0     C16857   3.002   9.798  11.897 -0.0067  0.3014  0.3897
  886MOL0     C16858   2.874   9.719  11.935  0.2993 -0.0052 -0.2494
  886MOL0     C16859   2.748   9.791  11.885 -0.4785 -0.5402  0.1820
  886MOL0     C16860   2.692   9.891  11.986 -0.2878 -0.5740 -0.7925
  886MOL0     C16861   2.641   9.837  12.117 -0.0412  0.0987  0.0630
  886MOL0     C16862   2.517   9.913  12.164 -0.9412  0.3299 -0.0766
  886MOL0     C16863   2.397   9.870  12.072  0.9219 -0.7340 -0.3863
  886MOL0    Cl16864   2.242   9.920  12.142 -0.1933 -0.4495  0.0850
  886MOL0     C16865   3.393   9.584  11.876  0.6691  0.5076 -0.2520
  886MOL0     C16866   3.509   9.531  11.829 -0.2967 -0.5166  1.1803
  886MOL0     O16867   3.653   9.598  11.514  0.7380  0.4896  0.2611
  886MOL0     C16868   3.909   9.546  11.412  0.0219  0.2582  0.0043
  886MOL0     C16869   4.038   9.513  11.375 -0.5976 -0.6585 -0.3261
  886MOL0     N16870   4.634   9.055  11.567 -0.1635 -0.7054  0.0645
  886MOL0     N16871   4.695   8.943  11.590 -0.5224 -0.8289 -0.3674
  886MOL0     C16872   5.627   9.113  10.958  0.8147  0.6766 -0.3371
  886MOL0     C16873   5.672   9.146  10.830  0.4131 -0.3663  0.2324
  886MOL0     C16874   5.674   9.443  10.489  0.6187 -0.2368 -0.6971
  886MOL0     C16875   5.796   9.392  10.436  0.7722 -0.0817 -0.6006
  886MOL0     C16876   5.860   9.445  10.326  0.0545  0.3950  0.7704
  886MOL0     C16877   5.804   9.562  10.257  0.7515  1.1607 -0.1841
  886MOL0     O16878   5.857   9.615  10.146 -1.4441  0.2048  0.9864
  886MOL0     C16879   5.970   9.552  10.076  0.5619  0.2521  0.0871
  886MOL0     C16880   6.101   9.571  10.143  0.1923 -0.3955  0.0729
  886MOL0     C16881   6.123   9.718  10.192 -0.6866  0.1021  0.4349
  886MOL0     C16882   6.175   9.814  10.085  0.5940  0.1383  0.8688
  886MOL0     C16883   6.078   9.846   9.982  0.1911  0.1610 -0.0435
  886MOL0     C16884   6.004   9.888   9.894  0.3257 -0.0802 -0.4347
  886MOL0     C16885   5.684   9.605  10.304 -0.3205  1.1160 -0.1476
  886MOL0     C16886   5.621   9.551  10.414  0.0798  0.1918 -0.9754
  886MOL0     H16887   5.366   9.234  10.702  0.9054  0.4318 -0.5028
  886MOL0     H16888   5.291   9.166  10.940  0.0773 -0.2928 -0.8442
  886MOL0     H16889   5.618   9.093  11.234 -0.5768 -0.0567  0.4800
  886MOL0     H16890   5.567   8.923  11.189 -2.1635  0.1214 -4.3205
  886MOL0     H16891   5.437   9.108  11.385  0.3306 -0.5411 -1.1308
  886MOL0     H16892   5.516   8.956  11.423  1.5755  0.4652 -0.4247
  886MOL0     H16893   5.335   8.841  11.280  1.1399 -1.3604  2.4581
  886MOL0     H16894   5.259   9.002  11.268  1.0303 -0.5231 -0.8168
  886MOL0     H16895   5.314   8.873  11.535  2.3413 -0.1583 -2.2639
  886MOL0     H16896   5.244   9.036  11.503 -0.2291  0.0906 -0.3908
  886MOL0     H16897   5.148   8.752  11.432  1.8391 -0.1241 -0.6776
  886MOL0     H16898   5.060   8.897  11.373 -1.9055 -0.0264  1.7396
  886MOL0     H16899   4.990   8.962  11.584 -0.2584 -0.1663 -0.2588
  886MOL0     H16900   5.099   8.850  11.674  1.9656 -1.4480 -1.4862
  886MOL0     H16901   4.967   8.656  11.590  1.0006  0.4454 -3.7468
  886MOL0     H16902   4.872   8.766  11.682  1.5054  1.9557  0.5801
  886MOL0     H16903   4.760   8.681  11.468 -0.9754  0.0539  0.0016
  886MOL0     H16904   4.882   8.749  11.373 -0.0970 -0.7583  0.1609
  886MOL0     H16905   4.789   8.997  11.280  0.2474  0.2949  0.2231
  886MOL0     H16906   4.691   9.266  11.309  1.0841 -0.0467 -0.8739
  886MOL0     H16907   4.713   9.301  11.473  0.4276 -3.0099  2.4449
  886MOL0     H16908   4.464   9.287  11.510  1.1896 -0.3866  1.5392
  886MOL0     H16909   4.453   9.190  11.363 -1.6407  1.2373  0.0283
  886MOL0     H16910   4.539   9.474  11.379 -2.5384  1.9615  1.1071
  886MOL0     H16911   4.507   9.380  11.228 -3.1884  2.2478 -1.4460
  886MOL0     H16912   4.258   9.338  11.313 -0.6949  1.3438  1.8857
  886MOL0     H16913   4.300   9.494  11.257  2.4828  1.1873  0.5477
  886MOL0     H16914   4.174   9.469  11.690  1.4705  2.2495  0.5119
  886MOL0     H16915   3.942   9.533  11.751 -1.2654 -2.2399  0.0172
  886MOL0     H16916   3.631   9.821  11.700  0.0349  1.2294  1.7461
  886MOL0     H16917   3.436   9.904  11.794  3.1371  1.1361  4.3553
  886MOL0     H16918   3.140   9.665  12.013 -1.4357  1.3953  0.4520
  886MOL0     H16919   3.113   9.625  11.841 -1.7852  0.5968  1.2370
  886MOL0     H16920   2.998   9.814  11.789  2.2361 -2.7693 -0.2836
  886MOL0     H16921   3.004   9.894  11.949 -1.6561  1.1619 -1.0508
  886MOL0     H16922   2.867   9.701  12.043  0.9414  2.2226  0.2116
  886MOL0     H16923   2.875   9.615  11.901 -0.0942  0.4952 -1.8868
  886MOL0     H16924   2.758   9.821  11.781 -1.5433  1.1555  0.5312
  886MOL0     H16925   2.677   9.708  11.878  1.3393 -2.0194 -2.0250
  886MOL0     H16926   2.614   9.941  11.927 -0.3839  0.9933  0.5942
  886MOL0     H16927   2.758   9.977  11.995 -1.0430  0.3212 -3.0965
  886MOL0     H16928   2.720   9.843  12.192 -1.1065  0.7549  1.1844
  886MOL0     H16929   2.612   9.733  12.099 -3.8202  0.8947  0.5106
  886MOL0     H16930   2.482   9.886  12.264 -3.1757  1.3343 -0.5322
  886MOL0     H16931   2.533  10.021  12.154  0.7253 -0.0260 -1.9112
  886MOL0     H16932   2.391   9.761  12.075  0.4353 -0.7011 -0.1950
  886MOL0     H16933   2.399   9.912  11.971  0.3590 -2.8564 -1.3289
  886MOL0     H16934   3.324   9.515  11.923  0.1847  2.6238  2.4460
  886MOL0     H16935   3.536   9.426  11.833 -0.2881 -0.4736  3.1879
  886MOL0     H16936   3.836   9.552  11.331 -0.6544 -0.9934  0.4983
  886MOL0     H16937   4.054   9.498  11.269 -1.9019 -2.2681 -0.3251
  886MOL0     H16938   5.701   9.082  11.031  1.0246 -0.7440 -1.1172
  886MOL0     H16939   5.776   9.150  10.801  0.0079 -1.1232 -1.4874
  886MOL0     H16940   5.844   9.305  10.479  0.0656 -0.3684 -0.3787
  886MOL0     H16941   5.954   9.403  10.291 -1.4374 -2.5809 -0.0116
  886MOL0     H16942   5.979   9.604   9.980 -1.2075  0.2168 -0.1329
  886MOL0     H16943   5.942   9.447  10.062 -0.3448  0.5679 -0.5504
  886MOL0     H16944   6.117   9.509  10.232 -2.2345  0.0114  0.8660
  886MOL0     H16945   6.173   9.533  10.070  0.5943 -1.0403  0.7923
  886MOL0     H16946   6.204   9.710  10.266  1.3488  0.3333 -1.6349
  886MOL0     H16947   6.034   9.764  10.233 -0.8762  1.7240 -1.6524
  886MOL0     H16948   6.215   9.902  10.136 -1.9373  2.2265 -0.5188
  886MOL0     H16949   6.253   9.766  10.025 -1.0828 -1.0896 -0.3893
  886MOL0     H16950   5.933   9.918   9.819  1.9127 -0.2559 -2.0830
  886MOL0     H16951   5.632   9.676  10.241 -1.0580  0.0566 -0.7535
  886MOL0     H16952   5.521   9.580  10.445 -0.7674 -2.8677 -0.6126
  887MOL0     O16953   1.921   3.742   1.718 -0.0700  0.4640 -0.1561
  887MOL0     C16954   1.988   3.839   1.743  0.1831  0.0367  0.2187
  887MOL0     O16955   1.944   3.968   1.746  1.0326  0.2015 -0.0539
  887MOL0     C16956   1.812   4.009   1.751 -0.2076 -0.2792  0.4534
  887MOL0     C16957   1.789   4.141   1.799  0.1949 -1.0075  0.4584
  887MOL0     C16958   1.658   4.199   1.828 -1.1675  0.4354 -0.4420
  887MOL0     C16959   1.545   4.118   1.805 -0.2331  0.6730  0.9006
  887MOL0     O16960   1.428   4.178   1.845  0.8679  0.5706 -0.8998
  887MOL0     C16961   1.307   4.130   1.798 -0.3534 -1.1955  0.0654
  887MOL0     C16962   1.196   4.219   1.838 -0.1035  0.7371 -0.7254
  887MOL0     C16963   1.062   4.193   1.766 -0.2726  0.0778 -0.3232
  887MOL0     C16964   0.953   4.274   1.826  0.3067  0.4431 -0.0256
  887MOL0     C16965   0.900   4.222   1.957 -0.9518 -0.8479  0.1524
  887MOL0     C16966   0.772   4.311   1.991  0.4465 -0.2901  0.5199
  887MOL0     C16967   0.647   4.292   1.897 -0.7792 -0.1451 -0.0744
  887MOL0     C16968   0.544   4.384   1.940  0.3411 -0.0266 -0.2425
  887MOL0     N16969   0.420   4.386   1.861 -0.2427 -0.0235 -0.5591
  887MOL0     C16970   0.404   4.391   1.725 -0.7914  0.6658  0.9252
  887MOL0     C16971   0.277   4.387   1.698  0.3204 -0.5556 -0.4246
  887MOL0     C16972   0.236   4.396   1.555 -0.6707 -0.6027  0.1379
  887MOL0     C16973   0.087   4.412   1.552 -0.2972 -0.5355  0.1393
  887MOL0     C16974   0.038   4.392   1.407 -0.1935 -0.5545 -0.3048
  887MOL0     C16975  -0.100   4.448   1.394  0.1391  0.1228  0.6102
  887MOL0     O16976  -0.199   4.375   1.473  0.8656  0.2281 -1.1481
  887MOL0     C16977  -0.330   4.418   1.478 -0.3998  0.4235 -0.0694
  887MOL0     C16978  -0.366   4.553   1.444  0.1379  0.3294 -0.6144
  887MOL0     C16979  -0.502   4.586   1.429  0.1080  0.6638 -0.1446
  887MOL0     C16980  -0.603   4.488   1.456 -0.2477 -0.2430  0.6152
  887MOL0     C16981  -0.741   4.523   1.447  1.0692 -0.1728  0.5563
  887MOL0     O16982  -0.758   4.653   1.426 -0.5951 -0.1125  0.2338
  887MOL0     C16983  -0.884   4.700   1.408 -0.4819 -0.3420  0.4265
  887MOL0     C16984  -0.892   4.836   1.433 -0.2858 -0.6256  0.5062
  887MOL0     C16985  -1.002   4.911   1.390  1.0541  0.2069  0.6757
  887MOL0     C16986  -1.117   4.853   1.343 -0.1105  0.6863 -0.0291
  887MOL0     O16987  -1.217   4.935   1.305  1.2442  0.5789  0.1932
  887MOL0     C16988  -1.352   4.898   1.319  0.2032  1.4628 -0.1433
  887MOL0     C16989  -1.453   5.019   1.312  0.0065  0.0227  0.1146
  887MOL0     C16990  -1.591   4.965   1.274 -0.3714  0.4450 -0.8370
  887MOL0     C16991  -1.687   5.087   1.234 -0.6291  0.5045 -0.1443
  887MOL0     C16992  -1.821   5.042   1.196 -0.3224  0.3076  0.1987
  887MOL0     C16993  -1.921   5.059   1.314 -0.4346 -0.3420 -0.0706
  887MOL0     C16994  -2.067   5.029   1.283 -0.6398  0.8340  0.9198
  887MOL0     C16995  -2.151   5.069   1.400  0.7102 -0.3533 -0.0617
  887MOL0    Cl16996  -2.307   5.005   1.384  0.4739  0.0609  0.3992
  887MOL0     C16997  -1.122   4.714   1.329 -0.5955  0.3091  0.4036
  887MOL0     C16998  -0.997   4.639   1.358  0.5008 -0.2670  0.6829
  887MOL0     O16999  -0.830   4.438   1.472  0.2652  0.9154 -0.0082
  887MOL0     C17000  -0.567   4.356   1.490 -0.2778 -0.3653  0.1516
  887MOL0     C17001  -0.431   4.318   1.501  0.2917  0.3865  0.4741
  887MOL0     N17002   0.212   4.360   1.822  0.3604 -0.0070 -0.3751
  887MOL0     N17003   0.296   4.372   1.914 -0.4346 -1.1717 -0.5627
  887MOL0     C17004   1.562   3.996   1.739  0.8448 -0.8687 -0.8491
  887MOL0     C17005   1.692   3.942   1.720  0.0859  0.4667  0.5243
  887MOL0     C17006   2.126   3.813   1.756 -0.3398 -0.0871 -0.7801
  887MOL0     C17007   2.216   3.919   1.759  0.7208  1.4168 -0.5885
  887MOL0     C17008   2.351   3.892   1.754 -0.0249 -0.8075  0.1903
  887MOL0     C17009   2.400   3.756   1.755  0.5753 -0.0804 -0.2431
  887MOL0     O17010   2.531   3.721   1.768  0.4504  0.0857  0.0127
  887MOL0     C17011   2.618   3.778   1.662 -0.7891 -0.2802 -0.4203
  887MOL0     C17012   2.721   3.668   1.632 -0.9755 -0.6472  0.4066
  887MOL0     C17013   2.853   3.669   1.722  1.1608 -0.9650  0.5148
  887MOL0     C17014   2.971   3.596   1.680  0.0264  0.2355 -0.1616
  887MOL0     C17015   3.003   3.611   1.536  0.8424 -0.0647  0.0909
  887MOL0     C17016   3.032   3.624   1.417 -0.2028 -0.1473  0.1908
  887MOL0     C17017   2.308   3.657   1.773 -0.1130  0.0076 -0.7786
  887MOL0     C17018   2.176   3.687   1.771  0.2447  0.1444 -0.1550
  887MOL0     H17019   1.876   4.203   1.818 -1.1848  0.8186  1.1020
  887MOL0     H17020   1.651   4.296   1.876  2.5733  1.4457 -1.5705
  887MOL0     H17021   1.290   4.031   1.843 -0.7906 -0.7402  0.9133
  887MOL0     H17022   1.309   4.127   1.688  0.2241 -1.3874  0.0773
  887MOL0     H17023   1.218   4.326   1.835 -2.2120  1.2233 -0.4562
  887MOL0     H17024   1.187   4.193   1.944  2.7548  1.4836 -0.2080
  887MOL0     H17025   1.031   4.089   1.780 -1.7092  0.4052 -0.8881
  887MOL0     H17026   1.065   4.222   1.661  0.9121  1.3923  0.0395
  887MOL0     H17027   0.979   4.380   1.835 -0.2470  0.5385  0.5179
  887MOL0     H17028   0.874   4.273   1.751  1.0954  4.0007 -1.1154
  887MOL0     H17029   0.964   4.242   2.044 -1.8756 -0.9223  0.8531
  887MOL0     H17030   0.880   4.115   1.949  1.9697 -1.3903 -1.6327
  887MOL0     H17031   0.798   4.416   1.978 -2.0448  0.1369 -2.1641
  887MOL0     H17032   0.740   4.282   2.091  0.9347 -0.4008  0.6472
  887MOL0     H17033   0.684   4.318   1.797 -0.4517 -0.0668  0.0669
  887MOL0     H17034   0.607   4.190   1.893 -3.8295  0.9459 -0.2323
  887MOL0     H17035   0.574   4.489   1.936 -2.6393  0.9460  0.1758
  887MOL0     H17036   0.524   4.360   2.044  1.2525 -1.3038 -0.3399
  887MOL0     H17037   0.488   4.391   1.657 -0.9630  1.3061  0.7068
  887MOL0     H17038   0.249   4.296   1.511 -1.0095 -0.2362 -0.8345
  887MOL0     H17039   0.285   4.474   1.496 -2.4235 -0.8052 -1.7283
  887MOL0     H17040   0.051   4.503   1.601  0.7851  0.5589 -1.0473
  887MOL0     H17041   0.049   4.329   1.613 -4.5552  1.6345  0.8357
  887MOL0     H17042   0.106   4.453   1.348  0.6711 -0.1655  1.0372
  887MOL0     H17043   0.049   4.289   1.373  3.3901 -0.1774 -0.6597
  887MOL0     H17044  -0.150   4.433   1.298 -0.2281  2.2144  0.4352
  887MOL0     H17045  -0.082   4.554   1.409  2.3497  0.6063 -3.8676
  887MOL0     H17046  -0.289   4.629   1.436  0.3981  0.0926 -0.3995
  887MOL0     H17047  -0.525   4.686   1.394 -1.2333  0.7248  0.8497
  887MOL0     H17048  -0.808   4.884   1.481 -0.4384 -0.9172  1.0734
  887MOL0     H17049  -1.007   5.019   1.402  0.8893  0.0658  2.0087
  887MOL0     H17050  -1.369   4.842   1.412  0.0345  2.0672  0.1946
  887MOL0     H17051  -1.382   4.830   1.239  0.9755  1.8814 -0.7972
  887MOL0     H17052  -1.419   5.089   1.235 -0.6714  2.5742  1.9703
  887MOL0     H17053  -1.460   5.074   1.407 -0.3420  0.7905 -0.3397
  887MOL0     H17054  -1.632   4.908   1.358  2.1884  0.2232  0.3559
  887MOL0     H17055  -1.572   4.890   1.196  1.2057  0.4251 -0.4504
  887MOL0     H17056  -1.700   5.158   1.316 -0.6920  1.2114 -0.7461
  887MOL0     H17057  -1.633   5.134   1.151  1.0707 -0.5961  0.2889
  887MOL0     H17058  -1.837   4.936   1.174 -2.7190  1.0274 -1.9462
  887MOL0     H17059  -1.859   5.100   1.112  1.1264  0.2449 -0.5359
  887MOL0     H17060  -1.927   5.165   1.343  0.5896 -0.7891  2.0217
  887MOL0     H17061  -1.892   5.003   1.404  2.0977  0.0383 -0.5721
  887MOL0     H17062  -2.115   5.075   1.195 -1.3693 -4.4759 -1.9277
  887MOL0     H17063  -2.071   4.921   1.264  0.4068  0.9438 -0.0513
  887MOL0     H17064  -2.152   5.176   1.421  1.6274 -0.7553  2.4058
  887MOL0     H17065  -2.101   5.030   1.490 -2.8988 -2.1304  1.3860
  887MOL0     H17066  -1.215   4.678   1.288  0.6627 -2.4462 -0.2805
  887MOL0     H17067  -0.992   4.540   1.314 -2.9729 -0.0703 -0.4946
  887MOL0     H17068  -0.648   4.290   1.520  2.6320 -4.4322 -0.1664
  887MOL0     H17069  -0.407   4.216   1.530 -1.1483  0.0325  0.4874
  887MOL0     H17070   1.477   3.935   1.711  1.4149 -2.8952  1.5108
  887MOL0     H17071   1.696   3.838   1.690  0.6405  0.3063  1.1504
  887MOL0     H17072   2.187   4.023   1.756 -0.7744  1.0765  0.7229
  887MOL0     H17073   2.406   3.985   1.762  0.2755 -1.0377  0.8707
  887MOL0     H17074   2.677   3.864   1.696  0.3613 -1.0499 -0.4299
  887MOL0     H17075   2.565   3.803   1.569  2.1797 -0.0049 -2.1724
  887MOL0     H17076   2.684   3.566   1.645  1.1086 -1.5781 -0.6217
  887MOL0     H17077   2.745   3.672   1.526 -1.8332 -1.7285  0.1450
  887MOL0     H17078   2.826   3.638   1.823 -0.1966  0.3502  0.5825
  887MOL0     H17079   2.888   3.771   1.739 -0.1069 -0.7994  2.4210
  887MOL0     H17080   3.066   3.614   1.731  0.0599 -2.0151  0.6966
  887MOL0     H17081   2.951   3.488   1.684  1.3819 -0.1112 -1.5680
  887MOL0     H17082   3.070   3.630   1.317 -1.6455 -0.4777 -0.4026
  887MOL0     H17083   2.342   3.557   1.795  2.2452  1.2226  1.6979
  887MOL0     H17084   2.108   3.603   1.785 -1.2880  1.1258 -1.3803
  888MOL0     O17085   9.345   6.847   5.474 -0.1826  0.3935  0.2157
  888MOL0     C17086   9.406   6.745   5.480 -0.4290 -0.2308  0.1925
  888MOL0     O17087   9.378   6.620   5.421 -0.6531 -0.2718  0.0866
  888MOL0     C17088   9.251   6.575   5.410 -0.0322  0.1732  0.2622
  888MOL0     C17089   9.134   6.635   5.463 -0.3902  1.1497  0.3340
  888MOL0     C17090   9.004   6.577   5.455 -0.0350 -0.2650  0.4842
  888MOL0     C17091   8.987   6.471   5.365  0.1337 -0.9316 -0.1566
  888MOL0     O17092   8.870   6.424   5.332  0.4516  0.0488  0.0497
  888MOL0     C17093   8.758   6.446   5.410  0.2042 -0.8341 -0.5951
  888MOL0     C17094   8.632   6.388   5.369  0.6349 -0.3962  0.0900
  888MOL0     C17095   8.578   6.448   5.244 -0.6625 -0.0627  1.6067
  888MOL0     C17096   8.437   6.383   5.224 -0.2552 -0.7562  0.1625
  888MOL0     C17097   8.376   6.419   5.091 -0.1587 -0.6036 -0.2764
  888MOL0     C17098   8.231   6.369   5.090  0.1034  0.2981  0.5420
  888MOL0     C17099   8.151   6.429   4.975  0.3676  0.0793 -0.4760
  888MOL0     C17100   8.005   6.400   4.971 -0.1438 -0.0263 -0.5451
  888MOL0     N17101   7.934   6.481   5.069  0.0445  0.0540 -0.2973
  888MOL0     C17102   7.885   6.432   5.192 -0.2110 -0.5834 -0.6323
  888MOL0     C17103   7.842   6.542   5.267  0.2033  0.1997 -0.8513
  888MOL0     C17104   7.809   6.551   5.407  0.5176  0.5259  0.0595
  888MOL0     C17105   7.671   6.495   5.445  0.0928  0.6720 -0.1718
  888MOL0     C17106   7.559   6.572   5.368 -1.3632 -0.5618  0.0125
  888MOL0     C17107   7.416   6.540   5.398  0.5031 -0.1448  0.1066
  888MOL0     O17108   7.376   6.627   5.510  0.1614 -0.5792  0.0412
  888MOL0     C17109   7.245   6.657   5.534  0.8443  0.1318  1.2021
  888MOL0     C17110   7.223   6.716   5.661 -0.3092 -0.2531  0.0681
  888MOL0     C17111   7.092   6.727   5.714  0.2475 -0.6929 -0.1634
  888MOL0     C17112   6.984   6.678   5.639 -0.7728  0.6806  1.0798
  888MOL0     C17113   6.843   6.695   5.687  0.2897  0.5209 -0.2792
  888MOL0     O17114   6.822   6.698   5.815  0.0715 -0.1314 -0.8683
  888MOL0     C17115   6.700   6.707   5.876 -0.2913  0.3631 -0.3487
  888MOL0     C17116   6.588   6.764   5.810 -0.0573 -0.5878  0.3901
  888MOL0     C17117   6.470   6.780   5.883 -0.0550 -0.0848  0.0580
  888MOL0     C17118   6.454   6.734   6.019  0.1271 -0.4438 -0.4848
  888MOL0     O17119   6.331   6.722   6.078  0.2994  1.0996  0.0718
  888MOL0     C17120   6.281   6.845   6.128  0.4261 -0.7285 -0.4439
  888MOL0     C17121   6.129   6.846   6.130  0.3964 -0.8428  0.3048
  888MOL0     C17122   6.088   6.971   6.192 -0.2301 -1.0331 -0.5808
  888MOL0     C17123   5.937   6.968   6.205 -0.1790 -0.8845 -0.0610
  888MOL0     C17124   5.905   7.103   6.264  0.4336 -0.2256  0.5816
  888MOL0     C17125   5.756   7.119   6.272 -0.4730 -0.4393  0.3848
  888MOL0     C17126   5.731   7.259   6.328 -0.2423  0.2195  0.3764
  888MOL0     C17127   5.582   7.296   6.363  0.4805 -0.2937 -1.3189
  888MOL0    Cl17128   5.515   7.188   6.465 -0.6508  0.0241  0.1593
  888MOL0     C17129   6.558   6.678   6.080 -0.9106  0.0095 -0.0114
  888MOL0     C17130   6.685   6.667   6.007 -0.2947  0.5694 -0.1349
  888MOL0     O17131   6.762   6.693   5.598 -0.0322  0.0789 -0.3682
  888MOL0     C17132   7.008   6.636   5.502  0.3561 -0.6603  0.0229
  888MOL0     C17133   7.136   6.624   5.451 -0.4090 -0.6607 -0.5031
  888MOL0     N17134   7.860   6.650   5.183  0.0260 -0.1269  0.0345
  888MOL0     N17135   7.917   6.615   5.073  0.5165 -0.3527  0.4375
  888MOL0     C17136   9.105   6.425   5.303  0.4008  0.0111  0.2546
  888MOL0     C17137   9.234   6.466   5.329 -0.5642  0.3604  0.3900
  888MOL0     C17138   9.539   6.765   5.546  1.2040 -0.3384 -0.2858
  888MOL0     C17139   9.608   6.646   5.575 -0.9165 -0.1137 -0.4680
  888MOL0     C17140   9.724   6.648   5.654 -0.3607 -0.4961 -0.2857
  888MOL0     C17141   9.778   6.771   5.681  0.4602 -0.1143  0.0673
  888MOL0     O17142   9.904   6.773   5.738  0.1126  0.6695 -1.0805
  888MOL0     C17143   9.959   6.893   5.797 -0.2388  0.7099  0.0841
  888MOL0     C17144  10.066   6.856   5.903  0.7481  0.0849 -0.8958
  888MOL0     C17145  10.192   6.797   5.847 -0.0486  0.3980  0.5238
  888MOL0     C17146  10.291   6.748   5.957  0.5252 -0.3752 -1.2247
  888MOL0     C17147  10.417   6.701   5.900 -0.8652  0.1343  0.4093
  888MOL0     C17148  10.530   6.680   5.857 -0.6245  0.6846 -0.0910
  888MOL0     C17149   9.713   6.885   5.637  0.0225 -0.4179  0.3647
  888MOL0     C17150   9.589   6.888   5.570 -0.6953 -0.4071 -0.4561
  888MOL0     H17151   9.150   6.732   5.509  3.0684  1.0015 -0.2670
  888MOL0     H17152   8.927   6.632   5.508 -0.3602 -2.4985  2.5247
  888MOL0     H17153   8.733   6.553   5.416  0.2894 -0.7200 -1.9713
  888MOL0     H17154   8.776   6.407   5.511 -1.3312  0.0803  0.0622
  888MOL0     H17155   8.545   6.403   5.433 -1.7076 -2.1705 -2.4198
  888MOL0     H17156   8.637   6.279   5.356 -0.7422 -0.1605 -4.2213
  888MOL0     H17157   8.645   6.429   5.161  0.8092  0.0280  2.7306
  888MOL0     H17158   8.573   6.557   5.246 -0.6256 -0.0340  0.5752
  888MOL0     H17159   8.443   6.274   5.233  0.5957 -1.0019 -2.5851
  888MOL0     H17160   8.370   6.420   5.303  1.2274  2.7640 -0.0490
  888MOL0     H17161   8.433   6.375   5.008  0.1803  0.5364 -0.6772
  888MOL0     H17162   8.363   6.527   5.078 -0.5712 -0.6504 -0.2620
  888MOL0     H17163   8.181   6.392   5.184  0.2590 -0.1960  0.7483
  888MOL0     H17164   8.234   6.260   5.082 -3.9332  0.0115  0.8920
  888MOL0     H17165   8.169   6.537   4.973  0.7321  0.0164 -0.6093
  888MOL0     H17166   8.185   6.384   4.881 -1.4731 -0.7316 -0.8002
  888MOL0     H17167   7.989   6.293   4.986  2.7486 -0.4275  0.3824
  888MOL0     H17168   7.971   6.418   4.869 -1.6751  0.6348  0.0567
  888MOL0     H17169   7.879   6.337   5.244 -1.2685 -0.0516  0.2645
  888MOL0     H17170   7.817   6.656   5.439  1.3875  0.5302 -0.1413
  888MOL0     H17171   7.881   6.491   5.463 -1.5400 -0.9419  1.2425
  888MOL0     H17172   7.649   6.502   5.552 -1.5693  3.0098 -0.5766
  888MOL0     H17173   7.666   6.392   5.407  0.6631  0.0540  1.3647
  888MOL0     H17174   7.582   6.677   5.387 -1.2737 -0.4118 -0.8581
  888MOL0     H17175   7.564   6.553   5.260 -0.0730  0.7032 -0.1663
  888MOL0     H17176   7.411   6.437   5.434 -0.3187  0.6427  2.4113
  888MOL0     H17177   7.361   6.553   5.304  0.5214  0.3779  0.1647
  888MOL0     H17178   7.296   6.745   5.736 -2.1092  2.1918  0.9910
  888MOL0     H17179   7.068   6.774   5.809 -0.1097 -2.1831  0.5194
  888MOL0     H17180   6.596   6.814   5.714 -1.0605 -2.5853 -0.7909
  888MOL0     H17181   6.375   6.822   5.851 -0.2531  1.5719  2.5042
  888MOL0     H17182   6.305   6.926   6.058  1.1815 -2.9746 -2.9525
  888MOL0     H17183   6.313   6.876   6.228 -1.3550  0.1485 -0.1063
  888MOL0     H17184   6.087   6.773   6.200  1.7252 -0.5312  1.4716
  888MOL0     H17185   6.098   6.826   6.027  3.5641  0.5965 -1.0902
  888MOL0     H17186   6.120   7.056   6.131 -1.2092  1.2671  1.8926
  888MOL0     H17187   6.142   6.982   6.286 -1.3763  1.9484 -0.1456
  888MOL0     H17188   5.889   6.949   6.108  3.2535 -0.3713 -1.9966
  888MOL0     H17189   5.903   6.886   6.270 -0.2810  1.9843  3.8292
  888MOL0     H17190   5.941   7.186   6.203  0.4711 -0.5080  0.2127
  888MOL0     H17191   5.946   7.110   6.365  0.7981 -1.8105  0.5670
  888MOL0     H17192   5.700   7.050   6.336  0.9766 -1.9129  0.1478
  888MOL0     H17193   5.707   7.111   6.174 -1.1800  2.4477  0.4121
  888MOL0     H17194   5.792   7.286   6.415  0.5458 -0.4745  0.0548
  888MOL0     H17195   5.765   7.324   6.246  0.6691  1.9300  2.0311
  888MOL0     H17196   5.521   7.308   6.273  1.6098  0.1335 -2.0432
  888MOL0     H17197   5.581   7.391   6.416 -2.4040  0.0383 -1.7786
  888MOL0     H17198   6.568   6.628   6.175 -0.0729 -2.4905 -1.3186
  888MOL0     H17199   6.772   6.635   6.063 -0.1629 -0.5113 -0.9387
  888MOL0     H17200   6.921   6.613   5.441  0.8986  0.4320 -1.2122
  888MOL0     H17201   7.158   6.583   5.353 -3.1131 -0.5036 -1.2391
  888MOL0     H17202   9.090   6.348   5.228  0.9767  1.9675 -2.0072
  888MOL0     H17203   9.312   6.421   5.269 -1.3599  2.2461 -2.2487
  888MOL0     H17204   9.573   6.544   5.564 -1.4819 -0.0132  0.3090
  888MOL0     H17205   9.766   6.557   5.695  0.5765  0.3073  0.5909
  888MOL0     H17206   9.875   6.942   5.848 -1.5602 -0.2948 -1.0644
  888MOL0     H17207   9.996   6.965   5.723 -0.6969  1.9386  1.0154
  888MOL0     H17208  10.089   6.945   5.962  1.5107 -1.2941  0.9894
  888MOL0     H17209  10.020   6.794   5.980  1.1944  0.0153 -0.6786
  888MOL0     H17210  10.248   6.873   5.792 -0.4575 -0.8210 -1.7196
  888MOL0     H17211  10.158   6.717   5.780  0.6146  0.6471 -0.1201
  888MOL0     H17212  10.305   6.831   6.027 -0.9011 -0.6379 -0.5974
  888MOL0     H17213  10.242   6.665   6.008  2.5915 -0.4591  0.7742
  888MOL0     H17214  10.627   6.660   5.817 -0.9453 -2.4993  0.4543
  888MOL0     H17215   9.768   6.977   5.655  1.3865 -1.0929 -0.2761
  888MOL0     H17216   9.544   6.975   5.524  1.7235  1.5897  0.7484
  889MOL0     O17217   4.133   7.630  10.316 -0.4234 -0.1387  0.0928
  889MOL0     C17218   4.208   7.581  10.401 -0.0064  0.0340 -0.9685
  889MOL0     O17219   4.166   7.504  10.511 -0.1803  0.0365  0.6292
  889MOL0     C17220   4.049   7.536  10.571 -0.6880 -0.5342 -0.4584
  889MOL0     C17221   3.992   7.666  10.575 -0.4517  0.5876 -0.6913
  889MOL0     C17222   3.887   7.691  10.659  1.0204 -0.2612  0.5471
  889MOL0     C17223   3.836   7.599  10.743  0.3642  0.6555 -0.5051
  889MOL0     O17224   3.732   7.626  10.820  0.2005 -0.1201  0.6485
  889MOL0     C17225   3.750   7.716  10.922  0.3422 -1.0080  0.0610
  889MOL0     C17226   3.621   7.806  10.924 -0.5536  0.4506  0.4525
  889MOL0     C17227   3.520   7.740  11.020  0.2298  0.3117  0.2691
  889MOL0     C17228   3.400   7.831  11.054  0.1991  0.2620 -0.8672
  889MOL0     C17229   3.274   7.755  11.105  0.0658  0.1413 -0.7879
  889MOL0     C17230   3.157   7.849  11.141  0.8889 -0.5711  0.0486
  889MOL0     C17231   3.024   7.770  11.128 -0.2218 -0.2513  0.1409
  889MOL0     C17232   2.900   7.842  11.183 -0.3774 -0.3213  0.0141
  889MOL0     N17233   2.885   7.976  11.136 -1.2975 -1.4283  0.2376
  889MOL0     C17234   2.882   8.017  11.002 -0.3584  0.4658 -0.1610
  889MOL0     C17235   2.865   8.150  11.007 -0.1300 -0.2375 -0.7749
  889MOL0     C17236   2.851   8.239  10.887 -0.3805  0.0730  0.5723
  889MOL0     C17237   2.753   8.190  10.792  0.4364 -0.2216  0.7052
  889MOL0     C17238   2.622   8.261  10.809 -0.1459  0.7449  0.4014
  889MOL0     C17239   2.527   8.208  10.706  0.5370 -0.5195  0.2351
  889MOL0     O17240   2.406   8.296  10.697 -0.0756 -0.5076  0.8836
  889MOL0     C17241   2.286   8.234  10.646 -0.4234  0.2926 -1.2777
  889MOL0     C17242   2.173   8.298  10.694 -0.0258 -0.0144 -0.0722
  889MOL0     C17243   2.050   8.258  10.666  0.8670 -0.6507  0.5664
  889MOL0     C17244   2.029   8.147  10.583  0.4396  0.4267  1.0102
  889MOL0     C17245   1.892   8.090  10.568 -0.1891  0.3040  0.3789
  889MOL0     O17246   1.808   8.104  10.674 -0.1600 -0.0730  0.1227
  889MOL0     C17247   1.684   8.052  10.652  0.2033 -0.6519 -0.4079
  889MOL0     C17248   1.645   7.918  10.637 -0.6064 -0.0773  0.2617
  889MOL0     C17249   1.515   7.883  10.620  0.4820  0.2040  0.5126
  889MOL0     C17250   1.414   7.976  10.604  0.0954 -0.2156  0.0887
  889MOL0     O17251   1.285   7.931  10.586 -0.5467 -0.5856 -0.7971
  889MOL0     C17252   1.218   8.005  10.475  0.3767  0.2197  0.1530
  889MOL0     C17253   1.073   7.955  10.487 -0.0621 -0.1952 -0.9032
  889MOL0     C17254   0.976   8.058  10.419 -0.2150  0.0128 -0.4673
  889MOL0     C17255   0.832   8.008  10.422  0.3654  0.0364  0.6710
  889MOL0     C17256   0.743   8.093  10.327  0.1788  0.6088 -0.0592
  889MOL0     C17257   0.602   8.036  10.316  1.0135 -0.9706 -0.0677
  889MOL0     C17258   0.540   8.063  10.172 -0.1854  0.3465 -0.5137
  889MOL0     C17259   0.400   7.988  10.161 -0.7615  0.3520 -0.4188
  889MOL0    Cl17260   0.288   8.031  10.294 -0.7429  0.7039  0.3150
  889MOL0     C17261   1.451   8.115  10.608 -0.3057  0.2735 -0.0728
  889MOL0     C17262   1.579   8.148  10.641 -0.5772 -1.1364  1.2582
  889MOL0     O17263   1.872   8.023  10.468 -0.7540  0.7310 -0.0369
  889MOL0     C17264   2.142   8.095  10.515  0.2201  0.6065 -0.0276
  889MOL0     C17265   2.271   8.136  10.554 -0.5384  0.1459  0.2078
  889MOL0     N17266   2.852   8.193  11.135  0.1162 -0.1521  0.1987
  889MOL0     N17267   2.855   8.093  11.210 -0.1345  1.1997  0.0900
  889MOL0     C17268   3.892   7.466  10.744  0.9234 -0.4077  0.4952
  889MOL0     C17269   3.990   7.437  10.653  0.5176  0.3708 -0.1208
  889MOL0     C17270   4.349   7.572  10.361  0.1740 -1.0997  0.7629
  889MOL0     C17271   4.446   7.510  10.446  0.1841 -0.1494  0.4350
  889MOL0     C17272   4.578   7.486  10.403 -0.1480  0.2416 -0.6477
  889MOL0     C17273   4.616   7.528  10.270 -0.5657  0.1785 -0.7621
  889MOL0     O17274   4.737   7.511  10.206  0.1672  0.6172  0.0036
  889MOL0     C17275   4.839   7.446  10.274 -0.1886  0.9081 -0.1949
  889MOL0     C17276   4.965   7.463  10.194 -0.3657 -0.0244  0.0037
  889MOL0     C17277   5.089   7.435  10.279  0.0305  0.3758  0.0173
  889MOL0     C17278   5.221   7.459  10.207  0.3768  0.4959 -0.2431
  889MOL0     C17279   5.230   7.373  10.093 -0.3048  0.7302  0.3965
  889MOL0     C17280   5.229   7.306   9.992  0.3298  0.2535 -0.5421
  889MOL0     C17281   4.522   7.596  10.196  0.5191 -0.0067  0.0066
  889MOL0     C17282   4.392   7.626  10.239  0.1335  0.2466 -0.1489
  889MOL0     H17283   4.013   7.745  10.504 -2.2088 -0.4279 -2.4573
  889MOL0     H17284   3.859   7.795  10.669  2.7457  0.4742 -1.4460
  889MOL0     H17285   3.845   7.771  10.921 -0.4053  0.3189 -1.6445
  889MOL0     H17286   3.749   7.659  11.016  1.4545 -0.9290  0.1329
  889MOL0     H17287   3.587   7.823  10.821 -0.8883 -0.4408  0.4028
  889MOL0     H17288   3.634   7.904  10.971 -1.6325  0.5247  0.6138
  889MOL0     H17289   3.571   7.710  11.112  2.3047  0.0129 -0.9032
  889MOL0     H17290   3.492   7.646  10.970 -1.8121  1.3621 -0.6671
  889MOL0     H17291   3.432   7.901  11.132 -1.2304 -0.9885  0.9081
  889MOL0     H17292   3.373   7.894  10.968  0.1629  0.4323 -0.7319
  889MOL0     H17293   3.290   7.689  11.191 -0.0891 -0.0147 -0.8780
  889MOL0     H17294   3.257   7.689  11.020  1.6968  1.3457 -2.1236
  889MOL0     H17295   3.144   7.934  11.074 -1.2773  0.0061  1.0803
  889MOL0     H17296   3.172   7.892  11.241  1.0458  2.0774 -1.0474
  889MOL0     H17297   3.000   7.741  11.026  0.1036  0.6347 -0.1956
  889MOL0     H17298   3.034   7.674  11.179 -1.2441  0.3385  1.5435
  889MOL0     H17299   2.912   7.846  11.291 -1.4355 -2.5899  0.2629
  889MOL0     H17300   2.812   7.784  11.156  1.2079 -1.3341 -3.7602
  889MOL0     H17301   2.894   7.956  10.912 -0.6602  0.7633 -0.4050
  889MOL0     H17302   2.947   8.229  10.836 -1.0275 -0.0461 -0.6839
  889MOL0     H17303   2.834   8.343  10.915 -1.4535 -0.0940  0.5745
  889MOL0     H17304   2.729   8.083  10.798 -1.1839  0.0814  0.1994
  889MOL0     H17305   2.787   8.215  10.691  1.0558 -1.0711  0.6934
  889MOL0     H17306   2.584   8.230  10.907 -2.7710 -0.9638 -1.0581
  889MOL0     H17307   2.630   8.370  10.804  0.3679  0.6881 -0.2114
  889MOL0     H17308   2.496   8.109  10.742  2.6587 -1.0918  0.6058
  889MOL0     H17309   2.566   8.198  10.604 -0.5731 -4.4172  0.0096
  889MOL0     H17310   2.175   8.374  10.771 -2.3031 -1.6181  1.7062
  889MOL0     H17311   1.956   8.291  10.709 -1.0023 -2.5249 -1.8152
  889MOL0     H17312   1.718   7.838  10.645  1.3839  1.4220 -1.6393
  889MOL0     H17313   1.496   7.778  10.599  0.9896  0.0630  0.7407
  889MOL0     H17314   1.256   7.972  10.378 -3.1142 -1.0263 -0.9396
  889MOL0     H17315   1.224   8.114  10.471 -1.8147  0.3582 -0.7708
  889MOL0     H17316   1.050   7.928  10.590  1.5311 -0.6467 -0.6353
  889MOL0     H17317   1.061   7.867  10.423 -1.9691 -0.5959 -0.0452
  889MOL0     H17318   1.020   8.076  10.320  0.5442  2.8014  0.2830
  889MOL0     H17319   0.984   8.153  10.473  1.4280 -0.9307  1.0801
  889MOL0     H17320   0.827   7.902  10.396 -0.9246  0.1480  0.4023
  889MOL0     H17321   0.790   8.019  10.522 -1.6352 -0.5426 -0.0497
  889MOL0     H17322   0.797   8.079  10.233  0.7577 -1.5779  0.5384
  889MOL0     H17323   0.733   8.198  10.355 -1.4796  0.4387  0.0815
  889MOL0     H17324   0.547   8.098  10.387  3.3728  1.1413  0.0883
  889MOL0     H17325   0.596   7.930  10.339  1.3858 -0.6818  1.4554
  889MOL0     H17326   0.518   8.168  10.152  1.1734  1.5331  3.2734
  889MOL0     H17327   0.608   8.023  10.097 -0.0103 -0.5251  0.0885
  889MOL0     H17328   0.418   7.881  10.147  3.3689  0.6302  1.1980
  889MOL0     H17329   0.356   8.023  10.068 -2.2761 -1.4695 -0.4351
  889MOL0     H17330   1.374   8.191  10.605  2.0873  2.9394  1.3595
  889MOL0     H17331   1.618   8.248  10.654  1.0539 -1.6985  0.9529
  889MOL0     H17332   2.128   8.019  10.439 -1.1228  0.2892  0.5014
  889MOL0     H17333   2.361   8.104  10.503  0.0722 -0.0514  1.3739
  889MOL0     H17334   3.853   7.391  10.811  3.9841 -3.8778 -1.2496
  889MOL0     H17335   4.020   7.333  10.646  1.1635  0.6117 -1.0452
  889MOL0     H17336   4.435   7.474  10.548  1.0751 -0.4990  0.4172
  889MOL0     H17337   4.648   7.440  10.472 -1.8028  0.0656  1.0059
  889MOL0     H17338   4.821   7.339  10.286 -0.7135  0.4964 -3.6616
  889MOL0     H17339   4.847   7.491  10.374 -0.5122  1.5706 -0.4573
  889MOL0     H17340   4.957   7.405  10.102  2.6315  3.0504 -2.5088
  889MOL0     H17341   4.963   7.566  10.155 -0.3847 -1.2981 -3.8198
  889MOL0     H17342   5.085   7.327  10.299  2.9165  0.1044 -0.5132
  889MOL0     H17343   5.083   7.486  10.375 -0.6967  1.7842 -0.7426
  889MOL0     H17344   5.239   7.564  10.182  3.0367  0.5318  1.4208
  889MOL0     H17345   5.299   7.425  10.276  0.1857 -1.2196 -0.8120
  889MOL0     H17346   5.222   7.266   9.893 -0.4668  1.4013 -0.9606
  889MOL0     H17347   4.546   7.624  10.094  2.5420  0.1623  0.4860
  889MOL0     H17348   4.333   7.689  10.173  3.3735  2.8956 -0.7154
  890MOL0     O17349   9.650   3.275   4.720  0.2234  0.2907  0.0996
  890MOL0     C17350   9.673   3.391   4.745  0.2210 -0.0736  0.4254
  890MOL0     O17351   9.580   3.492   4.746 -0.2857 -0.6378  0.5149
  890MOL0     C17352   9.452   3.467   4.702  0.6439 -1.4058  0.2383
  890MOL0     C17353   9.427   3.474   4.565  0.5336  0.8417 -0.0131
  890MOL0     C17354   9.295   3.463   4.520  0.1778 -0.5818  0.4196
  890MOL0     C17355   9.197   3.425   4.603  0.2805 -0.8021  0.2305
  890MOL0     O17356   9.075   3.413   4.550  0.1934  0.1315 -0.0883
  890MOL0     C17357   8.979   3.331   4.621  0.2696 -0.3775 -0.0494
  890MOL0     C17358   8.915   3.234   4.511 -0.6786 -0.2936 -0.3769
  890MOL0     C17359   8.806   3.139   4.571  0.3933  0.4087 -0.4920
  890MOL0     C17360   8.856   3.055   4.690 -0.9785  1.2566  0.0737
  890MOL0     C17361   8.757   2.944   4.743 -0.5679 -0.2896  0.5972
  890MOL0     C17362   8.827   2.830   4.824  0.0587  0.8379 -0.6424
  890MOL0     C17363   8.805   2.696   4.764 -0.3559  0.2212 -0.5000
  890MOL0     C17364   8.877   2.572   4.833 -0.3436  0.7281  0.6139
  890MOL0     N17365   8.832   2.545   4.975 -0.6117  0.0360  0.2217
  890MOL0     C17366   8.903   2.465   5.060 -0.6669 -0.1919  0.4093
  890MOL0     C17367   8.825   2.481   5.168 -0.4183  1.1991  0.3831
  890MOL0     C17368   8.849   2.405   5.291  1.4959 -0.8249 -0.7383
  890MOL0     C17369   8.731   2.317   5.313  0.2606  0.1747 -0.9641
  890MOL0     C17370   8.759   2.229   5.440 -0.8046 -0.2405  0.1260
  890MOL0     C17371   8.634   2.136   5.464  0.1026  0.0631 -0.8810
  890MOL0     O17372   8.515   2.210   5.477 -0.6411  0.2068  0.4835
  890MOL0     C17373   8.402   2.141   5.504 -0.0519  0.1924 -0.6572
  890MOL0     C17374   8.281   2.214   5.504  0.1594 -0.9119  0.6603
  890MOL0     C17375   8.154   2.160   5.526 -0.1994  0.1005 -0.3883
  890MOL0     C17376   8.153   2.024   5.562 -0.1374  0.3607 -0.6120
  890MOL0     C17377   8.020   1.966   5.607 -0.5301  0.3714  0.3232
  890MOL0     O17378   7.910   2.027   5.560  0.4489 -0.1913 -0.6777
  890MOL0     C17379   7.780   2.008   5.594 -0.4464  0.1893  0.1867
  890MOL0     C17380   7.686   2.092   5.544 -0.4390 -0.3628 -0.4585
  890MOL0     C17381   7.551   2.085   5.571 -1.2528 -0.8440 -0.1354
  890MOL0     C17382   7.493   1.982   5.649  0.1625  0.1231  0.6331
  890MOL0     O17383   7.357   1.986   5.672  0.1779 -0.6052  0.1678
  890MOL0     C17384   7.297   1.863   5.714 -0.1820  0.0889  0.1601
  890MOL0     C17385   7.147   1.889   5.730  0.4753  0.6332  0.0714
  890MOL0     C17386   7.094   1.945   5.600 -0.6277 -1.0989 -0.7022
  890MOL0     C17387   6.936   1.959   5.602  0.7067 -0.2397  0.2750
  890MOL0     C17388   6.876   1.813   5.606 -0.2928  0.0398  0.2173
  890MOL0     C17389   6.750   1.811   5.520  0.4971  0.1328 -0.6897
  890MOL0     C17390   6.782   1.795   5.368  0.9061 -0.4348 -0.3031
  890MOL0     C17391   6.645   1.774   5.315  0.2430  0.2611 -0.0472
  890MOL0    Cl17392   6.546   1.933   5.322  0.0079  0.0172 -0.0912
  890MOL0     C17393   7.588   1.887   5.696  0.3587  0.2913 -0.2441
  890MOL0     C17394   7.728   1.903   5.665  1.0447 -0.5647 -0.9831
  890MOL0     O17395   8.025   1.875   5.680  0.0215  0.1038 -0.2541
  890MOL0     C17396   8.271   1.943   5.560 -0.2091 -0.2640 -0.7158
  890MOL0     C17397   8.392   2.002   5.528 -0.0757  0.0717 -0.5836
  890MOL0     N17398   8.712   2.556   5.144 -0.4506  0.2202  0.2214
  890MOL0     N17399   8.720   2.597   5.025 -0.2718 -0.1307  0.7524
  890MOL0     C17400   9.215   3.431   4.743 -0.0130 -0.8023 -0.0196
  890MOL0     C17401   9.347   3.451   4.787 -0.3652 -0.0418 -0.3975
  890MOL0     C17402   9.815   3.432   4.762  0.3933  0.5927  0.2787
  890MOL0     C17403   9.856   3.564   4.784 -0.5069  0.3183  0.6587
  890MOL0     C17404   9.987   3.587   4.817 -0.5303  1.0201 -0.1098
  890MOL0     C17405  10.081   3.484   4.824  0.3136 -0.5921 -0.8249
  890MOL0     O17406  10.210   3.520   4.856 -0.3857  0.7579  0.2526
  890MOL0     C17407  10.300   3.410   4.888 -0.4667  0.1958  0.3766
  890MOL0     C17408  10.434   3.446   4.934 -0.1173 -0.3124 -0.0464
  890MOL0     C17409  10.416   3.522   5.071  0.0697  0.2823  0.2335
  890MOL0     C17410  10.540   3.514   5.154 -0.7185 -0.1309 -0.6183
  890MOL0     C17411  10.656   3.583   5.095  0.2934  0.0417 -0.8299
  890MOL0     C17412  10.754   3.646   5.066  0.5358 -0.0261  1.0953
  890MOL0     C17413  10.044   3.352   4.794 -1.2656  0.2252 -0.2610
  890MOL0     C17414   9.913   3.329   4.764 -0.2271 -0.1182  0.6537
  890MOL0     H17415   9.510   3.499   4.500 -1.1748  2.2655 -1.7878
  890MOL0     H17416   9.279   3.472   4.413  0.3778  0.2884  0.4543
  890MOL0     H17417   8.897   3.391   4.660 -0.1034 -0.6914 -0.3389
  890MOL0     H17418   9.032   3.272   4.697 -0.0638  0.8919  1.2091
  890MOL0     H17419   8.999   3.184   4.464  0.2061  0.4146  0.4136
  890MOL0     H17420   8.862   3.299   4.441  0.5230  1.4707  0.2732
  890MOL0     H17421   8.785   3.060   4.499 -2.0431  1.5915 -1.1716
  890MOL0     H17422   8.714   3.195   4.590 -1.3862 -2.2769 -0.6504
  890MOL0     H17423   8.953   3.005   4.683 -2.1383 -0.9912 -0.9826
  890MOL0     H17424   8.870   3.119   4.778 -1.0909 -1.3842  2.1227
  890MOL0     H17425   8.715   2.901   4.651  1.0786  1.6405 -1.1644
  890MOL0     H17426   8.678   2.996   4.798 -1.8810 -1.5318 -0.0605
  890MOL0     H17427   8.784   2.840   4.924  1.7425  2.6531 -0.0257
  890MOL0     H17428   8.934   2.850   4.838 -0.1795  0.5617  2.1204
  890MOL0     H17429   8.696   2.687   4.752 -0.4280  0.9808 -0.4474
  890MOL0     H17430   8.846   2.693   4.663 -2.4668  2.2534 -1.5085
  890MOL0     H17431   8.986   2.577   4.840 -0.3999 -0.4013  3.4291
  890MOL0     H17432   8.855   2.490   4.764  2.2215  1.0088 -0.6295
  890MOL0     H17433   8.989   2.401   5.044 -1.0984 -0.7250  0.1902
  890MOL0     H17434   8.839   2.480   5.369 -0.2372 -0.7513 -0.9986
  890MOL0     H17435   8.945   2.353   5.302  1.0700 -2.2080 -2.7487
  890MOL0     H17436   8.724   2.251   5.226 -2.1224 -1.1941  0.1806
  890MOL0     H17437   8.640   2.376   5.328 -0.6076 -0.9882 -1.5117
  890MOL0     H17438   8.847   2.167   5.422 -0.4651  0.6063 -1.2785
  890MOL0     H17439   8.777   2.285   5.532  1.3872 -0.4789 -0.1014
  890MOL0     H17440   8.659   2.082   5.556  0.3641  1.1907 -0.2730
  890MOL0     H17441   8.622   2.054   5.392 -0.1676 -1.5640  0.9228
  890MOL0     H17442   8.277   2.319   5.476  1.9207 -0.3473  2.2908
  890MOL0     H17443   8.061   2.214   5.512 -0.7819 -0.6857  0.3087
  890MOL0     H17444   7.718   2.172   5.477  3.2394  0.2074  1.6543
  890MOL0     H17445   7.482   2.164   5.544 -1.2122 -0.3739  1.0532
  890MOL0     H17446   7.331   1.832   5.813  0.8288  0.8509  0.0745
  890MOL0     H17447   7.317   1.775   5.652  1.7055  0.1016  0.7044
  890MOL0     H17448   7.135   1.962   5.811 -0.2569 -0.1309  0.6650
  890MOL0     H17449   7.097   1.792   5.737  0.5899  0.2925 -2.7074
  890MOL0     H17450   7.126   1.892   5.511 -0.3993 -1.4113 -0.4349
  890MOL0     H17451   7.134   2.047   5.598 -0.5322 -1.0779  0.8272
  890MOL0     H17452   6.907   2.027   5.683 -1.7092 -0.1276 -0.6137
  890MOL0     H17453   6.899   2.002   5.509 -0.2920  1.1931  1.2985
  890MOL0     H17454   6.853   1.786   5.710 -0.6589  1.6328  0.5662
  890MOL0     H17455   6.938   1.733   5.566 -0.2554  1.3215 -2.4875
  890MOL0     H17456   6.688   1.897   5.545  1.9012  0.7233  0.9685
  890MOL0     H17457   6.701   1.721   5.557  4.4299 -0.8050  3.0805
  890MOL0     H17458   6.832   1.886   5.336 -1.6403  1.5320  0.9264
  890MOL0     H17459   6.844   1.706   5.349 -0.3964 -1.9445  1.9784
  890MOL0     H17460   6.588   1.687   5.346 -0.1618  0.6061  0.1916
  890MOL0     H17461   6.654   1.751   5.208 -1.8984 -0.8655 -0.0408
  890MOL0     H17462   7.544   1.804   5.750 -1.0065  0.2174 -1.3948
  890MOL0     H17463   7.800   1.828   5.695  0.4480 -0.8046 -0.1023
  890MOL0     H17464   8.271   1.839   5.591  0.8037 -0.0568  0.0306
  890MOL0     H17465   8.480   1.940   5.545  0.6257  1.0081 -0.7084
  890MOL0     H17466   9.132   3.413   4.811 -1.3208 -0.6169 -1.5136
  890MOL0     H17467   9.374   3.445   4.892  1.2776 -0.3414 -0.8053
  890MOL0     H17468   9.783   3.644   4.784 -1.0016 -0.1290  0.4276
  890MOL0     H17469  10.020   3.690   4.826  2.3046  0.1578  0.2514
  890MOL0     H17470  10.313   3.342   4.803 -1.4489 -0.1269  0.4728
  890MOL0     H17471  10.256   3.353   4.970  0.3956  1.1573  1.5374
  890MOL0     H17472  10.492   3.356   4.952 -0.8049 -0.5869  0.8627
  890MOL0     H17473  10.488   3.503   4.857  1.7906  0.3586  1.6832
  890MOL0     H17474  10.332   3.491   5.135  0.6330  0.4353  1.0636
  890MOL0     H17475  10.398   3.621   5.030  1.8408  0.3779 -0.3835
  890MOL0     H17476  10.526   3.565   5.250  1.2828  1.7625 -1.2416
  890MOL0     H17477  10.560   3.408   5.169 -0.3674  0.3105  3.1471
  890MOL0     H17478  10.827   3.713   5.026 -1.6565  0.8097 -1.8927
  890MOL0     H17479  10.127   3.283   4.792 -0.0521  1.3981  2.9893
  890MOL0     H17480   9.864   3.232   4.755  0.1309 -0.5740  3.0566
  891MOL0     O17481   6.117  10.676  10.063 -0.2575 -0.4642  0.5149
  891MOL0     C17482   6.129  10.790  10.116  0.2534  0.1999  0.4567
  891MOL0     O17483   6.032  10.877  10.144  0.2294  0.5802 -0.2494
  891MOL0     C17484   5.899  10.847  10.120 -0.2730  0.1435 -0.3962
  891MOL0     C17485   5.802  10.898  10.206  0.7928  0.1874 -0.3319
  891MOL0     C17486   5.668  10.881  10.181  0.5278  0.2284 -0.1819
  891MOL0     C17487   5.624  10.835  10.057 -0.1561  0.0867  0.7347
  891MOL0     O17488   5.488  10.838  10.034 -0.0532 -0.6607 -0.4787
  891MOL0     C17489   5.435  10.878   9.903  0.3326  0.2971  0.0727
  891MOL0     C17490   5.409  10.747   9.809 -0.1584  0.0161 -0.3222
  891MOL0     C17491   5.316  10.633   9.877  0.3037 -0.1256  0.2622
  891MOL0     C17492   5.197  10.699   9.955 -0.8971 -0.2371 -0.2490
  891MOL0     C17493   5.089  10.597  10.000  0.6370  0.6009 -0.8582
  891MOL0     C17494   4.962  10.657  10.070 -0.1283 -0.1835  0.8744
  891MOL0     C17495   4.895  10.552  10.157  1.2790 -0.5153 -0.1034
  891MOL0     C17496   4.795  10.478  10.073 -1.0052  0.1089 -0.7342
  891MOL0     N17497   4.664  10.451  10.141 -0.0867  0.6309  0.1229
  891MOL0     C17498   4.585  10.536  10.212 -0.5231 -0.5216  0.2170
  891MOL0     C17499   4.466  10.475  10.216  0.6310 -0.4930 -0.6278
  891MOL0     C17500   4.336  10.526  10.283 -0.7538 -0.4541  0.4343
  891MOL0     C17501   4.267  10.418  10.369 -0.0546  0.0532 -0.2474
  891MOL0     C17502   4.356  10.380  10.482 -0.4829 -0.3992  0.0609
  891MOL0     C17503   4.281  10.331  10.602  0.6414  0.3194 -0.0481
  891MOL0     O17504   4.194  10.225  10.563 -0.9229 -0.3869  0.6468
  891MOL0     C17505   4.086  10.188  10.643  0.1443 -0.5979 -0.1004
  891MOL0     C17506   4.051  10.259  10.757 -0.4508  0.4184  0.3781
  891MOL0     C17507   3.935  10.232  10.831  0.1491 -0.1224  0.2089
  891MOL0     C17508   3.857  10.116  10.790 -0.7787 -0.4271 -0.0613
  891MOL0     C17509   3.726  10.097  10.859  0.5041 -0.8438  0.0412
  891MOL0     O17510   3.656   9.981  10.837 -0.1916  0.4542  0.2775
  891MOL0     C17511   3.529   9.980  10.891  0.1000 -0.2558 -1.1103
  891MOL0     C17512   3.436   9.930  10.810 -0.8785  0.3575  0.6324
  891MOL0     C17513   3.304   9.913  10.848  0.4553 -0.1564  0.5016
  891MOL0     C17514   3.258   9.932  10.985  0.8432 -0.9282 -0.0478
  891MOL0     O17515   3.122   9.934  11.021 -0.1523  0.9530  0.2111
  891MOL0     C17516   3.022   9.881  10.932 -0.8472 -0.1357 -0.3497
  891MOL0     C17517   2.887   9.897  10.983  0.2859  0.4218 -0.0267
  891MOL0     C17518   2.785   9.800  10.908  0.3012 -0.7604 -1.1528
  891MOL0     C17519   2.652   9.815  10.978  0.1125  0.3287 -0.1183
  891MOL0     C17520   2.586   9.672  10.974  0.3325  0.4089  0.4561
  891MOL0     C17521   2.437   9.671  10.963 -0.4299 -0.1895 -0.7148
  891MOL0     C17522   2.376   9.528  10.954 -0.1895 -0.1222  0.0971
  891MOL0     C17523   2.220   9.532  10.931 -1.0599  0.2536 -0.2667
  891MOL0    Cl17524   2.187   9.641  10.802  0.4260 -0.0270 -0.2379
  891MOL0     C17525   3.351  10.004  11.064 -0.0824 -0.5758 -0.6642
  891MOL0     C17526   3.484  10.014  11.030 -0.2511 -0.1630  0.4161
  891MOL0     O17527   3.678  10.191  10.914  0.1917 -0.3128 -0.6054
  891MOL0     C17528   3.894  10.044  10.675 -0.0485 -0.1816  0.0959
  891MOL0     C17529   4.014  10.083  10.606  0.0212 -0.8450  0.4587
  891MOL0     N17530   4.476  10.354  10.155 -0.2155 -0.0090  0.2443
  891MOL0     N17531   4.590  10.341  10.107 -0.4731 -0.8398  0.2929
  891MOL0     C17532   5.720  10.799   9.962  0.5629 -0.3596 -0.1492
  891MOL0     C17533   5.855  10.797   9.990 -0.0733 -0.5996 -1.0167
  891MOL0     C17534   6.266  10.828  10.154 -0.5365 -0.5027 -0.0428
  891MOL0     C17535   6.279  10.932  10.245 -0.5118  0.6473 -0.2683
  891MOL0     C17536   6.409  10.979  10.283 -0.1132 -0.1416  0.7636
  891MOL0     C17537   6.523  10.910  10.244 -0.4269 -0.5704 -0.1649
  891MOL0     O17538   6.647  10.959  10.283  0.5980  0.3375 -0.6964
  891MOL0     C17539   6.732  10.868  10.352  0.2963 -0.5247  0.2768
  891MOL0     C17540   6.845  10.826  10.260 -0.0988  1.4255 -0.2916
  891MOL0     C17541   6.980  10.781  10.330 -0.7205 -0.0765  0.4065
  891MOL0     C17542   7.049  10.894  10.410  0.6923 -0.6099  0.8676
  891MOL0     C17543   7.181  10.849  10.441  0.8338 -0.8433 -0.0523
  891MOL0     C17544   7.294  10.816  10.460 -0.0416  0.1078  0.4588
  891MOL0     C17545   6.511  10.802  10.158  1.1171  0.6115 -0.1997
  891MOL0     C17546   6.381  10.770  10.109 -0.6460 -0.0104  0.5102
  891MOL0     H17547   5.835  10.932  10.303 -0.3289 -0.6616  0.3726
  891MOL0     H17548   5.597  10.913  10.256  0.2204  2.3178 -1.2657
  891MOL0     H17549   5.504  10.952   9.861  1.6731 -0.7322  0.3885
  891MOL0     H17550   5.338  10.926   9.916  0.3727  1.1680 -2.2180
  891MOL0     H17551   5.503  10.708   9.770  0.5571  2.5712 -1.3754
  891MOL0     H17552   5.337  10.779   9.733 -2.1085  0.2647  1.5254
  891MOL0     H17553   5.376  10.578   9.951  0.3425  0.6251  0.8066
  891MOL0     H17554   5.283  10.555   9.807 -0.0064  0.2066  0.0336
  891MOL0     H17555   5.230  10.741  10.050 -1.8338 -1.0785  0.4764
  891MOL0     H17556   5.155  10.775   9.888  0.3160  0.2003 -0.5223
  891MOL0     H17557   5.134  10.517  10.059  0.1920  1.8056  1.1756
  891MOL0     H17558   5.039  10.547   9.916 -3.1245  1.2505  0.7856
  891MOL0     H17559   4.888  10.705  10.006 -1.4207 -2.6146  0.4254
  891MOL0     H17560   4.997  10.737  10.136 -1.1632  0.4231  0.7199
  891MOL0     H17561   4.974  10.482  10.187  1.6307 -0.0743  0.0067
  891MOL0     H17562   4.851  10.603  10.242 -0.0333  2.4738 -2.4139
  891MOL0     H17563   4.836  10.383  10.040  0.3259  0.4488 -0.1359
  891MOL0     H17564   4.764  10.540   9.988 -1.2616 -0.1138 -0.8045
  891MOL0     H17565   4.606  10.634  10.253  0.1509 -0.4652 -0.2504
  891MOL0     H17566   4.266  10.568  10.210  2.4498  1.4596 -1.7946
  891MOL0     H17567   4.359  10.618  10.339  1.0280 -1.3160  1.2288
  891MOL0     H17568   4.247  10.330  10.306 -0.5151 -0.0659  0.0606
  891MOL0     H17569   4.171  10.453  10.408 -0.5011 -1.6453  0.2871
  891MOL0     H17570   4.416  10.296  10.445 -0.3731  0.3300 -1.4854
  891MOL0     H17571   4.418  10.464  10.513  1.6253 -1.8632 -0.0173
  891MOL0     H17572   4.226  10.418  10.639  0.6730  1.1833 -1.9280
  891MOL0     H17573   4.349  10.294  10.680  1.6892  1.5992 -0.3228
  891MOL0     H17574   4.099  10.352  10.787  1.9324 -0.4907 -0.3059
  891MOL0     H17575   3.910  10.289  10.921  1.2658  1.1053 -0.2343
  891MOL0     H17576   3.461   9.909  10.707  2.3072 -0.1812  1.4124
  891MOL0     H17577   3.232   9.879  10.775 -0.7663  1.0676  1.0966
  891MOL0     H17578   3.044   9.775  10.911 -0.2621 -0.1199  0.1545
  891MOL0     H17579   3.028   9.936  10.838  0.3211  0.1871 -0.1042
  891MOL0     H17580   2.858  10.002  10.978 -3.1689 -0.4514 -2.1785
  891MOL0     H17581   2.900   9.868  11.088  0.4068 -2.0074 -0.6469
  891MOL0     H17582   2.832   9.701  10.916  2.5597  0.3343 -0.0199
  891MOL0     H17583   2.769   9.830  10.804 -1.2270  1.3868 -0.3719
  891MOL0     H17584   2.655   9.850  11.081 -1.8150  1.4428 -0.4020
  891MOL0     H17585   2.590   9.893  10.934 -0.0592  0.9668  1.2040
  891MOL0     H17586   2.621   9.612  11.059 -0.3249 -1.1509 -0.3282
  891MOL0     H17587   2.617   9.614  10.887  0.9222  1.3769 -0.0002
  891MOL0     H17588   2.412   9.724  10.871 -1.8113 -0.6915 -0.6511
  891MOL0     H17589   2.391   9.718  11.051 -1.0684  0.9829 -1.6411
  891MOL0     H17590   2.427   9.494  10.863  1.4083  1.1074  0.4885
  891MOL0     H17591   2.389   9.461  11.039  0.3895 -1.3616 -0.9220
  891MOL0     H17592   2.165   9.571  11.017 -4.4175  1.3530 -2.7275
  891MOL0     H17593   2.177   9.435  10.904 -2.0454  0.6396 -0.0994
  891MOL0     H17594   3.325  10.047  11.161 -1.4673 -1.4874 -0.5975
  891MOL0     H17595   3.556  10.065  11.093  1.0882  0.1728 -1.2904
  891MOL0     H17596   3.838   9.960  10.634 -0.7287  1.1237 -1.8083
  891MOL0     H17597   4.041  10.038  10.511 -1.7515 -0.7647 -0.1282
  891MOL0     H17598   5.688  10.769   9.863  0.6491 -2.2763  0.3528
  891MOL0     H17599   5.922  10.763   9.912  0.2021 -1.0136 -0.6047
  891MOL0     H17600   6.191  10.978  10.288 -0.2895 -0.3567  1.3174
  891MOL0     H17601   6.417  11.070  10.342 -2.3601  0.3040  0.4739
  891MOL0     H17602   6.682  10.778  10.390  0.5497 -1.6758 -1.9017
  891MOL0     H17603   6.769  10.918  10.441 -0.4145  1.5891 -0.5519
  891MOL0     H17604   6.805  10.743  10.202 -0.1053  1.5901 -0.5246
  891MOL0     H17605   6.863  10.912  10.195 -1.9804 -0.0039 -2.8832
  891MOL0     H17606   7.053  10.746  10.256 -0.4744  2.2726 -0.5453
  891MOL0     H17607   6.960  10.707  10.408  0.5680  2.3259  3.2117
  891MOL0     H17608   7.060  10.976  10.339  2.0785  1.1463  2.9883
  891MOL0     H17609   6.999  10.917  10.505  0.1035 -1.7323  0.8566
  891MOL0     H17610   7.392  10.774  10.470  0.1054  0.1250 -0.6893
  891MOL0     H17611   6.602  10.754  10.122  0.6436 -2.7133  2.5204
  891MOL0     H17612   6.370  10.706  10.022  1.5329  0.3973 -0.1190
  892MOL0     O17613   0.746   7.560   3.120  0.1322 -0.1271  0.3318
  892MOL0     C17614   0.761   7.681   3.091 -0.5346 -0.9882 -0.9639
  892MOL0     O17615   0.664   7.765   3.048 -0.3310  0.2491  0.0179
  892MOL0     C17616   0.539   7.713   3.015  0.0823  0.5389 -0.0883
  892MOL0     C17617   0.441   7.810   3.013  0.6366 -0.2704  0.2616
  892MOL0     C17618   0.305   7.782   2.980  0.3367 -0.6923  0.5832
  892MOL0     C17619   0.264   7.653   2.944  0.2153  0.3847 -0.2167
  892MOL0     O17620   0.139   7.622   2.911  0.6555  0.0863  0.7658
  892MOL0     C17621   0.035   7.640   3.017  0.0503 -0.8212  0.2485
  892MOL0     C17622  -0.098   7.628   2.941  0.2464 -0.0029 -0.3458
  892MOL0     C17623  -0.219   7.669   3.025  0.0276  0.1976 -0.1557
  892MOL0     C17624  -0.343   7.675   2.940  0.0414  0.9644  0.0624
  892MOL0     C17625  -0.451   7.710   3.027  0.7909 -0.5133  0.3817
  892MOL0     C17626  -0.576   7.714   2.937  0.0791  0.0759 -0.0614
  892MOL0     C17627  -0.690   7.780   3.025 -0.1660  1.3452 -0.0866
  892MOL0     C17628  -0.795   7.823   2.916  0.6206  0.6260  0.8050
  892MOL0     N17629  -0.924   7.861   2.995 -0.8370  0.7807 -0.1728
  892MOL0     C17630  -1.030   7.785   3.010  0.5405 -0.4932  0.7709
  892MOL0     C17631  -1.131   7.857   3.055 -0.4464 -0.6124 -0.2976
  892MOL0     C17632  -1.266   7.812   3.102  0.1956  0.6359  0.9458
  892MOL0     C17633  -1.381   7.864   3.004 -0.2617 -0.1097 -0.0568
  892MOL0     C17634  -1.513   7.828   3.067 -0.0095 -0.5007  0.0307
  892MOL0     C17635  -1.628   7.844   2.961 -0.2334  0.1055 -0.2832
  892MOL0     O17636  -1.753   7.840   3.029  0.3787  0.3866 -0.1180
  892MOL0     C17637  -1.862   7.860   2.952  0.9955  0.4947  0.5027
  892MOL0     C17638  -1.891   7.995   2.912 -0.0861  0.5387  1.3209
  892MOL0     C17639  -2.002   8.019   2.830  0.3893  0.7281 -0.7453
  892MOL0     C17640  -2.083   7.916   2.784  0.6152  0.4844 -0.0722
  892MOL0     C17641  -2.200   7.945   2.701  0.0937 -0.5163  0.4207
  892MOL0     O17642  -2.315   7.867   2.715 -0.0474  0.4597 -0.1069
  892MOL0     C17643  -2.428   7.906   2.647  0.1966  0.7336 -0.2592
  892MOL0     C17644  -2.463   7.848   2.528 -0.4531  0.2980 -0.4589
  892MOL0     C17645  -2.587   7.859   2.474  1.0260  0.7692  0.4150
  892MOL0     C17646  -2.686   7.933   2.532  0.4311  0.0933  0.1238
  892MOL0     O17647  -2.812   7.932   2.487 -0.1765  0.5109 -0.1309
  892MOL0     C17648  -2.915   8.003   2.553 -0.1714 -0.3893 -0.5762
  892MOL0     C17649  -3.038   7.957   2.487 -0.2547 -0.3505  0.3889
  892MOL0     C17650  -3.171   8.023   2.535 -0.6739 -0.0393  0.0871
  892MOL0     C17651  -3.290   7.956   2.468  0.6036 -0.9502  0.2061
  892MOL0     C17652  -3.427   8.026   2.500  0.1031  0.1355  0.0107
  892MOL0     C17653  -3.544   7.961   2.421  0.5680 -0.2165 -0.1788
  892MOL0     C17654  -3.686   8.001   2.482 -0.4429 -0.2892 -0.1817
  892MOL0     C17655  -3.805   7.972   2.395 -0.4711 -0.2153 -0.1136
  892MOL0    Cl17656  -3.870   7.808   2.410 -0.0001  0.2382 -0.0701
  892MOL0     C17657  -2.644   8.012   2.639 -0.8223  0.4453 -0.1768
  892MOL0     C17658  -2.512   8.003   2.697  0.4495 -0.9168 -0.4947
  892MOL0     O17659  -2.197   8.042   2.628 -0.3124 -0.7729  0.1650
  892MOL0     C17660  -2.045   7.783   2.823  0.2820 -0.6453 -0.5053
  892MOL0     C17661  -1.937   7.752   2.904  0.3254 -0.3861  0.2898
  892MOL0     N17662  -1.078   7.980   3.088 -0.9505  0.6097 -0.4885
  892MOL0     N17663  -0.954   7.979   3.054 -0.1994 -0.9451  0.6103
  892MOL0     C17664   0.362   7.553   2.949  0.3115 -0.6171  0.2238
  892MOL0     C17665   0.497   7.583   2.983 -0.8425 -0.0898  0.1607
  892MOL0     C17666   0.895   7.744   3.097  0.2201  0.9219  0.4599
  892MOL0     C17667   0.934   7.854   3.023 -0.2732 -0.6905 -0.2814
  892MOL0     C17668   1.064   7.879   3.005  0.1941  0.8083  0.4772
  892MOL0     C17669   1.169   7.798   3.056  0.5083  0.1476 -0.2302
  892MOL0     O17670   1.299   7.829   3.027 -0.5456 -0.1258 -0.1145
  892MOL0     C17671   1.396   7.727   3.048  0.5061  0.6809 -0.2784
  892MOL0     C17672   1.534   7.766   2.990  0.1857 -0.5633  0.2731
  892MOL0     C17673   1.646   7.696   3.069  0.2551 -0.0033 -0.1019
  892MOL0     C17674   1.780   7.726   2.996 -0.0969  0.5831 -0.2950
  892MOL0     C17675   1.889   7.687   3.086  0.3952  0.4284  0.4471
  892MOL0     C17676   1.972   7.647   3.171 -0.5660  0.0822  0.0205
  892MOL0     C17677   1.134   7.685   3.133 -0.4141  1.1521 -0.2147
  892MOL0     C17678   0.999   7.659   3.160 -0.3131 -0.1179  0.3443
  892MOL0     H17679   0.468   7.908   3.051 -0.6017  0.5599 -0.8904
  892MOL0     H17680   0.234   7.862   3.003  2.1132  1.4907 -1.0442
  892MOL0     H17681   0.050   7.742   3.054 -1.4728 -1.0910  1.7411
  892MOL0     H17682   0.043   7.559   3.090 -0.5876  0.2505  1.5482
  892MOL0     H17683  -0.102   7.522   2.912 -1.2215 -0.0258 -0.1304
  892MOL0     H17684  -0.087   7.692   2.853  2.6378  0.5685  0.2860
  892MOL0     H17685  -0.195   7.764   3.074  1.4349 -0.4780  0.5374
  892MOL0     H17686  -0.237   7.591   3.099 -1.1875  0.4992 -0.1126
  892MOL0     H17687  -0.323   7.750   2.863  1.2365 -0.9527 -1.6026
  892MOL0     H17688  -0.364   7.578   2.894  1.2115  0.8978 -0.3710
  892MOL0     H17689  -0.430   7.809   3.068 -2.6428 -1.1810  4.3774
  892MOL0     H17690  -0.463   7.645   3.114 -0.4930  2.7587  2.8642
  892MOL0     H17691  -0.598   7.613   2.902  1.7558  0.6394 -3.1158
  892MOL0     H17692  -0.568   7.774   2.846  0.8515 -1.3174 -0.9421
  892MOL0     H17693  -0.722   7.689   3.078  0.6347 -0.4912 -2.5779
  892MOL0     H17694  -0.661   7.860   3.093  0.1913  1.4965 -0.4185
  892MOL0     H17695  -0.807   7.737   2.849 -0.3414 -0.4458  2.2922
  892MOL0     H17696  -0.760   7.906   2.854  2.2413 -1.1042 -0.7306
  892MOL0     H17697  -1.049   7.683   2.977 -1.5812  0.4311 -1.0972
  892MOL0     H17698  -1.279   7.867   3.196  1.0321  1.5779  0.5291
  892MOL0     H17699  -1.267   7.703   3.113  0.9873  0.4297 -0.7259
  892MOL0     H17700  -1.368   7.818   2.906  3.8244 -0.6723  0.5691
  892MOL0     H17701  -1.356   7.970   2.992 -2.1220  0.1749 -1.8489
  892MOL0     H17702  -1.507   7.722   3.092 -0.3832 -0.2040  1.5358
  892MOL0     H17703  -1.526   7.889   3.157 -2.1642 -0.6019 -0.1701
  892MOL0     H17704  -1.627   7.764   2.887  1.5058 -1.5347  1.4196
  892MOL0     H17705  -1.633   7.945   2.919 -0.5341  0.6489  1.0319
  892MOL0     H17706  -1.829   8.081   2.936 -0.2318  0.8771  0.5125
  892MOL0     H17707  -2.030   8.122   2.811 -1.4880  0.5051  0.5335
  892MOL0     H17708  -2.391   7.777   2.486  0.0217 -0.0428  0.8890
  892MOL0     H17709  -2.612   7.802   2.385 -1.9486  3.2987 -0.5196
  892MOL0     H17710  -2.906   8.110   2.535 -3.3188  0.4138  1.8056
  892MOL0     H17711  -2.906   7.980   2.659  2.0460  0.9364 -0.4125
  892MOL0     H17712  -3.053   7.851   2.508 -0.5421 -0.2288  0.8154
  892MOL0     H17713  -3.031   7.987   2.382  1.3793 -0.5225  0.4273
  892MOL0     H17714  -3.166   8.131   2.513  0.0110  0.3188  1.8733
  892MOL0     H17715  -3.174   8.008   2.643  0.9127 -0.6655  0.0747
  892MOL0     H17716  -3.283   7.965   2.360 -1.6038 -1.4168 -0.0241
  892MOL0     H17717  -3.304   7.849   2.483 -2.8950 -1.0161 -2.2917
  892MOL0     H17718  -3.434   8.134   2.485 -2.3275 -0.0373 -0.3793
  892MOL0     H17719  -3.442   8.020   2.608  0.5011  0.2300  0.0745
  892MOL0     H17720  -3.524   7.854   2.436  2.7305 -0.0733 -1.6446
  892MOL0     H17721  -3.550   7.977   2.313 -0.8118 -0.0065 -0.0939
  892MOL0     H17722  -3.705   7.958   2.581  1.4507 -1.1729 -0.1589
  892MOL0     H17723  -3.681   8.109   2.497 -0.4218 -0.2418 -0.5226
  892MOL0     H17724  -3.761   7.998   2.298  1.5068  1.2207  1.1102
  892MOL0     H17725  -3.886   8.043   2.415 -0.8095 -0.7278  0.3433
  892MOL0     H17726  -2.715   8.068   2.699 -1.4314 -1.6527  1.1462
  892MOL0     H17727  -2.481   8.046   2.791  0.6724 -2.1068 -0.0043
  892MOL0     H17728  -2.096   7.701   2.774  1.8932 -2.0130  0.0212
  892MOL0     H17729  -1.913   7.647   2.920  2.4684  0.2037  1.2111
  892MOL0     H17730   0.342   7.450   2.922  0.6475 -0.1822 -1.8611
  892MOL0     H17731   0.567   7.500   2.993  0.5090  1.2113  2.0990
  892MOL0     H17732   0.864   7.901   2.954  0.3036  0.1077 -0.3379
  892MOL0     H17733   1.089   7.964   2.942 -1.6236  0.6157 -0.5533
  892MOL0     H17734   1.371   7.629   3.007  0.3622 -0.1607  1.6722
  892MOL0     H17735   1.417   7.710   3.154  1.4499  0.8521 -0.4288
  892MOL0     H17736   1.538   7.738   2.884  0.7402 -2.2816  0.7222
  892MOL0     H17737   1.543   7.875   2.999 -0.2529 -0.5471  0.5094
  892MOL0     H17738   1.632   7.587   3.068  1.4092 -0.1739  0.0370
  892MOL0     H17739   1.646   7.737   3.170 -1.5039  1.8450 -0.7915
  892MOL0     H17740   1.792   7.663   2.907  4.8601  0.9319 -0.1720
  892MOL0     H17741   1.780   7.834   2.975  0.5212  0.6231 -0.1087
  892MOL0     H17742   2.033   7.605   3.248 -3.8113 -0.0882  2.7400
  892MOL0     H17743   1.209   7.627   3.185  0.0562  1.5960 -0.3973
  892MOL0     H17744   0.978   7.571   3.221  0.8420  0.5912  1.8198
  893MOL0     O17745   4.140   8.393  10.213  0.7115  0.1999 -0.4347
  893MOL0     C17746   4.200   8.502  10.202  0.0470 -0.4518 -0.5011
  893MOL0     O17747   4.154   8.627  10.228 -0.2364 -0.8032  0.4270
  893MOL0     C17748   4.021   8.660  10.258 -0.2836 -0.3699 -0.2520
  893MOL0     C17749   3.999   8.794  10.249  0.5419 -0.2740  0.2160
  893MOL0     C17750   3.874   8.852  10.277 -0.1500  0.0483 -1.0035
  893MOL0     C17751   3.761   8.762  10.305  1.1305  0.0177 -0.5106
  893MOL0     O17752   3.643   8.827  10.330  0.0671  0.3646 -0.2370
  893MOL0     C17753   3.530   8.760  10.279 -0.2722  0.6633  1.0615
  893MOL0     C17754   3.397   8.808  10.352 -0.4730 -0.5561 -0.6446
  893MOL0     C17755   3.265   8.748  10.302 -0.1653  0.1613 -0.0299
  893MOL0     C17756   3.250   8.596  10.326 -0.3636 -0.0354 -0.4533
  893MOL0     C17757   3.106   8.561  10.301  0.4210  1.0180  0.4706
  893MOL0     C17758   3.093   8.404  10.316  0.0845 -0.8795  0.4694
  893MOL0     C17759   2.950   8.360  10.273 -0.0888  0.2933 -0.0172
  893MOL0     C17760   2.930   8.208  10.300 -0.7302 -0.3379 -0.0445
  893MOL0     N17761   2.795   8.165  10.269  0.0249 -0.2759  0.2600
  893MOL0     C17762   2.764   8.061  10.180 -0.7356 -0.8145  0.3404
  893MOL0     C17763   2.634   8.037  10.188  0.1267 -0.3554 -0.3724
  893MOL0     C17764   2.548   7.944  10.111 -0.4558 -0.1432  0.4699
  893MOL0     C17765   2.417   7.934  10.193 -0.1358 -0.7220 -0.4233
  893MOL0     C17766   2.330   7.815  10.134 -0.0196 -0.0586  0.3789
  893MOL0     C17767   2.186   7.825  10.173  1.2191  0.5107 -0.1670
  893MOL0     O17768   2.155   7.754  10.288 -0.7258 -0.1238  0.0286
  893MOL0     C17769   2.017   7.742  10.310 -0.0070 -0.3105  0.1649
  893MOL0     C17770   1.981   7.641  10.398 -0.2171  1.0415  0.1535
  893MOL0     C17771   1.845   7.606  10.411 -0.8337  0.1582 -0.5642
  893MOL0     C17772   1.743   7.672  10.338 -0.3134  0.3674 -0.3463
  893MOL0     C17773   1.602   7.636  10.354 -0.3260 -0.1319 -0.6316
  893MOL0     O17774   1.511   7.694  10.273  0.0302  0.0899 -0.1431
  893MOL0     C17775   1.376   7.671  10.278  0.9996 -0.0549  0.1900
  893MOL0     C17776   1.305   7.719  10.168  0.0131  0.7243 -0.0028
  893MOL0     C17777   1.175   7.691  10.140  0.4257 -0.1135  0.1179
  893MOL0     C17778   1.099   7.615  10.231 -0.4802  0.9859  0.1262
  893MOL0     O17779   0.968   7.588  10.204 -0.5897 -0.9494 -0.2879
  893MOL0     C17780   0.880   7.519  10.299  0.0365 -0.1731 -0.2932
  893MOL0     C17781   0.747   7.497  10.239 -0.6112  0.4717  0.2809
  893MOL0     C17782   0.684   7.634  10.187  0.1989  1.4452  1.0812
  893MOL0     C17783   0.561   7.609  10.095  0.2677  0.3550 -0.4084
  893MOL0     C17784   0.431   7.571  10.161  0.1964  0.3175 -0.8063
  893MOL0     C17785   0.312   7.583  10.070 -0.2503  0.6494  0.1092
  893MOL0     C17786   0.205   7.496  10.124 -0.2461 -0.2628  0.6369
  893MOL0     C17787   0.080   7.534  10.057 -0.4155  0.6497 -0.0607
  893MOL0    Cl17788  -0.025   7.391  10.031  0.7364 -0.0154 -0.5792
  893MOL0     C17789   1.163   7.578  10.350 -0.0205  0.0424 -0.1568
  893MOL0     C17790   1.301   7.604  10.374  0.0051  0.1380 -0.3616
  893MOL0     O17791   1.577   7.560  10.450  0.6477  0.1173 -0.4690
  893MOL0     C17792   1.789   7.777  10.257  0.1853  0.0070  0.1300
  893MOL0     C17793   1.917   7.819  10.247  0.2956  0.3212 -0.7067
  893MOL0     N17794   2.581   8.145  10.267 -0.4646 -0.5140  1.1602
  893MOL0     N17795   2.679   8.210  10.318  0.6916  0.5016 -0.1528
  893MOL0     C17796   3.787   8.620  10.305  0.2837 -0.5679 -0.1008
  893MOL0     C17797   3.916   8.575  10.289  0.4076 -0.7333  0.0867
  893MOL0     C17798   4.339   8.491  10.159 -0.5611  0.1377  0.8710
  893MOL0     C17799   4.406   8.372  10.152  0.4142 -1.4470 -0.3249
  893MOL0     C17800   4.535   8.361  10.101 -0.2899  0.8698 -0.0429
  893MOL0     C17801   4.597   8.474  10.045 -0.4010  0.0093  0.3529
  893MOL0     O17802   4.721   8.469   9.982  0.1294 -1.3479  0.3035
  893MOL0     C17803   4.733   8.404   9.853 -0.3136  0.2529 -0.3161
  893MOL0     C17804   4.786   8.265   9.879 -1.2567 -0.2070  0.1667
  893MOL0     C17805   4.912   8.261   9.969  0.1209  0.1157  0.1385
  893MOL0     C17806   5.042   8.281   9.889 -0.4040  0.2024 -0.1682
  893MOL0     C17807   5.153   8.315   9.977  0.2839  1.1910 -0.0491
  893MOL0     C17808   5.252   8.353  10.038  0.0659 -0.2965  0.3992
  893MOL0     C17809   4.532   8.594  10.051  1.3808  0.5632 -0.2292
  893MOL0     C17810   4.407   8.605  10.116  0.3264  0.3097 -0.4445
  893MOL0     H17811   4.073   8.864  10.215 -1.5812  1.7640 -0.4850
  893MOL0     H17812   3.870   8.958  10.255  3.1120  0.4119 -0.3368
  893MOL0     H17813   3.527   8.651  10.290 -4.8241  0.4354 -0.2626
  893MOL0     H17814   3.529   8.787  10.173 -1.6717  0.5870  1.0428
  893MOL0     H17815   3.389   8.913  10.325 -1.4002 -0.4770 -0.1248
  893MOL0     H17816   3.407   8.801  10.461  1.4129  0.5463 -0.7073
  893MOL0     H17817   3.245   8.765  10.196  0.5933  1.7556  0.0598
  893MOL0     H17818   3.187   8.798  10.360  1.0481  1.0389  0.9270
  893MOL0     H17819   3.317   8.546  10.255  0.9738  3.5395 -1.9846
  893MOL0     H17820   3.273   8.574  10.430  0.6906 -0.2688 -0.7261
  893MOL0     H17821   3.073   8.596  10.203 -0.6339 -0.4389  0.2659
  893MOL0     H17822   3.038   8.609  10.372 -3.2387 -1.6522 -0.9060
  893MOL0     H17823   3.107   8.381  10.422 -0.5740  0.1509  0.7950
  893MOL0     H17824   3.173   8.353  10.261  1.3286  1.1262  0.3193
  893MOL0     H17825   2.878   8.426  10.323 -0.1103  1.3144 -1.3354
  893MOL0     H17826   2.934   8.376  10.166 -1.1284  1.7480  0.3180
  893MOL0     H17827   2.950   8.180  10.404  0.6640  2.6379  0.6013
  893MOL0     H17828   2.999   8.154  10.234 -0.0681  0.5848 -0.1222
  893MOL0     H17829   2.839   8.000  10.129  0.6834  1.0446  0.0935
  893MOL0     H17830   2.597   7.848  10.097 -1.3915 -0.5639  0.0028
  893MOL0     H17831   2.528   7.974  10.008  2.1894  1.3489  0.3047
  893MOL0     H17832   2.362   8.029  10.196 -2.2452 -1.9062  0.4187
  893MOL0     H17833   2.442   7.917  10.298  0.4550  0.7621 -0.2991
  893MOL0     H17834   2.331   7.816  10.025  0.3923  0.9666  0.3793
  893MOL0     H17835   2.368   7.720  10.172 -0.2937 -1.1301 -1.8884
  893MOL0     H17836   2.134   7.774  10.091 -0.5314 -0.1855  1.3263
  893MOL0     H17837   2.152   7.929  10.168 -2.5714 -0.3947  2.5075
  893MOL0     H17838   2.058   7.580  10.444 -0.8355 -3.4571 -3.9933
  893MOL0     H17839   1.820   7.526  10.479  1.5405  1.3411  1.9037
  893MOL0     H17840   1.360   7.768  10.089 -1.0842  0.9195 -0.6698
  893MOL0     H17841   1.127   7.722  10.048  0.5193  2.5193  0.8868
  893MOL0     H17842   0.870   7.584  10.387  0.6837  3.1102 -2.4586
  893MOL0     H17843   0.929   7.427  10.332  0.6903  0.3151  0.1220
  893MOL0     H17844   0.672   7.444  10.297 -2.2267 -1.1253 -2.9640
  893MOL0     H17845   0.761   7.429  10.155 -0.7451 -0.8760  1.3212
  893MOL0     H17846   0.757   7.692  10.130  1.5855 -0.9764  0.2698
  893MOL0     H17847   0.650   7.696  10.270  0.2849  2.1121  0.6329
  893MOL0     H17848   0.543   7.695  10.030 -2.6542 -0.1138 -0.3528
  893MOL0     H17849   0.590   7.525  10.031 -0.5915 -0.5475  0.3681
  893MOL0     H17850   0.415   7.645  10.240 -1.8228 -0.0274 -0.8298
  893MOL0     H17851   0.440   7.473  10.209  0.1113  1.3792  1.5383
  893MOL0     H17852   0.334   7.549   9.968  1.0383 -0.2015  0.6383
  893MOL0     H17853   0.286   7.689  10.070 -0.4895  0.6049  1.1323
  893MOL0     H17854   0.226   7.389  10.110  1.4191  0.2876 -1.7343
  893MOL0     H17855   0.205   7.520  10.230  1.6228 -0.9986  0.8374
  893MOL0     H17856   0.104   7.578   9.960 -1.2587  0.6437 -0.2754
  893MOL0     H17857   0.032   7.615  10.113 -1.9340  0.3263 -0.8538
  893MOL0     H17858   1.116   7.508  10.418  1.5663  0.3128  1.2935
  893MOL0     H17859   1.343   7.564  10.466  0.5495  0.7097 -0.3579
  893MOL0     H17860   1.711   7.832  10.206 -0.0334 -1.5683 -1.3240
  893MOL0     H17861   1.933   7.909  10.188  2.2005  0.8924  0.5858
  893MOL0     H17862   3.715   8.540  10.316  1.4412 -1.8827 -1.5901
  893MOL0     H17863   3.936   8.468  10.283  2.3262 -0.3776 -0.5653
  893MOL0     H17864   4.355   8.283  10.187 -1.1865 -0.3189  0.3228
  893MOL0     H17865   4.601   8.275  10.108  0.6489  1.5383 -0.5114
  893MOL0     H17866   4.795   8.463   9.785  0.8484  0.1886  0.6508
  893MOL0     H17867   4.630   8.399   9.816 -1.3757 -0.9343  2.4943
  893MOL0     H17868   4.710   8.202   9.924 -1.2403 -0.8138 -0.6471
  893MOL0     H17869   4.801   8.221   9.780  1.3342 -1.4996  1.0353
  893MOL0     H17870   4.919   8.165  10.021  1.8366 -0.5757 -1.2583
  893MOL0     H17871   4.902   8.342  10.042  1.2513  0.8616 -0.5016
  893MOL0     H17872   5.071   8.195   9.827  0.1003  0.9815 -1.0609
  893MOL0     H17873   5.022   8.374   9.835  1.3132  1.3409  1.0630
  893MOL0     H17874   5.342   8.370  10.094 -0.8944 -1.4715  2.4179
  893MOL0     H17875   4.572   8.688  10.013  1.1336  1.3559  1.3660
  893MOL0     H17876   4.363   8.704  10.107 -0.0640  0.0658 -1.3755
  894MOL0     O17877   9.141  10.105   4.075  0.5808 -1.0355  0.2517
  894MOL0     C17878   9.160  10.015   4.153  0.1056 -0.1476 -0.0352
  894MOL0     O17879   9.073   9.972   4.253  0.4556 -0.2278 -0.2488
  894MOL0     C17880   8.943  10.008   4.259  0.4293 -0.2071 -0.6131
  894MOL0     C17881   8.873  10.066   4.147 -0.3221  0.1803 -0.4740
  894MOL0     C17882   8.730  10.108   4.158 -0.5798 -0.3317  1.1518
  894MOL0     C17883   8.666  10.095   4.283 -0.6232  1.0148 -0.8173
  894MOL0     O17884   8.528  10.119   4.276 -0.5783 -0.2790  0.0762
  894MOL0     C17885   8.467  10.099   4.403  0.1947  0.5575  0.6057
  894MOL0     C17886   8.328  10.157   4.392 -0.3117  0.5139  0.2763
  894MOL0     C17887   8.223  10.062   4.331  0.8656  0.3173  0.6816
  894MOL0     C17888   8.078  10.117   4.324  0.6279  0.0917 -0.3994
  894MOL0     C17889   8.011  10.115   4.461 -0.4619  0.9700 -0.2616
  894MOL0     C17890   7.868  10.139   4.442  0.2356  0.9248  0.9529
  894MOL0     C17891   7.793  10.112   4.572  0.0411 -0.3572 -0.1483
  894MOL0     C17892   7.636  10.128   4.561 -0.2898  0.1753 -0.2211
  894MOL0     N17893   7.582  10.159   4.684 -0.9508 -0.6993 -0.1624
  894MOL0     C17894   7.565  10.082   4.794 -0.7997 -0.1572  0.1531
  894MOL0     C17895   7.506  10.162   4.890  0.1706  0.1517 -0.3979
  894MOL0     C17896   7.498  10.131   5.043  0.9474 -0.0595  0.7740
  894MOL0     C17897   7.608  10.182   5.131  0.3246 -0.2268  0.0162
  894MOL0     C17898   7.612  10.340   5.134  0.1149 -0.1962 -0.5172
  894MOL0     C17899   7.724  10.416   5.196 -1.1648  0.2211 -0.3804
  894MOL0     O17900   7.726  10.399   5.335  0.1533 -0.1597 -0.5286
  894MOL0     C17901   7.616  10.439   5.411 -0.1100 -0.7030 -0.1202
  894MOL0     C17902   7.585  10.370   5.525  0.7111  0.4042 -0.6150
  894MOL0     C17903   7.468  10.412   5.598 -0.0272 -0.0657  0.3333
  894MOL0     C17904   7.380  10.511   5.557  0.0993  0.0171  0.6960
  894MOL0     C17905   7.262  10.542   5.640 -0.0196  0.5546  0.5842
  894MOL0     O17906   7.230  10.450   5.737 -0.3485  0.9396  0.1360
  894MOL0     C17907   7.115  10.457   5.814  0.0242 -1.1317 -0.2156
  894MOL0     C17908   6.993  10.510   5.773  1.1708  0.1492 -0.5206
  894MOL0     C17909   6.880  10.509   5.854 -0.5513  1.2975  0.1831
  894MOL0     C17910   6.896  10.487   5.988 -0.1108  0.1310  0.2965
  894MOL0     O17911   6.800  10.491   6.081 -0.2199 -0.4934  0.4299
  894MOL0     C17912   6.670  10.542   6.056 -0.1073  0.1561  0.3767
  894MOL0     C17913   6.591  10.546   6.184 -0.9370 -0.4309  0.5072
  894MOL0     C17914   6.494  10.432   6.222 -0.1277  0.5303 -0.8369
  894MOL0     C17915   6.348  10.466   6.190  0.5666 -0.6401 -0.0570
  894MOL0     C17916   6.256  10.350   6.233 -0.9185  0.0719 -0.1903
  894MOL0     C17917   6.105  10.389   6.192  0.4770 -0.1930 -0.2877
  894MOL0     C17918   6.010  10.298   6.258  0.0765  0.1076  0.6581
  894MOL0     C17919   5.868  10.296   6.187 -0.0907 -0.7508 -0.0331
  894MOL0    Cl17920   5.768  10.156   6.243  0.0876 -0.1299  0.4571
  894MOL0     C17921   7.012  10.422   6.032 -0.0607 -0.0443 -0.5086
  894MOL0     C17922   7.123  10.415   5.943  0.6090 -0.1517  0.7606
  894MOL0     O17923   7.194  10.633   5.612 -0.4626  0.9858  0.1283
  894MOL0     C17924   7.417  10.580   5.448  0.7867 -1.0060  0.1444
  894MOL0     C17925   7.536  10.549   5.374  0.3214 -0.0728  0.3989
  894MOL0     N17926   7.488  10.279   4.834  0.2625 -0.4097  0.3152
  894MOL0     N17927   7.521  10.277   4.710 -0.6505  0.5909 -0.9690
  894MOL0     C17928   8.733  10.037   4.398 -0.2299  0.0040  0.2529
  894MOL0     C17929   8.867   9.996   4.378 -0.5482 -0.0502  0.2389
  894MOL0     C17930   9.302   9.961   4.167  0.2515 -0.9276 -0.1203
  894MOL0     C17931   9.339   9.874   4.273  0.5878  0.0467 -0.5276
  894MOL0     C17932   9.469   9.827   4.275 -0.3522 -0.9530 -0.2841
  894MOL0     C17933   9.562   9.857   4.174 -0.6502  0.0815 -0.2991
  894MOL0     O17934   9.688   9.804   4.172  0.6847 -0.3356 -0.3565
  894MOL0     C17935   9.706   9.665   4.196 -0.2059 -0.1821 -0.2506
  894MOL0     C17936   9.852   9.618   4.182 -0.4024 -0.1794  0.1486
  894MOL0     C17937   9.963   9.716   4.223 -0.6445 -1.4726 -0.0198
  894MOL0     C17938   9.986   9.740   4.367  0.7555  0.2893 -0.6571
  894MOL0     C17939  10.119   9.797   4.397 -0.5746 -0.0854  0.6051
  894MOL0     C17940  10.228   9.859   4.401 -0.3747 -0.3101  0.8085
  894MOL0     C17941   9.532   9.952   4.083 -0.3213 -0.0474  1.0215
  894MOL0     C17942   9.399  10.002   4.064 -0.2218  0.6467 -0.5321
  894MOL0     H17943   8.918  10.088   4.050  2.7534  4.4298  1.6006
  894MOL0     H17944   8.680  10.144   4.070  0.5897  1.3493  1.1178
  894MOL0     H17945   8.529  10.160   4.469  1.1428  1.0264 -0.6583
  894MOL0     H17946   8.460   9.992   4.425 -4.6829 -0.1097 -2.5735
  894MOL0     H17947   8.336  10.252   4.338  0.3438  2.4664  3.5629
  894MOL0     H17948   8.293  10.187   4.491 -0.8845 -1.4628  0.7048
  894MOL0     H17949   8.224   9.967   4.387  2.3759  2.2299  4.2821
  894MOL0     H17950   8.251  10.044   4.227 -3.1621 -1.2685 -0.3209
  894MOL0     H17951   8.092  10.219   4.288  1.6137  0.8731  2.0584
  894MOL0     H17952   8.023  10.059   4.249  0.4155  1.5294 -1.3924
  894MOL0     H17953   8.050  10.201   4.517 -0.0178  1.1764 -0.8808
  894MOL0     H17954   8.031  10.027   4.522  0.4569  1.3437  0.0050
  894MOL0     H17955   7.832  10.065   4.370 -0.5662  0.5280  1.7360
  894MOL0     H17956   7.851  10.241   4.407  0.4196  0.3642 -0.9064
  894MOL0     H17957   7.822  10.012   4.604  1.6930 -0.2262 -1.1712
  894MOL0     H17958   7.823  10.173   4.657 -3.3219 -0.8846  1.6135
  894MOL0     H17959   7.592  10.036   4.523 -0.6609  0.3490 -0.2096
  894MOL0     H17960   7.628  10.212   4.490  2.5484 -0.0191 -0.9280
  894MOL0     H17961   7.601   9.980   4.806 -0.1422  0.2991  2.8893
  894MOL0     H17962   7.495  10.022   5.038 -1.0855 -0.0078 -0.7228
  894MOL0     H17963   7.396  10.162   5.070  0.7569  0.3579 -0.3584
  894MOL0     H17964   7.704  10.150   5.090  0.7604 -3.5622  3.1364
  894MOL0     H17965   7.602  10.139   5.231  1.3461  2.4488  1.3247
  894MOL0     H17966   7.606  10.381   5.033 -0.1741  2.8704  0.6578
  894MOL0     H17967   7.519  10.369   5.183  0.5517 -2.3513  1.7841
  894MOL0     H17968   7.717  10.522   5.168  0.0691  0.9143  1.7481
  894MOL0     H17969   7.822  10.388   5.157  1.5948  4.6132  2.5927
  894MOL0     H17970   7.643  10.292   5.572  1.8437  1.2639 -0.5348
  894MOL0     H17971   7.447  10.346   5.682  2.1523 -3.7764 -1.8305
  894MOL0     H17972   6.977  10.540   5.670  2.3382  0.3969 -0.6537
  894MOL0     H17973   6.787  10.546   5.812  0.6044  1.8151 -2.0508
  894MOL0     H17974   6.615  10.474   5.990  2.0722 -0.7869 -0.5793
  894MOL0     H17975   6.670  10.643   6.014 -2.8652  0.0741  0.0108
  894MOL0     H17976   6.527  10.635   6.185  2.2729  2.0969  2.3526
  894MOL0     H17977   6.668  10.544   6.262 -0.7366 -2.5512  0.3143
  894MOL0     H17978   6.502  10.406   6.328  0.5270  1.6052 -0.6144
  894MOL0     H17979   6.511  10.341   6.162  0.5594 -0.4096  0.7218
  894MOL0     H17980   6.312  10.556   6.243 -3.0009 -2.2785  0.6049
  894MOL0     H17981   6.331  10.490   6.085  0.6810 -0.3788 -0.0170
  894MOL0     H17982   6.268  10.343   6.341  0.3810 -0.4030 -0.3431
  894MOL0     H17983   6.280  10.258   6.179  1.7342  0.7432 -0.2900
  894MOL0     H17984   6.104  10.368   6.085 -2.2525  0.5708 -0.4766
  894MOL0     H17985   6.096  10.496   6.212  4.1727  0.5121 -1.4696
  894MOL0     H17986   6.060  10.201   6.254  0.4788  0.3434 -0.7008
  894MOL0     H17987   5.996  10.331   6.361  2.3011  0.1259  0.9958
  894MOL0     H17988   5.882  10.283   6.079  0.2829  0.5839 -0.1584
  894MOL0     H17989   5.815  10.391   6.195  0.7977 -0.2090 -0.3358
  894MOL0     H17990   7.029  10.397   6.137  4.2742 -0.3042 -1.0963
  894MOL0     H17991   7.215  10.365   5.973  0.2091 -1.5713 -0.2831
  894MOL0     H17992   7.351  10.656   5.409  1.3305 -0.4377  0.3102
  894MOL0     H17993   7.565  10.598   5.281  0.9441 -0.7263  0.2331
  894MOL0     H17994   8.687  10.015   4.493  0.9072 -1.5275  0.4807
  894MOL0     H17995   8.919   9.971   4.470  0.0446  0.4292  0.0352
  894MOL0     H17996   9.270   9.836   4.348 -1.0362  1.6449 -1.1636
  894MOL0     H17997   9.495   9.760   4.355  1.5918 -1.1062 -1.0034
  894MOL0     H17998   9.651   9.608   4.121  2.4965 -3.6055  0.1311
  894MOL0     H17999   9.677   9.635   4.297 -3.8601  0.8294 -0.8635
  894MOL0     H18000   9.875   9.525   4.234 -1.2683 -0.4236  0.1025
  894MOL0     H18001   9.864   9.590   4.077  0.3964 -0.2241  0.2422
  894MOL0     H18002   9.951   9.810   4.167  0.3751  0.1129  2.2583
  894MOL0     H18003  10.058   9.674   4.188 -0.0985 -2.0291  2.0035
  894MOL0     H18004   9.915   9.811   4.410  0.8756  0.0487 -0.0526
  894MOL0     H18005   9.985   9.644   4.419 -0.1243  1.5491  1.8109
  894MOL0     H18006  10.324   9.907   4.400 -0.9432  0.9116 -1.3860
  894MOL0     H18007   9.600   9.965   4.000  0.9680 -1.2675  1.8407
  894MOL0     H18008   9.375  10.061   3.977 -2.4290  1.7412  0.7259
  895MOL0     O18009   0.487   9.048   0.544 -0.2309  0.1014 -0.1539
  895MOL0     C18010   0.490   8.949   0.480  0.5912  0.5287 -1.2346
  895MOL0     O18011   0.592   8.901   0.413  0.1489 -0.3776 -0.4138
  895MOL0     C18012   0.701   8.984   0.373  0.7827 -0.3877 -0.7529
  895MOL0     C18013   0.716   9.013   0.238 -0.1074 -0.3430  0.4936
  895MOL0     C18014   0.832   9.087   0.192  0.0301  0.7910 -0.3526
  895MOL0     C18015   0.923   9.127   0.286 -1.3046 -0.2558  0.5231
  895MOL0     O18016   1.035   9.193   0.250 -0.3542 -0.5690  0.0453
  895MOL0     C18017   1.044   9.269   0.130  0.2143 -0.5147 -0.9123
  895MOL0     C18018   1.140   9.386   0.154 -0.0040  0.8037 -0.3205
  895MOL0     C18019   1.148   9.468   0.027  0.6821  0.2909 -0.1438
  895MOL0     C18020   1.248   9.585   0.027 -0.0631 -1.0644  0.3010
  895MOL0     C18021   1.249   9.659  -0.106  0.2808 -0.5345  0.3491
  895MOL0     C18022   1.367   9.754  -0.116 -0.3444 -0.5163  0.2431
  895MOL0     C18023   1.499   9.682  -0.156  0.9458 -0.5616  0.1964
  895MOL0     C18024   1.528   9.715  -0.309  0.1152 -0.2197  0.8659
  895MOL0     N18025   1.420   9.673  -0.404 -0.0795  0.4265 -0.0294
  895MOL0     C18026   1.395   9.549  -0.448  0.7912  0.4042  0.4288
  895MOL0     C18027   1.303   9.567  -0.547 -1.4105  0.6829  0.4556
  895MOL0     C18028   1.232   9.458  -0.631  0.4463 -0.4644 -0.5676
  895MOL0     C18029   1.083   9.436  -0.597 -0.3073 -0.1186 -0.2661
  895MOL0     C18030   1.033   9.298  -0.660 -0.0956 -0.5261 -0.1157
  895MOL0     C18031   1.103   9.170  -0.607 -0.7801 -0.9255  0.1594
  895MOL0     O18032   1.085   9.163  -0.470 -0.2008  0.4320 -0.8916
  895MOL0     C18033   0.954   9.174  -0.422  0.0514  0.0951 -0.3058
  895MOL0     C18034   0.950   9.253  -0.305  0.3792 -0.5016  0.0294
  895MOL0     C18035   0.839   9.257  -0.220  0.7699  0.6858 -0.2583
  895MOL0     C18036   0.724   9.179  -0.257  0.0313 -0.3956 -0.5671
  895MOL0     C18037   0.621   9.154  -0.157 -0.2671 -0.4627  0.2364
  895MOL0     O18038   0.509   9.086  -0.199 -0.0979  0.2172 -0.1702
  895MOL0     C18039   0.396   9.097  -0.118 -0.1458  0.2286  0.4117
  895MOL0     C18040   0.389   9.024  -0.005  0.6245 -1.1144  0.3196
  895MOL0     C18041   0.285   9.045   0.082  0.2887  0.3895  0.5620
  895MOL0     C18042   0.184   9.130   0.055  0.2892 -0.4286  0.5949
  895MOL0     O18043   0.075   9.149   0.138 -0.1933 -0.0145  0.4853
  895MOL0     C18044  -0.004   9.038   0.178  0.7112 -0.5045  0.2594
  895MOL0     C18045  -0.108   9.001   0.071 -0.0834  0.6175 -0.1040
  895MOL0     C18046  -0.203   9.122   0.048 -0.8125 -0.0102  0.0387
  895MOL0     C18047  -0.321   9.087  -0.033  0.3348 -0.2591  0.4828
  895MOL0     C18048  -0.425   9.208  -0.040  0.8500 -0.0719 -0.9437
  895MOL0     C18049  -0.578   9.177  -0.012 -0.8970  0.2684 -0.2200
  895MOL0     C18050  -0.668   9.297  -0.043 -0.0216  0.1074  0.2109
  895MOL0     C18051  -0.671   9.318  -0.202  0.4780 -0.3785 -0.0213
  895MOL0    Cl18052  -0.791   9.443  -0.229 -0.1256 -0.0507  0.0123
  895MOL0     C18053   0.185   9.204  -0.061 -0.3004  0.0774  0.8114
  895MOL0     C18054   0.300   9.193  -0.148 -0.0313 -0.0453  0.0050
  895MOL0     O18055   0.630   9.214  -0.047  0.3258 -0.1650 -0.0574
  895MOL0     C18056   0.733   9.104  -0.377  0.0977  0.0482  0.5503
  895MOL0     C18057   0.838   9.110  -0.461 -0.1551 -1.4034  0.1022
  895MOL0     N18058   1.291   9.705  -0.567  0.8856 -1.1032  0.1560
  895MOL0     N18059   1.369   9.766  -0.485  0.2710 -0.0865  0.5764
  895MOL0     C18060   0.908   9.112   0.422  0.9779  0.8424 -0.3290
  895MOL0     C18061   0.796   9.034   0.463  0.2695  0.2480 -0.6397
  895MOL0     C18062   0.362   8.875   0.489 -0.4371 -0.3711  0.0506
  895MOL0     C18063   0.264   8.919   0.574 -0.4187  0.1791 -0.3711
  895MOL0     C18064   0.137   8.866   0.567 -1.0004 -0.5690  0.5625
  895MOL0     C18065   0.104   8.780   0.463 -0.3124 -0.6143 -0.0242
  895MOL0     O18066  -0.020   8.726   0.449  0.1016 -0.0808 -0.2181
  895MOL0     C18067  -0.031   8.585   0.441 -0.4492  0.1785 -0.1492
  895MOL0     C18068  -0.181   8.558   0.463  0.2186 -0.7584  0.8081
  895MOL0     C18069  -0.271   8.613   0.350  0.5390  0.9898 -0.0834
  895MOL0     C18070  -0.416   8.566   0.365  0.6326  0.2586  0.0413
  895MOL0     C18071  -0.422   8.421   0.365 -0.3050  0.5272 -0.3383
  895MOL0     C18072  -0.430   8.299   0.372 -0.1743  0.3311 -0.4578
  895MOL0     C18073   0.208   8.726   0.384  0.4175 -0.5588  0.2092
  895MOL0     C18074   0.337   8.774   0.392 -0.2588  0.0635  0.5523
  895MOL0     H18075   0.640   8.977   0.170 -0.5515  3.6142 -1.4390
  895MOL0     H18076   0.833   9.111   0.086 -3.1733 -0.1061 -0.6984
  895MOL0     H18077   0.947   9.314   0.109 -1.3201 -2.4445  1.5809
  895MOL0     H18078   1.060   9.204   0.043 -2.7596 -1.2382 -1.0255
  895MOL0     H18079   1.242   9.356   0.180  0.0265  1.9272  0.9494
  895MOL0     H18080   1.094   9.443   0.235  1.4505 -0.6406  1.5964
  895MOL0     H18081   1.049   9.499  -0.008 -0.4742 -3.8169 -1.1054
  895MOL0     H18082   1.182   9.402  -0.053  1.9492 -1.1998  1.5528
  895MOL0     H18083   1.231   9.656   0.109 -0.9243 -0.5688 -0.2871
  895MOL0     H18084   1.351   9.557   0.049 -0.3716 -2.0387  0.5552
  895MOL0     H18085   1.154   9.714  -0.103 -0.9247 -2.3737 -1.5893
  895MOL0     H18086   1.235   9.599  -0.196 -0.8985  0.4033 -0.1249
  895MOL0     H18087   1.383   9.799  -0.018  0.3991  1.2686 -0.6346
  895MOL0     H18088   1.348   9.842  -0.178  0.3952  1.8781  3.1748
  895MOL0     H18089   1.579   9.723  -0.093  0.8515 -1.0814  0.6554
  895MOL0     H18090   1.494   9.573  -0.142 -3.0269 -0.6296 -0.5636
  895MOL0     H18091   1.620   9.661  -0.331 -0.2218 -0.5727  0.2701
  895MOL0     H18092   1.544   9.821  -0.330 -0.9143  0.1129  1.6800
  895MOL0     H18093   1.422   9.451  -0.409 -1.3320 -1.1086 -1.6072
  895MOL0     H18094   1.293   9.367  -0.630 -1.0522 -1.5006 -0.8061
  895MOL0     H18095   1.235   9.491  -0.735 -0.8226 -1.7609 -1.0479
  895MOL0     H18096   1.019   9.514  -0.640  0.9226  0.2131 -1.5625
  895MOL0     H18097   1.069   9.440  -0.489 -4.1631  1.1255 -0.6672
  895MOL0     H18098   0.924   9.297  -0.648 -0.2735  1.0585 -1.3838
  895MOL0     H18099   1.057   9.300  -0.766  3.0040  0.3093  0.4851
  895MOL0     H18100   1.210   9.164  -0.631  0.0128  3.8652  1.4197
  895MOL0     H18101   1.052   9.082  -0.648  0.1087 -0.7832 -1.2962
  895MOL0     H18102   1.045   9.302  -0.285 -0.4819  0.8021  1.1240
  895MOL0     H18103   0.846   9.307  -0.124  0.2845 -2.5840  1.6469
  895MOL0     H18104   0.474   8.963   0.023  2.0888 -0.0255 -1.5644
  895MOL0     H18105   0.288   8.986   0.173  0.1840 -0.2773  0.1407
  895MOL0     H18106  -0.047   9.059   0.276  2.2746 -2.6392  1.4859
  895MOL0     H18107   0.071   8.961   0.198  2.4387  0.9222 -0.3982
  895MOL0     H18108  -0.165   8.913   0.100  0.9427 -0.0666 -0.0958
  895MOL0     H18109  -0.058   8.967  -0.020 -1.2426  0.1468 -0.5798
  895MOL0     H18110  -0.139   9.200   0.005 -1.4296  0.3020 -0.3190
  895MOL0     H18111  -0.227   9.150   0.151 -2.4391 -1.6840  0.1709
  895MOL0     H18112  -0.291   9.071  -0.138 -3.3204 -0.5522 -0.6344
  895MOL0     H18113  -0.373   8.995  -0.005  0.1761 -0.5384 -0.6568
  895MOL0     H18114  -0.420   9.255  -0.139 -0.5949  0.1064 -0.9640
  895MOL0     H18115  -0.395   9.285   0.032 -0.2032 -0.3275 -0.1947
  895MOL0     H18116  -0.592   9.156   0.094 -0.0078 -1.2481 -0.3787
  895MOL0     H18117  -0.606   9.090  -0.072 -2.2045  0.7322 -0.3035
  895MOL0     H18118  -0.769   9.273  -0.009 -0.1353 -1.2844 -1.0224
  895MOL0     H18119  -0.629   9.385   0.008 -3.4943  0.2951  2.8867
  895MOL0     H18120  -0.696   9.231  -0.263 -2.0629 -0.3281  0.8463
  895MOL0     H18121  -0.574   9.353  -0.240 -1.3098  3.2383 -1.7605
  895MOL0     H18122   0.102   9.269  -0.087 -0.3545  0.8659  2.7336
  895MOL0     H18123   0.319   9.243  -0.242  0.1818 -0.8811 -0.4100
  895MOL0     H18124   0.651   9.042  -0.412 -1.2808  2.1783 -0.1830
  895MOL0     H18125   0.845   9.034  -0.538  1.3103 -2.5729  1.3067
  895MOL0     H18126   0.970   9.162   0.495  0.2369 -1.0019  1.6564
  895MOL0     H18127   0.780   9.027   0.570  3.0900  0.5504 -0.1344
  895MOL0     H18128   0.283   8.985   0.658  0.2177 -1.2453  0.6667
  895MOL0     H18129   0.051   8.897   0.625 -0.1876  1.8035  0.5823
  895MOL0     H18130   0.034   8.531   0.510 -2.6593 -1.3113  0.9033
  895MOL0     H18131  -0.011   8.555   0.338 -1.6793 -0.9244 -0.0941
  895MOL0     H18132  -0.200   8.452   0.480 -1.8008 -0.2155  2.4840
  895MOL0     H18133  -0.206   8.611   0.556  1.4787  1.2265  0.0650
  895MOL0     H18134  -0.235   8.572   0.255 -0.2986 -0.5389  0.2271
  895MOL0     H18135  -0.261   8.722   0.350  0.8032  1.0429 -3.0814
  895MOL0     H18136  -0.457   8.610   0.457  1.3513  1.5838 -0.2497
  895MOL0     H18137  -0.481   8.606   0.286 -2.3993 -0.2200  2.1316
  895MOL0     H18138  -0.445   8.193   0.364 -3.0216  0.6504 -0.3409
  895MOL0     H18139   0.188   8.665   0.297  0.6851 -0.5008  0.1068
  895MOL0     H18140   0.404   8.746   0.312 -1.3420  2.8359 -1.4757
  896MOL0     O18141   4.733   3.663  11.111 -0.0913 -0.0129  0.0706
  896MOL0     C18142   4.736   3.737  11.213 -0.7254 -0.2108  0.1396
  896MOL0     O18143   4.630   3.794  11.283  0.1414 -0.0119  0.1236
  896MOL0     C18144   4.500   3.772  11.235  0.1133  0.3207 -0.7826
  896MOL0     C18145   4.456   3.638  11.240 -0.0634 -0.5278 -0.2423
  896MOL0     C18146   4.324   3.606  11.196 -0.8354 -0.0521 -0.4364
  896MOL0     C18147   4.238   3.709  11.160  0.5710  0.5089 -0.5325
  896MOL0     O18148   4.102   3.688  11.129 -0.5701  0.0982  0.4556
  896MOL0     C18149   4.050   3.553  11.138  0.2636 -0.0035 -0.0177
  896MOL0     C18150   3.907   3.540  11.080  0.3526 -0.5208  0.3375
  896MOL0     C18151   3.899   3.590  10.931 -0.1132  0.1592 -0.6701
  896MOL0     C18152   3.752   3.579  10.890 -0.1984 -0.9476 -0.7477
  896MOL0     C18153   3.727   3.603  10.747 -0.4236 -0.8612 -0.0496
  896MOL0     C18154   3.790   3.493  10.652  0.6193  0.6113  0.5562
  896MOL0     C18155   3.744   3.508  10.502 -0.3324  0.3313 -0.1334
  896MOL0     C18156   3.768   3.643  10.441  0.3809 -0.5072  0.0268
  896MOL0     N18157   3.910   3.668  10.439 -0.3919 -0.0069  0.1643
  896MOL0     C18158   3.965   3.792  10.469  0.0397 -0.6749 -0.2687
  896MOL0     C18159   4.098   3.779  10.458 -0.6925 -0.8788  0.3460
  896MOL0     C18160   4.204   3.884  10.497 -0.0620  1.4463 -0.3602
  896MOL0     C18161   4.347   3.833  10.475  0.0885  0.0573  1.0174
  896MOL0     C18162   4.443   3.934  10.534 -0.4853  0.2131 -0.1679
  896MOL0     C18163   4.591   3.886  10.532  0.2648  0.4725  0.3359
  896MOL0     O18164   4.600   3.805  10.651 -0.0191 -0.2787 -0.0289
  896MOL0     C18165   4.718   3.740  10.678  0.6952 -0.2629 -0.0687
  896MOL0     C18166   4.720   3.660  10.790  0.8481 -0.0030  0.0124
  896MOL0     C18167   4.831   3.588  10.818  0.2738 -0.2560  0.6543
  896MOL0     C18168   4.951   3.601  10.746  0.2003 -0.0161 -0.5634
  896MOL0     C18169   5.065   3.524  10.783  0.2118 -0.7867  0.2748
  896MOL0     O18170   5.168   3.531  10.707  0.2857  0.6712  0.6040
  896MOL0     C18171   5.281   3.461  10.741 -0.7943 -0.0358  0.4265
  896MOL0     C18172   5.290   3.321  10.769  0.1070 -0.1899 -0.3882
  896MOL0     C18173   5.413   3.257  10.790  0.8798  0.1917  0.1941
  896MOL0     C18174   5.534   3.337  10.790  0.5442  0.4712 -0.3534
  896MOL0     O18175   5.654   3.280  10.829  0.3968 -0.2105  0.7709
  896MOL0     C18176   5.672   3.145  10.880 -0.4217  0.3737  0.0965
  896MOL0     C18177   5.821   3.123  10.881  0.1979  1.3647  0.2265
  896MOL0     C18178   5.859   2.977  10.922  0.3040  0.0220  0.2196
  896MOL0     C18179   6.012   2.968  10.947  1.1227  0.2195  0.8385
  896MOL0     C18180   6.046   2.825  10.994  0.4062  0.4443 -0.2246
  896MOL0     C18181   6.191   2.808  11.033 -0.7023  0.0839 -0.4650
  896MOL0     C18182   6.230   2.659  11.070 -0.4311 -0.1016  0.0181
  896MOL0     C18183   6.380   2.648  11.107 -0.6432  0.7110  0.1594
  896MOL0    Cl18184   6.414   2.465  11.106  0.3118  0.1761  0.2307
  896MOL0     C18185   5.525   3.470  10.772 -0.6055 -0.1608  0.0505
  896MOL0     C18186   5.399   3.531  10.734 -0.2271  0.6995  0.1399
  896MOL0     O18187   5.051   3.457  10.887 -0.4676 -0.4242  0.5209
  896MOL0     C18188   4.950   3.685  10.632 -0.9995  0.4688 -0.2594
  896MOL0     C18189   4.831   3.753  10.599 -0.1435  0.0014  0.3039
  896MOL0     N18190   4.125   3.651  10.419  0.4321 -0.4727 -0.4028
  896MOL0     N18191   4.012   3.586  10.397 -0.1721 -0.4013 -0.5147
  896MOL0     C18192   4.282   3.839  11.162  0.1582  0.3746 -1.0662
  896MOL0     C18193   4.411   3.870  11.207 -0.6751 -0.3999  0.1314
  896MOL0     C18194   4.872   3.756  11.270  0.6575  0.2283 -0.4173
  896MOL0     C18195   4.889   3.819  11.401  0.1352  0.0314 -0.4400
  896MOL0     C18196   5.016   3.826  11.458  0.7384  0.0309  0.2579
  896MOL0     C18197   5.132   3.792  11.384  1.2310 -0.5126  0.7693
  896MOL0     O18198   5.260   3.816  11.423  0.3196 -0.3162 -0.9615
  896MOL0     C18199   5.284   3.900  11.541  0.2850  0.5759  0.0871
  896MOL0     C18200   5.432   3.928  11.561  0.4358 -0.4075 -0.1904
  896MOL0     C18201   5.492   3.794  11.610 -0.0560 -0.1075  0.1890
  896MOL0     C18202   5.648   3.789  11.615  0.9800  0.2496  0.3986
  896MOL0     C18203   5.710   3.911  11.672  0.3749 -0.3163 -0.3560
  896MOL0     C18204   5.770   4.007  11.710  0.6257  0.1149  0.2115
  896MOL0     C18205   5.115   3.731  11.268  0.5310  0.4947  1.0303
  896MOL0     C18206   4.990   3.704  11.211 -0.4752  0.2813 -0.0934
  896MOL0     H18207   4.528   3.564  11.272  0.9695  0.1182 -1.0218
  896MOL0     H18208   4.296   3.501  11.198 -0.9439 -0.0169  0.3616
  896MOL0     H18209   4.058   3.524  11.243  2.4670  0.4827  0.0026
  896MOL0     H18210   4.114   3.486  11.080 -0.4425 -0.4005 -0.3565
  896MOL0     H18211   3.836   3.593  11.144  0.5499  0.5209 -0.2849
  896MOL0     H18212   3.870   3.437  11.085 -1.2884 -0.0906 -1.7782
  896MOL0     H18213   3.975   3.542  10.868  1.9956  0.7487  1.2807
  896MOL0     H18214   3.924   3.696  10.939  1.0635 -0.2129  0.9396
  896MOL0     H18215   3.719   3.479  10.919  0.9807 -1.1638 -0.0919
  896MOL0     H18216   3.697   3.653  10.948  0.4228 -0.9250 -0.1774
  896MOL0     H18217   3.765   3.702  10.720 -0.9493 -0.9140 -1.0660
  896MOL0     H18218   3.618   3.598  10.737 -0.5961  0.4551  0.9681
  896MOL0     H18219   3.774   3.391  10.687  3.0664  0.1009  0.3475
  896MOL0     H18220   3.899   3.505  10.648  0.7638 -0.7565 -1.7230
  896MOL0     H18221   3.808   3.439  10.446 -0.8390 -0.6991  0.5211
  896MOL0     H18222   3.637   3.486  10.509 -0.5738  1.2136 -0.8438
  896MOL0     H18223   3.718   3.721  10.499  3.1543 -0.2923  2.3413
  896MOL0     H18224   3.725   3.651  10.341  0.0409 -1.5011  0.0840
  896MOL0     H18225   3.926   3.886  10.506 -3.1869 -2.0281  0.0928
  896MOL0     H18226   4.192   3.916  10.601 -1.4818 -0.7519  0.2107
  896MOL0     H18227   4.204   3.972  10.431  0.3291  1.3417 -0.5008
  896MOL0     H18228   4.370   3.821  10.369 -1.2889  1.3800  0.5343
  896MOL0     H18229   4.361   3.740  10.531 -0.8250  2.2547  5.2959
  896MOL0     H18230   4.437   4.021  10.468  0.4251 -0.8472 -1.7190
  896MOL0     H18231   4.414   3.967  10.634 -1.7705 -1.4200  0.0517
  896MOL0     H18232   4.652   3.976  10.529  1.6827 -0.4419  0.5450
  896MOL0     H18233   4.613   3.829  10.441  0.9790  0.1457  0.7007
  896MOL0     H18234   4.637   3.642  10.858 -0.7123  0.5754 -1.6477
  896MOL0     H18235   4.832   3.536  10.914 -2.7337 -1.7893  0.0063
  896MOL0     H18236   5.196   3.266  10.772 -0.5016  0.8263  1.8761
  896MOL0     H18237   5.410   3.149  10.806 -2.3768 -0.1841 -1.9893
  896MOL0     H18238   5.628   3.066  10.819  0.7691  2.2788 -3.5204
  896MOL0     H18239   5.637   3.138  10.983  0.0503  1.3251  0.3306
  896MOL0     H18240   5.869   3.180  10.960  1.4276  0.7125 -0.0318
  896MOL0     H18241   5.869   3.152  10.787 -1.7176  1.7164 -0.6964
  896MOL0     H18242   5.829   2.908  10.843  1.7851 -1.5510  0.9615
  896MOL0     H18243   5.793   2.948  11.004 -2.6950  2.2568 -1.2150
  896MOL0     H18244   6.056   2.992  10.850 -0.9336  3.4798  0.5613
  896MOL0     H18245   6.042   3.048  11.015  1.0456  2.2529 -1.4005
  896MOL0     H18246   6.025   2.745  10.922  0.6045 -0.1094  0.3221
  896MOL0     H18247   5.987   2.802  11.083  0.0926  1.9532 -0.0185
  896MOL0     H18248   6.209   2.883  11.111  3.6051  2.5207 -3.3664
  896MOL0     H18249   6.255   2.832  10.948  0.8254 -0.0320  0.6064
  896MOL0     H18250   6.167   2.623  11.152 -0.3528 -0.2073  0.0319
  896MOL0     H18251   6.224   2.596  10.981  0.6159  1.1990 -1.0220
  896MOL0     H18252   6.408   2.680  11.208  0.9298 -3.9181  1.4498
  896MOL0     H18253   6.446   2.693  11.033  0.3727 -2.1014 -0.8014
  896MOL0     H18254   5.615   3.529  10.757 -1.4316  0.8484 -1.2049
  896MOL0     H18255   5.396   3.633  10.698 -0.2135  0.6937  0.1219
  896MOL0     H18256   5.039   3.692  10.570 -0.0896 -2.3157  0.6229
  896MOL0     H18257   4.816   3.793  10.500 -0.2509  0.3765  0.4713
  896MOL0     H18258   4.220   3.923  11.134 -0.2718  0.4083 -0.0608
  896MOL0     H18259   4.445   3.972  11.221 -0.4998 -0.4385 -0.0168
  896MOL0     H18260   4.808   3.852  11.465  2.4938  1.0529  2.2379
  896MOL0     H18261   5.026   3.874  11.555  1.8098  0.2811  0.0401
  896MOL0     H18262   5.238   3.858  11.631  0.6921  0.2304  0.1358
  896MOL0     H18263   5.249   4.002  11.525 -1.2228  0.2817  1.2474
  896MOL0     H18264   5.488   3.968  11.476  2.2331  0.6916  1.4343
  896MOL0     H18265   5.439   4.000  11.643 -2.9261 -0.0333 -0.0783
  896MOL0     H18266   5.465   3.708  11.549 -1.8762  0.7707 -0.3132
  896MOL0     H18267   5.459   3.783  11.714 -1.4853  1.3300 -0.0879
  896MOL0     H18268   5.668   3.698  11.671  1.0784 -0.4605 -0.7566
  896MOL0     H18269   5.693   3.763  11.519  0.8442 -0.4648  0.5197
  896MOL0     H18270   5.807   4.097  11.754 -1.8581  1.0756  0.4876
  896MOL0     H18271   5.203   3.698  11.214  0.3828  2.0259 -0.2075
  896MOL0     H18272   4.983   3.655  11.114  0.4694 -1.7029  0.7827
  897MOL0     O18273   4.477   5.577   9.773  0.1601 -1.1281  0.3695
  897MOL0     C18274   4.549   5.543   9.868 -0.4456 -0.0652 -0.2555
  897MOL0     O18275   4.512   5.485   9.980  0.1277  0.2691 -0.6848
  897MOL0     C18276   4.381   5.447   9.984 -0.7494  0.0364  0.0011
  897MOL0     C18277   4.289   5.534  10.050  0.5507  0.7308  0.1773
  897MOL0     C18278   4.153   5.496  10.057 -0.3060 -0.6410 -0.2257
  897MOL0     C18279   4.110   5.374  10.003  0.4877  0.6003  0.1102
  897MOL0     O18280   3.983   5.326  10.025  0.3651 -0.6952 -0.3200
  897MOL0     C18281   3.879   5.369   9.938 -0.4557  0.0905  0.0570
  897MOL0     C18282   3.754   5.423  10.008  0.3088 -0.1631  0.8413
  897MOL0     C18283   3.787   5.562  10.063  0.9674  0.2886 -0.6024
  897MOL0     C18284   3.651   5.616  10.123 -0.0909  0.0185 -0.6820
  897MOL0     C18285   3.661   5.759  10.201  0.1417  0.2184  0.5246
  897MOL0     C18286   3.714   5.874  10.100 -0.2115  1.8319 -0.0464
  897MOL0     C18287   3.609   5.901   9.990  0.2964  0.5736 -0.0138
  897MOL0     C18288   3.656   5.999   9.892  0.2157 -0.3710  0.3459
  897MOL0     N18289   3.570   6.013   9.776  0.1117  0.0777 -0.1366
  897MOL0     C18290   3.561   5.921   9.669 -0.3760  0.0828 -0.2537
  897MOL0     C18291   3.520   5.995   9.565 -0.3457  0.5397  0.8433
  897MOL0     C18292   3.502   5.953   9.422 -0.0768  0.5900  0.5522
  897MOL0     C18293   3.612   5.852   9.378  0.7060 -0.1102  0.1453
  897MOL0     C18294   3.753   5.905   9.334  0.0962  0.2997  0.2491
  897MOL0     C18295   3.846   5.792   9.288  0.0979 -0.0398  0.8999
  897MOL0     O18296   3.954   5.850   9.206  0.4449 -1.1575  0.1446
  897MOL0     C18297   4.073   5.893   9.261 -0.6064 -0.7046 -0.0355
  897MOL0     C18298   4.167   5.919   9.160 -0.5319  0.4094 -0.0068
  897MOL0     C18299   4.304   5.953   9.190  1.0545  0.2127  0.2157
  897MOL0     C18300   4.340   5.968   9.326 -0.4595  0.6384 -0.3490
  897MOL0     C18301   4.481   6.007   9.351 -0.5845 -0.0318  0.2158
  897MOL0     O18302   4.529   5.997   9.473  0.2502 -0.0677 -0.8848
  897MOL0     C18303   4.660   6.035   9.517  0.7759 -0.0050 -0.1769
  897MOL0     C18304   4.675   6.077   9.648  0.5571 -0.0117  0.3196
  897MOL0     C18305   4.794   6.109   9.705 -0.1104 -0.6774 -0.4633
  897MOL0     C18306   4.911   6.088   9.638 -0.2055 -0.6311 -0.1752
  897MOL0     O18307   5.031   6.101   9.706 -0.3497 -0.7048  0.3415
  897MOL0     C18308   5.157   6.114   9.630 -0.1486 -0.4244  0.2138
  897MOL0     C18309   5.261   6.184   9.726 -0.4284  0.7068  0.2807
  897MOL0     C18310   5.408   6.185   9.686 -0.6672 -0.7054  0.4753
  897MOL0     C18311   5.469   6.043   9.671 -0.5444 -0.7860 -0.0971
  897MOL0     C18312   5.611   6.024   9.742  0.6054  0.2547 -0.0328
  897MOL0     C18313   5.730   6.041   9.647  0.0024 -0.5914 -0.5640
  897MOL0     C18314   5.855   5.968   9.686 -0.5090 -0.5373 -0.0993
  897MOL0     C18315   5.978   5.988   9.603  0.0474  0.2606  0.8535
  897MOL0    Cl18316   6.049   6.153   9.606 -0.1892 -0.4694  0.0547
  897MOL0     C18317   4.901   6.043   9.507  0.4585 -0.8162  0.5253
  897MOL0     C18318   4.779   6.020   9.446 -0.6977  0.0655  0.0125
  897MOL0     O18319   4.557   6.038   9.258 -0.4277 -0.1177 -0.3105
  897MOL0     C18320   4.252   5.934   9.429 -0.1946 -0.6995  0.8662
  897MOL0     C18321   4.111   5.888   9.397 -0.8050 -0.2880 -0.0003
  897MOL0     N18322   3.498   6.123   9.615  0.3049 -0.0235 -0.5741
  897MOL0     N18323   3.531   6.133   9.738  0.0929 -0.3427 -0.5614
  897MOL0     C18324   4.195   5.292   9.949 -0.7287  0.2159  0.0970
  897MOL0     C18325   4.331   5.329   9.925 -0.3414  0.6047  0.0881
  897MOL0     C18326   4.696   5.584   9.860 -0.4644  0.1434  0.2815
  897MOL0     C18327   4.795   5.487   9.896  0.1549 -0.4817  0.3938
  897MOL0     C18328   4.928   5.522   9.883  0.5588  0.0138  0.1554
  897MOL0     C18329   4.974   5.647   9.852 -0.2910 -0.3750  0.9111
  897MOL0     O18330   5.105   5.677   9.864 -0.2895 -0.1649 -0.7232
  897MOL0     C18331   5.136   5.813   9.892 -0.4882 -0.8812  0.2307
  897MOL0     C18332   5.270   5.834   9.968 -0.2625  0.1669 -0.8318
  897MOL0     C18333   5.268   5.760  10.098 -0.0064 -0.2883 -0.0365
  897MOL0     C18334   5.306   5.614  10.103  0.3679 -0.2574 -0.4601
  897MOL0     C18335   5.448   5.588  10.056 -0.5562  0.3223  1.0089
  897MOL0     C18336   5.565   5.566  10.037 -0.7719  0.1954 -0.5172
  897MOL0     C18337   4.880   5.728   9.787 -0.0117 -0.3806 -0.6599
  897MOL0     C18338   4.749   5.693   9.790  0.3013 -0.3491  0.1273
  897MOL0     H18339   4.317   5.635  10.080  1.2368  0.6070 -0.0272
  897MOL0     H18340   4.092   5.568  10.111  2.7778  0.8465  1.5899
  897MOL0     H18341   3.864   5.290   9.863  2.2831  1.2210 -1.8650
  897MOL0     H18342   3.922   5.448   9.876 -0.4639 -0.7466 -1.0526
  897MOL0     H18343   3.712   5.350  10.078  0.7614 -1.5174 -0.2669
  897MOL0     H18344   3.680   5.434   9.928  0.1345 -0.5554  0.9425
  897MOL0     H18345   3.827   5.622   9.981 -3.1734 -0.7062 -3.6961
  897MOL0     H18346   3.859   5.554  10.145  2.1732 -1.4492 -1.7739
  897MOL0     H18347   3.577   5.620  10.043 -1.0220  2.3470  0.2228
  897MOL0     H18348   3.613   5.538  10.190  0.3895  1.8488  1.8466
  897MOL0     H18349   3.737   5.748  10.279  2.1301 -1.9948 -1.5603
  897MOL0     H18350   3.561   5.783  10.238 -0.3927 -1.0069 -0.0807
  897MOL0     H18351   3.809   5.849  10.053  0.2875  1.6060  1.0590
  897MOL0     H18352   3.734   5.966  10.154  2.3285  0.6600  1.1363
  897MOL0     H18353   3.593   5.813   9.927  0.3911  2.0531 -2.1875
  897MOL0     H18354   3.514   5.938  10.030  0.0476 -1.3006  1.2707
  897MOL0     H18355   3.758   5.976   9.858  1.2159  1.3536  1.9830
  897MOL0     H18356   3.658   6.092   9.950 -1.3152  0.7336 -1.2741
  897MOL0     H18357   3.595   5.818   9.658  0.0217  0.0673  1.0366
  897MOL0     H18358   3.508   6.041   9.357 -0.2586  1.1249  1.2483
  897MOL0     H18359   3.404   5.906   9.420  0.3528 -0.3404  1.0324
  897MOL0     H18360   3.582   5.816   9.279  2.8348 -1.3924 -0.1201
  897MOL0     H18361   3.615   5.760   9.437  0.0400 -0.9285 -1.0462
  897MOL0     H18362   3.745   5.960   9.239 -0.1853 -0.2787 -0.0717
  897MOL0     H18363   3.795   5.968   9.412 -0.2086  1.1780 -0.2679
  897MOL0     H18364   3.786   5.725   9.227 -1.0905  0.4792  1.4729
  897MOL0     H18365   3.879   5.744   9.381  2.5499  1.3500  0.8426
  897MOL0     H18366   4.145   5.906   9.055 -1.1339 -1.9704  0.3721
  897MOL0     H18367   4.381   5.960   9.114 -0.1524  0.9695 -0.9916
  897MOL0     H18368   4.584   6.098   9.702  1.2695 -0.3700  1.6892
  897MOL0     H18369   4.790   6.155   9.803 -2.6403  0.5730 -1.0436
  897MOL0     H18370   5.138   6.178   9.544  2.7757  2.1076  1.2667
  897MOL0     H18371   5.199   6.017   9.603  1.2831  0.4646 -0.9069
  897MOL0     H18372   5.248   6.136   9.823 -1.1505  1.2106  0.4385
  897MOL0     H18373   5.220   6.282   9.751 -0.1835  0.0995  3.4102
  897MOL0     H18374   5.465   6.247   9.756 -0.8344  0.4181 -0.3618
  897MOL0     H18375   5.418   6.232   9.588  0.2520  1.2591  1.4411
  897MOL0     H18376   5.393   5.982   9.720  0.9354  0.6784  4.6404
  897MOL0     H18377   5.484   6.033   9.564 -2.8296  2.3542 -0.8425
  897MOL0     H18378   5.602   5.920   9.776 -3.6874 -0.3427 -2.2641
  897MOL0     H18379   5.623   6.091   9.828  2.9621  0.3619 -0.3715
  897MOL0     H18380   5.751   6.148   9.652  2.2622 -0.9575 -1.0550
  897MOL0     H18381   5.706   6.016   9.543  0.6207 -1.3631 -0.5308
  897MOL0     H18382   5.868   6.002   9.790 -1.8937  2.9347 -0.9249
  897MOL0     H18383   5.834   5.861   9.680  0.8526 -0.7709 -1.4982
  897MOL0     H18384   5.949   5.981   9.498 -0.0692 -0.9596  0.9602
  897MOL0     H18385   6.052   5.914   9.633 -0.9603 -1.8024 -1.4269
  897MOL0     H18386   4.995   6.036   9.454  0.0604  0.4209 -0.3963
  897MOL0     H18387   4.798   5.980   9.347  2.8824 -0.7936  0.9179
  897MOL0     H18388   4.291   5.947   9.530  0.6276 -0.2466  0.4954
  897MOL0     H18389   4.033   5.860   9.467 -2.8567 -0.0754 -2.0728
  897MOL0     H18390   4.164   5.194   9.915  0.2702 -0.1558  0.2475
  897MOL0     H18391   4.385   5.263   9.859 -0.3592 -0.5359  1.1860
  897MOL0     H18392   4.762   5.396   9.945  0.3568 -1.6973 -1.6633
  897MOL0     H18393   4.997   5.451   9.927 -0.7401 -0.9592  0.6850
  897MOL0     H18394   5.058   5.869   9.943 -0.1825  0.7077 -0.9778
  897MOL0     H18395   5.140   5.862   9.794 -0.9890 -3.5950 -1.2563
  897MOL0     H18396   5.349   5.782   9.913 -1.0598 -1.9193 -0.1100
  897MOL0     H18397   5.299   5.939   9.977  0.0621 -0.0681  1.7997
  897MOL0     H18398   5.175   5.783  10.150  0.6375 -3.4424  2.9301
  897MOL0     H18399   5.341   5.815  10.158  0.5671  0.5780 -1.4845
  897MOL0     H18400   5.299   5.578  10.206  2.4501 -2.7146 -1.0756
  897MOL0     H18401   5.253   5.544  10.038 -1.3984  0.2522  0.3756
  897MOL0     H18402   5.671   5.554  10.032 -0.2153  0.7141  4.6917
  897MOL0     H18403   4.908   5.817   9.732  0.0096  0.8626  1.2689
  897MOL0     H18404   4.679   5.752   9.731 -0.0375 -0.7048  0.1733
  898MOL0     O18405   4.375   9.517   8.676  0.7206 -0.6073  0.1250
  898MOL0     C18406   4.443   9.547   8.767  0.0149  0.1348 -1.0729
  898MOL0     O18407   4.399   9.588   8.894  0.5706  0.3820 -0.4766
  898MOL0     C18408   4.261   9.599   8.906 -0.3698 -0.4165 -0.7346
  898MOL0     C18409   4.192   9.698   8.832  0.3767 -0.2326 -0.1879
  898MOL0     C18410   4.048   9.704   8.837 -0.0700  1.0057  0.7366
  898MOL0     C18411   3.987   9.627   8.933 -0.1517 -0.0404  0.7090
  898MOL0     O18412   3.854   9.662   8.947 -0.3566  0.0165 -0.4581
  898MOL0     C18413   3.768   9.591   9.049 -0.6992 -0.4197  0.3502
  898MOL0     C18414   3.623   9.602   9.006 -0.1188 -0.0844 -0.2953
  898MOL0     C18415   3.537   9.524   9.113 -0.4532 -0.7617  0.8743
  898MOL0     C18416   3.399   9.530   9.069 -0.3690  0.2762  0.2712
  898MOL0     C18417   3.319   9.658   9.110 -0.8169  0.1598  0.1005
  898MOL0     C18418   3.169   9.649   9.087  0.2540  0.3296  0.5995
  898MOL0     C18419   3.096   9.784   9.093 -0.2643  0.0510  0.0793
  898MOL0     C18420   3.090   9.843   9.236 -0.8943 -0.2522  0.5522
  898MOL0     N18421   3.004   9.967   9.232  0.0404  0.0402 -0.8291
  898MOL0     C18422   2.868   9.962   9.257  0.8310 -0.7953  0.1278
  898MOL0     C18423   2.836  10.096   9.272  0.0687  0.5935  0.1223
  898MOL0     C18424   2.707  10.155   9.294  0.1469  0.3827  0.4857
  898MOL0     C18425   2.618  10.158   9.170 -0.5999 -0.5953  0.2931
  898MOL0     C18426   2.493  10.257   9.194 -0.3971  0.5314 -0.9880
  898MOL0     C18427   2.438  10.257   9.341  1.0549  0.3654 -0.2179
  898MOL0     O18428   2.328  10.342   9.355 -0.0013 -0.6758  0.3229
  898MOL0     C18429   2.289  10.358   9.490 -0.1792 -0.1234  0.6032
  898MOL0     C18430   2.210  10.468   9.511  0.1742  0.2829 -0.5002
  898MOL0     C18431   2.177  10.505   9.644 -0.3880 -0.0775  0.0821
  898MOL0     C18432   2.222  10.432   9.754  0.6365  0.1046  0.8244
  898MOL0     C18433   2.181  10.480   9.890  0.9210 -0.3038 -0.1595
  898MOL0     O18434   2.094  10.593   9.894 -0.5568 -0.4508  0.5157
  898MOL0     C18435   2.032  10.630  10.008 -0.0972  0.4617 -0.3633
  898MOL0     C18436   2.106  10.676  10.119 -0.7683  0.0382  0.5138
  898MOL0     C18437   2.052  10.746  10.238 -0.4515  0.6893  0.0166
  898MOL0     C18438   1.923  10.757  10.253 -0.3739 -1.0767 -0.3150
  898MOL0     O18439   1.879  10.836  10.355  0.0822  0.3445 -0.7384
  898MOL0     C18440   1.777  10.922  10.326 -0.4179 -0.2785 -0.5626
  898MOL0     C18441   1.785  11.024  10.432  1.0988 -0.5841  0.8703
  898MOL0     C18442   1.675  11.125  10.409  0.8303  0.2945  0.0918
  898MOL0     C18443   1.523  11.075  10.428 -0.6646  0.0318 -0.4671
  898MOL0     C18444   1.426  11.197  10.423  0.1896 -0.9961  0.2083
  898MOL0     C18445   1.436  11.286  10.543  0.9181 -0.0238  0.3673
  898MOL0     C18446   1.317  11.375  10.558 -0.3929 -0.2625 -0.2181
  898MOL0     C18447   1.336  11.478  10.668  0.2319  0.4281 -0.1675
  898MOL0    Cl18448   1.356  11.400  10.831 -0.3357  0.4890  0.0745
  898MOL0     C18449   1.845  10.693  10.152 -0.3217  0.1036  0.2229
  898MOL0     C18450   1.895  10.636  10.030 -0.1720 -0.6982  0.1789
  898MOL0     O18451   2.232  10.420   9.986  0.3492 -0.3013 -0.2542
  898MOL0     C18452   2.294  10.309   9.729  0.0587  0.0235  0.2808
  898MOL0     C18453   2.327  10.279   9.598  0.7393  0.6264 -0.1324
  898MOL0     N18454   2.945  10.177   9.244  0.1494  0.1036 -0.1522
  898MOL0     N18455   3.046  10.096   9.227 -0.2732  0.6617 -0.2443
  898MOL0     C18456   4.057   9.551   9.022  1.0080  0.1183 -0.1894
  898MOL0     C18457   4.195   9.531   9.009 -0.7374  0.2826 -0.0581
  898MOL0     C18458   4.588   9.550   8.747  0.1644 -0.5294 -0.1810
  898MOL0     C18459   4.641   9.473   8.647 -0.7148 -0.1560  0.3363
  898MOL0     C18460   4.784   9.458   8.626 -0.0885 -0.5622 -0.3004
  898MOL0     C18461   4.878   9.536   8.700  0.0303 -0.0237 -0.5062
  898MOL0     O18462   5.016   9.531   8.673 -0.0900  0.4972  0.3009
  898MOL0     C18463   5.074   9.662   8.669  0.3238  0.2310  0.0704
  898MOL0     C18464   5.185   9.672   8.566  0.1250 -0.0104 -0.1950
  898MOL0     C18465   5.126   9.614   8.427  0.3926  0.1883 -0.0695
  898MOL0     C18466   5.200   9.658   8.310  0.0113  0.2320  0.8381
  898MOL0     C18467   5.141   9.574   8.198 -0.3798 -0.0259 -0.5265
  898MOL0     C18468   5.099   9.497   8.116 -0.1580 -0.6980  0.1611
  898MOL0     C18469   4.824   9.623   8.797  0.1236 -1.7145  0.5656
  898MOL0     C18470   4.680   9.631   8.815  0.1479  0.1931 -0.4309
  898MOL0     H18471   4.234   9.765   8.758  1.7621 -2.0410 -1.1076
  898MOL0     H18472   3.992   9.776   8.778  1.1215 -0.9653 -3.2085
  898MOL0     H18473   3.798   9.614   9.152 -1.8398  0.5007  0.4935
  898MOL0     H18474   3.789   9.485   9.037  0.0661 -0.1227 -1.2325
  898MOL0     H18475   3.612   9.553   8.909  0.9559 -0.4677 -0.2391
  898MOL0     H18476   3.590   9.707   8.999 -0.6802 -0.2272  0.1177
  898MOL0     H18477   3.558   9.578   9.206  3.9017  0.0886 -0.3548
  898MOL0     H18478   3.571   9.420   9.119  0.6912 -0.5192 -0.5771
  898MOL0     H18479   3.387   9.504   8.964  2.6571 -2.2019  0.3831
  898MOL0     H18480   3.351   9.445   9.119 -0.8614  0.1249 -0.4607
  898MOL0     H18481   3.360   9.748   9.064 -0.8807  0.9940  1.6020
  898MOL0     H18482   3.336   9.668   9.218 -1.0159 -0.2939  0.1777
  898MOL0     H18483   3.126   9.585   9.164  0.0992  3.3652  3.2270
  898MOL0     H18484   3.146   9.599   8.992  1.6195 -0.0548  0.4501
  898MOL0     H18485   3.149   9.856   9.031 -0.1729 -1.6298 -1.8680
  898MOL0     H18486   2.994   9.775   9.054  0.3702  1.1851 -2.0315
  898MOL0     H18487   3.189   9.870   9.274 -2.1132 -0.8891  4.7715
  898MOL0     H18488   3.048   9.764   9.299  2.3988 -0.9283  2.1162
  898MOL0     H18489   2.802   9.877   9.270 -0.3695 -0.2667 -2.0184
  898MOL0     H18490   2.730  10.255   9.333  0.2258  0.1246  1.1020
  898MOL0     H18491   2.660  10.099   9.374  2.0580 -2.5377 -0.2905
  898MOL0     H18492   2.592  10.054   9.146  0.4993 -0.8252  0.0457
  898MOL0     H18493   2.675  10.200   9.087 -1.3453  0.2175  0.1806
  898MOL0     H18494   2.516  10.362   9.172 -1.2688  1.0235  0.2992
  898MOL0     H18495   2.400  10.241   9.139 -1.7761  3.1926  0.3814
  898MOL0     H18496   2.517  10.287   9.411  0.7715 -2.5373  1.5581
  898MOL0     H18497   2.424  10.153   9.374  1.0485  0.6775  0.7912
  898MOL0     H18498   2.171  10.526   9.428 -0.5593  2.4652  1.2723
  898MOL0     H18499   2.118  10.595   9.662 -0.0947 -0.0720  1.0315
  898MOL0     H18500   2.212  10.674  10.097 -0.9392 -1.5604 -0.2747
  898MOL0     H18501   2.117  10.792  10.311 -0.6755  0.5448  0.3073
  898MOL0     H18502   1.680  10.872  10.317  0.0821 -0.8730 -3.8384
  898MOL0     H18503   1.794  10.975  10.232  0.4896 -2.8959 -1.9742
  898MOL0     H18504   1.880  11.078  10.426  0.4855  0.4242 -0.3268
  898MOL0     H18505   1.767  10.986  10.533 -1.1585 -1.0052  0.3736
  898MOL0     H18506   1.683  11.165  10.307  1.3890 -2.2590 -0.9472
  898MOL0     H18507   1.692  11.206  10.481 -1.8757  1.4348 -0.4241
  898MOL0     H18508   1.495  11.007  10.348  0.3372  0.9627 -1.6469
  898MOL0     H18509   1.513  11.011  10.517 -1.3940  2.4591  1.3185
  898MOL0     H18510   1.328  11.151  10.405  0.0944 -0.4201 -0.8529
  898MOL0     H18511   1.451  11.256  10.334 -2.1143 -0.7456 -0.3540
  898MOL0     H18512   1.524  11.350  10.541  0.4249  0.7348  1.4226
  898MOL0     H18513   1.431  11.210  10.622 -1.1214 -3.2890 -2.6415
  898MOL0     H18514   1.295  11.430  10.466  0.6640  3.5476  1.6227
  898MOL0     H18515   1.226  11.317  10.577 -0.1725 -0.9901 -1.2513
  898MOL0     H18516   1.251  11.547  10.674 -0.2418 -0.2705  1.4963
  898MOL0     H18517   1.426  11.539  10.653 -0.2155  1.2030  0.2381
  898MOL0     H18518   1.738  10.699  10.170  0.0737  0.4249  2.9942
  898MOL0     H18519   1.829  10.613   9.947  0.3307 -0.9994 -0.1388
  898MOL0     H18520   2.321  10.233   9.802  0.6625 -0.0749 -0.0391
  898MOL0     H18521   2.381  10.185   9.590 -1.5947 -0.7215 -1.0807
  898MOL0     H18522   4.003   9.506   9.105  2.1306 -1.4653 -0.2853
  898MOL0     H18523   4.255   9.470   9.076 -1.2998 -2.4048 -1.8447
  898MOL0     H18524   4.577   9.417   8.578 -0.0191  1.0881 -1.3908
  898MOL0     H18525   4.828   9.397   8.548  2.1978  2.3095 -1.4315
  898MOL0     H18526   5.110   9.691   8.768 -0.3407 -1.0825  0.7239
  898MOL0     H18527   4.993   9.733   8.649 -1.4296 -0.6142  3.4086
  898MOL0     H18528   5.223   9.773   8.553 -0.8914  0.6303  1.5373
  898MOL0     H18529   5.271   9.611   8.596  1.4515  1.6142 -0.5367
  898MOL0     H18530   5.024   9.651   8.416 -0.0850 -1.1027 -0.1866
  898MOL0     H18531   5.105   9.506   8.423 -1.7011  0.5744 -0.9709
  898MOL0     H18532   5.179   9.764   8.291 -2.0892  0.0474  1.7890
  898MOL0     H18533   5.306   9.643   8.334 -0.4042 -2.2635  1.3756
  898MOL0     H18534   5.059   9.431   8.042 -0.1343 -1.5284  0.8605
  898MOL0     H18535   4.876   9.698   8.856 -2.5778  1.5476 -0.8769
  898MOL0     H18536   4.638   9.706   8.881  1.1012  0.7043 -0.3932
  899MOL0     O18537   9.323   0.089  11.110  0.0470 -0.3879 -0.2749
  899MOL0     C18538   9.425   0.144  11.072 -0.3555 -0.2757  0.3035
  899MOL0     O18539   9.435   0.269  11.015  0.6875 -0.4399  0.1413
  899MOL0     C18540   9.319   0.352  10.994  0.2517 -0.3836 -0.0083
  899MOL0     C18541   9.176   0.330  10.998 -0.7391  0.8902 -0.1191
  899MOL0     C18542   9.081   0.429  10.978  0.1607  0.7556 -0.2848
  899MOL0     C18543   9.124   0.562  10.947  0.5004  0.1390 -1.1485
  899MOL0     O18544   9.037   0.668  10.927 -0.1967  0.0681  1.1523
  899MOL0     C18545   8.894   0.645  10.927 -0.1022  0.0500 -0.3398
  899MOL0     C18546   8.829   0.769  10.875 -0.3901  0.2016 -0.7644
  899MOL0     C18547   8.863   0.813  10.736 -0.1333  1.3648 -0.2008
  899MOL0     C18548   8.807   0.953  10.709 -0.3861 -0.3938 -0.5253
  899MOL0     C18549   8.833   1.007  10.563 -0.2585 -0.1303  0.5647
  899MOL0     C18550   8.774   0.917  10.454 -0.0711  0.0845 -0.8150
  899MOL0     C18551   8.626   0.911  10.466 -0.3202 -0.1838  0.5757
  899MOL0     C18552   8.554   0.843  10.342  0.6393  0.3486  0.6924
  899MOL0     N18553   8.407   0.831  10.361 -0.8416  0.7293  0.9365
  899MOL0     C18554   8.325   0.750  10.282  1.2546  0.7408 -0.3063
  899MOL0     C18555   8.207   0.747  10.343  0.1542  0.2353 -0.6954
  899MOL0     C18556   8.087   0.670  10.307  0.0475  0.0995  0.2920
  899MOL0     C18557   7.969   0.705  10.406 -1.0341 -0.0475 -0.2282
  899MOL0     C18558   7.841   0.611  10.395 -0.7396 -0.8753  0.0927
  899MOL0     C18559   7.767   0.639  10.269  0.4942  0.6958  0.2573
  899MOL0     O18560   7.651   0.544  10.243 -0.4281 -0.7390 -0.0078
  899MOL0     C18561   7.524   0.571  10.294  0.5659  0.6614  0.5393
  899MOL0     C18562   7.470   0.703  10.306 -0.0369  0.2624  0.4663
  899MOL0     C18563   7.338   0.721  10.352 -0.9634 -0.2732  1.0608
  899MOL0     C18564   7.257   0.607  10.361 -0.0942 -0.4111 -0.6340
  899MOL0     C18565   7.120   0.629  10.407  0.2083 -0.5909 -0.0378
  899MOL0     O18566   7.065   0.533  10.490 -0.5717 -0.0610 -0.3871
  899MOL0     C18567   6.932   0.559  10.520 -0.1593 -0.5833  0.0335
  899MOL0     C18568   6.906   0.625  10.640 -0.3060  0.2117 -0.8000
  899MOL0     C18569   6.778   0.646  10.679 -0.4807  0.0946  0.1616
  899MOL0     C18570   6.676   0.591  10.589 -0.7384  0.7137 -0.0934
  899MOL0     O18571   6.537   0.610  10.605  0.6248  0.2110 -0.2651
  899MOL0     C18572   6.479   0.577  10.737  0.1499 -0.4632  0.3569
  899MOL0     C18573   6.448   0.707  10.814 -1.0912 -0.7345  0.3885
  899MOL0     C18574   6.365   0.808  10.752  0.6629 -0.2072  0.0832
  899MOL0     C18575   6.222   0.770  10.719  0.4292  0.7219  0.6883
  899MOL0     C18576   6.167   0.871  10.613 -0.4782  1.2398 -0.0619
  899MOL0     C18577   6.130   1.005  10.677 -0.1840 -0.1566  0.2138
  899MOL0     C18578   6.113   1.110  10.567  0.0435  0.3974 -0.6237
  899MOL0     C18579   6.083   1.248  10.637  0.5441 -0.3850  0.0009
  899MOL0    Cl18580   5.960   1.224  10.774  0.2191  0.1293  0.1776
  899MOL0     C18581   6.709   0.532  10.470 -0.3888  0.1643  0.6985
  899MOL0     C18582   6.834   0.520  10.430 -0.4587 -0.9249 -0.3382
  899MOL0     O18583   7.057   0.723  10.359  0.6253  0.5160  0.0664
  899MOL0     C18584   7.308   0.479  10.347  0.3943  0.2862 -0.2653
  899MOL0     C18585   7.435   0.458  10.317 -0.5090  0.2302  0.1025
  899MOL0     N18586   8.219   0.815  10.459 -0.5052 -0.5472 -1.1318
  899MOL0     N18587   8.335   0.865  10.468 -0.5505  0.5043  0.8423
  899MOL0     C18588   9.263   0.586  10.937 -0.4115  0.7774 -0.0966
  899MOL0     C18589   9.359   0.481  10.958  0.5056  0.0305 -0.1030
  899MOL0     C18590   9.545   0.059  11.068 -0.1180  0.3140  0.3487
  899MOL0     C18591   9.663   0.108  11.013 -0.4870 -1.2106 -0.0130
  899MOL0     C18592   9.782   0.042  11.018 -0.8030 -0.2067 -0.1842
  899MOL0     C18593   9.791  -0.081  11.090 -0.8232 -0.4914 -0.7940
  899MOL0     O18594   9.903  -0.163  11.093 -0.7244 -0.3094  0.1873
  899MOL0     C18595  10.003  -0.125  10.995  0.2606  0.2955  0.0251
  899MOL0     C18596  10.128  -0.219  11.007 -0.0994 -0.8479  0.1188
  899MOL0     C18597  10.192  -0.194  11.142 -0.8950  0.6084  0.8240
  899MOL0     C18598  10.264  -0.321  11.203  0.1020  0.8013 -0.0509
  899MOL0     C18599  10.360  -0.268  11.296 -0.0907 -0.2124 -0.1456
  899MOL0     C18600  10.441  -0.228  11.381 -0.1405 -0.1977 -0.6719
  899MOL0     C18601   9.678  -0.126  11.152 -0.4392  0.5127 -0.0019
  899MOL0     C18602   9.559  -0.054  11.142  0.6663 -0.3639  0.8879
  899MOL0     H18603   9.140   0.230  11.023 -0.3455  1.3346  2.5490
  899MOL0     H18604   8.976   0.412  11.002  0.6721  1.5043  2.9185
  899MOL0     H18605   8.862   0.624  11.029 -2.0842 -0.2791 -0.9697
  899MOL0     H18606   8.870   0.563  10.858  0.5685 -0.6833  0.2926
  899MOL0     H18607   8.856   0.848  10.947 -2.8679 -0.0421  0.5358
  899MOL0     H18608   8.721   0.754  10.873 -0.2634 -1.3575  1.0811
  899MOL0     H18609   8.822   0.742  10.664  1.1992  0.1801  0.1689
  899MOL0     H18610   8.972   0.802  10.729 -0.0577  0.0981  2.1210
  899MOL0     H18611   8.702   0.948  10.737 -0.0047 -2.7324  0.7462
  899MOL0     H18612   8.852   1.031  10.772 -0.8651 -1.0364  0.6412
  899MOL0     H18613   8.941   1.016  10.547  0.3480  1.6520  4.5153
  899MOL0     H18614   8.791   1.105  10.538 -2.0445 -0.5183  1.9177
  899MOL0     H18615   8.803   0.813  10.472 -1.3786 -0.6406 -2.6019
  899MOL0     H18616   8.814   0.954  10.359 -1.5791 -1.4817 -2.1343
  899MOL0     H18617   8.605   0.850  10.554  3.8278 -2.2834  0.3817
  899MOL0     H18618   8.592   1.015  10.472 -2.9979 -0.3416 -5.1826
  899MOL0     H18619   8.602   0.745  10.335  1.2355  0.7417 -3.0019
  899MOL0     H18620   8.570   0.895  10.247 -1.4671 -0.1351  0.0225
  899MOL0     H18621   8.361   0.710  10.188  1.4559  2.0820 -0.8297
  899MOL0     H18622   8.104   0.562  10.312  0.1836 -0.1795 -3.4903
  899MOL0     H18623   8.061   0.681  10.202 -0.7555 -0.7115  0.3956
  899MOL0     H18624   7.937   0.810  10.396 -0.1026  0.2419 -0.2573
  899MOL0     H18625   8.004   0.689  10.509 -0.3909  5.3042  0.6741
  899MOL0     H18626   7.876   0.508  10.403  0.3997 -0.6931 -1.9036
  899MOL0     H18627   7.774   0.622  10.481  0.4888 -1.7072  1.1905
  899MOL0     H18628   7.846   0.627  10.194  1.4229  2.1485  0.9531
  899MOL0     H18629   7.743   0.746  10.270 -0.4055  0.5176 -0.6215
  899MOL0     H18630   7.533   0.788  10.284  1.9161 -0.9594  1.1017
  899MOL0     H18631   7.305   0.821  10.378  2.6044  1.7273 -1.2148
  899MOL0     H18632   6.989   0.664  10.697  1.0293 -1.1467 -1.7314
  899MOL0     H18633   6.767   0.703  10.770 -1.1888  2.0294 -1.0717
  899MOL0     H18634   6.546   0.510  10.792 -0.0345 -1.5554 -0.6836
  899MOL0     H18635   6.383   0.528  10.715 -0.9888  2.7506 -2.8483
  899MOL0     H18636   6.543   0.747  10.848  0.1999 -3.1720 -0.1043
  899MOL0     H18637   6.398   0.680  10.908  0.5439  2.2177  2.2666
  899MOL0     H18638   6.418   0.848  10.665  0.8157  1.0607  0.7293
  899MOL0     H18639   6.347   0.890  10.823 -1.2078  0.6992 -1.3601
  899MOL0     H18640   6.214   0.677  10.661 -1.1731 -0.3577  2.5399
  899MOL0     H18641   6.163   0.756  10.810  0.7095  0.6782  0.8628
  899MOL0     H18642   6.076   0.824  10.575  1.1133 -1.0168 -1.2860
  899MOL0     H18643   6.245   0.884  10.536 -0.7600 -0.9472 -0.7708
  899MOL0     H18644   6.208   1.031  10.750  2.3783  0.2406 -2.4868
  899MOL0     H18645   6.039   0.997  10.736  1.3700 -0.7052  2.7156
  899MOL0     H18646   6.183   1.120  10.484 -0.8139 -1.9224 -1.7072
  899MOL0     H18647   6.024   1.074  10.515  0.2716  0.9091 -1.3778
  899MOL0     H18648   6.038   1.314  10.562  0.9935  2.8120  2.3262
  899MOL0     H18649   6.171   1.294  10.683  0.4626  0.4978 -0.6828
  899MOL0     H18650   6.626   0.514  10.402  0.1963 -0.0745  0.0252
  899MOL0     H18651   6.859   0.470  10.338  0.4688 -0.2466 -0.4653
  899MOL0     H18652   7.234   0.400  10.356  0.8281 -0.0516  0.4299
  899MOL0     H18653   7.462   0.353  10.315 -2.2620 -0.2599  0.4747
  899MOL0     H18654   9.308   0.678  10.903 -1.4782  1.5074  0.4080
  899MOL0     H18655   9.466   0.499  10.946  0.6471 -0.7970 -0.0988
  899MOL0     H18656   9.650   0.206  10.970 -2.5738 -0.8282  1.3732
  899MOL0     H18657   9.873   0.091  10.986 -0.7377  0.9707  1.6637
  899MOL0     H18658  10.044  -0.025  11.013 -2.9051  1.6175  0.4922
  899MOL0     H18659   9.959  -0.132  10.895  0.7134 -0.0166 -0.1588
  899MOL0     H18660  10.096  -0.321  10.982 -0.3578 -0.2862 -2.0982
  899MOL0     H18661  10.189  -0.181  10.924 -1.5414 -3.2600 -2.2269
  899MOL0     H18662  10.118  -0.164  11.217 -2.9762 -1.3939 -0.2842
  899MOL0     H18663  10.266  -0.117  11.121  1.0669 -2.0722 -3.8091
  899MOL0     H18664  10.198  -0.386  11.260  1.0538 -0.2376 -0.1052
  899MOL0     H18665  10.319  -0.374  11.125 -0.3086  2.6600 -1.6892
  899MOL0     H18666  10.503  -0.204  11.465 -2.0528 -2.1874  1.4456
  899MOL0     H18667   9.680  -0.221  11.205  3.8254  0.0036 -0.6480
  899MOL0     H18668   9.473  -0.102  11.188 -0.3150  1.6110  1.2203
  900MOL0     O18669   8.122   1.815   7.417  0.3447 -0.0130 -0.2640
  900MOL0     C18670   8.092   1.880   7.520  0.5441 -0.1981 -0.0068
  900MOL0     O18671   7.971   1.876   7.584 -0.2053  0.5087 -0.3349
  900MOL0     C18672   7.853   1.841   7.516 -0.3820  0.4123 -0.1481
  900MOL0     C18673   7.794   1.720   7.562 -0.2686 -0.4228  0.6070
  900MOL0     C18674   7.672   1.685   7.500 -0.1320 -0.3830  0.4359
  900MOL0     C18675   7.610   1.762   7.395  0.0216 -0.8317 -0.5815
  900MOL0     O18676   7.510   1.721   7.314  0.5257 -0.2319 -0.0925
  900MOL0     C18677   7.447   1.598   7.347  0.1369  0.6198 -0.1825
  900MOL0     C18678   7.346   1.557   7.230 -0.1952 -0.1883  0.1331
  900MOL0     C18679   7.308   1.410   7.262 -0.2275  0.7215 -0.5349
  900MOL0     C18680   7.189   1.350   7.182  0.2191 -0.6565 -0.8689
  900MOL0     C18681   7.078   1.443   7.171 -0.2841  0.3065  0.0337
  900MOL0     C18682   6.958   1.373   7.102  0.0844 -0.1844 -0.5587
  900MOL0     C18683   6.839   1.468   7.089  1.0266  0.4483 -0.0609
  900MOL0     C18684   6.709   1.392   7.057  0.5703  0.0549 -0.1511
  900MOL0     N18685   6.590   1.476   7.058  0.0120 -0.5781 -0.2670
  900MOL0     C18686   6.576   1.603   6.998 -0.8972  0.4424  0.3826
  900MOL0     C18687   6.450   1.651   7.041  0.2779  0.1674  0.2838
  900MOL0     C18688   6.390   1.778   6.993  1.5249  0.2494  0.3983
  900MOL0     C18689   6.244   1.762   6.939  0.2475  0.3765  0.8396
  900MOL0     C18690   6.142   1.698   7.036 -1.0785  0.4041  0.9895
  900MOL0     C18691   5.995   1.721   6.999  0.8126 -0.3414  0.7151
  900MOL0     O18692   5.983   1.684   6.856  0.6941  0.5018 -0.3625
  900MOL0     C18693   5.855   1.673   6.804 -0.0013 -0.5032 -0.6534
  900MOL0     C18694   5.765   1.574   6.849  0.8608  0.2781  0.1302
  900MOL0     C18695   5.632   1.575   6.796  0.0425  0.8434 -0.0953
  900MOL0     C18696   5.586   1.661   6.692 -0.1056 -0.0037 -0.0739
  900MOL0     C18697   5.453   1.640   6.617 -0.2252 -0.2707  0.0136
  900MOL0     O18698   5.378   1.528   6.652 -0.9230  0.1605 -0.1518
  900MOL0     C18699   5.262   1.498   6.588  0.4223 -0.0247 -0.8926
  900MOL0     C18700   5.264   1.442   6.466 -0.0145 -0.0124  0.4536
  900MOL0     C18701   5.152   1.437   6.379 -0.4336  0.3400  0.7236
  900MOL0     C18702   5.028   1.474   6.425  0.2467 -0.4036 -0.3699
  900MOL0     O18703   4.925   1.456   6.335 -0.0083  0.4048  0.2013
  900MOL0     C18704   4.792   1.507   6.357  0.8913  0.4212 -0.2070
  900MOL0     C18705   4.685   1.391   6.359  0.1436  0.2953 -0.7541
  900MOL0     C18706   4.677   1.300   6.235 -0.5684 -0.4298  0.6912
  900MOL0     C18707   4.565   1.190   6.255  0.0395  0.1798 -0.1297
  900MOL0     C18708   4.564   1.090   6.147 -1.2084  0.4772  0.3442
  900MOL0     C18709   4.693   1.007   6.140 -0.0659  0.2453 -0.2525
  900MOL0     C18710   4.685   0.892   6.043 -0.2837  0.0214 -0.9374
  900MOL0     C18711   4.819   0.833   6.011  0.6826 -0.5409  0.0584
  900MOL0    Cl18712   4.802   0.720   5.879  0.3977  0.1610  0.1025
  900MOL0     C18713   5.021   1.538   6.552 -0.1407  0.5174 -0.2912
  900MOL0     C18714   5.135   1.548   6.632 -0.0170  0.0292  0.4701
  900MOL0     O18715   5.417   1.729   6.537  0.4224  0.1388 -0.6940
  900MOL0     C18716   5.682   1.750   6.647  0.5397 -0.3778  0.1854
  900MOL0     C18717   5.809   1.760   6.701  0.6958 -0.1441  0.1608
  900MOL0     N18718   6.403   1.566   7.137 -0.6273  1.0814 -0.1311
  900MOL0     N18719   6.478   1.466   7.135 -0.3189  0.4039  0.4697
  900MOL0     C18720   7.670   1.888   7.366 -0.1123 -0.5755  0.1428
  900MOL0     C18721   7.794   1.929   7.422  0.8478  0.6288 -0.2332
  900MOL0     C18722   8.199   1.964   7.580 -0.1720  0.4497  0.2164
  900MOL0     C18723   8.173   2.034   7.696  0.0421  0.4739 -0.3642
  900MOL0     C18724   8.269   2.124   7.738 -0.7892  0.3898  0.4474
  900MOL0     C18725   8.390   2.139   7.673 -0.9817  0.0330  0.1179
  900MOL0     O18726   8.488   2.227   7.721  0.6099  0.3336  0.0652
  900MOL0     C18727   8.467   2.365   7.717  0.2199 -0.5678 -0.4427
  900MOL0     C18728   8.582   2.438   7.656 -0.8803 -0.3883 -0.3803
  900MOL0     C18729   8.705   2.426   7.748  0.1179 -0.4966 -0.5285
  900MOL0     C18730   8.705   2.538   7.852 -0.3039  0.2987 -0.5799
  900MOL0     C18731   8.791   2.645   7.802 -0.0062  0.6816 -0.2159
  900MOL0     C18732   8.864   2.728   7.757  0.0662  0.7206  0.5612
  900MOL0     C18733   8.422   2.055   7.567 -0.3699 -0.2950  0.8033
  900MOL0     C18734   8.326   1.961   7.519  0.6631  0.3773 -0.8538
  900MOL0     H18735   7.834   1.654   7.639  1.8496 -1.9208 -1.6406
  900MOL0     H18736   7.616   1.601   7.542 -2.2599  0.7695  0.0099
  900MOL0     H18737   7.387   1.607   7.438 -3.0828  2.2473 -2.2902
  900MOL0     H18738   7.518   1.516   7.363 -0.1644  0.3945  0.0360
  900MOL0     H18739   7.393   1.544   7.132  1.9181 -0.6870  1.1479
  900MOL0     H18740   7.265   1.631   7.233  1.7630  2.0611  1.6877
  900MOL0     H18741   7.290   1.399   7.370  2.3834 -0.5725 -0.1716
  900MOL0     H18742   7.395   1.351   7.234  0.6513 -0.3041  3.6694
  900MOL0     H18743   7.224   1.322   7.082  0.6888 -2.0919 -0.3281
  900MOL0     H18744   7.156   1.261   7.237 -2.1289  1.9789  2.4226
  900MOL0     H18745   7.092   1.535   7.114 -2.9712  1.4805  1.0708
  900MOL0     H18746   7.054   1.470   7.275 -1.1515 -4.1082  1.2078
  900MOL0     H18747   6.922   1.284   7.154 -1.9780 -0.3682 -2.1856
  900MOL0     H18748   6.976   1.339   6.999  0.6887  1.5187 -1.0475
  900MOL0     H18749   6.826   1.530   7.178  0.9670 -0.5854  0.6662
  900MOL0     H18750   6.865   1.537   7.008  0.7140  1.3962  0.6222
  900MOL0     H18751   6.698   1.318   7.136 -0.2075 -0.6700 -0.9133
  900MOL0     H18752   6.718   1.351   6.956 -1.3823  0.8532 -0.6849
  900MOL0     H18753   6.640   1.662   6.933  0.1277 -1.7297 -0.6888
  900MOL0     H18754   6.437   1.807   6.898 -1.5815  0.0216 -1.3575
  900MOL0     H18755   6.393   1.854   7.072  0.4550  4.3211 -3.0675
  900MOL0     H18756   6.246   1.699   6.850 -0.0063 -2.2668  2.6002
  900MOL0     H18757   6.207   1.861   6.912 -3.8437 -1.0061  0.7169
  900MOL0     H18758   6.169   1.595   7.059  1.7138  1.0439  0.8846
  900MOL0     H18759   6.145   1.749   7.133 -1.2596  1.6912  0.3503
  900MOL0     H18760   5.964   1.824   7.019 -2.3422 -1.4546  2.0878
  900MOL0     H18761   5.928   1.662   7.063 -3.8084  2.1597 -1.3502
  900MOL0     H18762   5.798   1.504   6.925  1.2121  0.1644 -0.1223
  900MOL0     H18763   5.564   1.493   6.818  1.6546 -0.1311  1.5388
  900MOL0     H18764   5.360   1.411   6.428 -0.0698 -1.0988  1.1608
  900MOL0     H18765   5.170   1.398   6.280 -1.2702 -1.4451  1.2264
  900MOL0     H18766   4.770   1.580   6.279 -0.4744  0.9358  0.6147
  900MOL0     H18767   4.775   1.562   6.450 -4.5096 -0.1698 -0.5019
  900MOL0     H18768   4.588   1.436   6.381  1.2242  1.7009  1.4966
  900MOL0     H18769   4.711   1.325   6.443  0.7891 -0.4412 -1.5170
  900MOL0     H18770   4.773   1.251   6.216 -0.3360  0.1076  0.4248
  900MOL0     H18771   4.655   1.361   6.147  0.8677  0.3748  0.8554
  900MOL0     H18772   4.573   1.146   6.355 -2.9121 -1.2328 -0.4240
  900MOL0     H18773   4.467   1.238   6.262  0.6459  1.2803  2.1690
  900MOL0     H18774   4.536   1.142   6.054  0.0476 -1.0846 -0.9724
  900MOL0     H18775   4.485   1.017   6.167 -1.1035 -0.2078 -1.5047
  900MOL0     H18776   4.722   0.982   6.242 -1.4913  2.0072  0.6290
  900MOL0     H18777   4.774   1.072   6.107  0.3592  1.1886  2.4115
  900MOL0     H18778   4.613   0.814   6.070 -0.6289 -0.1490 -2.2722
  900MOL0     H18779   4.651   0.930   5.946 -3.5949 -1.3375 -0.4300
  900MOL0     H18780   4.864   0.789   6.100  1.3321 -0.0624 -0.0187
  900MOL0     H18781   4.895   0.909   5.988  2.0441 -1.4519  1.3767
  900MOL0     H18782   4.924   1.568   6.590 -0.9207  0.2977 -2.0088
  900MOL0     H18783   5.134   1.597   6.729  1.6517  1.8098 -0.3431
  900MOL0     H18784   5.656   1.823   6.571 -0.3739  1.0332  1.7573
  900MOL0     H18785   5.871   1.839   6.661 -0.5652  0.9081  0.2209
  900MOL0     H18786   7.639   1.937   7.274 -0.8376  0.3647  0.8701
  900MOL0     H18787   7.852   2.014   7.388  1.7531  1.6023  3.3182
  900MOL0     H18788   8.073   2.039   7.738 -0.1113  0.3688 -0.7145
  900MOL0     H18789   8.252   2.189   7.823  1.1322 -0.1180  1.2836
  900MOL0     H18790   8.448   2.391   7.822 -1.2403 -2.4300 -0.2039
  900MOL0     H18791   8.380   2.391   7.656  1.4815 -2.1999 -3.1119
  900MOL0     H18792   8.597   2.404   7.553  1.6303  1.0498 -0.5661
  900MOL0     H18793   8.567   2.546   7.648 -0.9594 -0.4091 -0.5197
  900MOL0     H18794   8.797   2.426   7.690  1.6659  0.6769  1.7767
  900MOL0     H18795   8.703   2.335   7.810  0.3027  0.7758  1.4430
  900MOL0     H18796   8.603   2.569   7.879  0.2628  1.3510  0.4320
  900MOL0     H18797   8.748   2.499   7.945 -0.6652  0.5640 -0.2970
  900MOL0     H18798   8.925   2.788   7.692 -1.7281 -1.5732 -3.5930
  900MOL0     H18799   8.518   2.058   7.517  0.1872  0.5871  1.8794
  900MOL0     H18800   8.354   1.898   7.435 -3.3123 -1.0648 -1.2996
  901MOL0     O18801   9.424   5.008   7.827  0.3467 -0.4611  0.6917
  901MOL0     C18802   9.354   5.080   7.897 -0.1015 -0.7831  0.2376
  901MOL0     O18803   9.277   5.030   7.997  0.7218 -0.2478  0.1148
  901MOL0     C18804   9.306   4.897   8.022 -0.7581  0.2083 -0.5506
  901MOL0     C18805   9.389   4.867   8.128  0.5121  0.1677 -0.0016
  901MOL0     C18806   9.399   4.727   8.146  0.2229  0.5402  1.1254
  901MOL0     C18807   9.310   4.630   8.091 -0.1593  0.5943  0.1277
  901MOL0     O18808   9.307   4.503   8.147  0.2579 -0.5660 -0.0104
  901MOL0     C18809   9.329   4.391   8.053 -0.0627 -0.2932  0.2560
  901MOL0     C18810   9.288   4.250   8.125  0.4354 -0.5178 -0.2260
  901MOL0     C18811   9.354   4.127   8.059 -0.8456  0.1948 -0.3354
  901MOL0     C18812   9.298   4.095   7.919  0.9186 -0.3450  0.3070
  901MOL0     C18813   9.342   3.965   7.841 -0.9884  0.2046 -0.0415
  901MOL0     C18814   9.261   3.956   7.714  0.2925 -0.2156  0.4256
  901MOL0     C18815   9.317   3.843   7.626 -0.4214 -0.9111 -0.7226
  901MOL0     C18816   9.264   3.856   7.488 -0.2344  0.0374  0.6369
  901MOL0     N18817   9.120   3.818   7.481 -0.7958  0.1484  0.1975
  901MOL0     C18818   9.070   3.693   7.512  0.0715 -0.3108 -0.3103
  901MOL0     C18819   8.934   3.717   7.516 -0.5430  0.0846 -0.2227
  901MOL0     C18820   8.828   3.617   7.547  0.1761 -0.0069 -0.0050
  901MOL0     C18821   8.730   3.605   7.428 -0.0815 -0.6006  0.1597
  901MOL0     C18822   8.625   3.723   7.422  0.0792 -0.5547  0.9782
  901MOL0     C18823   8.508   3.684   7.325  0.6574 -0.0614  0.5722
  901MOL0     O18824   8.448   3.567   7.388  0.0088 -0.5467 -0.4587
  901MOL0     C18825   8.317   3.572   7.409 -0.1210  0.4169  0.2764
  901MOL0     C18826   8.255   3.453   7.386  0.1319  0.2786 -0.4307
  901MOL0     C18827   8.114   3.445   7.366 -0.7170 -0.5202 -0.4416
  901MOL0     C18828   8.037   3.550   7.415  0.3471 -0.2807  1.0228
  901MOL0     C18829   7.894   3.534   7.433  0.4560  0.2671  0.0906
  901MOL0     O18830   7.827   3.626   7.510  0.3406 -0.0006 -0.4260
  901MOL0     C18831   7.697   3.599   7.545 -0.0215 -0.6673  0.0943
  901MOL0     C18832   7.674   3.503   7.647  0.6139 -0.7566 -0.0008
  901MOL0     C18833   7.545   3.481   7.692  1.1443  1.1752  0.7112
  901MOL0     C18834   7.435   3.536   7.626 -0.5476 -0.4392  0.0769
  901MOL0     O18835   7.304   3.513   7.658 -0.8501  0.1977 -0.0943
  901MOL0     C18836   7.279   3.415   7.773 -0.2958 -1.0971  0.2741
  901MOL0     C18837   7.127   3.397   7.784  1.2039 -0.4281 -0.0271
  901MOL0     C18838   7.068   3.524   7.844  0.1235  0.1912 -0.2448
  901MOL0     C18839   6.914   3.506   7.834  0.5411  0.4526 -0.2374
  901MOL0     C18840   6.844   3.619   7.912  0.3584 -0.1761 -0.6723
  901MOL0     C18841   6.854   3.758   7.856  0.6866  0.1167  0.5943
  901MOL0     C18842   6.830   3.767   7.698  0.1789  0.7114  0.6749
  901MOL0     C18843   6.697   3.714   7.660 -0.2813  0.4126  0.4349
  901MOL0    Cl18844   6.568   3.798   7.745  0.3578 -0.1006 -0.1627
  901MOL0     C18845   7.449   3.630   7.524  0.2747  0.4847 -0.6276
  901MOL0     C18846   7.587   3.661   7.482  0.3932  0.4341 -0.2743
  901MOL0     O18847   7.848   3.426   7.395  0.1649  0.2615 -0.7765
  901MOL0     C18848   8.094   3.669   7.448 -0.1739  0.4275 -0.0755
  901MOL0     C18849   8.235   3.682   7.434 -0.0177 -0.0062  0.4685
  901MOL0     N18850   8.908   3.849   7.485  1.5861 -0.0424 -0.1818
  901MOL0     N18851   9.020   3.905   7.468 -0.5623  0.5042 -0.1022
  901MOL0     C18852   9.221   4.670   7.995 -0.4667 -0.9980  0.5975
  901MOL0     C18853   9.227   4.803   7.959  1.3058 -0.4334  0.4164
  901MOL0     C18854   9.370   5.226   7.871  0.5232 -0.6835 -0.1616
  901MOL0     C18855   9.306   5.313   7.963  0.6629 -1.0865  0.7527
  901MOL0     C18856   9.340   5.446   7.971 -0.3103  0.2685  0.3313
  901MOL0     C18857   9.430   5.503   7.884 -1.0421  0.2243  0.2709
  901MOL0     O18858   9.477   5.631   7.900 -0.4981  0.1692  0.1694
  901MOL0     C18859   9.393   5.720   7.985 -0.5783 -0.5890 -0.6581
  901MOL0     C18860   9.426   5.874   7.971  0.4674  0.4611  0.3128
  901MOL0     C18861   9.454   5.910   7.829  0.2125 -0.1354  0.4486
  901MOL0     C18862   9.487   6.064   7.815 -0.1569 -0.2759 -0.2842
  901MOL0     C18863   9.607   6.120   7.885 -0.1504 -0.6401 -0.0988
  901MOL0     C18864   9.692   6.155   7.963  0.2814 -0.2012  0.2242
  901MOL0     C18865   9.484   5.422   7.783 -0.1999 -0.1326 -0.6548
  901MOL0     C18866   9.465   5.285   7.783  0.2165 -0.4770  0.7455
  901MOL0     H18867   9.446   4.945   8.177 -0.3321  0.2157  0.9203
  901MOL0     H18868   9.465   4.694   8.226  1.1849  1.0899  0.5753
  901MOL0     H18869   9.427   4.382   8.005 -0.6846 -1.2484 -0.8784
  901MOL0     H18870   9.262   4.407   7.969  1.2494  0.2534 -0.7330
  901MOL0     H18871   9.179   4.239   8.131  0.5562 -0.9777  1.6523
  901MOL0     H18872   9.322   4.262   8.228 -0.4219 -0.2471  0.0332
  901MOL0     H18873   9.338   4.036   8.117  0.1509 -1.3535 -2.3815
  901MOL0     H18874   9.461   4.149   8.053 -0.1304 -2.4686  1.0928
  901MOL0     H18875   9.189   4.087   7.927  1.1238 -3.1512  1.3954
  901MOL0     H18876   9.320   4.183   7.856  2.4382 -0.0411  1.2241
  901MOL0     H18877   9.321   3.874   7.898 -2.5657  0.1455 -0.6711
  901MOL0     H18878   9.450   3.971   7.827 -0.4970  1.5330  3.2721
  901MOL0     H18879   9.270   4.046   7.652 -2.5842 -0.9237 -1.1921
  901MOL0     H18880   9.156   3.931   7.732 -0.1780  0.5449 -1.0763
  901MOL0     H18881   9.426   3.846   7.627 -0.4194 -1.0401 -0.3532
  901MOL0     H18882   9.300   3.740   7.658  0.6948 -1.7132 -2.5746
  901MOL0     H18883   9.313   3.787   7.419 -0.5943  0.2984  0.1096
  901MOL0     H18884   9.273   3.961   7.457 -0.9138  0.4711  1.8646
  901MOL0     H18885   9.126   3.601   7.520  1.2065  0.1180 -2.5754
  901MOL0     H18886   8.765   3.634   7.634  0.4216  0.5464  0.0658
  901MOL0     H18887   8.880   3.522   7.565 -0.6392 -0.4596 -0.0124
  901MOL0     H18888   8.676   3.511   7.441  0.6448 -1.0703 -0.1626
  901MOL0     H18889   8.790   3.611   7.337  0.9707  1.5567  0.9167
  901MOL0     H18890   8.585   3.727   7.524 -0.6598  0.0361  0.6668
  901MOL0     H18891   8.656   3.825   7.398  0.1993 -0.9096 -0.4391
  901MOL0     H18892   8.553   3.661   7.229  1.4243  5.7947 -0.8395
  901MOL0     H18893   8.448   3.773   7.303  1.7886  0.3831 -0.8557
  901MOL0     H18894   8.320   3.366   7.382  4.5361  3.0739  1.8115
  901MOL0     H18895   8.063   3.357   7.328 -0.5899  0.6609 -3.6241
  901MOL0     H18896   7.747   3.434   7.688  0.5342 -0.8900 -0.0842
  901MOL0     H18897   7.538   3.403   7.768  0.0571 -0.9012 -1.3877
  901MOL0     H18898   7.329   3.461   7.859  2.1678  1.6758 -2.4097
  901MOL0     H18899   7.330   3.320   7.755  3.1739  0.6727 -0.0215
  901MOL0     H18900   7.096   3.305   7.834 -1.9387 -0.1315 -1.1970
  901MOL0     H18901   7.085   3.389   7.683 -0.6922 -0.3964  0.7229
  901MOL0     H18902   7.114   3.613   7.800 -1.1707  0.2378 -1.5945
  901MOL0     H18903   7.097   3.532   7.949  2.1012 -0.0848 -0.7348
  901MOL0     H18904   6.856   3.506   7.742 -3.4588  2.4329  1.9988
  901MOL0     H18905   6.885   3.417   7.890 -0.2947  1.1791  0.5229
  901MOL0     H18906   6.877   3.620   8.016 -1.1519  1.4481 -0.1609
  901MOL0     H18907   6.738   3.594   7.899  0.1826 -0.8571  1.6329
  901MOL0     H18908   6.953   3.800   7.874 -0.1456  2.9741 -0.9638
  901MOL0     H18909   6.787   3.826   7.910  0.7393  1.7331 -1.3123
  901MOL0     H18910   6.843   3.869   7.661 -0.7069 -0.5712 -3.8506
  901MOL0     H18911   6.910   3.709   7.650  0.2846  1.6512 -0.3236
  901MOL0     H18912   6.699   3.607   7.679  0.9334  0.1627 -0.9486
  901MOL0     H18913   6.695   3.734   7.552  1.5427  1.4064  0.5376
  901MOL0     H18914   7.363   3.676   7.475 -0.7546 -1.4190 -0.6981
  901MOL0     H18915   7.602   3.728   7.398  1.6643  2.6227  1.5464
  901MOL0     H18916   8.039   3.752   7.491 -0.5055  0.3243 -0.2886
  901MOL0     H18917   8.282   3.777   7.459  3.2755 -0.8086 -1.8896
  901MOL0     H18918   9.160   4.598   7.942 -0.6345  1.5005 -2.9420
  901MOL0     H18919   9.160   4.846   7.885 -0.5024 -0.2878  2.0802
  901MOL0     H18920   9.235   5.275   8.036  2.4323 -2.9238  1.5883
  901MOL0     H18921   9.294   5.497   8.055 -0.6715 -1.2966  1.1218
  901MOL0     H18922   9.388   5.683   8.088 -1.0920 -1.8768 -1.1210
  901MOL0     H18923   9.287   5.708   7.962 -0.7081  1.1803 -1.0862
  901MOL0     H18924   9.335   5.924   8.006 -0.6946  0.2197 -2.1129
  901MOL0     H18925   9.510   5.907   8.033  2.2004  2.6324 -2.9080
  901MOL0     H18926   9.369   5.884   7.765  0.9771 -4.3105  0.8569
  901MOL0     H18927   9.536   5.848   7.793  0.7292  1.0087 -0.4231
  901MOL0     H18928   9.495   6.085   7.708 -2.0346 -1.6322 -0.7307
  901MOL0     H18929   9.402   6.111   7.865  1.0950 -0.6392  2.4235
  901MOL0     H18930   9.778   6.175   8.025  1.7952 -1.0044 -1.5116
  901MOL0     H18931   9.557   5.457   7.711 -0.1957 -1.7477 -1.5000
  901MOL0     H18932   9.523   5.228   7.712 -0.1465  2.5566 -2.2605
  902MOL0     O18933   4.810   8.347   9.526 -0.2461  1.0141 -0.3452
  902MOL0     C18934   4.829   8.278   9.425  0.7547 -0.4643 -0.3645
  902MOL0     O18935   4.733   8.221   9.344 -0.1149  0.5212  0.4929
  902MOL0     C18936   4.599   8.208   9.385  0.1312 -0.3969  0.3195
  902MOL0     C18937   4.535   8.298   9.475  0.0101 -0.8689 -0.1543
  902MOL0     C18938   4.411   8.274   9.530 -0.2453  0.0099  0.5615
  902MOL0     C18939   4.329   8.177   9.467 -0.0809  0.6195 -0.0393
  902MOL0     O18940   4.194   8.150   9.488  0.2772  0.5212  0.3780
  902MOL0     C18941   4.157   8.146   9.628  0.2531 -0.8650  0.1298
  902MOL0     C18942   4.006   8.164   9.660 -0.4739  0.2747  0.8990
  902MOL0     C18943   3.924   8.034   9.634  0.7161 -0.4659 -0.8620
  902MOL0     C18944   3.780   8.039   9.694 -0.5005 -0.2428 -0.3901
  902MOL0     C18945   3.703   7.908   9.683 -0.4323 -0.0125 -0.4291
  902MOL0     C18946   3.575   7.905   9.770  1.0298  0.2386  0.1830
  902MOL0     C18947   3.497   7.770   9.744 -0.8903 -0.8981 -0.2044
  902MOL0     C18948   3.352   7.784   9.783  0.1599  0.5582 -0.5791
  902MOL0     N18949   3.336   7.772   9.924  0.6353 -0.3506  0.3300
  902MOL0     C18950   3.267   7.673   9.988  0.2459  0.3188 -0.8150
  902MOL0     C18951   3.222   7.730  10.104  0.6555  0.4817  0.2785
  902MOL0     C18952   3.135   7.666  10.209 -0.4174 -0.3218  0.9620
  902MOL0     C18953   3.038   7.561  10.148 -0.2773  0.4255  0.6655
  902MOL0     C18954   2.934   7.516  10.245 -0.0716  0.5708  0.4307
  902MOL0     C18955   2.849   7.401  10.177  0.4925  0.2508 -0.4164
  902MOL0     O18956   2.764   7.459  10.077  0.8784  0.4879  0.5097
  902MOL0     C18957   2.633   7.435  10.069 -0.3645 -0.3517 -0.0428
  902MOL0     C18958   2.575   7.372   9.954 -0.8159 -0.6698 -0.5770
  902MOL0     C18959   2.436   7.357   9.960  0.0697 -0.1002  0.5637
  902MOL0     C18960   2.356   7.394  10.067  0.2391  0.1124 -0.0113
  902MOL0     C18961   2.217   7.379  10.055  0.4311 -1.0572 -0.0171
  902MOL0     O18962   2.144   7.430  10.157  0.4538 -0.4057  0.3003
  902MOL0     C18963   2.007   7.410  10.153 -0.4723 -0.0411  0.3072
  902MOL0     C18964   1.946   7.317  10.237  0.7115 -0.0642  0.3359
  902MOL0     C18965   1.806   7.299  10.233 -0.1256  0.3310 -1.1231
  902MOL0     C18966   1.734   7.365  10.134  0.1062  0.3299  0.3836
  902MOL0     O18967   1.593   7.355  10.124  0.2251 -0.2239 -0.1797
  902MOL0     C18968   1.525   7.258  10.208 -0.1174 -0.4729 -0.3340
  902MOL0     C18969   1.373   7.277  10.181 -0.5661  0.1415 -0.2496
  902MOL0     C18970   1.294   7.183  10.274 -0.2364  0.3300 -0.2079
  902MOL0     C18971   1.141   7.195  10.238  0.4294 -0.4175  0.0025
  902MOL0     C18972   1.098   7.124  10.106 -0.0162  0.5369  0.1196
  902MOL0     C18973   0.939   7.127  10.093 -0.3300 -0.3790  0.0788
  902MOL0     C18974   0.905   7.005  10.008  0.9519 -0.0248 -0.7881
  902MOL0     C18975   0.765   7.017   9.939 -0.3558  1.1388  0.2997
  902MOL0    Cl18976   0.642   7.062  10.056  0.4323  0.2548 -0.2301
  902MOL0     C18977   1.793   7.447  10.040  0.0255  0.4005  0.1536
  902MOL0     C18978   1.930   7.471  10.051  0.5654 -0.8006  0.8453
  902MOL0     O18979   2.166   7.308   9.969 -0.5321  0.3790 -1.0380
  902MOL0     C18980   2.412   7.443  10.176  0.1662 -0.3436 -0.5527
  902MOL0     C18981   2.550   7.470  10.169  0.4767  0.8689 -0.3484
  902MOL0     N18982   3.269   7.861  10.115  0.3006 -0.3829  0.3231
  902MOL0     N18983   3.330   7.882  10.008 -0.1035 -0.4906 -0.2114
  902MOL0     C18984   4.388   8.091   9.375 -0.4861 -0.8047  0.8718
  902MOL0     C18985   4.523   8.099   9.341  0.8693  0.3443  0.1883
  902MOL0     C18986   4.977   8.273   9.398  0.2562  0.6517 -0.2268
  902MOL0     C18987   5.021   8.211   9.279 -0.2277  0.5108 -0.1776
  902MOL0     C18988   5.156   8.203   9.242  0.8756 -0.1308  0.3132
  902MOL0     C18989   5.256   8.252   9.324  0.2435  0.1407  0.4004
  902MOL0     O18990   5.395   8.236   9.299 -0.4958  0.2719  0.5067
  902MOL0     C18991   5.443   8.189   9.176  0.6289 -0.1208  0.1307
  902MOL0     C18992   5.594   8.218   9.163  0.6307  0.7566  0.3009
  902MOL0     C18993   5.626   8.191   9.015 -0.2553 -0.1988 -0.9187
  902MOL0     C18994   5.629   8.047   8.976  0.5607 -0.4807  0.3185
  902MOL0     C18995   5.729   7.970   9.048  0.2519 -0.3318  0.4842
  902MOL0     C18996   5.810   7.910   9.115  0.3362 -0.8411  0.0611
  902MOL0     C18997   5.220   8.307   9.451 -0.0076 -0.0444  0.7643
  902MOL0     C18998   5.082   8.324   9.485  0.1068  0.1626  0.5982
  902MOL0     H18999   4.580   8.387   9.518  1.2202 -1.0860 -0.9514
  902MOL0     H19000   4.375   8.339   9.609 -1.2495  1.9577 -1.4069
  902MOL0     H19001   4.209   8.232   9.674 -1.6397  1.4311 -1.7515
  902MOL0     H19002   4.189   8.050   9.668 -0.4355 -1.4659 -0.7428
  902MOL0     H19003   3.965   8.241   9.594  1.5932  1.6038  1.0641
  902MOL0     H19004   3.996   8.199   9.763 -0.1447 -2.8237  2.1038
  902MOL0     H19005   3.974   7.952   9.686 -0.2588 -0.3761  0.2620
  902MOL0     H19006   3.918   8.017   9.526  0.7453  0.2872 -0.9877
  902MOL0     H19007   3.785   8.080   9.796  0.5347 -0.4481 -0.3433
  902MOL0     H19008   3.715   8.112   9.646 -1.6368  0.1941  1.6754
  902MOL0     H19009   3.770   7.829   9.719  2.1317  2.1247 -0.1614
  902MOL0     H19010   3.689   7.908   9.575  0.1589  3.5206 -0.6271
  902MOL0     H19011   3.508   7.988   9.748  2.9003  1.3696 -1.5848
  902MOL0     H19012   3.601   7.905   9.876  0.2377  2.0587  0.4006
  902MOL0     H19013   3.504   7.745   9.637 -1.1061  1.7038 -0.8749
  902MOL0     H19014   3.555   7.695   9.798 -1.7406 -4.5955 -3.8559
  902MOL0     H19015   3.293   7.708   9.730 -1.5257 -1.2004  3.3953
  902MOL0     H19016   3.307   7.878   9.750 -2.0936 -0.9106 -1.9400
  902MOL0     H19017   3.252   7.570   9.956 -1.2943 -0.0201  0.8506
  902MOL0     H19018   3.086   7.754  10.251  0.2625  0.3246  0.4331
  902MOL0     H19019   3.191   7.608  10.283 -2.1447 -0.3916  2.2661
  902MOL0     H19020   3.100   7.478  10.112 -0.7669  0.6448 -0.7502
  902MOL0     H19021   2.998   7.607  10.057  4.1335  2.2394 -0.6352
  902MOL0     H19022   2.986   7.481  10.335  1.4282 -0.0028 -0.6116
  902MOL0     H19023   2.871   7.604  10.260  0.9185  1.3684  0.0326
  902MOL0     H19024   2.791   7.348  10.253  1.0809 -1.8968 -1.3698
  902MOL0     H19025   2.903   7.314  10.137 -1.2563 -0.6791 -0.8688
  902MOL0     H19026   2.624   7.349   9.860 -0.2180  1.3386 -0.7973
  902MOL0     H19027   2.392   7.311   9.873 -2.6508  2.1210  0.6355
  902MOL0     H19028   2.016   7.289  10.316  2.1030 -0.4507 -0.9830
  902MOL0     H19029   1.764   7.230  10.305 -1.1530  0.8827 -1.1858
  902MOL0     H19030   1.532   7.283  10.315 -2.6100 -2.7895  0.4955
  902MOL0     H19031   1.552   7.155  10.188  2.4116 -0.5634  2.7018
  902MOL0     H19032   1.355   7.239  10.080  1.8686  2.4647 -1.6826
  902MOL0     H19033   1.345   7.382  10.194 -1.0801 -0.1215  0.9330
  902MOL0     H19034   1.312   7.205  10.380  1.8488  1.3214 -0.7198
  902MOL0     H19035   1.324   7.085  10.237 -1.4601  0.6136 -2.0916
  902MOL0     H19036   1.088   7.142  10.318  0.8268  1.0217  1.2767
  902MOL0     H19037   1.119   7.303  10.241  1.9700 -0.0967  1.5562
  902MOL0     H19038   1.124   7.018  10.116 -3.9405 -0.5584  0.3225
  902MOL0     H19039   1.158   7.150  10.019 -2.3951 -0.9520 -2.0784
  902MOL0     H19040   0.908   7.219  10.044  0.5394 -0.3612 -0.4710
  902MOL0     H19041   0.899   7.117  10.194  0.6329 -0.5999  0.4518
  902MOL0     H19042   0.982   6.991   9.932  2.6002 -0.3302  0.8670
  902MOL0     H19043   0.893   6.919  10.074 -0.0273  0.3181 -0.5004
  902MOL0     H19044   0.751   6.926   9.880 -0.5242  0.0463  1.9560
  902MOL0     H19045   0.764   7.105   9.874 -1.5720  0.5370 -0.5387
  902MOL0     H19046   1.731   7.508   9.977  0.8395  1.7400  0.6089
  902MOL0     H19047   1.971   7.544   9.982  1.4894 -1.0304  1.1259
  902MOL0     H19048   2.366   7.484  10.265  1.1135 -0.6610  0.1023
  902MOL0     H19049   2.595   7.502  10.263  2.9924 -2.4869 -0.2272
  902MOL0     H19050   4.324   8.013   9.336 -0.8176 -1.0537  1.9033
  902MOL0     H19051   4.564   8.040   9.259  0.6237 -0.1342  0.4048
  902MOL0     H19052   4.970   8.175   9.190  3.7161  0.6795 -2.8061
  902MOL0     H19053   5.173   8.162   9.143 -3.1720  3.1594 -2.0443
  902MOL0     H19054   5.388   8.236   9.095  0.5056 -1.1648 -0.4057
  902MOL0     H19055   5.420   8.083   9.158 -0.6227  0.4177 -1.6264
  902MOL0     H19056   5.606   8.325   9.187 -0.7777  0.7640  1.0937
  902MOL0     H19057   5.653   8.158   9.232  1.0710 -0.6433 -1.2492
  902MOL0     H19058   5.721   8.235   8.986 -0.4794 -0.7160 -2.5903
  902MOL0     H19059   5.542   8.241   8.964 -0.2077  0.6932 -0.1400
  902MOL0     H19060   5.530   8.003   8.990  0.1122 -0.6336 -2.6601
  902MOL0     H19061   5.638   8.038   8.868 -0.5439 -0.5457  0.2223
  902MOL0     H19062   5.872   7.842   9.169 -0.8384 -0.7785  1.5384
  902MOL0     H19063   5.304   8.339   9.511 -0.8615  2.2818  0.8398
  902MOL0     H19064   5.054   8.374   9.577 -2.8769  0.7898 -0.5221
  903MOL0     O19065   6.550   0.366  10.190  1.2369 -0.1086  0.0022
  903MOL0     C19066   6.558   0.244  10.201 -0.3015 -0.0365  0.8098
  903MOL0     O19067   6.457   0.164  10.248  0.0521 -0.1122 -0.0709
  903MOL0     C19068   6.324   0.198  10.269 -0.2048 -0.6121  0.0648
  903MOL0     C19069   6.261   0.306  10.211  0.0965 -0.2072  0.2367
  903MOL0     C19070   6.124   0.328  10.235  0.2990  0.8158 -0.5236
  903MOL0     C19071   6.044   0.237  10.317 -0.2981  0.7338 -0.5002
  903MOL0     O19072   5.906   0.250  10.341 -0.4673 -0.0074 -0.2352
  903MOL0     C19073   5.846   0.367  10.292 -0.3394  0.0900 -0.2387
  903MOL0     C19074   5.882   0.489  10.373 -0.3164  0.3293  0.4346
  903MOL0     C19075   5.760   0.579  10.367 -0.1197  0.2517 -0.0377
  903MOL0     C19076   5.789   0.720  10.407 -0.1737 -0.3978  0.3955
  903MOL0     C19077   5.672   0.811  10.399 -0.3197  0.8543  0.7314
  903MOL0     C19078   5.726   0.947  10.449 -0.4443 -0.0587  0.2957
  903MOL0     C19079   5.617   1.054  10.448 -0.7030 -0.0003  0.3057
  903MOL0     C19080   5.565   1.084  10.319  0.5176 -0.8099  0.7459
  903MOL0     N19081   5.669   1.147  10.227 -0.2526  0.8034  0.4561
  903MOL0     C19082   5.738   1.262  10.254 -0.0246  0.7345  0.2969
  903MOL0     C19083   5.844   1.255  10.171 -0.0166  0.2782  0.3702
  903MOL0     C19084   5.951   1.358  10.184  1.2895  0.4043  0.1334
  903MOL0     C19085   6.095   1.317  10.149 -0.2486  0.5324  0.3305
  903MOL0     C19086   6.193   1.429  10.184 -0.5630 -0.2109  0.2096
  903MOL0     C19087   6.339   1.403  10.138  0.2273 -0.1550  0.1804
  903MOL0     O19088   6.410   1.513  10.187 -0.0535 -0.3805 -0.2405
  903MOL0     C19089   6.545   1.498  10.194  0.3516 -0.0160 -0.7475
  903MOL0     C19090   6.606   1.569  10.301 -0.9523  0.2926 -0.9804
  903MOL0     C19091   6.744   1.564  10.318 -0.6194  0.4525 -0.2622
  903MOL0     C19092   6.819   1.512  10.216 -0.2838  0.6118  0.6768
  903MOL0     C19093   6.962   1.523  10.215 -0.3681  0.6306  0.2703
  903MOL0     O19094   7.035   1.448  10.119 -0.2016  0.0854 -0.6817
  903MOL0     C19095   7.165   1.474  10.101 -0.2845  0.8934  0.9022
  903MOL0     C19096   7.270   1.472  10.199 -0.3784 -0.5897  0.2057
  903MOL0     C19097   7.401   1.479  10.161  0.6923 -0.4799 -0.7496
  903MOL0     C19098   7.437   1.493  10.025 -0.1712 -0.3924  0.3814
  903MOL0     O19099   7.560   1.496   9.971 -0.3005 -0.7451 -0.2078
  903MOL0     C19100   7.676   1.512  10.055 -0.2019 -0.9515  0.1079
  903MOL0     C19101   7.817   1.560   9.988 -0.3450 -0.6094  0.9554
  903MOL0     C19102   7.900   1.452   9.911  0.9964  0.0391  0.5718
  903MOL0     C19103   8.025   1.513   9.842  0.1666  0.0843  0.0056
  903MOL0     C19104   8.090   1.409   9.755  0.2561 -0.0967 -0.4428
  903MOL0     C19105   8.233   1.430   9.716  0.4845  0.0955 -0.1734
  903MOL0     C19106   8.248   1.562   9.631 -0.8695 -0.4399 -0.3070
  903MOL0     C19107   8.404   1.598   9.624 -1.0111  0.2926  0.0424
  903MOL0    Cl19108   8.493   1.473   9.523 -0.3585 -0.2244  0.0752
  903MOL0     C19109   7.336   1.500   9.927  1.0104 -0.1052 -0.6534
  903MOL0     C19110   7.209   1.494   9.970 -0.3943  0.5404  0.2068
  903MOL0     O19111   7.016   1.597  10.299  0.5731  0.1748  0.0392
  903MOL0     C19112   6.755   1.442  10.102 -0.1418  0.0152  0.2367
  903MOL0     C19113   6.624   1.426  10.110  0.7223  0.8161 -0.4559
  903MOL0     N19114   5.830   1.150  10.075  0.3708 -0.6354  0.1009
  903MOL0     N19115   5.722   1.088  10.119 -0.2016 -0.5982  0.1109
  903MOL0     C19116   6.110   0.131  10.376  0.0080  0.6831 -0.3471
  903MOL0     C19117   6.249   0.109  10.355 -0.0442 -0.5186  0.5407
  903MOL0     C19118   6.678   0.184  10.155  0.8199 -0.0699  0.3458
  903MOL0     C19119   6.778   0.266  10.098 -0.0447 -0.1426  0.3551
  903MOL0     C19120   6.904   0.210  10.065 -0.5968  0.2896 -1.0456
  903MOL0     C19121   6.927   0.071  10.077 -0.7062 -0.1768 -0.2081
  903MOL0     O19122   7.038   0.002  10.039  0.6504  0.3464  0.3039
  903MOL0     C19123   7.157   0.061   9.981 -0.5360 -0.4633  0.0509
  903MOL0     C19124   7.261   0.099  10.084  0.1984 -0.5967 -0.6324
  903MOL0     C19125   7.368   0.183  10.017  0.4337  0.0672  0.2390
  903MOL0     C19126   7.509   0.153  10.076 -0.4390 -0.0695 -0.5760
  903MOL0     C19127   7.567   0.016  10.066  0.3512 -0.7349 -0.1551
  903MOL0     C19128   7.640  -0.087  10.051  0.5578 -0.2189 -0.3748
  903MOL0     C19129   6.822  -0.007  10.129 -0.3445  1.1164  0.2697
  903MOL0     C19130   6.699   0.043  10.167  0.4170 -0.2846  0.4843
  903MOL0     H19131   6.306   0.382  10.148  0.9571  2.2229  3.5092
  903MOL0     H19132   6.091   0.412  10.174  1.1131  3.0050  1.8980
  903MOL0     H19133   5.739   0.352  10.308 -0.1093 -0.6618  0.6550
  903MOL0     H19134   5.863   0.387  10.186  1.2349 -1.0507 -0.2327
  903MOL0     H19135   5.974   0.537  10.338  1.4070 -1.3969  2.3176
  903MOL0     H19136   5.898   0.471  10.479 -1.6013  1.7361  0.9144
  903MOL0     H19137   5.681   0.533  10.427  1.6233 -2.5942  0.2736
  903MOL0     H19138   5.715   0.585  10.267  0.0369  2.8282 -0.0211
  903MOL0     H19139   5.828   0.722  10.509 -3.7087  0.5256  1.8965
  903MOL0     H19140   5.861   0.750  10.330  1.2264 -2.0102  1.0260
  903MOL0     H19141   5.583   0.769  10.447 -0.3299 -0.9672 -0.7989
  903MOL0     H19142   5.633   0.818  10.297 -2.1948  0.3923  1.3787
  903MOL0     H19143   5.802   0.973  10.375  0.5928  0.3023  1.4365
  903MOL0     H19144   5.761   0.936  10.552  0.9685 -0.0281 -0.1618
  903MOL0     H19145   5.531   1.015  10.503  0.4414 -1.7379  0.9390
  903MOL0     H19146   5.646   1.143  10.505 -2.0859 -0.6067  2.0391
  903MOL0     H19147   5.477   1.145  10.338 -0.1739 -2.3215  2.7117
  903MOL0     H19148   5.520   0.996  10.271 -2.6938  0.1567  1.7573
  903MOL0     H19149   5.718   1.342  10.324  0.6611  2.6708 -1.6344
  903MOL0     H19150   5.943   1.391  10.287  0.4606 -2.7771  1.1886
  903MOL0     H19151   5.923   1.429  10.105  0.0455 -2.2285 -1.9624
  903MOL0     H19152   6.093   1.292  10.042  0.2207 -1.2724  0.7032
  903MOL0     H19153   6.118   1.224  10.202 -0.0948 -0.3554 -1.2349
  903MOL0     H19154   6.164   1.511  10.117  1.9645  0.2173 -0.4644
  903MOL0     H19155   6.179   1.470  10.284 -0.1250  0.6859 -0.0855
  903MOL0     H19156   6.348   1.395  10.029 -1.7496 -1.6760  0.0834
  903MOL0     H19157   6.379   1.306  10.171 -2.2207 -0.9018  1.1326
  903MOL0     H19158   6.538   1.607  10.376 -2.8032 -1.4335 -1.7164
  903MOL0     H19159   6.788   1.620  10.399  0.2166  0.1422 -0.4964
  903MOL0     H19160   7.230   1.463  10.300 -0.1764 -1.5624  0.2137
  903MOL0     H19161   7.470   1.495  10.243 -0.3974  1.7762 -0.1876
  903MOL0     H19162   7.697   1.418  10.106  2.3500 -0.5671 -0.1017
  903MOL0     H19163   7.653   1.579  10.138  0.5836 -2.3582  1.4866
  903MOL0     H19164   7.876   1.603  10.069  0.8814 -0.6676  0.1260
  903MOL0     H19165   7.797   1.647   9.924  1.1023 -2.0816 -1.7202
  903MOL0     H19166   7.836   1.396   9.842  2.9902  1.1167 -2.3283
  903MOL0     H19167   7.930   1.384   9.992  1.8523  1.2739  1.3218
  903MOL0     H19168   8.000   1.594   9.773 -0.4689  0.2569  0.4370
  903MOL0     H19169   8.098   1.556   9.912  1.2336 -0.6531 -0.6152
  903MOL0     H19170   8.029   1.411   9.664 -0.3194  1.5477 -0.0629
  903MOL0     H19171   8.078   1.313   9.805  1.1786 -1.6026 -2.9510
  903MOL0     H19172   8.266   1.343   9.659 -1.5230  1.0771 -3.0461
  903MOL0     H19173   8.282   1.439   9.814 -2.0988 -1.0642  1.3498
  903MOL0     H19174   8.206   1.551   9.530 -3.3642  1.1325  0.4649
  903MOL0     H19175   8.190   1.644   9.673 -1.0716 -1.5291  1.6570
  903MOL0     H19176   8.451   1.609   9.722 -1.4326 -1.0456  0.4207
  903MOL0     H19177   8.415   1.696   9.577  1.0579  0.4749  0.8285
  903MOL0     H19178   7.350   1.503   9.820 -1.4923  2.8964 -1.0459
  903MOL0     H19179   7.122   1.501   9.906  0.0959  3.1163 -0.2739
  903MOL0     H19180   6.809   1.389  10.025 -1.7126  1.8429 -2.2650
  903MOL0     H19181   6.591   1.360  10.031  0.8425 -0.3462  0.4527
  903MOL0     H19182   6.061   0.075  10.456  1.9604 -0.2449  0.2751
  903MOL0     H19183   6.314   0.034  10.400  1.5465  1.4653  1.7434
  903MOL0     H19184   6.752   0.370  10.083  0.9417  0.2389  1.1593
  903MOL0     H19185   6.976   0.280  10.023  0.6386 -0.4167 -0.1721
  903MOL0     H19186   7.133   0.146   9.917 -0.0880  0.3757  0.9552
  903MOL0     H19187   7.196  -0.019   9.919 -0.5333 -1.0664  0.8091
  903MOL0     H19188   7.213   0.162  10.160  1.9646  0.5559 -0.3945
  903MOL0     H19189   7.306   0.010  10.129  3.1447  0.7409 -0.6625
  903MOL0     H19190   7.338   0.287  10.033 -1.7612 -0.3263 -0.9695
  903MOL0     H19191   7.365   0.177   9.908  2.0108  0.4918  0.1515
  903MOL0     H19192   7.571   0.229  10.028  1.9578 -0.1240  2.1685
  903MOL0     H19193   7.504   0.182  10.181  1.4555  1.0245 -0.7422
  903MOL0     H19194   7.696  -0.178  10.050 -1.0420 -1.5221  4.0188
  903MOL0     H19195   6.832  -0.114  10.146 -1.9059  0.8174 -0.5158
  903MOL0     H19196   6.626  -0.015  10.223  0.2090 -0.1180  0.3916
  904MOL0     O19197   0.256   6.735   4.932 -0.2302 -0.0410  0.1962
  904MOL0     C19198   0.302   6.662   5.017 -0.9770  0.3900  0.9259
  904MOL0     O19199   0.241   6.560   5.076  0.6407  0.2976 -0.2870
  904MOL0     C19200   0.112   6.526   5.033 -0.1847 -0.1579  0.2330
  904MOL0     C19201   0.098   6.408   4.963  0.1220  0.2006  1.1414
  904MOL0     C19202  -0.031   6.367   4.908 -0.5850 -0.0738 -0.2921
  904MOL0     C19203  -0.139   6.451   4.929 -0.4044  0.3540  0.6900
  904MOL0     O19204  -0.255   6.412   4.873  0.1490  0.0356  0.1801
  904MOL0     C19205  -0.353   6.510   4.849 -0.6633 -0.8203  0.2326
  904MOL0     C19206  -0.459   6.455   4.756 -0.3673 -0.2233 -0.0586
  904MOL0     C19207  -0.575   6.550   4.759  0.8249 -0.1885  0.5802
  904MOL0     C19208  -0.667   6.525   4.637 -0.2454  0.5768  0.4959
  904MOL0     C19209  -0.801   6.608   4.646 -0.2843  0.5490  0.7757
  904MOL0     C19210  -0.889   6.608   4.519  0.1072  0.8092  0.4955
  904MOL0     C19211  -0.981   6.488   4.510 -0.3440  0.7655  0.1605
  904MOL0     C19212  -1.075   6.498   4.386  0.1820  0.8887 -0.3120
  904MOL0     N19213  -1.153   6.376   4.360  0.1854  0.6912  0.2306
  904MOL0     C19214  -1.260   6.336   4.429 -0.0377 -0.0809  0.7483
  904MOL0     C19215  -1.292   6.224   4.354  0.9977 -0.1074  0.2158
  904MOL0     C19216  -1.400   6.124   4.395  0.2097 -0.1235 -0.4294
  904MOL0     C19217  -1.534   6.202   4.419  0.5792 -0.5178 -0.1518
  904MOL0     C19218  -1.596   6.248   4.289  0.4421 -0.0553  0.2194
  904MOL0     C19219  -1.740   6.305   4.307 -1.0621  0.3521  0.2617
  904MOL0     O19220  -1.830   6.198   4.337  0.0664 -0.0566  0.7172
  904MOL0     C19221  -1.957   6.220   4.374 -0.0869 -0.0421  0.5242
  904MOL0     C19222  -2.024   6.341   4.337 -0.4999  0.8457 -0.4888
  904MOL0     C19223  -2.156   6.366   4.385  1.0179 -0.2308  0.1894
  904MOL0     C19224  -2.227   6.271   4.461 -0.0228  0.5206  0.2584
  904MOL0     C19225  -2.359   6.293   4.515 -0.1433 -0.6622  0.6933
  904MOL0     O19226  -2.411   6.422   4.505 -0.0325  0.1183 -0.1975
  904MOL0     C19227  -2.545   6.441   4.535 -0.3793  0.0524  0.3365
  904MOL0     C19228  -2.619   6.500   4.438  0.1615  0.0270 -0.1459
  904MOL0     C19229  -2.752   6.547   4.468  0.2598  0.6124  0.1887
  904MOL0     C19230  -2.807   6.521   4.591  0.2211 -0.2786  0.6422
  904MOL0     O19231  -2.931   6.551   4.632  0.1855 -0.3242  0.6486
  904MOL0     C19232  -3.028   6.593   4.531 -0.7559 -0.1361 -0.8131
  904MOL0     C19233  -3.171   6.572   4.583  0.2464  0.1745 -0.2844
  904MOL0     C19234  -3.282   6.567   4.479 -0.1890  0.1845 -0.3956
  904MOL0     C19235  -3.421   6.539   4.532  0.1111  0.8972  0.1535
  904MOL0     C19236  -3.513   6.588   4.428  0.0532 -0.7695  0.1440
  904MOL0     C19237  -3.649   6.517   4.428  0.7068  0.1995 -0.2706
  904MOL0     C19238  -3.760   6.599   4.362 -0.1167  0.0023  0.1024
  904MOL0     C19239  -3.893   6.531   4.380 -0.1855 -0.0069  0.0784
  904MOL0    Cl19240  -3.938   6.536   4.556  0.1755 -0.1406 -0.1344
  904MOL0     C19241  -2.728   6.456   4.684  0.9276 -0.7470  0.1217
  904MOL0     C19242  -2.592   6.425   4.665 -0.9468  0.4430  0.1735
  904MOL0     O19243  -2.423   6.197   4.562  0.0693 -0.1580  0.6389
  904MOL0     C19244  -2.160   6.150   4.490 -0.1575 -0.5442 -0.1809
  904MOL0     C19245  -2.031   6.124   4.445  0.1793 -0.4025  0.5462
  904MOL0     N19246  -1.206   6.208   4.252  0.7256  0.8086 -0.0407
  904MOL0     N19247  -1.121   6.295   4.255 -0.6806  0.3372 -0.0236
  904MOL0     C19248  -0.121   6.577   4.999  0.5790  0.8645  1.0627
  904MOL0     C19249   0.002   6.614   5.052 -0.4569 -0.1150 -0.5529
  904MOL0     C19250   0.447   6.686   5.044 -0.1079  1.0854  0.7563
  904MOL0     C19251   0.507   6.607   5.142  0.0207  0.0048 -0.0315
  904MOL0     C19252   0.643   6.625   5.171 -0.2172  0.7808  0.1001
  904MOL0     C19253   0.722   6.713   5.093  0.3073  0.4578  0.5506
  904MOL0     O19254   0.855   6.728   5.125 -0.0628  0.4991 -0.0665
  904MOL0     C19255   0.937   6.797   5.035 -0.2708 -0.2450 -0.1010
  904MOL0     C19256   1.094   6.791   5.070 -0.2620  0.0451 -0.2268
  904MOL0     C19257   1.129   6.870   5.198  0.6670  0.1529 -0.2945
  904MOL0     C19258   1.263   6.844   5.265 -0.0803  0.0634  0.7622
  904MOL0     C19259   1.371   6.894   5.190 -0.9382 -0.1110  0.2164
  904MOL0     C19260   1.452   6.943   5.112  0.1837  0.5995  0.0935
  904MOL0     C19261   0.651   6.790   4.990  0.0658  0.1032  0.0323
  904MOL0     C19262   0.519   6.774   4.963  0.1306  0.4498  0.5215
  904MOL0     H19263   0.193   6.356   4.953  1.2957  2.3355  0.4792
  904MOL0     H19264  -0.044   6.276   4.851 -1.9620  0.3025 -0.6099
  904MOL0     H19265  -0.316   6.605   4.809 -3.0197  1.1395  2.3496
  904MOL0     H19266  -0.402   6.534   4.944 -0.3748  0.4778  0.0758
  904MOL0     H19267  -0.492   6.355   4.788 -1.2200 -1.6632 -4.6504
  904MOL0     H19268  -0.422   6.454   4.653 -1.6770  4.7188 -0.8214
  904MOL0     H19269  -0.548   6.656   4.754 -1.1165  0.3222 -2.5061
  904MOL0     H19270  -0.635   6.529   4.848 -0.4872 -0.8111 -0.4018
  904MOL0     H19271  -0.621   6.559   4.543 -1.4481 -0.2276 -0.4054
  904MOL0     H19272  -0.693   6.421   4.617  0.2887  0.5585 -0.1287
  904MOL0     H19273  -0.775   6.709   4.681 -0.8598  0.8666  0.3150
  904MOL0     H19274  -0.862   6.562   4.725  0.0321 -0.6920  0.3152
  904MOL0     H19275  -0.835   6.622   4.425 -2.2929  0.4432 -1.0147
  904MOL0     H19276  -0.954   6.696   4.525  1.5586  1.9278  0.5027
  904MOL0     H19277  -0.914   6.402   4.507 -1.1509  0.1132  0.5468
  904MOL0     H19278  -1.044   6.470   4.597 -0.1368 -2.5674 -0.2567
  904MOL0     H19279  -1.029   6.525   4.290  0.0984 -0.9506 -0.9048
  904MOL0     H19280  -1.154   6.571   4.402  0.9201  1.5569  0.4124
  904MOL0     H19281  -1.281   6.380   4.526  4.0147  0.7376  1.4539
  904MOL0     H19282  -1.365   6.094   4.494  1.7188 -1.3781 -1.2826
  904MOL0     H19283  -1.403   6.042   4.322  0.2987  0.2982 -0.9141
  904MOL0     H19284  -1.514   6.282   4.491  0.4057 -0.8660  0.2833
  904MOL0     H19285  -1.612   6.136   4.457  0.4464 -0.4035 -0.2256
  904MOL0     H19286  -1.534   6.317   4.232 -3.3331  3.3174 -0.1941
  904MOL0     H19287  -1.598   6.161   4.222 -2.0598 -1.9827  2.5498
  904MOL0     H19288  -1.779   6.336   4.209  0.0981 -0.4993 -0.5062
  904MOL0     H19289  -1.738   6.387   4.380 -1.9952  1.4655 -0.9097
  904MOL0     H19290  -1.973   6.418   4.281 -3.2634  1.7463 -1.9515
  904MOL0     H19291  -2.207   6.462   4.375  0.8407 -0.3390  0.0376
  904MOL0     H19292  -2.566   6.519   4.345  3.6653  2.3200  2.0804
  904MOL0     H19293  -2.799   6.608   4.391  1.0921  0.7541 -0.2194
  904MOL0     H19294  -3.012   6.544   4.434  2.5932 -1.3269  0.1954
  904MOL0     H19295  -3.003   6.699   4.517  0.1869 -0.2852 -0.3591
  904MOL0     H19296  -3.204   6.658   4.642  0.6595  0.2149 -0.1033
  904MOL0     H19297  -3.183   6.482   4.644 -6.0848 -1.4656 -3.1393
  904MOL0     H19298  -3.253   6.493   4.404  0.6066 -1.1103  1.1227
  904MOL0     H19299  -3.283   6.666   4.434  1.5958  0.0245 -0.8408
  904MOL0     H19300  -3.431   6.430   4.544 -0.2402  0.7450 -1.3752
  904MOL0     H19301  -3.450   6.587   4.626  1.3557  0.1166  0.9618
  904MOL0     H19302  -3.463   6.588   4.330 -0.8982 -0.9380 -0.3531
  904MOL0     H19303  -3.535   6.693   4.448 -0.5758 -1.0826  1.1743
  904MOL0     H19304  -3.690   6.508   4.529 -0.1007  1.9328 -0.3919
  904MOL0     H19305  -3.637   6.422   4.377 -0.9599  0.0534 -0.4523
  904MOL0     H19306  -3.759   6.699   4.406  1.5960 -0.0724  0.2711
  904MOL0     H19307  -3.730   6.593   4.257 -0.2190  0.8560  0.0211
  904MOL0     H19308  -3.883   6.425   4.355 -1.0659 -0.3864  1.2717
  904MOL0     H19309  -3.978   6.577   4.328  0.3060  1.2134  0.3025
  904MOL0     H19310  -2.793   6.431   4.768 -0.1888  2.0458  0.1829
  904MOL0     H19311  -2.528   6.374   4.736  1.2668  0.4992 -1.6486
  904MOL0     H19312  -2.203   6.067   4.545  0.5634 -0.5192  0.4335
  904MOL0     H19313  -2.000   6.022   4.468 -1.1956 -2.1900 -4.2805
  904MOL0     H19314  -0.205   6.644   5.018  0.7357  1.1688  0.6782
  904MOL0     H19315   0.007   6.715   5.092 -1.0135 -0.1485 -0.3868
  904MOL0     H19316   0.458   6.535   5.207 -0.2753 -0.6025 -0.9049
  904MOL0     H19317   0.694   6.573   5.252  1.6319 -0.4697 -1.7380
  904MOL0     H19318   0.903   6.901   5.027 -2.6569 -0.6419  3.0576
  904MOL0     H19319   0.934   6.754   4.934  0.4824 -1.7342  0.4857
  904MOL0     H19320   1.118   6.685   5.083 -1.7978 -0.0404  2.7328
  904MOL0     H19321   1.152   6.828   4.985  3.7133 -0.0882  2.1840
  904MOL0     H19322   1.049   6.859   5.272  0.7210 -0.3093 -0.3013
  904MOL0     H19323   1.128   6.976   5.173  0.0483  0.1229 -0.4185
  904MOL0     H19324   1.267   6.886   5.365  3.4577  2.2331 -0.1283
  904MOL0     H19325   1.268   6.735   5.267  0.6525  0.0537 -0.3953
  904MOL0     H19326   1.520   6.967   5.032  0.2561  0.1920  0.0289
  904MOL0     H19327   0.709   6.855   4.925  1.1461 -2.3680 -1.6619
  904MOL0     H19328   0.468   6.826   4.882  0.3689 -2.6151 -1.7644
  905MOL0     O19329  10.399   0.651   7.071 -0.2561  0.1639  1.3436
  905MOL0     C19330  10.479   0.566   7.028 -0.0889 -0.6929  0.4402
  905MOL0     O19331  10.462   0.428   7.021  0.0202 -1.1643  0.2943
  905MOL0     C19332  10.351   0.359   7.050 -0.3478 -0.0930  0.0572
  905MOL0     C19333  10.358   0.232   7.105  1.0792 -0.0132  0.3321
  905MOL0     C19334  10.240   0.154   7.139 -0.0309  0.3906  0.5867
  905MOL0     C19335  10.117   0.205   7.091  0.5815 -0.7314  0.3095
  905MOL0     O19336   9.988   0.148   7.106 -0.6262  0.2772 -0.0031
  905MOL0     C19337   9.955   0.129   7.240 -0.3130  0.3156  0.1198
  905MOL0     C19338   9.815   0.059   7.245 -0.3918  0.4996  0.2304
  905MOL0     C19339   9.698   0.149   7.196 -0.0280  0.3982  0.2968
  905MOL0     C19340   9.677   0.264   7.294 -0.2753  0.7762 -0.0114
  905MOL0     C19341   9.549   0.337   7.280  0.5083 -0.8157  1.0517
  905MOL0     C19342   9.433   0.246   7.287 -0.5253 -0.4021 -0.1143
  905MOL0     C19343   9.312   0.336   7.278  0.1393  0.2693  0.1430
  905MOL0     C19344   9.183   0.257   7.273  0.3976  0.3559  0.1123
  905MOL0     N19345   9.070   0.338   7.215 -0.2736  1.1587  0.5566
  905MOL0     C19346   8.979   0.418   7.272  0.2419 -0.0290 -0.1038
  905MOL0     C19347   8.901   0.464   7.176  0.5435  0.2310 -0.1105
  905MOL0     C19348   8.774   0.542   7.180  0.0764 -0.8073  0.1817
  905MOL0     C19349   8.790   0.689   7.131  0.1991  0.4619 -0.9789
  905MOL0     C19350   8.801   0.709   6.982 -0.0798  0.0826  0.6667
  905MOL0     C19351   8.686   0.652   6.900 -0.4630  0.1383  0.4563
  905MOL0     O19352   8.701   0.674   6.762 -0.6981  0.5589  0.1296
  905MOL0     C19353   8.785   0.589   6.683  0.6168 -0.2461  0.4710
  905MOL0     C19354   8.858   0.478   6.730  0.2315  0.1077  0.2741
  905MOL0     C19355   8.938   0.399   6.641 -0.1141 -1.1982 -0.0075
  905MOL0     C19356   8.955   0.439   6.509  0.3564  0.2718 -0.3296
  905MOL0     C19357   9.041   0.353   6.412  0.0750 -0.7890 -0.2157
  905MOL0     O19358   9.085   0.234   6.459 -0.1495  0.0879 -0.5702
  905MOL0     C19359   9.157   0.154   6.374 -0.4057  0.5477  0.8662
  905MOL0     C19360   9.264   0.198   6.300  0.1975 -0.2980  0.4314
  905MOL0     C19361   9.324   0.106   6.210 -0.3108  0.3434 -0.5416
  905MOL0     C19362   9.266  -0.014   6.183  0.3827  0.1308 -1.2426
  905MOL0     O19363   9.340  -0.092   6.087  0.5400 -0.2800 -0.1635
  905MOL0     C19364   9.312  -0.227   6.057 -0.3644 -0.6632 -0.3295
  905MOL0     C19365   9.429  -0.295   5.978 -0.2994 -0.0382  0.0479
  905MOL0     C19366   9.428  -0.452   5.950  0.3467 -0.8467 -0.1674
  905MOL0     C19367   9.569  -0.495   5.921  0.1434  0.4003 -0.4009
  905MOL0     C19368   9.566  -0.647   5.898  0.3489  0.8853 -0.2473
  905MOL0     C19369   9.684  -0.720   5.841  0.0017  0.1652  0.4937
  905MOL0     C19370   9.815  -0.652   5.884  0.0451 -0.3896  0.3864
  905MOL0     C19371   9.936  -0.733   5.851  0.9039 -0.6023  0.5113
  905MOL0    Cl19372   9.946  -0.742   5.673  0.5733  0.0049 -0.5347
  905MOL0     C19373   9.149  -0.055   6.254 -0.6435 -0.3580 -0.5978
  905MOL0     C19374   9.101   0.023   6.356 -0.5560 -0.3538 -0.6461
  905MOL0     O19375   9.055   0.388   6.297  0.3837 -0.1826  0.3342
  905MOL0     C19376   8.887   0.554   6.463  0.3775  0.0403  0.3733
  905MOL0     C19377   8.795   0.627   6.544 -0.6439 -0.6889 -0.3358
  905MOL0     N19378   8.952   0.417   7.057  0.7242 -0.4023  0.1625
  905MOL0     N19379   9.051   0.346   7.080  0.2670  0.4149  0.1032
  905MOL0     C19380  10.112   0.325   7.027  0.2159 -0.0518  1.0463
  905MOL0     C19381  10.228   0.406   7.013 -0.2341  0.6964 -0.1515
  905MOL0     C19382  10.601   0.615   6.971 -0.3903  0.5212 -0.0814
  905MOL0     C19383  10.715   0.530   6.954 -0.8488  0.4602 -0.0874
  905MOL0     C19384  10.840   0.572   6.910 -0.3145 -0.6077 -0.1135
  905MOL0     C19385  10.860   0.710   6.877  0.4549  0.9526 -0.6772
  905MOL0     O19386  10.983   0.762   6.845 -0.5817  0.5511 -0.5855
  905MOL0     C19387  10.997   0.779   6.702  0.3810  0.3050 -0.4979
  905MOL0     C19388  11.146   0.778   6.658 -0.1078  0.5831 -0.5542
  905MOL0     C19389  11.193   0.914   6.631 -1.3678 -0.5938 -0.5680
  905MOL0     C19390  11.345   0.934   6.610  0.1441 -1.1463 -0.6739
  905MOL0     C19391  11.374   1.063   6.536 -0.3275  0.6681 -0.0051
  905MOL0     C19392  11.392   1.159   6.462 -0.0397 -0.1182  0.6619
  905MOL0     C19393  10.748   0.797   6.897 -0.7876 -0.1341 -0.2028
  905MOL0     C19394  10.622   0.753   6.927  0.9109 -0.6923  0.2979
  905MOL0     H19395  10.458   0.198   7.128  0.4834 -2.5502 -0.4669
  905MOL0     H19396  10.239   0.058   7.191 -3.3307 -0.1412 -0.2749
  905MOL0     H19397   9.956   0.224   7.294  0.6063 -0.0207  0.7228
  905MOL0     H19398  10.032   0.068   7.287 -0.2948 -1.1432 -1.7159
  905MOL0     H19399   9.806   0.006   7.340 -3.0528  0.0562 -0.1875
  905MOL0     H19400   9.806  -0.027   7.178  0.3557 -2.6615  3.8317
  905MOL0     H19401   9.602   0.097   7.187  0.0038  0.1094  1.4824
  905MOL0     H19402   9.720   0.192   7.098 -0.9687  0.7673  0.2362
  905MOL0     H19403   9.677   0.219   7.394 -0.3500  1.0387  0.1086
  905MOL0     H19404   9.761   0.335   7.302 -2.1472  3.1427 -0.0327
  905MOL0     H19405   9.540   0.372   7.177 -0.0761 -0.6841  1.1433
  905MOL0     H19406   9.551   0.427   7.343 -3.2436  0.3842 -0.2839
  905MOL0     H19407   9.442   0.189   7.380 -1.5560 -3.0676 -1.5599
  905MOL0     H19408   9.431   0.185   7.197 -2.8975  1.7960 -1.6950
  905MOL0     H19409   9.313   0.407   7.361 -1.0921  2.4022 -1.5721
  905MOL0     H19410   9.324   0.394   7.186 -4.7615 -0.6336 -1.3847
  905MOL0     H19411   9.150   0.223   7.372 -1.0044  3.1273  0.7006
  905MOL0     H19412   9.195   0.170   7.207  3.2760  1.2406 -0.6650
  905MOL0     H19413   8.966   0.422   7.380 -0.4888 -0.3286 -0.1796
  905MOL0     H19414   8.745   0.558   7.284 -0.6213  4.7965 -0.6069
  905MOL0     H19415   8.696   0.490   7.123 -2.3192  3.8822 -1.2651
  905MOL0     H19416   8.866   0.733   7.195 -0.5222 -0.3357  0.4780
  905MOL0     H19417   8.702   0.749   7.156  0.1341  0.7286 -1.8178
  905MOL0     H19418   8.819   0.816   6.968 -0.1308  0.4619  3.0758
  905MOL0     H19419   8.888   0.650   6.952 -0.7656 -1.1743  1.1040
  905MOL0     H19420   8.594   0.696   6.941 -0.0981 -0.3367  1.8548
  905MOL0     H19421   8.679   0.543   6.915  0.5303  0.0358  0.1965
  905MOL0     H19422   8.859   0.444   6.833  0.9129 -1.0760 -0.1071
  905MOL0     H19423   8.983   0.308   6.680  0.4480 -0.5839  0.8036
  905MOL0     H19424   9.304   0.292   6.336  3.0159 -1.6763  1.1604
  905MOL0     H19425   9.420   0.136   6.169  0.5370 -0.0737  1.0435
  905MOL0     H19426   9.221  -0.229   5.995 -0.0699  1.2370 -0.9051
  905MOL0     H19427   9.321  -0.287   6.148  1.4304  1.8588  1.2720
  905MOL0     H19428   9.510  -0.278   6.050 -0.8321  2.7926  0.0946
  905MOL0     H19429   9.472  -0.237   5.896  1.1767  0.1847  0.9504
  905MOL0     H19430   9.364  -0.473   5.864  0.4540 -2.2885  0.0833
  905MOL0     H19431   9.383  -0.504   6.035 -2.6070 -0.7948 -1.5742
  905MOL0     H19432   9.588  -0.442   5.827  1.9351 -0.1411 -0.3701
  905MOL0     H19433   9.642  -0.464   5.996  1.6117 -1.0533 -1.1513
  905MOL0     H19434   9.480  -0.668   5.834  0.2517  0.4365  0.0270
  905MOL0     H19435   9.562  -0.681   6.002  0.0019  0.0505 -0.5261
  905MOL0     H19436   9.672  -0.715   5.732  2.1473  0.7374  0.2316
  905MOL0     H19437   9.685  -0.823   5.875 -1.8196 -0.1585 -0.2985
  905MOL0     H19438   9.821  -0.553   5.838  1.8458 -0.2012  0.9578
  905MOL0     H19439   9.825  -0.638   5.992 -3.4753  3.5255  0.4338
  905MOL0     H19440   9.933  -0.831   5.899 -0.6583 -0.5702  0.5079
  905MOL0     H19441  10.027  -0.678   5.878  1.4359 -0.3438 -1.6003
  905MOL0     H19442   9.104  -0.152   6.236 -1.5877  0.1354 -0.9769
  905MOL0     H19443   9.014  -0.005   6.414  1.2433 -0.4348  2.2508
  905MOL0     H19444   8.915   0.586   6.364  2.1966 -2.4473 -0.0076
  905MOL0     H19445   8.731   0.704   6.503  1.2817  1.5333  0.6021
  905MOL0     H19446  10.013   0.350   6.991 -0.6986 -0.7887  2.9464
  905MOL0     H19447  10.218   0.495   6.951  0.9769 -1.3433 -3.5293
  905MOL0     H19448  10.711   0.430   6.996 -0.9163  1.3850  2.2730
  905MOL0     H19449  10.923   0.503   6.897  0.5540  0.6542 -1.5971
  905MOL0     H19450  10.946   0.870   6.667 -1.0487 -0.2282  0.1282
  905MOL0     H19451  10.955   0.689   6.656 -0.0582  0.0410  0.4037
  905MOL0     H19452  11.208   0.727   6.733  2.5602  0.5397 -2.6225
  905MOL0     H19453  11.154   0.715   6.569  1.9084 -3.3239  2.1086
  905MOL0     H19454  11.167   0.979   6.714  3.2290 -0.9471  1.4204
  905MOL0     H19455  11.138   0.951   6.544 -2.1247  1.5223  0.7426
  905MOL0     H19456  11.401   0.935   6.705 -0.3118 -2.2769 -0.3752
  905MOL0     H19457  11.387   0.855   6.548  0.6126 -2.5607  1.3322
  905MOL0     H19458  11.397   1.247   6.401  0.7717  0.9251  2.1475
  905MOL0     H19459  10.756   0.901   6.868 -0.1368 -0.3178 -0.6978
  905MOL0     H19460  10.547   0.832   6.926  2.2171  0.5991 -1.8267
  906MOL0     O19461   9.710   5.131  10.411 -0.1277  0.6138 -0.1601
  906MOL0     C19462   9.799   5.207  10.386  0.5162 -0.4743  0.8473
  906MOL0     O19463   9.788   5.330  10.319 -0.6821  0.4346 -0.4785
  906MOL0     C19464   9.669   5.394  10.293  0.2428 -0.3613  0.1758
  906MOL0     C19465   9.540   5.324  10.284 -0.6187  0.1159 -0.0356
  906MOL0     C19466   9.428   5.396  10.248 -0.0587 -0.3563  0.3582
  906MOL0     C19467   9.438   5.531  10.219 -0.2100 -0.2254  0.5460
  906MOL0     O19468   9.333   5.613  10.188 -0.5685  0.3193  0.0883
  906MOL0     C19469   9.194   5.570  10.206 -0.3069  0.5606 -0.8674
  906MOL0     C19470   9.095   5.687  10.198  0.1329 -0.0374  0.2142
  906MOL0     C19471   9.103   5.795  10.307 -0.7298 -0.3455  0.5936
  906MOL0     C19472   9.219   5.891  10.313 -0.7970  0.1170 -0.4737
  906MOL0     C19473   9.230   5.964  10.452  0.4670 -0.6495 -0.5231
  906MOL0     C19474   9.319   6.079  10.461 -0.8587  0.2154  0.1892
  906MOL0     C19475   9.274   6.202  10.392  0.9865  0.2347  0.2062
  906MOL0     C19476   9.198   6.311  10.472  0.3040  0.2332 -0.3387
  906MOL0     N19477   9.058   6.276  10.501  0.4821 -0.2834  0.1415
  906MOL0     C19478   8.997   6.325  10.616 -0.0798  0.1361  0.5633
  906MOL0     C19479   8.866   6.283  10.599 -0.5605 -0.2289  0.4898
  906MOL0     C19480   8.767   6.294  10.706  0.0353  0.2346  1.3497
  906MOL0     C19481   8.643   6.355  10.654  0.3875  0.1578  0.0481
  906MOL0     C19482   8.547   6.401  10.758  0.4401  0.2753  0.3706
  906MOL0     C19483   8.418   6.468  10.686  0.1933  0.7113 -0.2135
  906MOL0     O19484   8.331   6.479  10.796  0.0762 -0.1894 -0.1604
  906MOL0     C19485   8.208   6.517  10.774  0.1222  0.6000  0.3343
  906MOL0     C19486   8.125   6.522  10.892  0.0894 -0.5203 -0.6216
  906MOL0     C19487   7.999   6.564  10.887  0.6721 -0.2070 -0.0981
  906MOL0     C19488   7.941   6.607  10.765  0.1156 -0.5558  0.6374
  906MOL0     C19489   7.804   6.657  10.753  0.7740 -0.0199  0.1191
  906MOL0     O19490   7.721   6.616  10.853  0.4755  0.2429 -0.2529
  906MOL0     C19491   7.585   6.647  10.853 -0.4358  0.1154 -0.2005
  906MOL0     C19492   7.535   6.721  10.960 -0.2489 -0.1594 -0.2937
  906MOL0     C19493   7.394   6.750  10.968  0.7540  0.1488  0.6270
  906MOL0     C19494   7.302   6.695  10.871 -0.1163 -0.7420  0.3175
  906MOL0     O19495   7.160   6.693  10.880 -0.0870 -0.5715  0.0507
  906MOL0     C19496   7.105   6.795  10.959  0.6073  0.0128  0.0797
  906MOL0     C19497   6.955   6.757  10.956 -0.3013 -0.0935 -0.4006
  906MOL0     C19498   6.894   6.761  10.815 -1.1543  1.0906 -0.0301
  906MOL0     C19499   6.744   6.781  10.820 -0.7739 -0.1534  0.5371
  906MOL0     C19500   6.674   6.776  10.676 -0.1834 -0.2686  0.1930
  906MOL0     C19501   6.639   6.641  10.636 -0.0017  1.1020  1.1172
  906MOL0     C19502   6.564   6.638  10.504  0.3972 -0.5481 -0.2474
  906MOL0     C19503   6.556   6.502  10.441  0.3707 -0.0354 -0.2628
  906MOL0    Cl19504   6.429   6.498  10.315 -0.1806 -0.1808 -0.1451
  906MOL0     C19505   7.350   6.627  10.767 -0.4025  0.1953  0.0825
  906MOL0     C19506   7.491   6.602  10.755 -0.3578 -0.3366 -0.1818
  906MOL0     O19507   7.766   6.724  10.659  0.0954  0.1213 -0.6509
  906MOL0     C19508   8.023   6.602  10.647 -0.0347 -0.3100 -0.6922
  906MOL0     C19509   8.148   6.550  10.649  0.0215 -0.2340 -0.0528
  906MOL0     N19510   8.856   6.219  10.472  1.4431 -0.1529  0.2409
  906MOL0     N19511   8.965   6.222  10.411 -0.4899 -0.4024 -0.5835
  906MOL0     C19512   9.554   5.601  10.227 -0.4532  0.0167 -0.3211
  906MOL0     C19513   9.675   5.533  10.264  0.1563 -0.4062 -0.3862
  906MOL0     C19514   9.941   5.160  10.405  0.2721  0.2043  0.2523
  906MOL0     C19515  10.042   5.215  10.331 -1.3322  0.5196  0.2686
  906MOL0     C19516  10.174   5.176  10.357 -0.5325 -0.4481 -0.8174
  906MOL0     C19517  10.205   5.073  10.452 -0.0183  0.5412 -0.0791
  906MOL0     O19518  10.333   5.041  10.481 -0.3649  0.3184  0.5612
  906MOL0     C19519  10.382   4.913  10.461 -0.1076 -0.4135  0.7915
  906MOL0     C19520  10.527   4.908  10.514  0.4328  0.0173  0.2610
  906MOL0     C19521  10.551   4.959  10.657 -0.2654 -0.2784 -1.0238
  906MOL0     C19522  10.703   4.936  10.698  0.1510 -0.1411 -0.1370
  906MOL0     C19523  10.806   4.983  10.608  0.2405  0.3254 -0.5848
  906MOL0     C19524  10.903   5.001  10.540 -0.8724 -0.7429 -0.7656
  906MOL0     C19525  10.099   5.009  10.508  0.1392 -0.5270  0.1013
  906MOL0     C19526   9.973   5.060  10.494 -0.4924  0.2736 -0.0854
  906MOL0     H19527   9.535   5.217  10.300 -0.4031 -0.0678 -1.1427
  906MOL0     H19528   9.332   5.346  10.250 -1.7423  2.4993 -1.5734
  906MOL0     H19529   9.177   5.509  10.295  0.5185  1.0253 -0.3769
  906MOL0     H19530   9.166   5.507  10.121  2.0063 -1.0724 -0.4997
  906MOL0     H19531   8.997   5.638  10.204  1.7848 -3.4250  3.7012
  906MOL0     H19532   9.110   5.732  10.099  0.0909  0.1538  0.2937
  906MOL0     H19533   9.102   5.744  10.404  2.9566 -0.5660  0.6838
  906MOL0     H19534   9.014   5.855  10.289 -0.7298 -0.8920 -1.4851
  906MOL0     H19535   9.315   5.842  10.297 -0.3359  0.9881 -0.4323
  906MOL0     H19536   9.207   5.963  10.232 -1.6496  1.0175  0.4281
  906MOL0     H19537   9.268   5.891  10.524 -1.7055 -4.0257 -2.5527
  906MOL0     H19538   9.130   5.993  10.484  0.3189  2.8233 -3.4668
  906MOL0     H19539   9.416   6.053  10.418 -0.9417  0.1869  0.0174
  906MOL0     H19540   9.335   6.116  10.563 -0.8173  1.4072 -0.2389
  906MOL0     H19541   9.362   6.256  10.356  0.1217  0.9301 -0.9434
  906MOL0     H19542   9.225   6.165  10.301 -0.2381 -0.1916  1.0092
  906MOL0     H19543   9.206   6.404  10.416  0.8510 -1.5305 -3.4237
  906MOL0     H19544   9.251   6.327  10.567  0.3188  1.5548 -0.5522
  906MOL0     H19545   9.045   6.373  10.700  1.2231  0.9368 -0.6083
  906MOL0     H19546   8.810   6.356  10.786  3.1075  0.5989 -0.3982
  906MOL0     H19547   8.762   6.191  10.743 -2.7641  0.4615  1.7679
  906MOL0     H19548   8.594   6.285  10.585  0.9809  0.6273 -0.8751
  906MOL0     H19549   8.663   6.444  10.592  0.5294 -1.3144 -2.1443
  906MOL0     H19550   8.504   6.316  10.812  0.8049 -0.3748 -0.3496
  906MOL0     H19551   8.579   6.476  10.830 -0.8475 -0.2491  1.5318
  906MOL0     H19552   8.378   6.391  10.619  1.3381 -2.2190  2.1793
  906MOL0     H19553   8.442   6.565  10.643  0.5351  1.3002  1.2310
  906MOL0     H19554   8.179   6.486  10.979  2.0001 -1.2910 -2.0427
  906MOL0     H19555   7.939   6.578  10.977 -0.3242 -2.1494 -0.4083
  906MOL0     H19556   7.593   6.756  11.044 -2.2952 -0.4359  1.3176
  906MOL0     H19557   7.357   6.823  11.040  0.0019  1.9157 -1.4436
  906MOL0     H19558   7.117   6.894  10.915 -0.0969  0.9577  1.8835
  906MOL0     H19559   7.147   6.792  11.060 -2.3224  0.0908  1.4018
  906MOL0     H19560   6.908   6.832  11.020 -0.7787 -1.3413  0.7537
  906MOL0     H19561   6.929   6.658  10.994 -1.0409 -0.3918 -1.6283
  906MOL0     H19562   6.921   6.671  10.759 -3.1422 -0.3518  1.1860
  906MOL0     H19563   6.935   6.844  10.757 -1.4449 -0.7046 -3.0010
  906MOL0     H19564   6.710   6.694  10.877  0.5560 -0.2663  1.2001
  906MOL0     H19565   6.722   6.876  10.869 -1.8510 -0.5352  0.8196
  906MOL0     H19566   6.745   6.815  10.603  0.2298  2.0225  1.7305
  906MOL0     H19567   6.588   6.844  10.675  0.2963  0.3673  1.1179
  906MOL0     H19568   6.588   6.586  10.716 -0.0994 -0.2526  0.1558
  906MOL0     H19569   6.731   6.585  10.614  0.0990  1.5347  0.4146
  906MOL0     H19570   6.460   6.669  10.517  1.1264  1.5521  1.4264
  906MOL0     H19571   6.616   6.716  10.447  0.4319  0.8868  1.6320
  906MOL0     H19572   6.516   6.435  10.518 -4.9442  2.8839  0.0019
  906MOL0     H19573   6.651   6.461  10.406  0.2191 -1.2061  0.6232
  906MOL0     H19574   7.272   6.603  10.695  2.1504 -1.2117 -2.4487
  906MOL0     H19575   7.528   6.540  10.674  0.9806  0.8765 -0.5305
  906MOL0     H19576   7.985   6.623  10.548 -0.7728 -1.5050 -0.6812
  906MOL0     H19577   8.204   6.544  10.556  1.2870  2.0302  0.4994
  906MOL0     H19578   9.549   5.707  10.202 -1.5285 -0.4051 -2.0866
  906MOL0     H19579   9.772   5.583  10.267  0.0872 -0.0353 -2.6059
  906MOL0     H19580  10.025   5.294  10.258  0.5139 -1.3583 -2.3691
  906MOL0     H19581  10.258   5.220  10.304  1.2791  2.0229  3.5529
  906MOL0     H19582  10.382   4.897  10.353 -0.3634  1.3793  0.4880
  906MOL0     H19583  10.315   4.840  10.507 -0.3122 -0.5802  0.2445
  906MOL0     H19584  10.551   4.801  10.517  0.1899 -0.1171 -1.3887
  906MOL0     H19585  10.599   4.948  10.442  0.0196  0.8068  0.2776
  906MOL0     H19586  10.488   4.907  10.729  1.5028 -0.0356  0.7919
  906MOL0     H19587  10.539   5.068  10.655  0.1572 -0.1870  0.2282
  906MOL0     H19588  10.712   4.991  10.792 -2.8582 -2.1025  1.4545
  906MOL0     H19589  10.719   4.829  10.714 -1.0348 -0.1841  0.9758
  906MOL0     H19590  10.990   5.042  10.493 -0.0252  3.0380  3.3989
  906MOL0     H19591  10.104   4.930  10.582 -2.0796 -1.5863 -0.7745
  906MOL0     H19592   9.890   5.007  10.542  1.0752 -2.3803 -0.1109
  907MOL0     O19593   4.050   3.558   1.792 -0.3810 -0.3312  0.1621
  907MOL0     C19594   4.128   3.643   1.742  0.4743 -0.4908 -0.4147
  907MOL0     O19595   4.093   3.769   1.698  0.0467 -0.3381  0.1204
  907MOL0     C19596   3.962   3.814   1.730 -0.0383 -0.1211 -0.8722
  907MOL0     C19597   3.930   3.865   1.855 -1.1900  0.1526  0.2976
  907MOL0     C19598   3.799   3.914   1.874 -0.7749 -0.0611 -0.1336
  907MOL0     C19599   3.700   3.916   1.773 -0.1872 -0.1317 -0.6962
  907MOL0     O19600   3.575   3.971   1.792 -0.3646 -0.2645  0.6095
  907MOL0     C19601   3.516   3.966   1.926 -0.0895 -0.9991  0.3723
  907MOL0     C19602   3.373   4.038   1.926  0.6072  0.3287 -0.3449
  907MOL0     C19603   3.275   3.949   1.845  0.4933 -1.4097  0.0707
  907MOL0     C19604   3.139   4.006   1.858 -0.1253  0.0448  0.1221
  907MOL0     C19605   3.111   4.143   1.793 -0.2757 -0.6510 -0.3723
  907MOL0     C19606   2.960   4.184   1.807  0.4244  0.0391  0.5383
  907MOL0     C19607   2.919   4.328   1.767  0.5284  1.0147  0.4668
  907MOL0     C19608   2.766   4.352   1.777 -0.3498 -0.1592 -0.9017
  907MOL0     N19609   2.705   4.277   1.668  0.7009  0.2987 -0.6003
  907MOL0     C19610   2.723   4.303   1.535 -0.0206  0.5259  0.6229
  907MOL0     C19611   2.640   4.214   1.481  0.2927 -0.0816  0.8079
  907MOL0     C19612   2.618   4.198   1.329 -0.6961 -0.1677 -0.2191
  907MOL0     C19613   2.468   4.155   1.301  0.0865  0.7336  0.7299
  907MOL0     C19614   2.435   4.003   1.320 -0.2902 -0.9934 -0.1581
  907MOL0     C19615   2.285   3.974   1.316 -0.8354  0.8714  0.1939
  907MOL0     O19616   2.267   3.834   1.298  0.7284 -0.0965 -0.3745
  907MOL0     C19617   2.133   3.783   1.318 -0.1093  0.3685  0.1024
  907MOL0     C19618   2.122   3.645   1.290  0.1247 -0.0646 -0.2261
  907MOL0     C19619   2.002   3.581   1.301  0.0851  0.3482  0.1494
  907MOL0     C19620   1.881   3.645   1.335 -0.3522  0.3899 -0.7899
  907MOL0     C19621   1.746   3.584   1.324  0.8037 -0.2356 -0.4098
  907MOL0     O19622   1.737   3.457   1.282 -0.3960 -0.0979  0.1555
  907MOL0     C19623   1.615   3.405   1.277  0.4949  0.1339  0.1818
  907MOL0     C19624   1.532   3.425   1.169  0.8454 -0.6862  0.0784
  907MOL0     C19625   1.407   3.376   1.158  0.3220  0.0877 -0.0741
  907MOL0     C19626   1.356   3.297   1.259 -1.0977 -0.0799  1.5539
  907MOL0     O19627   1.232   3.254   1.274  0.4249  0.2575  0.6775
  907MOL0     C19628   1.167   3.223   1.149  0.4497 -0.2849 -0.0331
  907MOL0     C19629   1.035   3.154   1.169 -0.4959  0.1153  0.2539
  907MOL0     C19630   0.961   3.143   1.039 -0.2445  0.1427  0.1119
  907MOL0     C19631   0.824   3.081   1.042 -0.1309 -0.4662 -0.2224
  907MOL0     C19632   0.772   3.033   0.913  0.7442 -0.0524  1.1271
  907MOL0     C19633   0.645   2.947   0.925 -0.0287  0.9248 -0.1902
  907MOL0     C19634   0.592   2.894   0.786 -0.2708 -0.1223  0.2887
  907MOL0     C19635   0.486   2.789   0.794  0.2571  0.0973 -0.6588
  907MOL0    Cl19636   0.338   2.834   0.875  0.4077  0.3367  0.0418
  907MOL0     C19637   1.440   3.268   1.371 -0.0823  0.5020  0.0898
  907MOL0     C19638   1.567   3.324   1.376 -0.9504 -0.3588  0.5987
  907MOL0     O19639   1.655   3.664   1.318  0.2722 -0.3881  0.3048
  907MOL0     C19640   1.900   3.783   1.363  1.4255  0.2390 -0.0198
  907MOL0     C19641   2.025   3.842   1.367 -0.4605  0.5738  0.6093
  907MOL0     N19642   2.586   4.132   1.579 -0.1709  0.2606 -0.3955
  907MOL0     N19643   2.625   4.168   1.695 -0.4539  0.6459  0.1876
  907MOL0     C19644   3.736   3.849   1.655  0.5766  0.2276  0.1681
  907MOL0     C19645   3.863   3.799   1.639 -0.5881  0.3547 -0.1278
  907MOL0     C19646   4.271   3.614   1.735 -0.5319 -0.0487 -0.0171
  907MOL0     C19647   4.333   3.499   1.800 -0.2444 -0.8875 -0.3254
  907MOL0     C19648   4.464   3.469   1.784  0.6146  0.1866 -0.0418
  907MOL0     C19649   4.556   3.561   1.737  0.0621 -0.3324 -0.9564
  907MOL0     O19650   4.689   3.521   1.740  0.6918  0.5546  0.7007
  907MOL0     C19651   4.790   3.615   1.768  0.7501  0.2188  0.4120
  907MOL0     C19652   4.917   3.541   1.792  0.8675 -0.7854 -0.1688
  907MOL0     C19653   5.023   3.647   1.796  0.5131  0.1025  0.2384
  907MOL0     C19654   5.159   3.592   1.858 -0.3189  0.1128 -1.0326
  907MOL0     C19655   5.221   3.485   1.769  0.5229 -1.0641 -0.6451
  907MOL0     C19656   5.265   3.398   1.698 -0.2982 -0.7944 -0.3009
  907MOL0     C19657   4.505   3.682   1.690  0.3788  0.2121  0.6985
  907MOL0     C19658   4.368   3.704   1.684 -0.3428 -1.1284  0.7738
  907MOL0     H19659   4.011   3.876   1.926 -0.4473  1.0617 -0.6549
  907MOL0     H19660   3.797   3.971   1.966 -0.1534  1.1907 -0.8613
  907MOL0     H19661   3.590   4.016   1.988  0.0941  0.5361 -1.0190
  907MOL0     H19662   3.505   3.859   1.948 -1.2021 -1.2393 -1.2049
  907MOL0     H19663   3.382   4.140   1.886 -2.2929 -0.2261 -2.7706
  907MOL0     H19664   3.339   4.041   2.030  2.2543  1.2062  0.2074
  907MOL0     H19665   3.264   3.851   1.891 -3.3517 -0.0866  2.4515
  907MOL0     H19666   3.301   3.940   1.739  0.0225 -0.5224 -0.1315
  907MOL0     H19667   3.069   3.947   1.797  0.6331 -0.2251 -0.5066
  907MOL0     H19668   3.107   3.996   1.962  0.4536 -1.5076  0.1762
  907MOL0     H19669   3.142   4.157   1.689 -0.6718  2.3238 -0.2025
  907MOL0     H19670   3.171   4.210   1.856 -2.6656 -1.5986  3.2561
  907MOL0     H19671   2.934   4.180   1.914 -0.7948 -1.1263  0.2212
  907MOL0     H19672   2.902   4.119   1.743  0.8430  1.7423 -1.6989
  907MOL0     H19673   2.964   4.396   1.840  1.2805  0.7217  0.2838
  907MOL0     H19674   2.955   4.353   1.667 -0.2043  0.7218  0.1220
  907MOL0     H19675   2.744   4.456   1.751  0.4414  0.0021 -0.9776
  907MOL0     H19676   2.731   4.325   1.877  2.4790  0.3355  0.3387
  907MOL0     H19677   2.787   4.367   1.476  0.7984 -3.7373 -3.8223
  907MOL0     H19678   2.682   4.121   1.285  0.9385  1.4536 -0.7680
  907MOL0     H19679   2.646   4.295   1.287 -1.7496 -0.1927 -1.0263
  907MOL0     H19680   2.449   4.190   1.199  0.3299 -2.0523 -0.3567
  907MOL0     H19681   2.406   4.215   1.368 -2.5106 -0.7159 -0.2253
  907MOL0     H19682   2.480   3.955   1.233 -1.0699 -2.9983  0.4876
  907MOL0     H19683   2.479   3.970   1.414  0.7542  1.5110  0.3158
  907MOL0     H19684   2.246   4.017   1.223 -0.0223  1.9779  0.3522
  907MOL0     H19685   2.233   4.020   1.401 -1.0795 -1.0505  1.1357
  907MOL0     H19686   2.207   3.584   1.262 -1.5056 -2.2662 -0.7315
  907MOL0     H19687   1.999   3.472   1.299  2.0973  0.2620 -1.3428
  907MOL0     H19688   1.573   3.489   1.091 -0.7887 -0.4046 -0.5836
  907MOL0     H19689   1.351   3.394   1.067 -2.0649  2.0046  1.6495
  907MOL0     H19690   1.223   3.156   1.082  0.0980 -2.1049  1.4298
  907MOL0     H19691   1.154   3.311   1.086  1.1749 -0.6929 -0.7816
  907MOL0     H19692   0.971   3.209   1.240 -1.5455  1.8132 -1.8978
  907MOL0     H19693   1.061   3.060   1.219  0.4217  0.3620  0.2617
  907MOL0     H19694   1.019   3.088   0.965  1.0118 -2.2439  2.6838
  907MOL0     H19695   0.955   3.243   0.995  3.5408  0.3883 -0.1794
  907MOL0     H19696   0.829   2.997   1.112  3.1039 -0.4672 -0.2854
  907MOL0     H19697   0.759   3.154   1.090  0.4380 -0.5854  0.7556
  907MOL0     H19698   0.851   2.972   0.868  1.9271  1.5220  0.9841
  907MOL0     H19699   0.744   3.113   0.844 -1.3308 -0.1399  1.7877
  907MOL0     H19700   0.563   2.992   0.981 -1.3664  1.1915 -2.2792
  907MOL0     H19701   0.665   2.860   0.989 -0.2194  0.9850 -0.0472
  907MOL0     H19702   0.556   2.977   0.725 -0.2722  0.2805  0.8288
  907MOL0     H19703   0.677   2.840   0.742 -1.0014 -1.2727  0.2576
  907MOL0     H19704   0.527   2.705   0.851 -0.7663  0.8768  1.3553
  907MOL0     H19705   0.471   2.765   0.689  0.4599  1.1661 -0.9446
  907MOL0     H19706   1.415   3.207   1.457  1.7578  1.8864  1.6992
  907MOL0     H19707   1.627   3.293   1.462  2.2905  2.9126 -0.2154
  907MOL0     H19708   1.815   3.834   1.408  1.0965  1.1934 -1.6577
  907MOL0     H19709   2.015   3.947   1.395 -0.6187  1.0019 -0.9968
  907MOL0     H19710   3.673   3.835   1.567  2.8368 -2.9669 -1.1500
  907MOL0     H19711   3.888   3.745   1.549 -1.8693 -1.0194  0.3088
  907MOL0     H19712   4.266   3.432   1.852 -2.8929  0.6250 -1.6050
  907MOL0     H19713   4.491   3.373   1.827 -0.4798 -0.1831 -0.1408
  907MOL0     H19714   4.763   3.682   1.851  1.1670  1.2495 -0.2643
  907MOL0     H19715   4.803   3.674   1.677  2.5998 -2.4105 -1.1487
  907MOL0     H19716   4.912   3.492   1.889 -0.2913  4.7362  2.9985
  907MOL0     H19717   4.928   3.479   1.703 -1.0756 -1.8698  0.2823
  907MOL0     H19718   4.989   3.727   1.862 -1.4922 -1.4945  1.2769
  907MOL0     H19719   5.038   3.683   1.694 -4.5197  1.2084 -0.3777
  907MOL0     H19720   5.230   3.672   1.880 -0.6706  0.4881 -1.2488
  907MOL0     H19721   5.135   3.541   1.952  1.7247 -0.4066 -0.7359
  907MOL0     H19722   5.299   3.314   1.640 -1.3138 -1.6122  0.2643
  907MOL0     H19723   4.572   3.758   1.651  1.1668 -0.5924  0.4480
  907MOL0     H19724   4.335   3.792   1.629 -0.4862 -1.1497  0.8250
  908MOL0     O19725   6.799   4.178  11.026  0.3540 -0.6114 -0.5323
  908MOL0     C19726   6.825   4.097  11.118  0.1275 -0.3502  0.6259
  908MOL0     O19727   6.736   4.002  11.170 -0.8323 -0.2894  0.0258
  908MOL0     C19728   6.619   3.992  11.109 -0.3385  0.8951 -0.4046
  908MOL0     C19729   6.506   4.068  11.149 -0.4154 -0.2699 -0.0504
  908MOL0     C19730   6.382   4.044  11.098  0.2046  0.4790 -1.4378
  908MOL0     C19731   6.359   3.950  10.998  0.8678  0.3270  0.4645
  908MOL0     O19732   6.238   3.937  10.930 -0.9167  0.0379  0.2364
  908MOL0     C19733   6.122   4.012  10.970  0.0168 -0.9073  0.3216
  908MOL0     C19734   6.002   3.968  10.885 -0.3332 -0.6330 -0.0545
  908MOL0     C19735   5.882   4.061  10.897 -0.1519 -0.2966  0.1224
  908MOL0     C19736   5.768   4.018  10.813  0.5726  0.0651  0.0191
  908MOL0     C19737   5.677   4.141  10.794  0.5794  0.0955 -0.3345
  908MOL0     C19738   5.568   4.108  10.699  0.4452  0.3811 -0.0379
  908MOL0     C19739   5.439   4.199  10.721  0.0229  0.1281 -0.3016
  908MOL0     C19740   5.465   4.352  10.679  0.7157  0.2677  0.2904
  908MOL0     N19741   5.343   4.433  10.662 -0.5596 -0.0072  0.3271
  908MOL0     C19742   5.292   4.516  10.757  0.1189  0.0843 -0.5785
  908MOL0     C19743   5.172   4.553  10.706 -0.5348 -0.0163 -0.3229
  908MOL0     C19744   5.081   4.656  10.773 -0.7466  0.3618 -0.1927
  908MOL0     C19745   5.010   4.591  10.898  0.3798 -0.6779  0.5482
  908MOL0     C19746   4.960   4.706  10.984  0.0196 -0.0504  0.6355
  908MOL0     C19747   4.872   4.806  10.916  0.3842  0.2223 -0.5736
  908MOL0     O19748   4.781   4.744  10.822 -0.1917 -0.8224  0.2767
  908MOL0     C19749   4.664   4.688  10.859  0.8810 -0.5529 -1.2858
  908MOL0     C19750   4.622   4.683  10.998  0.6699  0.3331 -0.3237
  908MOL0     C19751   4.488   4.652  11.023 -0.7577  0.2819  0.1088
  908MOL0     C19752   4.396   4.618  10.922  1.0287  0.0017  0.4103
  908MOL0     C19753   4.257   4.580  10.959 -0.0457 -0.1261 -0.7347
  908MOL0     O19754   4.228   4.583  11.091  0.4063  0.2396 -0.4901
  908MOL0     C19755   4.113   4.528  11.128 -0.2502  0.2252 -0.8405
  908MOL0     C19756   3.993   4.565  11.071 -0.4432  0.0886 -0.7564
  908MOL0     C19757   3.868   4.504  11.118 -1.4956  0.4962  0.3335
  908MOL0     C19758   3.872   4.405  11.226 -0.7390 -0.8679  0.2609
  908MOL0     O19759   3.768   4.338  11.281 -1.0468  0.0395 -0.4861
  908MOL0     C19760   3.634   4.393  11.266  0.2119 -0.0379  0.2503
  908MOL0     C19761   3.576   4.349  11.137  0.5027  0.5634 -0.0754
  908MOL0     C19762   3.442   4.427  11.102  0.4160 -0.5793  0.2004
  908MOL0     C19763   3.366   4.394  10.974 -0.4642 -0.0952 -0.5458
  908MOL0     C19764   3.232   4.464  10.981 -0.1482  0.2250  0.0841
  908MOL0     C19765   3.227   4.614  10.979 -0.1382  0.0132 -0.1751
  908MOL0     C19766   3.082   4.665  10.960 -0.3009 -0.4477 -0.6833
  908MOL0     C19767   3.079   4.811  10.943  1.0083  0.5241 -0.0825
  908MOL0    Cl19768   3.178   4.890  11.072 -0.3280 -0.0328 -0.1910
  908MOL0     C19769   3.998   4.366  11.271  0.7016  0.1364 -0.2206
  908MOL0     C19770   4.115   4.428  11.221 -0.2618  1.0382 -0.4359
  908MOL0     O19771   4.182   4.556  10.865  0.0187 -0.1400  0.4675
  908MOL0     C19772   4.442   4.623  10.791 -0.2752 -0.4315 -0.5097
  908MOL0     C19773   4.572   4.649  10.758  0.7823  0.4334 -0.7180
  908MOL0     N19774   5.161   4.509  10.574  0.4172  0.0564 -0.3775
  908MOL0     N19775   5.267   4.438  10.551  0.2044 -1.0833 -0.3489
  908MOL0     C19776   6.467   3.873  10.953 -0.7535  0.1496  0.6675
  908MOL0     C19777   6.600   3.895  11.012 -0.3695 -0.1479  0.1700
  908MOL0     C19778   6.960   4.099  11.178  0.1421  0.3975  0.3603
  908MOL0     C19779   7.056   4.192  11.135 -0.2390 -0.8754 -0.4232
  908MOL0     C19780   7.190   4.190  11.181  0.1805 -0.1562 -0.9084
  908MOL0     C19781   7.235   4.078  11.254 -0.1657 -0.0139  0.4020
  908MOL0     O19782   7.367   4.060  11.297 -0.5849 -0.8268  0.6034
  908MOL0     C19783   7.468   4.166  11.263 -0.2090  0.0865 -0.3434
  908MOL0     C19784   7.598   4.151  11.342  0.3144  0.1890  0.1996
  908MOL0     C19785   7.567   4.187  11.497 -0.1060  0.3716  0.1133
  908MOL0     C19786   7.678   4.153  11.593 -0.2458  0.5554  1.0467
  908MOL0     C19787   7.642   4.158  11.737 -0.1967  0.3265 -0.1589
  908MOL0     C19788   7.606   4.184  11.847 -0.6139 -0.0473 -0.5070
  908MOL0     C19789   7.140   3.989  11.296 -0.8258  0.9913 -0.2145
  908MOL0     C19790   7.008   3.992  11.259  0.5085 -0.6499 -0.7344
  908MOL0     H19791   6.520   4.148  11.222  1.1170 -0.9860  0.4783
  908MOL0     H19792   6.295   4.090  11.144 -0.4250 -1.5074 -0.5183
  908MOL0     H19793   6.145   4.116  10.944  1.3501 -1.0306  0.8988
  908MOL0     H19794   6.102   4.014  11.078  0.8697  1.4029  0.5123
  908MOL0     H19795   5.957   3.871  10.906 -1.3085 -0.5171 -1.5010
  908MOL0     H19796   6.030   3.963  10.780 -1.8003  1.5637 -0.6049
  908MOL0     H19797   5.912   4.162  10.867 -2.0117  0.9291  2.0800
  908MOL0     H19798   5.860   4.063  11.004  1.5848  3.7634  0.5957
  908MOL0     H19799   5.806   3.981  10.717 -2.1664 -0.5255 -0.9200
  908MOL0     H19800   5.709   3.935  10.852  2.6178 -0.9109  1.2112
  908MOL0     H19801   5.728   4.235  10.768  1.2932  0.2209  1.3428
  908MOL0     H19802   5.624   4.165  10.887 -1.4472  2.0963 -1.9039
  908MOL0     H19803   5.538   4.004  10.715 -0.6290  0.9506  2.0483
  908MOL0     H19804   5.605   4.119  10.597 -2.8197  0.0823 -1.3635
  908MOL0     H19805   5.358   4.153  10.662 -1.0249 -2.4997  2.9076
  908MOL0     H19806   5.409   4.187  10.825 -0.8949 -1.0124 -0.6632
  908MOL0     H19807   5.528   4.349  10.590  0.7458  0.0721  0.3172
  908MOL0     H19808   5.527   4.404  10.753  1.1492  0.5191 -0.2414
  908MOL0     H19809   5.328   4.553  10.853  1.8957  4.5398 -2.7075
  908MOL0     H19810   5.005   4.700  10.709  1.0621  2.1076 -1.2720
  908MOL0     H19811   5.155   4.728  10.810 -0.5550 -0.7177  1.6382
  908MOL0     H19812   5.067   4.527  10.967  0.6065 -1.2709 -0.1711
  908MOL0     H19813   4.928   4.528  10.861 -1.3036  1.5603  0.2286
  908MOL0     H19814   4.903   4.667  11.069 -2.2181  2.5692  0.4754
  908MOL0     H19815   5.049   4.755  11.024  1.2554 -1.7468  0.1033
  908MOL0     H19816   4.932   4.877  10.858  1.7566 -0.6575 -0.2948
  908MOL0     H19817   4.820   4.855  10.999  0.2872 -1.3373  0.3196
  908MOL0     H19818   4.683   4.719  11.080 -1.7244 -1.9009  2.6745
  908MOL0     H19819   4.450   4.674  11.122 -1.8492 -2.2109  0.3202
  908MOL0     H19820   3.979   4.653  11.009  0.5264  0.4822 -0.4358
  908MOL0     H19821   3.768   4.522  11.079 -1.0152  3.0366  0.1006
  908MOL0     H19822   3.642   4.502  11.267  0.9439 -0.0322 -1.8215
  908MOL0     H19823   3.570   4.367  11.352 -0.5542 -0.5833 -0.4705
  908MOL0     H19824   3.558   4.242  11.150  0.6485  0.6101  0.5401
  908MOL0     H19825   3.645   4.359  11.053 -1.6854 -0.0543 -2.0890
  908MOL0     H19826   3.466   4.533  11.088  1.6948 -0.4957  2.5347
  908MOL0     H19827   3.373   4.405  11.183 -1.2167  1.6683 -0.4932
  908MOL0     H19828   3.420   4.424  10.883 -0.4601 -3.1436 -1.6912
  908MOL0     H19829   3.347   4.286  10.971  0.3067 -0.2483 -0.1999
  908MOL0     H19830   3.167   4.407  11.049  1.3376 -4.4049 -1.9113
  908MOL0     H19831   3.196   4.426  10.885 -0.1782 -2.2387  0.9891
  908MOL0     H19832   3.296   4.649  10.901  0.4904 -0.9374 -0.0531
  908MOL0     H19833   3.268   4.652  11.073  0.3537 -0.9205 -0.0087
  908MOL0     H19834   3.029   4.617  10.877 -1.6384 -0.7814  0.3374
  908MOL0     H19835   3.037   4.640  11.056 -1.4373  0.4756 -0.9584
  908MOL0     H19836   2.978   4.851  10.951  0.2837 -0.6194 -2.6513
  908MOL0     H19837   3.120   4.835  10.845  0.2318  1.9521 -0.0872
  908MOL0     H19838   3.998   4.293  11.351 -0.0862  0.0791 -0.2737
  908MOL0     H19839   4.208   4.385  11.257 -2.3003 -0.6596  3.4903
  908MOL0     H19840   4.386   4.598  10.701  1.9836 -0.7921 -1.9038
  908MOL0     H19841   4.601   4.651  10.654  2.2327 -1.6340 -0.3991
  908MOL0     H19842   6.451   3.795  10.879 -0.7605  0.9181 -0.1580
  908MOL0     H19843   6.688   3.837  10.985  1.3416  1.2612  2.3543
  908MOL0     H19844   7.028   4.278  11.074 -2.1025  0.9673  2.7627
  908MOL0     H19845   7.254   4.273  11.153  0.4195  1.0753  2.7819
  908MOL0     H19846   7.437   4.269  11.279  1.8330  0.9240 -1.4057
  908MOL0     H19847   7.483   4.167  11.154 -2.7095  0.3598 -0.7400
  908MOL0     H19848   7.631   4.047  11.343 -1.2398 -0.4003 -2.3756
  908MOL0     H19849   7.682   4.209  11.303 -0.3354 -0.8352 -3.0245
  908MOL0     H19850   7.478   4.128  11.518  1.4718 -1.8929  0.8662
  908MOL0     H19851   7.553   4.296  11.494  1.4877  0.6123  0.6177
  908MOL0     H19852   7.710   4.051  11.568 -2.7165  0.2718 -1.3598
  908MOL0     H19853   7.761   4.223  11.581  1.2898 -0.8765  2.6750
  908MOL0     H19854   7.575   4.220  11.943 -1.8407 -1.6257 -0.2501
  908MOL0     H19855   7.170   3.907  11.362 -3.0902 -1.5347 -2.0982
  908MOL0     H19856   6.929   3.934  11.306 -0.8207  0.6710 -1.2588
  909MOL0     O19857  10.760   9.480   9.000  0.1059 -0.4618 -0.3322
  909MOL0     C19858  10.882   9.471   8.986 -0.1603  0.2089  0.2891
  909MOL0     O19859  10.960   9.563   8.913  0.9390  0.4097 -0.1907
  909MOL0     C19860  10.893   9.662   8.838 -0.1275 -0.0414 -0.5542
  909MOL0     C19861  10.776   9.634   8.754 -0.6567 -0.0132  0.5634
  909MOL0     C19862  10.728   9.736   8.671  0.9132  0.5759 -0.1896
  909MOL0     C19863  10.813   9.851   8.646 -0.8241 -1.1093  0.2608
  909MOL0     O19864  10.788   9.939   8.545  0.9267 -0.6555  0.3866
  909MOL0     C19865  10.645   9.985   8.533  0.3850  0.4860 -0.2141
  909MOL0     C19866  10.633  10.109   8.442 -1.0627  0.6983 -0.5003
  909MOL0     C19867  10.490  10.136   8.408 -0.0385  0.2990 -0.2291
  909MOL0     C19868  10.474  10.258   8.315 -0.5058  0.5901 -0.2581
  909MOL0     C19869  10.327  10.266   8.279 -0.1078 -0.4149  0.4895
  909MOL0     C19870  10.299  10.363   8.160  0.0435  0.4632 -0.4767
  909MOL0     C19871  10.333  10.512   8.184 -0.3136  0.2847  0.3864
  909MOL0     C19872  10.265  10.590   8.300 -0.4470 -0.8014  0.0338
  909MOL0     N19873  10.122  10.608   8.272 -0.1300  0.0082  1.2906
  909MOL0     C19874  10.059  10.681   8.172  0.4187  0.5419 -0.0638
  909MOL0     C19875   9.929  10.648   8.182  0.2051 -0.8719 -0.7802
  909MOL0     C19876   9.817  10.701   8.090 -0.6209 -0.0097  0.0232
  909MOL0     C19877   9.743  10.817   8.158 -0.3042 -0.2387  0.0161
  909MOL0     C19878   9.633  10.782   8.255  0.6486  0.4143 -0.2017
  909MOL0     C19879   9.538  10.897   8.292 -0.4586  0.2020 -0.6509
  909MOL0     O19880   9.476  10.936   8.178 -0.9856 -0.1435  0.5728
  909MOL0     C19881   9.347  10.973   8.171  0.2643  0.6126 -0.0395
  909MOL0     C19882   9.271  10.998   8.290  1.1227  0.6014  0.0807
  909MOL0     C19883   9.134  11.021   8.279 -0.4398 -0.0745 -0.6812
  909MOL0     C19884   9.065  11.018   8.154 -0.2465 -0.0896 -0.8772
  909MOL0     C19885   8.927  11.068   8.131  0.0740 -0.3483 -0.3142
  909MOL0     O19886   8.878  11.130   8.242 -1.1287  0.1553  0.2965
  909MOL0     C19887   8.771  11.217   8.243  0.5144  0.7871  0.7598
  909MOL0     C19888   8.660  11.206   8.151 -0.2451 -0.5145  0.3084
  909MOL0     C19889   8.552  11.293   8.157 -0.6226  0.1938  0.0032
  909MOL0     C19890   8.536  11.378   8.265  0.0381 -0.0433  0.5098
  909MOL0     O19891   8.441  11.470   8.255  0.0893 -0.5066 -0.2866
  909MOL0     C19892   8.425  11.570   8.355  0.0041  0.1771 -0.4775
  909MOL0     C19893   8.297  11.647   8.321  0.1206 -0.5972 -0.2429
  909MOL0     C19894   8.296  11.770   8.417 -0.4457  0.2039  0.2717
  909MOL0     C19895   8.156  11.844   8.393  0.5313 -0.4762  0.4245
  909MOL0     C19896   8.121  11.922   8.516 -0.0554 -0.2320  0.6122
  909MOL0     C19897   8.221  12.033   8.551 -0.1102  0.4405  0.6267
  909MOL0     C19898   8.251  12.133   8.435  0.4380 -0.0183 -0.2407
  909MOL0     C19899   8.326  12.261   8.489  0.3564 -0.6941 -0.2863
  909MOL0    Cl19900   8.382  12.378   8.356 -0.2737  0.3805 -0.1323
  909MOL0     C19901   8.640  11.383   8.361 -0.1269 -1.0648  0.3697
  909MOL0     C19902   8.753  11.298   8.357  1.0883  0.5768  0.0209
  909MOL0     O19903   8.872  11.046   8.029 -0.0697 -0.3860 -0.4492
  909MOL0     C19904   9.146  10.981   8.039  0.7290  0.1903  0.3306
  909MOL0     C19905   9.279  10.965   8.043 -0.0842  1.1609  0.6393
  909MOL0     N19906   9.913  10.564   8.296 -1.2665 -0.1825  0.0648
  909MOL0     N19907  10.030  10.535   8.340 -0.2975 -0.7021  0.5606
  909MOL0     C19908  10.932   9.867   8.715 -0.5928  1.2735 -0.2963
  909MOL0     C19909  10.960   9.784   8.824  0.0942 -0.0242 -0.3091
  909MOL0     C19910  10.963   9.390   9.071  0.5612  0.1649 -0.1527
  909MOL0     C19911  11.095   9.353   9.033 -0.3003  0.2417  0.3531
  909MOL0     C19912  11.161   9.262   9.113  0.1333  0.7170 -0.5542
  909MOL0     C19913  11.120   9.221   9.238  0.7747  0.5703 -0.2313
  909MOL0     O19914  11.196   9.128   9.310 -0.0744 -0.1740 -0.7930
  909MOL0     C19915  11.335   9.152   9.334  0.0699 -0.3781 -1.0230
  909MOL0     C19916  11.353   9.292   9.405 -0.3080  0.1199  0.2960
  909MOL0     C19917  11.493   9.345   9.402 -0.4239  0.3933  1.0164
  909MOL0     C19918  11.591   9.251   9.486 -0.7189 -0.6842 -0.0026
  909MOL0     C19919  11.700   9.320   9.553 -0.7496 -0.4202  0.1458
  909MOL0     C19920  11.802   9.367   9.598  0.6637  1.0298 -1.0425
  909MOL0     C19921  10.997   9.260   9.278 -0.1726  0.1565 -0.4059
  909MOL0     C19922  10.912   9.347   9.197  0.4168  0.0231  0.0891
  909MOL0     H19923  10.716   9.544   8.741 -0.8234  0.0755  0.7156
  909MOL0     H19924  10.632   9.725   8.621 -0.6535  3.6497  1.7729
  909MOL0     H19925  10.607  10.014   8.631  0.2779 -2.4215  0.6856
  909MOL0     H19926  10.587   9.903   8.490 -0.2933  0.9075 -0.1079
  909MOL0     H19927  10.693  10.088   8.353 -1.5946 -0.7919 -0.5471
  909MOL0     H19928  10.678  10.192   8.496 -0.2368 -1.4382  2.3518
  909MOL0     H19929  10.440  10.164   8.502  1.4755 -0.8617  0.9808
  909MOL0     H19930  10.452  10.047   8.358  2.6459 -1.1347  0.1131
  909MOL0     H19931  10.507  10.355   8.353  0.2998 -0.7539  2.7948
  909MOL0     H19932  10.532  10.237   8.225 -1.7420  1.8459 -1.3962
  909MOL0     H19933  10.267  10.295   8.365  2.2342  3.2425  1.1290
  909MOL0     H19934  10.293  10.165   8.253 -2.0442 -0.2630  2.1957
  909MOL0     H19935  10.194  10.361   8.129  0.4514  1.5215 -2.0106
  909MOL0     H19936  10.361  10.328   8.076 -0.0722  0.5260 -0.5888
  909MOL0     H19937  10.441  10.509   8.198  0.3427  2.4628 -3.0101
  909MOL0     H19938  10.321  10.575   8.095  0.3075  1.9369  1.4128
  909MOL0     H19939  10.311  10.689   8.291 -0.5136 -0.8999 -1.8627
  909MOL0     H19940  10.300  10.541   8.391  1.8912 -0.3606 -0.5754
  909MOL0     H19941  10.101  10.751   8.100  1.5755 -0.0173  0.0595
  909MOL0     H19942   9.752  10.617   8.064  0.8669 -1.3189  0.3746
  909MOL0     H19943   9.866  10.744   8.002  0.6329  1.7855  1.5274
  909MOL0     H19944   9.703  10.879   8.078  1.6562  1.4389  0.2659
  909MOL0     H19945   9.819  10.874   8.213  2.5657 -3.3802 -0.3568
  909MOL0     H19946   9.574  10.701   8.210 -1.8581  1.6667  0.6280
  909MOL0     H19947   9.677  10.737   8.345 -2.0322 -0.0746  0.9769
  909MOL0     H19948   9.587  10.991   8.322  1.3680  0.0255 -2.8270
  909MOL0     H19949   9.474  10.868   8.376  2.0173 -0.4874  1.1238
  909MOL0     H19950   9.316  10.993   8.389  0.3414 -0.2606  0.4109
  909MOL0     H19951   9.086  11.055   8.370  0.1780  0.3431 -0.5068
  909MOL0     H19952   8.659  11.132   8.072  2.1547  0.2275 -0.4824
  909MOL0     H19953   8.463  11.289   8.096 -1.0306  1.2052  0.4985
  909MOL0     H19954   8.513  11.634   8.357  1.7547 -2.0917  0.8928
  909MOL0     H19955   8.402  11.532   8.456 -1.8168  2.7061  0.1561
  909MOL0     H19956   8.204  11.590   8.330 -0.3495  0.3083  0.9782
  909MOL0     H19957   8.317  11.689   8.222  1.6587  0.4428  0.4603
  909MOL0     H19958   8.381  11.837   8.407  0.2048 -0.5269  0.7563
  909MOL0     H19959   8.296  11.727   8.518 -1.9930 -1.3037 -0.3177
  909MOL0     H19960   8.151  11.895   8.297 -1.3572 -1.1703  0.1241
  909MOL0     H19961   8.076  11.769   8.388 -0.1418  0.2461  0.2358
  909MOL0     H19962   8.107  11.857   8.603  0.4720 -1.7195 -0.3792
  909MOL0     H19963   8.026  11.974   8.506 -0.2135 -0.7711 -0.9255
  909MOL0     H19964   8.311  11.983   8.589  1.6095  0.2863 -3.1946
  909MOL0     H19965   8.180  12.090   8.636 -0.6168  0.4992  0.3493
  909MOL0     H19966   8.315  12.078   8.366  1.8168 -1.6638  2.1955
  909MOL0     H19967   8.155  12.154   8.388 -0.0487 -0.5509  0.4814
  909MOL0     H19968   8.405  12.234   8.558 -0.6418  0.9264  1.5781
  909MOL0     H19969   8.252  12.323   8.540  0.8860  0.9495 -1.4486
  909MOL0     H19970   8.646  11.461   8.437 -0.7262  0.1158 -0.7513
  909MOL0     H19971   8.832  11.286   8.431  0.4502 -1.5649  0.3959
  909MOL0     H19972   9.097  10.981   7.942 -1.3942  1.8191  1.3001
  909MOL0     H19973   9.336  10.943   7.954 -0.7966  0.1568  0.4118
  909MOL0     H19974  10.993   9.953   8.689 -1.7248  1.8062 -1.2674
  909MOL0     H19975  11.056   9.804   8.871  0.7651 -0.4150 -1.4723
  909MOL0     H19976  11.143   9.375   8.938 -1.0769 -2.3318 -0.7054
  909MOL0     H19977  11.259   9.233   9.077  0.7545  0.6895  1.0955
  909MOL0     H19978  11.388   9.147   9.238  3.5514  0.5346  0.6664
  909MOL0     H19979  11.379   9.079   9.403 -1.2895 -2.4980 -2.2747
  909MOL0     H19980  11.300   9.364   9.343  0.1940  2.8330  2.7702
  909MOL0     H19981  11.311   9.295   9.506 -1.8814  0.2293 -0.3345
  909MOL0     H19982  11.503   9.452   9.424  3.2186 -0.1558  2.7602
  909MOL0     H19983  11.529   9.339   9.299 -0.8428 -1.3297  0.9517
  909MOL0     H19984  11.530   9.194   9.556  0.4101 -0.6609  1.0296
  909MOL0     H19985  11.645   9.180   9.424  1.5570  0.1763  0.8773
  909MOL0     H19986  11.895   9.399   9.639  1.0076 -0.3963 -0.6382
  909MOL0     H19987  10.961   9.230   9.376 -3.4522  1.0107 -1.2250
  909MOL0     H19988  10.812   9.380   9.224  0.3547 -0.6481  0.7009
  910MOL0     O19989   9.934   4.134   7.396  0.7430  0.2145  0.9336
  910MOL0     C19990  10.027   4.095   7.331  0.0095 -0.1805  0.0531
  910MOL0     O19991  10.030   3.985   7.258 -0.0519  0.0272  0.0355
  910MOL0     C19992   9.915   3.913   7.250 -1.3581  0.1153  0.0837
  910MOL0     C19993   9.874   3.850   7.368 -0.5242  0.1172 -0.3402
  910MOL0     C19994   9.753   3.778   7.365  0.2316 -0.4744  0.4926
  910MOL0     C19995   9.673   3.768   7.244 -0.0813  0.3815  0.0925
  910MOL0     O19996   9.551   3.705   7.256 -0.0205  0.1369 -0.4813
  910MOL0     C19997   9.432   3.737   7.171  0.2287 -0.0424 -0.9663
  910MOL0     C19998   9.343   3.615   7.158  0.3680 -0.1853 -0.6866
  910MOL0     C19999   9.210   3.661   7.095  0.3758  0.2540 -0.3419
  910MOL0     C20000   9.098   3.554   7.111  0.0790 -0.4139  0.4324
  910MOL0     C20001   8.972   3.589   7.023  1.1903  0.3079 -0.0743
  910MOL0     C20002   8.912   3.734   7.056 -0.9284 -0.1964 -0.6658
  910MOL0     C20003   8.783   3.758   6.987 -0.8931  0.5177  0.9628
  910MOL0     C20004   8.700   3.868   7.046  0.6620 -0.8916 -0.2279
  910MOL0     N20005   8.581   3.897   6.968  0.7447  0.4252  0.2538
  910MOL0     C20006   8.576   3.952   6.839 -0.3505 -0.5004  0.5136
  910MOL0     C20007   8.453   3.966   6.800  0.2312  0.1446 -0.4312
  910MOL0     C20008   8.400   4.046   6.689  0.5573  0.1610  0.1505
  910MOL0     C20009   8.503   4.084   6.573  0.4338  0.3067 -0.1388
  910MOL0     C20010   8.544   3.965   6.482  0.0483 -0.9476 -1.3605
  910MOL0     C20011   8.434   3.888   6.400  0.7970  0.2751  0.1557
  910MOL0     O20012   8.377   3.973   6.298 -0.1952  0.3917  0.1521
  910MOL0     C20013   8.274   3.928   6.220  0.3669  0.1647 -0.0703
  910MOL0     C20014   8.212   3.801   6.237 -0.3107  0.3646  0.3720
  910MOL0     C20015   8.116   3.753   6.145 -0.1127 -0.2645  0.5244
  910MOL0     C20016   8.064   3.830   6.041  0.6469  0.0299 -0.6705
  910MOL0     C20017   7.948   3.774   5.957  0.5955  0.0346 -0.7150
  910MOL0     O20018   7.933   3.639   5.941 -0.5663 -0.4906 -0.8327
  910MOL0     C20019   7.840   3.595   5.851  0.8098 -0.0087 -0.3040
  910MOL0     C20020   7.702   3.628   5.860  0.4301  0.0224  0.0812
  910MOL0     C20021   7.608   3.587   5.758 -0.2744  0.1145 -0.1159
  910MOL0     C20022   7.642   3.506   5.654  0.0725 -0.5800  0.0915
  910MOL0     O20023   7.539   3.455   5.572  0.3595  0.4820 -0.3940
  910MOL0     C20024   7.560   3.428   5.439  0.0864  0.6038  0.4304
  910MOL0     C20025   7.429   3.426   5.354 -0.3197  0.9303 -0.0984
  910MOL0     C20026   7.310   3.336   5.406  0.0727  0.2663  0.0873
  910MOL0     C20027   7.176   3.348   5.331 -0.7596  0.6144  0.3371
  910MOL0     C20028   7.073   3.247   5.380 -0.8706  0.0815  0.1818
  910MOL0     C20029   6.941   3.306   5.355 -0.1961 -0.2355 -0.4695
  910MOL0     C20030   6.833   3.187   5.370 -0.0942  0.0538 -0.3859
  910MOL0     C20031   6.779   3.144   5.236 -0.0190  0.0980  0.3021
  910MOL0    Cl20032   6.658   3.263   5.172 -0.3063  0.5547 -0.2625
  910MOL0     C20033   7.776   3.471   5.644 -0.5761  0.4678  0.2348
  910MOL0     C20034   7.874   3.519   5.739 -0.1392  0.5620  0.2227
  910MOL0     O20035   7.863   3.849   5.925 -0.8685  0.0791  1.2945
  910MOL0     C20036   8.120   3.960   6.025  0.5944  0.0699  0.4642
  910MOL0     C20037   8.221   4.004   6.115 -0.2875  0.7684  0.1903
  910MOL0     N20038   8.379   3.907   6.903  0.6048  0.2251  0.5425
  910MOL0     N20039   8.453   3.865   7.000 -0.4376  0.2713  0.1012
  910MOL0     C20040   9.721   3.837   7.126 -0.4259  1.2466  0.3764
  910MOL0     C20041   9.844   3.901   7.132 -0.1748  0.5395  0.2203
  910MOL0     C20042  10.147   4.185   7.341 -0.4225 -0.3636  0.7129
  910MOL0     C20043  10.270   4.150   7.287 -0.6522  0.3875 -0.6755
  910MOL0     C20044  10.384   4.237   7.308 -0.2855 -0.3835 -0.3468
  910MOL0     C20045  10.376   4.350   7.394  0.3654  0.1408  0.3706
  910MOL0     O20046  10.495   4.405   7.432  0.0724  0.4706 -0.4693
  910MOL0     C20047  10.493   4.518   7.517 -0.3855 -0.0035  0.3267
  910MOL0     C20048  10.631   4.573   7.554  0.2010  0.5667  0.3111
  910MOL0     C20049  10.727   4.469   7.605 -0.4735  0.3688 -0.3823
  910MOL0     C20050  10.857   4.543   7.642 -0.0160  0.5671  0.9570
  910MOL0     C20051  10.959   4.448   7.686  0.0974 -1.1636 -0.5579
  910MOL0     C20052  11.037   4.367   7.735 -0.2762 -0.4427 -0.1345
  910MOL0     C20053  10.250   4.387   7.439 -0.2795  0.2219  0.4783
  910MOL0     C20054  10.139   4.302   7.415 -0.2784  0.7541 -0.0098
  910MOL0     H20055   9.929   3.840   7.461 -2.4056 -0.3409  0.7760
  910MOL0     H20056   9.719   3.738   7.460  0.8644  0.3109  1.0660
  910MOL0     H20057   9.461   3.765   7.069  1.9850  0.8641 -0.2718
  910MOL0     H20058   9.377   3.822   7.210 -0.3504 -1.6474  2.0049
  910MOL0     H20059   9.332   3.600   7.266  2.8977  3.0374  0.1785
  910MOL0     H20060   9.390   3.535   7.101 -0.5020 -1.4076  0.2660
  910MOL0     H20061   9.220   3.682   6.988 -3.1333  0.5097 -0.7463
  910MOL0     H20062   9.171   3.757   7.130  0.0560  0.4206 -1.1186
  910MOL0     H20063   9.143   3.458   7.087 -0.7326 -0.9968  1.1668
  910MOL0     H20064   9.067   3.540   7.215 -1.1686 -1.3938 -0.0462
  910MOL0     H20065   8.895   3.512   7.031  0.7249  0.7905  0.1221
  910MOL0     H20066   9.000   3.589   6.917 -1.1414 -0.1919 -0.7552
  910MOL0     H20067   8.987   3.802   7.015 -0.7895 -0.3249 -0.6275
  910MOL0     H20068   8.904   3.754   7.163 -2.7058  0.5662 -0.9176
  910MOL0     H20069   8.822   3.785   6.889  2.6632  0.4254  2.1890
  910MOL0     H20070   8.733   3.662   6.971  0.4911  0.2115 -2.1049
  910MOL0     H20071   8.759   3.958   7.066 -1.7825  0.5626  0.9219
  910MOL0     H20072   8.664   3.829   7.142  2.0538 -0.4977  0.4879
  910MOL0     H20073   8.664   3.995   6.792  0.3423 -0.5995  1.6779
  910MOL0     H20074   8.363   4.137   6.735  1.0919  0.6690 -0.3911
  910MOL0     H20075   8.319   3.994   6.637 -0.1531  2.3794 -1.1248
  910MOL0     H20076   8.593   4.122   6.622  0.7456 -3.2394  2.4010
  910MOL0     H20077   8.464   4.167   6.513 -0.4749  0.0519  0.0807
  910MOL0     H20078   8.622   3.998   6.413 -1.2423  0.9588 -1.9814
  910MOL0     H20079   8.597   3.893   6.545  1.4429  1.8389  0.8220
  910MOL0     H20080   8.363   3.835   6.465  0.5095  0.2799 -0.1507
  910MOL0     H20081   8.488   3.807   6.351  0.7898  1.0834 -1.2381
  910MOL0     H20082   8.234   3.730   6.316  1.2724 -0.4302 -0.7166
  910MOL0     H20083   8.074   3.654   6.156 -0.2197 -0.0425  2.3930
  910MOL0     H20084   7.672   3.675   5.953  2.7797 -1.4031  1.6660
  910MOL0     H20085   7.507   3.615   5.787 -1.3164 -3.1290 -0.1158
  910MOL0     H20086   7.611   3.332   5.426 -1.1864 -0.0158 -0.1663
  910MOL0     H20087   7.617   3.511   5.396  1.7080 -0.0871  1.1398
  910MOL0     H20088   7.447   3.389   5.252  0.0191 -0.8965  0.5890
  910MOL0     H20089   7.395   3.528   5.336 -1.5215  1.4269  4.0038
  910MOL0     H20090   7.285   3.372   5.506 -1.1308 -1.2474  0.3712
  910MOL0     H20091   7.339   3.231   5.394 -3.7418 -1.0400  0.9207
  910MOL0     H20092   7.144   3.451   5.343 -2.2877  0.1854  0.1211
  910MOL0     H20093   7.195   3.325   5.225  2.1348 -0.4481  0.9781
  910MOL0     H20094   7.089   3.226   5.486 -1.3840  1.5253  0.5607
  910MOL0     H20095   7.087   3.155   5.322 -2.4385 -0.2746  0.3206
  910MOL0     H20096   6.928   3.335   5.250 -1.3643  0.3873 -0.1704
  910MOL0     H20097   6.921   3.394   5.416  3.4373 -0.6475  1.5676
  910MOL0     H20098   6.879   3.094   5.407  0.5280  0.1139 -0.9954
  910MOL0     H20099   6.764   3.210   5.452  2.4227  0.0075  1.9044
  910MOL0     H20100   6.731   3.046   5.233  0.8230 -0.4244  2.2685
  910MOL0     H20101   6.859   3.146   5.162  0.4847  1.0358  0.8578
  910MOL0     H20102   7.801   3.404   5.563 -1.4146 -0.1528  0.4826
  910MOL0     H20103   7.974   3.478   5.734 -1.5457 -3.0206 -2.6286
  910MOL0     H20104   8.084   4.036   5.957 -0.1247  0.1901  0.9680
  910MOL0     H20105   8.268   4.102   6.121 -0.0541  0.7095 -0.5587
  910MOL0     H20106   9.657   3.836   7.038  0.0853  2.4186 -0.0280
  910MOL0     H20107   9.887   3.958   7.051  1.9866  2.4074  2.5124
  910MOL0     H20108  10.296   4.059   7.233  0.2387 -1.7062  2.9584
  910MOL0     H20109  10.482   4.204   7.276  0.4924 -0.4891  1.9810
  910MOL0     H20110  10.440   4.489   7.609 -2.2334  1.2534 -0.2861
  910MOL0     H20111  10.442   4.595   7.459 -1.5566 -1.3908 -0.5584
  910MOL0     H20112  10.680   4.612   7.464 -2.1156 -1.2865 -1.8876
  910MOL0     H20113  10.627   4.647   7.635  0.2833 -0.3340  1.1515
  910MOL0     H20114  10.739   4.389   7.531 -1.6326  0.3046 -0.5269
  910MOL0     H20115  10.690   4.420   7.696  1.9171 -1.7989 -0.4752
  910MOL0     H20116  10.900   4.601   7.560  2.0488 -0.6273  1.1196
  910MOL0     H20117  10.827   4.616   7.718 -0.6069  0.8890  0.4179
  910MOL0     H20118  11.117   4.300   7.757 -1.1500 -0.5386  3.3302
  910MOL0     H20119  10.222   4.469   7.506 -2.7306 -0.9239  0.9730
  910MOL0     H20120  10.048   4.346   7.455  0.4546  1.7927  0.5774
  911MOL0     O20121   2.320   6.527   5.545  1.2181  0.1253 -0.0244
  911MOL0     C20122   2.259   6.496   5.646  0.1318 -0.3612 -0.6073
  911MOL0     O20123   2.293   6.544   5.776  0.0740  0.4670  0.7197
  911MOL0     C20124   2.400   6.634   5.804  0.3659 -0.1724 -0.1849
  911MOL0     C20125   2.387   6.702   5.925 -1.2442  0.1498  0.1898
  911MOL0     C20126   2.484   6.794   5.967  0.9574  0.2307  0.7591
  911MOL0     C20127   2.593   6.828   5.884  1.0092  0.1994 -0.4258
  911MOL0     O20128   2.691   6.914   5.908 -0.4336  0.2424 -0.6925
  911MOL0     C20129   2.720   6.942   6.044 -0.4710  0.0984  0.7578
  911MOL0     C20130   2.859   7.009   6.059 -0.8022  0.3246 -0.4092
  911MOL0     C20131   2.978   6.915   6.027  0.3731 -0.0107 -0.3210
  911MOL0     C20132   3.106   7.003   6.017  0.3315  0.7042  0.2677
  911MOL0     C20133   3.220   6.912   5.965 -0.1143 -0.3699 -0.6625
  911MOL0     C20134   3.196   6.852   5.823  0.0242 -0.0351  0.0500
  911MOL0     C20135   3.300   6.754   5.782 -0.2808  0.2894  0.0110
  911MOL0     C20136   3.265   6.699   5.645  0.5008 -0.0581  0.8424
  911MOL0     N20137   3.130   6.627   5.630  0.1424 -0.0998 -0.0846
  911MOL0     C20138   3.124   6.492   5.618 -0.6448  0.4793 -0.3601
  911MOL0     C20139   2.997   6.473   5.574 -0.5308  0.6709  0.2472
  911MOL0     C20140   2.949   6.327   5.547  0.0384  0.3270  0.2673
  911MOL0     C20141   2.814   6.313   5.485 -0.3994  1.0602  0.2039
  911MOL0     C20142   2.708   6.339   5.596  0.2608  0.1490 -0.0720
  911MOL0     C20143   2.560   6.301   5.560  0.4354 -0.0776 -0.6115
  911MOL0     O20144   2.549   6.161   5.560  0.7690  0.1005 -0.9367
  911MOL0     C20145   2.446   6.106   5.493 -0.1152  0.1212  0.7479
  911MOL0     C20146   2.331   6.181   5.441  0.5798 -0.4498  0.2634
  911MOL0     C20147   2.226   6.106   5.390 -0.2415 -0.0747  0.1977
  911MOL0     C20148   2.229   5.969   5.364 -0.1442  0.1154 -0.4593
  911MOL0     C20149   2.106   5.902   5.307 -0.1619  0.1388  0.2278
  911MOL0     O20150   1.996   5.978   5.276  1.2251 -0.5251 -0.1699
  911MOL0     C20151   1.884   5.920   5.215  0.0814  0.1476  0.3995
  911MOL0     C20152   1.828   5.795   5.256  0.3450 -0.2002  0.0242
  911MOL0     C20153   1.711   5.746   5.200 -0.2048  0.6301 -0.1217
  911MOL0     C20154   1.639   5.823   5.110  0.2730  0.4650  1.1459
  911MOL0     O20155   1.526   5.777   5.054 -0.7263 -0.2135  0.1690
  911MOL0     C20156   1.410   5.776   5.133 -0.3211  0.0730  0.6102
  911MOL0     C20157   1.389   5.635   5.179  0.3656  0.3507 -0.1618
  911MOL0     C20158   1.398   5.524   5.074  0.2564 -0.3394 -0.0459
  911MOL0     C20159   1.364   5.381   5.108  0.0764  0.2545 -1.0263
  911MOL0     C20160   1.418   5.339   5.242 -0.9535 -0.0437 -0.6410
  911MOL0     C20161   1.567   5.344   5.231 -0.6173 -0.5376 -0.3228
  911MOL0     C20162   1.631   5.284   5.361 -0.2016  0.3722 -0.4158
  911MOL0     C20163   1.783   5.261   5.336  0.2372  0.8768 -0.5111
  911MOL0    Cl20164   1.858   5.427   5.307 -0.4287 -0.0410  0.2963
  911MOL0     C20165   1.700   5.942   5.063 -1.1796  0.1890  0.1340
  911MOL0     C20166   1.826   5.983   5.104 -0.3456 -0.1932 -0.8300
  911MOL0     O20167   2.118   5.782   5.278  0.0863  0.4402 -0.1792
  911MOL0     C20168   2.332   5.898   5.422  0.3162  0.8210  0.1104
  911MOL0     C20169   2.430   5.964   5.490 -0.1296 -0.5778 -0.6762
  911MOL0     N20170   2.936   6.596   5.554  0.5075 -0.0037 -0.3494
  911MOL0     N20171   3.016   6.696   5.605  0.3901  0.2654  0.5105
  911MOL0     C20172   2.599   6.761   5.759  0.3000  0.4972 -1.5357
  911MOL0     C20173   2.508   6.664   5.718  0.3857 -0.0526 -0.5282
  911MOL0     C20174   2.143   6.403   5.631  0.4085  0.2934  0.3561
  911MOL0     C20175   2.065   6.403   5.508 -0.1263  0.1837 -0.3224
  911MOL0     C20176   1.946   6.325   5.500  0.4484 -0.1806 -0.1436
  911MOL0     C20177   1.897   6.254   5.608  0.0842  0.9723  0.4400
  911MOL0     O20178   1.780   6.181   5.608  0.6717  0.0766  1.3029
  911MOL0     C20179   1.726   6.126   5.486  0.1631 -0.7359  0.6495
  911MOL0     C20180   1.604   6.041   5.509 -0.2219 -0.3123  0.0810
  911MOL0     C20181   1.633   5.897   5.562  0.5193 -0.1707  0.8729
  911MOL0     C20182   1.499   5.814   5.540  0.3164  0.0510 -0.1336
  911MOL0     C20183   1.394   5.848   5.638 -0.1513 -0.3849  0.1084
  911MOL0     C20184   1.333   5.895   5.727  0.0582  0.1214 -0.4716
  911MOL0     C20185   1.969   6.263   5.727 -0.7496  0.5666  0.6246
  911MOL0     C20186   2.093   6.333   5.739  0.0925  0.5092  0.3797
  911MOL0     H20187   2.299   6.675   5.982 -1.3027 -0.5107 -0.1959
  911MOL0     H20188   2.483   6.829   6.070 -1.2801  1.0187  0.5158
  911MOL0     H20189   2.727   6.846   6.095 -0.6011 -0.0926  0.4168
  911MOL0     H20190   2.645   7.006   6.094  0.4554 -0.2027  2.6479
  911MOL0     H20191   2.874   7.048   6.160 -1.2154  3.0309 -1.3069
  911MOL0     H20192   2.871   7.095   5.992  1.4559 -0.9693 -1.8105
  911MOL0     H20193   2.957   6.853   5.939  0.6516  1.3183 -1.3652
  911MOL0     H20194   2.996   6.845   6.109  1.1387 -1.0079 -1.2994
  911MOL0     H20195   3.084   7.076   5.938 -0.6042 -1.6416 -1.7899
  911MOL0     H20196   3.132   7.052   6.111 -0.1267 -0.0230  0.7788
  911MOL0     H20197   3.248   6.834   6.037  0.3533 -0.5753 -1.0569
  911MOL0     H20198   3.314   6.966   5.950  0.4218 -1.1087 -0.0396
  911MOL0     H20199   3.188   6.938   5.756 -0.2747 -0.0687  0.0430
  911MOL0     H20200   3.097   6.806   5.820 -0.9077  1.8473  0.1251
  911MOL0     H20201   3.403   6.791   5.774  1.0505 -3.0035  0.2987
  911MOL0     H20202   3.302   6.667   5.847  0.2142 -1.6037 -2.3949
  911MOL0     H20203   3.345   6.630   5.616 -0.1547 -1.8496  2.9729
  911MOL0     H20204   3.255   6.784   5.578  2.7851 -0.8699 -0.6357
  911MOL0     H20205   3.208   6.427   5.638 -0.2309  2.0796  4.1058
  911MOL0     H20206   2.966   6.277   5.643  0.8829 -0.3711 -0.2211
  911MOL0     H20207   3.030   6.296   5.480  2.1557  4.0159  0.7841
  911MOL0     H20208   2.808   6.212   5.441 -1.1154  1.7901 -1.4820
  911MOL0     H20209   2.813   6.389   5.406 -0.8462  1.7018  0.8229
  911MOL0     H20210   2.739   6.281   5.683 -1.0369 -2.1068 -1.0526
  911MOL0     H20211   2.720   6.446   5.619  3.4002  0.1608 -1.1639
  911MOL0     H20212   2.529   6.354   5.470 -3.3015  2.7343  2.0120
  911MOL0     H20213   2.487   6.345   5.629 -2.7400 -0.9192 -3.1604
  911MOL0     H20214   2.307   6.286   5.429  0.3476 -0.7527 -2.5573
  911MOL0     H20215   2.136   6.156   5.354  0.7928  0.9613 -1.0749
  911MOL0     H20216   1.891   5.730   5.316  1.4435 -0.3155 -1.2048
  911MOL0     H20217   1.681   5.645   5.228  0.1438  0.1258 -1.4799
  911MOL0     H20218   1.334   5.809   5.061  0.8557  2.3875  0.3423
  911MOL0     H20219   1.430   5.842   5.218  3.1028 -0.6825  0.5366
  911MOL0     H20220   1.295   5.622   5.233 -0.9841  1.8671 -1.9745
  911MOL0     H20221   1.466   5.615   5.254  0.1617 -1.8641 -0.4967
  911MOL0     H20222   1.500   5.530   5.035 -0.2867 -1.0269 -1.6187
  911MOL0     H20223   1.337   5.536   4.984  1.7773 -4.8046 -1.9568
  911MOL0     H20224   1.257   5.376   5.130  0.2758  0.6860  0.1557
  911MOL0     H20225   1.383   5.314   5.024  3.1591 -2.4892  1.5505
  911MOL0     H20226   1.379   5.242   5.275 -1.0334 -0.4800 -1.9694
  911MOL0     H20227   1.391   5.404   5.326 -1.3903 -0.4416 -0.4684
  911MOL0     H20228   1.611   5.444   5.225  0.3554 -0.7467  2.2639
  911MOL0     H20229   1.595   5.285   5.143 -1.6768 -1.2931 -0.1755
  911MOL0     H20230   1.638   5.361   5.439 -1.4527 -0.0747  0.1723
  911MOL0     H20231   1.579   5.192   5.390 -0.5011 -0.4571 -3.3286
  911MOL0     H20232   1.805   5.198   5.249  1.7303  0.5672  0.0486
  911MOL0     H20233   1.837   5.218   5.421 -1.7186 -0.6014  0.0379
  911MOL0     H20234   1.656   6.004   4.986 -0.1491  1.0039  0.1778
  911MOL0     H20235   1.861   6.071   5.051 -4.3105  2.2621  0.1323
  911MOL0     H20236   2.333   5.790   5.412 -2.1504  0.6867  0.6372
  911MOL0     H20237   2.507   5.908   5.543  1.0213  1.8517  0.3944
  911MOL0     H20238   2.689   6.770   5.700  0.1256 -0.8581 -2.0256
  911MOL0     H20239   2.532   6.612   5.626  2.5253 -0.6858  0.3229
  911MOL0     H20240   2.112   6.441   5.418 -1.7887  0.8003 -0.9675
  911MOL0     H20241   1.884   6.335   5.412  0.0233  0.3765  0.2132
  911MOL0     H20242   1.802   6.056   5.451  1.5017 -0.2241  2.3781
  911MOL0     H20243   1.702   6.210   5.420 -0.6160  2.4381  4.5471
  911MOL0     H20244   1.529   6.089   5.572 -1.5691 -0.2028 -1.5338
  911MOL0     H20245   1.565   6.023   5.409 -0.1787  3.0849 -0.6907
  911MOL0     H20246   1.666   5.906   5.666  0.1973 -0.0527  0.9636
  911MOL0     H20247   1.714   5.854   5.501 -1.2516  0.4781 -2.1310
  911MOL0     H20248   1.446   5.832   5.446 -2.0116  0.9164  1.2505
  911MOL0     H20249   1.518   5.706   5.541 -2.0042 -0.4163 -0.9371
  911MOL0     H20250   1.268   5.943   5.798  1.2978  3.6780 -1.4986
  911MOL0     H20251   1.936   6.206   5.813 -3.9678 -0.2916 -1.0447
  911MOL0     H20252   2.139   6.319   5.836  0.9767 -2.3338 -0.3492
  912MOL0     O20253   2.529   3.467   6.674 -0.0293 -0.4236  0.3139
  912MOL0     C20254   2.513   3.556   6.760 -0.6177 -0.2902 -0.4369
  912MOL0     O20255   2.399   3.590   6.826 -0.2225  0.2084 -0.3804
  912MOL0     C20256   2.280   3.552   6.774 -0.8693  0.7069 -0.4428
  912MOL0     C20257   2.245   3.529   6.635  0.4134  0.0567  0.2714
  912MOL0     C20258   2.123   3.471   6.595  0.3936 -0.0859 -0.1074
  912MOL0     C20259   2.028   3.446   6.693  0.2405  1.0547  0.4227
  912MOL0     O20260   1.901   3.398   6.673  0.4372  0.2309  0.5422
  912MOL0     C20261   1.851   3.377   6.543  1.0731  0.4748 -0.6177
  912MOL0     C20262   1.705   3.329   6.562  0.2685 -1.1254 -0.7462
  912MOL0     C20263   1.620   3.321   6.439 -0.4702 -0.0882  0.7478
  912MOL0     C20264   1.474   3.278   6.472  0.6306 -0.2717  0.6303
  912MOL0     C20265   1.450   3.166   6.565  0.4953 -0.3295 -0.5306
  912MOL0     C20266   1.297   3.143   6.575 -0.1918  0.4449  0.7641
  912MOL0     C20267   1.279   3.013   6.658 -0.4994  0.4346 -0.4163
  912MOL0     C20268   1.149   2.935   6.634  0.8887  1.2611  1.3768
  912MOL0     N20269   1.139   2.813   6.714 -0.1338  0.0816  0.0953
  912MOL0     C20270   1.227   2.710   6.727  0.0376 -0.1216  0.2717
  912MOL0     C20271   1.170   2.617   6.806 -0.6923  0.0664 -0.2868
  912MOL0     C20272   1.234   2.487   6.850 -0.2325 -0.3641 -0.0379
  912MOL0     C20273   1.142   2.401   6.936  0.0085 -0.3637  0.9629
  912MOL0     C20274   1.045   2.320   6.837 -0.6389  0.1916 -0.0409
  912MOL0     C20275   0.925   2.268   6.912 -0.2487 -0.9050  0.2685
  912MOL0     O20276   0.841   2.383   6.936 -0.1255 -0.3123 -0.3941
  912MOL0     C20277   0.720   2.367   7.003  0.8322 -0.4497  0.2005
  912MOL0     C20278   0.625   2.480   7.001 -0.7046  0.1177 -0.3616
  912MOL0     C20279   0.494   2.462   7.032 -0.3637 -0.5097  0.3719
  912MOL0     C20280   0.439   2.347   7.082 -0.6041  0.1958  0.0102
  912MOL0     C20281   0.300   2.343   7.142 -0.6688 -0.3761  0.0509
  912MOL0     O20282   0.259   2.212   7.179 -0.6208  0.7716 -0.9070
  912MOL0     C20283   0.140   2.192   7.227 -0.5412 -0.0782 -0.5838
  912MOL0     C20284   0.036   2.179   7.137  0.2054 -0.1247  0.4661
  912MOL0     C20285  -0.089   2.144   7.178  1.0854  0.2608 -0.1796
  912MOL0     C20286  -0.114   2.107   7.311 -0.6133  0.7266  0.3210
  912MOL0     O20287  -0.242   2.090   7.356 -0.0150  0.3625  0.5675
  912MOL0     C20288  -0.328   2.011   7.282 -0.8289  0.1845 -0.1316
  912MOL0     C20289  -0.461   2.018   7.346 -0.7078 -0.1147  0.4773
  912MOL0     C20290  -0.551   1.908   7.291 -0.4657 -0.7213  1.0829
  912MOL0     C20291  -0.697   1.918   7.352 -0.0637 -0.1896  0.2822
  912MOL0     C20292  -0.777   1.802   7.313  0.1992  0.0957  0.2163
  912MOL0     C20293  -0.919   1.815   7.373 -0.4630 -0.0893  0.0539
  912MOL0     C20294  -1.011   1.702   7.347 -0.8552  0.2584  0.5822
  912MOL0     C20295  -1.150   1.710   7.404 -0.3947 -0.6342 -0.0496
  912MOL0    Cl20296  -1.246   1.799   7.286  0.4157  0.2088  0.4294
  912MOL0     C20297  -0.005   2.104   7.404 -0.6097 -0.1651 -0.0439
  912MOL0     C20298   0.120   2.151   7.364  0.0861 -0.2275  0.2525
  912MOL0     O20299   0.242   2.446   7.145  0.1056  0.7379  0.8200
  912MOL0     C20300   0.526   2.234   7.089  0.0933 -0.8318  0.2117
  912MOL0     C20301   0.657   2.242   7.041 -0.2511 -0.0579 -0.7376
  912MOL0     N20302   1.049   2.660   6.842  0.0810 -0.4301  0.1071
  912MOL0     N20303   1.032   2.778   6.785 -0.7858 -0.8442  0.0935
  912MOL0     C20304   2.062   3.474   6.829  0.4157  0.7968  0.0921
  912MOL0     C20305   2.188   3.520   6.869 -0.1243 -0.8013 -0.4219
  912MOL0     C20306   2.644   3.617   6.817  0.2820 -0.3884  0.5531
  912MOL0     C20307   2.775   3.591   6.762  0.6023 -0.8639 -0.1540
  912MOL0     C20308   2.886   3.657   6.811 -0.5805 -0.1457 -0.9321
  912MOL0     C20309   2.876   3.742   6.924 -0.5513 -0.9988 -0.0918
  912MOL0     O20310   2.998   3.798   6.965 -0.7893 -0.1901  1.0632
  912MOL0     C20311   2.995   3.876   7.086 -0.5958  0.5296 -0.3211
  912MOL0     C20312   3.139   3.888   7.138  0.4534 -0.0144 -0.7287
  912MOL0     C20313   3.237   3.977   7.050  0.3422 -0.2387 -0.1615
  912MOL0     C20314   3.370   3.996   7.124 -0.8790 -0.2732 -0.3802
  912MOL0     C20315   3.456   3.875   7.138 -0.2571 -0.7898 -0.3590
  912MOL0     C20316   3.533   3.785   7.161 -0.8681  0.5454 -0.0940
  912MOL0     C20317   2.753   3.777   6.973  0.0516  0.6351  0.2188
  912MOL0     C20318   2.636   3.708   6.914 -1.3272 -0.1671  0.6838
  912MOL0     H20319   2.312   3.557   6.553 -0.1864 -2.3257 -1.1253
  912MOL0     H20320   2.114   3.466   6.487  0.1354  5.8266 -0.7199
  912MOL0     H20321   1.915   3.302   6.494  0.5313 -1.7729  1.8699
  912MOL0     H20322   1.846   3.469   6.484 -1.6571  0.7465 -0.1011
  912MOL0     H20323   1.663   3.398   6.634 -1.9444 -0.8953 -2.1553
  912MOL0     H20324   1.715   3.229   6.606  3.5351 -1.3805 -1.7679
  912MOL0     H20325   1.655   3.242   6.372 -0.3098  0.1293  0.5726
  912MOL0     H20326   1.612   3.417   6.387 -0.0170 -0.1700  0.5205
  912MOL0     H20327   1.420   3.367   6.506 -0.0956  0.3464 -1.8987
  912MOL0     H20328   1.419   3.261   6.379 -0.1971  0.4061  0.9738
  912MOL0     H20329   1.489   3.184   6.666 -0.1739 -2.0302  0.0656
  912MOL0     H20330   1.495   3.073   6.528 -1.6969 -1.8032  0.2841
  912MOL0     H20331   1.254   3.120   6.477  1.0984 -1.0098  0.5072
  912MOL0     H20332   1.244   3.226   6.622  0.0039 -0.6933  3.1099
  912MOL0     H20333   1.367   2.953   6.630 -0.7187 -0.0305 -0.1133
  912MOL0     H20334   1.290   3.050   6.760  3.3444 -2.0071  0.2796
  912MOL0     H20335   1.149   2.899   6.530  0.0029  0.5780  1.6039
  912MOL0     H20336   1.061   2.999   6.644 -0.3883  0.1276 -1.4600
  912MOL0     H20337   1.331   2.697   6.698 -0.4344 -0.9729 -1.1492
  912MOL0     H20338   1.317   2.515   6.916  0.1770 -1.1092 -0.2274
  912MOL0     H20339   1.270   2.426   6.767 -2.7867 -2.5659  0.3280
  912MOL0     H20340   1.085   2.471   6.999 -1.2094  0.7312 -1.2273
  912MOL0     H20341   1.202   2.332   6.995 -1.1664 -1.4134  0.9787
  912MOL0     H20342   1.012   2.387   6.757 -0.6532  0.6182  0.3209
  912MOL0     H20343   1.107   2.246   6.785 -0.2157  1.2277 -1.0396
  912MOL0     H20344   0.951   2.207   6.999  1.8783  0.7028  0.8352
  912MOL0     H20345   0.895   2.195   6.835  2.3128 -0.5794 -1.1675
  912MOL0     H20346   0.662   2.573   6.960  0.5774 -0.4379 -0.5117
  912MOL0     H20347   0.435   2.551   7.015  1.3798  0.9065  1.3759
  912MOL0     H20348   0.059   2.198   7.033 -1.6933  0.6498  0.1556
  912MOL0     H20349  -0.169   2.136   7.104  0.0441 -1.6157  1.0669
  912MOL0     H20350  -0.291   1.909   7.299  0.4200  0.8993  1.8151
  912MOL0     H20351  -0.329   2.028   7.174 -0.6547  0.5335 -0.0782
  912MOL0     H20352  -0.500   2.118   7.328  3.0195  1.9265  2.6204
  912MOL0     H20353  -0.450   2.007   7.454  0.3294  2.4096  0.6829
  912MOL0     H20354  -0.511   1.807   7.302  2.7830  0.3106 -0.0907
  912MOL0     H20355  -0.569   1.928   7.185 -1.9630 -0.4685  1.3554
  912MOL0     H20356  -0.690   1.917   7.461 -2.9720 -1.9215  0.5442
  912MOL0     H20357  -0.739   2.011   7.312  0.4085 -0.9513 -2.1537
  912MOL0     H20358  -0.724   1.712   7.345 -1.4092 -0.8077  0.3866
  912MOL0     H20359  -0.777   1.804   7.204  0.2480 -0.0175  0.2142
  912MOL0     H20360  -0.971   1.908   7.347 -0.5470  1.1936  4.0874
  912MOL0     H20361  -0.897   1.830   7.480  0.1972  2.6170 -0.3792
  912MOL0     H20362  -1.029   1.685   7.241 -1.4778  0.0872  0.7103
  912MOL0     H20363  -0.964   1.610   7.384  0.3212 -0.0214 -1.4898
  912MOL0     H20364  -1.145   1.754   7.504 -2.2487 -1.2797  0.3725
  912MOL0     H20365  -1.185   1.610   7.433  0.8962 -0.7601  1.2077
  912MOL0     H20366  -0.013   2.072   7.507 -0.7939 -0.0895 -0.0344
  912MOL0     H20367   0.197   2.166   7.439  0.6845 -0.3127 -0.3389
  912MOL0     H20368   0.471   2.148   7.125 -0.0276 -0.9497 -0.2404
  912MOL0     H20369   0.727   2.160   7.027  1.3058  1.3931 -1.9266
  912MOL0     H20370   1.993   3.464   6.912 -0.2906  1.6645 -0.3787
  912MOL0     H20371   2.212   3.538   6.973  0.0927 -0.3761 -0.5419
  912MOL0     H20372   2.780   3.511   6.688 -2.2900  0.8592 -2.4032
  912MOL0     H20373   2.983   3.632   6.769  0.5756 -0.9471  1.9695
  912MOL0     H20374   2.941   3.820   7.163 -1.8225 -1.4149 -2.4605
  912MOL0     H20375   2.944   3.969   7.060 -4.2912 -1.1909  0.1626
  912MOL0     H20376   3.136   3.928   7.240 -1.0291  1.4643 -1.3060
  912MOL0     H20377   3.180   3.787   7.151  1.4509  0.2443 -1.6566
  912MOL0     H20378   3.193   4.077   7.040 -2.1680 -1.4810 -3.7296
  912MOL0     H20379   3.233   3.934   6.950 -0.1246 -1.2660  0.2812
  912MOL0     H20380   3.432   4.071   7.075 -2.4836 -0.2849 -2.5210
  912MOL0     H20381   3.349   4.038   7.223  0.4091 -0.9714  0.2184
  912MOL0     H20382   3.605   3.707   7.175  1.0112  2.2964  0.4756
  912MOL0     H20383   2.734   3.860   7.040  4.2284  1.8530  0.1702
  912MOL0     H20384   2.544   3.743   6.957 -1.8526 -1.8518  1.0314
  913MOL0     O20385   6.219   8.412   3.736  0.6156  0.1635  0.2891
  913MOL0     C20386   6.275   8.509   3.782 -0.1593 -0.3971 -0.3784
  913MOL0     O20387   6.219   8.605   3.859  0.5634  0.4275  0.4358
  913MOL0     C20388   6.087   8.614   3.875  0.1441 -0.5399  0.6231
  913MOL0     C20389   6.036   8.596   3.999  0.4064  0.1515  0.4247
  913MOL0     C20390   5.910   8.616   4.033 -0.4522 -0.7124 -0.0002
  913MOL0     C20391   5.815   8.657   3.942  0.9382  0.0824  0.8013
  913MOL0     O20392   5.682   8.655   3.989 -0.4045 -0.6581  0.1736
  913MOL0     C20393   5.572   8.619   3.899  0.7561  0.2254 -0.4905
  913MOL0     C20394   5.581   8.460   3.877  0.8536 -0.4003 -0.2958
  913MOL0     C20395   5.474   8.405   3.775  0.3711  0.0926 -0.5127
  913MOL0     C20396   5.336   8.457   3.808 -0.5590 -0.1581  0.6065
  913MOL0     C20397   5.224   8.396   3.719 -0.4933 -0.1086  0.9903
  913MOL0     C20398   5.077   8.415   3.753  0.4457 -0.2349  0.6197
  913MOL0     C20399   4.985   8.357   3.648  0.5462 -0.3612  0.3011
  913MOL0     C20400   4.901   8.462   3.575  0.0004 -0.0223  0.0715
  913MOL0     N20401   4.815   8.404   3.466 -0.1887 -0.0919 -0.1173
  913MOL0     C20402   4.680   8.382   3.472  0.9177  0.3337  0.2368
  913MOL0     C20403   4.639   8.337   3.353 -0.3545 -0.2043 -0.0824
  913MOL0     C20404   4.508   8.289   3.307 -0.0255 -0.7185 -0.0059
  913MOL0     C20405   4.409   8.401   3.283 -0.2954  0.2344  0.2628
  913MOL0     C20406   4.272   8.345   3.229 -1.0465 -0.2931  0.0865
  913MOL0     C20407   4.159   8.452   3.189 -1.6088  1.0992 -0.1334
  913MOL0     O20408   4.115   8.499   3.313  1.4429  0.7576  0.7036
  913MOL0     C20409   4.016   8.601   3.330 -0.1758  0.7689  0.5072
  913MOL0     C20410   3.926   8.631   3.229  0.0066  0.0815 -1.1949
  913MOL0     C20411   3.810   8.712   3.254 -0.4155  0.2575 -0.4576
  913MOL0     C20412   3.789   8.773   3.383 -0.3530 -0.2771 -0.2876
  913MOL0     C20413   3.677   8.855   3.412  0.1611 -0.3299 -0.5820
  913MOL0     O20414   3.580   8.860   3.321 -0.3367  0.1670 -0.1244
  913MOL0     C20415   3.465   8.921   3.368 -0.3155 -0.1043  0.4504
  913MOL0     C20416   3.372   8.834   3.429 -0.2226  0.5341 -0.7737
  913MOL0     C20417   3.245   8.886   3.475  0.4309 -0.1366  0.8442
  913MOL0     C20418   3.219   9.026   3.474  0.4898  0.6615  0.0401
  913MOL0     O20419   3.111   9.092   3.519 -0.1216 -0.0854  0.1012
  913MOL0     C20420   3.026   9.028   3.614  0.0131  0.2591 -1.1999
  913MOL0     C20421   2.943   9.133   3.683 -0.0435  0.7562  0.3808
  913MOL0     C20422   2.833   9.066   3.766 -0.2375  0.9511 -0.2701
  913MOL0     C20423   2.728   9.166   3.818  1.2764 -0.5928  0.6638
  913MOL0     C20424   2.659   9.243   3.706 -0.0819 -0.1190 -0.4090
  913MOL0     C20425   2.542   9.334   3.740 -0.8580 -0.2453  0.0105
  913MOL0     C20426   2.571   9.452   3.826 -0.0854  0.0622 -0.4576
  913MOL0     C20427   2.504   9.424   3.961 -0.4972 -0.4626  0.9294
  913MOL0    Cl20428   2.329   9.443   3.946  0.4420 -0.0062 -0.0291
  913MOL0     C20429   3.314   9.104   3.405  0.3524  0.3098  0.1368
  913MOL0     C20430   3.436   9.052   3.355 -0.1385 -0.1577  0.0142
  913MOL0     O20431   3.673   8.914   3.522 -0.7219 -0.0428 -0.2488
  913MOL0     C20432   3.893   8.753   3.469  0.7303 -0.8642 -0.2063
  913MOL0     C20433   3.998   8.668   3.452  0.2842  0.6581  0.0533
  913MOL0     N20434   4.752   8.337   3.276  0.8755  1.4563 -0.8339
  913MOL0     N20435   4.856   8.368   3.345  0.1682 -0.2421  0.5812
  913MOL0     C20436   5.860   8.686   3.814  0.9062  0.2485 -0.1650
  913MOL0     C20437   5.996   8.658   3.780 -1.0176  0.4845 -0.5540
  913MOL0     C20438   6.419   8.527   3.752  1.0085 -0.1313 -0.0345
  913MOL0     C20439   6.494   8.629   3.812 -0.2857 -0.5913 -0.4844
  913MOL0     C20440   6.627   8.634   3.789  0.1061 -0.0264  0.4870
  913MOL0     C20441   6.698   8.546   3.706  0.8113 -0.1053  0.0198
  913MOL0     O20442   6.832   8.570   3.700 -0.2140  0.2824 -1.0166
  913MOL0     C20443   6.898   8.526   3.579 -0.9349 -0.7073  0.7362
  913MOL0     C20444   7.048   8.575   3.573  0.1426  0.2845  0.5402
  913MOL0     C20445   7.069   8.731   3.602  0.4160  0.2000  0.4329
  913MOL0     C20446   7.217   8.746   3.642 -0.5421 -0.2296  0.1901
  913MOL0     C20447   7.312   8.750   3.530  0.4795 -0.2804 -0.2863
  913MOL0     C20448   7.380   8.770   3.431  0.4507  0.2542 -0.1113
  913MOL0     C20449   6.623   8.436   3.660 -0.3545 -0.6971 -1.2806
  913MOL0     C20450   6.483   8.427   3.680 -0.0849  0.0954  0.0491
  913MOL0     H20451   6.105   8.579   4.081 -1.9814  0.8814  2.7531
  913MOL0     H20452   5.875   8.612   4.136  0.3724 -1.7946  0.2601
  913MOL0     H20453   5.560   8.667   3.802  0.8991 -0.6543 -0.9597
  913MOL0     H20454   5.480   8.640   3.953  1.2445  0.0862  0.4356
  913MOL0     H20455   5.568   8.416   3.976  2.1551 -2.0080 -0.8049
  913MOL0     H20456   5.672   8.426   3.827 -0.3695 -1.0356 -2.1716
  913MOL0     H20457   5.480   8.296   3.782 -0.0743  0.1442  3.8663
  913MOL0     H20458   5.496   8.437   3.673 -1.1411 -0.1000 -0.9237
  913MOL0     H20459   5.318   8.424   3.910  0.8622  1.0298  1.2727
  913MOL0     H20460   5.334   8.566   3.797  3.4019 -0.1894 -3.6559
  913MOL0     H20461   5.250   8.290   3.719 -1.1406 -0.4808 -3.6018
  913MOL0     H20462   5.241   8.449   3.624 -1.0801 -4.4445 -1.8161
  913MOL0     H20463   5.046   8.519   3.765  1.8559  0.4160 -0.9592
  913MOL0     H20464   5.060   8.363   3.848  0.6001  1.2199  1.4718
  913MOL0     H20465   5.050   8.308   3.575  0.7788  0.9841 -0.4452
  913MOL0     H20466   4.913   8.285   3.688  0.0452 -0.1254 -0.1631
  913MOL0     H20467   4.970   8.530   3.525 -0.3483  0.5402  0.3387
  913MOL0     H20468   4.837   8.527   3.636 -1.6760  0.8121 -2.4012
  913MOL0     H20469   4.632   8.397   3.568  3.1604 -0.5698  1.5792
  913MOL0     H20470   4.464   8.228   3.386  0.1806  0.1848  0.8208
  913MOL0     H20471   4.528   8.230   3.217  0.6078 -3.2697  1.7164
  913MOL0     H20472   4.461   8.465   3.211 -0.8383 -1.6367 -1.8980
  913MOL0     H20473   4.401   8.455   3.378 -0.9984  0.0987  0.2850
  913MOL0     H20474   4.291   8.297   3.133 -1.8880  1.8389 -1.2140
  913MOL0     H20475   4.235   8.269   3.298  1.5625 -0.9181  0.9282
  913MOL0     H20476   4.082   8.424   3.116 -2.2584 -0.4250  1.0805
  913MOL0     H20477   4.202   8.531   3.127 -0.0806 -0.9852 -1.8785
  913MOL0     H20478   3.944   8.589   3.130  0.1585 -0.2145 -1.0441
  913MOL0     H20479   3.736   8.735   3.178 -2.2343 -2.0806  0.4823
  913MOL0     H20480   3.394   8.730   3.450  3.2272  1.1266 -0.9875
  913MOL0     H20481   3.182   8.809   3.519 -0.9953 -0.2333 -1.2313
  913MOL0     H20482   3.088   8.974   3.686 -1.9666 -1.0411 -0.3743
  913MOL0     H20483   2.959   8.957   3.564 -1.4062  1.3512 -0.9153
  913MOL0     H20484   2.891   9.188   3.604  0.9489  2.5455  0.9306
  913MOL0     H20485   2.993   9.205   3.749 -2.5253  1.7114  1.3435
  913MOL0     H20486   2.883   9.020   3.852 -0.4187 -0.4716 -0.9007
  913MOL0     H20487   2.789   8.987   3.704  2.0713  0.6897 -1.7107
  913MOL0     H20488   2.642   9.115   3.861 -0.4065  0.9812 -0.6432
  913MOL0     H20489   2.768   9.230   3.897 -0.9451  2.0885 -0.2182
  913MOL0     H20490   2.620   9.183   3.623 -0.6925 -0.1432 -0.1072
  913MOL0     H20491   2.736   9.308   3.665  0.8913 -0.6645  0.4935
  913MOL0     H20492   2.457   9.276   3.774 -3.0149  1.4955 -2.0275
  913MOL0     H20493   2.519   9.388   3.647 -0.3398  1.1024  0.6333
  913MOL0     H20494   2.678   9.469   3.839 -0.2108  0.2660  0.3861
  913MOL0     H20495   2.524   9.536   3.775 -2.4643 -1.4079 -0.8666
  913MOL0     H20496   2.540   9.493   4.037 -2.2162  2.4452 -0.7311
  913MOL0     H20497   2.529   9.322   3.991  0.3837 -0.3416  0.6516
  913MOL0     H20498   3.304   9.212   3.393  1.5307  0.3914 -0.2508
  913MOL0     H20499   3.505   9.116   3.300 -1.7040  0.5579 -1.1907
  913MOL0     H20500   3.887   8.804   3.565 -0.9689  0.9309 -1.2022
  913MOL0     H20501   4.072   8.657   3.531  0.2663 -0.4684 -0.0809
  913MOL0     H20502   5.793   8.718   3.734 -0.8111 -0.4768  0.9090
  913MOL0     H20503   6.029   8.670   3.677  2.6331  0.3575  0.4485
  913MOL0     H20504   6.458   8.702   3.884  2.2015 -0.7713  1.0414
  913MOL0     H20505   6.684   8.718   3.828  1.2674 -0.6937  0.2732
  913MOL0     H20506   6.832   8.569   3.503 -1.3204 -0.7983  1.0230
  913MOL0     H20507   6.894   8.417   3.578 -4.0607 -0.6796 -0.1099
  913MOL0     H20508   7.095   8.518   3.654  1.0779  0.8598  0.4139
  913MOL0     H20509   7.090   8.558   3.473 -2.0062  0.7256 -0.5059
  913MOL0     H20510   7.003   8.757   3.686 -2.4256 -1.8844 -0.9795
  913MOL0     H20511   7.039   8.803   3.525 -0.6133  1.4993  1.9774
  913MOL0     H20512   7.235   8.838   3.699  2.7249 -0.5153 -0.1620
  913MOL0     H20513   7.242   8.664   3.709 -1.4247 -0.8006 -0.1590
  913MOL0     H20514   7.431   8.760   3.338  2.1470  1.0757  0.6943
  913MOL0     H20515   6.673   8.350   3.616  0.9712  0.9313 -3.0613
  913MOL0     H20516   6.436   8.342   3.632 -0.1481 -0.1225  0.4866
  914MOL0     O20517   8.734   6.860   9.061 -0.1284 -0.3994  0.3799
  914MOL0     C20518   8.761   6.794   9.168  0.5928  0.2261 -0.1336
  914MOL0     O20519   8.669   6.711   9.234 -0.1733  0.1812  0.0739
  914MOL0     C20520   8.537   6.724   9.197  0.0424 -0.2989  0.2662
  914MOL0     C20521   8.483   6.720   9.070  0.3132 -0.3498 -0.4693
  914MOL0     C20522   8.345   6.724   9.061 -0.3177 -0.0448  0.2009
  914MOL0     C20523   8.264   6.737   9.171 -0.2239  0.4929  0.2224
  914MOL0     O20524   8.129   6.746   9.146 -0.0932  0.5662 -0.0392
  914MOL0     C20525   8.051   6.777   9.271 -0.2309  0.4413  0.0188
  914MOL0     C20526   7.907   6.797   9.226 -0.7531  0.5136  0.4671
  914MOL0     C20527   7.802   6.847   9.326 -0.6469  0.1404 -0.3509
  914MOL0     C20528   7.662   6.842   9.257 -0.2593 -0.0412  0.1317
  914MOL0     C20529   7.565   6.909   9.354  0.2054  0.4905  0.7000
  914MOL0     C20530   7.424   6.895   9.289  0.4014 -0.2909  0.1934
  914MOL0     C20531   7.315   6.932   9.390  0.3851 -0.3822 -0.2777
  914MOL0     C20532   7.163   6.892   9.366 -0.4845  0.3304  0.6963
  914MOL0     N20533   7.074   6.927   9.471 -1.1793 -0.1289  1.1361
  914MOL0     C20534   6.994   7.041   9.469 -0.2696  0.2168  0.0122
  914MOL0     C20535   6.918   7.030   9.588  0.1254 -0.0274  0.3168
  914MOL0     C20536   6.807   7.133   9.635  0.4562  0.6492 -0.3636
  914MOL0     C20537   6.690   7.055   9.697 -0.1070 -0.1147 -0.6519
  914MOL0     C20538   6.628   7.130   9.813  0.4020  0.1968  0.5546
  914MOL0     C20539   6.537   7.244   9.760  0.0352 -0.5050 -0.4819
  914MOL0     O20540   6.430   7.198   9.685 -0.2930 -0.1289 -0.0206
  914MOL0     C20541   6.315   7.153   9.747 -0.1673 -0.2200 -0.6326
  914MOL0     C20542   6.297   7.037   9.816 -0.1541  0.0298 -1.1034
  914MOL0     C20543   6.171   7.002   9.875  0.2351 -1.2736  0.1429
  914MOL0     C20544   6.065   7.091   9.887 -0.4692  0.3843  0.5885
  914MOL0     C20545   5.938   7.056   9.962  0.3061  0.6988 -0.0363
  914MOL0     O20546   5.837   7.153   9.960 -0.1850  0.2339  0.1098
  914MOL0     C20547   5.707   7.115  10.004 -0.0355 -0.6236  0.7835
  914MOL0     C20548   5.631   7.207  10.080  0.4078  0.4603 -0.6809
  914MOL0     C20549   5.506   7.172  10.137  0.3736 -0.6220  0.7196
  914MOL0     C20550   5.442   7.053  10.101 -0.2401 -0.2563  0.0538
  914MOL0     O20551   5.322   7.034  10.163 -0.0936  0.1916  0.4541
  914MOL0     C20552   5.267   6.904  10.138 -0.0265 -0.8235 -0.1256
  914MOL0     C20553   5.170   6.863  10.245  0.2624  0.6846  0.7208
  914MOL0     C20554   5.060   6.965  10.257  0.1895  0.8551  0.1668
  914MOL0     C20555   4.938   6.908  10.329 -1.1405  0.7141 -0.6293
  914MOL0     C20556   4.834   7.013  10.355  0.0713  0.2153  0.2554
  914MOL0     C20557   4.743   6.971  10.471  0.5546  0.2836 -0.3560
  914MOL0     C20558   4.608   7.051  10.470  0.4873  0.0196  0.8054
  914MOL0     C20559   4.531   7.046  10.601 -0.1164  0.6624 -0.7793
  914MOL0    Cl20560   4.370   7.121  10.602 -0.0327  0.2723 -0.4414
  914MOL0     C20561   5.511   6.961  10.016 -0.1086 -0.0368 -0.4637
  914MOL0     C20562   5.644   6.992   9.972 -0.3029  0.0100  0.1180
  914MOL0     O20563   5.936   6.955  10.032 -0.2173 -0.0742 -0.1447
  914MOL0     C20564   6.089   7.216   9.825  0.1323 -0.1860 -0.1656
  914MOL0     C20565   6.211   7.245   9.752  0.3801 -0.0634  0.1615
  914MOL0     N20566   6.962   6.910   9.654 -0.2729 -0.3165 -0.2508
  914MOL0     N20567   7.057   6.860   9.588  0.0139 -0.4612 -0.6609
  914MOL0     C20568   8.326   6.754   9.300  0.3211  0.2928  1.1768
  914MOL0     C20569   8.466   6.747   9.306  0.1114 -0.3250 -0.0492
  914MOL0     C20570   8.887   6.809   9.242 -0.5503 -0.8536 -0.6712
  914MOL0     C20571   8.996   6.873   9.182  0.0803 -0.5669 -0.6558
  914MOL0     C20572   9.108   6.888   9.256 -0.2742 -0.3409 -0.6920
  914MOL0     C20573   9.129   6.841   9.382 -0.9831  0.3731 -0.6307
  914MOL0     O20574   9.248   6.851   9.443  0.2016 -0.0008  0.0582
  914MOL0     C20575   9.360   6.913   9.378  0.5042  0.6976 -0.5269
  914MOL0     C20576   9.488   6.850   9.437  0.3874 -0.1805  0.3642
  914MOL0     C20577   9.509   6.700   9.410 -0.0273 -0.3338  0.5067
  914MOL0     C20578   9.658   6.662   9.415 -0.2858 -0.0962  0.7702
  914MOL0     C20579   9.726   6.696   9.546 -0.2483  0.7390 -0.0986
  914MOL0     C20580   9.802   6.704   9.645 -0.1890 -0.0072  0.3014
  914MOL0     C20581   9.020   6.774   9.445  0.1729 -1.1640 -0.2234
  914MOL0     C20582   8.903   6.752   9.370  0.7702 -0.0844  0.1568
  914MOL0     H20583   8.539   6.725   8.977  2.7432  0.5319  0.9681
  914MOL0     H20584   8.299   6.725   8.962 -1.9189 -0.6836  0.9064
  914MOL0     H20585   8.084   6.867   9.322  2.8839  0.5593 -1.9173
  914MOL0     H20586   8.041   6.701   9.349 -0.4044  0.6625  0.2118
  914MOL0     H20587   7.874   6.704   9.179  1.6401 -0.0923 -0.1014
  914MOL0     H20588   7.907   6.862   9.139 -0.8296 -0.0769  0.0194
  914MOL0     H20589   7.812   6.946   9.371 -0.3319  0.7418 -1.6978
  914MOL0     H20590   7.793   6.787   9.417  0.1518  0.1925 -0.2270
  914MOL0     H20591   7.651   6.886   9.157  0.3485  0.1015  0.1218
  914MOL0     H20592   7.636   6.736   9.248 -0.0415 -0.0958  0.1442
  914MOL0     H20593   7.591   7.014   9.370  0.0770  0.5711  0.3873
  914MOL0     H20594   7.575   6.849   9.445  1.5252 -2.0681 -1.0210
  914MOL0     H20595   7.407   6.790   9.260  2.5787  0.2158 -3.5875
  914MOL0     H20596   7.409   6.961   9.203 -1.2994  1.8049  1.9868
  914MOL0     H20597   7.341   6.894   9.489  0.2012  0.7868  0.2273
  914MOL0     H20598   7.315   7.040   9.401  0.9398 -0.4373  0.3204
  914MOL0     H20599   7.152   6.787   9.339  0.6747  1.2548 -4.5956
  914MOL0     H20600   7.122   6.949   9.281 -0.4564 -2.3081 -1.2195
  914MOL0     H20601   6.991   7.124   9.399 -1.3894  1.5314  1.5337
  914MOL0     H20602   6.765   7.186   9.548 -1.6951 -2.6531 -1.5124
  914MOL0     H20603   6.848   7.211   9.699 -3.4582  2.4457  0.2770
  914MOL0     H20604   6.727   6.965   9.746  0.1840  1.3121  1.9119
  914MOL0     H20605   6.616   7.024   9.623 -0.5768 -1.1479  0.2177
  914MOL0     H20606   6.565   7.054   9.860  1.4140 -1.0520 -0.0503
  914MOL0     H20607   6.708   7.165   9.878 -0.5130  0.5190  1.5492
  914MOL0     H20608   6.592   7.315   9.697  0.3132  1.8003  2.1837
  914MOL0     H20609   6.503   7.308   9.842  0.0747  0.7078 -1.3735
  914MOL0     H20610   6.379   6.965   9.817 -1.3398 -1.3991 -2.2275
  914MOL0     H20611   6.155   6.916   9.940 -6.3152  0.7179  1.9099
  914MOL0     H20612   5.676   7.303  10.104  0.0279  0.7708 -1.1872
  914MOL0     H20613   5.458   7.243  10.204 -1.9604  0.1076 -1.5397
  914MOL0     H20614   5.343   6.826  10.132  2.2872  1.1319  1.7969
  914MOL0     H20615   5.214   6.918  10.044 -1.8269 -2.1448  0.6243
  914MOL0     H20616   5.218   6.852  10.343 -2.8377  1.9934  2.5619
  914MOL0     H20617   5.127   6.765  10.221 -2.7747  1.6995  1.4696
  914MOL0     H20618   5.020   6.991  10.159  1.0284  1.2793 -0.0709
  914MOL0     H20619   5.106   7.053  10.302  0.4443  0.2442  1.1378
  914MOL0     H20620   4.893   6.831  10.265  0.2187 -1.8629  1.3203
  914MOL0     H20621   4.978   6.859  10.418 -3.6070 -0.1663  0.0587
  914MOL0     H20622   4.783   7.022  10.259 -1.3970 -0.5876  0.9399
  914MOL0     H20623   4.879   7.110  10.382  0.6405  1.0271 -3.1951
  914MOL0     H20624   4.792   6.984  10.568 -1.3067 -0.1077  0.6771
  914MOL0     H20625   4.727   6.864  10.454 -1.9882 -0.5103  4.9494
  914MOL0     H20626   4.632   7.155  10.446  1.0613 -0.3673 -0.3922
  914MOL0     H20627   4.543   7.009  10.391 -1.1710  0.1617  2.0347
  914MOL0     H20628   4.600   7.092  10.672 -0.4130 -0.4143  0.2429
  914MOL0     H20629   4.518   6.943  10.635 -2.1974  1.6849  1.9513
  914MOL0     H20630   5.479   6.866   9.974  2.6605 -1.9157  1.3729
  914MOL0     H20631   5.702   6.922   9.912  2.2943  2.7810 -0.8642
  914MOL0     H20632   6.010   7.290   9.823 -1.1690 -1.3190  2.8729
  914MOL0     H20633   6.225   7.338   9.696 -2.5175 -0.9659 -2.2892
  914MOL0     H20634   8.262   6.776   9.385 -2.2827 -2.6088  0.1797
  914MOL0     H20635   8.509   6.736   9.405  1.7446 -1.1308 -0.8181
  914MOL0     H20636   8.993   6.935   9.093 -0.7934  0.9993  0.4133
  914MOL0     H20637   9.186   6.946   9.207  2.2376 -2.0419  1.0398
  914MOL0     H20638   9.358   7.022   9.388 -3.3931  0.5631  2.5946
  914MOL0     H20639   9.364   6.886   9.272 -2.4380  0.4566 -0.6471
  914MOL0     H20640   9.570   6.904   9.388 -0.4497 -1.3239 -2.5348
  914MOL0     H20641   9.495   6.873   9.543 -1.2948  0.8405  0.3025
  914MOL0     H20642   9.475   6.672   9.310 -1.3786 -1.3369  1.2198
  914MOL0     H20643   9.441   6.653   9.482  0.2941  2.2734  2.6787
  914MOL0     H20644   9.672   6.554   9.401 -1.9602 -0.3350  0.8119
  914MOL0     H20645   9.716   6.711   9.336 -1.1600 -0.3103 -0.0214
  914MOL0     H20646   9.858   6.718   9.735 -1.6395  1.2308  1.0608
  914MOL0     H20647   9.033   6.748   9.550  2.2156  2.1351  0.4913
  914MOL0     H20648   8.820   6.696   9.411  1.2699 -1.3274 -0.4654
  915MOL0     O20649   2.363   8.174   6.068  0.4297  0.1378  0.1006
  915MOL0     C20650   2.374   8.122   6.182 -0.1115 -0.1728 -0.0491
  915MOL0     O20651   2.277   8.051   6.252  0.1605 -0.6010 -0.5445
  915MOL0     C20652   2.153   8.028   6.199 -0.0068  0.4837  0.9536
  915MOL0     C20653   2.126   7.956   6.081 -0.0259  0.0999  0.2124
  915MOL0     C20654   1.990   7.933   6.043 -0.4289  0.5769  0.3295
  915MOL0     C20655   1.884   7.985   6.112 -0.0075 -0.0655  1.1007
  915MOL0     O20656   1.756   7.980   6.071 -0.6229  0.0513 -0.1594
  915MOL0     C20657   1.736   8.004   5.933  0.1855  0.1839  0.6643
  915MOL0     C20658   1.622   8.102   5.910  0.9099  0.7789  0.3502
  915MOL0     C20659   1.591   8.105   5.760  0.0796  0.7532 -0.6024
  915MOL0     C20660   1.522   8.232   5.721  0.6343 -0.2717 -0.6775
  915MOL0     C20661   1.507   8.233   5.578 -0.2242 -0.3732  0.3814
  915MOL0     C20662   1.437   8.352   5.527  0.4497 -0.1333 -0.1945
  915MOL0     C20663   1.443   8.334   5.376  0.3379 -0.2509  1.0583
  915MOL0     C20664   1.335   8.243   5.313 -0.3429  0.4136 -0.0400
  915MOL0     N20665   1.347   8.214   5.171  0.0351  0.1802  0.4314
  915MOL0     C20666   1.353   8.311   5.067 -0.0487 -0.2567 -0.5810
  915MOL0     C20667   1.366   8.244   4.950  0.0599  0.4579  0.0007
  915MOL0     C20668   1.384   8.293   4.814 -0.0073  0.4520 -0.5836
  915MOL0     C20669   1.299   8.216   4.713 -0.2466  0.1480 -0.4484
  915MOL0     C20670   1.356   8.248   4.573  0.2882  0.2896 -1.1504
  915MOL0     C20671   1.501   8.186   4.542 -0.1233 -0.1349 -0.2281
  915MOL0     O20672   1.513   8.169   4.403  0.1000 -0.9191 -0.5832
  915MOL0     C20673   1.433   8.079   4.332  0.3655  0.0586  0.0627
  915MOL0     C20674   1.441   8.088   4.195 -0.4034  0.4015 -0.1668
  915MOL0     C20675   1.347   8.026   4.109 -0.3628 -0.0368  0.0848
  915MOL0     C20676   1.239   7.948   4.163 -0.1152  0.5465  0.1450
  915MOL0     C20677   1.135   7.883   4.078 -0.1027  0.2259  0.4553
  915MOL0     O20678   1.058   7.786   4.137 -0.1328  0.1131  0.5305
  915MOL0     C20679   0.933   7.778   4.079 -0.9376 -0.3154  0.7891
  915MOL0     C20680   0.910   7.698   3.966 -1.0615 -0.7311  0.3902
  915MOL0     C20681   0.782   7.688   3.910 -0.8060 -0.5962  0.3242
  915MOL0     C20682   0.676   7.766   3.963 -0.3103 -0.3042 -0.5370
  915MOL0     O20683   0.540   7.771   3.920 -0.2220  0.4183  0.1523
  915MOL0     C20684   0.491   7.658   3.853  0.0321  0.7909 -0.1585
  915MOL0     C20685   0.338   7.661   3.873  0.4654  0.5297 -0.4640
  915MOL0     C20686   0.266   7.528   3.848 -0.0389 -0.1433  0.3869
  915MOL0     C20687   0.120   7.540   3.890  0.7159  0.0343  0.6153
  915MOL0     C20688   0.067   7.399   3.906  0.8718  0.0218 -0.8403
  915MOL0     C20689   0.063   7.317   3.783 -0.1043  1.2886 -0.3022
  915MOL0     C20690  -0.051   7.210   3.792  0.1412 -0.6291  0.2870
  915MOL0     C20691  -0.043   7.110   3.682  0.6228 -0.1669  0.0145
  915MOL0    Cl20692  -0.179   7.000   3.665  0.0271 -0.4441 -0.1778
  915MOL0     C20693   0.710   7.853   4.074  0.6240  0.5889  0.2206
  915MOL0     C20694   0.833   7.859   4.126  0.1340 -1.0010 -0.0718
  915MOL0     O20695   1.115   7.939   3.972 -0.0374  0.4490  0.4816
  915MOL0     C20696   1.239   7.934   4.303 -0.0990  0.4319 -0.6911
  915MOL0     C20697   1.337   7.993   4.386 -0.9096 -0.4200  1.3795
  915MOL0     N20698   1.377   8.109   4.978 -0.3923  0.5689  0.2417
  915MOL0     N20699   1.355   8.090   5.105 -0.9226  0.0134 -0.0531
  915MOL0     C20700   1.911   8.043   6.229 -0.3745 -0.0692 -0.1840
  915MOL0     C20701   2.045   8.077   6.270  0.5146  0.0458 -1.3020
  915MOL0     C20702   2.498   8.144   6.259  0.3088 -1.0039  0.1354
  915MOL0     C20703   2.540   8.042   6.351  0.0475 -0.1457  0.9285
  915MOL0     C20704   2.665   8.044   6.408 -0.5968 -0.0565 -0.8855
  915MOL0     C20705   2.737   8.160   6.403 -0.8357  0.3517  0.2797
  915MOL0     O20706   2.863   8.147   6.459 -0.1768 -0.5495  0.4304
  915MOL0     C20707   2.959   8.254   6.464 -1.5610 -0.2162  0.1733
  915MOL0     C20708   2.931   8.328   6.598 -0.4083  0.2596 -0.3685
  915MOL0     C20709   3.063   8.366   6.659 -0.1750 -1.1335  1.1479
  915MOL0     C20710   3.032   8.445   6.782 -0.0119 -0.1857 -0.3674
  915MOL0     C20711   3.158   8.434   6.860  0.3485 -0.0926  0.1935
  915MOL0     C20712   3.272   8.430   6.904 -0.4367 -0.1990  0.4254
  915MOL0     C20713   2.693   8.270   6.329 -0.4170  0.0563 -0.4614
  915MOL0     C20714   2.581   8.263   6.245 -0.2828  0.4052 -0.1959
  915MOL0     H20715   2.214   7.921   6.028  2.0739  3.9918  0.7357
  915MOL0     H20716   1.980   7.877   5.950  0.0132 -0.3410  0.8195
  915MOL0     H20717   1.694   7.915   5.885 -0.4157 -0.0671  1.6314
  915MOL0     H20718   1.818   8.040   5.869 -0.0920 -1.6110 -0.7837
  915MOL0     H20719   1.646   8.202   5.947 -0.6686  1.7940 -1.1999
  915MOL0     H20720   1.544   8.055   5.970  1.8851 -0.2438  0.8583
  915MOL0     H20721   1.530   8.020   5.727  0.7270  0.2601 -0.5267
  915MOL0     H20722   1.680   8.100   5.698  0.2154  0.5560 -0.3921
  915MOL0     H20723   1.425   8.247   5.769  1.2954  2.3652 -0.0030
  915MOL0     H20724   1.592   8.312   5.749  1.4952 -1.1101 -0.3605
  915MOL0     H20725   1.459   8.142   5.539 -3.2853  2.2437 -2.5612
  915MOL0     H20726   1.606   8.232   5.532 -0.3506  1.1103  0.0259
  915MOL0     H20727   1.480   8.446   5.562  2.4054 -0.2015 -2.2227
  915MOL0     H20728   1.334   8.354   5.565  0.6415  1.6159  0.3120
  915MOL0     H20729   1.426   8.433   5.333  1.1347 -0.8509 -0.7362
  915MOL0     H20730   1.541   8.302   5.339  0.3606  2.4512 -1.6229
  915MOL0     H20731   1.235   8.275   5.344 -0.5087 -1.1903  1.2049
  915MOL0     H20732   1.330   8.146   5.363 -3.1437  1.7891  2.6289
  915MOL0     H20733   1.353   8.417   5.090 -2.0503 -0.3482  0.0338
  915MOL0     H20734   1.490   8.283   4.788 -0.0701  1.0210 -1.0961
  915MOL0     H20735   1.363   8.400   4.813 -1.8607  0.1359  0.7888
  915MOL0     H20736   1.193   8.239   4.723  0.3550  2.0936  3.0252
  915MOL0     H20737   1.311   8.108   4.727 -1.8637 -0.0398 -0.4131
  915MOL0     H20738   1.276   8.204   4.513 -0.5160 -0.6871  0.5679
  915MOL0     H20739   1.364   8.355   4.551  1.9422  0.5287  0.3517
  915MOL0     H20740   1.516   8.086   4.585  2.3726  0.9320  1.6627
  915MOL0     H20741   1.580   8.255   4.574 -0.2000  0.1996 -0.7581
  915MOL0     H20742   1.522   8.151   4.159 -0.0369  0.4118  0.6609
  915MOL0     H20743   1.354   8.041   4.002 -0.7265  0.4667  0.1235
  915MOL0     H20744   0.999   7.643   3.936  0.9304  2.1213  0.6035
  915MOL0     H20745   0.769   7.624   3.824  0.5211 -0.3936 -0.0563
  915MOL0     H20746   0.537   7.566   3.888  1.1885  1.3995 -0.0152
  915MOL0     H20747   0.522   7.668   3.748 -0.4515 -0.9613 -0.4952
  915MOL0     H20748   0.302   7.742   3.808 -1.8298  0.3037  0.4573
  915MOL0     H20749   0.322   7.692   3.976 -0.4805  2.3265 -1.1096
  915MOL0     H20750   0.315   7.452   3.909  1.4057 -1.0111 -1.7265
  915MOL0     H20751   0.273   7.503   3.742 -1.2140 -1.0711  0.5087
  915MOL0     H20752   0.094   7.590   3.984 -0.2326  1.4755 -0.3693
  915MOL0     H20753   0.061   7.588   3.812  1.6497 -0.8193 -0.6549
  915MOL0     H20754  -0.035   7.424   3.935  1.5783  1.2284  0.7549
  915MOL0     H20755   0.115   7.342   3.986 -0.3505  0.9056  0.5692
  915MOL0     H20756   0.159   7.265   3.773  0.2634  1.6517  1.0346
  915MOL0     H20757   0.057   7.390   3.702  1.5992  1.9451  0.1052
  915MOL0     H20758  -0.053   7.155   3.886 -1.6991 -1.8225 -0.3980
  915MOL0     H20759  -0.147   7.263   3.788  1.5843  2.1758 -0.4038
  915MOL0     H20760   0.049   7.052   3.692  0.2987 -0.5617  0.8022
  915MOL0     H20761  -0.032   7.164   3.587  0.0366  0.5159  0.3228
  915MOL0     H20762   0.628   7.905   4.123  1.2126  1.5543  0.2111
  915MOL0     H20763   0.835   7.922   4.215  0.1441 -1.9855  0.6358
  915MOL0     H20764   1.158   7.885   4.355  0.5970  2.2219  2.3927
  915MOL0     H20765   1.322   7.967   4.491 -2.4214 -1.2792  0.9840
  915MOL0     H20766   1.825   8.091   6.275  0.0219  1.6763 -1.1699
  915MOL0     H20767   2.073   8.141   6.352  0.6768 -1.6876  0.0586
  915MOL0     H20768   2.467   7.962   6.363 -0.2804  0.0277  0.1523
  915MOL0     H20769   2.702   7.961   6.467 -0.6905  0.5323  0.0248
  915MOL0     H20770   2.939   8.327   6.384 -0.6785 -1.8471 -1.6134
  915MOL0     H20771   3.060   8.216   6.451 -1.5391  0.1036 -0.6528
  915MOL0     H20772   2.866   8.416   6.588  0.3926  0.6260 -3.3614
  915MOL0     H20773   2.889   8.255   6.668 -0.1274  0.5357  0.0943
  915MOL0     H20774   3.113   8.430   6.586 -0.1932 -0.1266  1.9973
  915MOL0     H20775   3.110   8.274   6.694 -0.7761 -1.8457  0.1270
  915MOL0     H20776   3.011   8.550   6.763  3.6206  1.2422  2.3417
  915MOL0     H20777   2.949   8.413   6.846  1.3743 -1.4019  0.9085
  915MOL0     H20778   3.360   8.422   6.965 -0.2837 -0.9379  0.1160
  915MOL0     H20779   2.745   8.364   6.321 -5.4264  3.4433  1.8857
  915MOL0     H20780   2.553   8.353   6.192 -0.0112  1.1254  0.8568
  916MOL0     O20781   3.141   5.476   3.098 -0.6784 -0.1031 -0.1634
  916MOL0     C20782   3.218   5.574   3.095  0.1909 -0.1438 -0.2095
  916MOL0     O20783   3.198   5.690   3.038 -0.3714 -0.9052  1.1133
  916MOL0     C20784   3.101   5.716   2.944 -0.5952  0.2122  1.2645
  916MOL0     C20785   2.966   5.678   2.941  0.4525 -0.6500 -0.2507
  916MOL0     C20786   2.878   5.725   2.849  0.2056 -0.7474  0.1435
  916MOL0     C20787   2.910   5.818   2.750  0.0515 -0.6072  0.2153
  916MOL0     O20788   2.825   5.864   2.648  0.2539  0.0491  0.3642
  916MOL0     C20789   2.683   5.861   2.675 -0.5714 -0.3415 -1.1309
  916MOL0     C20790   2.608   5.962   2.592 -0.0657 -0.5666 -0.6938
  916MOL0     C20791   2.469   6.009   2.658 -0.4365 -0.6552  0.4308
  916MOL0     C20792   2.373   5.897   2.705  0.5769  0.2060 -0.3465
  916MOL0     C20793   2.242   5.955   2.759  0.8894 -0.3593 -0.5575
  916MOL0     C20794   2.134   5.860   2.809 -0.1575 -0.6987  0.4141
  916MOL0     C20795   2.091   5.752   2.711  0.4170  0.1368  0.6037
  916MOL0     C20796   1.978   5.788   2.613 -0.4937  0.2380 -0.2013
  916MOL0     N20797   1.851   5.832   2.672 -0.5935 -0.2209  0.2081
  916MOL0     C20798   1.821   5.966   2.680 -0.0478  0.4688  0.6219
  916MOL0     C20799   1.691   5.959   2.716  0.4331  0.6657 -0.9424
  916MOL0     C20800   1.597   6.076   2.743 -0.3126 -0.4683  0.7266
  916MOL0     C20801   1.606   6.191   2.645 -0.2732  0.1188 -0.6407
  916MOL0     C20802   1.614   6.155   2.505 -0.1756  0.0422  0.9783
  916MOL0     C20803   1.493   6.084   2.462 -0.0846 -0.0238  0.0236
  916MOL0     O20804   1.374   6.169   2.468  1.2627 -0.7831 -0.1090
  916MOL0     C20805   1.247   6.116   2.452 -0.4552  0.4241 -0.6296
  916MOL0     C20806   1.209   5.990   2.415 -0.6986  0.6948  0.2897
  916MOL0     C20807   1.083   5.952   2.374  1.1264  0.9722 -0.3716
  916MOL0     C20808   0.975   6.049   2.400  0.3220  0.6412 -0.8266
  916MOL0     C20809   0.839   6.006   2.365  0.5877 -0.0180 -0.9426
  916MOL0     O20810   0.754   6.106   2.372 -0.7796 -0.2479 -0.5486
  916MOL0     C20811   0.623   6.079   2.357 -0.1625  0.9895 -0.5961
  916MOL0     C20812   0.565   6.087   2.224 -0.5273  0.2469 -1.0368
  916MOL0     C20813   0.428   6.048   2.222  0.0987 -0.1948 -0.5048
  916MOL0     C20814   0.346   6.034   2.334 -0.3901 -0.0426 -0.3028
  916MOL0     O20815   0.216   6.013   2.326  0.3330  0.4671  1.1876
  916MOL0     C20816   0.150   6.111   2.248 -0.3048 -0.6070 -0.3667
  916MOL0     C20817   0.002   6.065   2.228 -0.2534 -0.0321  0.1506
  916MOL0     C20818  -0.006   5.945   2.130 -0.4149  0.8130  0.7776
  916MOL0     C20819  -0.145   5.907   2.085  0.0798 -0.0303  0.4103
  916MOL0     C20820  -0.158   5.797   1.978  0.1240 -0.8252  0.7039
  916MOL0     C20821  -0.296   5.740   1.961  0.6644 -0.0914  0.5941
  916MOL0     C20822  -0.310   5.691   1.817  0.4513  0.1498 -0.0992
  916MOL0     C20823  -0.237   5.554   1.791 -0.1027 -0.0336 -0.2957
  916MOL0    Cl20824  -0.275   5.494   1.630 -0.1173  0.0366  0.0076
  916MOL0     C20825   0.411   6.021   2.453  0.6170  0.0848 -0.0880
  916MOL0     C20826   0.546   6.041   2.471  0.8286 -0.3102 -0.0397
  916MOL0     O20827   0.811   5.891   2.335 -1.0091  0.2235  0.0589
  916MOL0     C20828   1.009   6.177   2.448 -0.4495  0.2217  0.0750
  916MOL0     C20829   1.148   6.212   2.471  0.2353 -0.6635 -0.5921
  916MOL0     N20830   1.650   5.831   2.730  0.2476  0.4166  0.6689
  916MOL0     N20831   1.745   5.755   2.700 -0.2299  0.3509 -0.0450
  916MOL0     C20832   3.048   5.849   2.747  0.6548  0.9127  0.0056
  916MOL0     C20833   3.135   5.804   2.837  0.7796  0.2790 -0.5029
  916MOL0     C20834   3.344   5.564   3.169 -0.2200 -0.2216  0.9662
  916MOL0     C20835   3.373   5.456   3.250  0.6095  0.1248 -0.0103
  916MOL0     C20836   3.503   5.444   3.296  0.1927  0.1432 -0.6212
  916MOL0     C20837   3.597   5.547   3.287  0.0791  1.0449  0.0824
  916MOL0     O20838   3.708   5.536   3.372  0.0203  0.4504 -0.7885
  916MOL0     C20839   3.756   5.657   3.413 -0.9181  0.3697 -0.5465
  916MOL0     C20840   3.869   5.643   3.512  1.0700 -0.2061 -0.2419
  916MOL0     C20841   4.003   5.622   3.434 -0.0436  0.3260 -0.7350
  916MOL0     C20842   4.021   5.485   3.365 -0.4149 -0.5187  0.0905
  916MOL0     C20843   4.157   5.460   3.329 -0.2461  0.1008 -0.0163
  916MOL0     C20844   4.272   5.443   3.292  0.1853  0.2765  0.2159
  916MOL0     C20845   3.568   5.654   3.210  0.5875 -0.3123 -0.4585
  916MOL0     C20846   3.443   5.672   3.152 -0.1224  0.9724  0.3224
  916MOL0     H20847   2.936   5.604   3.015 -1.9692  0.2673 -0.2356
  916MOL0     H20848   2.775   5.702   2.874  0.0124 -0.6703 -0.5553
  916MOL0     H20849   2.668   5.883   2.781  1.2326 -0.0243 -0.8957
  916MOL0     H20850   2.642   5.761   2.659  1.1840 -1.3420  0.2160
  916MOL0     H20851   2.584   5.912   2.498  0.6862  1.7956 -2.2218
  916MOL0     H20852   2.677   6.042   2.567  2.3861 -2.2744  0.2644
  916MOL0     H20853   2.425   6.078   2.585 -0.4028  0.2294  1.2180
  916MOL0     H20854   2.502   6.058   2.750 -0.3589 -4.5644  2.6837
  916MOL0     H20855   2.343   5.835   2.621  2.1125 -0.3520 -0.5118
  916MOL0     H20856   2.418   5.829   2.778 -2.7844 -1.4115  0.4389
  916MOL0     H20857   2.203   6.031   2.690  0.1915  0.9214  1.1617
  916MOL0     H20858   2.272   6.005   2.851  1.2294 -4.1716  1.5888
  916MOL0     H20859   2.046   5.919   2.836 -0.8832 -1.1060 -0.9860
  916MOL0     H20860   2.168   5.814   2.903 -3.0690 -0.0963  1.8889
  916MOL0     H20861   2.168   5.697   2.657 -0.2604  3.0382 -3.8218
  916MOL0     H20862   2.042   5.682   2.780  0.8657  0.1588  0.9534
  916MOL0     H20863   1.941   5.699   2.561 -2.4006  2.0316 -2.1582
  916MOL0     H20864   2.010   5.862   2.539 -1.6855  0.2621 -0.7179
  916MOL0     H20865   1.881   6.053   2.658 -2.2272  2.1340  0.9389
  916MOL0     H20866   1.617   6.120   2.842 -0.0972  1.7157 -0.2331
  916MOL0     H20867   1.491   6.048   2.733 -0.2664 -0.3072 -0.2722
  916MOL0     H20868   1.698   6.244   2.671 -0.2316 -0.1723 -0.1889
  916MOL0     H20869   1.520   6.258   2.652 -0.9171 -0.7770  0.2176
  916MOL0     H20870   1.607   6.246   2.445  2.2338 -1.2628 -1.4835
  916MOL0     H20871   1.698   6.089   2.481 -1.6059 -1.3330 -0.4885
  916MOL0     H20872   1.480   5.996   2.526 -1.9587  2.1319  2.8339
  916MOL0     H20873   1.507   6.057   2.357 -3.6934  1.2855 -0.9370
  916MOL0     H20874   1.293   5.922   2.402  0.0002  1.9167 -2.1940
  916MOL0     H20875   1.056   5.851   2.345  1.3874  1.6124 -3.1153
  916MOL0     H20876   0.615   6.108   2.130 -1.9714 -0.6445 -2.0448
  916MOL0     H20877   0.370   6.041   2.131 -0.2059  4.0469 -0.8214
  916MOL0     H20878   0.199   6.126   2.151  1.2903 -0.5690  0.4210
  916MOL0     H20879   0.157   6.207   2.300  0.6055 -1.3086  0.8543
  916MOL0     H20880  -0.051   6.152   2.187 -0.4861  1.0402  2.5858
  916MOL0     H20881  -0.049   6.038   2.321  0.5555 -2.3048 -0.0213
  916MOL0     H20882   0.042   5.857   2.174  3.0652  1.5671 -1.1488
  916MOL0     H20883   0.059   5.966   2.045 -2.1065 -0.7835 -1.0369
  916MOL0     H20884  -0.191   5.876   2.180  2.1455 -0.1642  1.4248
  916MOL0     H20885  -0.197   5.993   2.043 -1.8073 -1.4796 -0.4032
  916MOL0     H20886  -0.080   5.723   2.001  2.6222  1.5120  0.3173
  916MOL0     H20887  -0.117   5.845   1.888  0.2900 -2.1127  0.0695
  916MOL0     H20888  -0.367   5.823   1.977  0.4730  0.3672 -2.1747
  916MOL0     H20889  -0.310   5.665   2.039 -1.2015 -1.5661 -1.0561
  916MOL0     H20890  -0.418   5.690   1.798  0.8612 -0.5749 -2.9991
  916MOL0     H20891  -0.259   5.750   1.740  1.5845 -0.4254  0.1877
  916MOL0     H20892  -0.278   5.485   1.866 -0.0482 -0.2641 -0.4755
  916MOL0     H20893  -0.131   5.561   1.817 -1.1034 -0.6887  5.0596
  916MOL0     H20894   0.342   6.003   2.534 -0.2624  2.0407 -0.3446
  916MOL0     H20895   0.598   6.033   2.565 -0.8767 -1.3111  0.8531
  916MOL0     H20896   0.938   6.253   2.478 -1.4606 -1.2753  1.6782
  916MOL0     H20897   1.175   6.312   2.505  3.0380 -2.1721  2.1375
  916MOL0     H20898   3.069   5.896   2.652 -1.5170  0.1629 -0.9057
  916MOL0     H20899   3.238   5.829   2.815  0.7215 -1.6700 -3.7487
  916MOL0     H20900   3.296   5.382   3.273  0.6134 -0.1765 -0.9224
  916MOL0     H20901   3.531   5.356   3.353 -2.4292  0.8919  2.0692
  916MOL0     H20902   3.683   5.722   3.462 -1.4955 -1.7636  1.5938
  916MOL0     H20903   3.796   5.712   3.327  2.8712 -1.7968 -0.3994
  916MOL0     H20904   3.879   5.726   3.582  0.3504 -0.5045  0.2281
  916MOL0     H20905   3.846   5.560   3.580  0.3864  0.2719  0.1207
  916MOL0     H20906   4.080   5.635   3.511  0.9198  3.1727 -2.0273
  916MOL0     H20907   4.007   5.708   3.367 -0.8761 -1.6186 -3.4688
  916MOL0     H20908   3.987   5.402   3.428 -0.6852  0.3106  1.0606
  916MOL0     H20909   3.963   5.469   3.274  0.1775 -0.3302 -0.3307
  916MOL0     H20910   4.371   5.431   3.253 -1.1640 -1.1556 -3.2085
  916MOL0     H20911   3.640   5.733   3.197  0.0158  0.4556  0.8312
  916MOL0     H20912   3.423   5.763   3.096 -2.7270  0.3161  0.0651
  917MOL0     O20913   7.955   8.560  10.142 -0.0722  0.0397  0.3042
  917MOL0     C20914   7.973   8.547  10.265  0.5070 -0.8185  0.2907
  917MOL0     O20915   7.907   8.621  10.357 -0.3559  0.4121  0.3962
  917MOL0     C20916   7.801   8.710  10.330 -0.0877  0.2581  0.2046
  917MOL0     C20917   7.767   8.783  10.444 -0.1782 -0.4150 -0.3226
  917MOL0     C20918   7.681   8.888  10.444  0.1197  0.0924 -0.0011
  917MOL0     C20919   7.603   8.914  10.334 -0.7991  0.7438  0.1153
  917MOL0     O20920   7.520   9.021  10.326 -0.5242 -0.5557  0.8538
  917MOL0     C20921   7.403   9.014  10.409  0.5132  0.6085  0.0367
  917MOL0     C20922   7.301   9.105  10.352  0.2780  0.7012  0.4319
  917MOL0     C20923   7.158   9.087  10.420  0.7328 -0.5806  0.1414
  917MOL0     C20924   7.065   9.168  10.331 -0.0251 -0.4730  0.4217
  917MOL0     C20925   6.916   9.150  10.371 -1.5542  0.2408 -0.6328
  917MOL0     C20926   6.826   9.225  10.273  0.5231 -0.2040 -0.2817
  917MOL0     C20927   6.683   9.224  10.312 -0.1871  0.2617 -0.1622
  917MOL0     C20928   6.593   9.296  10.213  0.7140 -0.1695  0.8913
  917MOL0     N20929   6.455   9.276  10.247  0.5568 -0.0725 -0.3365
  917MOL0     C20930   6.392   9.259  10.364  0.3341 -0.7577 -0.2406
  917MOL0     C20931   6.259   9.254  10.334 -0.2358 -0.1188  0.1007
  917MOL0     C20932   6.141   9.247  10.425  0.4125 -0.8213  0.2187
  917MOL0     C20933   6.169   9.169  10.551 -1.0340 -0.3728  0.8703
  917MOL0     C20934   6.240   9.030  10.536  0.1009  0.4457 -0.4960
  917MOL0     C20935   6.287   8.968  10.669 -0.0506  0.2480 -0.5602
  917MOL0     O20936   6.341   8.841  10.638 -1.0245 -0.3107  0.1640
  917MOL0     C20937   6.476   8.834  10.629 -0.0212 -0.4102 -0.4233
  917MOL0     C20938   6.542   8.868  10.512 -1.0111  0.3945  0.2343
  917MOL0     C20939   6.681   8.855  10.498  0.3290 -0.2017  0.2933
  917MOL0     C20940   6.768   8.820  10.611  0.7080  0.2131  0.1313
  917MOL0     C20941   6.910   8.796  10.599  0.2654  0.4355  0.2809
  917MOL0     O20942   6.974   8.744  10.709  0.0850  0.1542  0.1810
  917MOL0     C20943   7.095   8.698  10.683 -0.5133  0.0865  0.0765
  917MOL0     C20944   7.104   8.563  10.668  0.0231  0.4286 -0.1004
  917MOL0     C20945   7.233   8.506  10.635  0.4673 -0.1993 -0.8110
  917MOL0     C20946   7.348   8.583  10.631  0.6397  0.4178  0.1870
  917MOL0     O20947   7.472   8.533  10.630 -0.6247 -0.7153  0.1194
  917MOL0     C20948   7.497   8.405  10.683 -0.9020  0.4672 -0.1587
  917MOL0     C20949   7.655   8.384  10.679  0.5094  0.1213 -0.7015
  917MOL0     C20950   7.723   8.490  10.770 -0.2125  0.4450  0.0076
  917MOL0     C20951   7.871   8.465  10.800 -0.9129  0.2046 -0.1915
  917MOL0     C20952   7.945   8.586  10.871 -0.2973 -0.4607 -0.0848
  917MOL0     C20953   8.094   8.559  10.896  0.8627  0.0719 -0.1307
  917MOL0     C20954   8.170   8.687  10.939  0.4931  0.4761  0.7143
  917MOL0     C20955   8.311   8.674  10.989 -0.7995  0.6302  0.2221
  917MOL0    Cl20956   8.408   8.547  10.896  0.3118 -0.7368 -0.1588
  917MOL0     C20957   7.331   8.720  10.643  0.3742  0.2962  1.1165
  917MOL0     C20958   7.209   8.781  10.658  0.4092  0.2960 -0.0404
  917MOL0     O20959   6.954   8.808  10.485 -0.0477 -0.1398  0.8557
  917MOL0     C20960   6.707   8.791  10.732  0.9812 -0.4155 -0.4719
  917MOL0     C20961   6.560   8.807  10.744  0.2018 -0.3658  0.3333
  917MOL0     N20962   6.244   9.269  10.197  0.8506 -0.0007 -0.4762
  917MOL0     N20963   6.362   9.274  10.152 -1.1644  0.3759 -0.3268
  917MOL0     C20964   7.635   8.838  10.218  0.6022 -0.0324 -0.4029
  917MOL0     C20965   7.728   8.738  10.217  0.0967  0.2931  0.1960
  917MOL0     C20966   8.078   8.459  10.315  0.0549  0.4953  0.2698
  917MOL0     C20967   8.140   8.478  10.443 -0.0480  0.2647 -0.3733
  917MOL0     C20968   8.238   8.378  10.494  0.2603 -0.0378  0.8064
  917MOL0     C20969   8.293   8.276  10.400  0.1363 -0.5246  0.0634
  917MOL0     O20970   8.390   8.187  10.430  0.0389  0.0459  0.0387
  917MOL0     C20971   8.373   8.124  10.557 -0.3007 -0.7412  0.2621
  917MOL0     C20972   8.489   8.027  10.581  0.9392 -0.0553  0.3034
  917MOL0     C20973   8.491   7.911  10.485 -0.0347 -0.3215 -0.4133
  917MOL0     C20974   8.547   7.773  10.538  0.8124 -0.2261  0.0971
  917MOL0     C20975   8.690   7.796  10.583 -0.1102  0.0152  0.5995
  917MOL0     C20976   8.802   7.826  10.617  0.8854  0.1113 -0.8314
  917MOL0     C20977   8.239   8.276  10.271 -0.7397 -0.0655 -0.2131
  917MOL0     C20978   8.131   8.355  10.243  0.7216  0.1752  0.6309
  917MOL0     H20979   7.833   8.758  10.526  1.0408  0.0197 -1.1377
  917MOL0     H20980   7.675   8.933  10.542  1.7182 -3.5832  2.0027
  917MOL0     H20981   7.433   9.056  10.506  3.1059 -1.7735  0.4123
  917MOL0     H20982   7.367   8.911  10.406  1.4574  0.2663  0.0639
  917MOL0     H20983   7.294   9.086  10.245 -2.7913 -0.2280  0.7030
  917MOL0     H20984   7.343   9.205  10.361  2.4180 -0.0698 -0.3659
  917MOL0     H20985   7.143   9.124  10.522  1.7016 -0.9922  0.4475
  917MOL0     H20986   7.145   8.978  10.415  1.8725 -0.7034 -0.6965
  917MOL0     H20987   7.086   9.275  10.336  0.7265 -0.6031  0.1712
  917MOL0     H20988   7.069   9.149  10.223 -2.2423  0.5899  0.1147
  917MOL0     H20989   6.905   9.190  10.472 -0.6377  0.8354 -0.7527
  917MOL0     H20990   6.892   9.043  10.370 -2.4012  0.4130  0.3173
  917MOL0     H20991   6.838   9.167  10.181  0.2774 -1.1096  0.2455
  917MOL0     H20992   6.855   9.330  10.257 -2.5890  0.3885 -3.0296
  917MOL0     H20993   6.654   9.121  10.332  0.4711  0.1941  0.5160
  917MOL0     H20994   6.673   9.276  10.409  1.8555  0.8715 -0.2255
  917MOL0     H20995   6.621   9.268  10.111  0.9851  1.7453  0.4161
  917MOL0     H20996   6.626   9.400  10.219 -0.3730  0.1078  2.4003
  917MOL0     H20997   6.433   9.259  10.465 -1.5572  1.4572  0.6323
  917MOL0     H20998   6.072   9.186  10.366  0.2190  0.2241 -0.6676
  917MOL0     H20999   6.092   9.342  10.447  1.0898 -0.7745  1.6471
  917MOL0     H21000   6.074   9.161  10.606 -1.1150  0.6178  0.8914
  917MOL0     H21001   6.227   9.240  10.611 -0.6498  1.0184 -1.0438
  917MOL0     H21002   6.163   8.960  10.504 -1.0919  1.5660 -0.1288
  917MOL0     H21003   6.321   9.035  10.462  0.5650 -0.6979 -0.0957
  917MOL0     H21004   6.201   8.969  10.736 -0.2020 -0.5963 -0.7312
  917MOL0     H21005   6.367   9.025  10.718 -1.8219  1.5501  0.9564
  917MOL0     H21006   6.482   8.893  10.425 -1.3803  0.2714  0.4469
  917MOL0     H21007   6.723   8.869  10.399 -2.9284  0.5920 -1.1135
  917MOL0     H21008   7.019   8.496  10.659 -0.1959  0.9877 -5.8362
  917MOL0     H21009   7.233   8.397  10.629 -1.7306 -0.3273  0.6628
  917MOL0     H21010   7.441   8.330  10.627 -0.4591 -0.8310  1.0711
  917MOL0     H21011   7.466   8.398  10.788 -1.8394  2.1575 -0.3007
  917MOL0     H21012   7.694   8.380  10.577 -1.5376 -3.0624 -1.5188
  917MOL0     H21013   7.670   8.287  10.727 -2.5174  0.1054  0.4163
  917MOL0     H21014   7.667   8.495  10.864 -0.8989 -1.1148 -0.2813
  917MOL0     H21015   7.714   8.591  10.729 -1.3230  1.7813  3.2628
  917MOL0     H21016   7.881   8.379  10.867 -1.3708  0.4041  0.1328
  917MOL0     H21017   7.918   8.432  10.707 -0.0323  2.6336 -0.6624
  917MOL0     H21018   7.887   8.604  10.961 -3.4814  0.9673 -2.2411
  917MOL0     H21019   7.942   8.667  10.797  1.2068 -2.7857 -2.9048
  917MOL0     H21020   8.128   8.525  10.798 -0.9621 -1.6777 -0.2281
  917MOL0     H21021   8.111   8.483  10.972  1.4065  2.2150  1.9903
  917MOL0     H21022   8.164   8.755  10.854  2.8915  1.7890  1.4864
  917MOL0     H21023   8.114   8.725  11.025  0.7407 -0.8361  1.4901
  917MOL0     H21024   8.300   8.645  11.094  0.6475 -0.3692  0.1351
  917MOL0     H21025   8.360   8.772  10.989  1.1058 -0.2760  0.8537
  917MOL0     H21026   7.419   8.784  10.650 -0.0741  0.9492  0.8073
  917MOL0     H21027   7.196   8.889  10.649 -1.4002  0.0340 -1.2402
  917MOL0     H21028   6.760   8.749  10.816  0.2184 -1.9894 -0.7321
  917MOL0     H21029   6.517   8.795  10.842  0.1686  0.5908  0.4438
  917MOL0     H21030   7.576   8.849  10.127  1.6890  0.5840 -1.0502
  917MOL0     H21031   7.754   8.684  10.127  2.1157  1.8973 -0.2591
  917MOL0     H21032   8.110   8.562  10.505  0.2311  0.4123 -0.4388
  917MOL0     H21033   8.271   8.386  10.597  0.4602 -0.3273  0.7661
  917MOL0     H21034   8.284   8.060  10.557  0.8518 -2.4156  0.4988
  917MOL0     H21035   8.358   8.198  10.637 -2.6856 -1.9669  1.0568
  917MOL0     H21036   8.583   8.082  10.572  0.9421 -0.2926 -1.4659
  917MOL0     H21037   8.485   7.986  10.682 -2.6107  0.6009  0.5549
  917MOL0     H21038   8.564   7.937  10.409 -0.2381 -0.6631 -0.7305
  917MOL0     H21039   8.392   7.894  10.442 -0.8107  5.1625 -1.5383
  917MOL0     H21040   8.490   7.732  10.621  1.7509 -2.4813 -0.2892
  917MOL0     H21041   8.548   7.696  10.460 -2.8972  0.8968 -1.2542
  917MOL0     H21042   8.904   7.843  10.644  0.2987 -0.4521  2.1299
  917MOL0     H21043   8.271   8.197  10.205  1.7355 -0.4957  1.3765
  917MOL0     H21044   8.100   8.339  10.140  1.7460 -0.3085  0.3803
  918MOL0     O21045   3.888  10.239   8.034  0.3930 -0.2868 -0.5332
  918MOL0     C21046   3.934  10.126   8.045 -0.2018  0.3739 -0.4867
  918MOL0     O21047   3.868  10.009   8.090  0.1189  0.2108 -0.2784
  918MOL0     C21048   3.727   9.997   8.074  0.4779 -0.0297  0.5014
  918MOL0     C21049   3.669   9.919   8.167  0.7680 -0.0581 -0.2006
  918MOL0     C21050   3.528   9.888   8.154 -0.8472  0.4956  0.2631
  918MOL0     C21051   3.448   9.946   8.055  0.5535  0.3035  1.0054
  918MOL0     O21052   3.308   9.942   8.054 -0.0938  1.0382 -0.2860
  918MOL0     C21053   3.244   9.889   8.179 -0.3483  0.7472 -0.1844
  918MOL0     C21054   3.091   9.895   8.162 -0.6748  0.6507 -0.3335
  918MOL0     C21055   3.008   9.811   8.259 -0.6924  0.2127  0.1921
  918MOL0     C21056   2.870   9.831   8.224  0.1337  0.7221 -0.5596
  918MOL0     C21057   2.765   9.763   8.327 -0.2412 -0.3502 -0.3914
  918MOL0     C21058   2.624   9.730   8.279  0.3978 -0.1911 -0.4621
  918MOL0     C21059   2.528   9.699   8.397  0.2589 -0.3833 -0.1566
  918MOL0     C21060   2.394   9.658   8.355 -0.4153 -0.1101  0.3426
  918MOL0     N21061   2.293   9.677   8.461  0.6994 -0.1824 -0.8708
  918MOL0     C21062   2.271   9.608   8.581 -0.3540  0.5015 -0.2290
  918MOL0     C21063   2.174   9.674   8.641  0.9275  0.3203 -0.9858
  918MOL0     C21064   2.124   9.644   8.782 -0.2967 -0.0736 -0.3030
  918MOL0     C21065   1.995   9.717   8.816 -0.0151  1.0148 -0.5956
  918MOL0     C21066   1.938   9.689   8.953 -0.0852 -0.1222 -0.1793
  918MOL0     C21067   1.835   9.800   8.979  0.0649  0.1873 -0.2161
  918MOL0     O21068   1.705   9.770   8.913 -0.2207 -0.1095 -0.6019
  918MOL0     C21069   1.604   9.863   8.929  0.7915 -0.0688 -0.5151
  918MOL0     C21070   1.620   9.986   8.992 -0.9173 -1.2772  0.8017
  918MOL0     C21071   1.520  10.085   8.978 -0.4038 -0.0148  0.0290
  918MOL0     C21072   1.407  10.065   8.902  0.0184 -0.5635  0.1519
  918MOL0     C21073   1.316  10.178   8.864 -0.7696  0.7284  0.1499
  918MOL0     O21074   1.344  10.302   8.902  0.0217 -0.2796  0.0787
  918MOL0     C21075   1.262  10.410   8.897  0.7705 -0.9749 -0.0440
  918MOL0     C21076   1.129  10.421   8.861 -0.0424  0.7848  0.5333
  918MOL0     C21077   1.050  10.534   8.871  0.0040  0.5290  0.3411
  918MOL0     C21078   1.109  10.656   8.898  0.1207  0.3581  0.7179
  918MOL0     O21079   1.048  10.777   8.907  0.6378  0.2543  0.1653
  918MOL0     C21080   0.900  10.780   8.913  0.0896  0.4031  0.1787
  918MOL0     C21081   0.853  10.918   8.940  0.6290  0.4281  0.2137
  918MOL0     C21082   0.700  10.919   8.970 -0.3026 -0.5624  0.6925
  918MOL0     C21083   0.652  11.054   9.018 -1.3781  0.1529 -0.8222
  918MOL0     C21084   0.516  11.054   9.084  0.0867  0.2469  0.0344
  918MOL0     C21085   0.406  10.972   9.034  0.5484  0.9980  0.0908
  918MOL0     C21086   0.304  10.963   9.140 -0.4573  0.0761  0.2731
  918MOL0     C21087   0.180  10.885   9.105  0.4092 -0.6133  0.1389
  918MOL0    Cl21088   0.067  10.874   9.250  0.1827 -0.4052  0.3246
  918MOL0     C21089   1.247  10.654   8.929 -0.0672 -0.1355 -0.2749
  918MOL0     C21090   1.322  10.535   8.928 -0.4283 -0.3273  0.5813
  918MOL0     O21091   1.225  10.147   8.797 -0.0764 -0.1647  0.5527
  918MOL0     C21092   1.384   9.936   8.865  0.2459 -0.4342  0.5211
  918MOL0     C21093   1.483   9.837   8.871 -0.0526  0.6345  0.5525
  918MOL0     N21094   2.137   9.780   8.568  0.4295 -0.0556 -0.0648
  918MOL0     N21095   2.205   9.787   8.462 -0.1579  0.5304 -0.2776
  918MOL0     C21096   3.509  10.020   7.960 -0.3484  0.6753  0.6803
  918MOL0     C21097   3.644  10.056   7.974 -0.4087  0.4686  0.3247
  918MOL0     C21098   4.082  10.116   8.033  0.5421 -0.2854  0.2635
  918MOL0     C21099   4.151  10.009   8.094  0.6134  0.0525  0.2275
  918MOL0     C21100   4.290   9.999   8.067  0.5317  0.7851 -0.3452
  918MOL0     C21101   4.357  10.087   7.989  0.3218 -0.9353 -0.2562
  918MOL0     O21102   4.494  10.066   7.976 -0.4391 -0.7132 -0.5773
  918MOL0     C21103   4.560  10.154   7.884 -0.4389  0.0840 -0.3031
  918MOL0     C21104   4.709  10.109   7.866  0.9349 -0.0172  0.2268
  918MOL0     C21105   4.733   9.984   7.774 -0.2473  0.0418  0.2063
  918MOL0     C21106   4.880   9.947   7.773 -0.1999 -0.1733  0.0462
  918MOL0     C21107   4.907   9.891   7.903  0.1895 -1.1857 -0.0835
  918MOL0     C21108   4.924   9.841   8.011 -0.3177 -0.3548  0.5182
  918MOL0     C21109   4.287  10.201   7.940 -0.1197  0.0317 -0.5374
  918MOL0     C21110   4.157  10.207   7.964  0.4276 -0.5031  0.2014
  918MOL0     H21111   3.721   9.886   8.257  1.6782 -0.9726 -1.0298
  918MOL0     H21112   3.485   9.828   8.234  2.3496 -0.3619  1.5120
  918MOL0     H21113   3.273   9.938   8.272  0.5098 -0.4072  0.1822
  918MOL0     H21114   3.279   9.788   8.202 -0.7659  0.9457  1.4497
  918MOL0     H21115   3.070   9.853   8.063  0.5147 -2.8192  0.7478
  918MOL0     H21116   3.076  10.003   8.153  2.2318  0.9708 -3.1154
  918MOL0     H21117   3.027   9.824   8.366 -0.0986  0.1391  0.1003
  918MOL0     H21118   3.029   9.706   8.235 -6.1032 -0.9152 -0.9036
  918MOL0     H21119   2.850   9.937   8.207 -0.1549  0.7710  0.0439
  918MOL0     H21120   2.865   9.774   8.131  0.6089 -0.0410 -0.1281
  918MOL0     H21121   2.765   9.839   8.406  0.7164  1.5710 -2.1614
  918MOL0     H21122   2.814   9.675   8.371  1.2798  1.7273  2.4286
  918MOL0     H21123   2.629   9.653   8.201  1.5108 -0.1991 -0.3907
  918MOL0     H21124   2.589   9.823   8.232  2.7745 -0.3282 -2.7281
  918MOL0     H21125   2.572   9.629   8.469 -0.1161 -0.4337  0.0259
  918MOL0     H21126   2.523   9.798   8.445 -2.9147  1.1129 -3.1322
  918MOL0     H21127   2.397   9.551   8.331  2.1442 -0.3404  1.3426
  918MOL0     H21128   2.354   9.713   8.270 -3.8549 -0.6987  1.4211
  918MOL0     H21129   2.322   9.522   8.623 -2.6965 -1.4274 -1.1248
  918MOL0     H21130   2.199   9.671   8.857 -2.3531  0.1220  1.8044
  918MOL0     H21131   2.100   9.537   8.784 -0.6878  0.0128  1.4520
  918MOL0     H21132   1.918   9.699   8.740 -1.5165  0.0759  1.0846
  918MOL0     H21133   2.028   9.821   8.808  2.2287  0.3075 -1.1918
  918MOL0     H21134   1.903   9.587   8.972 -0.5749  0.3320  1.5784
  918MOL0     H21135   2.011   9.706   9.033 -1.3008 -0.4047  1.0228
  918MOL0     H21136   1.874   9.895   8.940  0.3289  0.6938  1.2075
  918MOL0     H21137   1.824   9.797   9.088 -1.1773 -0.5570 -0.3494
  918MOL0     H21138   1.711  10.015   9.044 -3.1616  4.0778  2.4399
  918MOL0     H21139   1.546  10.179   9.026 -1.6013  1.8426 -2.6970
  918MOL0     H21140   1.076  10.327   8.846  1.0112 -0.9956  5.8586
  918MOL0     H21141   0.944  10.522   8.850 -0.4661  1.4222  2.0059
  918MOL0     H21142   0.871  10.707   8.989  0.4526 -1.9712 -1.8423
  918MOL0     H21143   0.858  10.744   8.818 -0.2041  2.5730 -0.5725
  918MOL0     H21144   0.873  10.977   8.850  1.1961  2.7957  1.7869
  918MOL0     H21145   0.908  10.955   9.027  0.2976  1.8362 -0.1398
  918MOL0     H21146   0.685  10.837   9.040  3.8975  0.3153  2.8906
  918MOL0     H21147   0.652  10.898   8.874  2.7299  2.0036 -1.6209
  918MOL0     H21148   0.720  11.096   9.092 -2.3109 -2.0217  1.4221
  918MOL0     H21149   0.665  11.123   8.935  3.1424 -0.9339 -1.2571
  918MOL0     H21150   0.481  11.158   9.087  1.0636  0.5704  1.7945
  918MOL0     H21151   0.521  11.031   9.191 -3.3480 -2.0120 -0.1202
  918MOL0     H21152   0.445  10.870   9.022 -1.8312  0.0992 -0.7674
  918MOL0     H21153   0.349  11.012   8.949  2.8361  0.7338 -1.6605
  918MOL0     H21154   0.351  10.914   9.226  1.3890  2.6357  0.8561
  918MOL0     H21155   0.273  11.065   9.164  0.3826  0.2608  0.6067
  918MOL0     H21156   0.217  10.788   9.070  0.3788 -0.2823 -0.8304
  918MOL0     H21157   0.138  10.934   9.017  0.5979  0.9015  0.8617
  918MOL0     H21158   1.305  10.742   8.954  0.1467  0.6046 -2.9888
  918MOL0     H21159   1.427  10.547   8.949 -0.4151 -1.4632  1.2158
  918MOL0     H21160   1.284   9.915   8.828 -0.3322  0.5636  1.4631
  918MOL0     H21161   1.459   9.740   8.828 -0.7975  0.7884  0.6006
  918MOL0     H21162   3.438  10.051   7.884 -2.0151 -2.8936  0.5656
  918MOL0     H21163   3.683  10.116   7.893 -0.0287 -0.1301  0.0514
  918MOL0     H21164   4.090   9.932   8.141  0.3634 -0.4709 -0.9284
  918MOL0     H21165   4.342   9.911   8.104  1.4509  1.3906 -0.1765
  918MOL0     H21166   4.563  10.258   7.919  1.3715 -0.0367 -0.0061
  918MOL0     H21167   4.511  10.163   7.787 -0.9014  4.0070  0.1056
  918MOL0     H21168   4.759  10.198   7.825 -2.1661  1.4612 -0.6323
  918MOL0     H21169   4.747  10.091   7.967  1.2199 -1.9345 -0.1799
  918MOL0     H21170   4.710   9.995   7.667  6.2336  0.4885 -1.5531
  918MOL0     H21171   4.668   9.900   7.801 -1.0662  0.9552  1.1602
  918MOL0     H21172   4.896   9.867   7.701  0.0564 -1.5505  1.5551
  918MOL0     H21173   4.940  10.034   7.744  1.2424 -0.0623  2.9646
  918MOL0     H21174   4.948   9.803   8.109  0.0017  2.0688  1.4386
  918MOL0     H21175   4.333  10.285   7.888 -0.0467 -0.7259 -1.7516
  918MOL0     H21176   4.113  10.301   7.931 -0.4127 -0.9011  0.1645
  919MOL0     O21177  10.797  10.354  10.282  0.1458  0.3747 -0.4770
  919MOL0     C21178  10.858  10.248  10.320 -0.6051 -0.3914 -0.2564
  919MOL0     O21179  10.995  10.239  10.323  0.6906  0.6758 -0.4393
  919MOL0     C21180  11.065  10.348  10.294  0.1196  0.1346  0.2854
  919MOL0     C21181  11.042  10.446  10.196  0.1256 -0.2048 -1.4460
  919MOL0     C21182  11.142  10.543  10.161  0.5057  0.0910 -0.5494
  919MOL0     C21183  11.258  10.554  10.239 -0.2252 -0.3400 -0.0526
  919MOL0     O21184  11.357  10.652  10.225  0.4414 -0.4807 -0.3161
  919MOL0     C21185  11.393  10.676  10.092  0.2395 -0.0561 -0.6477
  919MOL0     C21186  11.508  10.762  10.088 -0.1223 -0.3840  0.1562
  919MOL0     C21187  11.595  10.735   9.960 -1.1998  0.4768  0.0615
  919MOL0     C21188  11.736  10.798   9.966  0.6437 -0.6297 -1.0363
  919MOL0     C21189  11.828  10.775   9.838  0.3086 -0.4038  0.0469
  919MOL0     C21190  11.970  10.829   9.869 -0.5419  0.1298  0.5913
  919MOL0     C21191  12.041  10.880   9.740  0.0991 -0.1483  0.7924
  919MOL0     C21192  12.056  10.779   9.617 -0.7164  0.6799  0.1586
  919MOL0     N21193  12.143  10.666   9.652  0.3663 -0.9087 -0.0186
  919MOL0     C21194  12.277  10.667   9.657  0.3137 -0.1453  0.2656
  919MOL0     C21195  12.309  10.546   9.713 -0.5481 -0.3469 -0.4327
  919MOL0     C21196  12.448  10.499   9.747  0.4191  0.8322 -0.0660
  919MOL0     C21197  12.455  10.342   9.777  0.0963 -0.5428  0.3370
  919MOL0     C21198  12.468  10.271   9.641 -1.2966 -0.1917  0.3870
  919MOL0     C21199  12.492  10.117   9.657 -0.2242 -0.6495  0.0078
  919MOL0     O21200  12.527  10.060   9.526  0.9474 -0.2780  0.4758
  919MOL0     C21201  12.429  10.027   9.441  0.8234  0.4371  0.6525
  919MOL0     C21202  12.294  10.022   9.455 -0.1423  0.3192  0.0469
  919MOL0     C21203  12.203   9.977   9.359  0.2297 -0.3174 -0.1561
  919MOL0     C21204  12.250   9.936   9.236  0.6148  0.3079 -0.3654
  919MOL0     C21205  12.162   9.884   9.125 -1.7548  0.0708  0.1008
  919MOL0     O21206  12.217   9.863   9.005  0.2621  0.2488  0.5710
  919MOL0     C21207  12.135   9.803   8.905 -0.3940 -0.6169 -0.0197
  919MOL0     C21208  12.051   9.691   8.926  0.1640  0.2273  0.0121
  919MOL0     C21209  11.982   9.628   8.815  0.9698  0.0042 -0.4038
  919MOL0     C21210  11.985   9.688   8.693  1.1455  1.1164  0.1553
  919MOL0     O21211  11.906   9.644   8.582  0.1761  0.1920  0.6315
  919MOL0     C21212  11.797   9.549   8.601 -0.4744 -0.1997 -0.0343
  919MOL0     C21213  11.726   9.504   8.472 -0.0663  0.3730 -0.4329
  919MOL0     C21214  11.660   9.363   8.474 -0.5638 -0.0670 -0.3712
  919MOL0     C21215  11.644   9.299   8.330 -0.5714  0.8062 -0.3665
  919MOL0     C21216  11.570   9.163   8.347  0.0063 -0.2409  0.3774
  919MOL0     C21217  11.551   9.102   8.211 -0.7015 -0.2810  0.1968
  919MOL0     C21218  11.445   8.996   8.194  0.3774  0.2079  0.4065
  919MOL0     C21219  11.419   8.946   8.053  0.8329  0.6128  0.2210
  919MOL0    Cl21220  11.338   9.066   7.953 -0.2039 -0.3722  0.0119
  919MOL0     C21221  12.064   9.798   8.675 -0.2203  0.1011 -0.3188
  919MOL0     C21222  12.138   9.854   8.781 -0.6870  0.4819 -0.0839
  919MOL0     O21223  12.051   9.859   9.161  0.2780  0.8419 -0.2235
  919MOL0     C21224  12.391   9.938   9.219 -0.1516 -0.6447  0.1660
  919MOL0     C21225  12.477   9.989   9.311 -0.4025 -0.3891 -1.0120
  919MOL0     N21226  12.191  10.467   9.729 -0.2349  0.5469  0.0689
  919MOL0     N21227  12.100  10.543   9.698  0.1919 -0.0402 -0.6054
  919MOL0     C21228  11.288  10.461  10.335  1.0095  0.5307 -0.4168
  919MOL0     C21229  11.189  10.358  10.355 -0.0194  0.3401  0.0153
  919MOL0     C21230  10.789  10.127  10.366 -0.2751  0.3898 -0.0277
  919MOL0     C21231  10.871  10.024  10.405  0.6726  0.0760  0.1923
  919MOL0     C21232  10.817   9.899  10.444 -0.1087 -0.5206  0.2991
  919MOL0     C21233  10.681   9.894  10.466 -0.7570  0.1344 -0.1070
  919MOL0     O21234  10.620   9.781  10.523 -0.6782 -0.2172  0.2213
  919MOL0     C21235  10.704   9.683  10.590 -0.6090  0.6975 -0.5623
  919MOL0     C21236  10.611   9.578  10.664 -0.2331  0.4328  0.0536
  919MOL0     C21237  10.535   9.487  10.553  0.2932  0.3929 -0.0109
  919MOL0     C21238  10.493   9.347  10.611 -0.0674 -0.6214 -0.8725
  919MOL0     C21239  10.422   9.257  10.521 -0.2378  0.4744 -0.5574
  919MOL0     C21240  10.361   9.176  10.447  0.3192  0.1082 -0.1441
  919MOL0     C21241  10.600   9.999  10.429 -0.3394 -0.3216  0.6364
  919MOL0     C21242  10.654  10.119  10.366  0.0570 -0.3309 -0.9143
  919MOL0     H21243  10.946  10.456  10.147 -2.8414 -0.1612  3.6849
  919MOL0     H21244  11.112  10.622  10.092 -2.8524 -3.0756 -3.1761
  919MOL0     H21245  11.305  10.726  10.051  0.1193  0.6291  0.4039
  919MOL0     H21246  11.417  10.580  10.045  2.8602 -0.3017  0.9743
  919MOL0     H21247  11.568  10.739  10.176  0.2063  1.3784  0.4262
  919MOL0     H21248  11.469  10.862  10.106  0.6915 -0.1195  0.4924
  919MOL0     H21249  11.529  10.775   9.882 -0.4935  1.1222 -0.2241
  919MOL0     H21250  11.604  10.627   9.947 -1.7161  0.5437 -1.0133
  919MOL0     H21251  11.722  10.904   9.987 -1.0272 -0.9687 -0.2683
  919MOL0     H21252  11.784  10.755  10.055 -1.0999  1.3371  0.9703
  919MOL0     H21253  11.792  10.834   9.754 -0.0949  0.3630  0.7430
  919MOL0     H21254  11.839  10.669   9.814  0.8631 -0.1596 -0.8068
  919MOL0     H21255  12.033  10.751   9.912  4.6989  3.4602 -0.1287
  919MOL0     H21256  11.964  10.909   9.943 -3.0305  0.4987  0.0677
  919MOL0     H21257  11.982  10.966   9.707  0.1850 -0.4456 -0.1535
  919MOL0     H21258  12.143  10.911   9.763 -0.1956  0.9353  0.6696
  919MOL0     H21259  12.099  10.835   9.534  2.3040  0.8609  1.7045
  919MOL0     H21260  11.962  10.733   9.588 -1.0445  1.5673 -0.2163
  919MOL0     H21261  12.337  10.754   9.632  0.5427 -0.3195  0.2007
  919MOL0     H21262  12.488  10.547   9.836  0.2576 -2.9057  2.2474
  919MOL0     H21263  12.513  10.531   9.665  1.4227 -3.2543 -1.0721
  919MOL0     H21264  12.365  10.311   9.832 -0.2428 -0.8204 -0.3585
  919MOL0     H21265  12.547  10.317   9.830  1.1363 -0.1568 -1.2353
  919MOL0     H21266  12.376  10.287   9.584 -2.9763  0.9572  3.1707
  919MOL0     H21267  12.549  10.314   9.582  0.3327  0.1764  2.7286
  919MOL0     H21268  12.406  10.069   9.705  1.1808 -1.5924  1.7101
  919MOL0     H21269  12.584  10.111   9.717  1.1720 -1.8245 -2.1086
  919MOL0     H21270  12.255  10.057   9.550 -1.3484 -3.1796  1.0157
  919MOL0     H21271  12.097   9.995   9.369 -0.0462 -1.5130 -0.7495
  919MOL0     H21272  12.041   9.647   9.025  0.6022  0.1079  0.0051
  919MOL0     H21273  11.927   9.538   8.840  0.6364  0.1830 -0.4869
  919MOL0     H21274  11.720   9.584   8.671  0.4197 -2.2101  2.0466
  919MOL0     H21275  11.840   9.461   8.649 -0.1852 -1.4726 -2.4500
  919MOL0     H21276  11.792   9.509   8.386 -0.4937 -0.8242 -0.8502
  919MOL0     H21277  11.650   9.581   8.457 -1.8703 -0.8003  1.9855
  919MOL0     H21278  11.567   9.363   8.532 -1.1429  2.3043 -1.2013
  919MOL0     H21279  11.721   9.300   8.540  0.0932 -0.2006 -1.0852
  919MOL0     H21280  11.588   9.368   8.266 -3.2346  0.3382  1.2871
  919MOL0     H21281  11.742   9.286   8.285 -0.5183  0.4172 -0.1433
  919MOL0     H21282  11.471   9.190   8.384 -0.4940 -0.3859 -0.7857
  919MOL0     H21283  11.628   9.106   8.420  2.3681  1.6792  0.1346
  919MOL0     H21284  11.649   9.054   8.197  0.0762  0.4966  2.4343
  919MOL0     H21285  11.534   9.178   8.135 -0.9041  0.9701  1.4569
  919MOL0     H21286  11.479   8.911   8.254  1.9746  1.0284  0.7232
  919MOL0     H21287  11.352   9.044   8.225  1.2363  2.4431 -0.2817
  919MOL0     H21288  11.361   8.854   8.061  2.3003 -0.4647 -0.9149
  919MOL0     H21289  11.518   8.919   8.015 -0.5587 -2.8465 -1.3783
  919MOL0     H21290  12.075   9.851   8.581 -0.0250 -0.2395 -0.4900
  919MOL0     H21291  12.209   9.933   8.760 -0.7743  0.3209 -1.0167
  919MOL0     H21292  12.427   9.903   9.123 -0.7553  1.0350 -0.7043
  919MOL0     H21293  12.584   9.992   9.295 -0.2107  1.8927  0.2133
  919MOL0     H21294  11.377  10.457  10.398  1.2739  1.0857 -0.7472
  919MOL0     H21295  11.209  10.278  10.426 -2.5064 -0.6445 -0.3292
  919MOL0     H21296  10.977  10.035  10.384  0.1220  3.2469 -1.3543
  919MOL0     H21297  10.878   9.811  10.466  2.0832  1.2035  1.6276
  919MOL0     H21298  10.777   9.725  10.660 -1.2896  1.4424 -0.2742
  919MOL0     H21299  10.757   9.631  10.510  1.3519  2.6714 -0.6487
  919MOL0     H21300  10.672   9.518  10.732  1.8310  1.7277 -0.5797
  919MOL0     H21301  10.536   9.628  10.726 -0.5749 -0.7898  0.6637
  919MOL0     H21302  10.595   9.464  10.465  0.7050 -1.0424  0.6186
  919MOL0     H21303  10.458   9.545  10.501 -0.6405 -0.0394  0.8723
  919MOL0     H21304  10.591   9.304  10.637  0.2585 -0.0590 -1.1598
  919MOL0     H21305  10.435   9.362  10.702  1.4251  1.3614 -0.1569
  919MOL0     H21306  10.314   9.097  10.392 -1.7080 -0.5775  2.3633
  919MOL0     H21307  10.492   9.993  10.434 -0.4476 -4.4967 -1.8584
  919MOL0     H21308  10.599  10.208  10.337 -0.0508  0.5361  1.7039
  920MOL0     O21309  10.373   4.887   7.396  0.1100 -0.0242  0.4283
  920MOL0     C21310  10.395   4.981   7.467  0.6215 -1.2014  0.3365
  920MOL0     O21311  10.306   5.063   7.525  0.4660 -0.1850  0.1166
  920MOL0     C21312  10.168   5.028   7.510  0.2482 -0.0225 -0.6567
  920MOL0     C21313  10.100   4.910   7.537  0.0003 -0.1498  0.5261
  920MOL0     C21314   9.961   4.907   7.530  1.2946  0.0851 -0.3814
  920MOL0     C21315   9.882   5.016   7.494  0.1277 -0.2567  0.4493
  920MOL0     O21316   9.750   5.001   7.474  0.1786 -0.5568 -0.3166
  920MOL0     C21317   9.703   5.034   7.348 -0.5229 -0.2150  0.0381
  920MOL0     C21318   9.552   5.090   7.376  0.4224 -0.0303 -0.2144
  920MOL0     C21319   9.453   4.988   7.413  0.5392 -0.5326  0.1948
  920MOL0     C21320   9.308   5.045   7.430 -0.6509  0.0396 -0.6151
  920MOL0     C21321   9.222   4.948   7.513  0.5472  0.3564 -0.4644
  920MOL0     C21322   9.210   4.816   7.449  0.0391  0.8703  0.1845
  920MOL0     C21323   9.090   4.727   7.491 -0.1475  0.2172 -0.0934
  920MOL0     C21324   9.125   4.638   7.606  0.1329  0.2452 -0.4089
  920MOL0     N21325   9.034   4.530   7.621  0.4965  0.2269 -0.4617
  920MOL0     C21326   9.058   4.430   7.712 -0.0123 -0.7742  0.2495
  920MOL0     C21327   8.937   4.383   7.751  0.1479  0.0748  0.0244
  920MOL0     C21328   8.918   4.277   7.854 -0.3821  0.2657 -0.4075
  920MOL0     C21329   8.881   4.141   7.789 -0.1646 -0.9094  0.2894
  920MOL0     C21330   8.851   4.034   7.894 -0.1855  0.5475 -0.3343
  920MOL0     C21331   8.817   3.896   7.834 -0.5605 -0.5380  0.3392
  920MOL0     O21332   8.716   3.905   7.730 -0.0097 -0.2085  0.4542
  920MOL0     C21333   8.585   3.888   7.760  0.4112 -0.3217  0.0034
  920MOL0     C21334   8.530   3.819   7.869  0.3916 -0.1422 -0.2619
  920MOL0     C21335   8.394   3.802   7.882 -0.4445 -1.0476  0.1740
  920MOL0     C21336   8.306   3.866   7.788  0.4322 -0.5796 -0.4787
  920MOL0     C21337   8.152   3.863   7.807  0.0848  0.1220 -0.6815
  920MOL0     O21338   8.104   3.837   7.933 -0.0387  0.8711 -0.0221
  920MOL0     C21339   7.970   3.843   7.957 -0.3757  0.3278 -0.4049
  920MOL0     C21340   7.869   3.782   7.871  0.3500  0.0960  0.4334
  920MOL0     C21341   7.722   3.776   7.910 -0.1076 -0.4230  0.0170
  920MOL0     C21342   7.682   3.841   8.023  0.2647 -0.6910 -0.2903
  920MOL0     O21343   7.557   3.834   8.088  0.1617  0.1428 -0.1254
  920MOL0     C21344   7.453   3.837   7.986  0.1111  0.1091 -0.1824
  920MOL0     C21345   7.321   3.863   8.063  0.2659  0.4671 -0.2006
  920MOL0     C21346   7.278   3.763   8.180 -0.3088  0.3645 -0.0356
  920MOL0     C21347   7.132   3.745   8.199 -0.3581  0.9192 -0.1573
  920MOL0     C21348   7.049   3.864   8.222 -0.4606 -0.0679  0.3754
  920MOL0     C21349   6.910   3.826   8.260  0.9985 -0.4087  0.0312
  920MOL0     C21350   6.820   3.954   8.266  0.0800 -0.4531 -0.0184
  920MOL0     C21351   6.714   3.976   8.151 -0.4351  0.1808 -0.9076
  920MOL0    Cl21352   6.585   3.848   8.144  0.2042  0.6378  0.1474
  920MOL0     C21353   7.782   3.901   8.102 -0.2818 -0.3803  0.1944
  920MOL0     C21354   7.922   3.896   8.070 -0.2808  0.2992 -0.0731
  920MOL0     O21355   8.092   3.898   7.712 -0.0682  0.1221  0.0286
  920MOL0     C21356   8.359   3.943   7.685 -1.0273 -0.9387 -0.5148
  920MOL0     C21357   8.496   3.956   7.669  0.0516  0.2877 -0.3608
  920MOL0     N21358   8.842   4.450   7.678  0.0623  0.6988  0.4540
  920MOL0     N21359   8.904   4.538   7.600 -0.2127 -0.9087 -0.4149
  920MOL0     C21360   9.945   5.141   7.481 -0.2685  0.6236 -0.1215
  920MOL0     C21361  10.087   5.144   7.491 -0.5167 -0.4053 -0.1171
  920MOL0     C21362  10.532   4.998   7.509  0.0723 -0.2477  0.2290
  920MOL0     C21363  10.578   5.114   7.582 -0.2823  0.3772  0.1529
  920MOL0     C21364  10.715   5.121   7.616  0.2776 -0.2794 -0.2425
  920MOL0     C21365  10.804   5.018   7.577 -0.4898 -0.1856 -0.9911
  920MOL0     O21366  10.938   5.019   7.601 -0.1165  0.0237  0.3775
  920MOL0     C21367  10.980   4.928   7.703 -0.0193  0.6206 -0.1794
  920MOL0     C21368  10.925   4.942   7.847 -0.6885 -0.5616 -0.6161
  920MOL0     C21369  11.019   4.883   7.956  0.4265 -0.5271  0.7979
  920MOL0     C21370  11.053   4.736   7.941  0.0573  0.0619 -0.1859
  920MOL0     C21371  11.169   4.716   7.857  0.5081 -0.8546  0.1213
  920MOL0     C21372  11.263   4.725   7.780  0.1439 -0.8286  0.2979
  920MOL0     C21373  10.760   4.905   7.510  0.0438 -0.0364 -0.4888
  920MOL0     C21374  10.626   4.903   7.473  0.1017  1.2002  0.2364
  920MOL0     H21375  10.154   4.821   7.568  0.9418 -0.7019 -2.4326
  920MOL0     H21376   9.911   4.814   7.558  0.6471  0.5366 -0.0182
  920MOL0     H21377   9.691   4.951   7.277 -0.5279 -4.3366  4.3679
  920MOL0     H21378   9.759   5.113   7.298  0.3109 -0.6748  0.2357
  920MOL0     H21379   9.515   5.124   7.279  1.8900 -1.0676 -1.1800
  920MOL0     H21380   9.552   5.172   7.449  0.6080 -2.0497  2.1905
  920MOL0     H21381   9.480   4.934   7.505  0.7129 -2.1497 -0.7736
  920MOL0     H21382   9.451   4.911   7.336 -3.9678  0.3997 -0.9067
  920MOL0     H21383   9.325   5.134   7.492  0.4971 -1.8942  2.0499
  920MOL0     H21384   9.259   5.075   7.337  0.8036  2.4431 -0.7058
  920MOL0     H21385   9.125   4.997   7.521  0.0962 -0.7875  2.5733
  920MOL0     H21386   9.254   4.930   7.616  0.5902  0.2011 -0.5047
  920MOL0     H21387   9.304   4.766   7.475  0.6944  1.0968 -1.5956
  920MOL0     H21388   9.196   4.825   7.340  1.9199  2.6914  0.0149
  920MOL0     H21389   8.999   4.783   7.513  0.6638  0.3092  3.7799
  920MOL0     H21390   9.077   4.659   7.406  2.5001 -0.0350 -0.3824
  920MOL0     H21391   9.130   4.699   7.697  2.4380 -0.8142  0.2593
  920MOL0     H21392   9.227   4.600   7.593  0.1485  0.8399 -2.3220
  920MOL0     H21393   9.159   4.412   7.746  1.5405  1.2040 -2.8229
  920MOL0     H21394   8.832   4.312   7.912 -2.4005 -2.2059 -1.6894
  920MOL0     H21395   9.011   4.266   7.911  0.3526  0.4942 -1.5332
  920MOL0     H21396   8.962   4.107   7.723 -0.2084 -0.1315 -0.1752
  920MOL0     H21397   8.791   4.161   7.730  0.4767  1.5030  0.0020
  920MOL0     H21398   8.928   4.030   7.971 -1.9282  1.1754  1.5522
  920MOL0     H21399   8.759   4.065   7.945 -1.1039 -2.8991  0.3612
  920MOL0     H21400   8.803   3.824   7.916 -1.1357 -2.1716 -1.1370
  920MOL0     H21401   8.907   3.855   7.788 -2.1483 -2.7424 -1.0659
  920MOL0     H21402   8.586   3.761   7.941 -1.2196  0.8175  1.9017
  920MOL0     H21403   8.347   3.745   7.961 -0.7867 -1.6656 -0.4639
  920MOL0     H21404   7.895   3.732   7.779  0.9443 -2.9624  2.1471
  920MOL0     H21405   7.652   3.715   7.854 -0.5169 -0.7045  0.8266
  920MOL0     H21406   7.432   3.740   7.940 -2.0172  0.9561 -1.1646
  920MOL0     H21407   7.470   3.911   7.907  0.3268 -0.5276 -0.7487
  920MOL0     H21408   7.240   3.866   7.990 -0.7871  2.5404  0.9493
  920MOL0     H21409   7.334   3.964   8.104  2.3445  0.3403 -0.4122
  920MOL0     H21410   7.320   3.793   8.277  0.1711 -2.1141  0.5895
  920MOL0     H21411   7.317   3.665   8.151 -3.3893 -0.8628 -0.4215
  920MOL0     H21412   7.095   3.709   8.103 -2.2806  0.8217  0.5821
  920MOL0     H21413   7.111   3.668   8.272  0.6307  1.2966  0.5547
  920MOL0     H21414   7.054   3.923   8.130 -1.9809 -1.3553 -0.5823
  920MOL0     H21415   7.094   3.922   8.303 -1.5500  1.2707  0.0428
  920MOL0     H21416   6.909   3.766   8.351 -0.0687 -4.5748 -2.4323
  920MOL0     H21417   6.873   3.756   8.184 -0.7177  0.5730 -0.1018
  920MOL0     H21418   6.758   3.940   8.355  1.2188 -0.5158  0.7798
  920MOL0     H21419   6.883   4.042   8.284 -2.3936  1.5403 -0.5160
  920MOL0     H21420   6.776   3.969   8.061 -2.1017  0.8575 -2.1561
  920MOL0     H21421   6.675   4.077   8.169 -2.5130 -0.7515  0.0900
  920MOL0     H21422   7.758   3.947   8.198 -0.7892  1.4721 -0.7838
  920MOL0     H21423   7.994   3.949   8.131  1.0145 -0.7412 -0.6382
  920MOL0     H21424   8.304   3.989   7.603  2.6785  2.6653 -1.3146
  920MOL0     H21425   8.539   4.021   7.593  1.3440  0.1348  0.2216
  920MOL0     H21426   9.902   5.231   7.438  0.0484  0.5383 -0.6348
  920MOL0     H21427  10.144   5.234   7.473 -1.0181 -0.6766 -4.1360
  920MOL0     H21428  10.515   5.191   7.625 -1.0543 -0.9089  1.4084
  920MOL0     H21429  10.755   5.197   7.682  1.0173 -0.2264 -0.7371
  920MOL0     H21430  11.088   4.942   7.700  0.0061  0.2342 -2.1378
  920MOL0     H21431  10.964   4.828   7.661 -0.9971  1.6657 -2.4724
  920MOL0     H21432  10.924   5.049   7.869  0.1601 -0.4036 -1.3133
  920MOL0     H21433  10.822   4.911   7.868 -0.5238 -0.5111  0.3492
  920MOL0     H21434  10.970   4.900   8.053 -1.2142 -0.8372  0.0541
  920MOL0     H21435  11.107   4.948   7.952 -1.2753  1.9599  1.0419
  920MOL0     H21436  11.062   4.688   8.039  0.1010  2.9084  1.3127
  920MOL0     H21437  10.966   4.685   7.900  0.1643 -0.9434  0.7887
  920MOL0     H21438  11.337   4.722   7.703 -0.1836  1.1222 -0.1487
  920MOL0     H21439  10.822   4.822   7.478 -0.7597  0.0382 -2.3614
  920MOL0     H21440  10.599   4.812   7.421 -1.0022  0.8937  1.2967
  921MOL0     O21441   8.115   4.324   1.497  0.2750  0.0108  0.7908
  921MOL0     C21442   8.168   4.404   1.419 -0.3461 -0.0687 -0.7453
  921MOL0     O21443   8.108   4.498   1.346 -0.6199 -0.3491 -0.1248
  921MOL0     C21444   7.967   4.503   1.336  0.1616 -0.1842  0.5150
  921MOL0     C21445   7.872   4.398   1.356  0.4342 -0.0233  0.5497
  921MOL0     C21446   7.734   4.426   1.336  0.1821  0.4110 -0.0357
  921MOL0     C21447   7.686   4.554   1.302 -0.2564 -0.1072  0.0588
  921MOL0     O21448   7.559   4.595   1.273 -0.3975  0.3862 -0.3537
  921MOL0     C21449   7.455   4.497   1.268 -0.0627 -0.4624  0.1590
  921MOL0     C21450   7.327   4.577   1.267 -0.3224  1.0958 -0.4010
  921MOL0     C21451   7.199   4.490   1.270  0.7534 -0.2775  0.7069
  921MOL0     C21452   7.077   4.576   1.260  0.2336 -0.1158 -0.2699
  921MOL0     C21453   6.955   4.494   1.267  0.0181  0.0808  0.5974
  921MOL0     C21454   6.833   4.565   1.220  0.3404 -0.4998 -0.3365
  921MOL0     C21455   6.715   4.565   1.319 -0.1469 -0.4239  0.2694
  921MOL0     C21456   6.589   4.515   1.252  0.9151 -0.4805  0.3309
  921MOL0     N21457   6.525   4.609   1.153 -0.2567  0.0363  0.1860
  921MOL0     C21458   6.507   4.577   1.020 -0.3073 -0.5528  0.3945
  921MOL0     C21459   6.469   4.688   0.959 -1.4717 -1.0773  0.6101
  921MOL0     C21460   6.433   4.705   0.811 -0.6381 -0.7097 -0.0883
  921MOL0     C21461   6.283   4.701   0.784 -0.2806 -0.8091 -0.2554
  921MOL0     C21462   6.245   4.756   0.651 -0.1367  0.1047 -0.2430
  921MOL0     C21463   6.094   4.760   0.630 -0.5144 -0.3270 -0.4525
  921MOL0     O21464   6.021   4.836   0.732  0.2637  0.1449 -0.1083
  921MOL0     C21465   5.883   4.828   0.726 -0.1409  0.5053 -0.1240
  921MOL0     C21466   5.807   4.744   0.641 -0.3352  0.2757 -0.8686
  921MOL0     C21467   5.675   4.748   0.657  0.3068  0.1546  0.5442
  921MOL0     C21468   5.600   4.831   0.744 -0.3045 -0.3876  0.3323
  921MOL0     C21469   5.450   4.844   0.747 -0.2104  0.5410 -0.1387
  921MOL0     O21470   5.409   4.944   0.822 -0.1770  0.1491 -0.4446
  921MOL0     C21471   5.274   4.950   0.830  0.1388 -0.2318 -0.8598
  921MOL0     C21472   5.201   5.058   0.779  0.5406  0.0213  0.2444
  921MOL0     C21473   5.061   5.064   0.794  1.2580  0.4000  1.0149
  921MOL0     C21474   4.986   4.960   0.857  0.8330  1.1206 -0.8724
  921MOL0     O21475   4.848   4.965   0.854  0.0601 -0.1746 -0.1277
  921MOL0     C21476   4.783   5.025   0.734 -0.0596  0.1169 -0.9382
  921MOL0     C21477   4.642   4.978   0.696 -0.4659 -0.2044 -0.3962
  921MOL0     C21478   4.576   5.074   0.600  0.1082  0.0578 -1.0010
  921MOL0     C21479   4.444   5.013   0.550 -0.5309 -0.8449 -0.0896
  921MOL0     C21480   4.352   5.117   0.478 -0.3689  0.4213 -0.5864
  921MOL0     C21481   4.305   5.225   0.574 -0.1471  0.1015  0.6195
  921MOL0     C21482   4.205   5.317   0.499  1.1746 -0.6383  0.2082
  921MOL0     C21483   4.163   5.447   0.579 -0.3677  0.5476 -0.9911
  921MOL0    Cl21484   4.311   5.535   0.630  0.5391  0.1338  0.3620
  921MOL0     C21485   5.062   4.856   0.913 -0.2691  0.7220 -0.1550
  921MOL0     C21486   5.202   4.851   0.900 -0.5551 -0.2253 -0.3483
  921MOL0     O21487   5.379   4.786   0.669  0.6760 -0.0660  0.7739
  921MOL0     C21488   5.678   4.906   0.836  0.4791 -0.7057 -0.1886
  921MOL0     C21489   5.817   4.900   0.820 -0.7990 -0.1747 -0.3536
  921MOL0     N21490   6.439   4.784   1.050 -0.5334  0.4753  0.0796
  921MOL0     N21491   6.485   4.739   1.167 -0.3484  0.2198  0.3512
  921MOL0     C21492   7.780   4.654   1.283  0.3871  0.4584  0.9120
  921MOL0     C21493   7.914   4.629   1.294 -0.3301  0.3279 -0.0542
  921MOL0     C21494   8.319   4.398   1.422  0.0881  0.0963 -0.7325
  921MOL0     C21495   8.389   4.471   1.330  0.2461  0.5567  1.2532
  921MOL0     C21496   8.528   4.468   1.326 -1.2562  0.8192  0.6832
  921MOL0     C21497   8.594   4.395   1.419 -0.3068 -0.1367  0.0678
  921MOL0     O21498   8.734   4.396   1.425  0.5538 -0.3928  0.4543
  921MOL0     C21499   8.816   4.431   1.312  0.0360 -0.2551  0.0613
  921MOL0     C21500   8.962   4.413   1.370 -0.8280  0.0181 -0.8630
  921MOL0     C21501   9.008   4.267   1.366  0.4646 -0.1437 -1.0133
  921MOL0     C21502   9.162   4.266   1.386 -0.9467 -0.6062 -0.5710
  921MOL0     C21503   9.208   4.122   1.380 -0.2312  0.1996 -0.0658
  921MOL0     C21504   9.249   4.007   1.346 -0.7099 -0.2897  0.4204
  921MOL0     C21505   8.529   4.321   1.518 -0.0551 -0.1598 -0.2504
  921MOL0     C21506   8.386   4.320   1.518 -0.2695  0.0717  0.4294
  921MOL0     H21507   7.914   4.299   1.371  0.3359 -0.1953 -0.2495
  921MOL0     H21508   7.656   4.351   1.346  0.6277 -0.0640 -0.0518
  921MOL0     H21509   7.465   4.426   1.350  0.7107 -2.8293 -1.8595
  921MOL0     H21510   7.455   4.447   1.171  3.2256  1.5016 -1.0088
  921MOL0     H21511   7.337   4.638   1.177 -1.3228  1.1863 -0.4690
  921MOL0     H21512   7.322   4.646   1.352 -1.2787  0.4865  0.0575
  921MOL0     H21513   7.209   4.433   1.363  2.2182  0.0282  0.7489
  921MOL0     H21514   7.205   4.424   1.182 -1.0923  0.3031  0.0902
  921MOL0     H21515   7.075   4.652   1.339  0.7199 -1.9286  1.5824
  921MOL0     H21516   7.085   4.629   1.164  0.0226  0.3354 -0.0412
  921MOL0     H21517   6.942   4.469   1.373 -1.4654  3.2701  1.2917
  921MOL0     H21518   6.966   4.404   1.206  3.9296  0.6270  0.2807
  921MOL0     H21519   6.796   4.519   1.127 -2.4655 -1.2452  1.0195
  921MOL0     H21520   6.856   4.669   1.196 -2.2233  0.5869  1.4536
  921MOL0     H21521   6.733   4.507   1.410  1.8369 -0.2861  0.0112
  921MOL0     H21522   6.704   4.669   1.350 -0.0586 -0.0533 -0.8808
  921MOL0     H21523   6.514   4.484   1.325  0.3369 -2.0632 -0.8662
  921MOL0     H21524   6.614   4.423   1.199 -0.0144  0.5853 -2.1401
  921MOL0     H21525   6.524   4.477   0.982 -0.8765 -0.8080  0.7922
  921MOL0     H21526   6.483   4.629   0.751 -1.5330 -2.3088  1.1059
  921MOL0     H21527   6.472   4.803   0.780  0.8626 -1.5103 -0.8093
  921MOL0     H21528   6.238   4.760   0.864  0.9898 -2.4213  1.7466
  921MOL0     H21529   6.238   4.601   0.790 -0.7440 -0.8143 -2.7200
  921MOL0     H21530   6.292   4.851   0.626  2.3700 -0.7381  0.9646
  921MOL0     H21531   6.283   4.683   0.579  1.4082 -1.3572  1.9125
  921MOL0     H21532   6.058   4.656   0.625  0.3448 -0.6606  0.0250
  921MOL0     H21533   6.070   4.804   0.533 -1.4039  2.5772  0.9963
  921MOL0     H21534   5.837   4.687   0.554 -0.4911  1.1398 -1.5108
  921MOL0     H21535   5.612   4.695   0.587 -0.1661  1.3431  0.0419
  921MOL0     H21536   5.246   5.134   0.717 -1.7573  1.2199 -0.0623
  921MOL0     H21537   5.008   5.149   0.752  0.3421 -1.2314 -1.3184
  921MOL0     H21538   4.838   4.989   0.646  3.2158 -1.1192  1.3828
  921MOL0     H21539   4.800   5.133   0.738 -0.1644  0.1643 -1.6498
  921MOL0     H21540   4.573   4.983   0.780  0.5932 -1.9621  0.6396
  921MOL0     H21541   4.653   4.874   0.663  1.2690  0.5515 -2.4616
  921MOL0     H21542   4.635   5.094   0.510 -0.8808  0.3207 -1.6095
  921MOL0     H21543   4.558   5.169   0.652 -3.1694 -0.5145 -0.8786
  921MOL0     H21544   4.461   4.925   0.486 -0.6685 -1.1816  0.3314
  921MOL0     H21545   4.387   4.975   0.635  0.8717 -4.5398 -0.6043
  921MOL0     H21546   4.268   5.063   0.434 -2.3673  2.9388 -0.1563
  921MOL0     H21547   4.410   5.167   0.400  1.2043 -1.8663 -0.9778
  921MOL0     H21548   4.390   5.288   0.603  1.5547 -1.5856 -0.4868
  921MOL0     H21549   4.275   5.176   0.667  2.5460  1.9156  2.5783
  921MOL0     H21550   4.252   5.344   0.404  0.9106  0.0790  0.2691
  921MOL0     H21551   4.117   5.258   0.472  2.0387 -1.9071  0.0722
  921MOL0     H21552   4.088   5.419   0.654  1.2543 -0.6755  0.2482
  921MOL0     H21553   4.107   5.508   0.508  0.0299  1.0396 -0.8870
  921MOL0     H21554   5.006   4.779   0.965  1.5321  0.7019  1.8898
  921MOL0     H21555   5.259   4.768   0.941  2.7917  2.2843  0.5393
  921MOL0     H21556   5.618   4.968   0.902  0.4170 -2.1799  1.2015
  921MOL0     H21557   5.881   4.967   0.874 -0.0002 -0.1546 -1.2998
  921MOL0     H21558   7.752   4.757   1.262  0.6680  0.8152  2.1744
  921MOL0     H21559   7.987   4.706   1.274  0.1362  0.0180  0.4225
  921MOL0     H21560   8.331   4.529   1.259 -1.7406 -2.7597 -0.0802
  921MOL0     H21561   8.580   4.525   1.250 -2.1223 -1.4609 -1.7564
  921MOL0     H21562   8.801   4.535   1.284 -0.4254 -0.3847 -0.1899
  921MOL0     H21563   8.802   4.366   1.225 -2.1349 -0.0765  0.2253
  921MOL0     H21564   9.024   4.474   1.303  0.9248 -0.0189  0.6692
  921MOL0     H21565   8.971   4.452   1.472  1.1638 -0.1749 -0.9373
  921MOL0     H21566   8.966   4.227   1.274 -4.9769  2.1628  0.0838
  921MOL0     H21567   8.955   4.211   1.443  0.6823  0.2898 -0.5355
  921MOL0     H21568   9.217   4.325   1.312  0.0939 -0.5118  0.2515
  921MOL0     H21569   9.190   4.319   1.478  2.1051  1.4846 -2.5144
  921MOL0     H21570   9.281   3.906   1.331 -0.8911 -0.1222 -1.2952
  921MOL0     H21571   8.594   4.254   1.574 -0.5472 -0.8896 -0.5468
  921MOL0     H21572   8.322   4.267   1.587  0.3309  2.0355  2.6107
  922MOL0     O21573   7.532   5.743   1.643  0.0802  0.6800  0.4600
  922MOL0     C21574   7.558   5.717   1.527 -0.1040 -0.5256 -0.6536
  922MOL0     O21575   7.462   5.706   1.426  0.4032  0.0975  0.2304
  922MOL0     C21576   7.328   5.731   1.438  1.2627 -0.1515  0.5539
  922MOL0     C21577   7.252   5.666   1.534 -1.0235  0.9988  0.5724
  922MOL0     C21578   7.115   5.701   1.555 -1.2096  0.6125 -0.2419
  922MOL0     C21579   7.053   5.794   1.471 -0.0724 -0.9040 -0.3208
  922MOL0     O21580   6.926   5.830   1.510  0.2182  0.7547 -0.0185
  922MOL0     C21581   6.866   5.942   1.449 -0.0272 -0.5659 -0.2784
  922MOL0     C21582   6.749   5.978   1.532  0.0384  0.0383 -0.0088
  922MOL0     C21583   6.649   5.865   1.560 -0.0951 -0.0682 -0.6494
  922MOL0     C21584   6.510   5.922   1.605  0.1405  0.0111 -0.1006
  922MOL0     C21585   6.402   5.818   1.627 -0.1765 -0.1192  0.3615
  922MOL0     C21586   6.280   5.883   1.676 -0.2947 -0.4120 -0.3962
  922MOL0     C21587   6.175   5.775   1.700  0.2204  0.5352  0.1156
  922MOL0     C21588   6.037   5.828   1.725  0.3995 -0.4006 -0.2889
  922MOL0     N21589   5.941   5.729   1.748  0.1822 -1.4039 -0.0583
  922MOL0     C21590   5.868   5.716   1.859 -0.0141 -0.0596  0.1322
  922MOL0     C21591   5.789   5.605   1.834  0.7771 -1.5362  0.5949
  922MOL0     C21592   5.704   5.546   1.938  0.1924 -0.9396 -0.2512
  922MOL0     C21593   5.569   5.606   1.945 -0.5143  0.3832  1.2423
  922MOL0     C21594   5.480   5.598   1.822  0.0240  0.4467 -0.2485
  922MOL0     C21595   5.340   5.652   1.843  0.0191  0.2243 -0.8443
  922MOL0     O21596   5.360   5.786   1.869  0.5604 -0.7684 -0.0929
  922MOL0     C21597   5.252   5.867   1.905 -0.4117 -0.1174  0.3135
  922MOL0     C21598   5.257   5.935   2.019 -0.0968 -0.1284 -0.3690
  922MOL0     C21599   5.157   6.022   2.055 -0.0388 -0.0032 -1.0206
  922MOL0     C21600   5.050   6.045   1.959 -1.1307 -0.2221  0.5788
  922MOL0     C21601   4.949   6.145   1.987  0.1368  0.6471  0.1376
  922MOL0     O21602   4.838   6.145   1.904 -0.4643  0.0611 -0.0281
  922MOL0     C21603   4.724   6.214   1.915  0.9216 -0.9396 -0.0391
  922MOL0     C21604   4.707   6.339   1.993  0.2046 -1.0512 -0.6148
  922MOL0     C21605   4.580   6.397   2.004  0.3501 -0.4813  0.2449
  922MOL0     C21606   4.468   6.343   1.933 -0.4448 -0.1414  0.1183
  922MOL0     O21607   4.338   6.384   1.926  0.7561 -0.1485 -0.6352
  922MOL0     C21608   4.300   6.502   2.000 -0.4962 -0.6298 -0.5593
  922MOL0     C21609   4.255   6.480   2.142  0.2830  0.9776 -0.4567
  922MOL0     C21610   4.130   6.405   2.135  0.7117  0.9839  0.3168
  922MOL0     C21611   4.057   6.385   2.279 -0.7691 -0.6555  0.0411
  922MOL0     C21612   3.938   6.279   2.271 -0.0092 -0.3188  0.5157
  922MOL0     C21613   3.808   6.350   2.222  0.9747 -0.1513  0.4052
  922MOL0     C21614   3.703   6.241   2.209 -0.3891 -0.4421  0.1472
  922MOL0     C21615   3.562   6.293   2.178  0.1306  0.6755  0.0571
  922MOL0    Cl21616   3.460   6.172   2.101 -0.3054 -0.1024 -0.4457
  922MOL0     C21617   4.490   6.232   1.855  1.2167  0.2551 -0.1621
  922MOL0     C21618   4.616   6.165   1.844  0.2761  0.0544  0.6862
  922MOL0     O21619   4.973   6.223   2.081  0.3554  0.3894  0.0586
  922MOL0     C21620   5.048   5.973   1.836  0.3940  0.4281  0.1295
  922MOL0     C21621   5.150   5.888   1.815 -0.0859  0.5310  0.3520
  922MOL0     N21622   5.812   5.565   1.696 -0.1392 -0.2339 -1.1630
  922MOL0     N21623   5.898   5.647   1.645  1.0460 -0.4793 -0.1415
  922MOL0     C21624   7.120   5.856   1.365  0.0955  0.7293  0.7577
  922MOL0     C21625   7.256   5.819   1.351  0.2119  0.8186 -0.3508
  922MOL0     C21626   7.706   5.714   1.487 -0.3835  0.1569  0.1478
  922MOL0     C21627   7.794   5.685   1.581 -0.6772 -0.4989  0.2193
  922MOL0     C21628   7.933   5.675   1.544  0.4736  0.0721  0.5255
  922MOL0     C21629   7.968   5.693   1.407 -0.8681 -0.4296  0.0742
  922MOL0     O21630   8.096   5.676   1.346 -0.1915 -0.7550  0.0129
  922MOL0     C21631   8.209   5.658   1.432  0.1016 -0.0922 -0.3990
  922MOL0     C21632   8.342   5.623   1.356 -0.2083  0.4817  0.2773
  922MOL0     C21633   8.462   5.604   1.445 -1.1256  0.5617 -0.5987
  922MOL0     C21634   8.576   5.544   1.372 -0.3619  0.1776 -0.2999
  922MOL0     C21635   8.611   5.613   1.247 -0.6167  0.5173  0.1136
  922MOL0     C21636   8.650   5.673   1.148  0.6984  0.8797 -0.3426
  922MOL0     C21637   7.868   5.731   1.320 -0.4751 -0.5325  0.3468
  922MOL0     C21638   7.742   5.748   1.357  0.0302 -0.8512  0.4515
  922MOL0     H21639   7.301   5.584   1.586 -2.9734  0.1097  1.0828
  922MOL0     H21640   7.059   5.659   1.638  1.8696 -1.2083  1.0872
  922MOL0     H21641   6.837   5.916   1.347 -3.2940 -0.4295  0.5214
  922MOL0     H21642   6.930   6.030   1.460 -1.7615  0.7085  0.0045
  922MOL0     H21643   6.701   6.064   1.485 -1.0824 -1.7213 -2.3090
  922MOL0     H21644   6.786   6.007   1.630 -0.7638  1.9801 -0.2396
  922MOL0     H21645   6.691   5.804   1.640 -1.5432 -0.8200 -0.4364
  922MOL0     H21646   6.641   5.809   1.466  0.8895 -1.4857  0.0726
  922MOL0     H21647   6.520   5.973   1.702 -0.5782 -1.3602  0.7257
  922MOL0     H21648   6.471   5.991   1.530  0.0509  0.2236  0.1404
  922MOL0     H21649   6.444   5.750   1.702  0.9730 -0.0200 -0.1671
  922MOL0     H21650   6.380   5.765   1.534  0.6019  1.3354 -0.6885
  922MOL0     H21651   6.232   5.955   1.608  1.2088  0.9731 -0.0449
  922MOL0     H21652   6.299   5.935   1.771 -0.9194  0.5590 -0.7878
  922MOL0     H21653   6.175   5.700   1.620  0.6502  1.2477 -0.5653
  922MOL0     H21654   6.198   5.726   1.795  0.4443 -0.2812 -0.3489
  922MOL0     H21655   5.991   5.886   1.644 -0.2814 -0.0361  0.3374
  922MOL0     H21656   6.037   5.889   1.816 -0.4751 -0.3780 -0.2955
  922MOL0     H21657   5.870   5.773   1.952  0.5317  0.0640  0.0490
  922MOL0     H21658   5.747   5.563   2.037 -3.6077  2.0255  1.1330
  922MOL0     H21659   5.700   5.437   1.930  1.4328 -1.1427  1.3205
  922MOL0     H21660   5.580   5.713   1.960 -2.2077  1.1506 -2.1605
  922MOL0     H21661   5.523   5.558   2.032 -2.5196  1.9445  1.1032
  922MOL0     H21662   5.524   5.665   1.747 -0.1661 -1.4346 -2.1282
  922MOL0     H21663   5.479   5.495   1.785  0.3339  0.1674  0.4932
  922MOL0     H21664   5.297   5.610   1.934  1.9330 -0.3920 -0.1832
  922MOL0     H21665   5.275   5.624   1.759  1.0176 -0.5499 -1.3834
  922MOL0     H21666   5.342   5.919   2.084  0.4640  2.2849 -0.4242
  922MOL0     H21667   5.165   6.082   2.145 -3.0048  0.6858 -1.1095
  922MOL0     H21668   4.781   6.389   2.056 -2.7522  2.2435  0.5962
  922MOL0     H21669   4.572   6.493   2.054  3.2240 -0.4034  0.7571
  922MOL0     H21670   4.220   6.548   1.942  0.5210 -1.4176 -2.6985
  922MOL0     H21671   4.383   6.572   2.010 -0.5064 -0.8749  1.7715
  922MOL0     H21672   4.245   6.577   2.192 -0.2169 -0.2765  2.0115
  922MOL0     H21673   4.343   6.436   2.189  0.8906  2.6270  0.0073
  922MOL0     H21674   4.149   6.303   2.100 -1.1044  0.6488  0.2024
  922MOL0     H21675   4.058   6.444   2.063 -1.5294  0.4355  2.1574
  922MOL0     H21676   4.136   6.352   2.348  1.8174  3.4760 -0.5963
  922MOL0     H21677   4.037   6.487   2.312 -1.9169 -1.4071  1.8551
  922MOL0     H21678   3.906   6.250   2.371  1.4111  1.1802  1.4605
  922MOL0     H21679   3.961   6.190   2.212  0.1029  0.6462 -0.9681
  922MOL0     H21680   3.831   6.397   2.126  0.5846  0.4192  0.5866
  922MOL0     H21681   3.772   6.429   2.288 -0.5850 -0.1255 -0.4284
  922MOL0     H21682   3.737   6.170   2.133 -3.0361  0.1869 -1.7679
  922MOL0     H21683   3.697   6.192   2.306 -2.9509 -3.6043 -1.4227
  922MOL0     H21684   3.567   6.381   2.113  1.0832 -0.1510 -1.0151
  922MOL0     H21685   3.524   6.313   2.279  0.5724 -2.7266  1.0063
  922MOL0     H21686   4.400   6.187   1.813 -0.2354  0.3371  2.6786
  922MOL0     H21687   4.639   6.069   1.798 -1.1823  1.3334 -3.1314
  922MOL0     H21688   4.964   5.984   1.768 -0.8088 -1.3756  1.2294
  922MOL0     H21689   5.138   5.832   1.723  0.0204 -0.1633  0.7549
  922MOL0     H21690   7.075   5.935   1.305  0.3688  3.0336  3.3652
  922MOL0     H21691   7.313   5.858   1.267  1.0106  3.1271  1.1842
  922MOL0     H21692   7.747   5.670   1.678  0.2478  3.2473  1.3980
  922MOL0     H21693   8.019   5.650   1.606  0.6380  0.6432  0.5405
  922MOL0     H21694   8.193   5.577   1.503  2.4922 -1.3190 -1.1464
  922MOL0     H21695   8.225   5.746   1.495 -0.8153  0.2260 -0.5873
  922MOL0     H21696   8.326   5.534   1.295  3.5006  0.9212 -1.6424
  922MOL0     H21697   8.357   5.706   1.286  1.2851 -0.7341 -0.8991
  922MOL0     H21698   8.446   5.564   1.546  4.1336 -0.0470  0.2718
  922MOL0     H21699   8.491   5.706   1.475 -0.9381  0.3368  0.0114
  922MOL0     H21700   8.664   5.523   1.434 -1.2565 -2.2388  0.2535
  922MOL0     H21701   8.548   5.442   1.346  4.5113 -1.3202 -0.6519
  922MOL0     H21702   8.686   5.733   1.067  1.8250  1.7972  0.7960
  922MOL0     H21703   7.899   5.741   1.216  1.5629  1.3807  1.0475
  922MOL0     H21704   7.671   5.777   1.281  3.6088  1.3365 -2.3833
  923MOL0     O21705   6.745   8.879  10.097  0.2694 -0.3226 -0.1452
  923MOL0     C21706   6.789   8.928   9.993 -0.6450 -0.6709 -0.0480
  923MOL0     O21707   6.714   8.962   9.884  0.0032 -0.3042  0.0577
  923MOL0     C21708   6.574   8.965   9.891 -0.4395 -0.4109  0.7615
  923MOL0     C21709   6.507   9.087   9.890 -0.4038  0.9239  1.0863
  923MOL0     C21710   6.362   9.084   9.886 -0.2324  0.1279  0.4636
  923MOL0     C21711   6.286   8.964   9.890 -0.5964 -0.2367  0.2815
  923MOL0     O21712   6.151   8.954   9.877  0.3130  0.1569 -0.2285
  923MOL0     C21713   6.071   9.060   9.937 -0.2328 -0.6822  0.2390
  923MOL0     C21714   5.935   9.010  10.002  0.6233 -0.5918 -0.1276
  923MOL0     C21715   5.832   9.127   9.992  0.4474  0.5823  0.4675
  923MOL0     C21716   5.725   9.110  10.090  0.0149  0.2971  0.3220
  923MOL0     C21717   5.613   9.219  10.082 -0.5816  0.1250 -0.0959
  923MOL0     C21718   5.518   9.190  10.196 -0.5621 -0.3949 -1.6625
  923MOL0     C21719   5.416   9.304  10.185  0.0338 -0.1778 -0.3295
  923MOL0     C21720   5.313   9.304  10.297  0.2116 -0.4657 -0.2256
  923MOL0     N21721   5.209   9.406  10.262 -0.1635  0.2772  1.0712
  923MOL0     C21722   5.116   9.386  10.167 -0.2021 -0.3521 -0.2565
  923MOL0     C21723   5.066   9.507  10.134  1.3412  0.7785 -0.1313
  923MOL0     C21724   4.964   9.544  10.032 -0.3284 -0.0671  0.1366
  923MOL0     C21725   4.827   9.512  10.081 -0.0389 -0.7058 -0.3909
  923MOL0     C21726   4.758   9.628  10.140  0.1356 -0.1090 -0.4844
  923MOL0     C21727   4.619   9.579  10.195  0.6065 -0.4849  0.1114
  923MOL0     O21728   4.632   9.489  10.304  0.5202  0.3643  0.2709
  923MOL0     C21729   4.509   9.438  10.360 -0.7791 -0.4062 -0.3559
  923MOL0     C21730   4.381   9.461  10.307 -1.0439  0.8293 -0.2208
  923MOL0     C21731   4.264   9.413  10.367  1.5556  0.1271 -0.9922
  923MOL0     C21732   4.265   9.344  10.493 -0.4747  0.2311 -0.4319
  923MOL0     C21733   4.143   9.296  10.564  0.3429 -0.6814 -0.2191
  923MOL0     O21734   4.037   9.314  10.480  0.3519  0.4664  0.3195
  923MOL0     C21735   3.922   9.260  10.524  0.1204 -0.2700  0.2305
  923MOL0     C21736   3.830   9.343  10.597 -0.3348 -0.0747  0.3542
  923MOL0     C21737   3.710   9.284  10.644  0.1484  0.2336  0.1413
  923MOL0     C21738   3.689   9.147  10.634  0.2821 -0.5361 -0.5241
  923MOL0     O21739   3.577   9.084  10.676  0.0043 -0.0838 -0.1469
  923MOL0     C21740   3.456   9.168  10.688  0.0595 -0.7930 -0.0595
  923MOL0     C21741   3.327   9.092  10.665 -1.1210 -0.0314 -0.7386
  923MOL0     C21742   3.218   9.198  10.665  0.7931 -0.7881  0.1710
  923MOL0     C21743   3.073   9.136  10.673 -0.8792 -0.7785 -0.2392
  923MOL0     C21744   2.970   9.259  10.691 -0.2193  0.2251  0.3357
  923MOL0     C21745   2.819   9.223  10.670 -0.1744 -0.7619  0.2199
  923MOL0     C21746   2.756   9.151  10.792 -0.6684 -0.4290 -0.3996
  923MOL0     C21747   2.614   9.097  10.757  0.2581  0.2977  0.2921
  923MOL0    Cl21748   2.482   9.217  10.758 -0.4807  0.0592 -0.3875
  923MOL0     C21749   3.786   9.068  10.570 -0.0024  0.6066 -0.0648
  923MOL0     C21750   3.897   9.124  10.505  0.3591  0.7175  0.3256
  923MOL0     O21751   4.138   9.262  10.678 -0.3319  0.2711  0.1538
  923MOL0     C21752   4.394   9.330  10.555 -0.4596 -0.1021 -0.3696
  923MOL0     C21753   4.516   9.369  10.493 -0.6753 -0.4060  0.5584
  923MOL0     N21754   5.126   9.602  10.213 -0.5246 -0.7702  0.3720
  923MOL0     N21755   5.211   9.536  10.292  0.0120 -0.9885  0.5061
  923MOL0     C21756   6.357   8.840   9.911 -0.4717 -0.2862  1.2310
  923MOL0     C21757   6.497   8.851   9.911  1.4345  0.6986  0.5506
  923MOL0     C21758   6.935   8.959   9.976  0.0208  0.0295 -0.4380
  923MOL0     C21759   6.976   9.071   9.915 -0.7036  0.1723  0.1023
  923MOL0     C21760   7.109   9.114   9.905 -0.3405  0.3286 -0.0329
  923MOL0     C21761   7.206   9.038   9.967 -0.5502  0.5966 -0.0789
  923MOL0     O21762   7.336   9.074   9.960 -0.1737  0.7758 -0.0562
  923MOL0     C21763   7.393   9.081   9.831  0.1287  0.2824  0.8503
  923MOL0     C21764   7.407   8.948   9.747  0.1532 -0.7217  1.0346
  923MOL0     C21765   7.505   8.858   9.810  0.2376 -0.4127  0.4100
  923MOL0     C21766   7.653   8.902   9.800  0.5941 -0.3120 -0.1917
  923MOL0     C21767   7.738   8.782   9.831  0.6403  0.0955 -0.0185
  923MOL0     C21768   7.820   8.696   9.858  0.4326 -0.2598 -0.1927
  923MOL0     C21769   7.173   8.927  10.040 -0.0381  0.5392  0.3379
  923MOL0     C21770   7.037   8.893  10.046 -0.9747  0.3944 -0.8029
  923MOL0     H21771   6.564   9.179   9.879  2.6763 -0.9015  0.6075
  923MOL0     H21772   6.307   9.177   9.873  0.9114  0.9835  1.5155
  923MOL0     H21773   6.056   9.144   9.868 -0.7910 -0.5172  0.5588
  923MOL0     H21774   6.116   9.104  10.027 -2.9742  0.7413  1.0245
  923MOL0     H21775   5.947   8.990  10.109  2.4481  0.6098 -0.0638
  923MOL0     H21776   5.910   8.913   9.958 -0.2683  0.3885 -1.8723
  923MOL0     H21777   5.779   9.125   9.897 -1.3469 -0.8740  1.4417
  923MOL0     H21778   5.872   9.228  10.002 -2.0495  1.6619  0.1966
  923MOL0     H21779   5.674   9.014  10.076 -1.5513  0.9268  1.3850
  923MOL0     H21780   5.771   9.102  10.188 -1.1585  1.2494  0.9823
  923MOL0     H21781   5.571   9.215   9.981 -0.2035 -0.9546 -0.2194
  923MOL0     H21782   5.659   9.318  10.094 -1.4693  0.3806  1.5240
  923MOL0     H21783   5.578   9.196  10.287 -1.8928 -0.7303 -0.7278
  923MOL0     H21784   5.474   9.092  10.180  1.0615 -1.5213  0.2704
  923MOL0     H21785   5.467   9.401  10.183  0.0981 -0.1845 -2.6620
  923MOL0     H21786   5.376   9.294  10.084 -0.6856 -0.5558 -0.0103
  923MOL0     H21787   5.365   9.327  10.391  0.9124 -1.8258 -0.2577
  923MOL0     H21788   5.275   9.204  10.321 -1.9710  0.2683 -0.3650
  923MOL0     H21789   5.094   9.290  10.121  0.8857 -1.0112  0.5315
  923MOL0     H21790   4.990   9.484   9.943 -0.6816 -0.0262  0.0041
  923MOL0     H21791   4.970   9.646   9.994 -0.9660  0.5504  1.6652
  923MOL0     H21792   4.837   9.440  10.164 -0.3966 -0.7733 -0.4086
  923MOL0     H21793   4.768   9.480   9.995  0.1866 -0.0021 -0.8157
  923MOL0     H21794   4.815   9.668  10.225  0.2194  0.0643 -0.6232
  923MOL0     H21795   4.734   9.707  10.069 -0.7659  0.7640  0.7282
  923MOL0     H21796   4.568   9.536  10.109 -0.1959 -1.0469  0.8537
  923MOL0     H21797   4.567   9.672  10.219  0.9103 -0.7237  1.8809
  923MOL0     H21798   4.369   9.523  10.219 -0.7819  2.2564  0.7117
  923MOL0     H21799   4.171   9.437  10.317  0.0458  0.9657  1.9838
  923MOL0     H21800   3.851   9.448  10.616  1.1726 -0.1581 -0.6085
  923MOL0     H21801   3.638   9.348  10.695 -0.2458  0.7168 -0.9815
  923MOL0     H21802   3.461   9.246  10.611 -0.0495  0.9091  1.5885
  923MOL0     H21803   3.452   9.215  10.786 -1.8476 -0.9804 -0.0225
  923MOL0     H21804   3.318   9.021  10.748  0.6862 -1.0050 -1.3140
  923MOL0     H21805   3.335   9.034  10.573 -0.2330 -1.8997  0.4379
  923MOL0     H21806   3.227   9.268  10.582 -0.7491 -0.2843  0.3982
  923MOL0     H21807   3.228   9.264  10.752 -0.0571  0.8526 -0.9164
  923MOL0     H21808   3.050   9.077  10.584  1.3533 -0.4620 -1.0926
  923MOL0     H21809   3.072   9.073  10.762  2.5906 -1.0765 -0.3103
  923MOL0     H21810   2.993   9.324  10.606 -0.7785 -1.4049 -1.1053
  923MOL0     H21811   2.979   9.312  10.787 -2.2470 -0.4003  0.9241
  923MOL0     H21812   2.803   9.177  10.572  2.1826  1.6934 -1.4413
  923MOL0     H21813   2.774   9.321  10.657  4.9897  2.1548  1.5452
  923MOL0     H21814   2.823   9.070  10.820  0.0772  0.0704 -0.6949
  923MOL0     H21815   2.765   9.223  10.875  3.8330 -1.3166  0.1183
  923MOL0     H21816   2.596   9.027  10.839  0.9669  1.8232  1.8073
  923MOL0     H21817   2.608   9.043  10.662 -1.7287  3.9137 -1.8566
  923MOL0     H21818   3.767   8.962  10.566 -1.8271  0.8384 -5.2248
  923MOL0     H21819   3.964   9.064  10.444  0.5877  1.3272 -0.0261
  923MOL0     H21820   4.392   9.288  10.655 -3.0836 -0.6732 -0.5878
  923MOL0     H21821   4.613   9.331  10.523 -0.1742 -1.6786 -2.2547
  923MOL0     H21822   6.305   8.745   9.918  0.4994 -1.4298 -3.3906
  923MOL0     H21823   6.550   8.756   9.912 -2.1156 -1.4795 -0.2689
  923MOL0     H21824   6.891   9.122   9.870 -0.8230  1.0621  1.2894
  923MOL0     H21825   7.135   9.204   9.850 -0.0105 -0.4601 -1.1880
  923MOL0     H21826   7.478   9.149   9.834 -0.2028  0.7691 -0.4372
  923MOL0     H21827   7.322   9.138   9.770 -0.2873  0.5109  1.5373
  923MOL0     H21828   7.307   8.904   9.739 -1.1556  2.0206  0.7094
  923MOL0     H21829   7.434   8.984   9.647 -1.1961  1.5110  1.3780
  923MOL0     H21830   7.497   8.766   9.750  2.9205  0.7080 -1.8998
  923MOL0     H21831   7.482   8.828   9.913  0.7456 -1.3642  0.2587
  923MOL0     H21832   7.668   8.934   9.697  1.4591 -0.3761 -0.0941
  923MOL0     H21833   7.675   8.990   9.862  1.4662 -0.9718  0.4658
  923MOL0     H21834   7.872   8.608   9.888 -1.0492 -0.9219  0.4798
  923MOL0     H21835   7.241   8.859  10.090 -2.7410 -2.9505 -0.2729
  923MOL0     H21836   7.001   8.811  10.107  0.2807  0.9594  0.7580
  924MOL0     O21837   9.241   0.205  10.107 -0.4822 -0.2726 -0.0805
  924MOL0     C21838   9.279   0.325  10.072  0.3250 -0.2553 -0.0847
  924MOL0     O21839   9.208   0.405   9.991 -0.9921 -0.4562  0.2736
  924MOL0     C21840   9.083   0.354   9.944 -1.1747  0.0527  0.2845
  924MOL0     C21841   8.974   0.385  10.029  0.6806  0.5010 -0.0118
  924MOL0     C21842   8.843   0.349   9.993  0.0463  0.2513  0.5687
  924MOL0     C21843   8.823   0.299   9.871 -0.3732  0.2858 -0.3757
  924MOL0     O21844   8.689   0.273   9.839  0.3097  0.7098  0.4115
  924MOL0     C21845   8.660   0.185   9.734  0.3075  0.1826  0.4707
  924MOL0     C21846   8.521   0.149   9.712  0.3803  0.1088 -0.1510
  924MOL0     C21847   8.443   0.275   9.668 -0.1188  0.6321  0.1395
  924MOL0     C21848   8.303   0.217   9.609 -0.3659 -0.4912 -0.3236
  924MOL0     C21849   8.207   0.339   9.592 -0.2182 -0.0276  0.2798
  924MOL0     C21850   8.074   0.306   9.523  0.6536  0.5902 -0.7134
  924MOL0     C21851   8.083   0.264   9.374 -1.0399  1.0264 -0.4307
  924MOL0     C21852   7.957   0.292   9.293 -0.6090  0.5827  0.1359
  924MOL0     N21853   7.927   0.435   9.282  0.7451  0.2951 -0.2349
  924MOL0     C21854   7.826   0.505   9.349  0.3894 -0.3330  0.2129
  924MOL0     C21855   7.819   0.627   9.294  0.4472 -0.8818 -0.5617
  924MOL0     C21856   7.707   0.731   9.298  0.4979  0.3565 -0.1702
  924MOL0     C21857   7.581   0.671   9.246 -0.9887  0.9815 -0.5395
  924MOL0     C21858   7.472   0.778   9.242  0.3292  0.7228 -0.2782
  924MOL0     C21859   7.340   0.715   9.205  0.6703 -0.0281  0.6188
  924MOL0     O21860   7.251   0.823   9.179  0.0741 -1.0608  0.1399
  924MOL0     C21861   7.119   0.801   9.155 -0.7986  0.5089 -0.2755
  924MOL0     C21862   7.034   0.909   9.159  0.1427  0.4492 -0.2790
  924MOL0     C21863   6.897   0.885   9.131  0.1837 -0.4082  0.3346
  924MOL0     C21864   6.836   0.755   9.110 -0.6282  0.8854 -0.8054
  924MOL0     C21865   6.691   0.739   9.091  0.0560  0.6008 -1.5443
  924MOL0     O21866   6.608   0.828   9.143 -0.4795  0.8896  0.9188
  924MOL0     C21867   6.478   0.793   9.155 -0.2413  0.2013  0.4103
  924MOL0     C21868   6.417   0.716   9.255 -0.4723  0.4922  0.3117
  924MOL0     C21869   6.287   0.673   9.244  0.6751 -1.4995 -0.2381
  924MOL0     C21870   6.218   0.707   9.130  0.3087  0.0430  0.0936
  924MOL0     O21871   6.084   0.675   9.119 -0.6545 -0.4476  0.5553
  924MOL0     C21872   6.009   0.586   9.210 -0.5788  0.7814 -0.6642
  924MOL0     C21873   6.058   0.438   9.205  0.0005 -0.2626 -0.6759
  924MOL0     C21874   5.993   0.366   9.084 -0.0487  0.4607  0.2388
  924MOL0     C21875   5.853   0.312   9.120  0.0578  0.1966 -0.4353
  924MOL0     C21876   5.799   0.225   9.006  0.4180  0.4448  0.3977
  924MOL0     C21877   5.675   0.141   9.049 -0.7553 -1.0250  0.5484
  924MOL0     C21878   5.544   0.212   9.031 -0.2934 -0.4229 -0.1738
  924MOL0     C21879   5.435   0.138   9.108 -0.7059 -0.3847 -0.3331
  924MOL0    Cl21880   5.431  -0.051   9.084  0.3607 -0.4357  0.4622
  924MOL0     C21881   6.271   0.780   9.027  0.3013 -0.7896 -0.3797
  924MOL0     C21882   6.402   0.815   9.039 -0.2980  0.3546  0.5455
  924MOL0     O21883   6.657   0.633   9.043  0.2319  0.5385 -0.1451
  924MOL0     C21884   6.926   0.647   9.103 -0.3387  1.1694 -1.4187
  924MOL0     C21885   7.066   0.668   9.123  0.1547  0.1961  0.2395
  924MOL0     N21886   7.921   0.634   9.198  0.0647 -0.0767  0.2909
  924MOL0     N21887   7.980   0.516   9.194  0.0474 -0.0796  1.1539
  924MOL0     C21888   8.924   0.275   9.783  0.0390 -0.2369  0.0800
  924MOL0     C21889   9.056   0.303   9.816  0.0530  0.0446 -0.7094
  924MOL0     C21890   9.421   0.376  10.096 -0.4445 -0.6539 -0.3072
  924MOL0     C21891   9.514   0.303  10.171 -0.3282  0.1402  0.4586
  924MOL0     C21892   9.643   0.346  10.198  0.1709 -0.3464 -0.9246
  924MOL0     C21893   9.691   0.461  10.144  0.3533  0.3085 -0.1633
  924MOL0     O21894   9.814   0.512  10.166 -0.7190  0.2425 -0.3530
  924MOL0     C21895   9.927   0.421  10.175  0.6388  0.2375  0.6962
  924MOL0     C21896  10.020   0.442  10.058 -0.1655  0.2627 -0.0689
  924MOL0     C21897   9.959   0.392   9.934 -0.4944  0.8661  1.0591
  924MOL0     C21898   9.948   0.497   9.823  0.4391  0.1033  0.6265
  924MOL0     C21899  10.083   0.540   9.776  0.3162 -0.3984  0.1398
  924MOL0     C21900  10.192   0.575   9.739 -0.1937  1.0085  0.6765
  924MOL0     C21901   9.597   0.540  10.086 -0.1012  0.1880  0.1923
  924MOL0     C21902   9.465   0.505  10.058  0.0974  0.1361  0.1925
  924MOL0     H21903   8.999   0.446  10.115  0.7355  0.8558 -0.2774
  924MOL0     H21904   8.763   0.367  10.063 -0.9726 -2.8439  0.3541
  924MOL0     H21905   8.715   0.091   9.741  0.3358  0.2290  0.9015
  924MOL0     H21906   8.691   0.233   9.640  2.0632 -2.0512 -0.2028
  924MOL0     H21907   8.485   0.107   9.806  1.3725 -0.9114 -0.2080
  924MOL0     H21908   8.510   0.076   9.631 -3.9760  0.0706  0.2427
  924MOL0     H21909   8.489   0.317   9.578  2.5577  0.4210  1.3296
  924MOL0     H21910   8.439   0.351   9.746  2.6160  0.6956  0.3105
  924MOL0     H21911   8.322   0.166   9.514 -2.5821 -2.4007  0.1623
  924MOL0     H21912   8.254   0.143   9.674 -1.3044 -1.3030 -1.9124
  924MOL0     H21913   8.254   0.421   9.537  2.2961 -2.5967 -1.6847
  924MOL0     H21914   8.195   0.377   9.694  0.0334  0.0977  0.2626
  924MOL0     H21915   8.017   0.398   9.531 -0.9624 -0.3073 -1.5060
  924MOL0     H21916   8.017   0.233   9.581  0.2256  0.4310 -1.3205
  924MOL0     H21917   8.176   0.304   9.332  0.1495  0.4590  1.4986
  924MOL0     H21918   8.109   0.158   9.375  0.6805  1.3916 -1.6965
  924MOL0     H21919   7.870   0.238   9.332 -0.3852  0.3523  0.3180
  924MOL0     H21920   7.972   0.252   9.192 -1.4016 -0.6824  0.4955
  924MOL0     H21921   7.751   0.459   9.414  2.6802 -0.4688  2.9417
  924MOL0     H21922   7.745   0.824   9.255  1.6937  1.8655  3.6380
  924MOL0     H21923   7.686   0.772   9.398  0.5082 -1.3602  0.5674
  924MOL0     H21924   7.551   0.580   9.300 -1.6396  1.3461 -0.2718
  924MOL0     H21925   7.598   0.635   9.144  0.1152  0.0419 -0.0552
  924MOL0     H21926   7.470   0.827   9.340 -1.5091 -0.4845  0.3430
  924MOL0     H21927   7.496   0.864   9.178  2.8921  2.2535  2.4838
  924MOL0     H21928   7.299   0.661   9.290 -1.7159  1.1428  0.3073
  924MOL0     H21929   7.350   0.659   9.112 -1.3564 -0.2178  0.4874
  924MOL0     H21930   7.077   1.001   9.197 -0.8097  0.2460  1.3605
  924MOL0     H21931   6.834   0.973   9.130 -0.3625 -0.7864 -1.3453
  924MOL0     H21932   6.472   0.694   9.345  1.2289  1.9529 -0.3130
  924MOL0     H21933   6.240   0.624   9.328  3.3703 -2.1893  0.9486
  924MOL0     H21934   5.903   0.593   9.184 -0.6241 -1.5841 -1.2606
  924MOL0     H21935   6.019   0.621   9.314 -3.8712  2.2843 -0.7099
  924MOL0     H21936   6.040   0.392   9.303 -0.6539 -2.4427 -1.7511
  924MOL0     H21937   6.167   0.439   9.195 -0.0292 -1.3781 -1.2360
  924MOL0     H21938   6.056   0.284   9.047  0.3999  1.6830 -1.8569
  924MOL0     H21939   5.983   0.448   9.013  1.5799  2.9523  2.6526
  924MOL0     H21940   5.877   0.259   9.213  0.1595 -0.5575 -0.8916
  924MOL0     H21941   5.781   0.394   9.132 -1.6613 -0.7025 -3.5461
  924MOL0     H21942   5.878   0.155   8.975 -0.3465 -0.8903  1.3610
  924MOL0     H21943   5.766   0.277   8.916 -1.2442 -2.1827 -0.6536
  924MOL0     H21944   5.683   0.114   9.155 -1.7038 -0.5653  0.7431
  924MOL0     H21945   5.675   0.044   9.000  0.4123 -0.3622 -0.8106
  924MOL0     H21946   5.554   0.313   9.074 -4.5156  0.8598 -1.6117
  924MOL0     H21947   5.513   0.230   8.928  1.3309 -0.2590 -0.6615
  924MOL0     H21948   5.336   0.176   9.083 -0.7247 -0.5114 -0.4507
  924MOL0     H21949   5.453   0.155   9.215  0.2447 -0.1396 -0.5260
  924MOL0     H21950   6.209   0.815   8.945 -0.5625 -1.3038  0.0410
  924MOL0     H21951   6.456   0.865   8.958  1.5498 -1.7679  0.3642
  924MOL0     H21952   6.894   0.544   9.092  1.0620  0.4520  0.7680
  924MOL0     H21953   7.133   0.583   9.120  1.0213  0.9057 -1.2697
  924MOL0     H21954   8.909   0.234   9.683  1.7079  1.7572 -1.0784
  924MOL0     H21955   9.141   0.292   9.749 -0.0631 -0.0191 -0.8470
  924MOL0     H21956   9.489   0.201  10.198  0.9398 -0.9462 -2.1735
  924MOL0     H21957   9.707   0.284  10.261  0.9503 -0.5787 -1.9172
  924MOL0     H21958   9.889   0.318  10.170  0.6525  0.2990 -1.3525
  924MOL0     H21959   9.978   0.432  10.271 -0.2861 -1.7843  1.4867
  924MOL0     H21960  10.038   0.550  10.055  0.8165  0.1235  0.5448
  924MOL0     H21961  10.113   0.388  10.079  0.0353  0.8192  0.4740
  924MOL0     H21962   9.864   0.342   9.958 -1.6184  2.5584  0.3618
  924MOL0     H21963  10.018   0.312   9.889 -0.9857 -0.4210  2.6056
  924MOL0     H21964   9.895   0.459   9.735 -1.2087  0.1107  1.5797
  924MOL0     H21965   9.895   0.582   9.867  0.6748  1.2553 -1.2270
  924MOL0     H21966  10.292   0.597   9.707 -0.9568  0.5903 -2.2787
  924MOL0     H21967   9.632   0.642  10.072  0.7506  0.1826  2.0318
  924MOL0     H21968   9.389   0.574  10.024 -1.7187 -1.0562  1.6046
  925MOL0     O21969   4.787   3.977   1.698 -0.4618  0.6981  0.6256
  925MOL0     C21970   4.880   4.011   1.628 -0.5091 -0.2713 -0.8017
  925MOL0     O21971   4.872   4.063   1.509  0.2826  0.2044 -0.2718
  925MOL0     C21972   4.756   4.093   1.442 -0.1787 -0.1435  0.1024
  925MOL0     C21973   4.759   4.121   1.307 -0.7937 -0.3737  0.5170
  925MOL0     C21974   4.651   4.167   1.239  0.4880  0.0930  0.4011
  925MOL0     C21975   4.527   4.182   1.301 -0.3304 -0.9057 -0.2692
  925MOL0     O21976   4.419   4.225   1.222  0.4669  0.5068 -0.1406
  925MOL0     C21977   4.328   4.309   1.289  0.2571 -0.0345  0.7813
  925MOL0     C21978   4.251   4.408   1.199 -0.1233  0.1857 -0.1662
  925MOL0     C21979   4.128   4.332   1.147  0.1927  0.1146 -0.6479
  925MOL0     C21980   4.029   4.415   1.073  0.3880 -0.5756  0.2214
  925MOL0     C21981   3.881   4.367   1.070 -0.3592  0.7400 -0.3512
  925MOL0     C21982   3.782   4.472   1.033 -0.2299  0.0749  0.5394
  925MOL0     C21983   3.640   4.418   1.058 -0.4227  0.5562  0.0647
  925MOL0     C21984   3.568   4.349   0.936  0.5337 -0.0697 -0.2698
  925MOL0     N21985   3.556   4.445   0.827 -0.5133  0.0635  1.0047
  925MOL0     C21986   3.500   4.571   0.838  0.1187 -0.8313  0.3567
  925MOL0     C21987   3.487   4.618   0.707  0.0946 -0.6488 -0.3549
  925MOL0     C21988   3.415   4.743   0.649 -0.2013  0.0671 -0.0834
  925MOL0     C21989   3.263   4.732   0.615 -0.7914  0.3706 -0.0969
  925MOL0     C21990   3.197   4.867   0.579  1.0198  0.0964  0.3186
  925MOL0     C21991   3.055   4.858   0.544 -0.5036  0.2947  0.4575
  925MOL0     O21992   2.986   4.811   0.662  0.1919  0.4783 -0.4605
  925MOL0     C21993   2.850   4.819   0.667 -0.0860 -0.4794  1.1060
  925MOL0     C21994   2.768   4.850   0.560 -0.1400  0.7242 -0.2470
  925MOL0     C21995   2.623   4.841   0.581 -0.2024  0.3970  0.0551
  925MOL0     C21996   2.565   4.825   0.708 -0.0199  0.9476  0.2466
  925MOL0     C21997   2.421   4.819   0.736  0.6036 -0.7020 -0.5442
  925MOL0     O21998   2.332   4.862   0.633 -0.2423  0.3440 -1.3087
  925MOL0     C21999   2.199   4.855   0.654  0.6987  0.5489 -0.4904
  925MOL0     C22000   2.121   4.871   0.773 -0.0571 -1.0867  0.1862
  925MOL0     C22001   1.983   4.863   0.764  0.8641  0.4687 -0.6628
  925MOL0     C22002   1.916   4.819   0.647 -1.0189  0.0208 -0.6972
  925MOL0     O22003   1.784   4.795   0.654  0.3583  0.3075  0.6651
  925MOL0     C22004   1.737   4.745   0.781  0.1534 -1.1497 -0.7749
  925MOL0     C22005   1.603   4.685   0.764 -0.2425  0.1447  0.0109
  925MOL0     C22006   1.511   4.786   0.699  0.0721 -0.3403 -0.2304
  925MOL0     C22007   1.377   4.712   0.698 -0.7253 -0.5754 -0.1912
  925MOL0     C22008   1.252   4.786   0.646 -0.8816  0.4550 -0.7419
  925MOL0     C22009   1.275   4.824   0.508  0.0975 -0.6660 -0.0947
  925MOL0     C22010   1.146   4.874   0.440 -0.5329  0.0268  0.7470
  925MOL0     C22011   1.014   4.809   0.466 -0.0360  0.1926  0.0467
  925MOL0    Cl22012   0.895   4.865   0.343 -0.2348 -0.4332 -0.3256
  925MOL0     C22013   1.995   4.804   0.530 -0.4412 -0.0486 -0.1593
  925MOL0     C22014   2.135   4.828   0.533  0.2063  0.0924  0.5087
  925MOL0     O22015   2.382   4.794   0.851 -0.6363  0.0483 -0.4100
  925MOL0     C22016   2.652   4.790   0.814 -0.2871  0.4278  0.2420
  925MOL0     C22017   2.789   4.787   0.786  0.7135 -0.4366 -0.2513
  925MOL0     N22018   3.543   4.517   0.630 -0.1294 -0.5319  0.6667
  925MOL0     N22019   3.590   4.418   0.698  0.8469 -0.6826  0.1749
  925MOL0     C22020   4.516   4.146   1.436  0.0814  1.3535  0.4814
  925MOL0     C22021   4.629   4.110   1.500 -0.2143 -0.3922 -0.5622
  925MOL0     C22022   5.011   4.000   1.704 -0.2127  0.7165  0.8207
  925MOL0     C22023   5.128   4.003   1.633  0.8785  0.6707 -0.2985
  925MOL0     C22024   5.254   3.990   1.701  0.4840  0.1076  0.0095
  925MOL0     C22025   5.263   3.969   1.834 -0.6774  0.5375 -0.7052
  925MOL0     O22026   5.385   3.959   1.897  0.1410 -0.4717 -0.0653
  925MOL0     C22027   5.426   3.824   1.927  0.2511 -0.6616 -0.2610
  925MOL0     C22028   5.571   3.837   1.974 -0.4641 -0.2620  0.2791
  925MOL0     C22029   5.614   3.689   2.008 -0.0223  0.0689 -1.0625
  925MOL0     C22030   5.751   3.688   2.078 -0.1249 -0.3235  0.1850
  925MOL0     C22031   5.819   3.563   2.076  0.3711  0.2288 -0.3471
  925MOL0     C22032   5.869   3.451   2.085  1.0275  0.6001  1.0345
  925MOL0     C22033   5.141   3.969   1.902  0.5119 -0.4941  0.3633
  925MOL0     C22034   5.018   3.992   1.844 -0.2680 -0.0901  0.4427
  925MOL0     H22035   4.852   4.100   1.254 -1.6438 -0.6385 -0.9127
  925MOL0     H22036   4.680   4.186   1.136  3.1048 -0.5979  0.9412
  925MOL0     H22037   4.383   4.355   1.372  0.0993  0.3019  0.7033
  925MOL0     H22038   4.254   4.238   1.326 -1.5907  2.2491  1.7692
  925MOL0     H22039   4.305   4.435   1.107 -0.9468  1.5329 -0.2769
  925MOL0     H22040   4.242   4.501   1.256 -1.9441 -0.3435  0.4672
  925MOL0     H22041   4.074   4.292   1.233  1.5936  0.0256  0.2186
  925MOL0     H22042   4.161   4.248   1.085  0.9714  0.4803 -0.7419
  925MOL0     H22043   4.036   4.514   1.120  3.0497 -0.9558  0.7577
  925MOL0     H22044   4.058   4.420   0.968 -0.5730  0.1231 -0.0237
  925MOL0     H22045   3.873   4.333   1.174  0.6200  0.4626 -0.3520
  925MOL0     H22046   3.872   4.277   1.009 -0.6628  0.5499 -0.0300
  925MOL0     H22047   3.799   4.499   0.928  0.1862 -3.5287 -0.4308
  925MOL0     H22048   3.785   4.552   1.107  0.2264  0.1368  0.4550
  925MOL0     H22049   3.644   4.350   1.145 -3.6328  1.3326  0.9345
  925MOL0     H22050   3.570   4.495   1.090 -0.6277  0.5345 -0.3339
  925MOL0     H22051   3.469   4.311   0.964  0.4294 -2.8548 -3.7240
  925MOL0     H22052   3.625   4.261   0.906  0.7304  0.3915 -1.3120
  925MOL0     H22053   3.465   4.626   0.925 -2.5494 -0.3828 -0.9162
  925MOL0     H22054   3.468   4.762   0.555  0.4315 -2.1749 -0.2452
  925MOL0     H22055   3.432   4.815   0.730 -2.4045 -0.5713  1.0210
  925MOL0     H22056   3.208   4.689   0.699 -1.6056 -1.5228 -1.5281
  925MOL0     H22057   3.247   4.665   0.530 -1.2006  0.7377 -0.3089
  925MOL0     H22058   3.200   4.938   0.663 -0.8054  3.3154 -2.1198
  925MOL0     H22059   3.246   4.917   0.495 -0.4890  0.6046 -0.2857
  925MOL0     H22060   3.055   4.784   0.464 -0.1699  0.2566  0.4931
  925MOL0     H22061   3.008   4.951   0.511  0.2663  0.8470  0.9147
  925MOL0     H22062   2.803   4.863   0.458 -0.8769  0.3017 -0.5623
  925MOL0     H22063   2.556   4.845   0.496 -0.6495 -4.5842 -0.1069
  925MOL0     H22064   2.173   4.907   0.861  0.5689 -1.3522 -0.0710
  925MOL0     H22065   1.936   4.875   0.861  3.5325  0.3632  0.7534
  925MOL0     H22066   1.725   4.823   0.857 -0.9695 -1.4642 -0.6117
  925MOL0     H22067   1.808   4.673   0.822  1.0524  0.7811  1.2488
  925MOL0     H22068   1.563   4.652   0.861 -0.3454 -0.8343 -0.3504
  925MOL0     H22069   1.615   4.599   0.698  0.8244 -1.3330  2.0034
  925MOL0     H22070   1.547   4.817   0.601 -0.5029  3.0791  0.5248
  925MOL0     H22071   1.514   4.878   0.758  0.1361 -0.6909  0.3289
  925MOL0     H22072   1.383   4.618   0.642 -2.0215 -0.7968  0.0071
  925MOL0     H22073   1.335   4.682   0.794 -3.5854  0.8150 -0.8911
  925MOL0     H22074   1.231   4.872   0.710  1.2625 -0.2159  0.9832
  925MOL0     H22075   1.170   4.715   0.656 -1.2738  0.9591 -0.2679
  925MOL0     H22076   1.328   4.749   0.449  1.5429  2.6862 -3.4945
  925MOL0     H22077   1.345   4.905   0.532  2.7344 -2.5193 -1.0977
  925MOL0     H22078   1.139   4.984   0.441 -0.2425  0.0520  0.2193
  925MOL0     H22079   1.169   4.851   0.336 -1.1853 -2.4182  1.0790
  925MOL0     H22080   0.993   4.840   0.568  0.1386  1.6831 -0.3498
  925MOL0     H22081   1.021   4.700   0.463  0.3784  0.2388 -1.6199
  925MOL0     H22082   1.936   4.769   0.445 -1.3191 -1.0676  0.8201
  925MOL0     H22083   2.179   4.829   0.433 -3.0847  0.0702 -1.0829
  925MOL0     H22084   2.621   4.767   0.915 -0.7438  0.1457  0.0427
  925MOL0     H22085   2.841   4.738   0.867 -0.6972 -2.1500 -0.3071
  925MOL0     H22086   4.421   4.150   1.487 -1.1464  0.9450 -1.6491
  925MOL0     H22087   4.611   4.086   1.605  1.5835 -2.4549 -0.6423
  925MOL0     H22088   5.141   4.022   1.527 -0.1401 -0.2941 -0.6136
  925MOL0     H22089   5.344   4.001   1.641  1.6779 -0.5722  1.6008
  925MOL0     H22090   5.417   3.762   1.837 -0.9808 -0.2288 -0.4630
  925MOL0     H22091   5.365   3.779   2.005 -0.4438  0.8301  0.0874
  925MOL0     H22092   5.643   3.873   1.901 -0.3472 -0.8046  0.1218
  925MOL0     H22093   5.593   3.900   2.060 -0.1137 -0.5401  0.3983
  925MOL0     H22094   5.622   3.638   1.912 -2.9799 -0.7134 -0.9912
  925MOL0     H22095   5.542   3.640   2.074 -0.8704  0.7681 -1.4466
  925MOL0     H22096   5.820   3.758   2.030  0.0521 -1.3651 -1.1534
  925MOL0     H22097   5.734   3.718   2.182  3.6531  1.6349  0.4110
  925MOL0     H22098   5.913   3.354   2.094  2.0006  1.1697  2.8434
  925MOL0     H22099   5.139   3.950   2.008 -0.0450  0.9085  0.6332
  925MOL0     H22100   4.925   3.995   1.900 -0.3094 -3.2760  0.7309
  926MOL0     O22101   3.893   2.479   4.820  0.0093  0.0778 -0.2160
  926MOL0     C22102   3.906   2.395   4.734 -0.0017 -0.5344 -0.4830
  926MOL0     O22103   3.830   2.381   4.625 -0.5351  0.3522  0.0098
  926MOL0     C22104   3.695   2.396   4.628  0.6735 -0.1308 -0.5342
  926MOL0     C22105   3.612   2.391   4.744 -0.1052 -0.5750  0.8596
  926MOL0     C22106   3.477   2.417   4.730  0.2405 -0.0533  0.5145
  926MOL0     C22107   3.422   2.448   4.604 -0.4709  0.2261 -0.5896
  926MOL0     O22108   3.288   2.468   4.606  0.1304 -0.0199 -0.3185
  926MOL0     C22109   3.208   2.438   4.493  0.3012 -0.1553 -0.0854
  926MOL0     C22110   3.069   2.412   4.521  0.8584  0.9618  0.0721
  926MOL0     C22111   2.987   2.532   4.560  0.0785  0.3688  0.1920
  926MOL0     C22112   2.842   2.490   4.570 -0.3630 -0.2438  1.1970
  926MOL0     C22113   2.757   2.608   4.578 -0.1811 -0.1009  0.3988
  926MOL0     C22114   2.621   2.582   4.633  0.9608 -0.4004  0.1073
  926MOL0     C22115   2.540   2.712   4.658  0.2170 -0.1118 -0.0526
  926MOL0     C22116   2.410   2.671   4.725  0.5757 -0.2318  0.3950
  926MOL0     N22117   2.323   2.578   4.651  0.0144  0.5663  0.1416
  926MOL0     C22118   2.240   2.600   4.541  0.4038 -0.0558 -0.0760
  926MOL0     C22119   2.183   2.486   4.513 -0.1366  0.6219  0.1180
  926MOL0     C22120   2.077   2.465   4.409 -0.2942 -0.3053  0.7121
  926MOL0     C22121   1.934   2.435   4.452  0.1611  0.1107 -0.1381
  926MOL0     C22122   1.848   2.433   4.332  0.6084 -0.7320  0.1666
  926MOL0     C22123   1.698   2.446   4.384  0.8637  0.6709 -0.4162
  926MOL0     O22124   1.623   2.481   4.269  0.1574  0.0563  0.1727
  926MOL0     C22125   1.498   2.521   4.289 -0.1497  0.1547 -0.0101
  926MOL0     C22126   1.433   2.523   4.415  0.7437  0.2592  0.4721
  926MOL0     C22127   1.299   2.565   4.429  0.4583 -0.0096  0.5153
  926MOL0     C22128   1.228   2.618   4.322 -0.6930  1.1599 -0.0003
  926MOL0     C22129   1.095   2.667   4.333 -0.6183  0.0350 -0.4293
  926MOL0     O22130   1.024   2.585   4.424  0.7164  0.7115 -0.6133
  926MOL0     C22131   0.887   2.574   4.410 -1.0681  1.4370  0.6834
  926MOL0     C22132   0.820   2.575   4.287 -0.4016  0.0024 -0.4166
  926MOL0     C22133   0.678   2.553   4.287  0.3769  0.1601 -0.0755
  926MOL0     C22134   0.611   2.524   4.410  0.1964 -0.3880  0.2318
  926MOL0     O22135   0.482   2.495   4.435 -0.2154  0.1958  0.5110
  926MOL0     C22136   0.395   2.490   4.314 -0.3590 -0.8971 -0.6860
  926MOL0     C22137   0.271   2.402   4.344 -0.5213 -0.4686 -0.1586
  926MOL0     C22138   0.170   2.402   4.232 -0.2121  0.1113  0.5068
  926MOL0     C22139   0.048   2.316   4.282 -0.4543  0.2367 -0.3134
  926MOL0     C22140  -0.070   2.332   4.185  0.2346  0.4687 -0.1378
  926MOL0     C22141  -0.198   2.244   4.228  0.6769 -0.2447 -0.8659
  926MOL0     C22142  -0.238   2.265   4.373  0.6124 -0.4096 -0.6396
  926MOL0     C22143  -0.347   2.165   4.411  0.0980 -0.1993 -0.9228
  926MOL0    Cl22144  -0.495   2.173   4.311  0.3146 -0.1640  0.0577
  926MOL0     C22145   0.688   2.516   4.526 -0.7278 -0.2076  0.2502
  926MOL0     C22146   0.822   2.549   4.527  0.5019 -0.7572  1.1121
  926MOL0     O22147   1.055   2.765   4.272  0.6747 -0.5590  0.4361
  926MOL0     C22148   1.292   2.629   4.201  0.8070  0.9211 -1.6796
  926MOL0     C22149   1.430   2.595   4.190  0.0886 -0.4453 -0.6816
  926MOL0     N22150   2.228   2.396   4.608  0.3470  0.0232  0.1168
  926MOL0     N22151   2.314   2.450   4.688 -0.1994 -0.1925 -0.0609
  926MOL0     C22152   3.508   2.455   4.491  0.3741  0.5756  1.2237
  926MOL0     C22153   3.643   2.436   4.505 -0.0640  0.2612  0.5144
  926MOL0     C22154   4.020   2.304   4.754 -0.4500  0.0935  0.5328
  926MOL0     C22155   4.131   2.334   4.831 -0.4030  0.0285  0.3991
  926MOL0     C22156   4.243   2.253   4.846  0.4107 -0.6591 -0.1550
  926MOL0     C22157   4.245   2.130   4.782  0.6676 -0.0927  0.3481
  926MOL0     O22158   4.337   2.032   4.804  0.2361 -0.1454  0.3804
  926MOL0     C22159   4.434   2.055   4.902  0.0545  0.4252 -0.2108
  926MOL0     C22160   4.532   1.937   4.908  0.6016  0.6239 -0.6089
  926MOL0     C22161   4.635   1.961   5.017  0.0069 -0.4886 -1.1822
  926MOL0     C22162   4.759   1.872   5.008  0.1321 -1.1992  0.4937
  926MOL0     C22163   4.717   1.745   5.057  0.2420  0.2099  0.0153
  926MOL0     C22164   4.702   1.638   5.103 -0.8776  0.6301  0.8339
  926MOL0     C22165   4.134   2.084   4.707 -0.4255 -0.9155 -0.4677
  926MOL0     C22166   4.019   2.170   4.692  0.1302 -0.1484 -0.3117
  926MOL0     H22167   3.644   2.363   4.843 -2.1034 -1.3600  1.3445
  926MOL0     H22168   3.413   2.414   4.818 -1.1675  0.3304 -0.4737
  926MOL0     H22169   3.237   2.342   4.450  0.7997 -0.0391 -0.0209
  926MOL0     H22170   3.218   2.515   4.416  0.6140  1.0094  1.0775
  926MOL0     H22171   3.063   2.327   4.589  0.9027 -1.9296 -3.2320
  926MOL0     H22172   3.019   2.375   4.430  0.8028 -1.0305  0.8633
  926MOL0     H22173   2.998   2.609   4.483 -1.6562 -1.2455 -1.8121
  926MOL0     H22174   3.027   2.575   4.651 -1.3162  2.8383 -0.2701
  926MOL0     H22175   2.820   2.422   4.487  1.6550  0.8951 -0.3703
  926MOL0     H22176   2.842   2.429   4.661  3.1647  0.5413  1.8680
  926MOL0     H22177   2.751   2.665   4.484 -4.2678 -1.9261 -0.6629
  926MOL0     H22178   2.808   2.668   4.654  1.7776  0.5970 -1.3598
  926MOL0     H22179   2.631   2.531   4.729  1.5488  2.5160  1.7053
  926MOL0     H22180   2.562   2.519   4.566 -1.5839  1.0387  0.8549
  926MOL0     H22181   2.591   2.778   4.729  2.1531 -0.9990 -0.5496
  926MOL0     H22182   2.525   2.761   4.562  2.2661  0.8075  0.0361
  926MOL0     H22183   2.357   2.767   4.734 -0.2321 -0.6676  0.3787
  926MOL0     H22184   2.429   2.632   4.825 -0.0272  2.7552  1.8095
  926MOL0     H22185   2.233   2.694   4.487  0.8918  1.4605  2.3047
  926MOL0     H22186   2.107   2.391   4.334 -0.7849  1.7920 -1.6919
  926MOL0     H22187   2.075   2.556   4.349 -1.1509 -1.7164 -1.5383
  926MOL0     H22188   1.912   2.512   4.526  1.2299 -0.0525  0.3826
  926MOL0     H22189   1.932   2.340   4.507  2.1630 -1.2504 -2.2487
  926MOL0     H22190   1.879   2.516   4.267 -0.9795 -0.8527 -0.8008
  926MOL0     H22191   1.859   2.344   4.270 -0.8549  0.6430 -2.2469
  926MOL0     H22192   1.686   2.526   4.457  2.6031  1.5407 -1.0508
  926MOL0     H22193   1.675   2.347   4.424  1.1340 -0.1339 -2.1611
  926MOL0     H22194   1.467   2.471   4.504 -0.5197 -0.3098  0.6412
  926MOL0     H22195   1.245   2.548   4.522 -0.8564  0.3724 -0.1517
  926MOL0     H22196   0.886   2.592   4.201  1.6243  2.0173  1.3847
  926MOL0     H22197   0.632   2.552   4.189  1.6186 -0.7049 -0.6648
  926MOL0     H22198   0.442   2.456   4.221  3.6549 -0.6257  1.0231
  926MOL0     H22199   0.361   2.593   4.300 -0.0991  0.1039  4.2216
  926MOL0     H22200   0.223   2.453   4.428 -0.4547 -0.1394 -0.3197
  926MOL0     H22201   0.312   2.302   4.361  0.6804  0.0188 -0.1510
  926MOL0     H22202   0.219   2.372   4.139  1.2569  1.0940  0.9431
  926MOL0     H22203   0.136   2.506   4.234  2.0317  0.8926  1.1994
  926MOL0     H22204   0.082   2.212   4.294  1.0624  0.7931  0.4051
  926MOL0     H22205   0.016   2.355   4.379 -1.9678 -0.6805 -0.4038
  926MOL0     H22206  -0.028   2.288   4.094  0.0897 -0.3958  0.2006
  926MOL0     H22207  -0.099   2.437   4.173  1.2048  0.5851 -1.6071
  926MOL0     H22208  -0.174   2.138   4.218  1.3060 -0.1821 -0.1304
  926MOL0     H22209  -0.283   2.260   4.161 -0.4511 -0.2361  0.5316
  926MOL0     H22210  -0.153   2.232   4.433  0.9948 -0.8397 -1.4046
  926MOL0     H22211  -0.259   2.370   4.396 -0.4171  0.0446 -3.3273
  926MOL0     H22212  -0.376   2.186   4.515 -2.1253  1.9507 -1.8815
  926MOL0     H22213  -0.316   2.060   4.413 -1.8434 -0.9727  3.9627
  926MOL0     H22214   0.644   2.474   4.615  1.9738 -1.3797  1.1479
  926MOL0     H22215   0.882   2.549   4.618 -1.7791  0.9831  2.7280
  926MOL0     H22216   1.233   2.667   4.119  0.7471  4.5264 -0.1609
  926MOL0     H22217   1.499   2.608   4.108  1.0329 -0.4526  0.0842
  926MOL0     H22218   3.481   2.496   4.394  1.8936  2.7134  1.6128
  926MOL0     H22219   3.707   2.427   4.417  0.5446 -4.1425  1.1612
  926MOL0     H22220   4.141   2.431   4.878  2.4905  0.9501 -1.8394
  926MOL0     H22221   4.320   2.286   4.916  0.9556  3.0172 -2.2157
  926MOL0     H22222   4.393   2.063   5.003  2.2766 -1.3652  0.9493
  926MOL0     H22223   4.491   2.145   4.876  1.9134 -0.3308  0.9810
  926MOL0     H22224   4.467   1.852   4.930 -0.3495  1.6249  0.6053
  926MOL0     H22225   4.570   1.924   4.807 -0.2878  0.3843 -0.9204
  926MOL0     H22226   4.593   1.965   5.117  0.2418  2.3321 -1.1114
  926MOL0     H22227   4.667   2.065   5.006 -3.1510  0.4649 -2.2602
  926MOL0     H22228   4.805   1.869   4.909 -0.7090 -5.9195  0.0134
  926MOL0     H22229   4.825   1.917   5.082  0.2487  0.1835 -0.4199
  926MOL0     H22230   4.693   1.535   5.129 -1.9151  0.4512 -0.1392
  926MOL0     H22231   4.129   1.982   4.670 -1.3651 -0.6700 -1.0721
  926MOL0     H22232   3.945   2.134   4.621  0.6252 -1.1081 -0.3524
  927MOL0     O22233   1.266   3.709   9.965  0.2767  0.2644 -0.1125
  927MOL0     C22234   1.238   3.598   9.913  0.6315 -0.3561  0.1336
  927MOL0     O22235   1.124   3.528   9.935 -0.4415  0.3878  0.2768
  927MOL0     C22236   1.023   3.572  10.021  0.0824  0.1306 -1.4002
  927MOL0     C22237   1.042   3.648  10.138  0.0860  0.5835 -0.7342
  927MOL0     C22238   0.935   3.696  10.222  0.5967  0.2633 -0.1341
  927MOL0     C22239   0.802   3.669  10.187  0.1530 -0.4029 -0.3252
  927MOL0     O22240   0.700   3.730  10.261 -0.0491  0.3030  0.0315
  927MOL0     C22241   0.563   3.684  10.242 -0.1143  0.6643  0.7719
  927MOL0     C22242   0.472   3.756  10.346 -0.5335  0.3726  0.1395
  927MOL0     C22243   0.328   3.740  10.319  0.1625  0.9369 -0.3062
  927MOL0     C22244   0.276   3.827  10.207 -0.1369  0.0975  0.3174
  927MOL0     C22245   0.127   3.804  10.177  0.0492  0.7987 -0.2569
  927MOL0     C22246   0.093   3.883  10.045 -0.5561  0.0290 -0.4050
  927MOL0     C22247  -0.057   3.916  10.028 -0.5192  0.2008 -0.0660
  927MOL0     C22248  -0.095   3.974   9.890  0.3169 -0.4184  0.0098
  927MOL0     N22249  -0.085   3.867   9.787  0.6863  0.1486 -0.1180
  927MOL0     C22250  -0.185   3.785   9.754  0.4848  0.1099  0.1730
  927MOL0     C22251  -0.146   3.709   9.650  0.0530 -0.1456 -1.0966
  927MOL0     C22252  -0.223   3.605   9.576 -0.4544 -0.2558 -0.1105
  927MOL0     C22253  -0.346   3.674   9.520  0.2784  1.0421 -0.0506
  927MOL0     C22254  -0.420   3.559   9.435  0.4386 -0.2848 -0.0690
  927MOL0     C22255  -0.563   3.589   9.406 -0.1446 -0.7223 -0.3414
  927MOL0     O22256  -0.637   3.581   9.530 -0.2820 -0.0136  0.1822
  927MOL0     C22257  -0.768   3.535   9.525 -0.4706  0.2029 -1.1495
  927MOL0     C22258  -0.858   3.604   9.447  0.3759  0.8513 -0.8351
  927MOL0     C22259  -0.989   3.563   9.429 -0.4155  1.0631 -0.3737
  927MOL0     C22260  -1.036   3.444   9.497  0.1848 -0.8815  0.1014
  927MOL0     C22261  -1.178   3.408   9.485  0.0785  0.6134 -0.3122
  927MOL0     O22262  -1.259   3.501   9.443  0.2525  0.7380  0.7164
  927MOL0     C22263  -1.396   3.500   9.407 -0.3144 -0.0431  0.2550
  927MOL0     C22264  -1.460   3.620   9.390  0.0157  0.2822 -0.1438
  927MOL0     C22265  -1.591   3.628   9.350  0.2531 -0.1900  1.0881
  927MOL0     C22266  -1.670   3.512   9.306 -0.8274 -0.1686  0.7536
  927MOL0     O22267  -1.797   3.506   9.256  0.2443 -0.1700  0.8671
  927MOL0     C22268  -1.857   3.637   9.229 -0.6534  0.2836 -0.1491
  927MOL0     C22269  -1.983   3.632   9.148  0.3344  0.0258 -0.9397
  927MOL0     C22270  -2.109   3.642   9.234  0.1951 -0.2733  0.0897
  927MOL0     C22271  -2.235   3.676   9.139  0.0002 -0.0896 -0.6575
  927MOL0     C22272  -2.368   3.695   9.225 -0.7102  0.1893  0.2019
  927MOL0     C22273  -2.472   3.600   9.158 -0.1463  0.5677  0.5634
  927MOL0     C22274  -2.610   3.623   9.223 -1.1302  0.1162 -1.2923
  927MOL0     C22275  -2.718   3.546   9.168  0.5419 -0.2080 -0.2618
  927MOL0    Cl22276  -2.870   3.544   9.260  0.1997 -0.5483  0.0486
  927MOL0     C22277  -1.598   3.390   9.323  0.3484  0.0619  0.1867
  927MOL0     C22278  -1.468   3.385   9.366 -0.2602  0.3175  0.9142
  927MOL0     O22279  -1.209   3.297   9.512  0.1356 -0.1191  0.5698
  927MOL0     C22280  -0.948   3.379   9.587  0.2044 -0.9319  0.4445
  927MOL0     C22281  -0.810   3.423   9.603  0.2259 -0.0221 -0.5197
  927MOL0     N22282  -0.020   3.756   9.615 -0.8526  0.4527 -0.7058
  927MOL0     N22283   0.018   3.847   9.700  0.0609  0.1659  0.7132
  927MOL0     C22284   0.784   3.588  10.067 -0.3323  1.4232 -0.2946
  927MOL0     C22285   0.895   3.535   9.994  0.3075 -0.4987  0.3204
  927MOL0     C22286   1.338   3.520   9.834  0.1802 -0.7042  0.1215
  927MOL0     C22287   1.316   3.384   9.803  0.7219 -0.4383 -0.5851
  927MOL0     C22288   1.393   3.314   9.710 -0.1266  0.3947 -0.1584
  927MOL0     C22289   1.517   3.363   9.669  0.2483  0.4156 -0.0356
  927MOL0     O22290   1.611   3.291   9.602  0.6203  0.2647 -0.5441
  927MOL0     C22291   1.580   3.159   9.545 -0.2102  0.0086  0.4957
  927MOL0     C22292   1.685   3.146   9.437  0.4671  0.2237  0.3970
  927MOL0     C22293   1.829   3.115   9.487 -0.1380 -0.0305 -0.4254
  927MOL0     C22294   1.933   3.087   9.377 -0.9801  0.3046  0.6530
  927MOL0     C22295   1.976   3.203   9.293  0.7758  0.3532 -0.1863
  927MOL0     C22296   1.993   3.306   9.234  0.1788 -0.4546  0.0426
  927MOL0     C22297   1.539   3.497   9.696  0.4086 -0.2240  0.0259
  927MOL0     C22298   1.453   3.571   9.775  0.5149 -0.3877  0.4362
  927MOL0     H22299   1.145   3.667  10.168  0.4097  0.3984 -1.6946
  927MOL0     H22300   0.949   3.743  10.318 -0.4794  1.8672 -0.7305
  927MOL0     H22301   0.553   3.575  10.253  0.2729  0.4386 -0.8504
  927MOL0     H22302   0.536   3.707  10.138  2.1981 -1.5475 -0.4630
  927MOL0     H22303   0.503   3.860  10.327 -0.7538  0.2736 -0.8418
  927MOL0     H22304   0.497   3.731  10.449 -2.9425 -1.0950  0.4479
  927MOL0     H22305   0.267   3.766  10.406 -1.8225  0.7658 -1.5844
  927MOL0     H22306   0.317   3.636  10.290 -0.3187  0.3618  1.7894
  927MOL0     H22307   0.294   3.932  10.234  0.6007  0.6373 -2.0757
  927MOL0     H22308   0.336   3.802  10.120 -3.6046  1.1360 -2.5918
  927MOL0     H22309   0.064   3.841  10.258 -2.1987  0.0340 -1.5644
  927MOL0     H22310   0.108   3.696  10.173 -1.2885  0.9505  1.1306
  927MOL0     H22311   0.143   3.818   9.972 -0.1380 -0.5542  0.3798
  927MOL0     H22312   0.145   3.979  10.034  0.7496 -0.6529 -0.4360
  927MOL0     H22313  -0.123   3.838  10.068 -0.8546  1.3498  1.7279
  927MOL0     H22314  -0.082   4.002  10.090  2.6042  0.4810  0.9897
  927MOL0     H22315  -0.024   4.057   9.878  0.1960  0.4047  3.7080
  927MOL0     H22316  -0.197   4.010   9.900  0.3472 -0.9290  3.1333
  927MOL0     H22317  -0.281   3.779   9.805 -0.2324  0.2711 -1.1143
  927MOL0     H22318  -0.248   3.521   9.641 -0.9978  0.0330  0.0618
  927MOL0     H22319  -0.171   3.578   9.484 -2.3708  0.4600 -1.4655
  927MOL0     H22320  -0.311   3.755   9.456  1.0404  0.4736 -0.3728
  927MOL0     H22321  -0.422   3.713   9.589 -2.4534  0.8943 -2.7832
  927MOL0     H22322  -0.370   3.563   9.338 -0.0346  0.1160 -0.3027
  927MOL0     H22323  -0.406   3.457   9.471 -1.8887 -0.0427  1.7019
  927MOL0     H22324  -0.602   3.520   9.331 -0.8593 -1.4797  0.7118
  927MOL0     H22325  -0.574   3.690   9.364  2.1263 -0.2428  0.0846
  927MOL0     H22326  -0.832   3.699   9.401  0.7717 -0.1302 -2.7191
  927MOL0     H22327  -1.057   3.631   9.378 -2.0060  0.4305  0.8454
  927MOL0     H22328  -1.414   3.714   9.419  0.3109  0.2393 -0.4685
  927MOL0     H22329  -1.646   3.721   9.350 -1.4572 -1.0702 -1.4870
  927MOL0     H22330  -1.783   3.690   9.169 -1.7625 -1.0714 -2.8998
  927MOL0     H22331  -1.873   3.688   9.325  3.2766  1.2772  0.1439
  927MOL0     H22332  -1.988   3.536   9.096 -0.1656 -0.0669 -0.7248
  927MOL0     H22333  -1.973   3.708   9.071 -3.3264 -0.3664 -1.9597
  927MOL0     H22334  -2.093   3.727   9.300  0.4313 -0.4225  0.2259
  927MOL0     H22335  -2.118   3.551   9.295  1.7149 -1.7802 -1.7641
  927MOL0     H22336  -2.214   3.769   9.087 -0.2733  0.1969 -0.2590
  927MOL0     H22337  -2.245   3.596   9.065 -0.6982 -0.2592 -0.3972
  927MOL0     H22338  -2.397   3.801   9.224 -0.9986  0.1117  0.3456
  927MOL0     H22339  -2.354   3.660   9.328  1.4100 -1.1602 -0.4886
  927MOL0     H22340  -2.432   3.500   9.176 -0.3762  0.3423 -0.1333
  927MOL0     H22341  -2.470   3.632   9.053 -0.3524  0.0625  0.4012
  927MOL0     H22342  -2.595   3.590   9.326 -0.0845 -1.0206 -1.7933
  927MOL0     H22343  -2.641   3.728   9.217 -0.2551  0.4375 -0.3428
  927MOL0     H22344  -2.689   3.441   9.166  1.5858  0.0245  1.2169
  927MOL0     H22345  -2.743   3.583   9.067  2.2949  1.9554  0.0100
  927MOL0     H22346  -1.658   3.304   9.296 -1.2504  1.6648 -1.6709
  927MOL0     H22347  -1.433   3.283   9.373 -0.0320  0.3410  0.2022
  927MOL0     H22348  -0.983   3.294   9.646  0.9570 -0.4477  1.6315
  927MOL0     H22349  -0.756   3.371   9.682 -2.2969 -0.3157  1.1650
  927MOL0     H22350   0.682   3.555  10.052 -0.2628  0.5852  0.9290
  927MOL0     H22351   0.870   3.463   9.917  3.4194 -1.5050  0.0953
  927MOL0     H22352   1.229   3.332   9.843 -0.2266  1.6671  0.2306
  927MOL0     H22353   1.371   3.208   9.708  0.2026  0.3416 -1.0316
  927MOL0     H22354   1.482   3.153   9.498  0.6723 -0.7867 -1.3343
  927MOL0     H22355   1.597   3.085   9.624  1.0044  0.8620  1.0637
  927MOL0     H22356   1.654   3.070   9.366 -3.5877  0.9495  1.1502
  927MOL0     H22357   1.685   3.242   9.385  1.2635  0.4078  0.7134
  927MOL0     H22358   1.805   3.023   9.541 -0.8976  0.7911  0.7017
  927MOL0     H22359   1.870   3.195   9.550  0.8669 -1.0814  0.2929
  927MOL0     H22360   2.019   3.047   9.432 -0.3652  2.4615  1.3362
  927MOL0     H22361   1.894   3.024   9.296  3.1011 -0.1688 -1.2012
  927MOL0     H22362   2.000   3.398   9.180 -0.5624 -0.4296 -0.0174
  927MOL0     H22363   1.625   3.540   9.645 -2.0516  1.0581 -3.4731
  927MOL0     H22364   1.470   3.677   9.791 -1.4055 -0.1458  1.1783
  928MOL0     O22365  11.202   1.761   5.300  0.3159  0.2581 -0.5905
  928MOL0     C22366  11.252   1.751   5.186  0.2183  0.9125  0.0856
  928MOL0     O22367  11.207   1.662   5.084  1.1666  0.5011 -0.0486
  928MOL0     C22368  11.089   1.596   5.082  0.3162 -0.6387 -0.3627
  928MOL0     C22369  11.008   1.560   5.189 -0.8470 -0.0940  0.1931
  928MOL0     C22370  10.904   1.469   5.168 -0.3627 -0.3941 -0.2174
  928MOL0     C22371  10.870   1.417   5.046 -0.1321  0.1236 -0.6119
  928MOL0     O22372  10.747   1.353   5.044  0.1952 -0.3710  0.0868
  928MOL0     C22373  10.695   1.306   4.915  0.2975 -0.5749 -0.0877
  928MOL0     C22374  10.550   1.258   4.941 -0.1515 -0.1982  0.1729
  928MOL0     C22375  10.526   1.130   5.032 -0.1925 -0.1471 -0.4809
  928MOL0     C22376  10.373   1.094   5.019  0.5932 -0.8644  0.9660
  928MOL0     C22377  10.345   0.960   5.076  0.5025 -0.3861 -0.2394
  928MOL0     C22378  10.200   0.923   5.063  0.3132  0.5209 -0.4517
  928MOL0     C22379  10.180   0.773   5.111  0.6756  0.2322  0.2035
  928MOL0     C22380  10.170   0.748   5.264  0.0222  0.3130  0.4674
  928MOL0     N22381  10.045   0.783   5.320  0.0491  0.3119  0.1938
  928MOL0     C22382  10.008   0.912   5.339 -0.2083 -0.1806 -0.6866
  928MOL0     C22383   9.884   0.897   5.400  1.1068 -0.3433  0.5195
  928MOL0     C22384   9.807   1.011   5.474  0.7173 -0.5415 -0.0721
  928MOL0     C22385   9.666   1.026   5.409  0.1404  0.1338 -0.0717
  928MOL0     C22386   9.558   0.909   5.423  0.9923  0.7453 -0.8544
  928MOL0     C22387   9.419   0.968   5.444 -0.9133 -0.5539  0.2786
  928MOL0     O22388   9.320   0.867   5.439  0.0266  0.2218 -0.7974
  928MOL0     C22389   9.234   0.845   5.336 -0.1180 -0.1062  0.3475
  928MOL0     C22390   9.253   0.893   5.199 -0.6449 -0.2729 -0.0035
  928MOL0     C22391   9.161   0.875   5.100  0.6102 -0.4496  0.6270
  928MOL0     C22392   9.044   0.801   5.126  0.1485 -0.1080 -0.4769
  928MOL0     C22393   8.936   0.771   5.026  0.5067 -0.3095  0.2310
  928MOL0     O22394   8.835   0.695   5.061 -0.4569  0.7905  0.4171
  928MOL0     C22395   8.719   0.695   4.989  0.7084 -0.4108  0.5923
  928MOL0     C22396   8.715   0.631   4.864  0.2053 -0.6345  0.7058
  928MOL0     C22397   8.594   0.616   4.792 -0.0630  0.4824  0.0049
  928MOL0     C22398   8.471   0.671   4.844 -0.3865 -0.1811  1.6313
  928MOL0     O22399   8.366   0.647   4.760 -0.4787 -0.0776 -0.0993
  928MOL0     C22400   8.237   0.682   4.815  1.1112  0.4045 -0.0362
  928MOL0     C22401   8.124   0.616   4.723 -0.0031  0.0615 -0.2401
  928MOL0     C22402   7.990   0.603   4.803 -0.0066 -0.0809 -0.8161
  928MOL0     C22403   7.876   0.557   4.706 -0.0817 -0.5742  0.2712
  928MOL0     C22404   7.817   0.431   4.764  0.2003  0.4032  0.2648
  928MOL0     C22405   7.708   0.388   4.665 -0.5517 -0.0318  0.0317
  928MOL0     C22406   7.632   0.262   4.711  0.1089 -0.6481  0.4876
  928MOL0     C22407   7.521   0.304   4.808  0.4986 -0.9257 -0.5428
  928MOL0    Cl22408   7.589   0.322   4.968 -0.5553  0.2372 -0.1391
  928MOL0     C22409   8.482   0.745   4.968  0.5483 -0.1415 -0.7459
  928MOL0     C22410   8.603   0.752   5.034  1.0152  0.1428  0.2435
  928MOL0     O22411   8.944   0.830   4.918  0.1844  0.1587 -0.1063
  928MOL0     C22412   9.021   0.761   5.261 -0.4329  0.2656 -0.2231
  928MOL0     C22413   9.114   0.779   5.364 -0.2439 -0.7461 -0.6377
  928MOL0     N22414   9.850   0.762   5.410 -0.3259  0.5578 -0.0718
  928MOL0     N22415   9.947   0.691   5.359  0.3907  0.2137  0.7459
  928MOL0     C22416  10.960   1.445   4.938 -0.4540  0.3827  0.1809
  928MOL0     C22417  11.062   1.532   4.954 -0.1676 -0.2258 -0.4745
  928MOL0     C22418  11.380   1.823   5.169 -0.4267 -0.3503 -1.0085
  928MOL0     C22419  11.449   1.803   5.051 -0.7945 -0.4546  0.6002
  928MOL0     C22420  11.565   1.873   5.024 -0.6363  0.2198  1.5559
  928MOL0     C22421  11.626   1.959   5.116  0.1540  0.0475  0.5569
  928MOL0     O22422  11.740   2.025   5.086 -0.2159 -0.4389  0.6270
  928MOL0     C22423  11.853   1.939   5.069  0.0975  0.0247  0.5127
  928MOL0     C22424  11.973   2.032   5.076  0.4224  0.9957  0.4859
  928MOL0     C22425  12.116   1.955   5.070  0.7141 -0.1315  0.7236
  928MOL0     C22426  12.222   2.057   5.034  0.1565 -0.0209 -0.1889
  928MOL0     C22427  12.343   2.006   5.094  0.1377 -0.0448  0.5075
  928MOL0     C22428  12.448   1.960   5.115  0.0423 -0.3333 -0.0061
  928MOL0     C22429  11.563   1.978   5.241 -0.0653 -0.0946  0.4481
  928MOL0     C22430  11.441   1.906   5.269 -0.1729  0.2918 -0.0796
  928MOL0     H22431  11.030   1.595   5.289 -0.3347 -2.7940  1.0991
  928MOL0     H22432  10.846   1.449   5.258  0.2687  1.6254  0.7072
  928MOL0     H22433  10.760   1.231   4.870 -0.2283  1.0361 -3.9525
  928MOL0     H22434  10.683   1.393   4.850  3.7330  0.3274  0.2767
  928MOL0     H22435  10.513   1.231   4.842  1.4803  0.4972 -0.6592
  928MOL0     H22436  10.495   1.344   4.979 -1.8988 -0.7876 -0.9627
  928MOL0     H22437  10.548   1.166   5.133  1.6178  1.4481 -1.3883
  928MOL0     H22438  10.592   1.048   5.002 -1.4529 -0.1835 -3.5267
  928MOL0     H22439  10.308   1.174   5.054  1.3920 -0.9616  2.7518
  928MOL0     H22440  10.351   1.080   4.912  1.1306 -0.2026  0.7608
  928MOL0     H22441  10.376   0.953   5.181  3.8304  0.1869 -1.0666
  928MOL0     H22442  10.408   0.891   5.019 -0.9058 -2.0912  0.1710
  928MOL0     H22443  10.172   0.940   4.958 -0.9939  0.2347 -0.1758
  928MOL0     H22444  10.123   0.974   5.121  2.0110  0.4089  2.0534
  928MOL0     H22445  10.088   0.734   5.066  2.0062 -0.9217 -1.6660
  928MOL0     H22446  10.262   0.721   5.060  0.0094 -0.5844 -0.0617
  928MOL0     H22447  10.245   0.809   5.314 -0.3108  1.6324 -0.5824
  928MOL0     H22448  10.187   0.641   5.280 -0.7821  0.4168  2.1521
  928MOL0     H22449  10.060   1.007   5.335 -0.4293  0.0430  0.9677
  928MOL0     H22450   9.856   1.108   5.457 -0.1715 -0.0661  0.0346
  928MOL0     H22451   9.796   0.996   5.581  1.2667  2.3616  0.4913
  928MOL0     H22452   9.670   1.044   5.301  0.0957  0.4047 -0.0296
  928MOL0     H22453   9.622   1.117   5.451  1.4338  0.3546  0.8516
  928MOL0     H22454   9.549   0.855   5.328 -0.5883  2.9699 -2.0681
  928MOL0     H22455   9.571   0.842   5.509 -2.2502 -0.7131 -1.3476
  928MOL0     H22456   9.402   1.042   5.365 -1.8327 -1.0840 -0.0344
  928MOL0     H22457   9.422   1.017   5.542  1.5594 -2.2319  1.1337
  928MOL0     H22458   9.350   0.939   5.182 -0.6760 -0.3752 -0.4593
  928MOL0     H22459   9.172   0.918   5.001 -0.2204 -1.7493 -0.0553
  928MOL0     H22460   8.797   0.575   4.820  0.7974 -0.8080  1.9598
  928MOL0     H22461   8.594   0.553   4.703 -1.0162 -2.2147  1.8051
  928MOL0     H22462   8.235   0.791   4.811  1.8090  0.3805 -2.2240
  928MOL0     H22463   8.227   0.644   4.917  2.6784  1.7397  0.6685
  928MOL0     H22464   8.140   0.513   4.688 -1.6605 -0.1078 -0.6068
  928MOL0     H22465   8.103   0.681   4.638  1.6137  2.8805  1.3949
  928MOL0     H22466   7.960   0.698   4.848 -0.1523 -0.6356  0.2870
  928MOL0     H22467   8.004   0.532   4.884 -2.4104  1.1679  0.8184
  928MOL0     H22468   7.799   0.634   4.707 -1.3515 -1.7944  2.1536
  928MOL0     H22469   7.908   0.538   4.603  2.1500 -2.2177  1.1710
  928MOL0     H22470   7.768   0.449   4.861 -2.9750  2.9397 -1.6179
  928MOL0     H22471   7.899   0.359   4.773 -0.3622 -0.1321  1.3562
  928MOL0     H22472   7.764   0.363   4.574  0.0484 -0.9324  0.6356
  928MOL0     H22473   7.632   0.464   4.645 -0.4174  0.2223  0.4902
  928MOL0     H22474   7.586   0.208   4.628 -0.3226 -0.1532  0.4068
  928MOL0     H22475   7.707   0.196   4.756  0.3744 -0.3676  0.4624
  928MOL0     H22476   7.437   0.235   4.817 -1.6781  1.4238 -1.3956
  928MOL0     H22477   7.478   0.401   4.781 -4.2601 -2.8624 -0.9432
  928MOL0     H22478   8.397   0.785   5.022  1.5315  0.1208  0.6510
  928MOL0     H22479   8.625   0.792   5.133  2.7778  0.2443 -0.1435
  928MOL0     H22480   8.942   0.688   5.275 -1.2965  0.5326 -3.0463
  928MOL0     H22481   9.089   0.739   5.462 -0.9428 -0.9941 -0.9126
  928MOL0     H22482  10.935   1.398   4.843 -2.3675 -1.2074  1.3852
  928MOL0     H22483  11.125   1.558   4.870  4.1260 -1.4666  2.0533
  928MOL0     H22484  11.406   1.733   4.981 -4.3311  0.8066  1.2885
  928MOL0     H22485  11.620   1.861   4.931 -1.6000 -0.1499  1.0217
  928MOL0     H22486  11.848   1.883   4.975 -2.0676  2.3451 -0.8653
  928MOL0     H22487  11.856   1.866   5.150 -1.5235 -1.8873 -1.0383
  928MOL0     H22488  11.958   2.105   4.996 -1.7055 -0.0229 -0.1212
  928MOL0     H22489  11.968   2.080   5.174 -1.3890 -0.1354  1.0092
  928MOL0     H22490  12.117   1.875   4.996  2.7199  1.0313 -0.5961
  928MOL0     H22491  12.127   1.905   5.166  0.9161  0.2776  0.9157
  928MOL0     H22492  12.227   2.071   4.926  0.5345 -1.3160 -0.3564
  928MOL0     H22493  12.197   2.153   5.081 -1.7060 -0.7808  0.4639
  928MOL0     H22494  12.539   1.905   5.131 -0.1916  0.1796  4.2634
  928MOL0     H22495  11.614   2.042   5.313  2.3117 -2.9280  1.4619
  928MOL0     H22496  11.367   1.922   5.347 -3.2824  0.0610 -2.7302
  929MOL0     O22497   0.204  10.947  10.998 -0.4130 -0.9210 -0.6220
  929MOL0     C22498   0.130  10.909  11.093 -0.3719  0.4217  0.9277
  929MOL0     O22499  -0.006  10.921  11.093  0.0341  1.0456 -0.1545
  929MOL0     C22500  -0.071  10.989  10.985 -0.8567 -0.3332 -0.6535
  929MOL0     C22501  -0.170  10.924  10.918  0.5162  0.7419 -0.5803
  929MOL0     C22502  -0.252  10.982  10.825  0.4848  0.5188  0.2012
  929MOL0     C22503  -0.236  11.116  10.798 -0.8671  0.5801  0.6852
  929MOL0     O22504  -0.323  11.173  10.712  0.5779  0.6506 -0.2798
  929MOL0     C22505  -0.283  11.278  10.620  0.5597  0.7912  0.4680
  929MOL0     C22506  -0.392  11.286  10.509 -0.2378  0.3645 -1.0118
  929MOL0     C22507  -0.539  11.303  10.562 -0.2203 -0.6846 -0.2911
  929MOL0     C22508  -0.628  11.349  10.440  0.0552 -0.9975 -0.7306
  929MOL0     C22509  -0.777  11.386  10.477  0.3649  0.5604 -1.0251
  929MOL0     C22510  -0.862  11.392  10.351 -0.5236  0.0718  0.0196
  929MOL0     C22511  -1.010  11.397  10.393 -0.7078 -0.0380 -0.3045
  929MOL0     C22512  -1.083  11.268  10.382  0.6227  0.1928 -0.0269
  929MOL0     N22513  -1.220  11.284  10.429  1.2098  0.0883 -0.6588
  929MOL0     C22514  -1.262  11.237  10.558 -0.1842  0.3618  0.3168
  929MOL0     C22515  -1.397  11.246  10.563  0.1485 -0.2809  0.5363
  929MOL0     C22516  -1.475  11.207  10.690 -0.4565  0.1072  0.3602
  929MOL0     C22517  -1.624  11.232  10.675 -0.6553 -0.3309  0.4862
  929MOL0     C22518  -1.670  11.378  10.667  0.6204 -0.1109 -0.3560
  929MOL0     C22519  -1.818  11.392  10.654  0.1145  0.2555 -0.5938
  929MOL0     O22520  -1.848  11.513  10.583  0.1248  0.4432  0.0030
  929MOL0     C22521  -1.980  11.532  10.546  0.5978 -0.1410 -0.0108
  929MOL0     C22522  -2.055  11.621  10.620  0.6542  0.6647 -0.9912
  929MOL0     C22523  -2.188  11.669  10.584 -0.6552  0.7719  0.5255
  929MOL0     C22524  -2.245  11.619  10.467 -0.9913  0.5877 -0.9216
  929MOL0     C22525  -2.376  11.657  10.430  1.0050 -0.2956  0.4454
  929MOL0     O22526  -2.456  11.692  10.534  0.3420  0.3866  0.2126
  929MOL0     C22527  -2.587  11.663  10.519 -0.0153  0.1957 -0.6991
  929MOL0     C22528  -2.638  11.542  10.481 -0.5909  0.2454 -0.3595
  929MOL0     C22529  -2.781  11.525  10.475 -0.0551  0.5828 -0.1948
  929MOL0     C22530  -2.877  11.632  10.510  0.2753 -0.2282 -0.8003
  929MOL0     O22531  -3.018  11.618  10.520  0.1941 -0.7189 -0.1568
  929MOL0     C22532  -3.077  11.492  10.534  0.0255 -0.4256 -0.2027
  929MOL0     C22533  -3.070  11.438  10.674  0.3413 -0.5787 -0.3848
  929MOL0     C22534  -3.125  11.541  10.782 -0.3003  0.0171  0.8464
  929MOL0     C22535  -3.264  11.593  10.737 -0.1454 -0.2977  0.4267
  929MOL0     C22536  -3.325  11.670  10.853  0.4701 -0.0950 -0.4085
  929MOL0     C22537  -3.445  11.759  10.824 -0.0059  0.0990 -0.4588
  929MOL0     C22538  -3.571  11.670  10.779 -0.2815  0.2770 -0.0801
  929MOL0     C22539  -3.690  11.745  10.733 -0.2866 -0.3536  0.2040
  929MOL0    Cl22540  -3.791  11.836  10.865 -0.0762  0.5583 -0.1059
  929MOL0     C22541  -2.819  11.758  10.546  0.5095  0.3775  0.3978
  929MOL0     C22542  -2.681  11.764  10.556 -0.9724 -0.2698  0.0555
  929MOL0     O22543  -2.417  11.658  10.312  0.3768 -0.2193 -0.0377
  929MOL0     C22544  -2.169  11.516  10.396  0.3593 -0.3093 -0.0853
  929MOL0     C22545  -2.044  11.469  10.437  0.6245 -0.2639 -0.9436
  929MOL0     N22546  -1.436  11.312  10.447  0.3104  0.4640 -0.6289
  929MOL0     N22547  -1.337  11.328  10.368  1.1213 -0.1520  0.6358
  929MOL0     C22548  -0.130  11.189  10.859  0.2484  0.4823  0.0768
  929MOL0     C22549  -0.047  11.122  10.955 -0.3286 -0.8161  0.5043
  929MOL0     C22550   0.198  10.826  11.188 -0.6027 -0.3356  0.2577
  929MOL0     C22551   0.303  10.746  11.148  0.6087 -0.6948 -0.2371
  929MOL0     C22552   0.366  10.664  11.244  0.4514 -1.0000  0.5480
  929MOL0     C22553   0.308  10.648  11.370 -0.1769  0.8000 -0.0384
  929MOL0     O22554   0.344  10.571  11.480  0.3342 -0.4367  0.3944
  929MOL0     C22555   0.462  10.502  11.483 -0.5645 -0.3869  1.0877
  929MOL0     C22556   0.440  10.358  11.482  0.4705 -0.7238 -0.0803
  929MOL0     C22557   0.380  10.305  11.616 -0.5004  0.1481  0.4753
  929MOL0     C22558   0.336  10.157  11.606 -0.4135 -0.2908  0.4726
  929MOL0     C22559   0.287  10.107  11.734  0.4920 -0.3791  0.1296
  929MOL0     C22560   0.251  10.061  11.838 -0.3295  0.1921  1.3063
  929MOL0     C22561   0.200  10.725  11.402  0.2927  0.0475  0.0360
  929MOL0     C22562   0.140  10.813  11.314 -0.5288  0.4861 -0.0184
  929MOL0     H22563  -0.200  10.826  10.955  2.9815 -0.2272 -0.8928
  929MOL0     H22564  -0.327  10.915  10.783  0.5018 -0.0886  1.1074
  929MOL0     H22565  -0.184  11.264  10.576 -0.3575  0.0654 -1.5092
  929MOL0     H22566  -0.289  11.377  10.665  0.8758  1.2185 -0.4064
  929MOL0     H22567  -0.394  11.188  10.460  0.9628  0.0061 -0.3755
  929MOL0     H22568  -0.362  11.354  10.428 -0.1170  3.2963  1.3238
  929MOL0     H22569  -0.540  11.381  10.639  0.8609 -0.5799 -0.3620
  929MOL0     H22570  -0.579  11.212  10.608  1.0923  0.0360  2.5178
  929MOL0     H22571  -0.588  11.436  10.387 -0.9666  0.0392  0.1423
  929MOL0     H22572  -0.627  11.268  10.366  2.2004 -1.7067 -0.0103
  929MOL0     H22573  -0.769  11.478  10.536  0.2204 -0.6227  0.9331
  929MOL0     H22574  -0.818  11.305  10.536 -0.5476  0.8566 -1.2410
  929MOL0     H22575  -0.847  11.306  10.285  1.0927  0.4673 -0.1774
  929MOL0     H22576  -0.824  11.484  10.305 -0.8739  2.3764  3.9078
  929MOL0     H22577  -1.017  11.453  10.487  0.9953  0.0825 -0.2265
  929MOL0     H22578  -1.059  11.463  10.321  3.3601  1.6177 -1.8168
  929MOL0     H22579  -1.030  11.198  10.448  3.0920  1.5011 -0.4881
  929MOL0     H22580  -1.077  11.238  10.277  0.1857  2.7187 -0.8419
  929MOL0     H22581  -1.210  11.189  10.640 -2.2918 -0.5850  1.1623
  929MOL0     H22582  -1.437  11.262  10.776 -1.3049  1.5159 -0.1398
  929MOL0     H22583  -1.462  11.100  10.713 -0.7928 -0.1211 -0.4749
  929MOL0     H22584  -1.666  11.175  10.758  1.3189  0.0928  1.8479
  929MOL0     H22585  -1.655  11.176  10.586  1.8839 -2.5685  0.8635
  929MOL0     H22586  -1.643  11.442  10.751  2.4231  1.0049 -1.7174
  929MOL0     H22587  -1.627  11.436  10.585  1.0286 -1.2053 -0.9443
  929MOL0     H22588  -1.868  11.396  10.752  0.0539  0.0454 -0.6147
  929MOL0     H22589  -1.860  11.302  10.608 -0.7919  0.0699  0.5293
  929MOL0     H22590  -2.012  11.671  10.706 -1.9233 -2.1342  2.1668
  929MOL0     H22591  -2.231  11.759  10.629 -4.1414  0.1222 -1.2257
  929MOL0     H22592  -2.580  11.458  10.445 -1.5219 -0.4956 -0.1759
  929MOL0     H22593  -2.814  11.424  10.453  3.5778 -0.4061 -1.8300
  929MOL0     H22594  -3.036  11.419  10.464  0.6657 -1.2889  1.0304
  929MOL0     H22595  -3.182  11.502  10.504 -0.2054  0.3997  0.8236
  929MOL0     H22596  -2.967  11.411  10.696  0.0284 -0.6892  1.0432
  929MOL0     H22597  -3.126  11.344  10.683 -0.7403  0.0652 -0.1293
  929MOL0     H22598  -3.058  11.622  10.810 -0.6563  0.2971  0.8930
  929MOL0     H22599  -3.137  11.476  10.869 -0.5370 -0.1545  0.6859
  929MOL0     H22600  -3.250  11.655  10.648 -1.1128 -3.0372 -1.7460
  929MOL0     H22601  -3.332  11.516  10.701  0.3202 -0.8661  0.7418
  929MOL0     H22602  -3.243  11.734  10.889 -0.1556  0.6864 -0.3471
  929MOL0     H22603  -3.353  11.609  10.940 -0.7145  2.7127  1.3250
  929MOL0     H22604  -3.426  11.833  10.747 -0.4839 -0.1208 -0.7936
  929MOL0     H22605  -3.460  11.808  10.921  0.3696 -0.6852  0.0063
  929MOL0     H22606  -3.538  11.613  10.692 -1.8881  0.1842 -0.6490
  929MOL0     H22607  -3.603  11.601  10.858 -2.4663  1.3076 -0.0013
  929MOL0     H22608  -3.758  11.677  10.682  0.4554 -1.7574  1.0145
  929MOL0     H22609  -3.650  11.823  10.668 -1.5215  0.7977  0.7763
  929MOL0     H22610  -2.885  11.839  10.575  0.3616  1.0033 -1.5231
  929MOL0     H22611  -2.640  11.857  10.596  2.7096 -1.8778  0.4790
  929MOL0     H22612  -2.214  11.474  10.306  3.6234  1.3130 -2.7266
  929MOL0     H22613  -1.995  11.394  10.376  1.3277 -0.1943 -0.4792
  929MOL0     H22614  -0.103  11.293  10.845  3.4535 -0.0115  1.6724
  929MOL0     H22615   0.032  11.182  10.999 -0.3500 -0.2611 -0.1882
  929MOL0     H22616   0.349  10.770  11.053  0.2886  3.9289  0.5255
  929MOL0     H22617   0.450  10.608  11.205  1.0635  0.3935 -0.2138
  929MOL0     H22618   0.528  10.540  11.562  0.4970 -0.4998  0.2848
  929MOL0     H22619   0.521  10.528  11.395 -3.0000 -2.9946 -1.5043
  929MOL0     H22620   0.361  10.332  11.411  0.2965 -1.8587  0.5010
  929MOL0     H22621   0.536  10.310  11.464  2.3173  2.7952 -0.3671
  929MOL0     H22622   0.303  10.369  11.660  1.1570  1.5413  1.4820
  929MOL0     H22623   0.462  10.310  11.689  0.6936  3.5369 -0.9059
  929MOL0     H22624   0.255  10.137  11.535 -1.8917  0.1891  1.9499
  929MOL0     H22625   0.418  10.097  11.566  0.4006  1.0965 -0.0208
  929MOL0     H22626   0.222  10.021  11.932 -1.1951  2.3794  2.0444
  929MOL0     H22627   0.159  10.721  11.503  0.9492 -0.0927  0.3057
  929MOL0     H22628   0.054  10.869  11.348  0.0143  1.8771 -0.8623
  930MOL0     O22629   8.079   6.721   2.910 -0.4863 -0.4802  0.1697
  930MOL0     C22630   8.159   6.633   2.946  1.2128  0.4498 -0.4473
  930MOL0     O22631   8.114   6.517   3.006 -0.3871 -0.1843 -0.0845
  930MOL0     C22632   7.983   6.522   3.043 -0.5786  0.7738 -0.2244
  930MOL0     C22633   7.867   6.528   2.958  0.5535  0.6566  0.3313
  930MOL0     C22634   7.736   6.533   3.013 -0.4743  0.7380 -0.1387
  930MOL0     C22635   7.722   6.546   3.150 -0.0233 -0.2909  0.9536
  930MOL0     O22636   7.599   6.574   3.201  0.6169 -0.0615  0.5457
  930MOL0     C22637   7.551   6.482   3.308  0.5533  0.0650 -0.3504
  930MOL0     C22638   7.395   6.478   3.302 -0.4788 -0.4223 -0.2530
  930MOL0     C22639   7.340   6.412   3.430  0.7116 -0.6275 -0.3921
  930MOL0     C22640   7.191   6.399   3.432  0.1599  0.1338  0.6093
  930MOL0     C22641   7.128   6.317   3.545  0.2082 -0.9118 -0.5309
  930MOL0     C22642   7.181   6.358   3.686 -0.1671  0.0459  0.5304
  930MOL0     C22643   7.077   6.317   3.798 -0.2667 -0.3623  0.0907
  930MOL0     C22644   7.101   6.387   3.930 -0.0744 -0.0219  0.7800
  930MOL0     N22645   6.997   6.380   4.035 -0.3566 -0.2482 -0.3643
  930MOL0     C22646   6.961   6.265   4.102  0.2716  0.3386  1.0796
  930MOL0     C22647   6.844   6.290   4.163 -0.7382  0.1851 -0.6056
  930MOL0     C22648   6.774   6.195   4.253 -0.5888  0.1346  0.5570
  930MOL0     C22649   6.671   6.255   4.347 -0.0801 -1.0003  0.1921
  930MOL0     C22650   6.615   6.155   4.457  0.3928 -0.1382  1.0932
  930MOL0     C22651   6.500   6.201   4.550 -0.3885  0.4982  0.4550
  930MOL0     O22652   6.475   6.102   4.648  0.0224 -0.3043 -0.0867
  930MOL0     C22653   6.374   6.124   4.745  0.7002  0.2974  0.8793
  930MOL0     C22654   6.358   6.028   4.849  0.1183 -0.0996  0.4387
  930MOL0     C22655   6.259   6.050   4.943  0.0898  0.1425  0.2043
  930MOL0     C22656   6.171   6.157   4.939  0.0474 -0.5604  0.4212
  930MOL0     C22657   6.068   6.189   5.050 -0.6230  0.1657  0.3397
  930MOL0     O22658   6.005   6.317   5.050 -0.3422 -0.1570  1.1142
  930MOL0     C22659   5.897   6.345   5.126 -0.1614  0.0151  0.4333
  930MOL0     C22660   5.846   6.280   5.239 -0.0272 -0.0580  0.1832
  930MOL0     C22661   5.738   6.339   5.313 -0.2054 -0.2514 -0.1196
  930MOL0     C22662   5.675   6.449   5.256 -0.3623 -0.2411  0.0283
  930MOL0     O22663   5.562   6.478   5.321 -0.8039  0.0255 -0.0722
  930MOL0     C22664   5.476   6.578   5.269 -0.4747 -0.3138  0.4736
  930MOL0     C22665   5.353   6.604   5.358  0.8323 -0.0656 -0.1556
  930MOL0     C22666   5.254   6.711   5.290  0.2981 -0.1655  0.0721
  930MOL0     C22667   5.301   6.852   5.299 -0.4566 -0.6018 -0.3169
  930MOL0     C22668   5.235   6.951   5.194 -0.0656  0.2460  0.2833
  930MOL0     C22669   5.071   6.963   5.217 -0.6055  0.4662  0.6683
  930MOL0     C22670   5.025   6.999   5.360  0.0031 -0.5599  0.2768
  930MOL0     C22671   4.865   7.009   5.350 -0.7526 -0.2742 -0.2419
  930MOL0    Cl22672   4.793   7.014   5.512  0.2889 -0.0515  0.2365
  930MOL0     C22673   5.708   6.496   5.128 -0.1973  0.6348  1.4941
  930MOL0     C22674   5.824   6.446   5.069  0.2918  0.3469 -0.3531
  930MOL0     O22675   6.051   6.103   5.134  0.0717  0.6361 -0.1473
  930MOL0     C22676   6.174   6.245   4.826  0.0159  0.3242 -0.4422
  930MOL0     C22677   6.271   6.225   4.724 -0.3716 -0.1502 -0.1468
  930MOL0     N22678   6.809   6.416   4.129  0.7811 -0.8131 -0.1073
  930MOL0     N22679   6.896   6.468   4.049 -0.0660 -0.1077 -0.2539
  930MOL0     C22680   7.834   6.547   3.233 -0.0418 -0.1882 -0.0861
  930MOL0     C22681   7.960   6.533   3.180  0.1748  0.2222  0.6224
  930MOL0     C22682   8.294   6.643   2.900  0.0460  0.4759 -0.4352
  930MOL0     C22683   8.332   6.727   2.795  0.2365  0.4601 -0.3548
  930MOL0     C22684   8.463   6.729   2.747 -0.9242  0.7690 -1.1805
  930MOL0     C22685   8.555   6.642   2.807  0.2439  0.2151  0.8924
  930MOL0     O22686   8.692   6.654   2.757  0.6641 -0.1321 -0.1769
  930MOL0     C22687   8.772   6.542   2.780 -0.3143  0.2312 -0.2089
  930MOL0     C22688   8.884   6.531   2.662  0.1003  0.2612 -0.8357
  930MOL0     C22689   8.975   6.397   2.679  0.3675  0.0368 -0.3216
  930MOL0     C22690   9.083   6.399   2.573  0.5769  0.4866 -0.5291
  930MOL0     C22691   9.195   6.481   2.593  0.0297 -0.5485 -0.9579
  930MOL0     C22692   9.290   6.556   2.609  0.4293 -0.0459  0.1265
  930MOL0     C22693   8.515   6.558   2.912 -0.1621 -0.6001 -0.0986
  930MOL0     C22694   8.384   6.552   2.955 -0.1773  0.1587  0.1552
  930MOL0     H22695   7.887   6.533   2.851 -3.1541 -0.0027 -0.5574
  930MOL0     H22696   7.644   6.541   2.955  0.4700  2.0506 -1.4949
  930MOL0     H22697   7.579   6.534   3.400  0.2314 -0.5625  0.1017
  930MOL0     H22698   7.594   6.381   3.309 -3.6600 -1.9443 -0.9939
  930MOL0     H22699   7.367   6.418   3.215  1.3747 -1.8432  0.0768
  930MOL0     H22700   7.353   6.577   3.280  1.1111 -0.2566 -3.0422
  930MOL0     H22701   7.373   6.474   3.514 -2.0251 -0.0162  0.3284
  930MOL0     H22702   7.381   6.310   3.431  0.7815 -0.5989 -0.3800
  930MOL0     H22703   7.146   6.499   3.437 -2.0860 -0.7809 -0.1048
  930MOL0     H22704   7.156   6.352   3.339  0.3559  2.2311 -0.5847
  930MOL0     H22705   7.135   6.208   3.536  0.4049 -0.9243 -0.2462
  930MOL0     H22706   7.021   6.336   3.553  0.8087  2.2616  3.1823
  930MOL0     H22707   7.212   6.463   3.691  1.1957 -0.2178 -1.5191
  930MOL0     H22708   7.260   6.286   3.709 -1.2939 -1.5129 -0.3182
  930MOL0     H22709   6.974   6.346   3.774 -0.5693 -0.0871  1.5967
  930MOL0     H22710   7.080   6.210   3.815  0.1062 -0.2931  0.4629
  930MOL0     H22711   7.111   6.494   3.907  1.5073 -0.2622  0.2524
  930MOL0     H22712   7.193   6.351   3.978  0.2449  1.1315  1.0666
  930MOL0     H22713   7.013   6.170   4.117 -0.4990 -0.3987 -0.6141
  930MOL0     H22714   6.849   6.140   4.311 -0.8018 -0.2962  0.4295
  930MOL0     H22715   6.732   6.122   4.183  2.1340 -1.4320  0.4129
  930MOL0     H22716   6.594   6.294   4.280 -3.2028 -2.8347  2.4243
  930MOL0     H22717   6.715   6.346   4.390  1.0503 -0.3053 -2.2329
  930MOL0     H22718   6.580   6.063   4.412  2.9790 -0.5311 -0.2972
  930MOL0     H22719   6.694   6.123   4.526 -0.9752  0.7655  3.2096
  930MOL0     H22720   6.412   6.230   4.491 -1.2160 -2.1290  0.2560
  930MOL0     H22721   6.539   6.293   4.593 -2.9394  2.2030 -0.6244
  930MOL0     H22722   6.441   5.958   4.858 -0.0563 -0.5276 -0.9959
  930MOL0     H22723   6.245   5.981   5.026  4.0735  0.1951  1.1012
  930MOL0     H22724   5.887   6.195   5.294 -0.6609  0.4961  1.5633
  930MOL0     H22725   5.701   6.287   5.401  1.1363 -0.5276  0.3048
  930MOL0     H22726   5.440   6.559   5.167 -0.6129  0.9513  0.2693
  930MOL0     H22727   5.538   6.669   5.271 -0.5716 -0.1901 -1.0872
  930MOL0     H22728   5.388   6.660   5.446  2.2144 -0.5410 -0.3769
  930MOL0     H22729   5.304   6.509   5.383  0.5661 -0.5055 -2.2262
  930MOL0     H22730   5.159   6.711   5.344 -0.4513 -0.7023 -1.2020
  930MOL0     H22731   5.235   6.682   5.186 -3.7493 -0.5232  0.7247
  930MOL0     H22732   5.284   6.888   5.401  0.3340 -2.1412  0.4017
  930MOL0     H22733   5.409   6.856   5.284 -0.3232  0.2791  0.7619
  930MOL0     H22734   5.276   6.909   5.101  1.8132  0.9928  0.7315
  930MOL0     H22735   5.284   7.049   5.194  1.0226 -0.2523 -1.0814
  930MOL0     H22736   5.017   6.878   5.177 -0.4247  0.1507  1.0875
  930MOL0     H22737   5.047   7.051   5.156  4.8603 -0.0826 -3.0431
  930MOL0     H22738   5.053   6.913   5.422  1.4191  0.8551  1.6701
  930MOL0     H22739   5.073   7.092   5.391  1.8702 -1.2170 -0.4649
  930MOL0     H22740   4.837   6.932   5.278  1.2835 -1.0699 -0.2513
  930MOL0     H22741   4.836   7.103   5.301 -0.1179  0.3519  0.5458
  930MOL0     H22742   5.662   6.586   5.089 -1.0457 -0.1584  0.6171
  930MOL0     H22743   5.879   6.493   4.988  2.0603 -0.3195  0.4307
  930MOL0     H22744   6.097   6.320   4.808  0.1017  0.9040  1.4709
  930MOL0     H22745   6.270   6.294   4.641 -0.9951 -1.0764 -0.9316
  930MOL0     H22746   7.812   6.554   3.339 -2.3494 -0.3370 -0.5223
  930MOL0     H22747   8.043   6.531   3.250 -0.7610  0.3783  1.7711
  930MOL0     H22748   8.260   6.793   2.747  1.3180  1.1286 -1.1048
  930MOL0     H22749   8.498   6.797   2.670  1.6918 -2.4260 -3.0661
  930MOL0     H22750   8.720   6.446   2.773 -3.5249  1.9397 -2.5970
  930MOL0     H22751   8.815   6.552   2.880  0.0152 -3.5739  0.1605
  930MOL0     H22752   8.834   6.519   2.566  0.1354  0.5153 -0.8856
  930MOL0     H22753   8.945   6.622   2.664 -3.1240  2.5937  0.1474
  930MOL0     H22754   8.925   6.302   2.662 -1.0748  0.1527  2.6772
  930MOL0     H22755   9.025   6.404   2.776  1.9094 -0.0939 -1.0584
  930MOL0     H22756   9.118   6.301   2.539 -1.2117  0.5272 -2.6796
  930MOL0     H22757   9.037   6.436   2.481 -0.1226 -0.6361 -0.6546
  930MOL0     H22758   9.373   6.624   2.605 -1.2933  2.1997  0.0789
  930MOL0     H22759   8.593   6.494   2.952  0.8088 -1.2230 -2.7955
  930MOL0     H22760   8.361   6.490   3.041  1.3874 -0.7730 -0.0406
  931MOL0     O22761   1.689  10.005   5.101 -0.4668 -0.1006 -0.0836
  931MOL0     C22762   1.767  10.051   5.179 -0.5438  0.2968 -0.4193
  931MOL0     O22763   1.738  10.068   5.316 -0.2069 -0.4306  0.1031
  931MOL0     C22764   1.613  10.031   5.369  0.9903  0.8236  1.4608
  931MOL0     C22765   1.619   9.951   5.483 -0.8988  0.2503 -0.0741
  931MOL0     C22766   1.504   9.887   5.531 -0.1413  0.0386  0.3815
  931MOL0     C22767   1.377   9.913   5.474  0.0168 -0.1189 -0.2614
  931MOL0     O22768   1.274   9.856   5.538  0.1597  0.4943  0.1866
  931MOL0     C22769   1.179   9.786   5.455  0.7941 -0.0071  0.7242
  931MOL0     C22770   1.126   9.672   5.546  0.5088  0.3175 -0.3126
  931MOL0     C22771   1.020   9.718   5.646  0.0301 -0.0761 -0.3534
  931MOL0     C22772   0.999   9.617   5.762  1.0710 -0.4166 -0.2260
  931MOL0     C22773   0.876   9.635   5.850 -0.4424  0.1961  0.7711
  931MOL0     C22774   0.866   9.514   5.941 -0.0670 -0.3325  0.1537
  931MOL0     C22775   0.759   9.547   6.039 -0.1801 -0.4864 -0.2931
  931MOL0     C22776   0.705   9.423   6.122  0.9425 -0.4162  0.6292
  931MOL0     N22777   0.654   9.462   6.250 -0.5374 -0.3009 -0.7964
  931MOL0     C22778   0.522   9.494   6.275  1.2888 -0.2491  0.5401
  931MOL0     C22779   0.528   9.531   6.399 -0.6951  0.5661  0.0296
  931MOL0     C22780   0.411   9.569   6.489 -0.0554  1.0879  0.2424
  931MOL0     C22781   0.353   9.702   6.431 -0.1519 -1.0571 -0.0453
  931MOL0     C22782   0.222   9.724   6.497  0.0892 -0.2819 -1.0547
  931MOL0     C22783   0.105   9.648   6.423  0.7027  0.2473 -0.0977
  931MOL0     O22784   0.077   9.713   6.295  0.9373 -0.3206  0.6374
  931MOL0     C22785  -0.053   9.720   6.235 -0.0285  0.3587 -0.5440
  931MOL0     C22786  -0.162   9.649   6.289 -0.4693 -0.5280  0.8077
  931MOL0     C22787  -0.285   9.633   6.222 -0.5212 -0.1505  0.4315
  931MOL0     C22788  -0.298   9.684   6.094  1.0842 -0.6057 -0.0849
  931MOL0     C22789  -0.421   9.677   6.016 -0.6298  0.5012 -0.4508
  931MOL0     O22790  -0.530   9.623   6.086  0.4426  0.4030 -0.5877
  931MOL0     C22791  -0.646   9.576   6.025 -0.2761 -0.1588  0.5984
  931MOL0     C22792  -0.673   9.539   5.889  0.5691 -0.3511 -1.6251
  931MOL0     C22793  -0.800   9.494   5.869  0.3505 -0.4240  0.2912
  931MOL0     C22794  -0.907   9.495   5.955  0.0919 -0.2872 -0.6700
  931MOL0     O22795  -1.029   9.445   5.906 -0.2439 -0.1179  0.9119
  931MOL0     C22796  -1.143   9.453   5.991  0.6873 -0.7605  0.1936
  931MOL0     C22797  -1.271   9.405   5.927  0.7272  0.2795 -0.4587
  931MOL0     C22798  -1.289   9.460   5.783 -0.4651  0.5277 -0.8524
  931MOL0     C22799  -1.433   9.431   5.736 -0.4159  0.7026 -0.3776
  931MOL0     C22800  -1.469   9.476   5.600 -0.6783  0.4062  0.3813
  931MOL0     C22801  -1.375   9.417   5.491  0.6646  1.1429 -0.0944
  931MOL0     C22802  -1.350   9.264   5.503  0.0058  0.1636 -0.1697
  931MOL0     C22803  -1.335   9.213   5.360 -0.0818 -0.2297  0.1957
  931MOL0    Cl22804  -1.486   9.224   5.263 -0.5011  0.1633  0.0729
  931MOL0     C22805  -0.886   9.540   6.088 -0.1567  0.3161  0.3725
  931MOL0     C22806  -0.755   9.566   6.120  0.1493  0.1184 -0.5204
  931MOL0     O22807  -0.407   9.680   5.895  0.8538  0.3835  0.9845
  931MOL0     C22808  -0.191   9.757   6.035 -0.1197  0.0051 -0.6166
  931MOL0     C22809  -0.073   9.779   6.104 -0.6798  0.0354 -0.1106
  931MOL0     N22810   0.655   9.528   6.446 -0.3781  0.0086 -1.0308
  931MOL0     N22811   0.732   9.484   6.357  0.0964 -0.0036  0.3426
  931MOL0     C22812   1.371  10.004   5.364  0.6552  0.2211  0.4528
  931MOL0     C22813   1.487  10.057   5.305 -0.7791  0.0675  0.0090
  931MOL0     C22814   1.903  10.092   5.129  0.5004 -0.2224 -0.1172
  931MOL0     C22815   1.928  10.110   4.988  0.7644 -0.5894 -0.5117
  931MOL0     C22816   2.063  10.131   4.943 -0.1066  0.5575  0.8878
  931MOL0     C22817   2.168  10.156   5.035 -0.3347 -0.5465 -0.1554
  931MOL0     O22818   2.298  10.178   4.996 -0.4767  0.5757 -0.1995
  931MOL0     C22819   2.342  10.177   4.863 -0.8206  0.0391  0.2259
  931MOL0     C22820   2.375  10.044   4.795 -0.4417 -0.0662  0.2953
  931MOL0     C22821   2.419  10.065   4.646  0.2328  1.0589  0.2043
  931MOL0     C22822   2.318  10.146   4.558 -0.5151  0.0352  0.1276
  931MOL0     C22823   2.337  10.116   4.416 -0.2923  0.1496  0.4245
  931MOL0     C22824   2.360  10.080   4.306 -0.6713  0.7448  0.4421
  931MOL0     C22825   2.144  10.141   5.173  0.2775 -0.4630  0.0147
  931MOL0     C22826   2.014  10.107   5.221 -0.8863 -0.4787 -0.0989
  931MOL0     H22827   1.718   9.944   5.526 -1.4644  0.9963  1.4199
  931MOL0     H22828   1.517   9.816   5.612  0.1282 -0.3372  0.0126
  931MOL0     H22829   1.224   9.742   5.365 -2.5909 -1.1080 -0.5856
  931MOL0     H22830   1.096   9.850   5.423 -0.2592 -1.6475  0.0861
  931MOL0     H22831   1.207   9.627   5.604 -1.5769 -2.8160  0.3992
  931MOL0     H22832   1.078   9.593   5.488  0.7744  0.7490 -1.1420
  931MOL0     H22833   0.935   9.743   5.581  0.0998 -1.1448 -0.8837
  931MOL0     H22834   1.047   9.809   5.700 -1.0080 -0.7690  1.4169
  931MOL0     H22835   0.993   9.521   5.710  2.2769  0.9951 -3.2107
  931MOL0     H22836   1.083   9.622   5.832  0.2980  0.8214  0.6649
  931MOL0     H22837   0.785   9.655   5.792  0.2642  1.5169  0.0894
  931MOL0     H22838   0.869   9.728   5.908 -1.2506  1.4440 -1.2389
  931MOL0     H22839   0.961   9.506   5.995 -0.7113  3.2114  2.1394
  931MOL0     H22840   0.850   9.424   5.881  0.2290  0.1509 -0.6647
  931MOL0     H22841   0.784   9.628   6.108 -1.2420 -0.8688  0.5743
  931MOL0     H22842   0.673   9.584   5.981  1.0545  2.4744 -0.4009
  931MOL0     H22843   0.783   9.346   6.129  0.0803 -1.2769  0.9343
  931MOL0     H22844   0.630   9.374   6.059  1.8242  0.4756 -1.2070
  931MOL0     H22845   0.432   9.484   6.215  2.8231  1.6552 -2.2947
  931MOL0     H22846   0.450   9.590   6.588 -0.6185  1.1837  0.4491
  931MOL0     H22847   0.332   9.493   6.496  0.1767  0.7853 -0.3077
  931MOL0     H22848   0.346   9.701   6.322 -0.2297  1.2915 -0.1192
  931MOL0     H22849   0.424   9.777   6.469 -1.4903  1.2820 -1.8868
  931MOL0     H22850   0.219   9.683   6.598  0.7643  2.5048  0.1817
  931MOL0     H22851   0.203   9.831   6.510 -0.6065 -0.5705  0.4973
  931MOL0     H22852   0.019   9.650   6.491 -0.7752 -2.4570 -1.7110
  931MOL0     H22853   0.128   9.542   6.409 -0.7475 -0.2770  1.2252
  931MOL0     H22854  -0.159   9.604   6.387 -1.7139  0.6235  1.4027
  931MOL0     H22855  -0.374   9.598   6.274  0.0117 -0.7675  0.9311
  931MOL0     H22856  -0.588   9.550   5.822  1.4130  1.8847 -0.2889
  931MOL0     H22857  -0.826   9.452   5.772  1.8358  0.4597 -0.5297
  931MOL0     H22858  -1.161   9.560   6.004 -2.6687 -0.9013 -1.9734
  931MOL0     H22859  -1.126   9.401   6.086  1.8926 -2.7473 -1.0315
  931MOL0     H22860  -1.348   9.446   5.993  2.2927  0.8231  1.1211
  931MOL0     H22861  -1.267   9.297   5.916 -3.9663 -0.2266  0.8430
  931MOL0     H22862  -1.208   9.421   5.720  0.7198  0.5428  0.6042
  931MOL0     H22863  -1.284   9.569   5.780 -2.7174  0.7346  0.4589
  931MOL0     H22864  -1.449   9.323   5.750 -0.4544  0.7930  0.3302
  931MOL0     H22865  -1.505   9.488   5.796 -0.2198  0.2107  0.3405
  931MOL0     H22866  -1.467   9.585   5.587 -1.7318  0.4863  0.8289
  931MOL0     H22867  -1.569   9.442   5.573 -2.0925  2.9620  2.0162
  931MOL0     H22868  -1.274   9.459   5.480  0.3821  1.5104 -1.5777
  931MOL0     H22869  -1.429   9.437   5.398  0.4342  2.8540  0.3585
  931MOL0     H22870  -1.255   9.241   5.552  0.3968  2.0757  0.0494
  931MOL0     H22871  -1.429   9.210   5.556  0.6736 -0.3918  0.2874
  931MOL0     H22872  -1.309   9.107   5.358 -2.5429 -0.9173  0.8657
  931MOL0     H22873  -1.247   9.254   5.311  1.0888 -2.7019  0.1140
  931MOL0     H22874  -0.960   9.543   6.168 -0.0703  5.0912  0.5653
  931MOL0     H22875  -0.737   9.578   6.226 -0.1681 -2.2312 -0.1627
  931MOL0     H22876  -0.198   9.806   5.938  0.8734  1.0256 -0.1983
  931MOL0     H22877  -0.001   9.832   6.041 -2.5910  0.1200 -2.3404
  931MOL0     H22878   1.275  10.015   5.316  0.2773 -0.6429  0.9925
  931MOL0     H22879   1.481  10.120   5.217 -0.5664  0.7055  0.4371
  931MOL0     H22880   1.850  10.108   4.912  1.3025  0.1357 -1.1040
  931MOL0     H22881   2.066  10.148   4.836 -0.0603 -1.8703  0.4462
  931MOL0     H22882   2.432  10.238   4.863  0.8745 -2.3051 -0.7850
  931MOL0     H22883   2.269  10.231   4.802 -1.0152 -0.8856 -0.3794
  931MOL0     H22884   2.465  10.001   4.840  1.1086 -0.3264 -2.7730
  931MOL0     H22885   2.303   9.964   4.810  1.6641 -2.1844 -0.3473
  931MOL0     H22886   2.449   9.972   4.598 -0.6566 -0.4670  2.4420
  931MOL0     H22887   2.502  10.136   4.652 -1.4656  3.1886  0.0272
  931MOL0     H22888   2.211  10.137   4.579 -0.6457 -0.0409 -0.5766
  931MOL0     H22889   2.349  10.248   4.583 -0.0685 -0.4480  1.6752
  931MOL0     H22890   2.387  10.030   4.215  0.2685  0.2125  0.9913
  931MOL0     H22891   2.226  10.156   5.243  2.6873 -2.0882 -2.2674
  931MOL0     H22892   2.004  10.088   5.328 -0.1879 -2.2450 -0.3162
  932MOL0     O22893   0.303   8.353   0.504  0.2823  0.0033  0.0088
  932MOL0     C22894   0.357   8.435   0.589  0.2706  0.4123  0.7920
  932MOL0     O22895   0.301   8.466   0.710  0.2505  0.5902 -0.4685
  932MOL0     C22896   0.179   8.415   0.737  1.0218  0.4954  0.9252
  932MOL0     C22897   0.067   8.492   0.772 -0.0452 -0.5667 -0.6171
  932MOL0     C22898  -0.059   8.441   0.785 -0.4008  0.5859 -0.8225
  932MOL0     C22899  -0.073   8.304   0.789  0.2030  0.3985  0.3376
  932MOL0     O22900  -0.185   8.234   0.818  0.3679 -0.4548 -0.1318
  932MOL0     C22901  -0.298   8.270   0.739  0.7809  0.1132 -0.0663
  932MOL0     C22902  -0.408   8.159   0.740 -0.0984 -0.4758  0.1796
  932MOL0     C22903  -0.479   8.144   0.876 -0.1429 -0.2916 -0.0829
  932MOL0     C22904  -0.545   8.009   0.907  0.2577  0.7400  0.1957
  932MOL0     C22905  -0.453   7.888   0.935 -0.1603  0.0998 -0.1517
  932MOL0     C22906  -0.541   7.762   0.952  0.3099  0.8485  0.6365
  932MOL0     C22907  -0.470   7.629   0.954  0.1848  0.5473 -0.2272
  932MOL0     C22908  -0.549   7.509   1.000 -0.0564 -0.4249 -0.1293
  932MOL0     N22909  -0.657   7.467   0.903 -0.7572  0.4483 -0.4650
  932MOL0     C22910  -0.775   7.527   0.865  0.0333 -0.0202 -0.2447
  932MOL0     C22911  -0.838   7.423   0.801 -0.2375  1.0413  0.0910
  932MOL0     C22912  -0.970   7.454   0.726 -0.4741  0.1528 -0.3163
  932MOL0     C22913  -1.065   7.335   0.739  0.2135  0.3746  0.2444
  932MOL0     C22914  -1.212   7.372   0.713  0.4798  0.8407  0.4224
  932MOL0     C22915  -1.311   7.259   0.738  0.5742  0.1343 -0.1341
  932MOL0     O22916  -1.435   7.327   0.719 -0.4027  0.3973  0.4447
  932MOL0     C22917  -1.558   7.275   0.729  0.2385  0.5187 -0.0974
  932MOL0     C22918  -1.659   7.364   0.706 -0.1060  0.1239  0.4461
  932MOL0     C22919  -1.795   7.323   0.706 -0.3003 -0.1967  0.0719
  932MOL0     C22920  -1.836   7.184   0.737 -0.5831 -0.1097  0.6680
  932MOL0     C22921  -1.976   7.149   0.757 -0.1377 -0.0431 -0.5827
  932MOL0     O22922  -2.058   7.253   0.735  0.7923  0.5499 -0.1587
  932MOL0     C22923  -2.197   7.243   0.734  0.4586 -0.1053  0.3661
  932MOL0     C22924  -2.283   7.340   0.803 -0.0338  0.0932  0.5048
  932MOL0     C22925  -2.423   7.305   0.813  0.3237  0.2392  0.1035
  932MOL0     C22926  -2.486   7.203   0.745  0.1433  0.5237 -0.5714
  932MOL0     O22927  -2.626   7.196   0.743  0.1170  0.2180 -0.3858
  932MOL0     C22928  -2.704   7.275   0.838  0.2997 -0.4488  0.5931
  932MOL0     C22929  -2.847   7.244   0.800 -0.1857  0.2405  0.1757
  932MOL0     C22930  -2.942   7.336   0.867 -0.1423 -0.4112 -0.0610
  932MOL0     C22931  -3.080   7.334   0.798  0.0530  0.0190  0.0773
  932MOL0     C22932  -3.200   7.391   0.877 -0.0281  0.5888 -0.1477
  932MOL0     C22933  -3.333   7.357   0.807 -1.1071 -0.3980 -0.2697
  932MOL0     C22934  -3.362   7.208   0.788 -0.9030  0.8523 -1.0035
  932MOL0     C22935  -3.502   7.182   0.738  0.5269  0.3464 -0.2453
  932MOL0    Cl22936  -3.532   7.273   0.594 -0.0322 -0.1299  0.1242
  932MOL0     C22937  -2.406   7.120   0.665  0.3564 -0.3051 -0.2822
  932MOL0     C22938  -2.264   7.141   0.662 -0.0382 -0.4710  0.2299
  932MOL0     O22939  -2.011   7.038   0.804  0.2739 -0.7358 -0.5181
  932MOL0     C22940  -1.730   7.103   0.774 -0.8806  0.5319  0.2939
  932MOL0     C22941  -1.593   7.142   0.770  0.8833  0.3424  0.0344
  932MOL0     N22942  -0.759   7.313   0.791  0.0912  0.6988  1.2777
  932MOL0     N22943  -0.652   7.342   0.853 -0.0951  0.3746 -0.4793
  932MOL0     C22944   0.041   8.221   0.764  0.0140  0.8003  0.4645
  932MOL0     C22945   0.166   8.278   0.742 -0.2319 -0.3432  0.1545
  932MOL0     C22946   0.489   8.499   0.559  0.2987 -0.6197  0.2767
  932MOL0     C22947   0.556   8.568   0.661 -0.5601  0.3211 -0.6893
  932MOL0     C22948   0.676   8.626   0.633 -0.2599  0.2105  0.5806
  932MOL0     C22949   0.745   8.599   0.509 -0.4816 -0.7057 -0.5829
  932MOL0     O22950   0.878   8.628   0.479  0.7079 -0.0120 -0.4402
  932MOL0     C22951   0.944   8.711   0.577  0.4039  0.4895 -0.1941
  932MOL0     C22952   1.088   8.730   0.554 -0.8640  0.0623  0.2645
  932MOL0     C22953   1.107   8.793   0.415 -0.5766  0.5940  0.6141
  932MOL0     C22954   1.215   8.907   0.401 -0.2614 -0.0781 -0.0272
  932MOL0     C22955   1.209   9.006   0.504  0.7685  0.0560 -0.1988
  932MOL0     C22956   1.231   9.089   0.583  0.0487 -0.0202 -0.0326
  932MOL0     C22957   0.678   8.525   0.412 -0.8112  0.0732 -1.4038
  932MOL0     C22958   0.550   8.488   0.436  0.4758  0.3374  0.4667
  932MOL0     H22959   0.083   8.599   0.771 -2.0601 -0.2290 -1.4786
  932MOL0     H22960  -0.141   8.508   0.811 -1.3256 -1.4130  1.8532
  932MOL0     H22961  -0.267   8.276   0.634 -1.9786  0.9939 -0.9283
  932MOL0     H22962  -0.345   8.366   0.759 -2.4848 -1.1432 -1.0293
  932MOL0     H22963  -0.345   8.071   0.726  1.2250  0.4200  0.3646
  932MOL0     H22964  -0.483   8.172   0.661 -0.7570 -0.5184  0.7899
  932MOL0     H22965  -0.560   8.218   0.871 -1.6307 -1.8067  0.4287
  932MOL0     H22966  -0.411   8.161   0.960 -1.5282 -1.9651  1.4853
  932MOL0     H22967  -0.616   8.015   0.991 -1.2258  1.8828 -1.0931
  932MOL0     H22968  -0.603   7.990   0.817  0.8955 -0.9887  0.1072
  932MOL0     H22969  -0.408   7.894   1.035  0.2866  1.3232 -0.4038
  932MOL0     H22970  -0.373   7.878   0.861  1.3968 -1.0153  1.6054
  932MOL0     H22971  -0.606   7.761   0.864  0.7608  0.6462  0.2968
  932MOL0     H22972  -0.607   7.770   1.038  2.4492  0.5667  2.3861
  932MOL0     H22973  -0.421   7.617   0.857 -0.5469  1.7926 -0.7815
  932MOL0     H22974  -0.386   7.640   1.024 -0.4126  2.0843  0.2892
  932MOL0     H22975  -0.600   7.540   1.092 -1.5281  1.9956 -1.6723
  932MOL0     H22976  -0.474   7.429   1.012  2.4043  1.8072  0.4210
  932MOL0     H22977  -0.813   7.626   0.888 -1.4413 -0.6278  0.0619
  932MOL0     H22978  -0.938   7.460   0.621  4.1590 -0.6297  0.8605
  932MOL0     H22979  -1.023   7.544   0.758 -0.4487  0.1256 -0.1957
  932MOL0     H22980  -1.061   7.281   0.834 -0.1074  1.5395  0.9404
  932MOL0     H22981  -1.030   7.263   0.664  2.0218 -0.5159  1.8402
  932MOL0     H22982  -1.226   7.454   0.784  2.5187  0.2070  1.6221
  932MOL0     H22983  -1.222   7.412   0.612 -1.5019  1.6210  0.8807
  932MOL0     H22984  -1.323   7.232   0.843 -0.5460 -0.2290 -0.3444
  932MOL0     H22985  -1.316   7.166   0.680 -0.2216  0.9458 -1.4229
  932MOL0     H22986  -1.638   7.465   0.672 -0.4769 -0.2765 -1.0383
  932MOL0     H22987  -1.870   7.397   0.683  0.8127  0.3604 -2.0164
  932MOL0     H22988  -2.237   7.421   0.858 -0.5662  0.8642 -0.1557
  932MOL0     H22989  -2.479   7.380   0.868 -0.5345 -1.9395  2.4191
  932MOL0     H22990  -2.685   7.381   0.816  1.8794 -1.0068 -1.0353
  932MOL0     H22991  -2.685   7.251   0.943 -1.9754 -1.4261  0.8234
  932MOL0     H22992  -2.875   7.139   0.813  1.2390 -0.1714  0.0678
  932MOL0     H22993  -2.859   7.245   0.692  1.9257 -1.4217 -0.1389
  932MOL0     H22994  -2.914   7.441   0.879 -0.4999 -0.0481 -2.0072
  932MOL0     H22995  -2.950   7.298   0.969  2.4381 -0.6723  0.1127
  932MOL0     H22996  -3.062   7.401   0.713  1.3594  0.2519  0.5022
  932MOL0     H22997  -3.102   7.232   0.767  3.4034 -1.1455  1.0667
  932MOL0     H22998  -3.183   7.498   0.893  1.3617  0.0231  3.0582
  932MOL0     H22999  -3.194   7.350   0.978 -1.2114  1.1417  0.1647
  932MOL0     H23000  -3.332   7.407   0.710  2.2884  2.0859  0.8613
  932MOL0     H23001  -3.405   7.401   0.877  1.0251  2.3699  0.3677
  932MOL0     H23002  -3.296   7.164   0.713 -0.5344 -0.8791  0.2526
  932MOL0     H23003  -3.349   7.155   0.884  0.4107 -1.5897 -2.4274
  932MOL0     H23004  -3.572   7.211   0.817 -1.5213 -1.0850 -1.4228
  932MOL0     H23005  -3.522   7.076   0.721 -1.9019  0.4810  1.2359
  932MOL0     H23006  -2.437   7.040   0.598  0.7400 -0.5913 -0.1151
  932MOL0     H23007  -2.206   7.078   0.595  3.4656  2.5206  0.1547
  932MOL0     H23008  -1.756   7.002   0.804 -3.1006  0.0679 -2.7448
  932MOL0     H23009  -1.512   7.072   0.792  1.2987 -0.1167 -2.6759
  932MOL0     H23010   0.013   8.116   0.757 -0.1715  0.8882 -0.1415
  932MOL0     H23011   0.254   8.218   0.722  0.9868  1.7434 -1.1685
  932MOL0     H23012   0.513   8.580   0.760  1.2511 -1.4194  0.3650
  932MOL0     H23013   0.716   8.683   0.716 -1.2685 -0.8415  1.8115
  932MOL0     H23014   0.925   8.679   0.680 -0.8288  0.4316 -0.4167
  932MOL0     H23015   0.895   8.809   0.565  1.2093  0.8168 -0.8647
  932MOL0     H23016   1.133   8.782   0.639 -0.4033 -1.7456  1.1740
  932MOL0     H23017   1.136   8.632   0.550 -0.5187  0.2206  0.4446
  932MOL0     H23018   1.021   8.848   0.375  0.7904  3.9018  1.8980
  932MOL0     H23019   1.145   8.709   0.355  0.5162  1.1718  0.4812
  932MOL0     H23020   1.315   8.863   0.405 -0.0148  0.5085  2.8640
  932MOL0     H23021   1.208   8.967   0.310  3.2628  4.3125  2.1644
  932MOL0     H23022   1.252   9.165   0.655 -0.1152  1.1687 -1.1923
  932MOL0     H23023   0.729   8.490   0.323  0.7741 -3.1154  0.5756
  932MOL0     H23024   0.500   8.427   0.362  0.6311  0.4050  0.3034
  933MOL0     O23025   4.306   2.137   5.631  0.2207  0.1366  0.1877
  933MOL0     C23026   4.408   2.073   5.607 -0.6161  0.5528 -0.0181
  933MOL0     O23027   4.407   1.944   5.559 -0.8870 -0.1042 -0.3398
  933MOL0     C23028   4.289   1.897   5.508 -0.3374 -0.5212  0.0604
  933MOL0     C23029   4.204   1.822   5.587  0.0551 -0.2910 -0.1339
  933MOL0     C23030   4.087   1.764   5.532 -0.7974 -0.4315 -0.2437
  933MOL0     C23031   4.055   1.781   5.398  0.6265  0.1495 -0.2899
  933MOL0     O23032   3.956   1.714   5.329 -0.1061 -0.0446 -0.9220
  933MOL0     C23033   3.830   1.705   5.398  0.3974 -0.0617 -0.3511
  933MOL0     C23034   3.733   1.635   5.305 -0.2112 -0.5450  0.8502
  933MOL0     C23035   3.595   1.616   5.360 -0.2013  0.4456  0.5338
  933MOL0     C23036   3.514   1.535   5.253  0.2758  0.1136  0.7397
  933MOL0     C23037   3.379   1.489   5.311  0.5254  0.6512 -0.2638
  933MOL0     C23038   3.287   1.431   5.203 -0.1727 -0.1439 -0.5191
  933MOL0     C23039   3.143   1.409   5.258  0.2914 -1.0042  0.2863
  933MOL0     C23040   3.047   1.537   5.273 -1.0182 -0.0976 -0.1422
  933MOL0     N23041   2.902   1.502   5.277  0.6061 -0.6285  0.0599
  933MOL0     C23042   2.837   1.402   5.344  0.3259 -0.4664 -0.3892
  933MOL0     C23043   2.716   1.411   5.292  0.7205 -0.0905 -0.5723
  933MOL0     C23044   2.602   1.314   5.325  1.0688  0.6413  0.1219
  933MOL0     C23045   2.553   1.322   5.470 -0.0617  0.8769 -0.3703
  933MOL0     C23046   2.488   1.451   5.504 -0.3317 -1.5297 -0.0006
  933MOL0     C23047   2.348   1.457   5.465 -0.0012  0.3325  0.4304
  933MOL0     O23048   2.276   1.364   5.544  0.5454  0.1178 -0.9106
  933MOL0     C23049   2.138   1.375   5.548 -0.7894  0.0521  1.5527
  933MOL0     C23050   2.059   1.461   5.469  0.3248  0.5760 -0.7160
  933MOL0     C23051   1.918   1.452   5.477 -0.3029  0.5991  0.9331
  933MOL0     C23052   1.850   1.351   5.554  0.1235 -0.5892 -0.1499
  933MOL0     C23053   1.707   1.328   5.555  0.4281 -0.0250  0.1995
  933MOL0     O23054   1.658   1.216   5.622 -0.5704  0.4074 -0.6345
  933MOL0     C23055   1.527   1.179   5.601  0.0343  0.6091  0.2225
  933MOL0     C23056   1.420   1.260   5.628 -0.1618  0.6010 -0.3893
  933MOL0     C23057   1.285   1.214   5.614 -0.6360 -0.2640  0.3410
  933MOL0     C23058   1.256   1.087   5.566 -0.3728 -0.3597  0.0011
  933MOL0     O23059   1.123   1.039   5.555  0.2852 -0.2260  1.1265
  933MOL0     C23060   1.104   0.921   5.479 -0.2538 -0.3776  0.5764
  933MOL0     C23061   0.960   0.887   5.480  0.6513  0.7205 -0.1925
  933MOL0     C23062   0.921   0.785   5.382  0.7057  0.1207  0.2079
  933MOL0     C23063   0.772   0.744   5.393 -0.9590 -0.5097 -0.5768
  933MOL0     C23064   0.733   0.638   5.291  0.3864 -0.7818  0.4487
  933MOL0     C23065   0.590   0.603   5.322 -0.0650  0.5374  0.4939
  933MOL0     C23066   0.531   0.486   5.237  0.2739  0.1683  0.1367
  933MOL0     C23067   0.379   0.501   5.227  0.4899 -0.2913 -0.3075
  933MOL0    Cl23068   0.309   0.488   5.392  0.0908 -0.3020  0.2504
  933MOL0     C23069   1.367   1.003   5.535 -0.1945 -0.6385 -0.5341
  933MOL0     C23070   1.498   1.048   5.545 -0.1386  0.0114 -0.5620
  933MOL0     O23071   1.641   1.398   5.476  0.0435 -0.3318  0.0247
  933MOL0     C23072   1.926   1.271   5.640  0.2401  0.5060  0.0790
  933MOL0     C23073   2.068   1.286   5.632 -0.3729 -0.1409  0.5833
  933MOL0     N23074   2.699   1.513   5.206 -1.0179  0.3813  0.5553
  933MOL0     N23075   2.812   1.575   5.201  0.6301 -1.1384  0.0690
  933MOL0     C23076   4.142   1.853   5.316  0.0228 -0.2816  0.0784
  933MOL0     C23077   4.259   1.902   5.373  0.4974  0.4249  0.3326
  933MOL0     C23078   4.540   2.144   5.614  0.0734  0.5893 -0.5923
  933MOL0     C23079   4.546   2.278   5.645  0.0481 -0.2175 -0.2923
  933MOL0     C23080   4.671   2.343   5.664  0.1696 -0.3468  0.4883
  933MOL0     C23081   4.794   2.266   5.656 -0.5539 -0.3203 -0.2355
  933MOL0     O23082   4.918   2.319   5.680  0.3740  0.2247  0.0998
  933MOL0     C23083   4.927   2.435   5.757  1.5476 -0.3352  0.3720
  933MOL0     C23084   5.063   2.493   5.725  0.3082  1.1847  0.1368
  933MOL0     C23085   5.073   2.633   5.774 -0.4426  0.3422 -0.9789
  933MOL0     C23086   5.087   2.635   5.920  0.0240 -1.2589 -0.8429
  933MOL0     C23087   5.034   2.748   5.996 -0.3754  0.2130 -0.3123
  933MOL0     C23088   4.992   2.839   6.076 -0.0252  1.2304  0.5445
  933MOL0     C23089   4.790   2.132   5.626  0.2287  0.2385  0.2500
  933MOL0     C23090   4.666   2.075   5.603 -0.2290 -0.1256 -0.1997
  933MOL0     H23091   4.234   1.796   5.688 -0.2699  1.5452  0.4790
  933MOL0     H23092   4.029   1.703   5.601 -2.0134  1.9231  0.9249
  933MOL0     H23093   3.806   1.804   5.436  5.7573  1.7498 -0.8462
  933MOL0     H23094   3.834   1.644   5.488 -1.0044 -0.3909 -0.4793
  933MOL0     H23095   3.777   1.546   5.260 -2.0933 -0.5784 -1.0584
  933MOL0     H23096   3.734   1.708   5.224  2.4167  0.1122  1.3956
  933MOL0     H23097   3.539   1.707   5.383  2.0784  2.3806 -1.1157
  933MOL0     H23098   3.607   1.558   5.452  0.2580 -0.0591  0.1615
  933MOL0     H23099   3.494   1.598   5.165  2.4448 -0.3640 -0.1502
  933MOL0     H23100   3.565   1.453   5.202 -0.0420  0.6685 -0.5050
  933MOL0     H23101   3.334   1.574   5.363 -0.7378  1.2995 -2.3058
  933MOL0     H23102   3.381   1.409   5.386 -0.1482  1.8872  1.1120
  933MOL0     H23103   3.312   1.333   5.162 -1.4055 -1.3328  1.4445
  933MOL0     H23104   3.285   1.505   5.122 -2.3265  0.1072 -0.2799
  933MOL0     H23105   3.089   1.355   5.180  1.2848  3.4385 -3.9748
  933MOL0     H23106   3.145   1.350   5.350  0.7582 -2.5575 -0.6960
  933MOL0     H23107   3.050   1.615   5.196 -3.0218  1.0979  0.9253
  933MOL0     H23108   3.071   1.600   5.359 -3.7420  0.4253  0.3073
  933MOL0     H23109   2.890   1.330   5.406  0.6304  0.1348  0.0596
  933MOL0     H23110   2.642   1.213   5.309 -0.8454  0.1927 -2.6144
  933MOL0     H23111   2.514   1.314   5.261 -1.1383 -1.1388  2.9257
  933MOL0     H23112   2.637   1.315   5.539  0.2218 -0.8859 -0.8508
  933MOL0     H23113   2.486   1.237   5.488  0.9553 -0.3848 -2.2025
  933MOL0     H23114   2.501   1.479   5.610  0.1632 -0.5734 -0.2964
  933MOL0     H23115   2.544   1.532   5.456  0.1014 -1.3863  0.7153
  933MOL0     H23116   2.325   1.438   5.360 -0.0906 -0.9194  0.6608
  933MOL0     H23117   2.317   1.562   5.472  3.6989  1.4958  1.0770
  933MOL0     H23118   2.104   1.538   5.406  0.4555 -0.1549 -1.5234
  933MOL0     H23119   1.869   1.518   5.407 -0.6556 -0.7936 -0.1688
  933MOL0     H23120   1.442   1.357   5.670  0.6433  0.5382 -0.6600
  933MOL0     H23121   1.194   1.273   5.624  0.0933  0.8443  0.6326
  933MOL0     H23122   1.158   0.838   5.526  0.0247  0.6911  2.2348
  933MOL0     H23123   1.142   0.937   5.377 -0.6359 -0.6782  0.3833
  933MOL0     H23124   0.900   0.979   5.473 -0.2399  0.0147 -3.3920
  933MOL0     H23125   0.938   0.845   5.578 -0.2506  1.5447 -0.0284
  933MOL0     H23126   0.978   0.698   5.416  2.1061  1.0170  0.2430
  933MOL0     H23127   0.951   0.821   5.283  0.3145  0.4024  0.1921
  933MOL0     H23128   0.756   0.708   5.495  2.5588  1.4609  0.8639
  933MOL0     H23129   0.711   0.829   5.363 -2.0781 -1.6164 -1.5346
  933MOL0     H23130   0.800   0.553   5.306  1.0131 -0.6762 -1.3787
  933MOL0     H23131   0.743   0.687   5.193  2.1360  0.6170  1.2670
  933MOL0     H23132   0.527   0.692   5.311 -0.8925 -0.1006  0.0686
  933MOL0     H23133   0.586   0.569   5.426 -0.4036  0.4244  0.4439
  933MOL0     H23134   0.579   0.480   5.139 -2.0146  1.1754 -1.1451
  933MOL0     H23135   0.558   0.392   5.285 -1.1233 -1.0015 -1.2389
  933MOL0     H23136   0.340   0.415   5.172  0.3714 -0.9327  0.7458
  933MOL0     H23137   0.347   0.597   5.186  2.0396  0.3667 -0.0446
  933MOL0     H23138   1.340   0.906   5.495 -3.0588  1.4828 -4.4400
  933MOL0     H23139   1.576   0.977   5.519  0.1928  1.0152 -2.5012
  933MOL0     H23140   1.895   1.193   5.709  0.1903 -1.8255 -2.4402
  933MOL0     H23141   2.132   1.218   5.687 -0.3892 -0.6210  0.0100
  933MOL0     H23142   4.116   1.851   5.210  0.7113  3.4607 -0.2742
  933MOL0     H23143   4.318   1.966   5.308 -2.6081 -0.6237 -3.9312
  933MOL0     H23144   4.461   2.344   5.650  0.5748  0.4428  0.0628
  933MOL0     H23145   4.667   2.451   5.673  2.7685 -0.1642  0.0728
  933MOL0     H23146   4.916   2.407   5.862 -0.3946 -0.2175  0.2377
  933MOL0     H23147   4.843   2.504   5.741  0.2775 -2.3724 -2.6953
  933MOL0     H23148   5.141   2.425   5.759 -0.8760 -0.3977 -0.1701
  933MOL0     H23149   5.078   2.487   5.617  1.0615 -1.9538  0.3109
  933MOL0     H23150   4.987   2.693   5.743 -2.3016  0.5431  3.7344
  933MOL0     H23151   5.161   2.682   5.732  1.4209  0.6316  2.7975
  933MOL0     H23152   5.029   2.553   5.962 -0.0328 -0.5610  0.4669
  933MOL0     H23153   5.190   2.634   5.956  0.0137  0.3811 -0.6849
  933MOL0     H23154   4.944   2.925   6.121  1.1736  2.8737 -1.1663
  933MOL0     H23155   4.870   2.058   5.628 -1.1277 -1.3575  3.7313
  933MOL0     H23156   4.655   1.967   5.598 -1.0320 -0.0052 -1.7684
  934MOL0     O23157   9.941   1.659   8.024  0.9698 -0.3847 -0.2767
  934MOL0     C23158  10.042   1.619   8.069  0.2353  0.4550  0.1076
  934MOL0     O23159  10.057   1.520   8.162 -0.6416 -0.5928  0.3448
  934MOL0     C23160   9.960   1.484   8.251  0.3473  0.5210 -0.2353
  934MOL0     C23161   9.852   1.566   8.298  0.4673 -0.5977 -0.5524
  934MOL0     C23162   9.760   1.508   8.388 -0.0881 -0.6648 -0.4371
  934MOL0     C23163   9.787   1.387   8.454 -0.0299 -0.1653 -0.7592
  934MOL0     O23164   9.711   1.318   8.542 -0.2430 -0.4600  0.0511
  934MOL0     C23165   9.695   1.385   8.666  0.2623  0.3999  0.0068
  934MOL0     C23166   9.594   1.332   8.768 -0.4865  0.2121  0.2808
  934MOL0     C23167   9.539   1.434   8.864  0.9353  0.4179  0.9698
  934MOL0     C23168   9.393   1.402   8.913 -0.1228  0.0670 -0.3356
  934MOL0     C23169   9.371   1.446   9.058  0.6449  0.6160 -0.0036
  934MOL0     C23170   9.227   1.421   9.110  0.2729  0.4843 -0.1671
  934MOL0     C23171   9.208   1.493   9.241  0.5140  0.8912  0.6036
  934MOL0     C23172   9.079   1.440   9.309  0.7476  0.3951  0.4341
  934MOL0     N23173   9.041   1.510   9.429  0.5787  0.5509  0.0239
  934MOL0     C23174   9.007   1.642   9.427 -0.1975 -0.1651 -0.4083
  934MOL0     C23175   8.960   1.665   9.553 -0.1405  0.5353  0.2772
  934MOL0     C23176   8.902   1.794   9.601 -0.0630 -0.0872  0.4000
  934MOL0     C23177   8.765   1.812   9.535 -0.0878  0.5883  0.1460
  934MOL0     C23178   8.677   1.926   9.600  0.0125  0.1272  0.6059
  934MOL0     C23179   8.582   1.997   9.502  0.1612 -0.6910 -0.8470
  934MOL0     O23180   8.481   1.915   9.443 -0.0640 -0.1255 -0.0080
  934MOL0     C23181   8.350   1.930   9.473  1.1153  0.1931  0.5288
  934MOL0     C23182   8.251   1.907   9.377 -0.5865  0.4849 -0.4000
  934MOL0     C23183   8.114   1.909   9.405  0.3129 -0.3838  0.5954
  934MOL0     C23184   8.069   1.944   9.529 -0.4840 -0.0625 -0.4009
  934MOL0     C23185   7.923   1.936   9.557 -0.0795  0.1945  0.6211
  934MOL0     O23186   7.885   1.950   9.686  0.0729 -0.4452  0.0312
  934MOL0     C23187   7.747   1.953   9.705  1.0205 -0.0408  0.2723
  934MOL0     C23188   7.674   1.837   9.730 -0.1374  0.4167  0.4322
  934MOL0     C23189   7.540   1.839   9.753  0.6342  0.4653  0.5049
  934MOL0     C23190   7.475   1.967   9.756 -0.2354 -0.2086 -1.2000
  934MOL0     O23191   7.337   1.958   9.787  0.2834 -0.1773 -0.1859
  934MOL0     C23192   7.246   1.968   9.678 -0.9083 -0.6513 -0.7097
  934MOL0     C23193   7.196   2.106   9.676  0.8300  0.2163  0.2571
  934MOL0     C23194   7.063   2.110   9.755 -0.4532  0.0144  0.0612
  934MOL0     C23195   7.004   2.255   9.766  0.8326  0.1289 -0.2018
  934MOL0     C23196   6.861   2.251   9.833  0.0362  0.1416  0.1788
  934MOL0     C23197   6.756   2.199   9.728 -0.3891 -0.0930 -0.2792
  934MOL0     C23198   6.618   2.209   9.790 -0.2734  0.0651  0.6269
  934MOL0     C23199   6.511   2.170   9.681  0.3873 -0.0778  0.4355
  934MOL0    Cl23200   6.376   2.091   9.766 -0.1445 -0.0453 -0.2628
  934MOL0     C23201   7.543   2.086   9.727  0.0589  0.4964 -0.5372
  934MOL0     C23202   7.675   2.077   9.700 -0.2573  0.3591  0.2361
  934MOL0     O23203   7.847   1.939   9.460  0.8812 -0.3837 -0.2809
  934MOL0     C23204   8.165   1.966   9.632  0.4485 -0.6984 -0.3406
  934MOL0     C23205   8.303   1.965   9.597 -0.7828 -0.3231 -0.1801
  934MOL0     N23206   8.963   1.542   9.621 -0.3031  0.7669 -0.4606
  934MOL0     N23207   9.019   1.448   9.544  0.1981  0.2063 -0.1763
  934MOL0     C23208   9.896   1.318   8.415 -0.7678 -0.0508  0.2583
  934MOL0     C23209   9.974   1.356   8.305 -0.4060  0.5961  0.5220
  934MOL0     C23210  10.166   1.673   8.001  0.1784 -0.1725 -0.2295
  934MOL0     C23211  10.152   1.765   7.895 -0.9383  0.1976  0.1381
  934MOL0     C23212  10.268   1.813   7.835 -0.4212 -0.5340 -0.0342
  934MOL0     C23213  10.394   1.779   7.873 -0.3629  0.2283 -0.5746
  934MOL0     O23214  10.505   1.846   7.820 -0.7662 -0.4345 -0.0162
  934MOL0     C23215  10.631   1.798   7.848 -0.9339 -0.1105 -0.8565
  934MOL0     C23216  10.718   1.912   7.786  0.3543  0.1229 -0.0148
  934MOL0     C23217  10.862   1.908   7.832 -0.5448 -0.9819  0.8393
  934MOL0     C23218  10.953   1.983   7.733  0.1778 -0.8021 -0.6319
  934MOL0     C23219  11.090   1.963   7.778  0.2494 -0.0066 -0.6062
  934MOL0     C23220  11.203   1.932   7.810  0.1260  0.2579 -0.8811
  934MOL0     C23221  10.404   1.677   7.970 -0.4633  0.0887 -0.1636
  934MOL0     C23222  10.296   1.630   8.039  0.6361 -0.5095 -0.3624
  934MOL0     H23223   9.839   1.664   8.252 -0.9927  0.4201  1.8522
  934MOL0     H23224   9.675   1.559   8.432 -0.5226 -1.5554 -0.2101
  934MOL0     H23225   9.662   1.483   8.632  1.6929  0.4457 -1.4072
  934MOL0     H23226   9.791   1.396   8.719  0.6710  1.8654 -0.9897
  934MOL0     H23227   9.637   1.253   8.830 -1.7505  0.4182  1.4724
  934MOL0     H23228   9.513   1.274   8.722  1.8462 -1.3800 -2.1073
  934MOL0     H23229   9.543   1.534   8.820 -1.8595  0.4707  0.6707
  934MOL0     H23230   9.597   1.438   8.957  1.7922 -0.5873  0.5000
  934MOL0     H23231   9.311   1.438   8.850  0.6949 -1.6515 -2.5224
  934MOL0     H23232   9.373   1.294   8.908 -0.0935 -0.0905  1.8258
  934MOL0     H23233   9.398   1.552   9.064  0.9429  0.4416  2.7078
  934MOL0     H23234   9.443   1.398   9.125  1.9173 -1.6756 -2.7835
  934MOL0     H23235   9.213   1.314   9.130 -1.6685 -0.0586 -3.6153
  934MOL0     H23236   9.156   1.458   9.036  1.9072 -0.1556 -2.1593
  934MOL0     H23237   9.288   1.475   9.313 -0.7387 -1.5373  1.5081
  934MOL0     H23238   9.197   1.602   9.231 -1.4509  0.7469  0.7933
  934MOL0     H23239   9.097   1.337   9.339 -0.3717  0.8226  2.7932
  934MOL0     H23240   9.006   1.451   9.229  0.7340  0.6050  0.4759
  934MOL0     H23241   9.026   1.724   9.359  0.0412  1.6631  1.7290
  934MOL0     H23242   8.973   1.873   9.575  0.3255 -1.3678 -2.8979
  934MOL0     H23243   8.895   1.790   9.710 -0.9908  1.0581  0.4013
  934MOL0     H23244   8.716   1.718   9.508  0.8182 -0.4373  1.9602
  934MOL0     H23245   8.794   1.851   9.437  1.7965  0.2706  0.5387
  934MOL0     H23246   8.608   1.893   9.678 -0.2623 -0.4656  0.1236
  934MOL0     H23247   8.750   1.999   9.636  1.2653 -0.9764  0.3952
  934MOL0     H23248   8.645   2.043   9.424 -0.2185  1.2433 -0.0740
  934MOL0     H23249   8.543   2.084   9.555  2.0878 -0.8974  1.0581
  934MOL0     H23250   8.290   1.880   9.280  1.5452 -0.9806  0.7850
  934MOL0     H23251   8.052   1.887   9.318  0.8651 -1.9388  0.5708
  934MOL0     H23252   7.725   1.742   9.740 -1.0089 -0.0549  0.5064
  934MOL0     H23253   7.489   1.743   9.758 -0.8323  1.2405  0.9534
  934MOL0     H23254   7.176   1.886   9.694  1.6554 -2.4543  2.8012
  934MOL0     H23255   7.307   1.946   9.590  1.1812 -1.8767  0.9487
  934MOL0     H23256   7.171   2.127   9.571 -0.4695 -3.6240 -0.3815
  934MOL0     H23257   7.263   2.181   9.719 -1.6245  3.0480 -0.5264
  934MOL0     H23258   7.068   2.053   9.848 -1.0465 -1.3311 -0.7112
  934MOL0     H23259   6.993   2.047   9.699 -1.3731 -0.2182  1.4258
  934MOL0     H23260   7.063   2.328   9.821 -2.9256  5.7961 -2.6639
  934MOL0     H23261   6.987   2.300   9.667  1.6808 -0.7962 -0.7879
  934MOL0     H23262   6.847   2.358   9.853  0.4334  0.1875  0.2212
  934MOL0     H23263   6.852   2.201   9.929 -0.9290  0.8275  0.4665
  934MOL0     H23264   6.789   2.095   9.716  4.4308  0.7153  3.0397
  934MOL0     H23265   6.767   2.253   9.634 -2.1794  2.2276  0.7423
  934MOL0     H23266   6.613   2.150   9.881 -0.7204 -1.0464 -0.1000
  934MOL0     H23267   6.601   2.315   9.813  2.1971  0.2616  1.8925
  934MOL0     H23268   6.550   2.106   9.602  2.5400  2.0372 -0.3111
  934MOL0     H23269   6.474   2.252   9.619 -1.0220 -2.0762 -1.5684
  934MOL0     H23270   7.480   2.174   9.727  0.3633  0.7359  0.9103
  934MOL0     H23271   7.738   2.162   9.677  0.1134  0.0468  0.0945
  934MOL0     H23272   8.133   1.982   9.735  1.8532 -0.4897  0.0980
  934MOL0     H23273   8.375   1.985   9.675 -0.1386  1.0821 -1.0853
  934MOL0     H23274   9.899   1.216   8.452  0.1520  0.0531  0.5112
  934MOL0     H23275  10.057   1.297   8.270 -0.4584  0.5084  0.5447
  934MOL0     H23276  10.065   1.813   7.852 -1.4740 -0.3690  0.5746
  934MOL0     H23277  10.262   1.883   7.753  0.1639 -1.2050 -0.6646
  934MOL0     H23278  10.659   1.699   7.811 -1.8718 -1.2717  1.3431
  934MOL0     H23279  10.644   1.800   7.956  2.3702  1.7320 -1.1643
  934MOL0     H23280  10.709   1.894   7.679  0.6318  1.8688 -0.3680
  934MOL0     H23281  10.683   2.014   7.806  4.3072  1.7899 -0.6935
  934MOL0     H23282  10.888   1.803   7.848 -3.3655 -1.8735  0.1371
  934MOL0     H23283  10.873   1.949   7.933  0.2703 -3.5733  1.8831
  934MOL0     H23284  10.940   1.936   7.636 -1.2550  1.2922 -1.5399
  934MOL0     H23285  10.931   2.090   7.724  1.0814 -0.4356  0.9767
  934MOL0     H23286  11.307   1.918   7.831 -0.1588  1.0718  1.2999
  934MOL0     H23287  10.503   1.652   8.006  0.3096  2.7249 -0.2783
  934MOL0     H23288  10.313   1.568   8.126  2.5954  0.2077 -0.1843
  935MOL0     O23289   2.320   1.636   2.049  0.4469 -0.1739 -0.4638
  935MOL0     C23290   2.357   1.526   2.089  0.2785  0.2398 -0.2256
  935MOL0     O23291   2.294   1.452   2.193  0.2882 -0.8693  0.1557
  935MOL0     C23292   2.160   1.455   2.198 -1.0970 -0.1226 -0.1023
  935MOL0     C23293   2.102   1.442   2.323  0.0714  0.3924  0.2799
  935MOL0     C23294   1.966   1.441   2.331  0.3164 -0.8396 -0.0586
  935MOL0     C23295   1.886   1.464   2.226 -0.2895 -0.6327 -0.1507
  935MOL0     O23296   1.749   1.468   2.251 -0.0558  0.5621  0.0831
  935MOL0     C23297   1.655   1.503   2.150 -0.3041  0.5009 -0.2870
  935MOL0     C23298   1.518   1.530   2.204 -1.1263  1.2599 -0.4856
  935MOL0     C23299   1.429   1.601   2.109  0.4774 -0.7473 -0.0172
  935MOL0     C23300   1.337   1.684   2.204  0.9309 -0.1524  0.2086
  935MOL0     C23301   1.216   1.755   2.140 -0.5063 -0.6172 -1.2978
  935MOL0     C23302   1.135   1.664   2.044  0.2240  0.2060  0.4112
  935MOL0     C23303   1.008   1.744   1.996 -0.8540  0.1326  0.8106
  935MOL0     C23304   0.897   1.750   2.108 -0.0570 -0.1090 -0.0144
  935MOL0     N23305   0.852   1.887   2.147  0.5915 -0.0272  0.0372
  935MOL0     C23306   0.786   1.963   2.053  0.2206 -0.7891 -0.2542
  935MOL0     C23307   0.730   2.068   2.125  0.2047 -0.3402 -0.0937
  935MOL0     C23308   0.645   2.183   2.081  0.0309  1.1694  0.1904
  935MOL0     C23309   0.528   2.144   1.984  0.3487 -0.4110  0.5322
  935MOL0     C23310   0.416   2.249   1.998 -0.2414 -0.7656 -0.2750
  935MOL0     C23311   0.306   2.204   1.905 -0.0176  0.0660  0.4269
  935MOL0     O23312   0.195   2.293   1.931 -0.1180  0.8271  0.1695
  935MOL0     C23313   0.071   2.256   1.890 -0.0952  0.1747  0.3782
  935MOL0     C23314   0.033   2.142   1.817  1.1536  1.4760 -0.5211
  935MOL0     C23315  -0.098   2.117   1.776  0.2485  0.8286 -0.8263
  935MOL0     C23316  -0.206   2.206   1.820 -0.7051 -0.5118 -0.1900
  935MOL0     C23317  -0.345   2.184   1.778  0.6440 -0.1358 -0.2028
  935MOL0     O23318  -0.374   2.079   1.696 -0.0807 -0.3346 -0.3316
  935MOL0     C23319  -0.498   2.063   1.657  0.0317  0.1496  1.2445
  935MOL0     C23320  -0.570   2.146   1.579 -0.9589 -0.2612 -0.1052
  935MOL0     C23321  -0.707   2.124   1.552 -0.5741 -0.6093 -0.2323
  935MOL0     C23322  -0.769   2.005   1.598  0.0739 -0.3107  0.3279
  935MOL0     O23323  -0.899   1.983   1.560  0.4136 -0.3488 -0.3080
  935MOL0     C23324  -0.934   1.853   1.516  0.4831 -0.1635 -0.2372
  935MOL0     C23325  -1.059   1.859   1.433 -0.6485  0.0597 -0.0363
  935MOL0     C23326  -1.095   1.724   1.379  0.3109  0.0137 -0.3624
  935MOL0     C23327  -1.219   1.740   1.288 -0.3504 -0.1697  0.1745
  935MOL0     C23328  -1.347   1.726   1.370  0.9501 -1.0600  0.3974
  935MOL0     C23329  -1.475   1.742   1.290  0.2887 -0.5036 -0.0761
  935MOL0     C23330  -1.594   1.768   1.383 -0.4371 -0.1318  0.1884
  935MOL0     C23331  -1.727   1.778   1.313 -0.0588 -0.5421 -0.3616
  935MOL0    Cl23332  -1.866   1.701   1.395  0.3240  0.2815 -0.1933
  935MOL0     C23333  -0.691   1.912   1.666 -0.4932 -0.4458 -0.7243
  935MOL0     C23334  -0.558   1.943   1.690  1.3778  0.1210 -0.0526
  935MOL0     O23335  -0.429   2.251   1.846 -0.0786  0.7512  0.1384
  935MOL0     C23336  -0.166   2.319   1.900 -0.6114  0.1805  0.8896
  935MOL0     C23337  -0.028   2.340   1.933  0.0364 -0.0230  1.3004
  935MOL0     N23338   0.752   2.039   2.260  0.7360 -0.5561 -0.3914
  935MOL0     N23339   0.821   1.928   2.276  0.3589 -0.4420  0.3444
  935MOL0     C23340   1.942   1.474   2.099  0.7313 -0.2679 -0.5719
  935MOL0     C23341   2.083   1.469   2.080  0.9522 -0.0153 -0.0573
  935MOL0     C23342   2.480   1.470   2.042 -1.3932  0.3832  0.3979
  935MOL0     C23343   2.544   1.362   2.103  0.7947 -0.3422 -0.4420
  935MOL0     C23344   2.676   1.327   2.076  0.3139 -0.4237  0.0883
  935MOL0     C23345   2.746   1.400   1.984  0.0031  0.7381 -0.2721
  935MOL0     O23346   2.879   1.381   1.964  0.2643  0.5517 -0.4262
  935MOL0     C23347   2.917   1.236   1.945 -0.3171  0.2773  0.3069
  935MOL0     C23348   3.037   1.223   1.852 -0.6558 -0.5615 -0.4242
  935MOL0     C23349   3.064   1.066   1.844 -1.1576  0.0515  0.3058
  935MOL0     C23350   3.157   1.016   1.732 -0.0682 -0.1582 -0.0710
  935MOL0     C23351   3.297   1.063   1.732 -0.2084  0.0914 -1.3509
  935MOL0     C23352   3.408   1.102   1.747 -0.3204 -0.5745 -0.3003
  935MOL0     C23353   2.688   1.512   1.923  0.1928  0.6803 -0.0438
  935MOL0     C23354   2.555   1.543   1.948 -0.0912 -0.1116 -0.5784
  935MOL0     H23355   2.167   1.425   2.408  2.6515  3.4713 -0.8386
  935MOL0     H23356   1.912   1.408   2.419  0.2699 -5.6187 -1.5569
  935MOL0     H23357   1.645   1.431   2.068  0.1201 -0.5930  0.5863
  935MOL0     H23358   1.698   1.598   2.119  1.6118 -0.0266  0.6453
  935MOL0     H23359   1.537   1.595   2.290  0.1828 -0.5535  0.6721
  935MOL0     H23360   1.474   1.447   2.260  2.8085  0.7560  2.3155
  935MOL0     H23361   1.381   1.519   2.054  0.9395 -2.9983  2.6881
  935MOL0     H23362   1.485   1.674   2.050 -2.0350  0.5031 -0.9814
  935MOL0     H23363   1.296   1.627   2.288 -0.7603  0.9509  0.1782
  935MOL0     H23364   1.402   1.755   2.255  2.8826 -0.9510 -1.0450
  935MOL0     H23365   1.258   1.839   2.083  1.9413 -0.6854  0.2529
  935MOL0     H23366   1.158   1.795   2.223  2.5570  3.4879 -0.8351
  935MOL0     H23367   1.101   1.572   2.091 -0.0166  0.7594  1.3631
  935MOL0     H23368   1.197   1.638   1.958  1.0594 -0.2058  1.1303
  935MOL0     H23369   1.031   1.846   1.963 -0.7467  0.2487  1.2409
  935MOL0     H23370   0.973   1.698   1.902  1.9642 -0.1132 -0.2140
  935MOL0     H23371   0.924   1.691   2.196  0.0385 -1.7092 -1.0762
  935MOL0     H23372   0.813   1.697   2.063  0.5554  0.7563 -2.3260
  935MOL0     H23373   0.786   1.951   1.945 -0.9704  1.3322 -0.5472
  935MOL0     H23374   0.719   2.252   2.040 -0.5389  1.1524 -0.9243
  935MOL0     H23375   0.611   2.241   2.167 -0.0787 -2.3729  2.8027
  935MOL0     H23376   0.488   2.048   2.019 -2.8893 -0.4803 -2.7197
  935MOL0     H23377   0.565   2.144   1.881  0.4530 -2.0101  0.5445
  935MOL0     H23378   0.386   2.255   2.103  0.0356 -2.1727 -0.0940
  935MOL0     H23379   0.442   2.350   1.966 -1.7405  0.0538  0.9742
  935MOL0     H23380   0.274   2.100   1.916  3.7765 -1.3907 -0.9529
  935MOL0     H23381   0.347   2.206   1.804  0.3721 -4.4879  0.2601
  935MOL0     H23382   0.111   2.075   1.781 -0.5470 -1.4207  0.7711
  935MOL0     H23383  -0.124   2.027   1.722 -0.8242  1.0870 -0.7463
  935MOL0     H23384  -0.521   2.234   1.537  0.6595 -0.2402  1.6814
  935MOL0     H23385  -0.762   2.197   1.494  1.0798  0.4862 -0.4678
  935MOL0     H23386  -0.947   1.801   1.611 -0.6474  1.1408  0.3524
  935MOL0     H23387  -0.847   1.810   1.465 -0.7782 -2.8148 -0.3024
  935MOL0     H23388  -1.042   1.922   1.346 -0.1317 -0.3085 -0.2103
  935MOL0     H23389  -1.141   1.897   1.494 -0.3559 -1.2327  1.2175
  935MOL0     H23390  -1.128   1.665   1.465 -0.0999 -0.4602 -0.8348
  935MOL0     H23391  -1.007   1.680   1.329  0.1410 -0.0177 -0.6370
  935MOL0     H23392  -1.216   1.825   1.218 -0.3492 -2.0192 -2.2145
  935MOL0     H23393  -1.213   1.656   1.218  0.9588  0.6340 -0.7291
  935MOL0     H23394  -1.343   1.808   1.442  0.8522  0.0964 -0.8865
  935MOL0     H23395  -1.354   1.628   1.419  0.9892 -0.6728  1.1969
  935MOL0     H23396  -1.500   1.662   1.221  1.9585  0.6370 -2.1538
  935MOL0     H23397  -1.458   1.831   1.227  0.7371 -0.1586  0.5188
  935MOL0     H23398  -1.601   1.688   1.459 -2.4988 -0.8755 -0.7056
  935MOL0     H23399  -1.571   1.862   1.434 -0.4662 -0.0251  0.0051
  935MOL0     H23400  -1.710   1.738   1.213 -2.7495  0.6214 -1.3912
  935MOL0     H23401  -1.744   1.886   1.308  1.4465 -0.2687  0.0297
  935MOL0     H23402  -0.727   1.816   1.700  1.6549 -0.6570  1.1335
  935MOL0     H23403  -0.499   1.874   1.749  0.9017 -0.5759 -0.3853
  935MOL0     H23404  -0.242   2.379   1.949 -2.0193  0.4156 -1.4118
  935MOL0     H23405   0.003   2.413   2.006  0.3397  1.4868 -0.2665
  935MOL0     H23406   1.871   1.478   2.017 -2.3960 -0.1552  1.9827
  935MOL0     H23407   2.129   1.462   1.982  1.4991  2.0777  0.0082
  935MOL0     H23408   2.506   1.303   2.186 -0.8571  0.4992 -0.5493
  935MOL0     H23409   2.733   1.246   2.119 -0.5200 -0.7155  0.6943
  935MOL0     H23410   2.836   1.179   1.897  1.4549 -1.6240 -0.6288
  935MOL0     H23411   2.943   1.188   2.040  0.3934 -0.0344 -0.0386
  935MOL0     H23412   3.023   1.265   1.752  0.4859 -1.8995 -1.1793
  935MOL0     H23413   3.127   1.260   1.900 -2.6589  1.0601  2.3615
  935MOL0     H23414   2.962   1.029   1.845 -1.5576  1.1083  1.4851
  935MOL0     H23415   3.109   1.031   1.937  0.1277  1.1502  0.1439
  935MOL0     H23416   3.156   0.907   1.734  3.7199 -0.5902  6.1695
  935MOL0     H23417   3.119   1.056   1.638 -2.1572 -0.0223  0.7905
  935MOL0     H23418   3.511   1.131   1.759 -0.0169 -1.0794 -1.5511
  935MOL0     H23419   2.743   1.557   1.841 -0.6597  0.0312 -0.9973
  935MOL0     H23420   2.518   1.633   1.899  1.3921  0.4043 -0.8142
  936MOL0     O23421   5.733   9.348   2.042 -0.0296 -0.3305  0.0539
  936MOL0     C23422   5.641   9.268   2.062 -0.1321 -1.0136  0.9636
  936MOL0     O23423   5.636   9.140   2.010  0.2540  0.7022 -0.6320
  936MOL0     C23424   5.733   9.094   1.927  0.1494 -0.1529  0.2437
  936MOL0     C23425   5.702   9.039   1.804  0.6950 -0.6179 -0.3580
  936MOL0     C23426   5.803   8.995   1.721 -0.8089 -0.0172 -0.1012
  936MOL0     C23427   5.944   8.998   1.754 -0.6398 -0.3584  0.4512
  936MOL0     O23428   6.045   8.984   1.655  0.5579 -0.1803 -0.8421
  936MOL0     C23429   6.179   9.032   1.675  0.7754  0.5278  0.4813
  936MOL0     C23430   6.255   9.010   1.542 -0.4014  0.3072 -0.2428
  936MOL0     C23431   6.383   9.096   1.532 -0.4840  0.6242 -0.0807
  936MOL0     C23432   6.431   9.141   1.392  0.3812 -0.0336 -0.6074
  936MOL0     C23433   6.566   9.217   1.409 -0.5716  0.2843 -0.9132
  936MOL0     C23434   6.632   9.226   1.275 -0.3612 -1.1289 -0.1199
  936MOL0     C23435   6.769   9.289   1.281 -0.6861  0.4789 -0.0595
  936MOL0     C23436   6.805   9.323   1.142 -0.3942  0.2963  1.0861
  936MOL0     N23437   6.943   9.357   1.127 -0.5246  0.2170  0.2117
  936MOL0     C23438   7.001   9.453   1.200  0.9207  0.1941 -0.8170
  936MOL0     C23439   7.135   9.449   1.175 -0.8411  0.3720  0.8547
  936MOL0     C23440   7.228   9.548   1.236 -0.3568  0.1652  0.4518
  936MOL0     C23441   7.232   9.676   1.148  0.3484 -0.6616  0.3583
  936MOL0     C23442   7.331   9.667   1.025  0.0964 -0.3647  0.1156
  936MOL0     C23443   7.478   9.632   1.061  0.4008 -0.1361  0.6870
  936MOL0     O23444   7.569   9.713   0.980 -0.0402  0.8480 -0.1570
  936MOL0     C23445   7.698   9.674   0.972  0.0436  0.1852 -0.5698
  936MOL0     C23446   7.752   9.568   1.038  0.6874  1.1810  0.6101
  936MOL0     C23447   7.889   9.553   1.048  0.2050 -0.3361  0.0114
  936MOL0     C23448   7.976   9.650   0.987  0.7866  0.2441  0.8738
  936MOL0     C23449   8.121   9.638   0.990 -0.2289 -0.2365  0.7503
  936MOL0     O23450   8.210   9.740   0.948  0.4075 -0.3115  0.0929
  936MOL0     C23451   8.343   9.706   0.944  0.2568 -0.1045  0.7398
  936MOL0     C23452   8.415   9.738   1.060 -0.6605 -0.1835 -0.4024
  936MOL0     C23453   8.556   9.714   1.064 -0.5613 -0.4057  0.2919
  936MOL0     C23454   8.622   9.671   0.946  0.4017 -0.3511  0.3716
  936MOL0     O23455   8.756   9.679   0.931 -0.3280  0.2407  0.4408
  936MOL0     C23456   8.830   9.593   1.012 -0.4911  0.7569 -0.1476
  936MOL0     C23457   8.976   9.628   0.982  0.4915  0.1367  0.7527
  936MOL0     C23458   9.063   9.564   1.080  0.1296 -0.2503  0.7630
  936MOL0     C23459   9.212   9.560   1.030  0.4949  0.1127  1.2501
  936MOL0     C23460   9.271   9.443   1.106  0.3384  0.6985 -0.6813
  936MOL0     C23461   9.425   9.420   1.102 -0.3765 -0.3932  0.0235
  936MOL0     C23462   9.458   9.302   1.201  0.2712 -0.7487 -0.2950
  936MOL0     C23463   9.583   9.323   1.281  0.4627 -0.8930  0.8872
  936MOL0    Cl23464   9.600   9.178   1.391  0.2697 -0.0306 -0.0738
  936MOL0     C23465   8.550   9.639   0.832 -0.1021  0.3015  0.9176
  936MOL0     C23466   8.404   9.657   0.828  0.5885 -0.1178  0.9020
  936MOL0     O23467   8.152   9.525   1.013 -0.4508  0.1142 -0.7252
  936MOL0     C23468   7.916   9.765   0.922  0.6854 -0.1192  0.3080
  936MOL0     C23469   7.777   9.775   0.913  0.2168  0.2846  0.2192
  936MOL0     N23470   7.157   9.339   1.092 -0.7476  0.0364 -0.0742
  936MOL0     N23471   7.040   9.286   1.060 -0.1062 -0.1495 -0.2999
  936MOL0     C23472   5.967   9.036   1.888 -0.5966 -0.3310 -0.5075
  936MOL0     C23473   5.863   9.085   1.970 -0.8017 -0.4911 -0.3073
  936MOL0     C23474   5.530   9.326   2.143 -0.0473  0.1603 -0.2663
  936MOL0     C23475   5.542   9.444   2.218  1.1258 -0.0079 -0.7693
  936MOL0     C23476   5.448   9.487   2.314  0.5852  0.0428 -0.1915
  936MOL0     C23477   5.328   9.418   2.326  1.1552 -0.0273  0.3516
  936MOL0     O23478   5.221   9.454   2.406 -0.1998 -0.1889 -0.7625
  936MOL0     C23479   5.219   9.588   2.463 -0.3311  0.3427  0.2455
  936MOL0     C23480   5.296   9.579   2.598 -0.2128 -1.1079 -0.6396
  936MOL0     C23481   5.251   9.463   2.681  0.1183 -0.1602 -0.6539
  936MOL0     C23482   5.348   9.337   2.686 -0.1841 -0.9316  0.4450
  936MOL0     C23483   5.266   9.232   2.754  0.1476 -0.2503  0.3744
  936MOL0     C23484   5.199   9.146   2.805 -0.4916  0.7214  1.1880
  936MOL0     C23485   5.317   9.305   2.246  0.2406  0.0405 -0.7664
  936MOL0     C23486   5.403   9.257   2.158 -1.5590 -0.4320  0.7923
  936MOL0     H23487   5.605   9.022   1.758  0.7849 -0.9288 -0.4382
  936MOL0     H23488   5.786   8.967   1.618 -0.1805 -0.8472  0.0118
  936MOL0     H23489   6.231   8.994   1.764 -0.6993 -1.4435  0.5729
  936MOL0     H23490   6.158   9.137   1.698 -1.3506  0.1729  0.3753
  936MOL0     H23491   6.177   9.025   1.467 -3.7260 -4.9186  1.5870
  936MOL0     H23492   6.273   8.903   1.527  2.0672  0.7297 -0.7779
  936MOL0     H23493   6.462   9.035   1.578  0.7078  2.5340  0.5079
  936MOL0     H23494   6.362   9.183   1.595  1.4747  1.4185 -0.4631
  936MOL0     H23495   6.445   9.052   1.330 -0.6312 -1.2774  0.8924
  936MOL0     H23496   6.353   9.200   1.343  0.3241 -0.5130 -1.1041
  936MOL0     H23497   6.634   9.161   1.474 -4.1103 -2.3404  0.8468
  936MOL0     H23498   6.553   9.319   1.446  1.0912 -0.4439  1.9558
  936MOL0     H23499   6.555   9.277   1.217  0.2870  1.4090  1.1164
  936MOL0     H23500   6.643   9.124   1.235 -1.0086 -0.9623 -0.7350
  936MOL0     H23501   6.771   9.380   1.343 -1.7841  0.3878  0.1312
  936MOL0     H23502   6.839   9.221   1.330 -0.9895 -1.8913 -2.6633
  936MOL0     H23503   6.745   9.404   1.101  0.9630 -0.0744 -1.9108
  936MOL0     H23504   6.788   9.238   1.075  1.8170  1.1227 -0.6465
  936MOL0     H23505   6.943   9.524   1.257  1.3107  1.4695 -1.9646
  936MOL0     H23506   7.329   9.510   1.254  1.1438  3.5449 -0.0272
  936MOL0     H23507   7.183   9.570   1.333 -1.9479  0.3058 -0.2948
  936MOL0     H23508   7.256   9.768   1.203  2.3256  0.2191 -1.7578
  936MOL0     H23509   7.132   9.697   1.109  0.8280  1.3752  0.1080
  936MOL0     H23510   7.295   9.603   0.944 -2.0428  0.4590  0.3530
  936MOL0     H23511   7.325   9.759   0.967 -0.7113 -1.4589 -1.6242
  936MOL0     H23512   7.492   9.525   1.043 -0.9237  0.1149 -2.3702
  936MOL0     H23513   7.492   9.660   1.165 -0.5584 -0.5873  0.9461
  936MOL0     H23514   7.695   9.489   1.086 -1.8163  1.2461 -1.9763
  936MOL0     H23515   7.934   9.469   1.099  1.3941 -0.7255 -1.5936
  936MOL0     H23516   8.365   9.795   1.137  0.1202  0.8994 -0.6693
  936MOL0     H23517   8.620   9.748   1.145 -0.3210  2.3169 -0.9064
  936MOL0     H23518   8.812   9.490   0.981  2.2196  0.6152 -1.5260
  936MOL0     H23519   8.803   9.596   1.119  0.3923  0.9530  0.0769
  936MOL0     H23520   8.992   9.736   0.974 -2.8462  0.6375 -5.2396
  936MOL0     H23521   8.999   9.582   0.885  4.9558 -0.0513  1.7042
  936MOL0     H23522   9.022   9.466   1.104 -0.4674 -0.5617 -1.3497
  936MOL0     H23523   9.072   9.619   1.175 -0.0029  0.0284  0.6153
  936MOL0     H23524   9.215   9.535   0.923 -0.0002 -1.1325  1.5025
  936MOL0     H23525   9.272   9.649   1.048  0.5036  0.2493  0.5863
  936MOL0     H23526   9.220   9.348   1.087  2.5928 -0.7153 -0.0477
  936MOL0     H23527   9.247   9.462   1.211  0.3620 -0.8633 -0.3655
  936MOL0     H23528   9.472   9.516   1.128 -0.2329  0.1075 -1.9377
  936MOL0     H23529   9.458   9.390   1.002  1.4068 -0.2180  0.5190
  936MOL0     H23530   9.372   9.286   1.266 -0.8082 -0.0360 -1.4754
  936MOL0     H23531   9.471   9.215   1.137  2.6355  0.3665 -1.4607
  936MOL0     H23532   9.573   9.414   1.342  0.8793 -1.0817  1.2401
  936MOL0     H23533   9.676   9.346   1.229  0.6483  1.0508  1.9668
  936MOL0     H23534   8.604   9.596   0.748 -0.5919 -4.2281  2.6585
  936MOL0     H23535   8.345   9.638   0.739 -0.1652  1.4518  1.0446
  936MOL0     H23536   7.976   9.847   0.884 -0.7989  0.5310 -0.7598
  936MOL0     H23537   7.722   9.859   0.871  1.9140  2.6765  2.4309
  936MOL0     H23538   6.070   9.037   1.922 -1.1463 -0.3529  1.2392
  936MOL0     H23539   5.890   9.123   2.068  0.5796  1.6672 -1.4354
  936MOL0     H23540   5.637   9.494   2.232 -0.6863  3.6718 -0.2506
  936MOL0     H23541   5.465   9.583   2.362  1.2838  0.4625 -1.2435
  936MOL0     H23542   5.114   9.614   2.477 -0.3206  1.1739 -1.0714
  936MOL0     H23543   5.260   9.672   2.406 -1.2614  0.8300  0.2801
  936MOL0     H23544   5.405   9.567   2.588 -0.1318 -1.9233  1.0466
  936MOL0     H23545   5.288   9.673   2.653  1.0846  0.4116 -2.8618
  936MOL0     H23546   5.157   9.422   2.642 -0.3081 -0.6374  0.8045
  936MOL0     H23547   5.232   9.503   2.781 -0.6692 -0.3260 -0.7283
  936MOL0     H23548   5.377   9.309   2.584  1.2746 -3.5669  1.4657
  936MOL0     H23549   5.443   9.359   2.734  0.9924 -1.5571 -1.4989
  936MOL0     H23550   5.138   9.071   2.851  0.5264 -0.2946  0.8956
  936MOL0     H23551   5.224   9.249   2.251 -0.4948  0.9465 -3.0661
  936MOL0     H23552   5.380   9.165   2.105 -1.2297 -0.9073  1.4566
  937MOL0     O23553   2.419   1.583   7.034  0.5087  0.8653  0.0546
  937MOL0     C23554   2.353   1.680   7.060  0.0263 -0.9940  0.2483
  937MOL0     O23555   2.388   1.815   7.036 -0.0876  0.5344 -0.0848
  937MOL0     C23556   2.502   1.850   6.970 -0.1027  0.3296  0.3969
  937MOL0     C23557   2.588   1.950   7.019 -0.4409  0.1108  0.5613
  937MOL0     C23558   2.692   2.000   6.937 -0.0242  0.3879  0.3449
  937MOL0     C23559   2.713   1.948   6.806 -0.2254 -0.5959 -0.3827
  937MOL0     O23560   2.825   1.981   6.739  0.1362  0.1914 -0.3331
  937MOL0     C23561   2.845   2.123   6.724 -0.1262 -0.1188  0.3248
  937MOL0     C23562   2.822   2.162   6.583 -0.0606  0.4926 -0.0765
  937MOL0     C23563   2.809   2.314   6.576 -0.1639  0.5524 -0.5991
  937MOL0     C23564   2.744   2.344   6.440 -0.3629 -0.6792 -0.1426
  937MOL0     C23565   2.724   2.489   6.412  0.5977  0.2735  0.3958
  937MOL0     C23566   2.645   2.560   6.521  0.2646  0.1042 -0.1896
  937MOL0     C23567   2.496   2.548   6.492 -0.1325 -0.3060 -0.8184
  937MOL0     C23568   2.428   2.670   6.552 -0.0450  0.4766 -0.5081
  937MOL0     N23569   2.280   2.648   6.548 -0.1660 -0.4716 -0.1501
  937MOL0     C23570   2.196   2.606   6.449  0.1223 -0.0965  0.1839
  937MOL0     C23571   2.070   2.593   6.507 -0.4990 -0.2302 -0.9399
  937MOL0     C23572   1.939   2.545   6.435 -0.3038 -1.3959 -0.0791
  937MOL0     C23573   1.862   2.451   6.520  0.5547 -0.4189 -0.0666
  937MOL0     C23574   1.914   2.301   6.511 -0.9069  0.4594  0.0727
  937MOL0     C23575   1.837   2.205   6.596 -0.2484  0.5067  0.5530
  937MOL0     O23576   1.702   2.176   6.547  0.0650 -0.1478 -0.1966
  937MOL0     C23577   1.615   2.106   6.638  0.2433  0.2201  0.1589
  937MOL0     C23578   1.482   2.100   6.587 -0.5111  0.4006 -0.6581
  937MOL0     C23579   1.382   2.051   6.675  0.2127 -0.5955 -0.8592
  937MOL0     C23580   1.420   1.984   6.791 -0.4920  0.2294  0.0473
  937MOL0     C23581   1.310   1.924   6.871 -0.2718  0.1301  0.2739
  937MOL0     O23582   1.180   1.928   6.823 -0.6189  0.4257 -0.7181
  937MOL0     C23583   1.069   1.921   6.901 -2.1210  0.6360 -0.3470
  937MOL0     C23584   0.961   1.923   6.822  0.4248  0.6834 -0.0487
  937MOL0     C23585   0.834   1.900   6.870  0.6787  0.3280  0.5106
  937MOL0     C23586   0.821   1.885   7.015  0.1787 -0.6787 -0.6149
  937MOL0     O23587   0.698   1.849   7.064  0.6466  0.0392 -0.1872
  937MOL0     C23588   0.688   1.844   7.207  1.0446  0.7706 -0.1862
  937MOL0     C23589   0.536   1.863   7.256 -0.0949 -0.0766  0.2918
  937MOL0     C23590   0.512   1.854   7.404  0.4578  0.0212 -0.0777
  937MOL0     C23591   0.511   1.710   7.463 -0.7106  0.3363  0.2352
  937MOL0     C23592   0.485   1.712   7.612  0.0939  0.4658 -0.3173
  937MOL0     C23593   0.476   1.565   7.668  0.5148  0.3481 -0.2083
  937MOL0     C23594   0.486   1.558   7.825  0.1422  0.6148  0.6466
  937MOL0     C23595   0.388   1.645   7.906 -0.4241  0.2197  0.8157
  937MOL0    Cl23596   0.365   1.552   8.070 -0.1071 -0.3256  0.0920
  937MOL0     C23597   0.937   1.875   7.103 -0.4664 -0.6568  0.5137
  937MOL0     C23598   1.063   1.907   7.042  0.5339 -0.5737 -0.3850
  937MOL0     O23599   1.342   1.883   6.984 -0.3537  0.1793  0.7958
  937MOL0     C23600   1.557   1.992   6.833  0.7060 -0.1729 -0.2628
  937MOL0     C23601   1.655   2.062   6.765 -0.2251 -0.3893 -0.4574
  937MOL0     N23602   2.076   2.636   6.641  0.6145  0.2584  0.9278
  937MOL0     N23603   2.195   2.674   6.660 -0.1113  0.2111 -0.5070
  937MOL0     C23604   2.629   1.848   6.759 -0.3408 -0.3115 -0.0152
  937MOL0     C23605   2.526   1.796   6.842  0.1870 -0.4288  1.1711
  937MOL0     C23606   2.222   1.658   7.140  0.1582 -0.3053  0.1472
  937MOL0     C23607   2.166   1.532   7.157  0.2900  0.9454 -0.6739
  937MOL0     C23608   2.058   1.504   7.242  0.1249 -0.8195 -0.4814
  937MOL0     C23609   1.999   1.612   7.303  0.7964 -0.0948  0.2520
  937MOL0     O23610   1.895   1.590   7.398 -0.5960 -0.3099  0.5443
  937MOL0     C23611   1.818   1.701   7.448  0.3797 -0.3002 -0.3336
  937MOL0     C23612   1.684   1.655   7.512 -0.1237 -0.4055 -0.0575
  937MOL0     C23613   1.568   1.723   7.440  0.3690  0.0189  0.7847
  937MOL0     C23614   1.437   1.668   7.500 -0.9443  0.3826  0.4385
  937MOL0     C23615   1.336   1.656   7.394  0.3633 -0.2347  0.3930
  937MOL0     C23616   1.261   1.662   7.300 -0.8215  0.6670  0.8632
  937MOL0     C23617   2.055   1.744   7.287  0.3003  0.3942  0.3869
  937MOL0     C23618   2.158   1.768   7.205  0.2308  0.1780 -0.1837
  937MOL0     H23619   2.584   1.987   7.121  1.8098  1.9959  0.0252
  937MOL0     H23620   2.765   2.068   6.978 -1.2921  3.6629 -2.3563
  937MOL0     H23621   2.949   2.141   6.753 -0.5489  1.6678  0.8395
  937MOL0     H23622   2.785   2.186   6.790 -2.0311  1.2358 -2.4705
  937MOL0     H23623   2.740   2.111   6.533  1.3550 -1.9334 -0.0609
  937MOL0     H23624   2.914   2.140   6.528 -0.6448 -0.6555 -0.6041
  937MOL0     H23625   2.896   2.379   6.591  0.5413  0.1722 -2.6358
  937MOL0     H23626   2.726   2.334   6.644  0.1567 -0.0284 -0.0284
  937MOL0     H23627   2.808   2.292   6.369  3.6297  1.4507  1.6213
  937MOL0     H23628   2.648   2.290   6.434 -0.2518 -0.9604  0.5303
  937MOL0     H23629   2.666   2.510   6.321  2.3212 -0.4738 -0.9443
  937MOL0     H23630   2.824   2.532   6.396  0.8478  0.2447  1.8143
  937MOL0     H23631   2.658   2.668   6.507 -2.4776  0.5088 -0.2579
  937MOL0     H23632   2.678   2.524   6.619 -1.1118 -0.2970  0.1454
  937MOL0     H23633   2.471   2.547   6.386 -1.7751 -2.1236 -0.4929
  937MOL0     H23634   2.458   2.449   6.522  1.8416 -1.5447 -2.1696
  937MOL0     H23635   2.442   2.754   6.484  0.6970 -0.6022 -1.7222
  937MOL0     H23636   2.467   2.705   6.648  3.7520  0.7723 -2.0084
  937MOL0     H23637   2.224   2.588   6.346  0.4143 -2.3849  0.6223
  937MOL0     H23638   1.971   2.490   6.346  1.4491  1.5558 -1.4112
  937MOL0     H23639   1.877   2.632   6.410  0.3407 -0.4666  1.4480
  937MOL0     H23640   1.762   2.457   6.476  0.3645 -0.9056  0.2851
  937MOL0     H23641   1.860   2.479   6.626  1.8355  2.3447 -0.6971
  937MOL0     H23642   1.896   2.266   6.409 -0.2949 -1.4304  0.5680
  937MOL0     H23643   2.019   2.292   6.539 -0.6835  0.4475 -0.7539
  937MOL0     H23644   1.848   2.253   6.694  1.8046  1.7905 -0.2336
  937MOL0     H23645   1.895   2.113   6.595  0.2962  0.7882 -2.1925
  937MOL0     H23646   1.473   2.149   6.490  0.8041 -0.6698 -1.3525
  937MOL0     H23647   1.281   2.064   6.638 -0.1166 -2.2831 -0.6202
  937MOL0     H23648   0.979   1.956   6.720 -1.4015 -1.0424 -1.0037
  937MOL0     H23649   0.752   1.898   6.799  0.8829  0.1430  0.2792
  937MOL0     H23650   0.732   1.933   7.255 -1.4808  2.3629 -0.5989
  937MOL0     H23651   0.737   1.755   7.245 -0.8112  0.2296  1.0915
  937MOL0     H23652   0.464   1.798   7.205  0.1996 -0.3121  0.1721
  937MOL0     H23653   0.520   1.964   7.216 -0.3616 -0.3385 -0.2783
  937MOL0     H23654   0.419   1.906   7.429  1.2584  2.4674 -1.7678
  937MOL0     H23655   0.585   1.908   7.464 -0.1879  1.0119 -0.1573
  937MOL0     H23656   0.423   1.654   7.428 -0.0581 -0.6333  0.0904
  937MOL0     H23657   0.603   1.653   7.449  0.4696  1.0925  3.9056
  937MOL0     H23658   0.395   1.768   7.640 -1.7866 -1.7654 -1.5313
  937MOL0     H23659   0.572   1.770   7.645 -1.9621  3.6085  0.0452
  937MOL0     H23660   0.560   1.507   7.630  0.4116  1.3346 -2.0771
  937MOL0     H23661   0.386   1.518   7.627 -0.0215  0.7765  0.4471
  937MOL0     H23662   0.469   1.453   7.849  1.3545  0.4814  1.0312
  937MOL0     H23663   0.590   1.566   7.860  0.5641  1.3908 -0.6956
  937MOL0     H23664   0.291   1.662   7.858  0.0849  0.8390 -0.0022
  937MOL0     H23665   0.423   1.746   7.930  2.2095 -0.1725 -0.9988
  937MOL0     H23666   0.938   1.852   7.209 -3.6260  1.9948  1.2793
  937MOL0     H23667   1.149   1.902   7.108  0.7103 -2.5183 -0.7015
  937MOL0     H23668   1.584   1.935   6.921  1.5080 -0.3176 -0.5925
  937MOL0     H23669   1.755   2.075   6.805 -0.7696  1.7933  0.3119
  937MOL0     H23670   2.648   1.799   6.664 -1.5267 -1.6069  0.3734
  937MOL0     H23671   2.450   1.728   6.804 -0.3941  0.9686 -0.3275
  937MOL0     H23672   2.216   1.443   7.120  1.0322 -0.4950  3.2319
  937MOL0     H23673   2.022   1.405   7.264 -0.7111 -0.2985  0.6003
  937MOL0     H23674   1.802   1.759   7.357 -1.6544  0.4873  0.4735
  937MOL0     H23675   1.873   1.761   7.522 -0.9251 -0.2461  0.6244
  937MOL0     H23676   1.678   1.546   7.499 -0.5756 -0.4701  0.7034
  937MOL0     H23677   1.688   1.680   7.618 -0.0585 -1.6248  0.2520
  937MOL0     H23678   1.576   1.701   7.333 -0.6570  0.8026  0.5362
  937MOL0     H23679   1.579   1.831   7.451 -0.7948  0.0455  1.9438
  937MOL0     H23680   1.447   1.567   7.541 -3.1057 -0.1823 -0.2816
  937MOL0     H23681   1.406   1.728   7.587  0.0475  2.7071 -0.7278
  937MOL0     H23682   1.203   1.668   7.211 -0.6118 -1.5932  0.5115
  937MOL0     H23683   2.019   1.828   7.347  0.8515  0.5436  0.5078
  937MOL0     H23684   2.215   1.860   7.194 -1.3025  1.4851  2.1537
  938MOL0     O23685   1.078   7.288   6.625  0.0809  0.1267 -0.1370
  938MOL0     C23686   1.162   7.203   6.635 -0.2120  0.3197  0.7030
  938MOL0     O23687   1.170   7.086   6.559 -0.2898  0.1445  0.1768
  938MOL0     C23688   1.067   7.041   6.472  0.0477 -0.3933  0.4221
  938MOL0     C23689   0.931   7.046   6.505  0.0130 -0.6633 -1.2073
  938MOL0     C23690   0.827   7.011   6.423  0.6725 -0.0475  0.1231
  938MOL0     C23691   0.849   6.951   6.297  0.2148 -0.8342 -0.0566
  938MOL0     O23692   0.753   6.903   6.213  0.3206  0.3251 -0.0519
  938MOL0     C23693   0.610   6.906   6.255 -0.3820  0.0359  0.0986
  938MOL0     C23694   0.521   6.818   6.174  0.4972  0.7928 -0.3435
  938MOL0     C23695   0.518   6.850   6.023  0.3065  0.0301  1.3511
  938MOL0     C23696   0.428   6.750   5.951 -0.3124 -0.2690 -0.4528
  938MOL0     C23697   0.288   6.803   5.945  0.3190  0.2337  0.2321
  938MOL0     C23698   0.198   6.687   5.901  0.4960 -0.3342 -0.0135
  938MOL0     C23699   0.054   6.737   5.872 -0.1162 -0.0655 -0.3446
  938MOL0     C23700  -0.022   6.610   5.820  0.2926 -0.7946  0.0125
  938MOL0     N23701  -0.125   6.655   5.728  0.2311 -0.0142 -0.0369
  938MOL0     C23702  -0.119   6.626   5.594 -0.5525 -0.8675 -0.4815
  938MOL0     C23703  -0.248   6.651   5.553 -0.4614 -0.4271 -0.7343
  938MOL0     C23704  -0.314   6.631   5.417 -0.1666 -0.2793 -0.3165
  938MOL0     C23705  -0.393   6.502   5.420  0.0164  0.1544  0.0522
  938MOL0     C23706  -0.440   6.475   5.278 -0.6276  0.8546  0.3922
  938MOL0     C23707  -0.542   6.360   5.259 -0.4261 -1.0513  0.4855
  938MOL0     O23708  -0.669   6.403   5.311 -0.1473 -0.6233  0.4428
  938MOL0     C23709  -0.762   6.418   5.213 -0.1775 -0.5948 -0.1820
  938MOL0     C23710  -0.791   6.544   5.154  0.3161 -0.1393 -0.0215
  938MOL0     C23711  -0.896   6.560   5.061  0.1719  0.0140 -0.1372
  938MOL0     C23712  -0.988   6.457   5.046 -0.2833  0.0219 -0.8892
  938MOL0     C23713  -1.112   6.471   4.964 -0.4240  0.5703 -0.0182
  938MOL0     O23714  -1.176   6.352   4.947 -0.1601 -0.0535  0.0568
  938MOL0     C23715  -1.308   6.333   4.904  0.2218  0.0088 -0.3748
  938MOL0     C23716  -1.343   6.197   4.913 -0.7557 -0.2708 -0.1540
  938MOL0     C23717  -1.474   6.171   4.879 -0.1537  1.0829  0.7152
  938MOL0     C23718  -1.564   6.266   4.842  0.2738  0.4956 -0.4485
  938MOL0     O23719  -1.688   6.211   4.818  0.0981 -0.2292  0.0084
  938MOL0     C23720  -1.757   6.248   4.691  0.9005 -0.1131  0.2446
  938MOL0     C23721  -1.889   6.322   4.733 -1.0511 -0.3012  0.4988
  938MOL0     C23722  -1.983   6.234   4.812 -0.2485 -0.6342 -0.1751
  938MOL0     C23723  -2.112   6.310   4.859  0.5680  0.7607 -0.2054
  938MOL0     C23724  -2.209   6.224   4.934  0.3853 -0.2634 -0.2138
  938MOL0     C23725  -2.351   6.276   4.953  0.4337  0.2494  1.0390
  938MOL0     C23726  -2.444   6.173   5.018 -0.9454 -0.5347  0.3793
  938MOL0     C23727  -2.480   6.050   4.942  0.4695 -0.7295  0.1648
  938MOL0    Cl23728  -2.581   5.945   5.050 -0.2441  0.5453 -0.5405
  938MOL0     C23729  -1.529   6.390   4.821  0.2473  0.4927 -0.7583
  938MOL0     C23730  -1.394   6.423   4.844  0.9015  0.5243  0.0990
  938MOL0     O23731  -1.136   6.568   4.895  0.1704 -0.0360 -0.0048
  938MOL0     C23732  -0.954   6.328   5.100 -0.0150  0.4363 -0.7063
  938MOL0     C23733  -0.838   6.305   5.175  0.4217 -0.2507 -0.0855
  938MOL0     N23734  -0.319   6.701   5.659 -0.3442  0.8227 -0.0930
  938MOL0     N23735  -0.244   6.698   5.761  0.0656 -0.6458 -0.2717
  938MOL0     C23736   0.989   6.934   6.268 -0.0917 -0.2294 -0.1999
  938MOL0     C23737   1.092   6.980   6.347 -0.1736  0.3572 -0.7388
  938MOL0     C23738   1.279   7.219   6.734  0.9625 -0.3802  0.0024
  938MOL0     C23739   1.282   7.331   6.828 -0.4445 -0.6162  0.2258
  938MOL0     C23740   1.385   7.341   6.920 -0.4214 -0.9571 -0.4791
  938MOL0     C23741   1.484   7.236   6.923 -0.2706  0.5025  0.1287
  938MOL0     O23742   1.581   7.255   7.023  0.2294 -0.0104  0.0166
  938MOL0     C23743   1.692   7.168   7.032 -0.2891 -0.3381  0.4376
  938MOL0     C23744   1.762   7.192   7.166 -0.1445 -0.4735  0.3161
  938MOL0     C23745   1.663   7.135   7.266  0.0591  0.0039 -0.2864
  938MOL0     C23746   1.726   7.150   7.406  0.0085  0.0571  0.4251
  938MOL0     C23747   1.765   7.286   7.432  0.8929 -0.3868  0.3327
  938MOL0     C23748   1.768   7.404   7.445  0.4171 -0.3487  0.2154
  938MOL0     C23749   1.478   7.127   6.832  0.0087 -0.1465  0.3168
  938MOL0     C23750   1.380   7.118   6.735  0.0298  0.2361 -0.3851
  938MOL0     H23751   0.905   7.085   6.603 -1.7699 -1.1663 -1.4519
  938MOL0     H23752   0.726   7.012   6.463  0.8048 -0.6952  0.4867
  938MOL0     H23753   0.569   7.007   6.251 -1.6038 -0.4771 -1.2535
  938MOL0     H23754   0.604   6.875   6.359 -2.1628  0.5437  0.1862
  938MOL0     H23755   0.423   6.834   6.221 -1.5520 -1.8532 -3.3047
  938MOL0     H23756   0.550   6.714   6.190  0.6691  0.4699 -2.3868
  938MOL0     H23757   0.621   6.840   5.987  0.6024  2.4533  1.4048
  938MOL0     H23758   0.499   6.954   5.996 -0.1854 -0.5142 -0.5602
  938MOL0     H23759   0.465   6.741   5.848 -0.0657  1.4415 -0.5461
  938MOL0     H23760   0.441   6.658   6.009  2.4959 -0.2873 -0.9440
  938MOL0     H23761   0.275   6.890   5.880 -0.0327  2.2177  2.7984
  938MOL0     H23762   0.245   6.830   6.042 -2.9495 -2.0227 -0.4459
  938MOL0     H23763   0.196   6.604   5.971 -1.5617  0.2619  0.7045
  938MOL0     H23764   0.239   6.650   5.807  0.9577 -2.5407  1.0091
  938MOL0     H23765   0.018   6.774   5.968 -1.0346  0.2002 -0.7832
  938MOL0     H23766   0.053   6.817   5.797  1.2135  0.2399 -0.0670
  938MOL0     H23767  -0.065   6.547   5.897  0.1519 -3.0630 -1.8234
  938MOL0     H23768   0.048   6.538   5.778  1.7266  1.7318 -2.2973
  938MOL0     H23769  -0.033   6.589   5.539  0.0288 -0.5321  0.1755
  938MOL0     H23770  -0.254   6.647   5.327 -0.2648  0.9869 -0.1729
  938MOL0     H23771  -0.380   6.718   5.412 -0.3666 -0.3559  0.7312
  938MOL0     H23772  -0.481   6.514   5.485 -0.7215 -0.5683 -0.7841
  938MOL0     H23773  -0.327   6.421   5.451 -1.0310 -0.2925  1.1951
  938MOL0     H23774  -0.482   6.563   5.229 -1.8053  0.4080  0.5607
  938MOL0     H23775  -0.356   6.440   5.217 -0.5113 -0.3290  1.1991
  938MOL0     H23776  -0.506   6.274   5.315 -1.8420 -1.6595  0.5050
  938MOL0     H23777  -0.546   6.331   5.153 -2.1299  1.4530 -0.2248
  938MOL0     H23778  -0.724   6.628   5.171  2.2419 -1.8226  1.3016
  938MOL0     H23779  -0.922   6.655   5.015 -4.9994 -1.5949 -1.1951
  938MOL0     H23780  -1.274   6.121   4.948  2.0369  2.6644  1.2156
  938MOL0     H23781  -1.503   6.066   4.885 -1.7389  1.5635  2.2241
  938MOL0     H23782  -1.785   6.153   4.643  0.4172  0.6826 -1.0937
  938MOL0     H23783  -1.693   6.308   4.626  1.6834  2.1839  2.9381
  938MOL0     H23784  -1.932   6.360   4.640 -2.3192  0.3129  1.3061
  938MOL0     H23785  -1.860   6.402   4.802 -0.2191  0.4337 -0.6582
  938MOL0     H23786  -1.929   6.200   4.900  0.7844  2.1749  0.3717
  938MOL0     H23787  -2.016   6.146   4.756 -2.0410 -1.8876  2.6280
  938MOL0     H23788  -2.083   6.397   4.917 -0.4261  0.4283  0.8177
  938MOL0     H23789  -2.174   6.346   4.776  0.6788  0.9489 -0.2064
  938MOL0     H23790  -2.174   6.209   5.036  0.7663 -1.1507 -0.4694
  938MOL0     H23791  -2.228   6.126   4.889  0.7050  0.6352 -2.4154
  938MOL0     H23792  -2.395   6.325   4.866 -0.4111  1.6564  2.2063
  938MOL0     H23793  -2.345   6.355   5.029 -0.3138  0.7179  0.6298
  938MOL0     H23794  -2.387   6.139   5.105  0.3001  1.1488  0.2519
  938MOL0     H23795  -2.528   6.231   5.058 -0.3480  0.8044 -0.2772
  938MOL0     H23796  -2.390   5.991   4.919  1.5110 -1.7218  5.5633
  938MOL0     H23797  -2.539   6.073   4.853  0.6318 -3.2666 -0.6853
  938MOL0     H23798  -1.599   6.464   4.784 -1.1315 -0.2083  0.3437
  938MOL0     H23799  -1.364   6.523   4.813 -0.3994  0.2224 -2.3769
  938MOL0     H23800  -1.010   6.237   5.084 -0.5194  0.9233 -1.7933
  938MOL0     H23801  -0.827   6.205   5.216 -1.4614  0.8762  3.5781
  938MOL0     H23802   1.000   6.884   6.172 -3.1532 -1.0369 -0.2186
  938MOL0     H23803   1.196   6.956   6.327  0.9108  2.5664  1.6715
  938MOL0     H23804   1.208   7.410   6.832  0.6988  0.5018  0.0304
  938MOL0     H23805   1.400   7.430   6.981  0.3593 -0.1013 -1.8689
  938MOL0     H23806   1.750   7.198   6.944 -2.0164 -1.6763 -1.2431
  938MOL0     H23807   1.661   7.064   7.020  0.5800 -0.5868  0.2980
  938MOL0     H23808   1.860   7.145   7.174 -0.0415 -0.0914  1.5547
  938MOL0     H23809   1.780   7.300   7.173  0.6489 -0.6011  0.2199
  938MOL0     H23810   1.657   7.027   7.248 -0.7892  0.0642 -0.3922
  938MOL0     H23811   1.560   7.171   7.259 -0.3839 -1.2169 -0.3750
  938MOL0     H23812   1.659   7.119   7.487 -1.6384 -0.3742 -1.0329
  938MOL0     H23813   1.811   7.081   7.412 -0.3335 -0.3300  0.9673
  938MOL0     H23814   1.765   7.511   7.438  0.4304 -0.4581 -2.2864
  938MOL0     H23815   1.548   7.045   6.837  2.0098  1.4705  0.2977
  938MOL0     H23816   1.366   7.027   6.678 -2.0015 -0.6929  1.4388
  939MOL0     O23817   4.274   1.844   7.506 -0.1977  0.5767 -0.4693
  939MOL0     C23818   4.349   1.767   7.437 -0.1529 -0.1106 -0.5183
  939MOL0     O23819   4.321   1.644   7.400 -0.7650  0.3370 -0.2145
  939MOL0     C23820   4.214   1.572   7.434 -0.2543 -0.5342  0.8567
  939MOL0     C23821   4.228   1.443   7.477 -0.7456  0.3242 -0.1587
  939MOL0     C23822   4.115   1.365   7.502 -0.5005 -0.4314  0.3247
  939MOL0     C23823   3.984   1.404   7.469 -0.0825 -0.3227  0.1080
  939MOL0     O23824   3.883   1.311   7.488  0.3941  0.1492  0.0640
  939MOL0     C23825   3.755   1.351   7.444  0.0964  0.0587 -0.5697
  939MOL0     C23826   3.665   1.224   7.451 -0.4796 -0.7568  0.2174
  939MOL0     C23827   3.653   1.179   7.596 -0.2064 -0.0193 -0.8376
  939MOL0     C23828   3.617   1.297   7.702  0.4119 -0.4105  0.5065
  939MOL0     C23829   3.540   1.237   7.822  0.1319  0.0523  0.3510
  939MOL0     C23830   3.390   1.200   7.794  0.6006  0.7140 -0.9201
  939MOL0     C23831   3.290   1.306   7.740 -0.0135  0.2969  0.7303
  939MOL0     C23832   3.302   1.437   7.812  0.1478  0.0206  0.4384
  939MOL0     N23833   3.183   1.521   7.797  0.3728 -0.2280  0.2186
  939MOL0     C23834   3.063   1.508   7.862  0.5499  0.2568 -0.9842
  939MOL0     C23835   2.999   1.626   7.830  0.1431 -0.0259  0.3010
  939MOL0     C23836   2.857   1.660   7.874 -0.0799 -0.1281  0.1140
  939MOL0     C23837   2.786   1.791   7.828  0.2847  0.4101 -0.0422
  939MOL0     C23838   2.650   1.797   7.888  0.6264 -0.1880 -0.3961
  939MOL0     C23839   2.598   1.939   7.870 -0.3017  0.6414 -0.4243
  939MOL0     O23840   2.567   1.964   7.724 -0.7201  0.2438  0.4383
  939MOL0     C23841   2.433   1.968   7.690  0.1845  0.2965 -1.2914
  939MOL0     C23842   2.333   1.894   7.754  0.2441  0.3373  0.3075
  939MOL0     C23843   2.196   1.895   7.720  1.0988 -0.5106  1.2862
  939MOL0     C23844   2.160   1.988   7.615 -0.3173  0.7974 -0.1195
  939MOL0     C23845   2.021   2.000   7.574  0.2532  0.6019 -0.7554
  939MOL0     O23846   1.935   1.973   7.681  0.5995 -0.0996  0.7354
  939MOL0     C23847   1.801   1.992   7.682 -0.3112 -0.2694  0.0421
  939MOL0     C23848   1.738   1.927   7.791  0.0423  0.6097  0.9062
  939MOL0     C23849   1.602   1.925   7.793 -0.3554 -0.1981  0.3917
  939MOL0     C23850   1.520   1.998   7.706  0.1210  0.0597 -0.1870
  939MOL0     O23851   1.387   1.969   7.713  0.1105  0.5780 -0.2352
  939MOL0     C23852   1.296   2.051   7.641  0.0760 -0.6413 -0.4775
  939MOL0     C23853   1.142   2.026   7.652 -0.3482 -0.1420 -1.2280
  939MOL0     C23854   1.107   1.888   7.599 -0.1019 -0.2740 -0.4655
  939MOL0     C23855   0.958   1.863   7.624  0.2292 -0.1894  0.0748
  939MOL0     C23856   0.889   1.772   7.519 -0.0155 -0.1320 -0.7521
  939MOL0     C23857   0.947   1.630   7.524 -0.3474  0.3680  0.1602
  939MOL0     C23858   0.898   1.553   7.397 -0.3823 -0.5744  0.3847
  939MOL0     C23859   0.974   1.423   7.372  0.0163  0.4341  0.0932
  939MOL0    Cl23860   0.947   1.316   7.515  0.2262 -0.1473  0.4223
  939MOL0     C23861   1.586   2.087   7.610  0.0306  0.7619 -0.0661
  939MOL0     C23862   1.727   2.079   7.599  0.4911  0.3034  0.8737
  939MOL0     O23863   1.993   2.053   7.474  0.3265 -0.0429  0.4834
  939MOL0     C23864   2.262   2.065   7.549 -0.5608 -0.4858  0.0124
  939MOL0     C23865   2.395   2.059   7.595 -0.3177  0.4993 -0.2202
  939MOL0     N23866   3.088   1.712   7.757 -0.1921 -0.2654  0.4253
  939MOL0     N23867   3.191   1.640   7.723 -0.0777 -0.6472 -0.5091
  939MOL0     C23868   3.974   1.540   7.428  0.5029  0.4779  0.1679
  939MOL0     C23869   4.085   1.623   7.402 -0.3805  0.5714 -0.3779
  939MOL0     C23870   4.470   1.816   7.379  0.1775 -0.6030 -0.2574
  939MOL0     C23871   4.566   1.882   7.459 -0.7141  0.4110 -1.8878
  939MOL0     C23872   4.685   1.931   7.408  0.5161  0.5690  0.5655
  939MOL0     C23873   4.718   1.904   7.271 -0.4798 -0.2138 -0.3376
  939MOL0     O23874   4.839   1.951   7.218  0.4259  0.8106  0.1758
  939MOL0     C23875   4.864   2.088   7.249  0.2623  0.1505  0.6246
  939MOL0     C23876   5.011   2.110   7.201 -0.3449  1.1893  0.1195
  939MOL0     C23877   5.063   2.255   7.211  0.7927  0.2558  0.6822
  939MOL0     C23878   5.201   2.282   7.145  0.4645  0.2040  0.4329
  939MOL0     C23879   5.229   2.422   7.184  0.8188  0.2635  0.0413
  939MOL0     C23880   5.264   2.528   7.231  0.4521 -0.0377  0.2406
  939MOL0     C23881   4.627   1.834   7.196 -0.2228 -0.7888  0.4153
  939MOL0     C23882   4.501   1.803   7.241  0.1735  1.5445 -0.2514
  939MOL0     H23883   4.332   1.413   7.490 -0.1715  2.2197 -0.0577
  939MOL0     H23884   4.124   1.260   7.529 -2.3747 -1.2420 -1.9077
  939MOL0     H23885   3.749   1.384   7.340 -0.5427  1.1729 -0.1943
  939MOL0     H23886   3.700   1.424   7.504 -1.6205 -0.4186 -1.5213
  939MOL0     H23887   3.711   1.144   7.391  2.2502 -1.4445  3.0045
  939MOL0     H23888   3.563   1.243   7.415 -0.1748 -0.0113 -0.2693
  939MOL0     H23889   3.752   1.137   7.617  0.0923 -0.5078 -3.0066
  939MOL0     H23890   3.575   1.103   7.608  0.8438 -1.0098 -0.0008
  939MOL0     H23891   3.706   1.350   7.735  0.0252  0.7017 -0.1733
  939MOL0     H23892   3.570   1.380   7.649  3.5037  1.2208  0.1322
  939MOL0     H23893   3.554   1.296   7.913 -0.5619  0.0939  0.4383
  939MOL0     H23894   3.580   1.140   7.851 -0.0988 -0.3549 -0.6636
  939MOL0     H23895   3.345   1.166   7.888 -1.3981  1.2398 -1.6324
  939MOL0     H23896   3.393   1.114   7.726  3.9136 -0.3171  0.3141
  939MOL0     H23897   3.306   1.330   7.634 -3.6121  0.5978  0.1331
  939MOL0     H23898   3.187   1.271   7.752 -0.5210  1.3559 -0.3274
  939MOL0     H23899   3.398   1.488   7.803  0.3214 -0.3127  0.3572
  939MOL0     H23900   3.308   1.414   7.919 -0.4837 -2.3069  0.0381
  939MOL0     H23901   3.028   1.429   7.927  0.9050  1.0625  0.2267
  939MOL0     H23902   2.868   1.669   7.982  0.9212  1.0904 -0.0617
  939MOL0     H23903   2.791   1.575   7.856  0.4075 -0.5295  0.2075
  939MOL0     H23904   2.790   1.779   7.719  1.3413  1.8682 -0.1823
  939MOL0     H23905   2.839   1.885   7.846  2.0675  0.0196 -2.6113
  939MOL0     H23906   2.588   1.723   7.836  2.5898 -2.1881 -0.0831
  939MOL0     H23907   2.640   1.781   7.996  0.0099 -0.0130 -0.4267
  939MOL0     H23908   2.680   2.002   7.905 -0.6380  0.0294  1.5667
  939MOL0     H23909   2.516   1.946   7.942 -0.5040 -2.1326 -0.2897
  939MOL0     H23910   2.365   1.825   7.831 -0.6586 -0.0042  0.3843
  939MOL0     H23911   2.120   1.831   7.762 -0.5648  0.4184 -0.1785
  939MOL0     H23912   1.794   1.860   7.856  0.1662  0.8386  1.0406
  939MOL0     H23913   1.554   1.869   7.873 -2.6572 -0.6515 -1.1984
  939MOL0     H23914   1.330   2.053   7.537  2.1663  4.2492  0.0413
  939MOL0     H23915   1.315   2.153   7.676 -1.7526  0.0783 -1.4804
  939MOL0     H23916   1.096   2.102   7.588 -1.2520  0.1934 -0.1953
  939MOL0     H23917   1.103   2.026   7.754  0.7350 -2.3728 -0.7412
  939MOL0     H23918   1.166   1.813   7.652 -0.1076  0.3680  0.4566
  939MOL0     H23919   1.125   1.896   7.491  0.8897 -0.4127 -0.3181
  939MOL0     H23920   0.947   1.818   7.723 -3.3732  2.9745  1.3357
  939MOL0     H23921   0.903   1.957   7.620 -0.1160 -0.3975 -0.0538
  939MOL0     H23922   0.924   1.821   7.428  1.5119 -0.5815 -0.4274
  939MOL0     H23923   0.781   1.783   7.531  0.0741  2.3113 -1.6306
  939MOL0     H23924   0.905   1.575   7.609 -0.7390 -0.0169 -0.2765
  939MOL0     H23925   1.056   1.636   7.537 -0.3432  0.4228  0.1001
  939MOL0     H23926   0.794   1.525   7.417 -0.7292  1.2694  1.4060
  939MOL0     H23927   0.909   1.608   7.303  0.9530 -2.2993 -0.5288
  939MOL0     H23928   1.082   1.432   7.356  0.3476 -2.9560 -0.2236
  939MOL0     H23929   0.939   1.372   7.282  0.6395 -1.0144  0.6521
  939MOL0     H23930   1.527   2.145   7.540  1.4118  0.8853 -1.1769
  939MOL0     H23931   1.764   2.132   7.512 -3.2086 -1.9869 -2.4320
  939MOL0     H23932   2.231   2.150   7.490 -0.9979 -0.5377  0.1671
  939MOL0     H23933   2.468   2.123   7.547 -2.0600  1.1663 -2.1122
  939MOL0     H23934   3.869   1.559   7.405  0.2029 -2.9564 -1.9274
  939MOL0     H23935   4.071   1.717   7.350  0.7734  0.9972  0.0655
  939MOL0     H23936   4.548   1.906   7.563  1.2264 -1.1917 -1.1286
  939MOL0     H23937   4.749   1.978   7.482 -1.2548  1.9484  1.2961
  939MOL0     H23938   4.849   2.119   7.353 -0.9109  1.3690  0.1253
  939MOL0     H23939   4.789   2.146   7.193  0.2136 -1.6144 -1.2444
  939MOL0     H23940   5.078   2.042   7.255  0.4566  1.4859 -0.4910
  939MOL0     H23941   5.014   2.085   7.094 -3.8535 -1.4766  0.4428
  939MOL0     H23942   5.075   2.275   7.318  1.4759 -0.9612  0.8434
  939MOL0     H23943   4.988   2.324   7.170 -0.0599 -0.9626  0.1438
  939MOL0     H23944   5.283   2.220   7.183 -0.6755 -1.2942  0.5241
  939MOL0     H23945   5.195   2.261   7.038 -1.4677  0.1362  0.5242
  939MOL0     H23946   5.308   2.619   7.267 -0.5329  0.5598 -0.0270
  939MOL0     H23947   4.653   1.810   7.093  0.6394 -1.5725  0.7909
  939MOL0     H23948   4.422   1.750   7.188  1.2687  0.4647 -0.8577
  940MOL0     O23949   1.647  10.132   7.712 -0.3860  0.7971 -0.3191
  940MOL0     C23950   1.735  10.055   7.680 -1.1579  0.1289  0.3988
  940MOL0     O23951   1.723   9.942   7.601 -0.1377 -0.1159 -0.4235
  940MOL0     C23952   1.607   9.907   7.529 -0.3842 -1.0320  0.5428
  940MOL0     C23953   1.505   9.998   7.491  0.7871 -0.5697  0.1835
  940MOL0     C23954   1.378   9.942   7.454  0.0724 -0.5534  0.1094
  940MOL0     C23955   1.357   9.807   7.461 -0.7596  0.8478  0.0406
  940MOL0     O23956   1.233   9.745   7.431 -0.0653  0.3067 -0.1473
  940MOL0     C23957   1.117   9.815   7.398 -0.2739 -0.2654  0.5287
  940MOL0     C23958   1.025   9.730   7.318 -0.4432 -0.1798  0.1411
  940MOL0     C23959   0.898   9.798   7.292  0.7732 -0.3897  0.2477
  940MOL0     C23960   0.796   9.696   7.232 -0.5700 -0.8078 -0.1463
  940MOL0     C23961   0.658   9.755   7.209  0.0717  1.2392 -0.1041
  940MOL0     C23962   0.574   9.621   7.187 -0.0803 -0.3588  0.2793
  940MOL0     C23963   0.426   9.652   7.160 -0.5553  0.0867 -0.5729
  940MOL0     C23964   0.352   9.527   7.111  0.1853  0.3389  0.4948
  940MOL0     N23965   0.217   9.567   7.067  0.6741 -0.1607 -0.0737
  940MOL0     C23966   0.179   9.567   6.929 -0.3212 -0.3662  0.1380
  940MOL0     C23967   0.052   9.523   6.924 -0.6191  0.2147 -0.4966
  940MOL0     C23968  -0.013   9.494   6.793 -0.6239  0.2193  0.5609
  940MOL0     C23969   0.047   9.365   6.725  0.4352  0.1645 -0.0533
  940MOL0     C23970  -0.018   9.337   6.589  0.7479  0.4118 -0.1776
  940MOL0     C23971  -0.148   9.261   6.587  0.0471 -0.8891  0.3156
  940MOL0     O23972  -0.212   9.292   6.462  0.3539 -0.0433  0.1359
  940MOL0     C23973  -0.347   9.266   6.443 -0.1519 -0.2981  0.4183
  940MOL0     C23974  -0.416   9.179   6.521  0.0088  0.3333  0.1382
  940MOL0     C23975  -0.553   9.137   6.496  0.3733 -0.0494 -0.6198
  940MOL0     C23976  -0.616   9.189   6.381  0.3565  0.5228  0.4903
  940MOL0     C23977  -0.753   9.144   6.333 -0.0254 -0.0667  1.4608
  940MOL0     O23978  -0.804   9.206   6.211  0.2931  0.2950  0.1467
  940MOL0     C23979  -0.918   9.159   6.146  0.0760 -0.4436 -0.6846
  940MOL0     C23980  -0.918   9.115   6.008 -0.6868  0.2132 -0.2990
  940MOL0     C23981  -1.027   9.074   5.939  0.5815 -0.4156  0.3813
  940MOL0     C23982  -1.153   9.068   6.005 -0.2745  0.6410 -0.1981
  940MOL0     O23983  -1.269   9.023   5.942  0.6208 -0.3889 -0.3876
  940MOL0     C23984  -1.275   9.016   5.796  0.5824  0.0609 -0.5704
  940MOL0     C23985  -1.420   8.969   5.762 -0.1768 -0.2052  0.1374
  940MOL0     C23986  -1.465   8.835   5.820 -0.0179  0.1514  0.3797
  940MOL0     C23987  -1.600   8.801   5.762  0.0366 -0.2940 -0.6626
  940MOL0     C23988  -1.715   8.864   5.839 -0.1529 -0.6468  1.0410
  940MOL0     C23989  -1.849   8.791   5.805 -0.3058  0.4929  0.4232
  940MOL0     C23990  -1.898   8.827   5.659 -0.6228  0.4908 -0.8770
  940MOL0     C23991  -2.030   8.759   5.629  0.4357  0.1379 -0.0880
  940MOL0    Cl23992  -2.086   8.829   5.480 -0.1403  0.2323  0.5209
  940MOL0     C23993  -1.149   9.099   6.147  0.1425  0.1018  1.2040
  940MOL0     C23994  -1.040   9.150   6.207 -0.5205 -0.4967 -0.7790
  940MOL0     O23995  -0.809   9.062   6.403  0.6056  0.1466  0.3215
  940MOL0     C23996  -0.537   9.279   6.299  0.7352  0.0139  1.3531
  940MOL0     C23997  -0.406   9.307   6.324 -0.2401 -0.8710  0.7821
  940MOL0     N23998   0.004   9.512   7.060 -0.4922 -0.2341 -0.2024
  940MOL0     N23999   0.107   9.539   7.139  0.2042 -0.7084  0.3178
  940MOL0     C24000   1.462   9.719   7.498 -0.1982 -0.0811  0.3618
  940MOL0     C24001   1.585   9.768   7.525 -0.0822 -0.6907  0.0748
  940MOL0     C24002   1.885  10.087   7.706 -0.1313 -0.3134  0.4310
  940MOL0     C24003   1.923  10.207   7.753 -0.1388 -0.6930  0.9969
  940MOL0     C24004   2.060  10.243   7.777 -0.3674  0.2013  0.2654
  940MOL0     C24005   2.163  10.148   7.763  0.4221  0.4143 -0.1559
  940MOL0     O24006   2.294  10.157   7.799 -0.4132 -0.0206 -0.1983
  940MOL0     C24007   2.340  10.289   7.848  0.2112  0.1588  0.1239
  940MOL0     C24008   2.488  10.280   7.879  0.8215  1.1677  0.0348
  940MOL0     C24009   2.547  10.403   7.944 -0.5559  0.8304 -0.1007
  940MOL0     C24010   2.700  10.372   7.970  0.2629 -0.2129 -0.2838
  940MOL0     C24011   2.765  10.491   8.011  0.1457  0.2471 -0.9177
  940MOL0     C24012   2.846  10.582   8.035 -0.1046  0.0838 -0.2350
  940MOL0     C24013   2.119  10.025   7.715  0.0830 -0.0695  0.8137
  940MOL0     C24014   1.989   9.998   7.678 -0.3520 -0.4138 -0.5853
  940MOL0     H24015   1.518  10.105   7.483 -0.5269 -0.2843  1.5286
  940MOL0     H24016   1.314  10.026   7.429  3.0280  1.7674 -0.2439
  940MOL0     H24017   1.139   9.897   7.330 -1.7425 -0.6988 -0.5295
  940MOL0     H24018   1.074   9.849   7.493 -0.5260  2.7031 -0.5545
  940MOL0     H24019   1.010   9.636   7.373  1.0560  0.9216  2.6338
  940MOL0     H24020   1.076   9.719   7.222 -1.1092  1.4391 -0.4287
  940MOL0     H24021   0.916   9.878   7.219  1.3223 -1.2293 -0.5543
  940MOL0     H24022   0.857   9.843   7.383 -0.9241  1.1497 -1.1927
  940MOL0     H24023   0.845   9.652   7.145 -0.2538  0.3264 -0.5510
  940MOL0     H24024   0.786   9.615   7.305  0.6242 -0.8304  0.0017
  940MOL0     H24025   0.667   9.816   7.119 -2.1495 -0.1628 -1.3829
  940MOL0     H24026   0.619   9.816   7.291 -1.4516  0.1612  0.0334
  940MOL0     H24027   0.570   9.555   7.274  0.8987 -2.1155 -0.9504
  940MOL0     H24028   0.624   9.568   7.106 -0.3901 -3.0527  1.7543
  940MOL0     H24029   0.391   9.685   7.258 -0.9325  0.2102 -0.7459
  940MOL0     H24030   0.408   9.726   7.082 -1.7699  1.8742  1.3122
  940MOL0     H24031   0.371   9.456   7.193  2.9775  0.5238  0.1115
  940MOL0     H24032   0.408   9.495   7.022  0.3312  3.0169 -0.4686
  940MOL0     H24033   0.247   9.561   6.845  1.4008 -2.9118  1.5624
  940MOL0     H24034   0.003   9.578   6.724  4.1813 -0.2756  0.7316
  940MOL0     H24035  -0.120   9.481   6.814 -1.4442  2.1784 -1.8441
  940MOL0     H24036   0.039   9.285   6.800  1.9659  0.6296  0.6400
  940MOL0     H24037   0.154   9.384   6.716  0.8858 -2.0910 -0.0760
  940MOL0     H24038  -0.039   9.435   6.546 -0.9426  0.5581  0.8880
  940MOL0     H24039   0.057   9.293   6.523  1.0112 -0.3736  0.6157
  940MOL0     H24040  -0.210   9.296   6.670 -3.0157 -1.8549 -1.3928
  940MOL0     H24041  -0.117   9.158   6.608  1.0829 -0.6688 -0.0541
  940MOL0     H24042  -0.371   9.138   6.611 -1.8265  1.7945  1.7970
  940MOL0     H24043  -0.593   9.071   6.572  1.4027 -0.3495 -0.3127
  940MOL0     H24044  -0.825   9.117   5.952 -0.3965  1.9064  0.1833
  940MOL0     H24045  -1.019   9.037   5.837 -0.2095 -0.8378  0.4689
  940MOL0     H24046  -1.194   8.947   5.772 -0.2978 -1.9128  1.7093
  940MOL0     H24047  -1.259   9.118   5.759  0.5184  0.9219  1.6343
  940MOL0     H24048  -1.435   8.974   5.654  1.5287 -1.7854 -0.2310
  940MOL0     H24049  -1.497   9.043   5.784 -0.2035 -0.4543  0.9023
  940MOL0     H24050  -1.467   8.836   5.929  1.3236 -1.5933  0.4770
  940MOL0     H24051  -1.395   8.757   5.787  0.1898  0.6761 -0.4435
  940MOL0     H24052  -1.600   8.828   5.656 -0.6120  0.3213 -0.5160
  940MOL0     H24053  -1.613   8.693   5.770 -0.6751 -0.0742  2.4864
  940MOL0     H24054  -1.723   8.969   5.810  0.2210 -0.4719  1.5572
  940MOL0     H24055  -1.698   8.867   5.947  0.2593 -0.0355  0.9692
  940MOL0     H24056  -1.927   8.816   5.877 -3.3044 -3.9551 -0.8324
  940MOL0     H24057  -1.832   8.684   5.822  3.4113  0.6672 -1.1326
  940MOL0     H24058  -1.912   8.935   5.669  0.1768  0.3991  2.4934
  940MOL0     H24059  -1.825   8.808   5.579  0.8635 -3.6594  1.1850
  940MOL0     H24060  -2.105   8.769   5.707 -1.4560 -1.1040 -1.6660
  940MOL0     H24061  -2.010   8.653   5.613  0.7174 -0.1214  1.7822
  940MOL0     H24062  -1.241   9.093   6.205  0.2981 -1.3513  1.3320
  940MOL0     H24063  -1.049   9.181   6.310  1.3507 -1.0837 -0.3894
  940MOL0     H24064  -0.572   9.316   6.204  0.9389  0.9508  1.6312
  940MOL0     H24065  -0.356   9.376   6.256 -0.7909 -0.4435  0.7979
  940MOL0     H24066   1.447   9.611   7.501 -0.1509 -0.0798  0.6454
  940MOL0     H24067   1.663   9.697   7.551  0.5844 -0.2978 -0.8124
  940MOL0     H24068   1.849  10.285   7.760  0.1135  0.2405 -3.5902
  940MOL0     H24069   2.080  10.347   7.803  0.0997  0.5102 -1.2401
  940MOL0     H24070   2.281  10.310   7.937 -1.7338 -0.9692 -0.8187
  940MOL0     H24071   2.316  10.369   7.777  0.1492  1.2079  1.3022
  940MOL0     H24072   2.504  10.199   7.951 -1.8840  1.5073  1.1317
  940MOL0     H24073   2.534  10.250   7.784  0.6907  0.2560  0.2541
  940MOL0     H24074   2.493  10.418   8.037 -0.0628 -0.8721  0.4907
  940MOL0     H24075   2.536  10.485   7.871  0.0118 -2.9910 -5.0192
  940MOL0     H24076   2.719  10.286   8.036 -1.9782 -0.3209  0.2811
  940MOL0     H24077   2.743  10.340   7.875 -2.0727 -2.6939 -0.6098
  940MOL0     H24078   2.912  10.661   8.066 -0.8883 -0.8318  4.5801
  940MOL0     H24079   2.188   9.942   7.702 -0.6378 -0.5760  0.1445
  940MOL0     H24080   1.963   9.901   7.637  2.5377 -1.2300 -0.7012
  941MOL0     O24081   3.138   6.142   4.302  0.0914  0.3601  0.0800
  941MOL0     C24082   3.083   6.106   4.198 -0.0912 -0.1023 -0.5256
  941MOL0     O24083   3.149   6.036   4.094 -0.0497 -0.4038  0.0991
  941MOL0     C24084   3.287   6.016   4.095 -0.2382  0.3361 -0.4672
  941MOL0     C24085   3.344   5.958   4.206 -0.7170 -0.2688 -0.2279
  941MOL0     C24086   3.486   5.948   4.219  0.1515 -0.3892  0.7201
  941MOL0     C24087   3.572   6.008   4.126  0.3397 -0.5219 -0.9855
  941MOL0     O24088   3.707   6.010   4.149 -0.0673 -0.0170 -0.0458
  941MOL0     C24089   3.756   5.876   4.136 -0.4781 -0.5599  0.2853
  941MOL0     C24090   3.909   5.880   4.163 -0.2055 -0.2427 -0.3996
  941MOL0     C24091   3.956   5.737   4.120  0.8355 -0.8894  0.0725
  941MOL0     C24092   4.110   5.727   4.150  1.3998 -0.4195 -0.3724
  941MOL0     C24093   4.150   5.586   4.123  0.1755  0.3584  0.0915
  941MOL0     C24094   4.140   5.539   3.982  0.1820 -0.3862  1.0328
  941MOL0     C24095   4.239   5.631   3.895  0.4059  0.1718  0.2007
  941MOL0     C24096   4.383   5.603   3.921  0.0416 -0.2481  0.1526
  941MOL0     N24097   4.473   5.658   3.812  0.5053  0.0926 -0.7856
  941MOL0     C24098   4.492   5.602   3.692  0.3259  0.1264 -0.2426
  941MOL0     C24099   4.549   5.700   3.615 -0.2190 -0.1633 -0.1161
  941MOL0     C24100   4.604   5.719   3.477  0.4773  0.1841 -0.0795
  941MOL0     C24101   4.524   5.818   3.393  0.6693 -0.4882 -0.1743
  941MOL0     C24102   4.377   5.771   3.369  0.9310  0.6441  0.0090
  941MOL0     C24103   4.289   5.875   3.307 -0.6759 -0.1886 -0.2708
  941MOL0     O24104   4.288   5.868   3.168 -0.5506 -0.1695 -0.2261
  941MOL0     C24105   4.163   5.838   3.108 -0.5541  0.7573 -0.6137
  941MOL0     C24106   4.126   5.703   3.077  0.3615  1.0276  0.8798
  941MOL0     C24107   3.999   5.677   3.015 -0.1144 -1.3254  0.6846
  941MOL0     C24108   3.914   5.786   2.980 -0.3262  0.6593 -0.0050
  941MOL0     C24109   3.785   5.762   2.908 -0.9094  0.2995  0.4243
  941MOL0     O24110   3.742   5.638   2.880  0.4172  0.3663  0.4482
  941MOL0     C24111   3.630   5.599   2.814 -0.3741 -0.1703  0.4590
  941MOL0     C24112   3.574   5.482   2.866  0.4602  0.0755 -0.0034
  941MOL0     C24113   3.453   5.433   2.818 -0.1299 -0.1823 -0.8138
  941MOL0     C24114   3.384   5.493   2.715 -0.1812  0.1902 -0.9415
  941MOL0     O24115   3.261   5.439   2.677  0.2566  0.0776  0.0882
  941MOL0     C24116   3.199   5.491   2.558 -0.4356 -0.3383 -0.8544
  941MOL0     C24117   3.063   5.422   2.561 -0.4165 -0.0950 -0.0943
  941MOL0     C24118   2.970   5.498   2.467 -0.1112  0.6086 -0.5154
  941MOL0     C24119   2.825   5.453   2.493  0.2905 -0.1927  0.0308
  941MOL0     C24120   2.719   5.502   2.399 -0.4475 -0.2109  0.6583
  941MOL0     C24121   2.582   5.465   2.442  0.0321 -0.0789  0.7828
  941MOL0     C24122   2.566   5.315   2.455  0.0007 -0.6518 -0.1656
  941MOL0     C24123   2.421   5.268   2.426 -0.2801 -0.0294 -1.5334
  941MOL0    Cl24124   2.355   5.304   2.265  0.4304 -0.0439  0.1412
  941MOL0     C24125   3.440   5.618   2.664  0.1207  1.0647 -0.4317
  941MOL0     C24126   3.563   5.663   2.707 -0.4483 -0.1183 -0.2791
  941MOL0     O24127   3.728   5.863   2.872 -0.3487  0.7196 -0.2505
  941MOL0     C24128   3.956   5.918   3.020  0.1082  1.2099  0.1375
  941MOL0     C24129   4.075   5.937   3.086 -0.2995 -0.2323  0.1240
  941MOL0     N24130   4.570   5.814   3.697  0.1074 -0.0384 -0.5786
  941MOL0     N24131   4.510   5.790   3.809 -0.2474  0.3709 -0.5258
  941MOL0     C24132   3.512   6.072   4.014  0.0321  0.5594  0.2179
  941MOL0     C24133   3.369   6.077   3.997  0.5462  0.1896  0.1245
  941MOL0     C24134   2.936   6.146   4.180  0.3667 -0.3556 -0.1856
  941MOL0     C24135   2.883   6.117   4.057  0.4528 -0.8496  0.8121
  941MOL0     C24136   2.766   6.186   4.010  0.8191 -0.1603  0.4455
  941MOL0     C24137   2.696   6.269   4.096  0.2334 -0.0804  0.5031
  941MOL0     O24138   2.578   6.302   4.043  0.3169  0.0696 -0.0415
  941MOL0     C24139   2.525   6.433   4.082  0.1167 -0.1180 -0.5918
  941MOL0     C24140   2.433   6.499   3.983 -0.1386 -0.1090  0.5951
  941MOL0     C24141   2.308   6.423   3.939 -0.5482 -0.2963  0.3234
  941MOL0     C24142   2.223   6.365   4.055  0.3310  0.2653  0.3535
  941MOL0     C24143   2.107   6.286   4.016  0.3025 -0.0020 -0.0491
  941MOL0     C24144   2.020   6.212   3.975  0.8456  0.7903 -0.4902
  941MOL0     C24145   2.737   6.288   4.230 -0.7023  0.9736 -0.1206
  941MOL0     C24146   2.857   6.227   4.271 -0.4296 -0.0291 -0.5737
  941MOL0     H24147   3.289   5.907   4.284 -0.1599 -1.5527 -0.6295
  941MOL0     H24148   3.521   5.894   4.306 -0.3238 -1.8208  0.0658
  941MOL0     H24149   3.748   5.848   4.030  0.0463  1.3305 -0.3089
  941MOL0     H24150   3.694   5.815   4.202  0.2275 -0.2859  1.2147
  941MOL0     H24151   3.927   5.894   4.270 -1.1805 -0.2711 -0.2262
  941MOL0     H24152   3.959   5.957   4.104  0.1817  0.3049  0.6163
  941MOL0     H24153   3.920   5.716   4.019  1.1851  2.0527 -0.7849
  941MOL0     H24154   3.902   5.664   4.181  0.3980 -1.9973 -1.5878
  941MOL0     H24155   4.168   5.797   4.089  2.0881 -0.3397  0.3605
  941MOL0     H24156   4.120   5.742   4.257 -0.3407  0.8411 -0.3290
  941MOL0     H24157   4.093   5.511   4.179 -0.5284 -0.6732 -1.9159
  941MOL0     H24158   4.251   5.579   4.165  0.0989  1.8280  0.5783
  941MOL0     H24159   4.037   5.547   3.946  0.3714 -0.1775  0.5263
  941MOL0     H24160   4.161   5.432   3.984  1.9192 -0.1031  0.0571
  941MOL0     H24161   4.209   5.614   3.791 -0.3660  2.1347  0.0542
  941MOL0     H24162   4.217   5.737   3.912 -1.3632 -0.3247  1.2526
  941MOL0     H24163   4.395   5.496   3.943 -0.5923 -0.3725 -0.0913
  941MOL0     H24164   4.415   5.654   4.013  2.2232  1.2223 -1.3352
  941MOL0     H24165   4.462   5.503   3.658 -0.6064  0.5608 -0.7227
  941MOL0     H24166   4.598   5.628   3.417 -1.1712  0.3883 -0.2725
  941MOL0     H24167   4.705   5.759   3.483  1.5465 -1.6449 -3.3032
  941MOL0     H24168   4.568   5.822   3.293  2.9125  2.6278  0.7733
  941MOL0     H24169   4.519   5.918   3.437 -2.3598 -0.2274 -0.8639
  941MOL0     H24170   4.383   5.685   3.301 -2.7011  1.1003 -1.1107
  941MOL0     H24171   4.324   5.742   3.460 -0.9781  0.8887 -0.9688
  941MOL0     H24172   4.333   5.972   3.334  1.9280 -0.8213 -1.8834
  941MOL0     H24173   4.185   5.876   3.340 -0.5877 -0.1530  0.0149
  941MOL0     H24174   4.186   5.613   3.083  0.2312  0.9556  1.1046
  941MOL0     H24175   3.983   5.577   2.976 -0.5158  0.2055 -3.7001
  941MOL0     H24176   3.608   5.427   2.954 -0.7046 -0.8857 -0.1177
  941MOL0     H24177   3.418   5.348   2.876 -1.3673  0.4213 -0.6383
  941MOL0     H24178   3.253   5.473   2.464  0.2747 -0.6746 -0.3929
  941MOL0     H24179   3.168   5.593   2.579  1.3376 -0.3282  2.5026
  941MOL0     H24180   3.032   5.429   2.665  0.8486 -0.3604  0.3196
  941MOL0     H24181   3.083   5.316   2.541 -0.1009  0.0377 -0.5207
  941MOL0     H24182   2.995   5.467   2.365 -1.5681  1.3005 -1.1155
  941MOL0     H24183   2.967   5.607   2.481 -3.3691  0.4200  1.1214
  941MOL0     H24184   2.818   5.344   2.501 -0.0908 -0.1167  0.7631
  941MOL0     H24185   2.797   5.495   2.590 -2.5318 -0.6150 -0.5025
  941MOL0     H24186   2.730   5.475   2.293 -0.0682  0.9833  0.3806
  941MOL0     H24187   2.715   5.610   2.413 -0.1135 -0.1889  0.5998
  941MOL0     H24188   2.513   5.496   2.363  1.0686  1.0840  0.2971
  941MOL0     H24189   2.560   5.516   2.536 -1.3400  0.4871  0.1818
  941MOL0     H24190   2.628   5.265   2.380  0.0632 -1.2340  0.2704
  941MOL0     H24191   2.601   5.290   2.555 -0.5343 -2.3522 -0.3611
  941MOL0     H24192   2.349   5.298   2.502  3.2684  0.4619  1.9253
  941MOL0     H24193   2.430   5.160   2.440  0.4836  0.2392  0.3452
  941MOL0     H24194   3.401   5.670   2.577  0.7266  1.3510 -0.5337
  941MOL0     H24195   3.610   5.751   2.665  0.7011 -0.6829 -0.2289
  941MOL0     H24196   3.891   6.002   2.998 -2.0815  0.2178  2.3206
  941MOL0     H24197   4.101   6.036   3.122  0.1000 -0.2298 -0.1762
  941MOL0     H24198   3.573   6.122   3.940  2.0286 -0.9859  0.7108
  941MOL0     H24199   3.311   6.129   3.921 -0.6412 -0.7358  0.3759
  941MOL0     H24200   2.939   6.060   3.984 -1.5441 -2.1253  0.1682
  941MOL0     H24201   2.743   6.181   3.904 -1.4668  0.8554  0.8332
  941MOL0     H24202   2.608   6.502   4.100 -0.0059 -0.1259  0.0445
  941MOL0     H24203   2.473   6.412   4.176 -1.3031 -1.0390 -1.5486
  941MOL0     H24204   2.404   6.599   4.019  1.0613  0.2620  0.5663
  941MOL0     H24205   2.497   6.520   3.897  0.6281  1.3620  1.4814
  941MOL0     H24206   2.341   6.339   3.877 -0.8075 -1.4812  1.7306
  941MOL0     H24207   2.248   6.494   3.881 -0.4453 -0.3171  0.1903
  941MOL0     H24208   2.282   6.297   4.117 -2.5395  0.4088  3.5657
  941MOL0     H24209   2.184   6.442   4.122  1.0809  2.0374 -1.1789
  941MOL0     H24210   1.951   6.148   3.926  0.8291  0.2894  0.1748
  941MOL0     H24211   2.696   6.356   4.303  0.6332  0.5807  1.0534
  941MOL0     H24212   2.901   6.251   4.368  0.7267  2.0582 -1.5443
  942MOL0     O24213   5.888   8.810   0.496 -0.4894 -0.0560 -0.8049
  942MOL0     C24214   5.943   8.910   0.473 -1.2512 -0.1581  0.3968
  942MOL0     O24215   5.882   9.032   0.463  0.1589 -0.1268  0.2219
  942MOL0     C24216   5.770   9.048   0.538 -0.1062 -0.3783  1.0940
  942MOL0     C24217   5.655   9.078   0.455 -0.4790 -0.5146 -0.5556
  942MOL0     C24218   5.536   9.093   0.530  0.9210  0.6037 -0.0217
  942MOL0     C24219   5.521   9.073   0.666 -0.0233  0.5777  0.7118
  942MOL0     O24220   5.410   9.103   0.741 -0.4364 -0.6523 -0.7224
  942MOL0     C24221   5.284   9.116   0.680 -0.8597 -0.4091 -0.3723
  942MOL0     C24222   5.168   9.095   0.782 -0.2354 -1.1395 -0.5339
  942MOL0     C24223   5.028   9.106   0.710 -0.6779  0.2711 -0.0004
  942MOL0     C24224   4.907   9.095   0.801  0.5121 -0.0637 -0.4452
  942MOL0     C24225   4.788   9.065   0.714  1.0913 -0.6079  0.5083
  942MOL0     C24226   4.652   9.080   0.795 -0.9419 -0.6104  0.0901
  942MOL0     C24227   4.524   9.065   0.709 -0.4598 -0.2519 -0.2585
  942MOL0     C24228   4.517   8.925   0.658 -0.3951 -0.1756 -0.5695
  942MOL0     N24229   4.381   8.897   0.605 -0.2518  0.1757  0.0875
  942MOL0     C24230   4.329   8.966   0.495  0.1112  0.5521 -0.2687
  942MOL0     C24231   4.193   8.935   0.495  0.3492 -0.0296 -0.4387
  942MOL0     C24232   4.106   8.986   0.385 -0.4043 -0.0421 -0.5739
  942MOL0     C24233   3.962   9.021   0.440  0.9274  0.9203 -0.0651
  942MOL0     C24234   3.968   9.147   0.529 -0.2862  0.4036 -0.6568
  942MOL0     C24235   3.837   9.211   0.567  0.1293 -0.4554 -0.0861
  942MOL0     O24236   3.787   9.126   0.669  0.5306  0.2060 -1.0266
  942MOL0     C24237   3.648   9.148   0.695 -0.2523 -0.4162 -0.5458
  942MOL0     C24238   3.542   9.086   0.620  1.1463  0.9190 -0.1424
  942MOL0     C24239   3.408   9.111   0.656 -0.9789 -0.0329  0.9465
  942MOL0     C24240   3.373   9.216   0.750 -0.3823 -0.2154  0.2142
  942MOL0     C24241   3.233   9.258   0.777 -0.1384  0.4148 -0.5186
  942MOL0     O24242   3.202   9.348   0.870 -0.7370  0.4013  0.2038
  942MOL0     C24243   3.072   9.382   0.903  0.4689  0.1333  0.6488
  942MOL0     C24244   2.953   9.319   0.873 -0.2135  0.6410  0.3305
  942MOL0     C24245   2.828   9.351   0.931  0.0632  0.2573  0.2954
  942MOL0     C24246   2.824   9.459   1.023  0.2090  0.3173 -0.5848
  942MOL0     O24247   2.705   9.506   1.075  0.3149 -0.2848  0.6117
  942MOL0     C24248   2.573   9.442   1.045 -0.3177  0.3689 -0.2411
  942MOL0     C24249   2.471   9.521   1.114  0.4258 -0.2628 -0.3480
  942MOL0     C24250   2.327   9.459   1.100  0.1542 -0.5473  0.6364
  942MOL0     C24251   2.211   9.541   1.154 -0.2725  0.0193  0.6027
  942MOL0     C24252   2.092   9.449   1.145  0.4801 -0.0467  1.0747
  942MOL0     C24253   1.963   9.518   1.199  0.2109  0.1542  0.0382
  942MOL0     C24254   1.842   9.427   1.154 -0.2069  0.0861  1.1259
  942MOL0     C24255   1.723   9.444   1.244 -0.0068 -0.1077  0.4217
  942MOL0    Cl24256   1.751   9.424   1.417  0.1904 -0.2276  0.3533
  942MOL0     C24257   2.947   9.529   1.055 -1.0560  0.3783 -0.1642
  942MOL0     C24258   3.064   9.483   0.996  0.0842  0.8642 -0.0587
  942MOL0     O24259   3.158   9.192   0.709  0.4191 -0.0798 -0.2810
  942MOL0     C24260   3.473   9.274   0.827 -0.3106  0.0418 -0.1608
  942MOL0     C24261   3.602   9.232   0.799 -0.3248 -0.5119  0.4685
  942MOL0     N24262   4.166   8.843   0.603  0.9380  0.6821 -0.6477
  942MOL0     N24263   4.280   8.827   0.667  0.5087 -0.1532  0.5629
  942MOL0     C24264   5.629   9.026   0.737 -0.4316 -0.4635  1.1332
  942MOL0     C24265   5.753   9.010   0.673 -0.2130 -0.6247 -0.1884
  942MOL0     C24266   6.086   8.902   0.436 -0.3247  0.9597  0.2273
  942MOL0     C24267   6.158   8.786   0.396 -0.3819  0.3331 -0.2987
  942MOL0     C24268   6.292   8.792   0.360  0.0821 -0.3109 -0.9163
  942MOL0     C24269   6.367   8.913   0.366 -0.8429  0.2276  0.0804
  942MOL0     O24270   6.500   8.899   0.330 -0.1297 -0.4414  0.0991
  942MOL0     C24271   6.591   9.010   0.315  0.4947 -0.0647 -0.4282
  942MOL0     C24272   6.734   8.958   0.321 -0.5537 -0.0856 -0.3976
  942MOL0     C24273   6.777   8.907   0.455 -0.2620  0.3647  0.1736
  942MOL0     C24274   6.725   8.769   0.492 -0.0045  0.1358 -0.3709
  942MOL0     C24275   6.822   8.691   0.567  0.4668  0.0194  0.5087
  942MOL0     C24276   6.908   8.607   0.610  0.9632 -0.1429 -0.5439
  942MOL0     C24277   6.298   9.030   0.397  0.0132 -0.0625  0.3867
  942MOL0     C24278   6.166   9.022   0.428 -0.2563  0.3664  0.6407
  942MOL0     H24279   5.661   9.091   0.347 -2.1090  3.2920 -0.3445
  942MOL0     H24280   5.443   9.127   0.486 -0.6482 -0.3170  2.3758
  942MOL0     H24281   5.281   9.048   0.595  0.5644  0.1048 -0.8578
  942MOL0     H24282   5.265   9.221   0.655 -3.4205 -0.8443 -0.5959
  942MOL0     H24283   5.172   9.180   0.851 -0.8448 -1.3309 -0.2536
  942MOL0     H24284   5.182   8.996   0.826  2.0770 -0.4680  0.3755
  942MOL0     H24285   5.013   9.026   0.637  1.1628  0.4272 -0.5803
  942MOL0     H24286   5.028   9.202   0.657 -0.7536  0.4289  0.2804
  942MOL0     H24287   4.911   9.014   0.874 -4.4302 -2.0417 -1.9398
  942MOL0     H24288   4.904   9.191   0.853  0.5645 -1.1128  1.5586
  942MOL0     H24289   4.806   8.961   0.686  1.5438 -0.1987 -0.7839
  942MOL0     H24290   4.783   9.141   0.636  1.3123  1.7014  2.6096
  942MOL0     H24291   4.657   9.179   0.842  3.2025 -1.1795  1.2924
  942MOL0     H24292   4.657   9.004   0.873  1.1467  0.3007  0.9027
  942MOL0     H24293   4.438   9.085   0.773  0.9130  3.4067  0.6758
  942MOL0     H24294   4.521   9.143   0.633 -2.6636 -0.7726 -0.7887
  942MOL0     H24295   4.542   8.864   0.746  0.9979  2.3619  0.9263
  942MOL0     H24296   4.598   8.903   0.589  2.2359 -2.4574  2.8834
  942MOL0     H24297   4.379   9.040   0.433  0.0997  0.8392  0.0604
  942MOL0     H24298   4.101   8.911   0.306 -1.0692 -0.8368  0.2042
  942MOL0     H24299   4.150   9.078   0.344 -2.6996  2.4698  2.1090
  942MOL0     H24300   3.932   8.935   0.501  0.3883 -0.2980 -1.9497
  942MOL0     H24301   3.901   9.034   0.350 -2.5224 -0.3193  1.9032
  942MOL0     H24302   4.029   9.125   0.617  1.5076  0.8736 -1.7176
  942MOL0     H24303   4.016   9.232   0.479  0.2792  1.4664  1.5360
  942MOL0     H24304   3.778   9.231   0.477 -0.5734  3.9001  1.0970
  942MOL0     H24305   3.864   9.306   0.613  2.4511 -1.3452  0.5140
  942MOL0     H24306   3.555   9.018   0.537  0.4211 -0.7753  1.0712
  942MOL0     H24307   3.334   9.071   0.588 -0.4031  1.6350 -0.7604
  942MOL0     H24308   2.949   9.236   0.803 -3.2675  1.7863 -1.0200
  942MOL0     H24309   2.746   9.283   0.905 -0.5011  1.1026 -0.1709
  942MOL0     H24310   2.569   9.341   1.087  1.4684  0.4764  0.2791
  942MOL0     H24311   2.551   9.439   0.938  1.1681 -0.7300 -0.5542
  942MOL0     H24312   2.473   9.616   1.058  4.3313  0.6605  1.0893
  942MOL0     H24313   2.499   9.543   1.217 -0.4117 -1.0894  0.0635
  942MOL0     H24314   2.319   9.370   1.163 -1.2792 -0.3491  0.7628
  942MOL0     H24315   2.303   9.433   0.996  1.8887  3.1571 -0.8954
  942MOL0     H24316   2.233   9.560   1.259  0.0591  0.2766  0.4887
  942MOL0     H24317   2.191   9.629   1.092 -0.1594 -0.8097 -0.6485
  942MOL0     H24318   2.114   9.368   1.214  1.4072 -0.1419  0.6736
  942MOL0     H24319   2.072   9.411   1.044  1.8179 -1.6154  1.3645
  942MOL0     H24320   1.951   9.617   1.153 -0.8911  0.1213  0.2145
  942MOL0     H24321   1.970   9.522   1.309 -0.9273 -2.6710  0.3052
  942MOL0     H24322   1.818   9.451   1.051  3.7191 -1.2202 -0.2939
  942MOL0     H24323   1.869   9.321   1.152 -0.0650  0.1085 -1.6931
  942MOL0     H24324   1.667   9.355   1.215  2.4937 -1.5506 -0.2935
  942MOL0     H24325   1.668   9.535   1.216  0.7628  0.2677  0.0981
  942MOL0     H24326   2.957   9.618   1.116  1.4737  2.2442 -2.9993
  942MOL0     H24327   3.154   9.541   1.012 -0.8248  2.2765  0.1031
  942MOL0     H24328   3.456   9.347   0.905  1.5554 -0.5042  0.8345
  942MOL0     H24329   3.678   9.286   0.854 -0.3824  0.4758 -0.3866
  942MOL0     H24330   5.614   9.019   0.844 -2.0909  2.5324  1.1904
  942MOL0     H24331   5.836   8.982   0.737 -1.7875 -0.1182  2.1713
  942MOL0     H24332   6.101   8.693   0.395 -0.9367  0.6683 -0.2443
  942MOL0     H24333   6.353   8.716   0.314  3.1576  1.4458 -0.0419
  942MOL0     H24334   6.575   9.082   0.396 -2.8272  0.4626 -1.4192
  942MOL0     H24335   6.576   9.059   0.219 -0.6304  1.9227  0.6944
  942MOL0     H24336   6.734   8.874   0.251  0.2530 -0.7780  0.4078
  942MOL0     H24337   6.793   9.044   0.289 -1.0171 -0.0810 -1.2746
  942MOL0     H24338   6.768   8.989   0.528  4.2951  1.1076  0.2057
  942MOL0     H24339   6.886   8.897   0.446  0.0562  1.6009  1.9684
  942MOL0     H24340   6.627   8.781   0.539 -0.4099 -1.9331 -0.5924
  942MOL0     H24341   6.710   8.709   0.402 -0.1096  0.5086 -0.6051
  942MOL0     H24342   6.989   8.543   0.637  0.8923 -0.3476 -0.8083
  942MOL0     H24343   6.348   9.126   0.390 -2.3833  1.1896 -1.7047
  942MOL0     H24344   6.113   9.116   0.443 -2.8187 -0.8062 -0.4933
  943MOL0     O24345   5.780   2.657   2.177 -0.1640 -0.0901  0.1407
  943MOL0     C24346   5.848   2.572   2.245 -0.0831 -0.7453  0.0296
  943MOL0     O24347   5.807   2.509   2.360 -0.8528 -0.0617  0.2010
  943MOL0     C24348   5.677   2.519   2.393 -0.3853  0.3732 -0.2525
  943MOL0     C24349   5.632   2.402   2.464 -0.3613 -0.9220 -0.4463
  943MOL0     C24350   5.500   2.384   2.490  0.0393 -0.9162  0.2043
  943MOL0     C24351   5.406   2.484   2.469  0.1458  0.0576  0.2726
  943MOL0     O24352   5.278   2.471   2.506  0.2589  0.6459 -0.5251
  943MOL0     C24353   5.235   2.530   2.631 -0.9235 -0.6361  0.4248
  943MOL0     C24354   5.090   2.498   2.670  0.0431  0.1395  0.8633
  943MOL0     C24355   4.992   2.504   2.549 -0.3670  0.0014  0.3142
  943MOL0     C24356   4.848   2.464   2.577 -0.1652  0.7452  0.0872
  943MOL0     C24357   4.778   2.547   2.687 -0.3881  0.7069  0.2634
  943MOL0     C24358   4.632   2.536   2.652 -0.1480 -1.1301  0.3056
  943MOL0     C24359   4.551   2.620   2.750 -0.6708 -0.0780 -0.2285
  943MOL0     C24360   4.424   2.539   2.791  0.3361  0.1939 -0.0740
  943MOL0     N24361   4.321   2.610   2.875  0.4431  0.0310  0.0120
  943MOL0     C24362   4.269   2.733   2.839  0.0872 -0.2514 -0.2618
  943MOL0     C24363   4.195   2.769   2.946 -0.2090  1.1384  0.5708
  943MOL0     C24364   4.119   2.895   2.957  0.2085  0.1487 -0.5199
  943MOL0     C24365   3.976   2.891   2.916  0.8206  0.1440  0.1909
  943MOL0     C24366   3.973   2.899   2.762  0.9715  0.0729  0.2418
  943MOL0     C24367   3.825   2.912   2.718 -0.3152 -0.2614 -0.7839
  943MOL0     O24368   3.792   3.053   2.723 -0.0818 -0.0021  0.1763
  943MOL0     C24369   3.658   3.069   2.706  0.9960 -0.3391  0.2088
  943MOL0     C24370   3.628   3.203   2.698 -1.0194 -0.0046  0.0877
  943MOL0     C24371   3.503   3.249   2.673  0.2011 -0.0487  0.5630
  943MOL0     C24372   3.391   3.154   2.656 -0.2450 -0.3336  0.4426
  943MOL0     C24373   3.261   3.204   2.626  0.0897 -0.3940  0.7504
  943MOL0     O24374   3.158   3.121   2.634 -0.3728 -0.0488  0.7635
  943MOL0     C24375   3.033   3.169   2.601 -0.3934 -0.8128  0.0626
  943MOL0     C24376   2.955   3.252   2.688 -0.8066 -0.8226  0.5299
  943MOL0     C24377   2.817   3.272   2.660 -0.2862 -0.5153 -0.7495
  943MOL0     C24378   2.765   3.223   2.545 -0.5269 -0.5253  0.2356
  943MOL0     O24379   2.629   3.250   2.519 -0.1421 -0.3266 -0.4280
  943MOL0     C24380   2.551   3.133   2.502  0.8420 -0.0177  0.1518
  943MOL0     C24381   2.415   3.156   2.436 -0.5888  0.0428 -0.1974
  943MOL0     C24382   2.308   3.225   2.516 -0.3064  0.8712 -0.1987
  943MOL0     C24383   2.192   3.285   2.436 -0.6043 -0.3716  0.9311
  943MOL0     C24384   2.072   3.326   2.525  0.5906 -0.0224 -0.8075
  943MOL0     C24385   1.943   3.342   2.442 -0.3285  0.1036  0.9794
  943MOL0     C24386   1.834   3.364   2.538 -0.1356 -0.2580  0.1337
  943MOL0     C24387   1.695   3.392   2.473 -0.3753  0.5463 -0.6491
  943MOL0    Cl24388   1.566   3.378   2.593 -0.0987 -0.0927  0.1664
  943MOL0     C24389   2.844   3.157   2.454 -0.3005  1.1490 -0.0583
  943MOL0     C24390   2.977   3.120   2.486  0.2337  0.2035  0.7073
  943MOL0     O24391   3.247   3.328   2.609 -0.4205  0.0241 -0.1500
  943MOL0     C24392   3.417   3.020   2.678 -0.0890  0.1308 -0.1829
  943MOL0     C24393   3.555   2.979   2.697 -0.2591  0.5803  0.1939
  943MOL0     N24394   4.218   2.688   3.054 -0.4604  0.2194 -0.0351
  943MOL0     N24395   4.286   2.589   3.007  0.2136  0.3252  0.1909
  943MOL0     C24396   5.454   2.606   2.414  0.1789 -0.6189  0.1599
  943MOL0     C24397   5.587   2.627   2.376 -0.5163  0.1393 -0.1522
  943MOL0     C24398   5.982   2.531   2.199  0.4274 -0.1049  0.7244
  943MOL0     C24399   6.030   2.591   2.078  0.2914 -0.6634  0.3204
  943MOL0     C24400   6.166   2.568   2.039  1.2805  0.0388 -0.7207
  943MOL0     C24401   6.236   2.474   2.107  0.6373  0.7200 -0.7948
  943MOL0     O24402   6.364   2.444   2.062  0.2188 -0.4700  0.3020
  943MOL0     C24403   6.455   2.531   1.985  0.6052 -0.3309 -0.9351
  943MOL0     C24404   6.526   2.640   2.065 -0.2694 -0.2679  0.0744
  943MOL0     C24405   6.652   2.592   2.128 -0.1790 -0.1624  0.5746
  943MOL0     C24406   6.627   2.528   2.264  1.1608  1.0401 -1.6295
  943MOL0     C24407   6.747   2.490   2.339 -0.4525  0.1777 -0.0893
  943MOL0     C24408   6.851   2.475   2.400 -0.5518  1.1008 -0.3030
  943MOL0     C24409   6.195   2.408   2.219 -0.2539  0.4496 -0.2789
  943MOL0     C24410   6.067   2.439   2.262  0.2067  0.5434 -0.1036
  943MOL0     H24411   5.695   2.317   2.489  1.0739 -0.2498 -1.5685
  943MOL0     H24412   5.467   2.292   2.536 -0.1372 -0.2089  1.5505
  943MOL0     H24413   5.246   2.639   2.626  2.9304 -0.8730  1.0372
  943MOL0     H24414   5.300   2.493   2.711  1.0903 -1.8444 -1.6737
  943MOL0     H24415   5.063   2.575   2.743 -0.3487  1.7277 -0.8381
  943MOL0     H24416   5.094   2.398   2.713 -0.7209 -0.6214 -0.7499
  943MOL0     H24417   5.035   2.438   2.474 -2.8419 -0.7107 -0.5683
  943MOL0     H24418   4.996   2.604   2.504  0.3086 -0.2019 -0.1047
  943MOL0     H24419   4.792   2.476   2.484  0.7352  0.2724 -0.5309
  943MOL0     H24420   4.849   2.358   2.605  1.5429  0.2915 -1.5284
  943MOL0     H24421   4.809   2.653   2.686 -1.0288  0.9692  2.3818
  943MOL0     H24422   4.806   2.512   2.786 -0.6411 -0.8602 -0.1965
  943MOL0     H24423   4.598   2.433   2.661 -1.1953 -0.8209  0.0852
  943MOL0     H24424   4.612   2.577   2.552 -0.9952  0.0406  0.9246
  943MOL0     H24425   4.612   2.634   2.840  0.0824 -0.3919 -0.6841
  943MOL0     H24426   4.513   2.714   2.708 -3.7521 -0.1664  1.9724
  943MOL0     H24427   4.448   2.446   2.842  1.9077  2.1883  3.1677
  943MOL0     H24428   4.388   2.511   2.692  1.4374 -0.1684 -0.3937
  943MOL0     H24429   4.284   2.785   2.745 -0.0612  0.9056  0.3450
  943MOL0     H24430   4.168   2.967   2.891  0.3698 -2.0698 -3.0148
  943MOL0     H24431   4.131   2.936   3.057  1.4906 -0.5719 -0.3617
  943MOL0     H24432   3.919   2.972   2.963  1.0341 -0.9868  2.5824
  943MOL0     H24433   3.934   2.792   2.935  0.0504  0.6268  1.1314
  943MOL0     H24434   4.035   2.979   2.720  1.1598 -1.0784 -1.8264
  943MOL0     H24435   4.020   2.806   2.730 -0.1693 -0.7187  0.8142
  943MOL0     H24436   3.761   2.852   2.784  0.9525  1.4852  2.2443
  943MOL0     H24437   3.819   2.884   2.612  1.5985 -1.4005 -0.6436
  943MOL0     H24438   3.714   3.269   2.690 -0.8961 -0.4135 -2.9319
  943MOL0     H24439   3.496   3.357   2.661  1.4412 -0.1600 -1.9789
  943MOL0     H24440   3.009   3.281   2.778  2.0558 -2.6169 -0.4891
  943MOL0     H24441   2.743   3.307   2.732 -0.0753 -2.2517  0.3752
  943MOL0     H24442   2.535   3.074   2.592 -1.2692  1.6013  0.9122
  943MOL0     H24443   2.602   3.060   2.438 -0.5615  0.1800 -1.2621
  943MOL0     H24444   2.378   3.055   2.417 -1.0866 -0.2947  2.1560
  943MOL0     H24445   2.442   3.202   2.341  0.4958 -2.6158 -1.2639
  943MOL0     H24446   2.357   3.298   2.581  3.1408  0.9528 -2.6185
  943MOL0     H24447   2.266   3.150   2.584 -0.2123  2.8282  2.1840
  943MOL0     H24448   2.234   3.372   2.385  1.5232 -2.5209 -1.2042
  943MOL0     H24449   2.166   3.207   2.364  0.6939 -3.0785  3.1777
  943MOL0     H24450   2.100   3.425   2.560  0.2618  1.2148 -3.7736
  943MOL0     H24451   2.058   3.249   2.602 -0.6452  0.0703 -0.9144
  943MOL0     H24452   1.921   3.258   2.376 -0.6409  1.1341 -0.2757
  943MOL0     H24453   1.951   3.431   2.378 -0.9127 -0.5491 -0.0224
  943MOL0     H24454   1.832   3.277   2.604  0.1037 -0.8256 -0.5900
  943MOL0     H24455   1.857   3.451   2.601  0.9816 -0.3183 -0.1690
  943MOL0     H24456   1.673   3.324   2.390  2.3359  1.9219 -2.6775
  943MOL0     H24457   1.703   3.495   2.437  3.8587  0.5394 -0.2961
  943MOL0     H24458   2.799   3.124   2.361 -3.2372  2.1167  0.8925
  943MOL0     H24459   3.039   3.052   2.427 -1.2673 -0.0476 -0.6401
  943MOL0     H24460   3.339   2.946   2.690 -0.9737  0.5377 -2.7508
  943MOL0     H24461   3.574   2.875   2.722  1.5647  0.9136  0.3306
  943MOL0     H24462   5.381   2.683   2.391 -0.1738 -1.5802 -2.2293
  943MOL0     H24463   5.610   2.721   2.326 -0.8945 -0.6004 -1.7734
  943MOL0     H24464   5.973   2.672   2.033  1.7150  0.0422 -0.2803
  943MOL0     H24465   6.207   2.637   1.966 -0.4070  2.3342  0.3522
  943MOL0     H24466   6.404   2.586   1.906  0.6660  1.4930  0.2332
  943MOL0     H24467   6.530   2.466   1.938  1.1166 -0.8279  0.5176
  943MOL0     H24468   6.543   2.719   1.992 -2.0854 -1.3131 -1.5885
  943MOL0     H24469   6.461   2.700   2.130  1.4836  0.4525  1.2198
  943MOL0     H24470   6.721   2.676   2.139 -0.2640 -0.2608  1.9918
  943MOL0     H24471   6.695   2.521   2.057 -0.3497  0.0898  0.2184
  943MOL0     H24472   6.570   2.592   2.331  2.6985 -2.0439  3.1525
  943MOL0     H24473   6.573   2.434   2.251 -0.0421  1.9088 -3.2319
  943MOL0     H24474   6.943   2.457   2.450  0.0134  0.8549 -1.3988
  943MOL0     H24475   6.268   2.357   2.280 -0.2153  0.4937 -0.2883
  943MOL0     H24476   6.038   2.388   2.354 -0.4942 -3.7335 -2.4179
  944MOL0     O24477   2.468   3.656   7.179  0.1085  0.5888  0.2895
  944MOL0     C24478   2.473   3.700   7.293  1.0905  0.1622 -0.3244
  944MOL0     O24479   2.370   3.746   7.362  0.0944 -0.3445 -0.6960
  944MOL0     C24480   2.252   3.766   7.305  0.3583 -0.0500 -0.0554
  944MOL0     C24481   2.191   3.888   7.309 -0.0092  0.5682 -0.0846
  944MOL0     C24482   2.053   3.899   7.276  0.3894 -1.0677 -0.4596
  944MOL0     C24483   1.979   3.784   7.239 -0.3317 -0.0223 -0.5660
  944MOL0     O24484   1.852   3.795   7.186 -0.0232 -0.2807 -0.3469
  944MOL0     C24485   1.794   3.928   7.185 -0.4632 -0.4527  0.9110
  944MOL0     C24486   1.650   3.911   7.147  0.6189  0.2885 -0.4881
  944MOL0     C24487   1.569   3.808   7.240  0.2743 -0.6564  0.2196
  944MOL0     C24488   1.414   3.807   7.206  0.5368 -0.0662  0.1567
  944MOL0     C24489   1.337   3.730   7.313  0.8813 -0.7380  0.2323
  944MOL0     C24490   1.360   3.585   7.305  0.5569  0.5153  0.2311
  944MOL0     C24491   1.251   3.493   7.359 -0.1188 -0.4485  0.0003
  944MOL0     C24492   1.253   3.348   7.304 -0.1781  1.0773  0.8119
  944MOL0     N24493   1.151   3.257   7.365 -0.5410  0.3660  0.2162
  944MOL0     C24494   1.018   3.257   7.322  1.2122 -0.5666  0.0020
  944MOL0     C24495   0.965   3.159   7.400  0.4409  0.3775 -0.3047
  944MOL0     C24496   0.818   3.119   7.412  0.0178 -0.1114  0.2534
  944MOL0     C24497   0.782   3.039   7.541  0.5927 -0.2666  0.8041
  944MOL0     C24498   0.644   2.981   7.538  0.0686  0.1618 -0.5497
  944MOL0     C24499   0.529   3.081   7.540  0.0810 -0.3243 -0.1911
  944MOL0     O24500   0.519   3.137   7.670 -0.0560 -0.7112 -0.6008
  944MOL0     C24501   0.408   3.222   7.692  0.6725  0.0668 -0.1363
  944MOL0     C24502   0.279   3.165   7.682 -0.0985  0.4998  0.5473
  944MOL0     C24503   0.169   3.248   7.703 -0.0915  0.2151 -0.0366
  944MOL0     C24504   0.186   3.383   7.730 -0.8422 -0.2888 -0.1481
  944MOL0     C24505   0.075   3.469   7.752  0.8145  0.0456 -0.6652
  944MOL0     O24506   0.097   3.602   7.786 -0.3750 -0.1917 -0.0424
  944MOL0     C24507  -0.011   3.683   7.822 -0.1367  0.3115 -0.3227
  944MOL0     C24508  -0.123   3.645   7.897  0.0111  0.9018  1.3789
  944MOL0     C24509  -0.220   3.736   7.926 -0.3553  0.2097  0.1492
  944MOL0     C24510  -0.202   3.870   7.887  0.3360  0.2580 -0.4068
  944MOL0     O24511  -0.296   3.960   7.909  0.3663 -0.2615 -0.2220
  944MOL0     C24512  -0.371   3.954   8.029  0.3180 -0.3285 -0.1964
  944MOL0     C24513  -0.451   4.076   8.035  0.1809 -0.6306  0.7579
  944MOL0     C24514  -0.368   4.206   8.064 -0.3791  0.0847 -0.5641
  944MOL0     C24515  -0.465   4.321   8.064 -0.0292 -0.4464  0.6282
  944MOL0     C24516  -0.388   4.457   8.056 -0.2631 -0.1164  0.5905
  944MOL0     C24517  -0.453   4.568   8.127  1.2238  0.4395  0.5033
  944MOL0     C24518  -0.411   4.579   8.278  0.4790 -0.5681  0.7848
  944MOL0     C24519  -0.507   4.686   8.345 -0.6999  0.0707  0.0511
  944MOL0    Cl24520  -0.500   4.865   8.289  0.2022  0.2909  0.0180
  944MOL0     C24521  -0.103   3.903   7.801 -0.3155 -0.3184  0.3901
  944MOL0     C24522  -0.002   3.811   7.770 -0.4100 -0.0551  0.2188
  944MOL0     O24523  -0.034   3.415   7.738  0.2869  0.9279 -0.3820
  944MOL0     C24524   0.317   3.434   7.735  0.5289 -0.3217  0.0753
  944MOL0     C24525   0.422   3.356   7.711  0.1985  0.0741 -0.5549
  944MOL0     N24526   1.065   3.105   7.476 -0.1257  0.9235 -0.3689
  944MOL0     N24527   1.182   3.152   7.453  1.1610 -0.0767 -0.0347
  944MOL0     C24528   2.040   3.660   7.237 -0.5224 -0.0486  0.3710
  944MOL0     C24529   2.173   3.651   7.275 -0.7065 -0.3346 -0.1969
  944MOL0     C24530   2.607   3.722   7.351  0.8771  0.9016 -0.1319
  944MOL0     C24531   2.626   3.798   7.468 -0.1047 -0.5049 -0.1467
  944MOL0     C24532   2.757   3.806   7.538  1.0365  0.5001 -0.1481
  944MOL0     C24533   2.865   3.739   7.483  0.1921 -0.2894 -0.0116
  944MOL0     O24534   2.989   3.763   7.539 -0.6745 -0.7722  0.2600
  944MOL0     C24535   3.106   3.711   7.464  0.1212  0.4455 -0.4681
  944MOL0     C24536   3.224   3.729   7.560  0.2140  0.1588 -0.1493
  944MOL0     C24537   3.361   3.665   7.507  0.4280  0.4206 -0.2601
  944MOL0     C24538   3.473   3.697   7.609 -0.0187 -0.3094  0.3469
  944MOL0     C24539   3.595   3.613   7.590  0.0349 -0.8683  1.1061
  944MOL0     C24540   3.700   3.552   7.571  0.4432 -0.3198 -0.1826
  944MOL0     C24541   2.840   3.653   7.373 -1.0565  0.8901  0.1164
  944MOL0     C24542   2.719   3.660   7.299  0.6402  0.6915 -0.0260
  944MOL0     H24543   2.259   3.967   7.339  1.6942  0.2858 -2.8549
  944MOL0     H24544   2.017   4.001   7.271 -1.2932 -1.6434 -0.6190
  944MOL0     H24545   1.846   3.987   7.109 -0.2918 -0.3509  1.1050
  944MOL0     H24546   1.806   3.974   7.284 -0.3178  0.3124  0.5444
  944MOL0     H24547   1.644   3.871   7.045 -0.8345 -2.1825  0.4963
  944MOL0     H24548   1.602   4.010   7.151 -2.7901 -1.2888  1.8412
  944MOL0     H24549   1.586   3.834   7.345  1.2544  0.2164 -0.1308
  944MOL0     H24550   1.617   3.710   7.233  1.9734 -0.3667  4.3518
  944MOL0     H24551   1.380   3.910   7.189  3.1540  1.3212  2.5047
  944MOL0     H24552   1.401   3.757   7.110  0.9341 -1.1050  0.6349
  944MOL0     H24553   1.231   3.755   7.310  1.2002  0.6664 -0.1482
  944MOL0     H24554   1.372   3.754   7.414 -0.8088  0.4552  0.5727
  944MOL0     H24555   1.459   3.557   7.344 -0.5444 -0.1050  2.8443
  944MOL0     H24556   1.364   3.559   7.199  2.9279 -3.2539  1.0613
  944MOL0     H24557   1.280   3.479   7.464  2.4330  0.7831 -0.4465
  944MOL0     H24558   1.154   3.540   7.342  0.0892  0.1208  0.3525
  944MOL0     H24559   1.352   3.308   7.327 -0.3684  0.6071  0.8248
  944MOL0     H24560   1.238   3.354   7.196  0.3157  0.3517  0.6942
  944MOL0     H24561   0.970   3.317   7.246  3.5420 -1.0659 -1.9829
  944MOL0     H24562   0.801   3.052   7.327 -3.7995  0.7598  0.1773
  944MOL0     H24563   0.747   3.202   7.410 -1.8752 -1.6445  0.3684
  944MOL0     H24564   0.782   3.099   7.633 -1.0284  0.1909  0.5429
  944MOL0     H24565   0.845   2.951   7.554 -2.6380 -2.6162  2.0131
  944MOL0     H24566   0.630   2.932   7.441 -1.2590 -0.5488 -0.0281
  944MOL0     H24567   0.639   2.916   7.626  2.1139  0.8190  0.1267
  944MOL0     H24568   0.437   3.025   7.518  0.1541  0.4492 -2.7403
  944MOL0     H24569   0.537   3.164   7.470 -1.5548 -1.1567 -1.4234
  944MOL0     H24570   0.265   3.058   7.671  1.5104  0.4368 -1.4845
  944MOL0     H24571   0.066   3.216   7.713 -0.3839  1.4791  1.3735
  944MOL0     H24572  -0.126   3.537   7.909  0.8380  0.2530 -2.6882
  944MOL0     H24573  -0.310   3.698   7.973  0.9451 -0.0335  2.5900
  944MOL0     H24574  -0.302   3.943   8.113  0.0245 -1.7993 -0.1156
  944MOL0     H24575  -0.443   3.872   8.036 -1.4790  1.2628  1.0301
  944MOL0     H24576  -0.529   4.076   8.111 -1.8481  1.1409 -1.1821
  944MOL0     H24577  -0.506   4.076   7.940 -0.3926 -0.0095  1.0839
  944MOL0     H24578  -0.282   4.217   7.997 -1.3019  0.8056 -1.6616
  944MOL0     H24579  -0.332   4.199   8.167  2.4456 -0.3677 -1.5025
  944MOL0     H24580  -0.514   4.311   7.967 -0.7118 -0.3632  0.9636
  944MOL0     H24581  -0.541   4.325   8.143 -2.1214 -0.9956 -1.2664
  944MOL0     H24582  -0.371   4.482   7.951 -1.7733 -3.0553 -0.4576
  944MOL0     H24583  -0.289   4.437   8.096 -0.8340 -1.2990  1.4785
  944MOL0     H24584  -0.559   4.544   8.137  1.4999 -0.9852  0.2694
  944MOL0     H24585  -0.443   4.663   8.074 -2.2013  0.7773  0.2582
  944MOL0     H24586  -0.429   4.483   8.326 -3.5034 -0.5181 -0.2654
  944MOL0     H24587  -0.306   4.608   8.295 -0.0212  3.3539 -1.6593
  944MOL0     H24588  -0.483   4.688   8.452  1.5809 -0.4876 -0.3959
  944MOL0     H24589  -0.610   4.650   8.344 -0.7689  0.0246 -3.5907
  944MOL0     H24590  -0.107   4.004   7.762  0.7580 -0.9811 -1.5982
  944MOL0     H24591   0.088   3.842   7.719  0.4910  1.2429  2.4338
  944MOL0     H24592   0.323   3.542   7.746 -2.0685 -0.1299  0.1870
  944MOL0     H24593   0.523   3.393   7.706 -0.5643  2.2178 -1.1623
  944MOL0     H24594   1.992   3.568   7.204  1.9898 -2.3304  2.5652
  944MOL0     H24595   2.211   3.550   7.286  1.1692  0.3286 -0.1540
  944MOL0     H24596   2.544   3.846   7.522  2.2028  2.3712  1.0655
  944MOL0     H24597   2.758   3.869   7.626  0.3981 -0.5366  0.6173
  944MOL0     H24598   3.126   3.756   7.366 -0.3424  3.8678  0.8864
  944MOL0     H24599   3.102   3.602   7.453  0.7184  0.3544  0.1310
  944MOL0     H24600   3.246   3.830   7.598  0.5548 -0.7288  2.2079
  944MOL0     H24601   3.200   3.676   7.652  1.7619 -0.0481  0.1542
  944MOL0     H24602   3.395   3.707   7.411  1.4584 -0.8182 -0.4535
  944MOL0     H24603   3.352   3.558   7.488 -1.8273  0.5228  0.0061
  944MOL0     H24604   3.509   3.798   7.589  1.3602 -0.4430  1.9390
  944MOL0     H24605   3.438   3.692   7.712 -0.4697 -2.6690  0.1436
  944MOL0     H24606   3.788   3.499   7.540  0.3663  0.5788 -2.0761
  944MOL0     H24607   2.932   3.608   7.335 -1.1382  1.0733 -0.2996
  944MOL0     H24608   2.708   3.603   7.208 -1.5940  1.2531 -0.1610
  945MOL0     O24609   6.160   9.249   5.581 -0.0620 -0.0755  0.2499
  945MOL0     C24610   6.207   9.229   5.471 -0.5344  0.3540 -0.1812
  945MOL0     O24611   6.149   9.163   5.362  0.5114  0.3447 -0.9300
  945MOL0     C24612   6.022   9.110   5.377  0.0827  0.4173  0.9328
  945MOL0     C24613   6.004   8.973   5.341  0.1627 -0.3228 -0.2044
  945MOL0     C24614   5.877   8.913   5.346  0.2927 -0.6994  0.5169
  945MOL0     C24615   5.775   8.972   5.416  0.4479  0.3072  0.4109
  945MOL0     O24616   5.665   8.885   5.419  0.7148  0.6506 -0.1587
  945MOL0     C24617   5.541   8.946   5.375 -0.1464 -0.0687 -1.2702
  945MOL0     C24618   5.425   8.858   5.408 -0.2640  0.4953  0.1267
  945MOL0     C24619   5.285   8.922   5.372 -0.6907 -0.3261 -0.4592
  945MOL0     C24620   5.270   8.918   5.216 -0.2239 -0.4276 -0.9477
  945MOL0     C24621   5.136   8.969   5.164  1.1176  0.8013  0.4885
  945MOL0     C24622   5.025   8.879   5.216 -0.2060 -0.1482  0.0869
  945MOL0     C24623   4.915   8.857   5.112  0.2498 -0.1334 -0.2475
  945MOL0     C24624   4.800   8.775   5.167 -0.2346  0.7985 -0.3591
  945MOL0     N24625   4.700   8.751   5.065 -0.2864 -0.9862 -0.2107
  945MOL0     C24626   4.582   8.820   5.070 -0.0830  0.6377  0.2226
  945MOL0     C24627   4.497   8.752   4.992 -0.1855 -0.5984  0.1856
  945MOL0     C24628   4.350   8.791   4.964  0.8017  0.6406  0.0638
  945MOL0     C24629   4.273   8.787   5.087 -0.2171 -0.8534  0.1080
  945MOL0     C24630   4.136   8.856   5.079  0.6690  0.2153 -0.4577
  945MOL0     C24631   4.036   8.770   4.995 -0.4385  0.4135 -0.9641
  945MOL0     O24632   3.909   8.830   4.970  0.5166  0.3129  0.3852
  945MOL0     C24633   3.820   8.839   5.071 -0.4151 -0.2888 -0.4601
  945MOL0     C24634   3.696   8.892   5.047  0.3614 -0.5708  0.1239
  945MOL0     C24635   3.603   8.925   5.145  0.0620  0.2400 -0.2695
  945MOL0     C24636   3.624   8.869   5.272  0.0496  0.7897 -0.6132
  945MOL0     C24637   3.525   8.886   5.382 -0.8200 -0.1500  0.6676
  945MOL0     O24638   3.527   8.800   5.487 -0.2419  0.1304 -0.5788
  945MOL0     C24639   3.435   8.817   5.590 -0.0427  0.8055  0.4613
  945MOL0     C24640   3.383   8.940   5.631 -0.4442  0.0184  1.0365
  945MOL0     C24641   3.294   8.960   5.732 -0.1321 -0.2615 -0.3042
  945MOL0     C24642   3.253   8.837   5.803 -0.4162 -0.4351 -0.3337
  945MOL0     O24643   3.179   8.830   5.923 -0.7627 -0.0497  0.3099
  945MOL0     C24644   3.078   8.939   5.937  0.1394  0.5870  0.3140
  945MOL0     C24645   2.974   8.902   6.041  0.6050 -0.2274  1.0352
  945MOL0     C24646   2.927   8.747   6.016 -0.5560  0.0753  0.5231
  945MOL0     C24647   2.865   8.686   6.141  0.6350 -0.1557 -0.7285
  945MOL0     C24648   2.718   8.711   6.144  0.8977  0.0026 -1.1251
  945MOL0     C24649   2.665   8.663   6.281  0.3134 -1.0588  0.0477
  945MOL0     C24650   2.514   8.633   6.276 -0.3185 -0.1688 -0.7132
  945MOL0     C24651   2.432   8.754   6.228  0.0519 -0.2640 -0.1578
  945MOL0    Cl24652   2.457   8.881   6.356  0.1639  0.2772 -0.3718
  945MOL0     C24653   3.305   8.713   5.761  0.1858 -0.0398  0.4904
  945MOL0     C24654   3.404   8.706   5.663  0.4710 -0.7890 -0.1443
  945MOL0     O24655   3.435   8.965   5.356 -0.4854  0.0882 -0.3741
  945MOL0     C24656   3.751   8.814   5.306  0.8674  0.2523 -0.2126
  945MOL0     C24657   3.847   8.800   5.206  0.2043  1.1506  0.1900
  945MOL0     N24658   4.560   8.636   4.952  0.1919  0.3905  0.0656
  945MOL0     N24659   4.684   8.634   4.994  0.0677 -0.8947 -1.0527
  945MOL0     C24660   5.783   9.108   5.443  0.7147  0.0233 -0.4403
  945MOL0     C24661   5.901   9.177   5.422  0.2831 -0.2858  0.8562
  945MOL0     C24662   6.345   9.281   5.446  0.2151  0.5708 -0.5572
  945MOL0     C24663   6.430   9.314   5.553 -0.6009  0.0738  0.1996
  945MOL0     C24664   6.555   9.348   5.526  0.2816  0.2267  0.2280
  945MOL0     C24665   6.609   9.351   5.395 -0.9601  0.0818 -0.0340
  945MOL0     O24666   6.742   9.378   5.370 -0.3924  0.4341 -0.1836
  945MOL0     C24667   6.841   9.285   5.425 -0.4170  0.5103  0.3837
  945MOL0     C24668   6.969   9.346   5.473 -0.0381  0.1284 -0.2971
  945MOL0     C24669   6.955   9.438   5.600  0.8015  0.0751 -0.1903
  945MOL0     C24670   7.092   9.488   5.643  0.2782 -0.5364  0.7007
  945MOL0     C24671   7.093   9.566   5.766 -0.0799 -0.2806 -0.0405
  945MOL0     C24672   7.083   9.629   5.871 -0.0033  0.6713 -0.4642
  945MOL0     C24673   6.525   9.323   5.279 -0.3098  0.9430  0.0832
  945MOL0     C24674   6.396   9.284   5.311 -0.3393 -0.0416  0.2410
  945MOL0     H24675   6.083   8.911   5.301 -1.3027 -2.2865 -0.1911
  945MOL0     H24676   5.871   8.810   5.313  1.1114 -1.0019  1.2872
  945MOL0     H24677   5.544   8.964   5.267 -4.0989  1.3867 -1.3098
  945MOL0     H24678   5.527   9.041   5.427  4.2379 -0.6363  1.4653
  945MOL0     H24679   5.433   8.840   5.516  1.3004  1.7270  0.2459
  945MOL0     H24680   5.428   8.758   5.364 -0.1391  1.1557 -1.4387
  945MOL0     H24681   5.292   9.022   5.416  0.0264 -0.2379 -0.7593
  945MOL0     H24682   5.200   8.865   5.408 -0.1375 -3.9243 -4.1072
  945MOL0     H24683   5.362   8.959   5.174 -0.3547  0.3143 -0.5250
  945MOL0     H24684   5.285   8.817   5.178 -2.2170 -1.1580  0.0485
  945MOL0     H24685   5.139   8.959   5.055 -3.9353 -3.3040  0.3767
  945MOL0     H24686   5.114   9.073   5.192  2.0487  1.1965 -0.1837
  945MOL0     H24687   4.984   8.945   5.293  2.1004  1.6914 -0.1638
  945MOL0     H24688   5.065   8.786   5.258  3.0887 -0.0282 -2.3633
  945MOL0     H24689   4.878   8.958   5.089  2.0379  0.5841 -0.1780
  945MOL0     H24690   4.963   8.808   5.027 -0.0218 -0.3201 -0.2934
  945MOL0     H24691   4.750   8.827   5.250  1.7366  0.0869  1.3882
  945MOL0     H24692   4.836   8.680   5.207 -1.3929  0.1177 -0.9210
  945MOL0     H24693   4.548   8.898   5.138 -1.0501  0.2824  0.1607
  945MOL0     H24694   4.304   8.720   4.895 -5.1401 -0.1474  4.0881
  945MOL0     H24695   4.350   8.895   4.928 -0.1725  0.8887  0.7385
  945MOL0     H24696   4.328   8.847   5.160 -0.9635 -0.6607  0.5259
  945MOL0     H24697   4.269   8.683   5.123 -0.0169 -0.6572  0.7106
  945MOL0     H24698   4.088   8.877   5.175  0.3675 -0.9477 -0.3437
  945MOL0     H24699   4.143   8.947   5.019 -2.1019  0.0129 -1.2110
  945MOL0     H24700   4.021   8.674   5.046  2.6648 -0.7731 -2.0714
  945MOL0     H24701   4.086   8.754   4.899  1.3093  3.2319 -0.6504
  945MOL0     H24702   3.685   8.943   4.952  1.0554  0.0071  0.3480
  945MOL0     H24703   3.520   8.988   5.116  1.4513  2.3833  0.1974
  945MOL0     H24704   3.401   9.029   5.573 -2.2629 -0.8724 -1.0317
  945MOL0     H24705   3.266   9.063   5.748 -3.1645 -0.9176 -0.8610
  945MOL0     H24706   3.040   8.972   5.839  0.7471  2.6625  0.7267
  945MOL0     H24707   3.137   9.025   5.971 -2.3557  2.4839  0.1399
  945MOL0     H24708   2.890   8.973   6.035  0.8231 -0.1227 -2.0190
  945MOL0     H24709   3.026   8.907   6.137  0.4817  0.4477  1.0710
  945MOL0     H24710   3.013   8.682   5.997 -0.0157  0.2301  2.2755
  945MOL0     H24711   2.866   8.748   5.925 -0.3509 -3.1681  0.2258
  945MOL0     H24712   2.881   8.578   6.141  0.4066 -0.1945 -0.1733
  945MOL0     H24713   2.900   8.738   6.231 -2.4770  0.2547  0.3714
  945MOL0     H24714   2.660   8.651   6.073 -1.1218  0.4808  0.0572
  945MOL0     H24715   2.687   8.815   6.131 -2.3435 -0.6579  0.3544
  945MOL0     H24716   2.689   8.744   6.351 -0.4487 -0.8794  0.1027
  945MOL0     H24717   2.713   8.571   6.317  0.5326 -1.7056 -1.8178
  945MOL0     H24718   2.496   8.542   6.218 -1.6956  1.4814 -2.9964
  945MOL0     H24719   2.473   8.619   6.377 -1.3542 -0.4818 -1.1668
  945MOL0     H24720   2.325   8.735   6.215 -0.9958  3.9497  0.6402
  945MOL0     H24721   2.455   8.784   6.126 -1.7459 -0.7116 -0.7260
  945MOL0     H24722   3.278   8.626   5.820 -0.8609 -0.6984 -0.8826
  945MOL0     H24723   3.456   8.611   5.652  1.3028 -0.3587  0.0196
  945MOL0     H24724   3.764   8.781   5.408 -2.0186  1.6859  0.7358
  945MOL0     H24725   3.937   8.747   5.236 -0.5908  0.2217  1.0312
  945MOL0     H24726   5.706   9.165   5.494  0.4272 -0.3689 -0.4294
  945MOL0     H24727   5.899   9.282   5.451  2.0590 -0.4942  1.8751
  945MOL0     H24728   6.391   9.321   5.654 -1.9512  2.1693 -0.4081
  945MOL0     H24729   6.612   9.394   5.606  0.7540  0.1659 -0.0727
  945MOL0     H24730   6.869   9.211   5.348 -1.4188 -1.7653  2.0748
  945MOL0     H24731   6.811   9.213   5.502  1.2444 -3.1653 -2.0834
  945MOL0     H24732   7.040   9.267   5.501  1.6934  2.3783  2.0565
  945MOL0     H24733   7.014   9.407   5.394  0.5654 -0.4899 -0.4517
  945MOL0     H24734   6.900   9.395   5.684  0.8979  1.4673  0.6017
  945MOL0     H24735   6.897   9.525   5.568  0.5901 -0.2124 -0.6006
  945MOL0     H24736   7.146   9.392   5.645  0.2158 -0.8362 -3.3862
  945MOL0     H24737   7.133   9.546   5.560  1.7049 -1.7727  0.4979
  945MOL0     H24738   7.080   9.670   5.970 -1.5920 -0.8259  0.1570
  945MOL0     H24739   6.559   9.331   5.176 -1.1312 -0.8924 -0.3751
  945MOL0     H24740   6.332   9.262   5.227  2.8719 -2.0889 -1.9081
  946MOL0     O24741  10.343   6.065   9.610 -0.4545 -0.4907 -0.7568
  946MOL0     C24742  10.398   5.983   9.680 -0.1094 -0.8484 -0.4627
  946MOL0     O24743  10.348   5.855   9.700  0.3082 -0.4143  0.4159
  946MOL0     C24744  10.246   5.810   9.622 -0.9579  0.3101  0.7277
  946MOL0     C24745  10.118   5.843   9.673  0.1539 -0.2471  0.6151
  946MOL0     C24746  10.005   5.800   9.606  0.4969 -0.0825 -0.2251
  946MOL0     C24747  10.020   5.723   9.488  0.3312 -0.7935 -0.0700
  946MOL0     O24748   9.913   5.675   9.427 -0.1778  0.1370 -0.1154
  946MOL0     C24749   9.834   5.776   9.359  0.4305 -0.7350 -0.5045
  946MOL0     C24750   9.692   5.715   9.339  0.5201  0.0748 -0.1752
  946MOL0     C24751   9.580   5.819   9.308 -0.0468  0.2798  0.3834
  946MOL0     C24752   9.436   5.757   9.290  0.1900  0.7173 -0.0261
  946MOL0     C24753   9.312   5.847   9.276 -0.0439  0.5328  0.6567
  946MOL0     C24754   9.287   5.895   9.141 -0.6230 -0.1017  0.2197
  946MOL0     C24755   9.155   5.959   9.135  0.2978 -0.5589  0.7944
  946MOL0     C24756   9.111   6.030   9.002 -0.1422  0.6612 -0.7274
  946MOL0     N24757   9.016   6.136   9.039  0.3540 -0.8493  0.2855
  946MOL0     C24758   8.882   6.118   9.044 -0.1717 -0.2747 -0.0936
  946MOL0     C24759   8.828   6.244   9.053  0.2379  0.1727 -0.4486
  946MOL0     C24760   8.684   6.261   9.080  0.9920 -0.2790  0.4563
  946MOL0     C24761   8.594   6.217   8.960 -0.0691 -0.3666 -0.0339
  946MOL0     C24762   8.472   6.308   8.929 -0.4552 -0.5809  0.7444
  946MOL0     C24763   8.397   6.367   9.054  0.3296  0.6780 -0.1523
  946MOL0     O24764   8.260   6.388   9.009 -0.1768  0.6744 -0.3812
  946MOL0     C24765   8.169   6.406   9.103  0.1573 -0.1676 -0.4268
  946MOL0     C24766   8.043   6.409   9.054 -0.3311  0.4098  0.1075
  946MOL0     C24767   7.928   6.409   9.135  0.4907  0.2635 -0.9431
  946MOL0     C24768   7.944   6.423   9.274  0.6607  0.4785  0.3610
  946MOL0     C24769   7.827   6.444   9.365 -0.9562  0.7269  0.1090
  946MOL0     O24770   7.707   6.447   9.311  0.6459 -0.7861 -0.8688
  946MOL0     C24771   7.599   6.440   9.392  0.0710 -0.3301  0.2245
  946MOL0     C24772   7.483   6.517   9.366  0.1499  0.1874 -0.5846
  946MOL0     C24773   7.357   6.484   9.423  0.7002 -0.9711 -1.0456
  946MOL0     C24774   7.346   6.382   9.522  0.6191  0.4989 -0.0410
  946MOL0     O24775   7.221   6.344   9.549 -0.0464 -0.4561 -0.1722
  946MOL0     C24776   7.210   6.279   9.676  0.1638  0.4708 -0.3783
  946MOL0     C24777   7.067   6.261   9.733  0.1123  0.1709 -0.4053
  946MOL0     C24778   6.988   6.142   9.673  0.6221 -0.0731 -0.0739
  946MOL0     C24779   6.842   6.153   9.724 -0.0209 -0.0149  0.4227
  946MOL0     C24780   6.747   6.069   9.642 -0.3507  0.0248 -0.0246
  946MOL0     C24781   6.595   6.058   9.672 -0.4228 -0.6609 -0.6346
  946MOL0     C24782   6.529   6.201   9.677  0.3681  0.5126 -0.6827
  946MOL0     C24783   6.372   6.198   9.690 -0.4759  0.1132 -0.5323
  946MOL0    Cl24784   6.320   6.150   9.864  0.2896 -0.0375  0.4564
  946MOL0     C24785   7.467   6.316   9.562  0.0436 -0.0150 -0.1192
  946MOL0     C24786   7.587   6.349   9.499 -0.9858 -0.0967  0.7960
  946MOL0     O24787   7.859   6.458   9.487 -0.2971 -0.0955 -0.0604
  946MOL0     C24788   8.077   6.424   9.328 -0.1629 -0.3448  0.5034
  946MOL0     C24789   8.183   6.412   9.243 -0.1915  0.6227  0.8967
  946MOL0     N24790   8.925   6.340   9.064 -0.7416  0.0028  0.5235
  946MOL0     N24791   9.040   6.271   9.047  0.0277  0.5035  0.1293
  946MOL0     C24792  10.144   5.698   9.430  0.8815  0.1444  0.1070
  946MOL0     C24793  10.264   5.744   9.498 -0.2477  0.0718  0.0716
  946MOL0     C24794  10.532   6.009   9.724  0.4485 -0.1853  0.5201
  946MOL0     C24795  10.618   5.896   9.743  0.6161  0.2059  0.5113
  946MOL0     C24796  10.753   5.924   9.770 -0.5806 -0.5178 -0.4922
  946MOL0     C24797  10.808   6.058   9.776 -0.3149  0.8584 -0.8861
  946MOL0     O24798  10.943   6.079   9.791 -0.1445  0.2629  0.4131
  946MOL0     C24799  11.010   6.011   9.902 -0.1307 -0.4598 -0.0824
  946MOL0     C24800  11.091   6.101   9.986  0.3533 -0.3238  0.1515
  946MOL0     C24801  11.198   6.178   9.909  0.6918 -0.7168 -0.0684
  946MOL0     C24802  11.287   6.263  10.007  0.0636  0.4633 -0.7574
  946MOL0     C24803  11.369   6.357   9.937 -0.3953  0.4324  0.7406
  946MOL0     C24804  11.437   6.445   9.879  0.9751  0.2263  0.0678
  946MOL0     C24805  10.720   6.162   9.749  0.4595 -0.3897 -0.8176
  946MOL0     C24806  10.581   6.141   9.723 -0.2970 -0.1685 -0.2350
  946MOL0     H24807  10.108   5.904   9.763 -2.2814  1.1677 -0.5070
  946MOL0     H24808   9.908   5.831   9.645  0.5758  0.8689 -0.7536
  946MOL0     H24809   9.882   5.807   9.266 -1.1015 -0.7455 -1.3377
  946MOL0     H24810   9.824   5.865   9.422 -3.2167 -1.3192 -0.0056
  946MOL0     H24811   9.665   5.663   9.432 -1.3503  0.8613 -0.2271
  946MOL0     H24812   9.710   5.646   9.256  3.7906  0.5986 -0.0424
  946MOL0     H24813   9.602   5.865   9.211 -1.3399  2.7081  1.1659
  946MOL0     H24814   9.579   5.901   9.380 -0.0241  0.7296 -0.1209
  946MOL0     H24815   9.448   5.688   9.207  5.5978  0.4693  0.6067
  946MOL0     H24816   9.423   5.691   9.377  0.6918 -0.2533 -0.6701
  946MOL0     H24817   9.330   5.925   9.350  1.6451 -0.4736  1.3406
  946MOL0     H24818   9.224   5.791   9.309  0.6325 -0.1888  1.2541
  946MOL0     H24819   9.298   5.814   9.069  1.9762 -0.5026  0.9901
  946MOL0     H24820   9.367   5.963   9.112  0.9168 -1.6330  0.6845
  946MOL0     H24821   9.076   5.884   9.149 -0.4528 -0.0734 -0.6477
  946MOL0     H24822   9.152   6.030   9.218  0.8745  0.7939 -0.3001
  946MOL0     H24823   9.055   5.962   8.937 -2.0800  1.9988 -0.5244
  946MOL0     H24824   9.196   6.070   8.945 -0.2800  2.5943  0.3318
  946MOL0     H24825   8.837   6.020   9.048  0.5193 -0.5857  0.1679
  946MOL0     H24826   8.670   6.369   9.088 -0.4437 -0.4595  0.6728
  946MOL0     H24827   8.638   6.210   9.165 -2.9537  1.3018 -0.4865
  946MOL0     H24828   8.559   6.115   8.974  1.6947 -0.7408  2.1974
  946MOL0     H24829   8.660   6.227   8.873 -1.7973 -0.2265 -1.4048
  946MOL0     H24830   8.510   6.399   8.880  2.3315 -0.6164  2.5924
  946MOL0     H24831   8.404   6.247   8.869  2.6162 -1.7732 -1.8049
  946MOL0     H24832   8.445   6.456   9.097 -2.5096  0.7352  3.3460
  946MOL0     H24833   8.399   6.288   9.129  0.7302  0.9200  0.0967
  946MOL0     H24834   8.035   6.397   8.946  1.8663 -0.4095 -0.0178
  946MOL0     H24835   7.831   6.375   9.099  1.1025 -1.3267 -1.1784
  946MOL0     H24836   7.489   6.596   9.292 -2.1355  0.7997 -0.1811
  946MOL0     H24837   7.274   6.543   9.387 -1.4545  1.8198  6.4946
  946MOL0     H24838   7.268   6.341   9.744  1.6875  0.9790 -2.0614
  946MOL0     H24839   7.253   6.178   9.678 -1.5514 -0.3360  2.1659
  946MOL0     H24840   7.016   6.355   9.713  0.9722  0.3575 -1.8165
  946MOL0     H24841   7.068   6.239   9.841  0.9605  4.5474  0.7133
  946MOL0     H24842   7.037   6.047   9.696  2.0368  0.0904 -2.1350
  946MOL0     H24843   6.994   6.155   9.564 -0.4049  1.5336  0.0254
  946MOL0     H24844   6.836   6.126   9.830  3.8698  1.4928  1.1919
  946MOL0     H24845   6.802   6.254   9.718  1.3249  0.7090  2.6064
  946MOL0     H24846   6.796   5.972   9.650  0.7837  0.6766  1.3797
  946MOL0     H24847   6.758   6.105   9.539 -2.0600 -1.9063 -0.9709
  946MOL0     H24848   6.576   6.002   9.764 -1.5993 -1.9032 -1.5813
  946MOL0     H24849   6.548   6.009   9.585 -2.1308  1.8219 -1.2349
  946MOL0     H24850   6.571   6.256   9.761 -0.8215 -1.8091  1.5653
  946MOL0     H24851   6.549   6.242   9.577  2.7174  0.1981 -0.3963
  946MOL0     H24852   6.321   6.125   9.626 -2.5753 -0.6175  1.8007
  946MOL0     H24853   6.334   6.298   9.666 -0.4950 -0.0386 -1.1407
  946MOL0     H24854   7.466   6.226   9.624  1.2868 -0.1337 -0.2368
  946MOL0     H24855   7.671   6.281   9.512  0.6453  0.1771 -5.3075
  946MOL0     H24856   8.101   6.432   9.433  2.6602  0.1447 -0.0920
  946MOL0     H24857   8.280   6.421   9.289  0.4206 -3.6088  0.8405
  946MOL0     H24858  10.158   5.645   9.336  3.0263 -0.9956  0.9928
  946MOL0     H24859  10.363   5.717   9.463 -0.0269 -0.7655  1.3209
  946MOL0     H24860  10.573   5.797   9.743  0.5458  0.2126 -1.1124
  946MOL0     H24861  10.830   5.850   9.791 -0.0369 -0.7993 -3.1101
  946MOL0     H24862  11.077   5.935   9.862  0.6284 -0.0991  0.4847
  946MOL0     H24863  10.933   5.968   9.967 -0.0654 -0.8393 -0.2534
  946MOL0     H24864  11.024   6.179  10.025  0.0180  0.2118 -1.4348
  946MOL0     H24865  11.140   6.042  10.065  0.7603 -0.6699 -0.3572
  946MOL0     H24866  11.163   6.242   9.828  1.6760  1.4029  1.0884
  946MOL0     H24867  11.265   6.109   9.858  0.1180 -1.8291  0.6661
  946MOL0     H24868  11.224   6.312  10.082 -0.9033 -0.9364 -0.6136
  946MOL0     H24869  11.362   6.196  10.052 -0.9772  0.2855  0.8090
  946MOL0     H24870  11.497   6.509   9.819  0.5764 -0.1313 -0.7240
  946MOL0     H24871  10.774   6.256   9.743  1.3916 -0.7918  0.5584
  946MOL0     H24872  10.524   6.232   9.705  0.0129 -0.1520 -1.1374
  947MOL0     O24873   7.794   2.914   0.754  0.2324 -0.2958  0.0014
  947MOL0     C24874   7.840   2.911   0.871 -0.4422  0.8148 -0.0723
  947MOL0     O24875   7.780   2.946   0.982 -0.3723 -0.6646  0.5890
  947MOL0     C24876   7.672   3.036   0.967 -0.5939  0.1913  0.7955
  947MOL0     C24877   7.663   3.148   0.877  0.4819  0.2024 -0.4589
  947MOL0     C24878   7.547   3.232   0.872 -0.2767 -0.8211 -0.4084
  947MOL0     C24879   7.433   3.196   0.945  0.4839  0.4491 -0.9550
  947MOL0     O24880   7.321   3.283   0.935  0.0284 -0.5892  0.1004
  947MOL0     C24881   7.209   3.282   1.034  0.6975 -0.1261 -0.5892
  947MOL0     C24882   7.108   3.392   1.008  0.4222  0.7008  0.2652
  947MOL0     C24883   7.007   3.408   1.115  0.1680  0.3630 -0.3886
  947MOL0     C24884   6.894   3.504   1.067 -0.6543 -0.5980  0.1667
  947MOL0     C24885   6.793   3.536   1.175 -0.5955  0.5262  0.3410
  947MOL0     C24886   6.831   3.621   1.294  0.1532 -0.0925 -0.0019
  947MOL0     C24887   6.712   3.675   1.373 -0.7511 -0.3524 -0.4284
  947MOL0     C24888   6.631   3.570   1.452  0.4793  0.0884  0.0073
  947MOL0     N24889   6.523   3.640   1.529  0.3801  0.4879 -0.2613
  947MOL0     C24890   6.435   3.739   1.487  0.0757 -0.5729  0.1752
  947MOL0     C24891   6.345   3.762   1.579 -1.3652 -0.8521  0.0091
  947MOL0     C24892   6.232   3.857   1.564 -0.5610  0.6975  0.4713
  947MOL0     C24893   6.095   3.795   1.583 -0.1383 -0.2353 -0.1952
  947MOL0     C24894   5.985   3.893   1.632 -0.2442  0.1873  0.5042
  947MOL0     C24895   5.853   3.824   1.675 -0.7973  0.0991  0.3685
  947MOL0     O24896   5.826   3.729   1.575  0.0066 -0.7147 -0.9414
  947MOL0     C24897   5.703   3.690   1.530  0.0917  1.1397  0.2985
  947MOL0     C24898   5.587   3.716   1.604  0.2897 -0.7669  0.9971
  947MOL0     C24899   5.469   3.685   1.543  0.4247  0.7074  0.4955
  947MOL0     C24900   5.459   3.644   1.415  0.0840  0.6981  0.7160
  947MOL0     C24901   5.329   3.625   1.354 -0.2617 -0.0792  0.0733
  947MOL0     O24902   5.225   3.606   1.442  0.2405 -0.0538  0.1522
  947MOL0     C24903   5.089   3.618   1.401 -0.6360  0.3760  0.5449
  947MOL0     C24904   5.010   3.501   1.399  0.1510 -0.5123 -0.6393
  947MOL0     C24905   4.877   3.519   1.369  0.6311  0.0696  0.7836
  947MOL0     C24906   4.827   3.647   1.336 -0.1882  0.2199  0.9655
  947MOL0     O24907   4.697   3.652   1.297 -0.5782 -0.7003  0.0170
  947MOL0     C24908   4.622   3.770   1.340  0.0417 -0.7062 -0.0569
  947MOL0     C24909   4.474   3.728   1.320 -0.2011  1.0230 -0.9974
  947MOL0     C24910   4.379   3.849   1.300 -0.3744  0.6568 -0.2254
  947MOL0     C24911   4.245   3.795   1.245  0.7448 -0.1273 -0.2160
  947MOL0     C24912   4.141   3.906   1.245 -0.5552  0.6923 -0.4206
  947MOL0     C24913   4.015   3.860   1.176 -1.0564 -0.1055  0.1536
  947MOL0     C24914   3.944   3.990   1.127  0.2281 -1.1692  0.5304
  947MOL0     C24915   3.787   3.973   1.138 -0.2361  0.0153  0.8054
  947MOL0    Cl24916   3.740   3.865   1.011  0.6219  0.1877 -0.1383
  947MOL0     C24917   4.908   3.761   1.348 -0.2699  0.1689 -0.1493
  947MOL0     C24918   5.037   3.747   1.394 -0.0814  0.4415  0.5576
  947MOL0     O24919   5.322   3.655   1.237 -0.2710  0.4139  0.0294
  947MOL0     C24920   5.570   3.629   1.330 -0.5522  1.0464 -0.5038
  947MOL0     C24921   5.696   3.644   1.394 -0.2757  0.2993  0.1448
  947MOL0     N24922   6.384   3.688   1.686  0.2171 -0.2176 -0.7532
  947MOL0     N24923   6.493   3.623   1.665 -0.7767  0.2586  0.4001
  947MOL0     C24924   7.437   3.088   1.034  0.1374  0.2051 -0.7204
  947MOL0     C24925   7.556   3.015   1.047  0.1914  0.1076  0.1978
  947MOL0     C24926   7.982   2.852   0.890  0.0541  0.0559 -0.0644
  947MOL0     C24927   8.053   2.806   0.780 -0.5311  0.0368  1.2042
  947MOL0     C24928   8.176   2.735   0.793  0.3744  0.3000 -0.1393
  947MOL0     C24929   8.235   2.718   0.926  0.0677  0.0377 -0.0183
  947MOL0     O24930   8.349   2.644   0.945 -0.0373 -0.5297 -0.4419
  947MOL0     C24931   8.424   2.613   0.839 -0.2898 -0.4119 -0.0419
  947MOL0     C24932   8.535   2.527   0.901 -0.4584  0.0614  0.3626
  947MOL0     C24933   8.644   2.514   0.801 -0.7797  1.0728  0.1024
  947MOL0     C24934   8.775   2.473   0.870  0.3948  0.0511  0.2167
  947MOL0     C24935   8.879   2.481   0.765 -0.2067 -0.2775 -0.0163
  947MOL0     C24936   8.961   2.488   0.674  0.3901  0.2390  0.0560
  947MOL0     C24937   8.173   2.782   1.035  0.0864 -0.4936  0.2859
  947MOL0     C24938   8.049   2.856   1.020  0.4690 -0.6575  0.6422
  947MOL0     H24939   7.752   3.166   0.817  1.6052 -0.7831  0.8464
  947MOL0     H24940   7.550   3.316   0.804  0.1199 -0.1148  0.4674
  947MOL0     H24941   7.249   3.293   1.136  1.2012 -1.8217 -0.5731
  947MOL0     H24942   7.154   3.188   1.024 -2.2693  1.4390 -0.2035
  947MOL0     H24943   7.061   3.368   0.913  1.9593 -1.4695 -0.0330
  947MOL0     H24944   7.177   3.477   1.005  1.6276 -0.1961  1.0994
  947MOL0     H24945   7.057   3.427   1.210 -0.7942 -1.1549  0.4838
  947MOL0     H24946   6.967   3.307   1.132  1.2653 -0.1302 -0.6163
  947MOL0     H24947   6.936   3.599   1.033 -2.2280  0.8058  1.8582
  947MOL0     H24948   6.833   3.472   0.982 -0.3052 -1.7491  0.3381
  947MOL0     H24949   6.754   3.443   1.217  1.5316  1.0522  3.8059
  947MOL0     H24950   6.703   3.575   1.125 -0.8745 -2.9480 -2.3259
  947MOL0     H24951   6.884   3.709   1.258  0.4736 -0.6374 -0.8828
  947MOL0     H24952   6.903   3.561   1.350  3.2206 -0.2216 -3.7263
  947MOL0     H24953   6.747   3.755   1.439 -0.5708  0.6303 -1.6853
  947MOL0     H24954   6.646   3.734   1.309  0.1663  1.1825 -0.0189
  947MOL0     H24955   6.702   3.515   1.515  0.5607  3.2823  2.9791
  947MOL0     H24956   6.581   3.507   1.378 -1.0714  2.1736 -0.8211
  947MOL0     H24957   6.433   3.791   1.392 -0.5552 -1.7248 -0.4652
  947MOL0     H24958   6.239   3.895   1.462  0.4440  1.0073  0.6432
  947MOL0     H24959   6.246   3.938   1.635  0.0861  0.4496  0.6387
  947MOL0     H24960   6.106   3.721   1.662  0.9938 -1.6480 -1.6058
  947MOL0     H24961   6.072   3.743   1.490  0.6858 -0.0918 -0.4903
  947MOL0     H24962   6.010   3.952   1.721 -0.7491  0.3004  0.5791
  947MOL0     H24963   5.958   3.963   1.553 -0.3529 -0.3072  0.1032
  947MOL0     H24964   5.773   3.898   1.671  1.5614  3.0511  2.8070
  947MOL0     H24965   5.868   3.774   1.772 -0.2855 -0.7951 -0.1515
  947MOL0     H24966   5.593   3.749   1.707  0.8437 -1.0333  1.0575
  947MOL0     H24967   5.386   3.719   1.605  1.5659  3.5675  0.6231
  947MOL0     H24968   5.061   3.407   1.419  1.8302  0.9606  2.7095
  947MOL0     H24969   4.807   3.437   1.364  0.2212  0.2132  3.0372
  947MOL0     H24970   4.636   3.846   1.263 -1.3746 -1.2251 -0.8759
  947MOL0     H24971   4.627   3.806   1.443  0.3513 -0.9825  0.0251
  947MOL0     H24972   4.432   3.669   1.402  0.9420  0.9278 -0.4496
  947MOL0     H24973   4.484   3.664   1.232  1.6021  1.8422 -1.4472
  947MOL0     H24974   4.428   3.927   1.240  1.1889  0.7356  1.1150
  947MOL0     H24975   4.376   3.899   1.397 -1.8345  1.4711 -0.6531
  947MOL0     H24976   4.254   3.757   1.143  0.7348 -0.0714 -0.2381
  947MOL0     H24977   4.205   3.713   1.305 -0.6648  0.2005 -0.6738
  947MOL0     H24978   4.181   3.989   1.185  2.5085 -0.2357  0.1724
  947MOL0     H24979   4.117   3.929   1.349 -1.8922  1.3358 -0.8535
  947MOL0     H24980   3.954   3.793   1.237  0.3729 -1.3486  0.2670
  947MOL0     H24981   4.041   3.795   1.092 -0.3174 -0.1770  0.4256
  947MOL0     H24982   3.967   4.070   1.197 -1.6227  0.9206 -1.1062
  947MOL0     H24983   3.986   4.016   1.029  0.6252  1.0606  1.2384
  947MOL0     H24984   3.741   4.071   1.122  3.7043  1.9273 -0.0906
  947MOL0     H24985   3.755   3.944   1.239 -0.4546 -1.4000  0.3514
  947MOL0     H24986   4.863   3.854   1.315 -2.7796 -0.8381  0.1553
  947MOL0     H24987   5.102   3.832   1.410  0.4342  0.0881  0.3841
  947MOL0     H24988   5.566   3.607   1.224  1.5213  0.5462 -0.5302
  947MOL0     H24989   5.781   3.635   1.328 -1.4648  0.8343 -1.5574
  947MOL0     H24990   7.349   3.067   1.094  1.9117 -0.8481  1.6488
  947MOL0     H24991   7.557   2.939   1.125  1.1614 -1.0856 -0.9297
  947MOL0     H24992   8.023   2.813   0.676  3.5122  4.3276 -0.0780
  947MOL0     H24993   8.229   2.694   0.707  1.6989  1.0005  0.3234
  947MOL0     H24994   8.458   2.704   0.789 -2.4019 -0.0167 -0.9057
  947MOL0     H24995   8.366   2.559   0.764 -1.7886  0.1584  0.6484
  947MOL0     H24996   8.562   2.572   0.997  1.8756 -0.3967 -0.0367
  947MOL0     H24997   8.500   2.423   0.914  0.9249 -0.7736 -1.9350
  947MOL0     H24998   8.655   2.616   0.762 -0.7208  0.8468 -0.4854
  947MOL0     H24999   8.624   2.443   0.720  0.0203  0.7928  0.1394
  947MOL0     H25000   8.808   2.540   0.950  2.7560 -1.1210  0.2837
  947MOL0     H25001   8.775   2.370   0.907 -0.4405 -1.5295 -3.6430
  947MOL0     H25002   9.044   2.487   0.606 -1.5690  1.0950 -2.5202
  947MOL0     H25003   8.216   2.774   1.134 -0.4640  3.9811  1.1012
  947MOL0     H25004   8.004   2.908   1.104 -1.6232 -0.8471 -0.2999
  948MOL0     O25005   7.458   9.471   7.807 -0.1485  0.5804 -0.0853
  948MOL0     C25006   7.413   9.355   7.789 -0.2669  0.0196  0.2260
  948MOL0     O25007   7.283   9.321   7.758  0.0196  0.3513  0.6115
  948MOL0     C25008   7.178   9.394   7.803  0.1335 -0.5080 -0.5449
  948MOL0     C25009   7.184   9.512   7.882 -0.2747  0.0316 -0.0944
  948MOL0     C25010   7.058   9.563   7.926 -0.6546 -1.0820  0.3604
  948MOL0     C25011   6.935   9.504   7.888 -0.2172  0.1413 -0.3883
  948MOL0     O25012   6.829   9.558   7.953  0.2688 -0.3454 -0.0038
  948MOL0     C25013   6.708   9.481   7.965 -0.1538 -0.0189  0.0263
  948MOL0     C25014   6.613   9.555   8.060 -0.1294  0.0619 -0.7198
  948MOL0     C25015   6.474   9.489   8.099 -0.2535  0.2110  0.6517
  948MOL0     C25016   6.376   9.591   8.161  0.1626 -0.1401  0.3893
  948MOL0     C25017   6.405   9.608   8.309  0.1460 -0.6187 -0.1499
  948MOL0     C25018   6.338   9.738   8.355 -0.0985 -1.5058  0.0297
  948MOL0     C25019   6.180   9.727   8.347 -0.4526  0.5502 -1.1118
  948MOL0     C25020   6.116   9.612   8.427  0.9588 -0.8365 -0.1190
  948MOL0     N25021   5.975   9.645   8.454  0.2817 -0.2290 -0.0877
  948MOL0     C25022   5.876   9.614   8.367  0.8483  0.2337  0.4957
  948MOL0     C25023   5.767   9.673   8.412  0.1014  0.1162  0.0964
  948MOL0     C25024   5.628   9.674   8.343 -0.5421 -0.3067  0.3150
  948MOL0     C25025   5.605   9.809   8.265  0.3154 -0.5336 -1.0118
  948MOL0     C25026   5.613   9.930   8.367  0.9416 -0.8879  0.5406
  948MOL0     C25027   5.535  10.057   8.318 -0.3774  0.0079  0.4276
  948MOL0     O25028   5.393  10.025   8.286 -0.4453 -0.0683 -0.4493
  948MOL0     C25029   5.286  10.056   8.365  1.0203  0.1337 -0.6110
  948MOL0     C25030   5.161  10.048   8.309  1.1606  0.0341  0.6689
  948MOL0     C25031   5.042  10.064   8.384  0.3111 -0.8445  0.8671
  948MOL0     C25032   5.042  10.117   8.515  0.4577  0.1798  0.5034
  948MOL0     C25033   4.916  10.144   8.584  0.7565  0.6457  0.1657
  948MOL0     O25034   4.800  10.136   8.519  0.4541  0.1860 -0.3507
  948MOL0     C25035   4.684  10.142   8.589 -0.2668 -0.1427 -0.7466
  948MOL0     C25036   4.598  10.022   8.606 -0.0577  0.0339  0.4873
  948MOL0     C25037   4.478  10.024   8.687  1.1398 -0.2804  0.2503
  948MOL0     C25038   4.427  10.145   8.733  0.3627  0.5793 -1.0992
  948MOL0     O25039   4.308  10.159   8.797 -0.2694  0.7933  0.1368
  948MOL0     C25040   4.276  10.073   8.908 -0.1298  0.1823 -0.0738
  948MOL0     C25041   4.126  10.097   8.937 -0.8021  0.0195  0.2609
  948MOL0     C25042   4.076  10.004   9.052 -0.1805  0.7983  0.0586
  948MOL0     C25043   3.930  10.039   9.071  0.8949 -0.2889 -0.8079
  948MOL0     C25044   3.880   9.946   9.186 -0.4458 -0.6594 -0.2026
  948MOL0     C25045   3.730   9.967   9.196 -0.0961 -0.1132  0.4827
  948MOL0     C25046   3.664   9.895   9.311  1.1199  0.4797 -0.2281
  948MOL0     C25047   3.518   9.928   9.335 -0.2991 -0.4569  0.2124
  948MOL0    Cl25048   3.475   9.869   9.497 -0.5960 -0.1875  0.4050
  948MOL0     C25049   4.500  10.262   8.713 -0.3365  0.2195  0.2291
  948MOL0     C25050   4.623  10.262   8.632 -0.3368  0.2126 -0.0515
  948MOL0     O25051   4.931  10.178   8.701  0.0343 -0.0774 -0.2338
  948MOL0     C25052   5.171  10.137   8.570 -0.4437  0.1080 -0.4452
  948MOL0     C25053   5.287  10.100   8.501  0.4519  0.9431 -1.5408
  948MOL0     N25054   5.800   9.745   8.526 -0.4821  0.2227 -0.2580
  948MOL0     N25055   5.923   9.724   8.554  0.3266 -0.1691 -0.3683
  948MOL0     C25056   6.937   9.383   7.812 -0.2516  0.4656 -0.0069
  948MOL0     C25057   7.058   9.328   7.764 -0.1773 -0.0020 -0.0306
  948MOL0     C25058   7.514   9.250   7.769 -0.8037  0.2053 -0.6537
  948MOL0     C25059   7.650   9.276   7.804  0.8660  0.1309  0.6835
  948MOL0     C25060   7.751   9.180   7.784  0.0817  1.0906 -0.0506
  948MOL0     C25061   7.709   9.051   7.764 -0.1333  0.3593 -0.7459
  948MOL0     O25062   7.801   8.952   7.750  0.3250  0.7970 -0.4184
  948MOL0     C25063   7.821   8.859   7.860  0.1433  1.0975 -0.1187
  948MOL0     C25064   7.852   8.917   8.001 -0.2580 -0.7250 -0.3782
  948MOL0     C25065   7.830   8.802   8.109 -0.2113 -0.0997  0.0939
  948MOL0     C25066   7.847   8.863   8.252  0.6025  0.9633  0.2058
  948MOL0     C25067   7.980   8.906   8.288  0.3108 -0.2374 -0.6030
  948MOL0     C25068   8.095   8.931   8.319  0.9062  0.0907 -0.1024
  948MOL0     C25069   7.574   9.021   7.753  0.0911  0.2536  0.4357
  948MOL0     C25070   7.476   9.112   7.753  0.1720 -0.3497  0.3827
  948MOL0     H25071   7.281   9.556   7.903  1.4718 -2.9261 -1.3243
  948MOL0     H25072   7.051   9.647   7.994 -0.1869 -1.0673  0.3925
  948MOL0     H25073   6.722   9.379   8.003 -2.5110 -0.0934  0.8449
  948MOL0     H25074   6.652   9.465   7.872 -0.9378 -1.7559  0.7370
  948MOL0     H25075   6.603   9.656   8.018 -0.4085  1.1769  1.8768
  948MOL0     H25076   6.662   9.566   8.157 -0.8737 -0.6123 -0.2548
  948MOL0     H25077   6.485   9.404   8.167 -2.9155 -0.0987  0.8287
  948MOL0     H25078   6.418   9.449   8.014  0.8051 -0.5202  0.2874
  948MOL0     H25079   6.390   9.687   8.110  0.7125  0.1106  0.9967
  948MOL0     H25080   6.272   9.557   8.165  0.3138 -0.4912  3.9237
  948MOL0     H25081   6.510   9.612   8.338  0.7154 -0.1223 -2.1297
  948MOL0     H25082   6.362   9.527   8.369 -2.8356  1.1597  0.3272
  948MOL0     H25083   6.363   9.816   8.282 -0.9001 -0.5989  0.6915
  948MOL0     H25084   6.370   9.761   8.457 -0.9440  1.3381 -0.2567
  948MOL0     H25085   6.144   9.817   8.398 -0.3299 -0.2562  0.4749
  948MOL0     H25086   6.143   9.737   8.245  0.6931  1.1109 -1.5044
  948MOL0     H25087   6.156   9.594   8.527  1.6159 -2.0176 -0.5720
  948MOL0     H25088   6.126   9.518   8.372  0.5905 -0.3699 -1.0115
  948MOL0     H25089   5.878   9.558   8.274 -1.1182  1.9315 -0.6755
  948MOL0     H25090   5.542   9.668   8.410 -0.3027 -0.0318  0.6511
  948MOL0     H25091   5.635   9.598   8.265  1.6545  2.9299 -2.9896
  948MOL0     H25092   5.501   9.814   8.231  0.3256  0.9024 -0.8904
  948MOL0     H25093   5.678   9.830   8.187  3.7898  2.8490  2.7097
  948MOL0     H25094   5.561   9.904   8.460 -2.3654 -0.5251 -1.0769
  948MOL0     H25095   5.719   9.955   8.382  0.5109 -0.3954  3.2960
  948MOL0     H25096   5.584  10.102   8.231  2.7223  0.8975  2.4728
  948MOL0     H25097   5.541  10.135   8.394  0.4765 -0.5608  0.9756
  948MOL0     H25098   5.161  10.011   8.207 -4.2918 -1.4036  0.8641
  948MOL0     H25099   4.945  10.041   8.340  0.8433 -1.8912  0.1930
  948MOL0     H25100   4.632   9.930   8.559 -0.4691  0.3466 -0.4319
  948MOL0     H25101   4.425   9.929   8.697 -2.3728  1.3784 -0.8235
  948MOL0     H25102   4.339  10.101   8.993  0.3727  0.4820 -0.5366
  948MOL0     H25103   4.289   9.965   8.895 -1.7741 -0.1632  0.7865
  948MOL0     H25104   4.068  10.070   8.849  1.5626 -0.5406 -1.2258
  948MOL0     H25105   4.118  10.204   8.959  1.1218  0.0700  0.9530
  948MOL0     H25106   4.135  10.017   9.143  2.0232  2.5253 -1.4944
  948MOL0     H25107   4.083   9.902   9.013 -0.5935  1.2189 -1.1549
  948MOL0     H25108   3.920  10.144   9.101  1.2922  0.0240 -1.7344
  948MOL0     H25109   3.872  10.027   8.979  1.2072  0.2627 -1.0822
  948MOL0     H25110   3.935   9.973   9.277 -0.8442 -1.7502  0.3855
  948MOL0     H25111   3.903   9.842   9.162 -2.0387 -1.2717  0.7520
  948MOL0     H25112   3.687   9.928   9.103  3.5843 -2.0823 -0.6173
  948MOL0     H25113   3.715  10.075   9.204  0.7381  0.3354 -2.6951
  948MOL0     H25114   3.670   9.786   9.299 -0.2218  0.3285  0.3086
  948MOL0     H25115   3.722   9.927   9.398  3.1340  0.0995 -1.3713
  948MOL0     H25116   3.461   9.888   9.251  0.9299  2.2000 -2.0475
  948MOL0     H25117   3.505  10.036   9.343  1.1422 -0.3218  1.2093
  948MOL0     H25118   4.456  10.354   8.750  0.5250  1.1121 -0.9268
  948MOL0     H25119   4.665  10.359   8.608 -1.0635  0.4369 -0.4552
  948MOL0     H25120   5.177  10.161   8.675  0.2193  0.1719 -0.4947
  948MOL0     H25121   5.381  10.104   8.555 -0.1128  0.4279 -0.4747
  948MOL0     H25122   6.845   9.335   7.783  0.1986 -1.5605  1.6593
  948MOL0     H25123   7.064   9.240   7.702  1.9693  0.9789 -1.3270
  948MOL0     H25124   7.681   9.377   7.830 -2.3274  1.9351 -1.7237
  948MOL0     H25125   7.857   9.201   7.793  0.2953  0.1444 -0.3064
  948MOL0     H25126   7.899   8.787   7.832 -1.2430 -1.7161  2.6350
  948MOL0     H25127   7.744   8.781   7.862  2.4168 -1.2700  1.7126
  948MOL0     H25128   7.956   8.950   7.997 -0.5272  0.6528  2.1827
  948MOL0     H25129   7.783   9.000   8.020 -0.0086 -0.9299  1.6885
  948MOL0     H25130   7.889   8.714   8.082  0.3846 -0.1624  1.5232
  948MOL0     H25131   7.729   8.762   8.103  0.1640 -1.4514  1.9489
  948MOL0     H25132   7.771   8.942   8.265 -0.8932 -0.0543 -1.7872
  948MOL0     H25133   7.818   8.778   8.314 -0.8441  0.0952 -1.5548
  948MOL0     H25134   8.193   8.966   8.340  0.3960  0.1340  2.5414
  948MOL0     H25135   7.539   8.918   7.749 -0.5961  0.4467  1.1684
  948MOL0     H25136   7.373   9.077   7.753  0.8231 -2.5023  2.0659
  949MOL0     O25137   0.702   8.670   6.220  0.6067 -0.6663 -0.0753
  949MOL0     C25138   0.738   8.701   6.332  0.6118 -0.2727  0.2245
  949MOL0     O25139   0.666   8.756   6.433  0.3610  0.0393 -0.0806
  949MOL0     C25140   0.535   8.787   6.406  0.5196 -0.0380 -0.2904
  949MOL0     C25141   0.486   8.918   6.437 -0.3089  0.1159  0.2160
  949MOL0     C25142   0.357   8.961   6.423  0.3841 -0.0132  0.1816
  949MOL0     C25143   0.259   8.874   6.382 -0.6543  0.0955 -0.0478
  949MOL0     O25144   0.131   8.915   6.393 -0.6247 -0.1064 -0.0175
  949MOL0     C25145   0.054   8.848   6.498 -0.2134  0.0302 -0.2550
  949MOL0     C25146  -0.088   8.880   6.492 -0.0894 -0.0951 -0.3334
  949MOL0     C25147  -0.163   8.828   6.360 -0.2231 -0.4625  0.3570
  949MOL0     C25148  -0.312   8.851   6.388 -0.3653 -0.5804  0.4225
  949MOL0     C25149  -0.402   8.821   6.263  1.2593 -0.1495  0.2361
  949MOL0     C25150  -0.548   8.820   6.306  0.4499  0.4873 -0.5167
  949MOL0     C25151  -0.639   8.751   6.206  0.6725  0.3948 -0.0037
  949MOL0     C25152  -0.671   8.813   6.074 -0.0688  0.5659  0.2055
  949MOL0     N25153  -0.777   8.732   6.011 -0.2374 -0.2207 -0.5442
  949MOL0     C25154  -0.915   8.753   6.022  0.0342  0.6065  0.1971
  949MOL0     C25155  -0.971   8.655   5.936 -0.1484  0.6961 -1.0775
  949MOL0     C25156  -1.119   8.647   5.917 -0.0082 -0.0607  0.1513
  949MOL0     C25157  -1.199   8.638   6.055 -1.1604 -0.2037  0.0238
  949MOL0     C25158  -1.188   8.500   6.117  0.5833  0.4648  0.2633
  949MOL0     C25159  -1.307   8.415   6.069  0.3549  0.0923 -1.6042
  949MOL0     O25160  -1.423   8.442   6.141  0.7728 -0.0639  0.1789
  949MOL0     C25161  -1.540   8.407   6.077 -0.3531 -0.6584 -1.0080
  949MOL0     C25162  -1.561   8.276   6.042  0.7973  0.0508  0.1148
  949MOL0     C25163  -1.682   8.233   5.999  0.1956 -0.4651  0.1876
  949MOL0     C25164  -1.793   8.320   6.009 -0.7325  0.1470  0.6483
  949MOL0     C25165  -1.925   8.288   5.958 -1.0089  0.1590 -0.7497
  949MOL0     O25166  -2.036   8.344   6.017 -0.5979  0.0897 -0.4105
  949MOL0     C25167  -2.158   8.334   5.958 -0.9207  0.5228 -0.4278
  949MOL0     C25168  -2.202   8.446   5.897 -0.6993 -0.7235  0.1727
  949MOL0     C25169  -2.337   8.449   5.847 -0.4045 -0.3838 -0.2196
  949MOL0     C25170  -2.418   8.333   5.850  0.1033 -0.0417  0.2360
  949MOL0     O25171  -2.540   8.320   5.780 -0.5787  0.1517 -0.3853
  949MOL0     C25172  -2.642   8.413   5.826 -0.4294 -0.0497 -0.4711
  949MOL0     C25173  -2.746   8.413   5.717  0.5740 -0.1727 -0.4761
  949MOL0     C25174  -2.810   8.270   5.703 -0.7668 -0.4809  0.5280
  949MOL0     C25175  -2.895   8.258   5.570 -0.0971 -0.3272 -0.2860
  949MOL0     C25176  -2.965   8.128   5.562 -0.9884  0.0771 -0.2067
  949MOL0     C25177  -2.941   8.061   5.420 -0.6764  0.4713 -0.0645
  949MOL0     C25178  -2.800   8.009   5.403  0.4189  0.2003  0.8423
  949MOL0     C25179  -2.777   7.909   5.291 -0.1560  0.4894  0.5197
  949MOL0    Cl25180  -2.616   7.842   5.331  0.2669  0.2147 -0.1836
  949MOL0     C25181  -2.362   8.221   5.903  0.1709 -0.0992  0.3802
  949MOL0     C25182  -2.234   8.216   5.965  0.5920  0.3890  0.2170
  949MOL0     O25183  -1.930   8.205   5.864  0.6662  0.3665  0.7017
  949MOL0     C25184  -1.772   8.450   6.061 -0.3601 -0.1684  0.2593
  949MOL0     C25185  -1.642   8.492   6.082 -0.4119 -0.5356  0.2624
  949MOL0     N25186  -0.870   8.578   5.891 -0.4369 -0.0261  0.3934
  949MOL0     N25187  -0.758   8.623   5.934  0.0320  0.0347  0.1163
  949MOL0     C25188   0.297   8.743   6.345  0.8299  0.8051 -0.0297
  949MOL0     C25189   0.430   8.701   6.355 -0.3019  0.0050  0.1993
  949MOL0     C25190   0.884   8.699   6.363 -0.2800  0.1563  0.3778
  949MOL0     C25191   0.940   8.633   6.469  0.0552  0.0293  0.0541
  949MOL0     C25192   1.078   8.642   6.497 -0.6178  0.8019 -0.3224
  949MOL0     C25193   1.160   8.719   6.412 -0.2582 -0.6414 -0.6545
  949MOL0     O25194   1.288   8.739   6.446  0.4335  0.7259 -0.6645
  949MOL0     C25195   1.383   8.776   6.346 -0.0856 -0.0173  0.2067
  949MOL0     C25196   1.520   8.736   6.408 -0.6613  0.0791 -0.1947
  949MOL0     C25197   1.584   8.853   6.482 -0.6974  0.0579 -0.0716
  949MOL0     C25198   1.679   8.931   6.395  0.5923  0.1253 -0.6342
  949MOL0     C25199   1.712   9.060   6.455 -0.5062 -0.1637 -0.8123
  949MOL0     C25200   1.755   9.165   6.488  0.7307 -0.3106  0.4096
  949MOL0     C25201   1.105   8.777   6.296 -0.0276  1.1368 -0.0760
  949MOL0     C25202   0.969   8.767   6.271  0.2267 -0.2984  0.0353
  949MOL0     H25203   0.569   8.978   6.474 -0.0845 -1.2217  2.0075
  949MOL0     H25204   0.332   9.064   6.446 -0.6198 -0.2271  0.0755
  949MOL0     H25205   0.095   8.863   6.599  1.2057 -0.3086 -0.7702
  949MOL0     H25206   0.077   8.742   6.486 -3.3902 -0.7236 -0.7138
  949MOL0     H25207  -0.107   8.987   6.504 -0.9730 -0.0834 -1.5756
  949MOL0     H25208  -0.121   8.828   6.582 -0.3270 -0.5206 -0.6559
  949MOL0     H25209  -0.129   8.725   6.349  2.2460 -0.0658  3.0152
  949MOL0     H25210  -0.124   8.882   6.274 -0.6219 -0.1534  0.3650
  949MOL0     H25211  -0.344   8.781   6.466 -3.1395 -3.5421 -2.9967
  949MOL0     H25212  -0.336   8.952   6.423 -2.1501 -0.8368  0.0518
  949MOL0     H25213  -0.370   8.724   6.223  3.2938  0.7710 -0.5147
  949MOL0     H25214  -0.398   8.897   6.184 -1.5945 -1.4792 -1.3565
  949MOL0     H25215  -0.573   8.926   6.308  3.3032  1.5877 -5.4015
  949MOL0     H25216  -0.561   8.770   6.403  0.6639 -0.4593 -0.9638
  949MOL0     H25217  -0.594   8.652   6.197 -0.6402 -0.2259 -0.0149
  949MOL0     H25218  -0.739   8.732   6.247  0.4204  0.5960 -0.5264
  949MOL0     H25219  -0.588   8.815   6.002 -1.3247 -3.3399 -1.6700
  949MOL0     H25220  -0.697   8.919   6.073  0.6119  0.7388 -0.6071
  949MOL0     H25221  -0.967   8.831   6.077 -4.3796 -1.2516 -0.9828
  949MOL0     H25222  -1.146   8.558   5.860 -1.4841 -0.0245  0.7615
  949MOL0     H25223  -1.145   8.731   5.852  2.2221  0.7712  0.2445
  949MOL0     H25224  -1.301   8.667   6.031 -0.5182  1.7576 -0.4796
  949MOL0     H25225  -1.161   8.718   6.119 -1.2394  0.1406 -0.3565
  949MOL0     H25226  -1.094   8.456   6.083 -0.3721 -1.0588 -0.5156
  949MOL0     H25227  -1.200   8.501   6.225 -1.6726  0.7793  0.0610
  949MOL0     H25228  -1.286   8.317   6.113 -0.0467  1.8198  3.0125
  949MOL0     H25229  -1.317   8.414   5.960 -4.0893  2.3589 -1.4414
  949MOL0     H25230  -1.481   8.204   6.055  2.1222  1.4411 -0.0376
  949MOL0     H25231  -1.698   8.132   5.962  0.6486 -0.2394 -0.6436
  949MOL0     H25232  -2.147   8.539   5.888 -1.9687 -0.1113 -1.9135
  949MOL0     H25233  -2.364   8.542   5.798 -0.7684  1.7605  3.5856
  949MOL0     H25234  -2.606   8.511   5.856  1.2572 -1.2115  1.5627
  949MOL0     H25235  -2.681   8.363   5.915  1.9233  1.5169  1.5514
  949MOL0     H25236  -2.704   8.451   5.624  0.1577  0.3703 -0.4442
  949MOL0     H25237  -2.827   8.484   5.734  0.5427  0.3142 -2.4346
  949MOL0     H25238  -2.867   8.243   5.792  0.0098 -1.9328  0.6284
  949MOL0     H25239  -2.732   8.193   5.700  0.9842  1.1319  2.0040
  949MOL0     H25240  -2.958   8.348   5.566  0.8225  0.4513  1.5472
  949MOL0     H25241  -2.825   8.259   5.486  1.1741 -5.0038  0.4748
  949MOL0     H25242  -3.069   8.137   5.596 -1.4680 -2.5520 -0.7277
  949MOL0     H25243  -2.921   8.060   5.636  1.4445  1.2124 -0.5264
  949MOL0     H25244  -2.960   8.124   5.333  0.3900 -1.7383 -1.9992
  949MOL0     H25245  -3.006   7.972   5.422 -0.1529  0.0895  0.0061
  949MOL0     H25246  -2.729   8.087   5.374  1.0952 -0.5635  0.3880
  949MOL0     H25247  -2.760   7.971   5.498  1.0540  0.2113  0.5852
  949MOL0     H25248  -2.772   7.965   5.197 -0.7765  2.8809  1.8275
  949MOL0     H25249  -2.853   7.831   5.282  1.2704 -0.8581 -0.4380
  949MOL0     H25250  -2.415   8.126   5.900 -1.9466  1.0407 -0.6284
  949MOL0     H25251  -2.193   8.126   6.010 -0.6223  0.1973  0.9976
  949MOL0     H25252  -1.850   8.526   6.068  1.0145  1.3324 -0.1440
  949MOL0     H25253  -1.625   8.596   6.106  0.0272 -0.8920  1.5319
  949MOL0     H25254   0.222   8.671   6.313  1.2133 -0.1597  1.1731
  949MOL0     H25255   0.447   8.598   6.326  0.2152  0.1909 -0.1757
  949MOL0     H25256   0.866   8.585   6.533 -1.8489  3.3136  0.5511
  949MOL0     H25257   1.125   8.579   6.572 -1.4441  2.0363  1.3149
  949MOL0     H25258   1.375   8.880   6.314  0.7226 -1.1860 -4.5449
  949MOL0     H25259   1.359   8.728   6.250 -0.1023 -3.3579  1.7363
  949MOL0     H25260   1.495   8.655   6.477  0.9980  0.6287  1.0921
  949MOL0     H25261   1.587   8.695   6.332  0.9595  0.8095  0.8100
  949MOL0     H25262   1.655   8.805   6.550 -0.5849 -1.9478 -1.5356
  949MOL0     H25263   1.515   8.913   6.542 -1.1451 -1.3380  0.8422
  949MOL0     H25264   1.769   8.868   6.387  0.4883  0.0227 -1.0437
  949MOL0     H25265   1.626   8.944   6.300  1.4650  2.8419 -0.8432
  949MOL0     H25266   1.776   9.269   6.502 -2.0262  0.3582  0.0978
  949MOL0     H25267   1.168   8.819   6.217  1.0598  1.2880  0.8480
  949MOL0     H25268   0.940   8.815   6.179  1.1430 -1.4353 -0.8785
  950MOL0     O25269   6.054  10.558   4.638 -0.0710  1.2251  0.3721
  950MOL0     C25270   6.091  10.668   4.676 -0.1252  0.3048  0.6080
  950MOL0     O25271   6.050  10.724   4.790  0.8226  0.2718  0.2374
  950MOL0     C25272   5.942  10.674   4.856 -0.5214 -0.5454  1.0104
  950MOL0     C25273   5.817  10.730   4.845  0.1255 -0.0848 -0.5483
  950MOL0     C25274   5.715  10.674   4.922  0.3104 -0.6437 -0.1601
  950MOL0     C25275   5.730  10.573   5.015 -0.6207 -0.8080  0.7586
  950MOL0     O25276   5.610  10.538   5.077  0.5653 -0.0273 -0.7208
  950MOL0     C25277   5.600  10.423   5.161  0.5359  0.0098  0.5314
  950MOL0     C25278   5.449  10.380   5.182 -0.1048 -0.1401 -0.7483
  950MOL0     C25279   5.378  10.481   5.274  0.0643  0.5460 -0.7924
  950MOL0     C25280   5.230  10.450   5.268  0.0972 -0.2913  0.2730
  950MOL0     C25281   5.158  10.525   5.377 -0.3172 -1.2412  0.2539
  950MOL0     C25282   5.006  10.520   5.343 -0.2576  1.0481  0.5765
  950MOL0     C25283   4.947  10.381   5.385 -0.4864 -0.4158  0.8949
  950MOL0     C25284   4.803  10.382   5.419  0.5341 -0.2518 -0.0272
  950MOL0     N25285   4.740  10.254   5.457  0.5235 -0.6443  0.1527
  950MOL0     C25286   4.789  10.134   5.427  0.7024  0.3970  0.2615
  950MOL0     C25287   4.700  10.051   5.492 -0.0279  0.3008  0.1493
  950MOL0     C25288   4.712   9.901   5.520 -0.1298 -0.3567 -0.0701
  950MOL0     C25289   4.756   9.882   5.665  0.6275  0.5298 -0.5102
  950MOL0     C25290   4.864   9.770   5.691 -0.0460  0.4761  0.3990
  950MOL0     C25291   4.993   9.772   5.602  0.6400  0.5054  0.1171
  950MOL0     O25292   4.984   9.681   5.497 -0.2347  0.4202  0.2376
  950MOL0     C25293   5.105   9.634   5.451  0.2155 -0.0196  0.4031
  950MOL0     C25294   5.221   9.712   5.424  0.4615  0.3100 -0.3783
  950MOL0     C25295   5.331   9.640   5.373 -0.5610 -0.5889  0.2730
  950MOL0     C25296   5.340   9.502   5.344  0.7832  0.3805  0.5101
  950MOL0     C25297   5.458   9.431   5.282  0.6714 -0.9355 -0.2665
  950MOL0     O25298   5.443   9.308   5.228  1.0744  0.1953  0.2079
  950MOL0     C25299   5.538   9.236   5.160 -0.2970  0.4589 -0.2621
  950MOL0     C25300   5.675   9.239   5.184 -0.8269 -0.0716 -0.4926
  950MOL0     C25301   5.761   9.170   5.092  0.2478 -0.3129  0.2670
  950MOL0     C25302   5.719   9.098   4.985 -0.1024 -0.2514 -0.2271
  950MOL0     O25303   5.805   9.024   4.906  0.6704 -0.3463  0.4711
  950MOL0     C25304   5.930   9.091   4.874 -0.3733  0.2226  0.4272
  950MOL0     C25305   6.025   9.009   4.793  1.0623 -0.3304 -0.7307
  950MOL0     C25306   6.090   8.897   4.869 -0.5221 -0.0555  0.1714
  950MOL0     C25307   6.184   8.808   4.781 -0.6930 -0.5340  0.1291
  950MOL0     C25308   6.309   8.875   4.731  0.0693 -0.3998  0.5145
  950MOL0     C25309   6.391   8.937   4.836  0.2443  0.8256 -0.0270
  950MOL0     C25310   6.516   9.003   4.777  0.4556  0.4619  0.1969
  950MOL0     C25311   6.637   9.035   4.876  0.1700  0.8197  0.3303
  950MOL0    Cl25312   6.612   9.187   4.970 -0.2849  0.2270  0.1342
  950MOL0     C25313   5.576   9.100   4.964  0.1069 -0.2663  0.3166
  950MOL0     C25314   5.483   9.163   5.058 -0.1689  0.2020  0.2811
  950MOL0     O25315   5.562   9.500   5.283  0.7682  0.7192  0.1527
  950MOL0     C25316   5.217   9.436   5.373 -0.2635  1.2790  0.3318
  950MOL0     C25317   5.110   9.496   5.432  0.1577 -0.4844 -0.8590
  950MOL0     N25318   4.588  10.119   5.527 -0.0578  0.2066 -0.5263
  950MOL0     N25319   4.618  10.239   5.516  0.4041  0.2572  0.0332
  950MOL0     C25320   5.869  10.532   5.031  0.1175 -0.0819  0.4448
  950MOL0     C25321   5.973  10.578   4.949  0.8744  0.0735  0.4867
  950MOL0     C25322   6.185  10.745   4.584  0.2413 -0.1844 -0.5421
  950MOL0     C25323   6.230  10.877   4.613 -0.5635  0.1261  0.1553
  950MOL0     C25324   6.336  10.937   4.543  0.1071  0.1242 -0.1392
  950MOL0     C25325   6.390  10.869   4.431  0.0784  0.1356  0.4649
  950MOL0     O25326   6.492  10.936   4.365  0.2369 -0.2706 -0.0362
  950MOL0     C25327   6.533  10.895   4.229 -0.3632  0.5901  0.1221
  950MOL0     C25328   6.647  10.797   4.222  0.4745  0.3638 -0.3665
  950MOL0     C25329   6.663  10.732   4.082  0.3391 -0.3172 -0.6588
  950MOL0     C25330   6.688  10.832   3.980 -0.4299  0.4420  0.6263
  950MOL0     C25331   6.827  10.884   3.998  0.8913  0.1379 -0.2812
  950MOL0     C25332   6.944  10.922   4.017 -0.3010  0.5077  0.1705
  950MOL0     C25333   6.343  10.746   4.397  0.1574 -0.7944 -1.0846
  950MOL0     C25334   6.244  10.683   4.478  0.4952 -0.5795  0.4902
  950MOL0     H25335   5.784  10.808   4.776 -2.6341 -0.8387 -0.1989
  950MOL0     H25336   5.617  10.711   4.897  1.6820  1.8836 -2.3679
  950MOL0     H25337   5.644  10.438   5.260 -0.2789 -1.8140  1.2298
  950MOL0     H25338   5.658  10.341   5.117 -1.5570 -1.0979 -0.3167
  950MOL0     H25339   5.443  10.279   5.224  0.4647 -0.0308 -0.3932
  950MOL0     H25340   5.405  10.385   5.082 -0.4737 -1.0713 -0.6438
  950MOL0     H25341   5.408  10.581   5.241  0.7575  0.4313 -0.5411
  950MOL0     H25342   5.416  10.475   5.377  2.9190  2.1277 -1.6469
  950MOL0     H25343   5.192  10.469   5.168  0.1965  0.2772  0.3387
  950MOL0     H25344   5.208  10.344   5.280 -0.1131 -0.3594 -0.6900
  950MOL0     H25345   5.182  10.631   5.367 -0.4984 -1.3725 -2.3732
  950MOL0     H25346   5.184  10.488   5.476 -2.1645 -1.2957  0.7482
  950MOL0     H25347   4.980  10.535   5.238 -1.9518  1.6142  1.0393
  950MOL0     H25348   4.951  10.589   5.407 -0.6631  1.2569  0.0109
  950MOL0     H25349   4.955  10.316   5.298 -1.1764  0.3271  0.2482
  950MOL0     H25350   5.010  10.338   5.463 -1.0877 -1.0356  1.0541
  950MOL0     H25351   4.745  10.429   5.340 -0.0086 -1.1633 -0.1903
  950MOL0     H25352   4.789  10.449   5.504  1.5223 -0.3747  0.2482
  950MOL0     H25353   4.872  10.111   5.360  0.3674 -1.2049  0.3639
  950MOL0     H25354   4.780   9.854   5.448  1.7951  1.2363  0.6076
  950MOL0     H25355   4.615   9.854   5.501 -1.3306  0.9340  2.4274
  950MOL0     H25356   4.666   9.863   5.724  1.5517 -1.3953  0.3715
  950MOL0     H25357   4.798   9.977   5.698 -1.0118  1.0346  0.2426
  950MOL0     H25358   4.896   9.778   5.796 -1.0167 -0.3940  0.7750
  950MOL0     H25359   4.819   9.672   5.676 -0.3804  0.9012 -1.6087
  950MOL0     H25360   5.073   9.749   5.673 -0.5694 -0.5669  1.1840
  950MOL0     H25361   4.997   9.876   5.568 -0.5448  0.7456  0.6694
  950MOL0     H25362   5.218   9.816   5.455 -1.1418 -0.0934  1.0123
  950MOL0     H25363   5.419   9.703   5.360 -1.2891  0.8236  1.7425
  950MOL0     H25364   5.707   9.299   5.269  0.5101  0.1012 -1.0917
  950MOL0     H25365   5.868   9.177   5.108  1.0439  0.0011 -4.0372
  950MOL0     H25366   5.984   9.113   4.966 -0.6736 -0.9144  0.8900
  950MOL0     H25367   5.900   9.180   4.817 -1.4117 -0.5199 -0.2172
  950MOL0     H25368   6.100   9.075   4.747  0.5013  0.1355 -0.9985
  950MOL0     H25369   5.964   8.970   4.711 -2.8042  2.0020  0.7967
  950MOL0     H25370   6.012   8.829   4.906 -0.4354 -0.0624  0.3416
  950MOL0     H25371   6.148   8.934   4.954  2.5619 -0.9428 -1.4066
  950MOL0     H25372   6.214   8.718   4.835 -0.9564 -1.5799 -1.3984
  950MOL0     H25373   6.136   8.774   4.688  0.5662  1.3276 -1.2677
  950MOL0     H25374   6.270   8.943   4.655  1.5773 -0.3548 -0.2528
  950MOL0     H25375   6.367   8.800   4.676 -1.4120 -1.5673  0.4751
  950MOL0     H25376   6.413   8.855   4.905 -1.9301  0.9352  0.8851
  950MOL0     H25377   6.326   9.007   4.888 -1.3734 -2.1185  2.1862
  950MOL0     H25378   6.567   8.928   4.716 -0.7781  0.2439 -0.5937
  950MOL0     H25379   6.498   9.085   4.706 -0.0529 -1.0053 -1.4450
  950MOL0     H25380   6.732   9.035   4.822  0.0103  0.3733  0.0396
  950MOL0     H25381   6.656   8.944   4.934  5.9701  0.0066 -2.1048
  950MOL0     H25382   5.540   9.041   4.880 -2.1982 -0.7215  1.5341
  950MOL0     H25383   5.378   9.176   5.032 -0.9094  3.0265  3.8525
  950MOL0     H25384   5.202   9.330   5.353 -4.2005  1.4945  1.2782
  950MOL0     H25385   5.020   9.442   5.458 -0.8788  1.9033  0.9770
  950MOL0     H25386   5.898  10.461   5.108 -0.0474 -1.2752 -0.5583
  950MOL0     H25387   6.073  10.545   4.976  0.4646 -0.3399  1.5707
  950MOL0     H25388   6.183  10.935   4.692 -0.2928  0.7911 -0.1666
  950MOL0     H25389   6.384  11.031   4.569 -0.5728  0.7470 -1.0803
  950MOL0     H25390   6.559  10.991   4.183  0.5917  1.2044  1.8278
  950MOL0     H25391   6.444  10.863   4.174 -0.6028  1.7805 -0.1985
  950MOL0     H25392   6.742  10.839   4.255 -0.1955  0.2039  1.9044
  950MOL0     H25393   6.619  10.717   4.291 -1.6480  2.2594  1.1060
  950MOL0     H25394   6.572  10.676   4.056  0.1180  0.6444 -2.0332
  950MOL0     H25395   6.750  10.665   4.077  2.6863  2.5407 -0.8169
  950MOL0     H25396   6.692  10.778   3.884 -1.5314 -0.4907  1.0802
  950MOL0     H25397   6.615  10.912   3.969 -2.5974 -1.2860  1.6327
  950MOL0     H25398   7.048  10.945   4.025  0.5966 -2.6149 -0.7304
  950MOL0     H25399   6.388  10.693   4.314  2.5285  3.3528 -2.7589
  950MOL0     H25400   6.210  10.584   4.450  0.0699 -0.2236 -0.2895
  951MOL0     O25401   5.305   2.503   8.281  0.4845 -0.3740 -0.1879
  951MOL0     C25402   5.220   2.594   8.299  0.4192 -0.7194  0.2486
  951MOL0     O25403   5.231   2.699   8.396  0.1190  0.4503  0.5110
  951MOL0     C25404   5.333   2.704   8.485 -0.4855 -0.5998 -0.6548
  951MOL0     C25405   5.464   2.697   8.440 -0.8630 -0.4827  0.1127
  951MOL0     C25406   5.579   2.728   8.526 -0.0597 -0.2977  0.6887
  951MOL0     C25407   5.555   2.759   8.663 -0.1483  0.3438 -0.7966
  951MOL0     O25408   5.649   2.782   8.765  0.0382 -0.0878 -0.0735
  951MOL0     C25409   5.787   2.745   8.733 -0.4954  0.4216 -0.2532
  951MOL0     C25410   5.854   2.727   8.870 -0.1206  0.0621  0.3654
  951MOL0     C25411   6.006   2.730   8.860  0.9168 -0.7122 -0.0076
  951MOL0     C25412   6.066   2.860   8.819  0.6257 -0.3027  0.1235
  951MOL0     C25413   6.213   2.860   8.819 -0.2823  0.3168 -0.1437
  951MOL0     C25414   6.275   2.965   8.728 -0.2519  0.1466 -0.2574
  951MOL0     C25415   6.224   3.101   8.787  0.4930  0.2428  0.6888
  951MOL0     C25416   6.292   3.216   8.728  0.1612  0.8889 -0.2858
  951MOL0     N25417   6.263   3.253   8.586 -0.0410 -0.4182  0.1534
  951MOL0     C25418   6.152   3.319   8.534  0.1402 -0.1804  0.1535
  951MOL0     C25419   6.177   3.317   8.402 -0.4764 -0.7273  0.6033
  951MOL0     C25420   6.085   3.377   8.299 -0.2774  0.3865 -0.8737
  951MOL0     C25421   5.994   3.277   8.231 -0.2438  0.6556 -0.0837
  951MOL0     C25422   6.073   3.176   8.135  0.1107 -0.1403 -0.2885
  951MOL0     C25423   5.975   3.107   8.049  0.0370 -0.6784  0.1769
  951MOL0     O25424   5.900   3.014   8.126 -0.0701  0.3322  0.0621
  951MOL0     C25425   5.815   2.942   8.037 -0.8465 -0.4454  0.1128
  951MOL0     C25426   5.684   2.910   8.084  0.1999 -0.7281 -0.5431
  951MOL0     C25427   5.591   2.855   8.000  0.1573  0.4441 -0.2799
  951MOL0     C25428   5.609   2.823   7.864 -0.7232 -0.9663 -0.5549
  951MOL0     C25429   5.496   2.777   7.773  0.1188  0.3443 -0.9931
  951MOL0     O25430   5.376   2.820   7.811 -0.1539 -0.2802  0.5448
  951MOL0     C25431   5.262   2.764   7.758  0.1687  0.2789  0.4176
  951MOL0     C25432   5.201   2.654   7.816  0.5776  0.6570  0.2063
  951MOL0     C25433   5.099   2.580   7.746  0.1731 -0.0125  0.5634
  951MOL0     C25434   5.065   2.621   7.615 -0.0274 -0.5380  0.4485
  951MOL0     O25435   4.955   2.563   7.556  0.1281  0.5408 -0.9589
  951MOL0     C25436   4.933   2.593   7.425 -0.2262  0.2068 -0.4402
  951MOL0     C25437   4.826   2.519   7.350  0.5611 -0.4533 -0.6243
  951MOL0     C25438   4.687   2.552   7.399  0.1878 -0.1478  0.1499
  951MOL0     C25439   4.579   2.470   7.329  0.2877 -0.4884  0.0185
  951MOL0     C25440   4.445   2.501   7.376 -0.3017  0.1884  0.9529
  951MOL0     C25441   4.331   2.440   7.288 -0.3107  0.4972  0.6173
  951MOL0     C25442   4.200   2.507   7.316  0.5053  0.3225 -0.2965
  951MOL0     C25443   4.096   2.476   7.216  0.6774  0.1015 -0.0234
  951MOL0    Cl25444   3.961   2.591   7.199 -0.5174  0.0409  0.0597
  951MOL0     C25445   5.133   2.736   7.560  0.3054  0.3602  0.8987
  951MOL0     C25446   5.224   2.810   7.633 -0.2348 -0.1875 -0.0330
  951MOL0     O25447   5.514   2.703   7.679  0.2873 -0.9875 -0.0926
  951MOL0     C25448   5.741   2.850   7.817  0.3693 -0.4885  0.3093
  951MOL0     C25449   5.834   2.910   7.903 -0.4638  0.0805  0.1914
  951MOL0     N25450   6.307   3.272   8.377  0.4023  0.5180  0.3681
  951MOL0     N25451   6.356   3.228   8.488 -0.1555  0.0343 -0.0399
  951MOL0     C25452   5.417   2.766   8.711 -0.8877 -0.4145 -0.0983
  951MOL0     C25453   5.309   2.748   8.621 -0.5651 -0.4792 -0.0542
  951MOL0     C25454   5.103   2.594   8.211  0.0163  0.5037 -1.0288
  951MOL0     C25455   5.082   2.484   8.124  0.3421 -0.7258  0.3677
  951MOL0     C25456   4.971   2.483   8.046 -0.1645 -0.7561  0.3931
  951MOL0     C25457   4.874   2.585   8.048  0.5052  0.7870 -0.2932
  951MOL0     O25458   4.753   2.574   7.979  0.1825 -0.1506  0.9451
  951MOL0     C25459   4.750   2.605   7.835  0.4012 -0.2018 -1.0765
  951MOL0     C25460   4.617   2.679   7.794  0.1981 -0.1703 -0.8049
  951MOL0     C25461   4.494   2.583   7.795  0.6943  0.3954 -0.6845
  951MOL0     C25462   4.374   2.663   7.743 -0.1169  0.0028 -0.8518
  951MOL0     C25463   4.252   2.601   7.796 -0.1933  0.3991 -0.9516
  951MOL0     C25464   4.153   2.541   7.831 -0.6616  0.0575 -0.0846
  951MOL0     C25465   4.902   2.695   8.122 -0.4638  0.2344 -0.7331
  951MOL0     C25466   5.017   2.696   8.207 -0.7567  0.1543  0.0666
  951MOL0     H25467   5.483   2.682   8.335 -2.0393 -1.1636 -0.0278
  951MOL0     H25468   5.679   2.740   8.486  1.4213 -1.8534  3.5792
  951MOL0     H25469   5.826   2.819   8.661  1.5787 -1.3969 -1.0990
  951MOL0     H25470   5.791   2.650   8.678 -0.0870 -0.6194  1.5221
  951MOL0     H25471   5.829   2.626   8.902  0.8397  0.4449  2.4930
  951MOL0     H25472   5.811   2.798   8.940 -0.7596  0.0221  0.0170
  951MOL0     H25473   6.035   2.643   8.800  0.2163 -0.0157 -1.4042
  951MOL0     H25474   6.051   2.715   8.959  2.0373  0.0872 -0.3794
  951MOL0     H25475   6.027   2.888   8.721 -2.0190 -0.7866  0.9804
  951MOL0     H25476   6.039   2.947   8.879 -1.7007 -0.6469 -0.3283
  951MOL0     H25477   6.245   2.758   8.793  1.3508  1.2106 -1.8719
  951MOL0     H25478   6.250   2.883   8.920 -1.9076  1.5772  0.1914
  951MOL0     H25479   6.257   2.953   8.621 -0.2206  0.9194 -0.3608
  951MOL0     H25480   6.384   2.958   8.734 -0.0368  1.4656 -2.0245
  951MOL0     H25481   6.117   3.119   8.773 -0.0813 -0.5228  3.5046
  951MOL0     H25482   6.231   3.103   8.896 -1.1047  0.4085  0.8110
  951MOL0     H25483   6.401   3.212   8.736  0.0480  1.2383  4.7388
  951MOL0     H25484   6.264   3.294   8.799 -0.1680 -1.2128  1.9977
  951MOL0     H25485   6.061   3.351   8.584 -0.9561  0.4349 -2.0887
  951MOL0     H25486   6.151   3.432   8.231  0.9652  2.0477  1.5111
  951MOL0     H25487   6.023   3.454   8.348 -2.1663 -0.3616 -1.9952
  951MOL0     H25488   5.913   3.324   8.176 -1.7712 -2.0644 -0.3224
  951MOL0     H25489   5.944   3.225   8.313  1.1750 -2.1049 -0.8439
  951MOL0     H25490   6.134   3.235   8.066 -1.8164  2.9582  0.4368
  951MOL0     H25491   6.134   3.103   8.188 -1.0076 -1.0808 -0.2680
  951MOL0     H25492   6.034   3.056   7.973 -0.2044  1.5269 -1.5678
  951MOL0     H25493   5.910   3.174   7.992  0.5241  0.0405  0.4506
  951MOL0     H25494   5.656   2.925   8.187  2.2129 -1.6684  0.1977
  951MOL0     H25495   5.500   2.818   8.047  1.3449 -1.2846  0.7720
  951MOL0     H25496   5.234   2.611   7.909  1.3090 -2.9606 -1.5500
  951MOL0     H25497   5.043   2.492   7.779 -1.8751 -0.3110 -3.1246
  951MOL0     H25498   5.018   2.574   7.359 -0.8898 -2.3168 -0.6827
  951MOL0     H25499   4.920   2.701   7.432  2.2055  0.5014  0.7440
  951MOL0     H25500   4.842   2.411   7.355  0.2055 -0.6344 -2.4824
  951MOL0     H25501   4.831   2.544   7.243  0.7393  2.2702 -0.0541
  951MOL0     H25502   4.665   2.655   7.368 -2.6348 -0.5472  0.5576
  951MOL0     H25503   4.676   2.544   7.507  2.6810 -1.5032  0.3637
  951MOL0     H25504   4.590   2.491   7.222  1.7127 -0.4398  0.1557
  951MOL0     H25505   4.596   2.362   7.336  1.6630 -0.2593  0.3879
  951MOL0     H25506   4.449   2.610   7.378  0.1807  0.1648  1.8777
  951MOL0     H25507   4.434   2.478   7.483  0.9577  0.9280  1.2596
  951MOL0     H25508   4.319   2.332   7.300 -0.4152  0.4085 -0.1821
  951MOL0     H25509   4.361   2.445   7.183 -1.7013 -3.7782 -0.1638
  951MOL0     H25510   4.149   2.490   7.411  0.6618  1.3052 -0.0255
  951MOL0     H25511   4.214   2.615   7.304  1.4625 -0.1096 -4.5918
  951MOL0     H25512   4.055   2.376   7.232 -2.6156  1.3320 -0.0882
  951MOL0     H25513   4.148   2.472   7.119  3.2268 -1.0936  1.3049
  951MOL0     H25514   5.121   2.777   7.460 -0.2955 -0.8421  0.4573
  951MOL0     H25515   5.282   2.888   7.586 -0.7351 -1.0726 -2.2302
  951MOL0     H25516   5.763   2.836   7.712  1.5401  3.0963 -0.0461
  951MOL0     H25517   5.931   2.924   7.855 -0.3176  2.2978  0.9975
  951MOL0     H25518   5.395   2.780   8.816 -2.0660 -1.8260 -0.1237
  951MOL0     H25519   5.215   2.766   8.672  0.8502  1.5680  2.0432
  951MOL0     H25520   5.155   2.404   8.122 -0.0950 -1.1824  1.4871
  951MOL0     H25521   4.963   2.401   7.976  3.5297 -0.8952 -0.0733
  951MOL0     H25522   4.768   2.514   7.777 -0.3317 -0.6597 -0.5879
  951MOL0     H25523   4.840   2.665   7.815 -0.2395  0.5735 -1.7247
  951MOL0     H25524   4.598   2.751   7.874 -1.1453 -2.1050  0.7030
  951MOL0     H25525   4.623   2.731   7.698  0.6758  1.4742  0.0793
  951MOL0     H25526   4.472   2.547   7.896  0.4598 -0.0105 -0.8760
  951MOL0     H25527   4.511   2.489   7.741  1.1580 -0.1815  0.4382
  951MOL0     H25528   4.371   2.767   7.775 -1.5790 -0.2478 -0.0770
  951MOL0     H25529   4.376   2.652   7.634 -0.6885 -0.5138 -0.8231
  951MOL0     H25530   4.064   2.489   7.862 -1.1138  1.5687  1.3265
  951MOL0     H25531   4.829   2.774   8.118  0.3012  0.9299 -1.4335
  951MOL0     H25532   5.036   2.792   8.256 -0.2452  0.7297 -1.2072
  952MOL0     O25533   1.451   5.036   5.109 -0.5369 -0.0202  0.0087
  952MOL0     C25534   1.454   5.018   4.991 -0.3431 -0.2523  0.4207
  952MOL0     O25535   1.353   4.978   4.911  0.1144  0.4675  0.1469
  952MOL0     C25536   1.236   4.940   4.975 -0.5142  0.5715 -0.6583
  952MOL0     C25537   1.131   5.032   5.001  0.2971  0.0591  0.4786
  952MOL0     C25538   1.022   4.999   5.079  0.0799 -0.1992 -0.2572
  952MOL0     C25539   1.000   4.867   5.111 -0.1724  0.0302 -0.5664
  952MOL0     O25540   0.885   4.832   5.178  1.0684 -0.0954 -0.1572
  952MOL0     C25541   0.908   4.740   5.289  0.3052  0.5849  0.0914
  952MOL0     C25542   0.799   4.750   5.405 -0.0278 -0.1064  0.3105
  952MOL0     C25543   0.669   4.692   5.357 -0.4782  0.0592  0.4869
  952MOL0     C25544   0.670   4.540   5.326  1.1099 -1.1037  0.4511
  952MOL0     C25545   0.523   4.505   5.296 -0.2437  1.2519  0.0854
  952MOL0     C25546   0.510   4.367   5.240 -0.0965  0.2031 -0.1216
  952MOL0     C25547   0.389   4.340   5.153 -0.1849  0.6675 -0.6470
  952MOL0     C25548   0.260   4.367   5.214  0.1457 -0.2619 -0.6467
  952MOL0     N25549   0.210   4.280   5.314 -0.0224 -0.1585  0.2720
  952MOL0     C25550   0.103   4.319   5.398 -0.1601  0.9068 -0.0983
  952MOL0     C25551   0.079   4.211   5.470 -0.5254  0.0614  0.3241
  952MOL0     C25552  -0.042   4.202   5.565 -0.2915  1.1899 -0.6110
  952MOL0     C25553  -0.156   4.131   5.492 -0.3397 -0.2873 -0.3912
  952MOL0     C25554  -0.137   3.978   5.442  0.1440 -0.5660 -0.6888
  952MOL0     C25555  -0.251   3.886   5.447 -0.1255  0.1898  0.1511
  952MOL0     O25556  -0.359   3.948   5.373  0.1108 -0.0597  0.0184
  952MOL0     C25557  -0.493   3.901   5.387 -0.1758  0.2356  0.8132
  952MOL0     C25558  -0.527   3.764   5.427  0.6118 -0.5468  0.1262
  952MOL0     C25559  -0.650   3.728   5.458 -0.1549 -1.2265 -0.0468
  952MOL0     C25560  -0.755   3.816   5.434  0.6472 -0.2117  0.3223
  952MOL0     C25561  -0.896   3.770   5.454  0.0671  0.2917 -0.2938
  952MOL0     O25562  -0.988   3.860   5.482 -0.2524 -0.2336  0.4843
  952MOL0     C25563  -1.115   3.831   5.508  0.9658  0.2955 -1.1069
  952MOL0     C25564  -1.183   3.921   5.591  0.2466  0.2492  0.1179
  952MOL0     C25565  -1.324   3.908   5.610  0.7671 -0.1072  0.4573
  952MOL0     C25566  -1.397   3.807   5.538  0.3541 -0.2100  0.7990
  952MOL0     O25567  -1.536   3.807   5.555 -0.7097  0.1164 -0.1982
  952MOL0     C25568  -1.606   3.700   5.482  0.0280  0.2632 -0.1119
  952MOL0     C25569  -1.756   3.703   5.520  0.1953  0.2630 -0.3206
  952MOL0     C25570  -1.823   3.831   5.478 -0.0252  0.1378  0.0825
  952MOL0     C25571  -1.969   3.827   5.527 -0.0349  0.5708 -0.4537
  952MOL0     C25572  -2.048   3.937   5.457  0.4790 -0.2783  0.5300
  952MOL0     C25573  -2.200   3.925   5.489 -0.4534 -0.5196  0.0252
  952MOL0     C25574  -2.231   3.928   5.640 -0.7716  0.1984 -0.6995
  952MOL0     C25575  -2.375   3.965   5.673  0.2154 -0.0156  0.5577
  952MOL0    Cl25576  -2.488   3.845   5.600 -0.0031 -0.5611  0.2088
  952MOL0     C25577  -1.327   3.717   5.457 -0.0913 -0.2962 -0.7787
  952MOL0     C25578  -1.192   3.738   5.442 -0.6272 -0.4842  0.4264
  952MOL0     O25579  -0.909   3.644   5.443  0.4326 -0.2480  0.1753
  952MOL0     C25580  -0.724   3.945   5.384 -0.0968  0.2432  0.3151
  952MOL0     C25581  -0.597   3.987   5.368  0.8953  0.2029  0.5694
  952MOL0     N25582   0.170   4.116   5.443 -0.9277  0.3351  0.0100
  952MOL0     N25583   0.252   4.151   5.348 -0.6512  0.1471  0.4262
  952MOL0     C25584   1.093   4.771   5.069 -0.1656 -0.0756 -0.2254
  952MOL0     C25585   1.219   4.812   5.012  0.5284  0.5532 -0.3418
  952MOL0     C25586   1.575   5.055   4.918  0.0123 -0.2397  0.2188
  952MOL0     C25587   1.698   5.057   4.988 -0.0056 -0.4152  0.8813
  952MOL0     C25588   1.822   5.070   4.918 -0.3190 -0.0924 -1.1028
  952MOL0     C25589   1.820   5.083   4.783 -0.1489  0.0688  0.2916
  952MOL0     O25590   1.943   5.098   4.731  0.2455  1.1758 -0.0595
  952MOL0     C25591   1.952   5.120   4.587 -0.3206  0.6776 -0.3204
  952MOL0     C25592   2.101   5.143   4.541 -0.4970  0.1379  0.4356
  952MOL0     C25593   2.172   5.272   4.582  0.0826  0.0613 -0.5736
  952MOL0     C25594   2.278   5.310   4.473 -0.0237  0.1985 -0.2067
  952MOL0     C25595   2.352   5.432   4.522  0.1584 -0.1252  0.4098
  952MOL0     C25596   2.419   5.524   4.565  0.1117 -0.4177 -0.9887
  952MOL0     C25597   1.703   5.083   4.712  0.4261 -0.0127 -0.4213
  952MOL0     C25598   1.582   5.058   4.779  0.6074 -0.2522  0.3834
  952MOL0     H25599   1.143   5.135   4.970  1.0657  0.1040  0.8985
  952MOL0     H25600   0.944   5.070   5.106 -1.2083 -1.6541 -0.0102
  952MOL0     H25601   1.009   4.758   5.328  0.9046  2.1932 -2.0538
  952MOL0     H25602   0.904   4.640   5.244  0.5613  0.6999 -0.1921
  952MOL0     H25603   0.769   4.850   5.437 -1.0396 -1.3223  3.6299
  952MOL0     H25604   0.830   4.695   5.494 -1.9204  0.9741  1.7249
  952MOL0     H25605   0.646   4.740   5.262 -2.4083 -3.1500 -0.8198
  952MOL0     H25606   0.588   4.706   5.430  0.7368  1.7081  1.6196
  952MOL0     H25607   0.727   4.530   5.233 -0.5134  0.2377 -0.7641
  952MOL0     H25608   0.706   4.485   5.412 -0.5244  1.0154  2.6279
  952MOL0     H25609   0.485   4.568   5.215 -0.9198 -1.7106 -2.0426
  952MOL0     H25610   0.457   4.510   5.383  0.8100 -0.0542  0.9931
  952MOL0     H25611   0.500   4.297   5.323  1.2119  0.6572  0.4380
  952MOL0     H25612   0.601   4.350   5.182  1.2110  1.2124  1.5880
  952MOL0     H25613   0.401   4.396   5.060  1.3817  1.3866 -0.0463
  952MOL0     H25614   0.392   4.233   5.132  0.7004  0.8850 -1.6869
  952MOL0     H25615   0.190   4.365   5.130  0.0239 -1.6479 -0.5366
  952MOL0     H25616   0.264   4.471   5.248 -3.6627  1.2227 -3.9077
  952MOL0     H25617   0.052   4.414   5.390 -1.8669  0.0937  0.6830
  952MOL0     H25618  -0.076   4.304   5.586 -2.7299  0.4525 -0.7239
  952MOL0     H25619  -0.010   4.150   5.656  0.3064  1.4871 -0.6482
  952MOL0     H25620  -0.179   4.192   5.404 -0.8003 -0.1132 -0.1559
  952MOL0     H25621  -0.235   4.130   5.567  0.9980 -2.4574  1.1113
  952MOL0     H25622  -0.104   3.982   5.338  0.4532  3.5841 -0.6054
  952MOL0     H25623  -0.058   3.941   5.508 -0.4446  0.3202  0.5635
  952MOL0     H25624  -0.277   3.865   5.551  0.4656  2.3158  0.7761
  952MOL0     H25625  -0.231   3.792   5.395 -1.8267 -0.2107  0.1604
  952MOL0     H25626  -0.449   3.689   5.434 -0.4608 -1.6347  0.7721
  952MOL0     H25627  -0.672   3.628   5.494  1.9364 -1.2862  1.2351
  952MOL0     H25628  -1.141   4.006   5.645  3.8708  0.0227 -1.9948
  952MOL0     H25629  -1.373   3.979   5.675 -2.4750 -2.3498  0.6799
  952MOL0     H25630  -1.576   3.598   5.510 -0.9631 -0.5759 -1.9515
  952MOL0     H25631  -1.595   3.714   5.374  1.4100 -2.1490 -0.3689
  952MOL0     H25632  -1.766   3.686   5.627 -1.0594  0.2883 -0.4158
  952MOL0     H25633  -1.806   3.624   5.462  3.9757 -0.2894 -3.1984
  952MOL0     H25634  -1.813   3.837   5.369  2.2905 -2.7171  0.0071
  952MOL0     H25635  -1.782   3.914   5.536 -0.0648 -0.4828  1.0128
  952MOL0     H25636  -2.028   3.739   5.501 -0.0856  0.6826 -0.7194
  952MOL0     H25637  -1.965   3.832   5.636  0.8073  2.1531 -0.5223
  952MOL0     H25638  -2.052   3.920   5.349  0.3368 -2.7493  0.8657
  952MOL0     H25639  -2.006   4.035   5.481 -0.1984  0.5237 -1.2872
  952MOL0     H25640  -2.227   3.834   5.436  0.8771 -0.5860 -0.5966
  952MOL0     H25641  -2.249   4.017   5.456  0.8854  0.0540 -0.4564
  952MOL0     H25642  -2.198   3.834   5.685  1.8121  2.3624  2.4465
  952MOL0     H25643  -2.162   3.998   5.688 -0.8282 -1.1846  1.5518
  952MOL0     H25644  -2.397   4.055   5.615  1.3569 -1.0939 -1.7060
  952MOL0     H25645  -2.402   3.978   5.778  0.1575 -3.7633  1.1427
  952MOL0     H25646  -1.379   3.642   5.398 -0.8150  0.1278 -0.6938
  952MOL0     H25647  -1.142   3.673   5.370 -0.4558  0.1165 -0.0114
  952MOL0     H25648  -0.803   4.010   5.347  1.0035  0.5725 -1.5979
  952MOL0     H25649  -0.579   4.088   5.332 -3.0411  1.4613  1.5783
  952MOL0     H25650   1.081   4.670   5.107  2.5205  0.0935  1.2707
  952MOL0     H25651   1.298   4.741   4.985  0.8001  1.6563 -2.7322
  952MOL0     H25652   1.706   5.062   5.096  2.8678  0.5540  0.7027
  952MOL0     H25653   1.910   5.081   4.979 -1.2380  6.0866 -0.1967
  952MOL0     H25654   1.889   5.206   4.563  0.7228  1.1699 -1.3451
  952MOL0     H25655   1.907   5.041   4.525 -0.2868  0.9746 -0.7243
  952MOL0     H25656   2.158   5.058   4.583  1.8243  1.1129 -0.5527
  952MOL0     H25657   2.108   5.126   4.434  3.9128  1.9392  0.2370
  952MOL0     H25658   2.224   5.256   4.677 -0.4567  0.0165 -0.2809
  952MOL0     H25659   2.097   5.352   4.590 -1.4937 -1.3476 -0.5802
  952MOL0     H25660   2.356   5.235   4.458 -1.2599 -0.7569 -2.1608
  952MOL0     H25661   2.233   5.322   4.375 -0.9786  0.5038  0.2531
  952MOL0     H25662   2.480   5.606   4.596  0.5638 -0.9015 -0.5790
  952MOL0     H25663   1.708   5.093   4.604  0.4188  4.4943 -0.1871
  952MOL0     H25664   1.494   5.046   4.717  1.0776 -0.0394 -0.3496
  953MOL0     O25665   2.480   6.601   7.837  0.7308 -0.3797 -0.2616
  953MOL0     C25666   2.590   6.545   7.840 -0.1092 -0.6714 -0.0775
  953MOL0     O25667   2.712   6.608   7.824 -0.8094  0.4253 -0.4596
  953MOL0     C25668   2.727   6.733   7.773  0.4376  0.1218  0.2357
  953MOL0     C25669   2.685   6.758   7.641  0.4092  0.7551  0.4953
  953MOL0     C25670   2.705   6.882   7.586 -0.2762  0.0406  0.0262
  953MOL0     C25671   2.761   6.990   7.657  0.2934  0.1321 -0.9669
  953MOL0     O25672   2.791   7.113   7.600 -0.3600 -0.5711  0.5739
  953MOL0     C25673   2.855   7.210   7.679 -0.8687  0.6420 -0.1293
  953MOL0     C25674   2.877   7.318   7.581 -0.3871 -0.3479 -0.0225
  953MOL0     C25675   2.989   7.410   7.626 -0.7425 -0.1187  0.2887
  953MOL0     C25676   3.029   7.510   7.512  0.0820  0.2219 -0.8583
  953MOL0     C25677   3.148   7.602   7.565 -0.7181  0.1616 -0.2076
  953MOL0     C25678   3.192   7.669   7.429  0.0820  0.2857 -0.6630
  953MOL0     C25679   3.291   7.789   7.451  0.8765  0.1946 -0.5695
  953MOL0     C25680   3.433   7.739   7.453 -0.1861 -0.2794 -0.3396
  953MOL0     N25681   3.472   7.677   7.578  0.2252 -0.0386  0.5036
  953MOL0     C25682   3.514   7.547   7.595  0.0475 -0.2422 -0.2074
  953MOL0     C25683   3.579   7.541   7.714 -0.4180  0.1951  0.3789
  953MOL0     C25684   3.652   7.423   7.772  0.8161 -0.4322 -0.2951
  953MOL0     C25685   3.559   7.295   7.795 -0.6613 -0.7768  0.5204
  953MOL0     C25686   3.424   7.329   7.866  0.3726  0.8662 -0.6775
  953MOL0     C25687   3.451   7.395   8.011  0.0045 -0.4914  0.4712
  953MOL0     O25688   3.334   7.382   8.092 -0.1915 -0.4188 -0.2571
  953MOL0     C25689   3.228   7.464   8.064 -0.6944 -0.0943  0.2763
  953MOL0     C25690   3.236   7.571   7.966 -0.7990  0.4081 -0.2274
  953MOL0     C25691   3.118   7.647   7.934 -0.6436  0.9824 -0.5498
  953MOL0     C25692   2.996   7.618   7.990  0.4608  0.6115 -0.4797
  953MOL0     C25693   2.882   7.695   7.957  0.4070  0.1900 -0.2158
  953MOL0     O25694   2.910   7.800   7.894  0.2616  0.0189  0.4697
  953MOL0     C25695   2.830   7.910   7.876  0.8554  0.1008 -0.3697
  953MOL0     C25696   2.776   7.979   7.983  0.2433  0.0204  0.1780
  953MOL0     C25697   2.708   8.103   7.965  0.1135  0.0544  0.0436
  953MOL0     C25698   2.699   8.159   7.841  0.1703  0.4285  0.3392
  953MOL0     O25699   2.644   8.277   7.812  0.2626  0.2430 -0.3603
  953MOL0     C25700   2.509   8.293   7.857  0.4486 -0.2964  0.1258
  953MOL0     C25701   2.456   8.419   7.797  0.0286 -0.5437 -0.9455
  953MOL0     C25702   2.311   8.447   7.817  0.0021 -0.1720 -0.0069
  953MOL0     C25703   2.280   8.531   7.938  0.1961  0.4265  0.3488
  953MOL0     C25704   2.152   8.599   7.927 -0.4297 -0.3332 -0.4496
  953MOL0     C25705   2.123   8.684   8.056 -0.2403  0.6611 -0.3233
  953MOL0     C25706   1.979   8.694   8.081 -0.0830  0.2889  0.1852
  953MOL0     C25707   1.949   8.760   8.212 -0.3577  0.1023 -0.9308
  953MOL0    Cl25708   1.782   8.714   8.271  0.1729  0.0520  0.4675
  953MOL0     C25709   2.742   8.082   7.725 -0.5690 -0.0688  0.1738
  953MOL0     C25710   2.812   7.966   7.745  0.6075 -0.8472  0.2885
  953MOL0     O25711   2.772   7.667   7.992  0.5799 -0.1297  0.2866
  953MOL0     C25712   2.992   7.516   8.087 -0.5975 -0.5182 -1.0482
  953MOL0     C25713   3.108   7.446   8.129 -1.0091 -1.4917  0.0949
  953MOL0     N25714   3.566   7.665   7.772 -0.1408  0.4695 -0.6239
  953MOL0     N25715   3.505   7.743   7.685 -0.6055 -0.0381 -0.8953
  953MOL0     C25716   2.796   6.963   7.791 -1.0209 -0.5472  0.5650
  953MOL0     C25717   2.782   6.837   7.850 -0.1422  0.2606 -0.1379
  953MOL0     C25718   2.579   6.399   7.878  0.0865 -0.4154  0.0774
  953MOL0     C25719   2.452   6.337   7.897  0.5735 -0.8672 -0.4025
  953MOL0     C25720   2.448   6.199   7.932 -0.2687 -0.3357  0.5530
  953MOL0     C25721   2.565   6.121   7.940 -0.2942 -0.6554 -0.3970
  953MOL0     O25722   2.562   5.991   7.980 -0.2365  0.3970 -0.2731
  953MOL0     C25723   2.453   5.944   8.060  0.2656  0.1345 -0.0179
  953MOL0     C25724   2.463   5.786   8.064 -0.4694  0.4852 -0.4805
  953MOL0     C25725   2.366   5.734   8.170  0.4448  0.7814  0.1097
  953MOL0     C25726   2.392   5.576   8.183  0.0979  0.8236  0.3205
  953MOL0     C25727   2.292   5.517   8.269  0.0524 -0.2564  0.6908
  953MOL0     C25728   2.202   5.462   8.340  0.3464 -0.7463  0.4986
  953MOL0     C25729   2.687   6.178   7.909  0.3684 -0.7073 -0.2099
  953MOL0     C25730   2.693   6.314   7.877  0.0137  0.5659 -0.3386
  953MOL0     H25731   2.655   6.675   7.578  3.7745 -2.1528  2.3740
  953MOL0     H25732   2.674   6.896   7.484 -0.3841  1.7917  0.2660
  953MOL0     H25733   2.939   7.161   7.729 -0.7753 -0.7572 -1.5481
  953MOL0     H25734   2.795   7.253   7.759 -0.3198  1.5840 -0.2087
  953MOL0     H25735   2.789   7.382   7.581 -1.3704 -1.6640 -0.4119
  953MOL0     H25736   2.899   7.278   7.481  0.5267 -2.1505  0.8456
  953MOL0     H25737   3.078   7.355   7.657 -1.2009 -1.0209  0.0215
  953MOL0     H25738   2.957   7.466   7.715  0.8515  2.5672 -0.7172
  953MOL0     H25739   3.055   7.458   7.419 -0.6876  0.8557 -1.4516
  953MOL0     H25740   2.937   7.565   7.490  0.7918  1.4661 -0.8202
  953MOL0     H25741   3.224   7.533   7.602 -3.5018 -3.1137 -0.0188
  953MOL0     H25742   3.121   7.674   7.643 -3.5117 -2.6604  1.6600
  953MOL0     H25743   3.107   7.707   7.373 -0.9728  0.8560  1.2289
  953MOL0     H25744   3.236   7.587   7.371 -0.2133 -0.3891  0.0416
  953MOL0     H25745   3.269   7.861   7.371  1.2300 -1.4450 -2.2282
  953MOL0     H25746   3.270   7.840   7.545  2.6892  1.3720 -0.7458
  953MOL0     H25747   3.496   7.826   7.433  0.7933 -0.5434  1.3989
  953MOL0     H25748   3.440   7.662   7.376 -0.7098  0.3388 -1.0205
  953MOL0     H25749   3.495   7.468   7.523  1.3185 -1.0564  0.3144
  953MOL0     H25750   3.707   7.463   7.858  1.0954  0.4990 -0.8908
  953MOL0     H25751   3.725   7.392   7.696  1.0665  1.1791 -0.7497
  953MOL0     H25752   3.612   7.219   7.853  0.8943  0.3376  0.6197
  953MOL0     H25753   3.528   7.251   7.699  0.3405 -4.8100  1.8427
  953MOL0     H25754   3.361   7.389   7.800  0.5535 -1.7283 -3.3858
  953MOL0     H25755   3.378   7.230   7.879  2.4980 -0.2355 -1.1458
  953MOL0     H25756   3.477   7.501   8.003 -1.8426 -0.1350 -2.9562
  953MOL0     H25757   3.535   7.338   8.052 -1.5571 -4.3492 -1.2362
  953MOL0     H25758   3.323   7.603   7.910 -2.1348  2.2845 -1.3607
  953MOL0     H25759   3.124   7.725   7.858 -0.2386  1.0384 -0.4619
  953MOL0     H25760   2.794   7.942   8.084  3.2484 -1.8622 -0.9280
  953MOL0     H25761   2.677   8.163   8.050  0.7739 -1.0758  1.1127
  953MOL0     H25762   2.510   8.306   7.966  0.3427 -2.2349  0.3955
  953MOL0     H25763   2.450   8.211   7.816 -0.7283  0.4229  0.3560
  953MOL0     H25764   2.466   8.417   7.688 -2.3175  0.8402 -1.2706
  953MOL0     H25765   2.518   8.497   7.843 -1.6721  0.3845 -0.0964
  953MOL0     H25766   2.245   8.361   7.807 -0.1968 -0.0403  0.1646
  953MOL0     H25767   2.279   8.506   7.731  0.5271 -1.4344 -1.0914
  953MOL0     H25768   2.296   8.481   8.034 -3.6883  0.4947  1.2319
  953MOL0     H25769   2.352   8.612   7.940  0.6386  0.2355 -3.1469
  953MOL0     H25770   2.075   8.529   7.891 -0.9767  0.2438 -0.4189
  953MOL0     H25771   2.155   8.681   7.854 -1.1797  1.7383  1.7291
  953MOL0     H25772   2.169   8.782   8.046  0.7286  0.1372 -1.2241
  953MOL0     H25773   2.172   8.633   8.140  0.1720  0.1877 -0.8395
  953MOL0     H25774   1.935   8.750   7.997  2.6885  1.1159 -0.8168
  953MOL0     H25775   1.927   8.597   8.079  0.8694 -0.2448  0.6621
  953MOL0     H25776   1.978   8.865   8.211  0.2052  0.0213  1.4537
  953MOL0     H25777   2.017   8.714   8.285  1.4616  0.6495 -2.2077
  953MOL0     H25778   2.726   8.127   7.628  1.2841  2.3951  0.8977
  953MOL0     H25779   2.837   7.918   7.651 -4.4260  0.7488 -2.1741
  953MOL0     H25780   2.899   7.491   8.137  0.0967  1.5063  1.4884
  953MOL0     H25781   3.101   7.376   8.212  0.9257  2.2023  3.7502
  953MOL0     H25782   2.845   7.040   7.850 -0.6950 -0.2686 -0.0650
  953MOL0     H25783   2.824   6.830   7.950  0.7056 -1.2104 -0.5592
  953MOL0     H25784   2.356   6.387   7.893 -1.7925 -5.0341 -1.8474
  953MOL0     H25785   2.346   6.168   7.952  0.1063 -1.1785  1.2609
  953MOL0     H25786   2.358   5.975   8.016  0.7101  0.1135 -1.0099
  953MOL0     H25787   2.465   5.985   8.161 -0.0483 -1.2002  0.5872
  953MOL0     H25788   2.440   5.735   7.970 -1.5439 -0.7119  0.3994
  953MOL0     H25789   2.563   5.753   8.096  0.7421  2.3005 -2.1307
  953MOL0     H25790   2.262   5.748   8.141 -0.3278 -0.3437  2.1856
  953MOL0     H25791   2.379   5.781   8.268 -1.7059  0.9077  0.3728
  953MOL0     H25792   2.393   5.531   8.083  1.9599  2.5392 -0.5050
  953MOL0     H25793   2.490   5.554   8.227  0.1863 -1.0248 -0.6867
  953MOL0     H25794   2.115   5.428   8.392  0.3156 -0.2728  0.7647
  953MOL0     H25795   2.773   6.112   7.919  0.1562 -1.0360 -0.5554
  953MOL0     H25796   2.782   6.373   7.857 -0.5404  0.5553 -3.2687
  954MOL0     O25797   8.020   3.571   8.892 -0.4818 -0.8838 -0.4360
  954MOL0     C25798   8.074   3.637   8.805  0.4408 -0.2549  0.7149
  954MOL0     O25799   8.019   3.733   8.723 -0.2092  0.2651  0.2467
  954MOL0     C25800   7.900   3.796   8.744  0.3245 -0.0985  0.0917
  954MOL0     C25801   7.812   3.791   8.849 -0.3646 -0.3993 -0.2471
  954MOL0     C25802   7.703   3.879   8.852  0.8847  0.1582 -0.8902
  954MOL0     C25803   7.665   3.964   8.741  0.0202 -0.0117 -0.3475
  954MOL0     O25804   7.540   4.024   8.743 -0.2255 -0.1912 -0.4206
  954MOL0     C25805   7.417   3.947   8.748 -0.0000  0.6824  0.7166
  954MOL0     C25806   7.297   4.038   8.753 -0.3546 -0.9240 -0.4487
  954MOL0     C25807   7.165   3.960   8.788  0.1692  0.6015 -0.7432
  954MOL0     C25808   7.119   3.893   8.663 -0.0260  0.6616 -0.0286
  954MOL0     C25809   6.974   3.850   8.657 -0.4443 -0.4709  0.1996
  954MOL0     C25810   6.947   3.752   8.766 -0.3119  0.1194  0.3868
  954MOL0     C25811   6.986   3.608   8.725 -0.9735  1.4916  0.3281
  954MOL0     C25812   7.045   3.528   8.855  0.3479 -1.0408  0.6202
  954MOL0     N25813   7.125   3.402   8.830  0.4647 -0.3600 -0.1620
  954MOL0     C25814   7.092   3.311   8.735 -0.5906 -0.3257  0.2477
  954MOL0     C25815   7.171   3.199   8.762  0.6849 -0.1178 -0.6206
  954MOL0     C25816   7.158   3.059   8.709 -0.5166  1.0511  0.2157
  954MOL0     C25817   7.294   2.983   8.697 -0.6555 -0.4461 -0.1585
  954MOL0     C25818   7.399   3.053   8.617 -0.6095  0.6378  0.2882
  954MOL0     C25819   7.527   2.980   8.594 -0.0647  0.0948 -0.1012
  954MOL0     O25820   7.576   2.938   8.715  0.0082  1.0586 -0.0655
  954MOL0     C25821   7.698   2.876   8.700 -0.4482 -0.1890 -0.8390
  954MOL0     C25822   7.814   2.946   8.713 -0.3957  0.4682 -0.7195
  954MOL0     C25823   7.935   2.882   8.697  0.2024 -0.1751 -0.0721
  954MOL0     C25824   7.947   2.751   8.665 -0.3603  0.9603 -0.2473
  954MOL0     C25825   8.070   2.675   8.643  0.1019 -0.1570 -0.0619
  954MOL0     O25826   8.188   2.737   8.612  0.1689 -0.2517  0.5942
  954MOL0     C25827   8.314   2.696   8.630 -0.4237 -0.2366  0.7188
  954MOL0     C25828   8.350   2.595   8.719  0.0599 -0.1225 -0.4550
  954MOL0     C25829   8.487   2.567   8.740  0.3005  0.2944 -0.9526
  954MOL0     C25830   8.588   2.625   8.665  0.3101 -0.1033  0.5211
  954MOL0     O25831   8.720   2.584   8.699  0.0887 -0.0157  0.4123
  954MOL0     C25832   8.828   2.644   8.630 -0.6536  0.3258  0.2268
  954MOL0     C25833   8.855   2.790   8.676  0.3896  0.2598  1.1074
  954MOL0     C25834   8.968   2.809   8.785  0.4686  0.3861  0.5956
  954MOL0     C25835   9.104   2.780   8.722 -0.3208 -0.1069 -0.2585
  954MOL0     C25836   9.213   2.851   8.796  0.0735  0.6534 -0.3432
  954MOL0     C25837   9.362   2.818   8.770  0.4651 -0.1628 -0.1005
  954MOL0     C25838   9.384   2.679   8.825 -0.3803 -0.0328  0.4346
  954MOL0     C25839   9.532   2.663   8.863  0.2491  0.3487  0.0452
  954MOL0    Cl25840   9.634   2.711   8.716  0.0901 -0.2042  0.3662
  954MOL0     C25841   8.557   2.729   8.577  0.3238 -0.6417  0.2082
  954MOL0     C25842   8.418   2.755   8.551 -0.0630 -0.2523  0.1766
  954MOL0     O25843   8.066   2.552   8.668  0.3502  0.1812  0.3390
  954MOL0     C25844   7.823   2.683   8.647 -0.1489  0.9342  0.2743
  954MOL0     C25845   7.697   2.746   8.670 -0.1826  1.3777 -0.1698
  954MOL0     N25846   7.242   3.237   8.879 -0.0157 -0.7468  0.6628
  954MOL0     N25847   7.223   3.359   8.907  0.0812  0.0394 -0.6025
  954MOL0     C25848   7.752   3.958   8.632 -0.5171 -0.6116  0.9921
  954MOL0     C25849   7.865   3.879   8.633 -0.0439  0.6197  0.0854
  954MOL0     C25850   8.203   3.591   8.753 -1.1504  0.7577  0.2583
  954MOL0     C25851   8.261   3.626   8.625 -0.2910  0.6741  1.4341
  954MOL0     C25852   8.396   3.580   8.588  0.3010 -0.2966  0.8766
  954MOL0     C25853   8.468   3.500   8.681  0.8197 -0.1100  0.0260
  954MOL0     O25854   8.596   3.462   8.643  0.3904 -0.5442 -0.6661
  954MOL0     C25855   8.685   3.480   8.746 -0.1600 -0.0548  0.0475
  954MOL0     C25856   8.816   3.472   8.675  0.2645  0.1538 -0.6067
  954MOL0     C25857   8.872   3.337   8.633 -0.2173 -0.1417 -0.0590
  954MOL0     C25858   8.991   3.343   8.530 -0.0531  0.0975 -0.8949
  954MOL0     C25859   9.053   3.213   8.513 -0.6479 -0.0630  0.5323
  954MOL0     C25860   9.126   3.121   8.479 -0.1849  0.1268  0.2935
  954MOL0     C25861   8.401   3.457   8.799 -0.1408  0.4995  0.6853
  954MOL0     C25862   8.271   3.499   8.836 -0.1250  0.2614  0.7605
  954MOL0     H25863   7.836   3.714   8.922 -1.4376 -1.0857 -0.5957
  954MOL0     H25864   7.643   3.878   8.943  2.0999 -2.4158  0.0135
  954MOL0     H25865   7.414   3.875   8.830 -1.0957 -1.4150 -1.0820
  954MOL0     H25866   7.408   3.901   8.649  1.3007 -1.4086  1.4954
  954MOL0     H25867   7.286   4.102   8.665 -0.0092  0.3621  0.4139
  954MOL0     H25868   7.323   4.111   8.831  2.7169 -1.7457 -0.5559
  954MOL0     H25869   7.093   4.026   8.838  1.2656  0.0754  1.6445
  954MOL0     H25870   7.197   3.879   8.854 -0.3169 -1.2998 -2.7306
  954MOL0     H25871   7.128   3.957   8.575 -0.8749 -0.9479 -1.3344
  954MOL0     H25872   7.175   3.801   8.649 -0.0304  0.9009 -1.8110
  954MOL0     H25873   6.945   3.813   8.558 -0.7369  0.7409 -0.1844
  954MOL0     H25874   6.912   3.936   8.682  0.9961 -0.6285  5.5014
  954MOL0     H25875   6.841   3.749   8.791 -0.0367  0.3434  1.6166
  954MOL0     H25876   6.993   3.781   8.861 -1.1377  1.7726  0.3235
  954MOL0     H25877   6.902   3.553   8.681 -0.2785  2.2527 -2.0627
  954MOL0     H25878   7.072   3.608   8.658 -1.8246  0.6314 -0.7843
  954MOL0     H25879   6.955   3.505   8.913 -1.7739 -2.3467 -2.8929
  954MOL0     H25880   7.102   3.604   8.907  0.8118 -1.6728  1.0527
  954MOL0     H25881   7.012   3.311   8.662  1.3640 -2.0004 -2.0540
  954MOL0     H25882   7.111   3.057   8.610  0.4382 -0.2538 -0.2509
  954MOL0     H25883   7.086   2.999   8.766  2.6766 -2.7504  0.6641
  954MOL0     H25884   7.276   2.894   8.636  0.6358  0.1338 -1.4560
  954MOL0     H25885   7.328   2.953   8.796  0.8065 -2.3397 -1.1682
  954MOL0     H25886   7.354   3.060   8.517 -1.7482 -1.9926  0.5524
  954MOL0     H25887   7.411   3.149   8.668  1.2955  0.0485  0.9928
  954MOL0     H25888   7.604   3.043   8.549  0.5650 -0.5716  0.0299
  954MOL0     H25889   7.511   2.895   8.527  1.4724 -0.3027  0.0003
  954MOL0     H25890   7.813   3.048   8.751  0.2648  0.0296  0.5161
  954MOL0     H25891   8.025   2.938   8.720  1.7080 -0.9521 -3.4400
  954MOL0     H25892   8.274   2.549   8.781  0.6055  0.9197  1.0285
  954MOL0     H25893   8.503   2.494   8.819 -1.3253 -2.0283 -2.6284
  954MOL0     H25894   8.814   2.629   8.523 -0.7489 -1.9902  0.5171
  954MOL0     H25895   8.916   2.588   8.661 -2.5673 -2.0427  1.7608
  954MOL0     H25896   8.767   2.835   8.722 -0.1330 -0.1594  0.5398
  954MOL0     H25897   8.869   2.833   8.576 -2.7417 -0.9320  0.0253
  954MOL0     H25898   8.956   2.744   8.872  1.5935  0.5013  0.8444
  954MOL0     H25899   8.968   2.914   8.815  2.1202  0.7094 -0.3938
  954MOL0     H25900   9.110   2.671   8.730  1.8937  0.1160  3.2119
  954MOL0     H25901   9.095   2.804   8.615  0.9469  4.6401  0.4477
  954MOL0     H25902   9.189   2.837   8.901  2.2156  1.7774  0.3597
  954MOL0     H25903   9.198   2.957   8.772 -0.3368  0.6090 -0.2854
  954MOL0     H25904   9.436   2.878   8.824  0.6674 -1.1653  0.7612
  954MOL0     H25905   9.376   2.824   8.662 -2.0900  0.0523 -0.4904
  954MOL0     H25906   9.317   2.673   8.912 -1.0441  3.2680  0.2845
  954MOL0     H25907   9.357   2.611   8.744 -0.6306  2.3376 -1.5723
  954MOL0     H25908   9.550   2.560   8.896 -0.2980 -0.0430 -0.8602
  954MOL0     H25909   9.549   2.727   8.950 -2.4507  0.0307  0.8862
  954MOL0     H25910   8.633   2.794   8.535  0.7807 -0.3726  1.4076
  954MOL0     H25911   8.397   2.838   8.484 -0.4879 -0.0812  0.5105
  954MOL0     H25912   7.828   2.578   8.621 -2.2725  0.1547  2.5818
  954MOL0     H25913   7.614   2.678   8.654 -0.5965  0.7269  3.7765
  954MOL0     H25914   7.720   4.006   8.540 -1.0391 -0.9270  1.0036
  954MOL0     H25915   7.926   3.872   8.543 -0.4228  0.9576 -0.2041
  954MOL0     H25916   8.198   3.685   8.561 -1.5969 -0.7101  1.4041
  954MOL0     H25917   8.438   3.596   8.490  0.2067  2.7285  1.2370
  954MOL0     H25918   8.683   3.396   8.815 -0.6004 -1.2580 -1.3753
  954MOL0     H25919   8.682   3.578   8.794  0.5650  0.9579 -1.8669
  954MOL0     H25920   8.814   3.544   8.593  1.3082  3.3854  1.9841
  954MOL0     H25921   8.897   3.506   8.741  1.1422 -1.1121 -0.9958
  954MOL0     H25922   8.792   3.274   8.595  1.1990 -0.7126 -2.2278
  954MOL0     H25923   8.910   3.287   8.723 -0.7078  0.6289  0.5894
  954MOL0     H25924   8.964   3.387   8.434 -0.4233  0.6921 -0.5245
  954MOL0     H25925   9.056   3.414   8.583  0.2045  0.4306 -1.6370
  954MOL0     H25926   9.181   3.032   8.459  1.3558  1.0238  0.4045
  954MOL0     H25927   8.463   3.396   8.864  0.8287  1.4107  0.6484
  954MOL0     H25928   8.244   3.466   8.936  1.9251  0.0070  1.2940
  955MOL0     O25929   0.569   5.791   7.144 -0.1754 -0.1386  0.7757
  955MOL0     C25930   0.601   5.834   7.035 -0.0010  0.0115 -0.7525
  955MOL0     O25931   0.518   5.842   6.928  0.1071  0.0941  0.1248
  955MOL0     C25932   0.380   5.843   6.947 -0.5645  0.4060  0.0507
  955MOL0     C25933   0.322   5.951   6.899 -0.3386 -0.1748  1.0641
  955MOL0     C25934   0.185   5.963   6.896  0.1298  0.7833 -0.3353
  955MOL0     C25935   0.092   5.857   6.937  0.4438  0.3966  0.5998
  955MOL0     O25936  -0.043   5.878   6.922 -0.3779 -0.6509 -0.7470
  955MOL0     C25937  -0.129   5.792   7.006  0.0519 -0.9431  0.5654
  955MOL0     C25938  -0.277   5.789   6.950 -0.1424  0.6360 -0.2132
  955MOL0     C25939  -0.289   5.735   6.809 -0.1981 -0.0725  0.3526
  955MOL0     C25940  -0.245   5.591   6.791  0.5742  0.3765 -0.8232
  955MOL0     C25941  -0.246   5.548   6.641 -0.4626 -0.4277 -0.2499
  955MOL0     C25942  -0.375   5.580   6.566 -0.2548  0.2101  0.0609
  955MOL0     C25943  -0.411   5.477   6.466  0.7844  0.4045 -0.4935
  955MOL0     C25944  -0.482   5.538   6.341  0.0523  0.0027 -0.0074
  955MOL0     N25945  -0.613   5.605   6.378 -0.3271 -0.1598 -0.0154
  955MOL0     C25946  -0.736   5.544   6.379  0.0540 -0.8349 -0.3722
  955MOL0     C25947  -0.824   5.652   6.404 -0.4673 -0.6252  0.1375
  955MOL0     C25948  -0.979   5.639   6.391 -0.6976  0.2860  0.4911
  955MOL0     C25949  -1.066   5.763   6.393 -0.6285  0.3404 -0.2576
  955MOL0     C25950  -1.220   5.733   6.382 -0.1375  0.3278 -0.7790
  955MOL0     C25951  -1.269   5.706   6.241  0.0416  0.4022 -0.2853
  955MOL0     O25952  -1.391   5.630   6.240  0.2966 -0.6019  0.0266
  955MOL0     C25953  -1.508   5.693   6.259 -0.5126 -0.1084  0.9576
  955MOL0     C25954  -1.533   5.832   6.252  0.4035 -0.0748  1.3133
  955MOL0     C25955  -1.649   5.883   6.298  0.8847 -0.3513 -0.1772
  955MOL0     C25956  -1.753   5.802   6.351  0.0590  0.0957  0.4798
  955MOL0     C25957  -1.877   5.868   6.411 -0.2841 -0.1256 -0.3355
  955MOL0     O25958  -1.953   5.786   6.478  0.7200  0.0355  0.2986
  955MOL0     C25959  -2.081   5.836   6.512  0.0129  0.3126  0.5089
  955MOL0     C25960  -2.193   5.814   6.430 -0.3057  0.3052  0.1636
  955MOL0     C25961  -2.319   5.851   6.478 -0.5862 -0.3063  0.4686
  955MOL0     C25962  -2.340   5.923   6.600 -1.3546  0.4529  2.1184
  955MOL0     O25963  -2.466   5.941   6.658 -0.4478  0.3837  0.0941
  955MOL0     C25964  -2.577   5.872   6.601  0.4586 -0.4947  0.0750
  955MOL0     C25965  -2.704   5.904   6.685 -0.7141  0.5383  0.1063
  955MOL0     C25966  -2.750   6.052   6.652  0.0616  0.0685 -0.2493
  955MOL0     C25967  -2.875   6.085   6.737 -0.0793  0.3422 -0.5152
  955MOL0     C25968  -2.880   6.237   6.750 -0.1659 -0.1453  0.9154
  955MOL0     C25969  -2.974   6.274   6.864  0.1683 -0.5470  0.4346
  955MOL0     C25970  -3.124   6.228   6.843  1.0598 -0.1754 -0.6740
  955MOL0     C25971  -3.207   6.278   6.962  0.0222  0.1099  0.4792
  955MOL0    Cl25972  -3.257   6.444   6.941 -0.1860  0.1632  0.7504
  955MOL0     C25973  -2.231   5.945   6.681  0.3428 -0.2871 -0.5738
  955MOL0     C25974  -2.099   5.906   6.636  0.2623 -0.1232  0.7979
  955MOL0     O25975  -1.900   5.984   6.396 -0.3803 -0.0926 -0.1233
  955MOL0     C25976  -1.734   5.663   6.339  0.0139  0.0788 -0.3904
  955MOL0     C25977  -1.613   5.616   6.294 -0.4916 -0.7540 -0.8536
  955MOL0     N25978  -0.740   5.763   6.422  0.1356 -0.6744 -0.1600
  955MOL0     N25979  -0.620   5.742   6.403 -0.3394 -0.0507  0.1115
  955MOL0     C25980   0.157   5.742   6.983 -0.9345 -0.1958 -0.4601
  955MOL0     C25981   0.298   5.733   6.991  0.0956 -0.0337 -0.5369
  955MOL0     C25982   0.747   5.851   7.010 -0.5457  0.2530 -0.2629
  955MOL0     C25983   0.786   5.894   6.886  0.0174 -0.0345  1.0354
  955MOL0     C25984   0.928   5.907   6.858 -0.2943  0.2559  0.0767
  955MOL0     C25985   1.022   5.888   6.949 -0.7453 -0.6950  0.0364
  955MOL0     O25986   1.159   5.891   6.918 -0.0515  0.5463  0.0950
  955MOL0     C25987   1.255   5.822   6.998 -0.7528 -0.2965 -0.1979
  955MOL0     C25988   1.398   5.841   6.947 -0.1528  1.3467 -0.2340
  955MOL0     C25989   1.423   5.989   6.938  0.8419  0.7845 -0.7065
  955MOL0     C25990   1.559   6.018   6.874 -0.0988  0.1971  0.1332
  955MOL0     C25991   1.590   6.162   6.868 -0.2399  0.2681 -0.3554
  955MOL0     C25992   1.620   6.275   6.896  0.1217 -0.8303  0.3026
  955MOL0     C25993   0.980   5.838   7.074  0.5152 -0.0585  0.4548
  955MOL0     C25994   0.841   5.816   7.102 -0.0538  0.2660 -0.5897
  955MOL0     H25995   0.378   6.033   6.857 -0.4165 -0.3176  0.6789
  955MOL0     H25996   0.146   6.052   6.847 -1.4566 -0.0868 -0.7486
  955MOL0     H25997  -0.124   5.834   7.107  0.6079 -1.2552  0.6700
  955MOL0     H25998  -0.094   5.690   7.017  0.3792 -0.7423  1.4864
  955MOL0     H25999  -0.321   5.888   6.967 -0.2536  0.5572 -0.0423
  955MOL0     H26000  -0.333   5.722   7.016  1.4507  0.7068  1.2867
  955MOL0     H26001  -0.238   5.801   6.738  0.2535  2.3987  2.7928
  955MOL0     H26002  -0.392   5.747   6.771 -0.7621 -0.0272  1.8451
  955MOL0     H26003  -0.145   5.576   6.831 -0.2404 -1.3087  0.7031
  955MOL0     H26004  -0.307   5.522   6.848  5.1334 -2.5035  1.1433
  955MOL0     H26005  -0.228   5.440   6.635 -0.7246 -0.3784 -3.0822
  955MOL0     H26006  -0.162   5.580   6.579  0.2674 -3.9422 -1.3082
  955MOL0     H26007  -0.369   5.681   6.526 -0.8536 -0.7794 -2.7435
  955MOL0     H26008  -0.467   5.584   6.624 -1.5901 -1.5080 -1.8002
  955MOL0     H26009  -0.322   5.425   6.430  1.9402  3.1728 -1.9033
  955MOL0     H26010  -0.474   5.401   6.513  1.1863 -0.7762 -1.8120
  955MOL0     H26011  -0.504   5.450   6.280 -1.6742 -0.3867  1.1003
  955MOL0     H26012  -0.417   5.610   6.292  1.5098  0.5203  2.4778
  955MOL0     H26013  -0.772   5.447   6.345 -1.0264 -1.2859  1.8675
  955MOL0     H26014  -1.000   5.576   6.478  1.0148  1.1575  1.5841
  955MOL0     H26015  -1.003   5.583   6.300  1.6181  2.4768 -1.6568
  955MOL0     H26016  -1.032   5.831   6.315  0.0578  1.9126  1.3487
  955MOL0     H26017  -1.054   5.822   6.484 -0.9638  0.3212 -0.2012
  955MOL0     H26018  -1.248   5.653   6.451 -1.7437  0.7023 -0.9387
  955MOL0     H26019  -1.279   5.818   6.419  1.1969  0.9270  0.0314
  955MOL0     H26020  -1.190   5.646   6.193  3.9345  4.5344  0.2940
  955MOL0     H26021  -1.285   5.794   6.178  0.5387  1.3460  0.8874
  955MOL0     H26022  -1.463   5.910   6.225 -0.8388  0.6503  0.0024
  955MOL0     H26023  -1.652   5.989   6.317  0.5332 -0.1052 -1.4924
  955MOL0     H26024  -2.177   5.773   6.330  0.5281  0.6831  0.1422
  955MOL0     H26025  -2.399   5.819   6.413  1.2690 -0.4784 -1.8890
  955MOL0     H26026  -2.551   5.768   6.584  2.3438  0.2794 -2.4490
  955MOL0     H26027  -2.587   5.914   6.501  0.7481 -1.5933 -0.4284
  955MOL0     H26028  -2.675   5.896   6.790 -2.0972  0.9358  0.5397
  955MOL0     H26029  -2.784   5.832   6.664  0.5785 -0.2639 -2.5592
  955MOL0     H26030  -2.796   6.050   6.552 -2.1021  4.3348  0.4369
  955MOL0     H26031  -2.667   6.122   6.653  0.3891 -0.3167  0.1998
  955MOL0     H26032  -2.967   6.050   6.687 -3.3423  3.7970  2.4791
  955MOL0     H26033  -2.871   6.042   6.837  0.1860 -0.7371 -0.9734
  955MOL0     H26034  -2.902   6.281   6.653  1.6464  1.2244  1.0626
  955MOL0     H26035  -2.781   6.271   6.783 -0.5018 -0.6935  2.6095
  955MOL0     H26036  -2.974   6.384   6.865 -2.0766 -0.5114  0.4397
  955MOL0     H26037  -2.928   6.240   6.957  0.4670 -0.1026  0.4519
  955MOL0     H26038  -3.165   6.274   6.754 -1.7283 -1.8390 -0.3534
  955MOL0     H26039  -3.133   6.119   6.836 -0.8860  0.0017 -1.2816
  955MOL0     H26040  -3.152   6.265   7.055  4.1961  1.6537 -1.5215
  955MOL0     H26041  -3.294   6.212   6.954 -0.7608  1.3195 -2.2479
  955MOL0     H26042  -2.244   5.983   6.782  1.8437  2.4099 -1.3008
  955MOL0     H26043  -2.021   5.915   6.711 -0.3339  0.3935  1.3573
  955MOL0     H26044  -1.802   5.587   6.376  0.7758 -0.7395 -0.6493
  955MOL0     H26045  -1.593   5.511   6.312 -0.5643 -0.5389  0.6426
  955MOL0     H26046   0.103   5.651   7.006  1.4868 -1.8691 -0.9101
  955MOL0     H26047   0.340   5.645   7.038  1.1178  1.0939  0.7399
  955MOL0     H26048   0.714   5.930   6.813  0.5209  0.0775  0.5801
  955MOL0     H26049   0.952   5.932   6.755  1.2010  4.2620  1.2134
  955MOL0     H26050   1.243   5.713   7.005 -0.0033 -0.3663  0.2114
  955MOL0     H26051   1.255   5.855   7.103 -0.1957  0.8432 -0.5440
  955MOL0     H26052   1.472   5.803   7.018 -1.5159  0.8092  0.9584
  955MOL0     H26053   1.417   5.788   6.854  0.6946 -0.9367  1.1515
  955MOL0     H26054   1.411   6.026   7.040 -0.0467 -1.9163  0.2688
  955MOL0     H26055   1.350   6.038   6.873  0.5336 -0.0447 -1.0044
  955MOL0     H26056   1.645   5.983   6.932  0.2751  1.4202  0.3481
  955MOL0     H26057   1.565   5.971   6.775 -1.5931  1.4630 -0.5991
  955MOL0     H26058   1.641   6.378   6.917  2.0188 -1.4004  1.4644
  955MOL0     H26059   1.052   5.833   7.155  2.0659  3.2059 -0.5075
  955MOL0     H26060   0.813   5.783   7.201 -1.0557  0.3314 -0.8376
  956MOL0     O26061   1.836   8.336   5.376  0.3589 -0.2292 -0.0095
  956MOL0     C26062   1.894   8.257   5.452  0.8631 -0.0507 -0.4117
  956MOL0     O26063   1.936   8.133   5.415  0.7162 -0.1696  0.3759
  956MOL0     C26064   1.902   8.082   5.286 -0.0054  0.4020 -0.4128
  956MOL0     C26065   1.774   8.089   5.226  1.2304  0.4429 -0.3816
  956MOL0     C26066   1.739   8.007   5.116 -0.3839  0.6619 -0.0555
  956MOL0     C26067   1.841   7.919   5.067 -0.9080  0.3973 -0.5296
  956MOL0     O26068   1.809   7.825   4.974 -0.1917  0.2109 -0.1335
  956MOL0     C26069   1.679   7.784   4.971  0.8768  0.3414 -0.6080
  956MOL0     C26070   1.674   7.643   4.904 -0.5670  0.0564  0.5778
  956MOL0     C26071   1.538   7.583   4.932 -0.2558 -0.2187 -0.0647
  956MOL0     C26072   1.534   7.437   4.890 -0.3456  0.8021 -0.8861
  956MOL0     C26073   1.390   7.402   4.871  0.3371  0.5334 -0.4791
  956MOL0     C26074   1.364   7.247   4.887 -0.4892 -0.0198  0.2984
  956MOL0     C26075   1.215   7.200   4.908 -0.1962 -0.3355  0.1021
  956MOL0     C26076   1.125   7.251   4.798 -0.9579  0.3199  0.6650
  956MOL0     N26077   0.985   7.218   4.824  0.1508  0.0051  0.6336
  956MOL0     C26078   0.902   7.301   4.889 -0.4795  0.2998 -0.1320
  956MOL0     C26079   0.783   7.235   4.898 -0.5303  0.6022 -1.0822
  956MOL0     C26080   0.665   7.273   4.975 -0.3010  0.2219 -0.0412
  956MOL0     C26081   0.549   7.173   4.948  0.1623 -0.2817  0.2380
  956MOL0     C26082   0.414   7.224   5.010  0.6998  0.1962  0.0581
  956MOL0     C26083   0.296   7.131   4.974  0.0099  0.1988  0.4248
  956MOL0     O26084   0.175   7.187   5.021  0.3410 -0.5266  0.5633
  956MOL0     C26085   0.058   7.121   4.993  0.9900 -1.0579  0.3431
  956MOL0     C26086   0.042   6.996   4.934  0.8822 -0.0194 -0.2169
  956MOL0     C26087  -0.089   6.938   4.932 -0.3697 -0.4760  0.0727
  956MOL0     C26088  -0.200   7.023   4.961 -0.0316  0.1763  0.5326
  956MOL0     C26089  -0.344   6.973   4.956 -0.3610  0.0359  0.0620
  956MOL0     O26090  -0.441   7.063   4.931  0.0998 -0.3613 -0.5596
  956MOL0     C26091  -0.567   7.031   4.966  0.4791 -0.9488 -0.6997
  956MOL0     C26092  -0.672   7.077   4.890 -0.3610 -0.0720 -0.7967
  956MOL0     C26093  -0.804   7.053   4.932 -0.1924 -0.5710 -0.2409
  956MOL0     C26094  -0.831   6.976   5.046 -0.2088  0.2651 -0.6413
  956MOL0     O26095  -0.957   6.945   5.090  0.0891 -0.5579  0.4105
  956MOL0     C26096  -1.073   7.005   5.031  0.2179 -0.5709 -0.0386
  956MOL0     C26097  -1.106   6.912   4.906 -0.1263 -0.6201  0.1303
  956MOL0     C26098  -1.183   6.984   4.795 -0.5473  0.2561 -0.8147
  956MOL0     C26099  -1.181   6.904   4.669 -0.1797  0.4230  0.5415
  956MOL0     C26100  -1.277   6.972   4.574 -0.3892 -0.7024 -0.2524
  956MOL0     C26101  -1.430   6.967   4.609 -0.3174 -0.0495 -0.3970
  956MOL0     C26102  -1.495   7.101   4.576 -0.4837  0.7513  0.5244
  956MOL0     C26103  -1.642   7.080   4.530  0.1692  0.5484 -0.1243
  956MOL0    Cl26104  -1.644   7.083   4.345 -0.0616 -0.2271 -0.0035
  956MOL0     C26105  -0.725   6.926   5.115 -0.2183 -0.7219 -0.1081
  956MOL0     C26106  -0.597   6.946   5.073  0.4902 -0.3967 -0.4629
  956MOL0     O26107  -0.360   6.848   4.962  0.3186  0.0988 -0.3041
  956MOL0     C26108  -0.190   7.155   5.002 -0.4150 -0.9659 -0.0710
  956MOL0     C26109  -0.057   7.201   5.020 -1.0500  0.5313  0.1817
  956MOL0     N26110   0.791   7.125   4.820  0.1696  0.4158 -0.3021
  956MOL0     N26111   0.910   7.118   4.778  0.1917  0.4511  0.1411
  956MOL0     C26112   1.971   7.907   5.121 -0.2435  0.6100  1.1887
  956MOL0     C26113   2.003   7.994   5.223 -0.3879 -1.0814 -0.7362
  956MOL0     C26114   1.903   8.304   5.595  0.1177  0.1843 -0.8683
  956MOL0     C26115   1.978   8.231   5.685 -0.8846 -0.0990 -0.2435
  956MOL0     C26116   2.006   8.273   5.815 -1.1710  0.6726 -0.4258
  956MOL0     C26117   1.952   8.398   5.858  0.4266 -0.2461 -0.7488
  956MOL0     O26118   1.961   8.448   5.986 -0.0710  0.2641 -0.8067
  956MOL0     C26119   2.060   8.394   6.084 -1.3097 -0.2186  0.1947
  956MOL0     C26120   2.056   8.494   6.200 -0.2173  0.1245 -0.4322
  956MOL0     C26121   1.928   8.479   6.287  0.5786 -1.0317 -0.2423
  956MOL0     C26122   1.913   8.589   6.390  0.1202  0.2849 -0.1137
  956MOL0     C26123   2.040   8.617   6.473  0.2929  0.1853 -0.3063
  956MOL0     C26124   2.138   8.647   6.537 -0.9843  0.3051 -0.2699
  956MOL0     C26125   1.871   8.471   5.769  0.6315  0.4221  0.4433
  956MOL0     C26126   1.849   8.426   5.634  0.9375  0.6466 -0.1913
  956MOL0     H26127   1.706   8.162   5.270 -1.1367 -0.5422 -2.2030
  956MOL0     H26128   1.638   8.009   5.076  0.0491 -3.3408 -1.7993
  956MOL0     H26129   1.613   7.844   4.908 -0.8866 -4.3253 -3.7630
  956MOL0     H26130   1.635   7.771   5.071  1.7151 -1.8012 -0.4585
  956MOL0     H26131   1.758   7.580   4.934  0.0554 -0.7105 -2.4139
  956MOL0     H26132   1.670   7.657   4.796 -0.5292 -2.5065  0.1776
  956MOL0     H26133   1.465   7.639   4.873 -1.8403  0.7649  2.6635
  956MOL0     H26134   1.518   7.590   5.039 -0.0677 -0.6633 -0.0006
  956MOL0     H26135   1.600   7.423   4.804  0.8848 -0.6510  0.2306
  956MOL0     H26136   1.579   7.364   4.959 -2.9260  0.9443  1.1044
  956MOL0     H26137   1.367   7.442   4.773  1.1990  2.7008  0.1492
  956MOL0     H26138   1.329   7.452   4.947 -0.0913  2.3729 -1.9715
  956MOL0     H26139   1.412   7.217   4.980  1.0260  1.7870  0.1501
  956MOL0     H26140   1.409   7.186   4.807 -2.5914 -1.4022  0.0824
  956MOL0     H26141   1.198   7.092   4.914  0.2230 -0.3263  2.0685
  956MOL0     H26142   1.184   7.228   5.008  1.2105 -1.3846  0.8681
  956MOL0     H26143   1.165   7.209   4.706  1.4085 -0.5761  2.0218
  956MOL0     H26144   1.137   7.359   4.787  1.4267  0.0388  0.0292
  956MOL0     H26145   0.922   7.391   4.945 -0.0237  0.2323 -0.1783
  956MOL0     H26146   0.630   7.373   4.950 -3.1204 -0.7471 -0.3182
  956MOL0     H26147   0.681   7.281   5.083 -2.0365  2.9532  0.1179
  956MOL0     H26148   0.575   7.075   4.988 -2.4814 -0.2571  2.2978
  956MOL0     H26149   0.523   7.161   4.843 -1.3366 -0.6710  0.6234
  956MOL0     H26150   0.424   7.235   5.118  0.5036 -1.2470  0.2450
  956MOL0     H26151   0.393   7.321   4.965  1.3562 -0.3666 -1.5324
  956MOL0     H26152   0.310   7.031   5.015  1.2807  0.4550  0.6649
  956MOL0     H26153   0.300   7.129   4.865  2.0969  0.1581  0.4658
  956MOL0     H26154   0.124   6.939   4.894 -0.2140 -3.1834  1.7101
  956MOL0     H26155  -0.090   6.833   4.905  0.2296 -0.5008  0.1186
  956MOL0     H26156  -0.644   7.130   4.800 -3.3440 -0.9072 -2.3390
  956MOL0     H26157  -0.886   7.094   4.874 -1.8451 -1.4073  1.4055
  956MOL0     H26158  -1.058   7.108   4.998  0.1803 -0.2765  0.8391
  956MOL0     H26159  -1.156   6.993   5.101  0.5384  3.0329  1.1447
  956MOL0     H26160  -1.169   6.831   4.945 -2.2068  0.6400 -0.4313
  956MOL0     H26161  -1.008   6.881   4.870  0.7932  1.0195  1.0883
  956MOL0     H26162  -1.135   7.076   4.761  0.8289  0.1200  0.6148
  956MOL0     H26163  -1.278   7.027   4.828 -0.1870  1.5455 -1.3740
  956MOL0     H26164  -1.081   6.915   4.627  0.1853  0.3723  1.3729
  956MOL0     H26165  -1.219   6.801   4.672 -0.5779  0.5180 -0.6549
  956MOL0     H26166  -1.275   6.921   4.477 -2.0072  1.3556 -1.4600
  956MOL0     H26167  -1.244   7.075   4.556 -0.7311 -0.7766 -1.3485
  956MOL0     H26168  -1.454   6.959   4.716  1.4525 -1.2035 -0.0441
  956MOL0     H26169  -1.479   6.887   4.554  2.2568 -0.5533 -2.0980
  956MOL0     H26170  -1.499   7.155   4.671 -0.9376 -0.9133  1.4927
  956MOL0     H26171  -1.430   7.161   4.511  1.0445 -0.7510  0.5727
  956MOL0     H26172  -1.700   7.168   4.562 -1.5240 -0.6082  0.1064
  956MOL0     H26173  -1.688   6.990   4.571  0.3577 -0.1931 -1.5044
  956MOL0     H26174  -0.751   6.858   5.195  1.5384 -1.1211  0.1511
  956MOL0     H26175  -0.519   6.894   5.130 -1.1563 -0.8515  1.5031
  956MOL0     H26176  -0.271   7.224   5.025 -0.1801 -1.0292  0.9528
  956MOL0     H26177  -0.043   7.305   5.049 -1.2621  0.6075  0.0137
  956MOL0     H26178   2.044   7.842   5.073 -1.3094  0.2968 -0.1031
  956MOL0     H26179   2.098   7.989   5.275 -0.6925 -0.0384 -0.0457
  956MOL0     H26180   2.015   8.130   5.674 -0.6234 -0.0165 -0.1173
  956MOL0     H26181   2.066   8.219   5.887 -0.1725  1.3748 -0.7001
  956MOL0     H26182   2.160   8.386   6.041 -1.5543 -0.7948 -0.2896
  956MOL0     H26183   2.030   8.291   6.108 -2.3804  0.1305  0.4268
  956MOL0     H26184   2.143   8.487   6.265 -0.9016  0.8236  0.5859
  956MOL0     H26185   2.047   8.596   6.163 -0.4218  0.3927  0.3415
  956MOL0     H26186   1.927   8.381   6.336 -2.2349  0.3049  2.7177
  956MOL0     H26187   1.831   8.482   6.236  0.4900  0.2196 -0.0247
  956MOL0     H26188   1.878   8.679   6.339  0.4132  0.1932 -0.4808
  956MOL0     H26189   1.837   8.552   6.459  1.4961 -4.1713 -0.6721
  956MOL0     H26190   2.215   8.681   6.603 -1.3643 -0.2023  0.4475
  956MOL0     H26191   1.827   8.564   5.803 -0.0626  0.0881  0.4620
  956MOL0     H26192   1.792   8.489   5.567 -1.2609 -2.0623 -1.0389
  957MOL0     O26193   2.250   3.588   5.860  0.2812  0.0105 -0.3670
  957MOL0     C26194   2.353   3.566   5.931  0.2962  0.4776  1.1764
  957MOL0     O26195   2.368   3.597   6.069 -0.1277  0.3607  0.6881
  957MOL0     C26196   2.293   3.695   6.129  0.1254  0.2983  0.2825
  957MOL0     C26197   2.244   3.798   6.052 -0.2285  0.3373  0.1649
  957MOL0     C26198   2.167   3.895   6.120 -0.2701 -0.5463 -0.0088
  957MOL0     C26199   2.122   3.876   6.255 -0.9568 -0.4905 -0.0496
  957MOL0     O26200   2.042   3.957   6.329 -0.0186  0.1783 -0.5528
  957MOL0     C26201   2.025   4.095   6.287  1.3578  0.1836  0.2973
  957MOL0     C26202   1.933   4.176   6.384 -0.3010  0.1404 -0.1303
  957MOL0     C26203   2.011   4.217   6.515 -0.1300  0.5276 -0.4014
  957MOL0     C26204   1.916   4.275   6.615  0.1822  0.0345 -0.5575
  957MOL0     C26205   1.977   4.273   6.758 -1.5285  0.3585  0.1047
  957MOL0     C26206   1.906   4.377   6.836 -0.0143  0.2346 -0.0043
  957MOL0     C26207   1.751   4.365   6.838  0.2848 -0.6732 -0.4017
  957MOL0     C26208   1.703   4.254   6.928 -0.0083  0.0613 -0.8736
  957MOL0     N26209   1.559   4.250   6.936 -0.0107 -0.6115  0.5493
  957MOL0     C26210   1.483   4.358   6.970  0.0070  1.2386  0.1554
  957MOL0     C26211   1.359   4.298   6.973  0.6518 -0.6729  1.3675
  957MOL0     C26212   1.231   4.363   6.986  0.6218 -0.1028 -0.2325
  957MOL0     C26213   1.205   4.466   6.877 -0.8414 -0.6208  0.3922
  957MOL0     C26214   1.079   4.552   6.916 -0.0971  0.0904  0.7685
  957MOL0     C26215   0.947   4.475   6.931 -0.0568  1.1034 -0.3469
  957MOL0     O26216   0.909   4.428   6.796  0.3825  0.2165  0.7288
  957MOL0     C26217   0.779   4.388   6.766  0.3109  0.0612 -0.4503
  957MOL0     C26218   0.679   4.365   6.863 -0.7719 -0.1752 -0.1631
  957MOL0     C26219   0.545   4.338   6.830  0.0806  0.2008  0.4921
  957MOL0     C26220   0.510   4.334   6.693 -0.8085  0.3979 -0.0659
  957MOL0     C26221   0.367   4.299   6.659 -0.3800  0.1830 -0.7817
  957MOL0     O26222   0.276   4.293   6.761 -0.0536  0.3122  0.2289
  957MOL0     C26223   0.145   4.259   6.747  0.1481  0.0988  0.0200
  957MOL0     C26224   0.071   4.281   6.631  0.6467  0.6793  1.0350
  957MOL0     C26225  -0.066   4.250   6.638 -0.2910 -0.0675  0.8903
  957MOL0     C26226  -0.126   4.197   6.747  0.4871 -0.1286  0.5171
  957MOL0     O26227  -0.255   4.154   6.738  0.0928  0.1172  0.2295
  957MOL0     C26228  -0.315   4.121   6.861 -0.2021 -0.2958 -0.0850
  957MOL0     C26229  -0.470   4.105   6.838 -0.4103  0.1456 -0.7106
  957MOL0     C26230  -0.555   4.227   6.896 -0.0703  0.5403 -0.3216
  957MOL0     C26231  -0.703   4.193   6.924 -0.0821  0.1948 -0.0588
  957MOL0     C26232  -0.793   4.122   6.822 -0.4137  0.3573 -0.6239
  957MOL0     C26233  -0.791   4.186   6.681 -0.3563 -0.8901  0.7595
  957MOL0     C26234  -0.844   4.094   6.580 -0.0867  0.8458 -0.5329
  957MOL0     C26235  -0.854   4.150   6.435 -0.0174 -0.3553  0.1275
  957MOL0    Cl26236  -0.996   4.058   6.381  0.1220  0.2026 -0.1919
  957MOL0     C26237  -0.045   4.176   6.859  0.4157 -0.0919 -0.2254
  957MOL0     C26238   0.084   4.214   6.860 -0.3645  0.7953  0.5509
  957MOL0     O26239   0.338   4.284   6.544 -0.4886 -0.2674  0.3429
  957MOL0     C26240   0.610   4.358   6.597  0.2952 -0.4879  0.5535
  957MOL0     C26241   0.745   4.377   6.631  0.5987  0.2413 -0.1959
  957MOL0     N26242   1.363   4.171   6.940  0.4641  0.4325 -0.1567
  957MOL0     N26243   1.481   4.142   6.925  0.3838  0.3426 -0.3007
  957MOL0     C26244   2.180   3.765   6.322  0.4582  0.4585 -0.2615
  957MOL0     C26245   2.266   3.674   6.261  0.0552 -0.1985 -0.1092
  957MOL0     C26246   2.478   3.509   5.864 -0.1630  0.8651  0.6270
  957MOL0     C26247   2.604   3.493   5.932 -0.8756  0.2321  0.5300
  957MOL0     C26248   2.719   3.449   5.872 -0.3854  0.2929 -0.2602
  957MOL0     C26249   2.716   3.407   5.739 -0.0263  0.8095  0.6429
  957MOL0     O26250   2.826   3.340   5.694  0.1229  0.5214  0.4983
  957MOL0     C26251   2.839   3.329   5.549  0.7845  0.6653 -0.2006
  957MOL0     C26252   2.858   3.460   5.481 -0.1238  0.7224 -0.1610
  957MOL0     C26253   2.824   3.455   5.335  0.0363 -0.6745  0.1584
  957MOL0     C26254   2.853   3.587   5.261  0.7875 -0.4185 -0.1936
  957MOL0     C26255   2.995   3.598   5.252 -0.3303 -0.7722 -0.6072
  957MOL0     C26256   3.113   3.595   5.275  0.2887 -0.0347 -0.2551
  957MOL0     C26257   2.595   3.435   5.664 -0.4731  0.5746  0.2629
  957MOL0     C26258   2.479   3.484   5.727  0.5815  0.0264  0.0886
  957MOL0     H26259   2.265   3.818   5.948 -1.4335 -0.5529 -0.2675
  957MOL0     H26260   2.136   3.983   6.063 -2.5217 -0.8819  0.5760
  957MOL0     H26261   1.983   4.101   6.186  3.6976 -0.8029 -0.8067
  957MOL0     H26262   2.118   4.152   6.276 -0.8022  3.8934 -0.4427
  957MOL0     H26263   1.839   4.124   6.407 -0.8038 -0.2487 -2.7388
  957MOL0     H26264   1.904   4.265   6.327 -1.4398  0.7895  1.3978
  957MOL0     H26265   2.105   4.270   6.496  1.2973 -2.4083 -2.3790
  957MOL0     H26266   2.048   4.123   6.559 -0.0065  1.2481  1.0952
  957MOL0     H26267   1.899   4.381   6.591  3.1368  1.1667  1.7909
  957MOL0     H26268   1.829   4.209   6.619 -1.2694  1.8862  0.3662
  957MOL0     H26269   2.083   4.297   6.745 -1.6822 -0.1330 -2.4949
  957MOL0     H26270   1.976   4.178   6.813  0.2458  1.6303  2.5315
  957MOL0     H26271   1.921   4.469   6.779 -3.2428  1.5517  1.0643
  957MOL0     H26272   1.959   4.382   6.932  1.1419 -2.1884 -0.4314
  957MOL0     H26273   1.716   4.460   6.879 -1.3216 -1.4237  0.0425
  957MOL0     H26274   1.702   4.366   6.740 -0.7832 -2.3695  0.0611
  957MOL0     H26275   1.726   4.255   7.035 -3.1702 -1.9612 -0.0514
  957MOL0     H26276   1.745   4.158   6.898  1.0666  0.6685 -1.4108
  957MOL0     H26277   1.501   4.465   6.971  2.2764  0.9177 -1.0531
  957MOL0     H26278   1.224   4.407   7.086  1.3149 -0.6254  0.0499
  957MOL0     H26279   1.152   4.287   6.982  0.3151  0.1831  0.2050
  957MOL0     H26280   1.191   4.414   6.782  2.2348  0.8383 -1.0314
  957MOL0     H26281   1.288   4.537   6.873  0.4124 -2.0836 -0.7412
  957MOL0     H26282   1.101   4.595   7.014  1.9617 -0.9812  0.8131
  957MOL0     H26283   1.075   4.639   6.850 -1.0226 -0.4041  0.1507
  957MOL0     H26284   0.863   4.539   6.960 -1.5288 -1.8454  2.6374
  957MOL0     H26285   0.957   4.385   6.994  2.5350  1.8389  0.4290
  957MOL0     H26286   0.731   4.338   6.954  0.8046 -0.3932 -1.1021
  957MOL0     H26287   0.476   4.311   6.910 -1.0158 -0.4717 -0.6408
  957MOL0     H26288   0.104   4.316   6.534  1.1805  1.1672  1.3909
  957MOL0     H26289  -0.123   4.249   6.546  0.6894  0.6874  0.2489
  957MOL0     H26290  -0.293   4.190   6.943 -1.4976  2.8183 -2.1451
  957MOL0     H26291  -0.279   4.026   6.900 -1.9664  0.1681  2.9956
  957MOL0     H26292  -0.513   4.024   6.897 -1.8592  1.0578 -0.4669
  957MOL0     H26293  -0.483   4.086   6.732  1.3965 -3.3291 -0.4447
  957MOL0     H26294  -0.549   4.321   6.841  0.9500  0.1381 -0.9193
  957MOL0     H26295  -0.517   4.251   6.996  1.6329 -2.0308 -0.2542
  957MOL0     H26296  -0.709   4.137   7.018  0.0858 -0.4051 -0.3962
  957MOL0     H26297  -0.744   4.290   6.952  0.2248 -0.0844  1.4665
  957MOL0     H26298  -0.896   4.120   6.857 -0.4845  0.3236 -0.8303
  957MOL0     H26299  -0.754   4.020   6.812  2.2299  1.0118  1.8315
  957MOL0     H26300  -0.694   4.221   6.645 -2.7423  3.6182 -2.1753
  957MOL0     H26301  -0.853   4.275   6.689 -1.8842 -2.0438  3.0469
  957MOL0     H26302  -0.775   4.010   6.578  0.5022  1.2275  1.2906
  957MOL0     H26303  -0.935   4.047   6.619  2.6418 -1.8017  3.3835
  957MOL0     H26304  -0.762   4.132   6.378  1.8830  1.4841  2.3931
  957MOL0     H26305  -0.885   4.255   6.431  0.1898 -0.2311  1.2725
  957MOL0     H26306  -0.079   4.124   6.949  1.9803  1.3331  1.2725
  957MOL0     H26307   0.139   4.201   6.953 -1.7584 -3.4587  1.0073
  957MOL0     H26308   0.590   4.365   6.491  1.5613 -1.1245  0.2487
  957MOL0     H26309   0.833   4.399   6.571  0.2234  0.9812 -0.4863
  957MOL0     H26310   2.156   3.750   6.427 -0.0926 -1.7379 -0.6413
  957MOL0     H26311   2.300   3.589   6.319  1.0220 -0.1246 -0.5572
  957MOL0     H26312   2.612   3.524   6.036 -1.8939 -2.0694  1.3683
  957MOL0     H26313   2.814   3.462   5.922 -1.0872 -1.8277  1.7784
  957MOL0     H26314   2.747   3.290   5.504  1.4460 -0.9606 -0.2175
  957MOL0     H26315   2.919   3.255   5.538  0.9016  0.0273  3.5087
  957MOL0     H26316   2.792   3.536   5.524  0.1547  1.5334 -1.1117
  957MOL0     H26317   2.964   3.485   5.494  0.4406 -2.1515  1.6090
  957MOL0     H26318   2.718   3.429   5.334 -0.2008  0.1450  1.5351
  957MOL0     H26319   2.877   3.372   5.287 -0.4715 -2.0144  1.8516
  957MOL0     H26320   2.812   3.583   5.160  1.4323 -0.6653 -0.4531
  957MOL0     H26321   2.803   3.671   5.310  1.0862  0.5637 -1.4989
  957MOL0     H26322   3.218   3.600   5.298  0.2366 -1.1056  0.3159
  957MOL0     H26323   2.598   3.425   5.556  3.1207  1.5361  0.1297
  957MOL0     H26324   2.390   3.514   5.671  1.3405 -0.2621 -1.3125
  958MOL0     O26325   6.953   3.985   5.443  0.4449  0.0114  0.7363
  958MOL0     C26326   6.948   3.867   5.459 -0.0809 -0.9630 -0.0216
  958MOL0     O26327   7.058   3.790   5.464 -0.2878 -0.3841  0.4780
  958MOL0     C26328   7.184   3.839   5.474 -0.3271  0.1511 -0.3232
  958MOL0     C26329   7.277   3.763   5.550 -0.3444 -0.0630 -1.1318
  958MOL0     C26330   7.412   3.795   5.549 -0.4460  0.2898 -0.2582
  958MOL0     C26331   7.465   3.900   5.472  0.2245  0.4362  0.0972
  958MOL0     O26332   7.588   3.931   5.454 -0.3222 -0.9686 -0.6559
  958MOL0     C26333   7.682   3.860   5.527 -0.0749  0.4280 -0.3079
  958MOL0     C26334   7.817   3.915   5.477  1.0845 -0.1548  1.0556
  958MOL0     C26335   7.933   3.838   5.550  0.9981  0.5213  0.0272
  958MOL0     C26336   8.055   3.920   5.554 -0.0740 -0.5850 -0.1081
  958MOL0     C26337   8.183   3.836   5.565 -0.9447  0.4577 -0.4097
  958MOL0     C26338   8.306   3.906   5.615 -0.6400  0.3976  0.0322
  958MOL0     C26339   8.338   4.029   5.521  0.5427  0.1714 -0.3274
  958MOL0     C26340   8.455   4.109   5.569  0.2290  0.2684  0.2275
  958MOL0     N26341   8.406   4.215   5.661 -0.1024  0.1624 -0.2526
  958MOL0     C26342   8.372   4.345   5.631  1.4489  0.3466  0.0253
  958MOL0     C26343   8.312   4.396   5.743  0.0563 -0.0258  0.0584
  958MOL0     C26344   8.254   4.538   5.761  0.6120 -0.2250 -0.3544
  958MOL0     C26345   8.354   4.653   5.729 -0.1908 -0.0787  0.3077
  958MOL0     C26346   8.433   4.697   5.846  0.1763  0.6082 -0.7936
  958MOL0     C26347   8.348   4.735   5.969 -0.3740  0.1292 -0.9181
  958MOL0     O26348   8.242   4.820   5.930  0.0560 -0.1426  0.1502
  958MOL0     C26349   8.132   4.844   6.015  0.1141  0.0732 -0.4957
  958MOL0     C26350   8.018   4.905   5.958  0.2964  1.0847  0.5742
  958MOL0     C26351   7.909   4.924   6.031  0.4303  0.2399  0.0755
  958MOL0     C26352   7.900   4.879   6.172  0.4651 -0.2239  0.3299
  958MOL0     C26353   7.785   4.920   6.262 -0.4300 -0.2994  0.2370
  958MOL0     O26354   7.705   5.019   6.228 -0.6168 -0.0114  0.3749
  958MOL0     C26355   7.597   5.044   6.303  0.0692  0.0255 -0.5281
  958MOL0     C26356   7.474   5.043   6.243  0.4871  0.4368 -0.2393
  958MOL0     C26357   7.355   5.075   6.314 -0.1683 -0.2835  0.3449
  958MOL0     C26358   7.363   5.103   6.453  0.3045  0.3355  0.0664
  958MOL0     O26359   7.257   5.122   6.530 -0.3998 -0.2644  0.0186
  958MOL0     C26360   7.132   5.179   6.497  0.2879 -0.0987  1.0146
  958MOL0     C26361   7.050   5.168   6.624 -0.5722 -0.1500  0.6809
  958MOL0     C26362   6.916   5.237   6.597  0.6337 -0.1230 -0.0285
  958MOL0     C26363   6.822   5.224   6.717  0.0465  0.5769  0.1958
  958MOL0     C26364   6.862   5.308   6.837 -0.4981 -0.1301  0.0477
  958MOL0     C26365   6.775   5.313   6.965 -0.2960  0.7554 -0.0711
  958MOL0     C26366   6.628   5.355   6.932  0.9073  0.3687 -0.1998
  958MOL0     C26367   6.538   5.337   7.042  0.0223 -0.2495 -0.2339
  958MOL0    Cl26368   6.516   5.158   7.096 -0.1871  0.0712 -0.1709
  958MOL0     C26369   7.485   5.113   6.513  0.3541  0.2948 -0.1256
  958MOL0     C26370   7.603   5.090   6.435  0.4258  0.1516 -0.4139
  958MOL0     O26371   7.774   4.865   6.368  0.1795  0.4056  0.7297
  958MOL0     C26372   8.014   4.819   6.229  0.9326 -0.5303  0.2219
  958MOL0     C26373   8.129   4.801   6.154 -0.3739  0.3571 -0.1500
  958MOL0     N26374   8.316   4.299   5.840  0.9460 -0.3508 -0.2916
  958MOL0     N26375   8.366   4.191   5.791  0.1251  0.4445  0.8093
  958MOL0     C26376   7.373   3.969   5.389  0.1394 -0.6614  0.1376
  958MOL0     C26377   7.237   3.948   5.397 -0.5470 -0.6127  0.4047
  958MOL0     C26378   6.817   3.795   5.472 -0.7146  0.1550  0.2586
  958MOL0     C26379   6.695   3.868   5.453 -0.1753 -0.5642 -0.9207
  958MOL0     C26380   6.573   3.803   5.440  0.9910  0.0192 -0.1819
  958MOL0     C26381   6.568   3.663   5.440 -0.1459 -0.4323 -0.0926
  958MOL0     O26382   6.457   3.587   5.432 -0.1447  0.6410 -0.0311
  958MOL0     C26383   6.334   3.652   5.404  0.6519 -0.0177  0.5987
  958MOL0     C26384   6.206   3.564   5.398  0.6421 -0.9190  0.8303
  958MOL0     C26385   6.084   3.625   5.456  0.1218  0.1746 -0.7248
  958MOL0     C26386   5.963   3.538   5.468 -0.3133 -0.3104 -0.5196
  958MOL0     C26387   5.877   3.599   5.575 -0.9644  0.1244  0.6998
  958MOL0     C26388   5.806   3.650   5.652  0.6345 -0.0551  0.9375
  958MOL0     C26389   6.687   3.593   5.451 -0.2723 -0.0951  0.1065
  958MOL0     C26390   6.809   3.659   5.470 -0.7928 -0.8955 -0.5741
  958MOL0     H26391   7.246   3.674   5.603  1.6184  0.6801  1.4855
  958MOL0     H26392   7.476   3.723   5.599 -0.0706  0.3957 -0.5824
  958MOL0     H26393   7.673   3.753   5.510  0.0988 -0.4643  3.9845
  958MOL0     H26394   7.681   3.878   5.635  0.9100  3.1467 -0.6724
  958MOL0     H26395   7.817   4.023   5.492 -0.7714 -0.2398  2.0827
  958MOL0     H26396   7.828   3.908   5.369 -1.2389  0.7437  0.7140
  958MOL0     H26397   7.936   3.742   5.499 -0.8612  0.5877 -0.2758
  958MOL0     H26398   7.904   3.824   5.655 -0.3527  1.0259 -0.2503
  958MOL0     H26399   8.062   3.962   5.453 -1.7690 -3.0432 -1.3443
  958MOL0     H26400   8.056   4.002   5.626  1.1475  0.8808 -1.6907
  958MOL0     H26401   8.211   3.795   5.467  0.4177 -0.5473  0.3812
  958MOL0     H26402   8.170   3.765   5.647 -1.3646  2.8850  1.7664
  958MOL0     H26403   8.396   3.844   5.615  2.0364  3.8214 -3.3067
  958MOL0     H26404   8.280   3.950   5.712 -2.1287  1.2417 -0.7221
  958MOL0     H26405   8.360   3.983   5.424  0.1930  1.1443 -0.8856
  958MOL0     H26406   8.257   4.101   5.505  1.0136  1.1461  1.4738
  958MOL0     H26407   8.514   4.162   5.494  1.0263  2.9313  2.5753
  958MOL0     H26408   8.520   4.044   5.627  0.3787  0.1124 -0.1106
  958MOL0     H26409   8.378   4.403   5.539 -1.2530 -0.9187 -1.0793
  958MOL0     H26410   8.216   4.548   5.863  0.1071 -0.9700 -0.4536
  958MOL0     H26411   8.176   4.535   5.684 -0.4080 -2.4156  0.6766
  958MOL0     H26412   8.303   4.740   5.685  0.0938 -0.1600 -0.1907
  958MOL0     H26413   8.430   4.624   5.656  0.5903  0.7968  0.7565
  958MOL0     H26414   8.496   4.612   5.873 -3.9617 -2.6824 -0.4628
  958MOL0     H26415   8.492   4.785   5.820 -0.4582  1.4970  0.6539
  958MOL0     H26416   8.408   4.780   6.049  0.1677  0.1195 -1.3174
  958MOL0     H26417   8.294   4.649   6.011 -2.5340  1.0356 -1.6742
  958MOL0     H26418   8.021   4.934   5.854 -4.0870 -2.4866 -0.8324
  958MOL0     H26419   7.831   4.978   5.980 -0.0668  0.0843  0.6574
  958MOL0     H26420   7.476   5.008   6.140  0.6888 -1.3694  0.3352
  958MOL0     H26421   7.258   5.057   6.269 -0.4623 -3.0156  1.8037
  958MOL0     H26422   7.085   5.124   6.415 -0.5206 -1.1335  2.1449
  958MOL0     H26423   7.137   5.282   6.460 -2.6595 -0.8159 -1.9212
  958MOL0     H26424   7.096   5.225   6.706 -1.3284  0.3564  0.7664
  958MOL0     H26425   7.028   5.065   6.650  1.4695 -0.9334 -0.4705
  958MOL0     H26426   6.858   5.195   6.513 -0.0567  2.1811 -0.7689
  958MOL0     H26427   6.929   5.342   6.570 -1.0448 -0.3331 -1.8837
  958MOL0     H26428   6.725   5.260   6.681 -0.8105 -0.2999  1.5522
  958MOL0     H26429   6.816   5.122   6.756 -1.4988  0.6761  0.3003
  958MOL0     H26430   6.896   5.407   6.808  2.4122 -0.5909  1.5431
  958MOL0     H26431   6.957   5.266   6.870 -0.3409 -1.5768 -2.0739
  958MOL0     H26432   6.825   5.385   7.030  1.1313 -0.0177 -0.2773
  958MOL0     H26433   6.767   5.211   7.003  1.1851  0.4038 -0.6434
  958MOL0     H26434   6.624   5.458   6.895  1.1414 -0.4601 -2.7343
  958MOL0     H26435   6.597   5.286   6.853 -2.0628  1.2903  0.0469
  958MOL0     H26436   6.444   5.382   7.009  0.3508  1.1243  0.6025
  958MOL0     H26437   6.573   5.381   7.136  1.9078 -1.1871 -0.4367
  958MOL0     H26438   7.481   5.138   6.618  1.6598  0.7351 -0.1613
  958MOL0     H26439   7.695   5.092   6.492 -0.0144  1.3991  0.2823
  958MOL0     H26440   8.015   4.802   6.336  2.6554  0.6942  0.4515
  958MOL0     H26441   8.210   4.752   6.208 -0.1694 -0.1053 -0.8629
  958MOL0     H26442   7.394   4.050   5.319  1.9919  1.6070  3.0441
  958MOL0     H26443   7.173   4.004   5.329 -2.4175 -0.5133  2.1235
  958MOL0     H26444   6.702   3.976   5.444  0.9139 -0.5320  0.0723
  958MOL0     H26445   6.491   3.871   5.420 -0.1377 -0.6500  1.8559
  958MOL0     H26446   6.337   3.702   5.306  1.4471  2.3623  1.7404
  958MOL0     H26447   6.321   3.730   5.479 -0.2139 -1.3549  1.8809
  958MOL0     H26448   6.195   3.540   5.292 -0.5920  2.4834  0.0514
  958MOL0     H26449   6.221   3.469   5.450  2.0984 -1.2389 -0.1169
  958MOL0     H26450   6.060   3.713   5.395 -0.2820  0.0172 -0.7949
  958MOL0     H26451   6.124   3.648   5.555  1.2852  0.8889 -1.3295
  958MOL0     H26452   5.902   3.532   5.378 -0.1524  0.1157 -0.6612
  958MOL0     H26453   5.994   3.440   5.504  0.1687 -0.0277 -0.1499
  958MOL0     H26454   5.746   3.698   5.726  0.8779 -2.5311  2.8495
  958MOL0     H26455   6.687   3.486   5.469 -2.0165  0.2394  2.4813
  958MOL0     H26456   6.891   3.593   5.499 -0.4485 -0.5412 -0.7419
  959MOL0     O26457   5.933   9.046   4.477 -0.0340 -0.3597 -0.5085
  959MOL0     C26458   5.865   8.958   4.428  1.1258  0.4004  0.2034
  959MOL0     O26459   5.906   8.850   4.353 -0.0442  0.0227  0.5647
  959MOL0     C26460   6.041   8.826   4.337 -0.8070  0.5359  0.5082
  959MOL0     C26461   6.100   8.730   4.415  0.9727  0.0633 -0.3080
  959MOL0     C26462   6.234   8.697   4.407  0.5292  0.0282 -0.2120
  959MOL0     C26463   6.322   8.759   4.316  1.6516  0.5047 -0.3828
  959MOL0     O26464   6.444   8.718   4.301 -0.1080  0.4095  0.1715
  959MOL0     C26465   6.456   8.586   4.235  0.1915 -0.4732 -0.5526
  959MOL0     C26466   6.586   8.532   4.285  0.2648 -0.2324 -0.1421
  959MOL0     C26467   6.712   8.598   4.219 -0.0938  0.3066 -0.0054
  959MOL0     C26468   6.838   8.508   4.213  0.4280  0.5433  0.0055
  959MOL0     C26469   6.952   8.603   4.244  0.3663 -0.6438 -0.1543
  959MOL0     C26470   7.076   8.522   4.246  0.0551 -1.1417 -0.4373
  959MOL0     C26471   7.148   8.519   4.105  0.6857  0.2824 -0.3953
  959MOL0     C26472   7.235   8.647   4.076 -0.5182 -0.0397 -0.6468
  959MOL0     N26473   7.348   8.657   4.178  0.4518  0.1063  0.1578
  959MOL0     C26474   7.437   8.548   4.205 -0.3921 -0.3763 -0.1850
  959MOL0     C26475   7.490   8.578   4.328 -0.0383 -0.1095  0.4213
  959MOL0     C26476   7.580   8.478   4.401  0.3441 -0.0516  0.3918
  959MOL0     C26477   7.515   8.419   4.525 -0.1506  0.2244  0.7543
  959MOL0     C26478   7.378   8.349   4.486  1.0862 -0.6385  0.1356
  959MOL0     C26479   7.290   8.315   4.611 -1.4628 -0.1763  1.2005
  959MOL0     O26480   7.205   8.214   4.554 -0.0684 -0.1613 -0.5840
  959MOL0     C26481   7.069   8.234   4.560 -1.0626 -0.2120 -0.3566
  959MOL0     C26482   7.003   8.362   4.563  0.2008 -0.1615 -0.2253
  959MOL0     C26483   6.862   8.365   4.568 -0.0285  0.3624  0.6983
  959MOL0     C26484   6.791   8.246   4.555  0.4775 -0.8076 -0.3450
  959MOL0     C26485   6.649   8.249   4.558 -0.5961  0.1435 -1.1917
  959MOL0     O26486   6.583   8.344   4.625 -0.2016  0.6769  0.2810
  959MOL0     C26487   6.444   8.343   4.635 -0.6836  0.0689 -0.0263
  959MOL0     C26488   6.378   8.377   4.756  0.3837 -0.1743  1.1040
  959MOL0     C26489   6.248   8.372   4.764  0.2499  0.1439  0.2634
  959MOL0     C26490   6.163   8.338   4.647 -0.2967  0.3759 -0.1108
  959MOL0     O26491   6.026   8.327   4.645  0.1352 -0.1327  0.3080
  959MOL0     C26492   5.963   8.325   4.772 -0.5663  0.2042 -0.4804
  959MOL0     C26493   5.813   8.315   4.751  0.4304 -0.3600 -0.5342
  959MOL0     C26494   5.756   8.438   4.680  0.4872  0.0761  0.6260
  959MOL0     C26495   5.765   8.562   4.770  0.0363 -0.5678  0.1745
  959MOL0     C26496   5.713   8.684   4.686  0.9250  0.5545 -0.2963
  959MOL0     C26497   5.559   8.697   4.692 -0.1817  0.0677  0.5829
  959MOL0     C26498   5.498   8.700   4.837 -0.6580  0.3807  0.2223
  959MOL0     C26499   5.380   8.790   4.865  0.0960  0.0400 -0.7681
  959MOL0    Cl26500   5.229   8.703   4.821 -0.0088 -0.3476 -0.3549
  959MOL0     C26501   6.225   8.311   4.528  0.0102 -0.6890 -0.9786
  959MOL0     C26502   6.365   8.331   4.524 -0.1397  0.7074  1.1335
  959MOL0     O26503   6.596   8.159   4.495  0.1348  0.2630 -0.3358
  959MOL0     C26504   6.854   8.124   4.541  0.3279  0.4180 -0.4330
  959MOL0     C26505   6.994   8.123   4.560  0.5496  1.1476 -0.1903
  959MOL0     N26506   7.444   8.703   4.372  0.1065  1.1963 -0.0463
  959MOL0     N26507   7.356   8.747   4.287 -1.1175 -0.5820  0.3942
  959MOL0     C26508   6.264   8.862   4.244  0.0174 -0.0389  0.3262
  959MOL0     C26509   6.134   8.897   4.254 -0.3782 -0.4901 -0.1586
  959MOL0     C26510   5.722   8.986   4.436 -0.9436 -0.3491  0.1916
  959MOL0     C26511   5.667   9.098   4.506  0.5837 -0.4971  0.4005
  959MOL0     C26512   5.527   9.124   4.510  0.0059 -1.2329  0.2054
  959MOL0     C26513   5.444   9.057   4.427 -0.4810 -0.1561 -0.1489
  959MOL0     O26514   5.317   9.094   4.407 -0.1411  0.9132  0.0704
  959MOL0     C26515   5.261   9.217   4.459 -0.7325  0.1299  0.9892
  959MOL0     C26516   5.225   9.218   4.614 -0.0486 -0.4906  0.1420
  959MOL0     C26517   5.122   9.110   4.649  0.8183  0.4257  0.0808
  959MOL0     C26518   5.087   9.066   4.796  0.2802  0.4571 -0.2538
  959MOL0     C26519   4.956   8.986   4.799 -0.6518 -0.0256 -0.7088
  959MOL0     C26520   4.852   8.927   4.801 -0.3143  0.4483 -0.2719
  959MOL0     C26521   5.497   8.948   4.355  0.2237 -0.4323  0.4695
  959MOL0     C26522   5.630   8.912   4.366 -0.8543 -0.2254  0.7458
  959MOL0     H26523   6.031   8.687   4.488 -0.7103  3.0629  0.0164
  959MOL0     H26524   6.269   8.617   4.471 -0.8634 -0.1264  0.3672
  959MOL0     H26525   6.458   8.601   4.126 -1.2464  0.6714 -0.4611
  959MOL0     H26526   6.369   8.525   4.262 -1.1852  0.8646 -1.6901
  959MOL0     H26527   6.580   8.426   4.256  0.1551 -0.1975 -0.2432
  959MOL0     H26528   6.604   8.540   4.392  2.3640  0.5193 -0.4928
  959MOL0     H26529   6.728   8.691   4.274 -1.6911  0.2264  0.6459
  959MOL0     H26530   6.694   8.619   4.113 -0.2401 -1.4187 -0.3541
  959MOL0     H26531   6.834   8.423   4.282 -0.8975 -2.1592 -3.1045
  959MOL0     H26532   6.854   8.472   4.111 -0.0575  2.9526 -0.9913
  959MOL0     H26533   6.930   8.642   4.344  0.2481 -0.3074 -0.3108
  959MOL0     H26534   6.955   8.690   4.177  0.7502  0.4332  1.2065
  959MOL0     H26535   7.058   8.420   4.281  0.9925 -2.5578 -3.7015
  959MOL0     H26536   7.141   8.558   4.326  1.5238  0.3715 -2.2310
  959MOL0     H26537   7.207   8.428   4.096  0.4139  0.1941 -1.4255
  959MOL0     H26538   7.074   8.507   4.025 -0.7624  0.8110  0.8195
  959MOL0     H26539   7.165   8.730   4.087  0.5255  0.8020 -0.1691
  959MOL0     H26540   7.270   8.645   3.972 -0.7537  0.4023 -0.7370
  959MOL0     H26541   7.445   8.447   4.168  0.6549  0.0730 -1.2683
  959MOL0     H26542   7.672   8.529   4.430  0.5889 -0.3418  0.1298
  959MOL0     H26543   7.606   8.396   4.334  0.1551 -0.6806  1.0697
  959MOL0     H26544   7.500   8.499   4.599  2.0086  0.3594  1.1136
  959MOL0     H26545   7.585   8.344   4.563  0.0486 -0.3128 -0.6314
  959MOL0     H26546   7.317   8.413   4.422  2.4341  0.7104  0.1530
  959MOL0     H26547   7.405   8.257   4.435 -0.1581 -1.0561  0.1960
  959MOL0     H26548   7.240   8.402   4.655  0.0077  1.0606  0.5002
  959MOL0     H26549   7.353   8.273   4.690  1.4291  0.4623 -0.6285
  959MOL0     H26550   7.042   8.463   4.561 -0.1901  0.2096  3.7857
  959MOL0     H26551   6.817   8.463   4.575  0.2533  0.5093  0.4836
  959MOL0     H26552   6.430   8.417   4.842 -0.7018  0.9688  1.2521
  959MOL0     H26553   6.207   8.407   4.858  1.3633  0.5075  0.6225
  959MOL0     H26554   5.981   8.419   4.825 -1.2756  0.5154 -0.7703
  959MOL0     H26555   6.001   8.242   4.831  0.3131  3.1490  3.5510
  959MOL0     H26556   5.765   8.296   4.847  1.0489 -0.9647 -0.3364
  959MOL0     H26557   5.805   8.225   4.688  1.2934 -1.4137  0.8110
  959MOL0     H26558   5.651   8.423   4.653  0.7406 -1.3449  0.3268
  959MOL0     H26559   5.806   8.456   4.585 -1.5460  0.3396 -0.4459
  959MOL0     H26560   5.709   8.549   4.863 -0.2419  2.7844  0.6163
  959MOL0     H26561   5.872   8.574   4.790  0.2893 -2.3481  0.0244
  959MOL0     H26562   5.739   8.675   4.580 -3.7254  1.9142 -1.7635
  959MOL0     H26563   5.761   8.776   4.720  2.0746  0.6542 -2.0810
  959MOL0     H26564   5.507   8.620   4.635 -1.0568  1.5781 -0.7703
  959MOL0     H26565   5.527   8.794   4.651 -2.4150 -0.2283  1.4686
  959MOL0     H26566   5.481   8.599   4.873  2.1590 -0.8662 -1.5613
  959MOL0     H26567   5.583   8.744   4.890 -0.3796  2.9308 -2.0675
  959MOL0     H26568   5.383   8.889   4.817  1.2341 -0.4929 -1.8635
  959MOL0     H26569   5.389   8.809   4.972  2.7221 -0.8242 -0.7745
  959MOL0     H26570   6.167   8.288   4.439 -1.5321 -0.9562  0.0611
  959MOL0     H26571   6.418   8.321   4.430 -0.4121 -1.2430  1.1353
  959MOL0     H26572   6.806   8.028   4.526  0.9879 -0.4204  2.2349
  959MOL0     H26573   7.056   8.034   4.563  2.3108  2.2783 -1.5431
  959MOL0     H26574   6.335   8.915   4.180 -0.7491  0.8673  0.1912
  959MOL0     H26575   6.085   8.968   4.189  0.7467 -0.1415 -0.6498
  959MOL0     H26576   5.736   9.156   4.567  0.2106  0.0102  0.3444
  959MOL0     H26577   5.482   9.195   4.579  2.1172  1.5127 -1.0880
  959MOL0     H26578   5.170   9.230   4.401  0.2091 -0.2601 -0.6343
  959MOL0     H26579   5.327   9.296   4.421 -2.3989 -0.1902 -2.9324
  959MOL0     H26580   5.315   9.205   4.676  0.0615  0.5318  0.2183
  959MOL0     H26581   5.188   9.312   4.657  0.0351 -1.0071  1.3938
  959MOL0     H26582   5.162   9.024   4.595  4.3462  1.3554  0.9329
  959MOL0     H26583   5.027   9.125   4.596  1.1009 -1.5178 -1.0913
  959MOL0     H26584   5.175   9.008   4.826  1.2157  0.2717 -3.1211
  959MOL0     H26585   5.073   9.154   4.859 -1.0744  1.2236 -1.5813
  959MOL0     H26586   4.757   8.880   4.805  0.0809 -0.4531 -1.1844
  959MOL0     H26587   5.430   8.891   4.290  1.1642  1.5550 -2.4047
  959MOL0     H26588   5.662   8.830   4.303 -0.2506  0.4674  0.1306
  960MOL0     O26589   0.131   8.166   2.129 -0.2451 -0.0364 -0.0847
  960MOL0     C26590   0.195   8.266   2.116 -0.4657 -0.1008 -0.1234
  960MOL0     O26591   0.163   8.380   2.047 -0.0677  0.0739 -0.1451
  960MOL0     C26592   0.051   8.394   1.964  1.0041  1.5007  0.2785
  960MOL0     C26593  -0.077   8.353   2.004  0.4168  0.6161  0.6365
  960MOL0     C26594  -0.182   8.347   1.908  0.6539  0.6181  0.3678
  960MOL0     C26595  -0.167   8.391   1.773  0.1100  0.6581 -0.4533
  960MOL0     O26596  -0.283   8.389   1.697 -0.4841 -0.8888  0.4291
  960MOL0     C26597  -0.280   8.456   1.566 -0.7656 -0.4181  0.2072
  960MOL0     C26598  -0.417   8.442   1.504  0.4143 -0.0420 -0.0385
  960MOL0     C26599  -0.477   8.298   1.485  0.3858 -0.6731 -0.0807
  960MOL0     C26600  -0.392   8.220   1.386  0.3240  0.4664  0.8265
  960MOL0     C26601  -0.421   8.071   1.355  0.3037  0.0740 -0.8569
  960MOL0     C26602  -0.563   8.036   1.329  0.3875  0.6231  0.1879
  960MOL0     C26603  -0.585   7.883   1.294 -0.0091  0.2718 -0.2147
  960MOL0     C26604  -0.591   7.807   1.430 -0.2604 -0.2641  0.3109
  960MOL0     N26605  -0.587   7.665   1.414  0.0334  0.3120 -0.4875
  960MOL0     C26606  -0.687   7.591   1.353 -0.2269  0.7111 -0.2132
  960MOL0     C26607  -0.665   7.466   1.395  0.0214 -0.0002  0.6059
  960MOL0     C26608  -0.757   7.349   1.357  0.2753  0.2545 -0.4519
  960MOL0     C26609  -0.755   7.330   1.207 -0.4254  0.1033 -0.6004
  960MOL0     C26610  -0.835   7.215   1.161 -0.6130 -0.0900  0.1862
  960MOL0     C26611  -0.978   7.205   1.226 -0.1705 -0.0693 -0.2631
  960MOL0     O26612  -1.058   7.112   1.154 -0.1935 -0.1865 -0.3597
  960MOL0     C26613  -1.193   7.104   1.173 -0.1284 -0.1247 -0.1188
  960MOL0     C26614  -1.271   7.034   1.085  0.7135  0.6659 -0.1060
  960MOL0     C26615  -1.412   7.052   1.090  0.1955  0.5484 -0.0512
  960MOL0     C26616  -1.480   7.132   1.190  0.5174  0.4711 -0.5242
  960MOL0     C26617  -1.629   7.133   1.192 -0.9016 -0.9689  0.1436
  960MOL0     O26618  -1.672   7.246   1.259  0.5419 -0.2948 -0.0408
  960MOL0     C26619  -1.814   7.273   1.268 -0.4027  0.8152 -0.3208
  960MOL0     C26620  -1.909   7.240   1.168 -0.0545 -0.2105 -0.3370
  960MOL0     C26621  -2.048   7.243   1.194  1.2709 -0.0769 -0.2393
  960MOL0     C26622  -2.091   7.289   1.330  0.6015  0.0127  0.3985
  960MOL0     O26623  -2.230   7.278   1.355 -0.7310  0.2643  0.2033
  960MOL0     C26624  -2.274   7.347   1.473  0.5182  0.5409  0.7077
  960MOL0     C26625  -2.409   7.296   1.498  0.5853  0.2693 -0.2818
  960MOL0     C26626  -2.493   7.346   1.385 -0.5887 -0.5374  0.3131
  960MOL0     C26627  -2.632   7.286   1.384  0.9383 -0.5016  0.0831
  960MOL0     C26628  -2.717   7.335   1.266 -0.6025 -0.7910 -0.1945
  960MOL0     C26629  -2.846   7.260   1.262  0.5523 -0.1109  0.2244
  960MOL0     C26630  -2.930   7.288   1.389  0.4543  0.9089  0.4807
  960MOL0     C26631  -3.079   7.237   1.362  0.1213 -0.6782 -0.2632
  960MOL0    Cl26632  -3.087   7.059   1.370 -0.6585 -0.3117 -0.0836
  960MOL0     C26633  -1.997   7.340   1.418 -0.2742 -0.1010  0.5536
  960MOL0     C26634  -1.857   7.326   1.384 -0.1481  0.1803 -0.4219
  960MOL0     O26635  -1.702   7.049   1.141 -0.4795  0.0481  0.7329
  960MOL0     C26636  -1.393   7.181   1.290 -0.4658  0.3716  0.0756
  960MOL0     C26637  -1.258   7.173   1.278 -0.2674 -0.0371 -0.0450
  960MOL0     N26638  -0.558   7.468   1.474 -0.6934 -0.4870 -0.1523
  960MOL0     N26639  -0.495   7.583   1.477  0.3381  0.7517  0.6721
  960MOL0     C26640  -0.036   8.427   1.732  0.8931  0.0089 -0.7604
  960MOL0     C26641   0.068   8.439   1.831 -0.0517 -0.2522 -0.3002
  960MOL0     C26642   0.332   8.256   2.170  0.2038 -0.5142  0.1363
  960MOL0     C26643   0.370   8.143   2.244 -0.6730  0.5055 -0.2465
  960MOL0     C26644   0.506   8.138   2.303  0.1807  0.2575 -0.0040
  960MOL0     C26645   0.590   8.252   2.300  0.4006 -0.3238 -0.0118
  960MOL0     O26646   0.712   8.250   2.366  0.1293 -0.6757  0.0034
  960MOL0     C26647   0.812   8.151   2.322  0.3069  0.4559  0.0264
  960MOL0     C26648   0.947   8.225   2.344  0.2669  0.7426  0.3892
  960MOL0     C26649   1.075   8.144   2.319 -0.2067  0.2074 -0.2984
  960MOL0     C26650   1.190   8.245   2.301  0.2665 -0.2198 -0.3362
  960MOL0     C26651   1.210   8.319   2.422 -0.0686  0.5119 -0.1500
  960MOL0     C26652   1.216   8.371   2.535  0.8470  0.2493 -0.1921
  960MOL0     C26653   0.541   8.368   2.246 -0.0954  0.1219 -0.3045
  960MOL0     C26654   0.423   8.370   2.179  0.6021  0.3237  0.7513
  960MOL0     H26655  -0.102   8.304   2.098 -1.8179 -1.2254 -0.8055
  960MOL0     H26656  -0.279   8.331   1.955  0.9869 -1.6272  0.3960
  960MOL0     H26657  -0.212   8.411   1.492 -2.1092 -0.7350 -0.8908
  960MOL0     H26658  -0.249   8.560   1.573  1.5207 -1.0582  0.4673
  960MOL0     H26659  -0.422   8.494   1.408  0.5491 -1.1585 -0.6683
  960MOL0     H26660  -0.491   8.493   1.566 -0.8201 -0.1359 -1.3808
  960MOL0     H26661  -0.579   8.312   1.448 -0.0511 -0.4415  1.1494
  960MOL0     H26662  -0.484   8.245   1.581 -2.3329  0.2826  0.3339
  960MOL0     H26663  -0.417   8.268   1.291 -4.4263 -1.6032  0.7128
  960MOL0     H26664  -0.286   8.219   1.410  0.9741  1.7399 -1.6557
  960MOL0     H26665  -0.376   8.022   1.442 -0.2292  0.2403 -0.4817
  960MOL0     H26666  -0.364   8.033   1.270 -0.7815  0.2617 -1.6843
  960MOL0     H26667  -0.604   8.088   1.243 -0.1462  0.6000  0.4243
  960MOL0     H26668  -0.635   8.057   1.409  1.7439  3.1876  0.8127
  960MOL0     H26669  -0.678   7.873   1.237 -0.4354  1.8822  0.1318
  960MOL0     H26670  -0.505   7.841   1.231 -0.2224  0.7593 -0.8281
  960MOL0     H26671  -0.677   7.843   1.488  1.2370 -0.2883  2.6579
  960MOL0     H26672  -0.516   7.838   1.504  0.4065 -0.3277 -0.3333
  960MOL0     H26673  -0.774   7.624   1.298 -0.6265 -2.6253 -1.8440
  960MOL0     H26674  -0.857   7.373   1.393  0.9529  4.1020 -0.6974
  960MOL0     H26675  -0.723   7.259   1.409  1.4456  0.4632 -0.8227
  960MOL0     H26676  -0.657   7.301   1.167 -0.2733 -1.8388  0.9977
  960MOL0     H26677  -0.791   7.420   1.156 -1.7968  0.1075  0.3443
  960MOL0     H26678  -0.839   7.209   1.052 -1.2656  0.8253  0.1538
  960MOL0     H26679  -0.783   7.127   1.200  2.8272  1.2198 -1.0402
  960MOL0     H26680  -1.029   7.302   1.231 -2.3656 -1.1489 -0.7577
  960MOL0     H26681  -0.971   7.169   1.329 -1.8573 -3.1016 -1.0818
  960MOL0     H26682  -1.231   6.975   1.004 -0.6974 -0.6483  0.1224
  960MOL0     H26683  -1.472   7.016   1.007  1.5686  1.7050 -1.6044
  960MOL0     H26684  -1.865   7.191   1.081 -0.0465  1.6281 -1.4092
  960MOL0     H26685  -2.115   7.193   1.125  1.2742 -0.9195  0.3538
  960MOL0     H26686  -2.275   7.455   1.458 -3.0756  0.3830 -1.6055
  960MOL0     H26687  -2.216   7.315   1.560  1.7421 -1.3690 -0.7245
  960MOL0     H26688  -2.452   7.332   1.592  0.4387  1.6434 -0.8553
  960MOL0     H26689  -2.404   7.187   1.506 -0.0739  0.2842  0.4811
  960MOL0     H26690  -2.452   7.322   1.286 -0.3973 -1.3971  0.5988
  960MOL0     H26691  -2.507   7.454   1.396 -0.9219 -0.6769  1.4123
  960MOL0     H26692  -2.616   7.177   1.383  3.3059 -0.2056  0.4686
  960MOL0     H26693  -2.689   7.322   1.470  0.7601  2.4129 -1.1481
  960MOL0     H26694  -2.661   7.316   1.174 -1.3129  2.1582 -1.3317
  960MOL0     H26695  -2.741   7.441   1.272 -1.0304 -0.9383  1.0897
  960MOL0     H26696  -2.815   7.155   1.262  0.9755  0.0140  0.5874
  960MOL0     H26697  -2.900   7.282   1.169  1.2310 -1.1096 -0.4307
  960MOL0     H26698  -2.887   7.250   1.482 -1.9748 -0.2697  1.1802
  960MOL0     H26699  -2.939   7.397   1.396  0.9998  1.0607 -0.8700
  960MOL0     H26700  -3.106   7.275   1.263 -0.3080  1.4128  0.5895
  960MOL0     H26701  -3.152   7.287   1.427  1.1956  0.6856 -0.0394
  960MOL0     H26702  -2.021   7.378   1.517 -0.0150 -0.4966  0.7734
  960MOL0     H26703  -1.777   7.357   1.451 -0.5979  2.5101 -0.8734
  960MOL0     H26704  -1.446   7.232   1.370  0.9437  2.9636 -0.5401
  960MOL0     H26705  -1.195   7.217   1.354 -0.0986  1.8241 -1.1938
  960MOL0     H26706  -0.018   8.451   1.628 -2.2046 -2.2544 -1.9862
  960MOL0     H26707   0.166   8.474   1.802  0.2882 -0.8452  0.1067
  960MOL0     H26708   0.310   8.054   2.258 -0.2759  0.2767  0.0260
  960MOL0     H26709   0.536   8.044   2.348  1.7356 -0.2233 -1.8607
  960MOL0     H26710   0.798   8.119   2.219  0.8110 -0.0246  0.1037
  960MOL0     H26711   0.804   8.060   2.381 -2.3504 -1.4185 -2.9198
  960MOL0     H26712   0.943   8.306   2.271  1.2322  0.3612 -0.1162
  960MOL0     H26713   0.953   8.277   2.440  2.0901  3.0155 -0.8491
  960MOL0     H26714   1.065   8.076   2.234 -1.2751  0.0708 -0.0844
  960MOL0     H26715   1.087   8.082   2.408  0.4069 -1.8788 -1.7759
  960MOL0     H26716   1.285   8.196   2.279  1.5133  2.5014 -1.4724
  960MOL0     H26717   1.176   8.314   2.217 -0.4641 -1.7133 -1.5061
  960MOL0     H26718   1.229   8.421   2.628  0.7885  3.1738 -1.6361
  960MOL0     H26719   0.611   8.451   2.250  1.1211 -0.9109  1.9069
  960MOL0     H26720   0.388   8.463   2.134 -3.9314 -2.2347 -1.7866
  961MOL0     O26721   2.722   0.994  10.422 -0.4783  0.4887  0.0101
  961MOL0     C26722   2.803   0.908  10.456 -0.3960  0.5716  0.4928
  961MOL0     O26723   2.781   0.777  10.493 -0.0305 -0.6666 -0.8287
  961MOL0     C26724   2.644   0.732  10.505  0.5977  0.1233 -0.3747
  961MOL0     C26725   2.548   0.749  10.403 -0.5745 -0.6902 -1.2181
  961MOL0     C26726   2.426   0.692  10.423  0.3265 -0.5142  0.7372
  961MOL0     C26727   2.384   0.614  10.526 -0.6589 -0.3444  0.3511
  961MOL0     O26728   2.259   0.550  10.535 -0.4921  0.6952  0.3847
  961MOL0     C26729   2.179   0.528  10.420 -0.6042  0.1371  0.2963
  961MOL0     C26730   2.089   0.403  10.437 -0.3161  0.2809 -0.4802
  961MOL0     C26731   2.003   0.415  10.564 -0.1936  0.3095 -0.2158
  961MOL0     C26732   1.932   0.281  10.590 -0.2358  0.0004 -0.7843
  961MOL0     C26733   1.833   0.285  10.710  0.1304 -0.0277  0.1483
  961MOL0     C26734   1.882   0.241  10.842  0.2204  0.6286 -0.3897
  961MOL0     C26735   1.771   0.185  10.925  0.0369  0.6085  0.0076
  961MOL0     C26736   1.795   0.179  11.078  0.4853 -0.3676  1.9255
  961MOL0     N26737   1.673   0.143  11.152 -0.3942  0.0433  0.3814
  961MOL0     C26738   1.624   0.015  11.158 -0.2626 -0.1982 -0.2886
  961MOL0     C26739   1.503   0.036  11.222 -0.5370 -0.2309  0.7839
  961MOL0     C26740   1.403  -0.059  11.270  0.6834 -0.9563 -0.2246
  961MOL0     C26741   1.263  -0.031  11.218 -0.1717 -0.3959  0.5038
  961MOL0     C26742   1.157  -0.116  11.280 -0.1147 -0.1360 -0.0992
  961MOL0     C26743   1.111  -0.064  11.411 -0.2046 -0.1335  0.4188
  961MOL0     O26744   1.034   0.057  11.393 -0.2290 -0.3551 -0.0857
  961MOL0     C26745   0.895   0.050  11.419  0.1563  0.3850  0.0692
  961MOL0     C26746   0.809  -0.055  11.372  0.4765  0.1906  0.4418
  961MOL0     C26747   0.666  -0.048  11.385 -0.2589  0.3880  0.0026
  961MOL0     C26748   0.605   0.065  11.454  0.2710 -0.3721 -0.1625
  961MOL0     C26749   0.451   0.085  11.468  0.0608  0.0011  1.1066
  961MOL0     O26750   0.371  -0.013  11.405  0.5118 -0.9291  0.5449
  961MOL0     C26751   0.251   0.042  11.366 -0.5715  0.3775  0.8546
  961MOL0     C26752   0.246   0.151  11.277  0.1271  0.0552  0.5256
  961MOL0     C26753   0.123   0.190  11.226  0.2621 -0.4095 -0.2385
  961MOL0     C26754   0.001   0.130  11.266  0.6310  0.5430  0.0407
  961MOL0     O26755  -0.117   0.174  11.223  0.2143  0.3903 -0.1212
  961MOL0     C26756  -0.122   0.229  11.089  0.1849 -0.1079 -0.1284
  961MOL0     C26757  -0.274   0.232  11.041 -0.3345  0.2302 -0.3045
  961MOL0     C26758  -0.303   0.338  10.925 -0.5851 -0.1727 -0.0995
  961MOL0     C26759  -0.444   0.333  10.894  0.4195  0.1891 -0.3200
  961MOL0     C26760  -0.478   0.425  10.776  0.8101  0.1614 -0.0224
  961MOL0     C26761  -0.627   0.433  10.762  0.0796 -0.3897 -0.6931
  961MOL0     C26762  -0.659   0.507  10.632  0.0719  0.6616 -0.0304
  961MOL0     C26763  -0.817   0.527  10.632 -0.5867 -0.3588  0.1798
  961MOL0    Cl26764  -0.867   0.649  10.756 -0.0596  0.0339  0.3947
  961MOL0     C26765   0.010   0.019  11.355  0.3805 -0.2958  0.0245
  961MOL0     C26766   0.135  -0.022  11.410  0.4289  0.4075 -0.4320
  961MOL0     O26767   0.409   0.185  11.529  0.4145  0.1750 -0.0593
  961MOL0     C26768   0.689   0.171  11.486  0.8427  0.4482 -0.3272
  961MOL0     C26769   0.831   0.169  11.474 -0.1096  0.4950  0.3043
  961MOL0     N26770   1.474   0.174  11.235 -0.5889  0.5538  0.1384
  961MOL0     N26771   1.582   0.233  11.194 -0.0832  0.6120 -0.5224
  961MOL0     C26772   2.466   0.603  10.635  0.2215  0.2649  0.9002
  961MOL0     C26773   2.602   0.654  10.614 -0.6358  0.1833 -0.5836
  961MOL0     C26774   2.937   0.950  10.438 -0.2017  0.3021 -0.0868
  961MOL0     C26775   2.967   1.086  10.417 -0.4967  0.1076  0.4157
  961MOL0     C26776   3.101   1.129  10.402  0.1256  0.5321  0.2364
  961MOL0     C26777   3.206   1.040  10.401  0.7789  0.4609 -0.5106
  961MOL0     O26778   3.333   1.081  10.368  0.3743 -0.0667 -0.3737
  961MOL0     C26779   3.431   0.987  10.322 -0.0918 -0.4675 -0.3679
  961MOL0     C26780   3.549   1.058  10.259  0.3906 -0.0164  0.3580
  961MOL0     C26781   3.637   1.138  10.367 -0.2489  0.2145  0.1452
  961MOL0     C26782   3.706   1.254  10.292 -0.5649  0.6602 -0.0967
  961MOL0     C26783   3.830   1.221  10.219 -0.4103  0.4473  0.7458
  961MOL0     C26784   3.931   1.189  10.166 -0.4123  0.7414 -0.3613
  961MOL0     C26785   3.171   0.897  10.415  0.7163  0.2705 -0.1764
  961MOL0     C26786   3.041   0.853  10.447 -0.4885 -0.0123 -0.5596
  961MOL0     H26787   2.564   0.814  10.318  0.8057  1.1026  0.3126
  961MOL0     H26788   2.358   0.726  10.345  2.3211  0.0209 -0.8575
  961MOL0     H26789   2.249   0.513  10.338  0.9405  0.5354  1.4938
  961MOL0     H26790   2.121   0.614  10.385 -0.5613 -0.2448 -0.7455
  961MOL0     H26791   2.160   0.320  10.438  0.3903  0.8198  2.0481
  961MOL0     H26792   2.020   0.393  10.353  1.7672 -0.0726 -2.2460
  961MOL0     H26793   1.934   0.499  10.555  0.5324  0.9243 -0.0473
  961MOL0     H26794   2.061   0.427  10.656 -2.2475  1.0263  1.0496
  961MOL0     H26795   1.867   0.259  10.504 -1.7476 -1.2138  0.6049
  961MOL0     H26796   2.006   0.201  10.601 -0.8916 -0.2353  3.8218
  961MOL0     H26797   1.749   0.218  10.686  0.4582 -0.6233  0.6191
  961MOL0     H26798   1.800   0.389  10.713 -0.0901 -0.1071  0.8105
  961MOL0     H26799   1.909   0.339  10.883 -2.3537  1.2972 -0.0646
  961MOL0     H26800   1.960   0.167  10.824  0.2100  0.2761  0.9195
  961MOL0     H26801   1.681   0.247  10.915 -0.6556 -0.3810 -0.1488
  961MOL0     H26802   1.754   0.083  10.889  0.9147  1.9100 -4.9071
  961MOL0     H26803   1.820   0.281  11.107 -1.3252  0.3818  0.9762
  961MOL0     H26804   1.878   0.113  11.106  0.7399 -0.9098  0.0391
  961MOL0     H26805   1.680  -0.075  11.136 -2.1884 -1.1528 -1.5609
  961MOL0     H26806   1.403  -0.049  11.379  3.1423  0.7562 -0.2828
  961MOL0     H26807   1.441  -0.156  11.236 -3.8649 -2.3231 -2.0257
  961MOL0     H26808   1.269  -0.056  11.111 -2.5583  0.9607 -0.0125
  961MOL0     H26809   1.242   0.076  11.224  0.2410 -0.0726 -2.3223
  961MOL0     H26810   1.069  -0.119  11.214 -1.2857  0.7688  1.3556
  961MOL0     H26811   1.201  -0.216  11.286 -0.0878 -0.2611 -1.8163
  961MOL0     H26812   1.194  -0.030  11.475 -0.1477 -0.9944  0.8189
  961MOL0     H26813   1.053  -0.144  11.458 -0.1636  0.6907  1.9343
  961MOL0     H26814   0.848  -0.144  11.325 -0.9234  0.1361 -0.6912
  961MOL0     H26815   0.608  -0.132  11.350 -0.5534  0.2654  0.7862
  961MOL0     H26816   0.339   0.200  11.250  0.5544  0.5703  2.7216
  961MOL0     H26817   0.135   0.278  11.164  2.9030 -1.0569 -0.7372
  961MOL0     H26818  -0.060   0.192  11.007  0.9324  1.0186 -0.1044
  961MOL0     H26819  -0.079   0.329  11.104 -0.6857  0.3974 -0.9142
  961MOL0     H26820  -0.350   0.242  11.119 -0.0847 -1.3396  0.1893
  961MOL0     H26821  -0.315   0.136  11.006 -0.5644  0.3847 -0.4681
  961MOL0     H26822  -0.247   0.304  10.837 -0.0011 -2.2551  0.9883
  961MOL0     H26823  -0.259   0.435  10.948  0.4174 -0.2443 -1.5723
  961MOL0     H26824  -0.485   0.232  10.885 -1.4226  0.7118  1.3918
  961MOL0     H26825  -0.507   0.363  10.979 -2.8213  0.9649 -2.7641
  961MOL0     H26826  -0.445   0.384  10.680 -2.2414 -1.8633 -0.3521
  961MOL0     H26827  -0.431   0.523  10.789  1.4598  0.1479 -1.9612
  961MOL0     H26828  -0.668   0.492  10.844 -0.7532 -0.0282 -1.3618
  961MOL0     H26829  -0.669   0.332  10.763  1.7402 -1.1211 -0.6260
  961MOL0     H26830  -0.593   0.594  10.630  1.2897 -0.2466 -0.3836
  961MOL0     H26831  -0.637   0.443  10.546  3.0867 -1.4783  2.1372
  961MOL0     H26832  -0.860   0.429  10.658  2.5364 -2.3560 -1.5189
  961MOL0     H26833  -0.843   0.567  10.534  0.4470 -0.7739 -0.2791
  961MOL0     H26834  -0.085  -0.033  11.369 -0.4343  1.3384  0.9094
  961MOL0     H26835   0.126  -0.108  11.476 -1.0951 -0.4917 -1.7375
  961MOL0     H26836   0.646   0.261  11.529 -0.5341  1.1907 -2.9961
  961MOL0     H26837   0.879   0.264  11.494  0.6067 -0.3838  3.2091
  961MOL0     H26838   2.443   0.553  10.729  0.1187 -0.8061  0.3222
  961MOL0     H26839   2.678   0.642  10.690 -1.2104 -1.4140 -0.2284
  961MOL0     H26840   2.893   1.164  10.432 -1.2848 -0.2411 -1.3395
  961MOL0     H26841   3.107   1.232  10.369 -0.9691 -0.6995 -4.5944
  961MOL0     H26842   3.386   0.914  10.254 -0.2621 -2.2158  1.5089
  961MOL0     H26843   3.473   0.946  10.414  0.4111 -0.2618 -0.5072
  961MOL0     H26844   3.605   0.978  10.212 -1.2675  0.0332 -1.8844
  961MOL0     H26845   3.516   1.131  10.184 -0.2306 -0.2119  0.4319
  961MOL0     H26846   3.705   1.073  10.423 -2.7635 -1.3058  1.6182
  961MOL0     H26847   3.567   1.171  10.444 -1.4028 -1.0662 -0.3246
  961MOL0     H26848   3.642   1.305  10.219  0.0939  2.1654  0.3419
  961MOL0     H26849   3.737   1.334  10.360 -0.0368  2.0572 -1.9055
  961MOL0     H26850   4.021   1.165  10.113 -0.1923 -0.9266  0.7070
  961MOL0     H26851   3.252   0.824  10.414  0.1020 -0.4224 -0.8040
  961MOL0     H26852   3.020   0.748  10.465  1.1119 -0.1351  0.8372
  962MOL0     O26853   3.963   1.670  10.898 -0.2072 -0.6431 -0.5808
  962MOL0     C26854   4.027   1.573  10.861 -0.1269 -0.1929 -0.4892
  962MOL0     O26855   3.978   1.444  10.839  0.1665 -0.0465 -0.8514
  962MOL0     C26856   3.840   1.438  10.812 -0.5768 -0.3395 -0.7699
  962MOL0     C26857   3.792   1.413  10.684 -0.0479 -0.5870  0.6359
  962MOL0     C26858   3.655   1.407  10.651  0.2665 -0.2428  0.1318
  962MOL0     C26859   3.559   1.412  10.756 -0.1041 -0.3729 -0.3486
  962MOL0     O26860   3.420   1.398  10.736  0.3135 -0.2667  0.0615
  962MOL0     C26861   3.378   1.288  10.651  1.0294  0.0597 -0.2554
  962MOL0     C26862   3.290   1.187  10.718 -0.1220  0.6912  0.3384
  962MOL0     C26863   3.149   1.243  10.745 -0.4530  0.3014 -0.4262
  962MOL0     C26864   3.053   1.141  10.793 -0.6918  0.3006 -1.0745
  962MOL0     C26865   2.914   1.209  10.816 -0.0368  0.2421  0.0912
  962MOL0     C26866   2.805   1.118  10.890  0.3130 -0.0179  0.0803
  962MOL0     C26867   2.804   0.974  10.855 -0.5703  0.4257  0.0869
  962MOL0     C26868   2.661   0.919  10.869  0.1728  0.7250  0.0967
  962MOL0     N26869   2.601   0.920  11.006 -0.0158  0.4393 -0.0444
  962MOL0     C26870   2.536   0.808  11.052 -0.3484  0.5288  0.7087
  962MOL0     C26871   2.494   0.834  11.174  0.4507 -0.1124 -0.3464
  962MOL0     C26872   2.430   0.720  11.256 -0.1578 -0.5711 -0.1504
  962MOL0     C26873   2.336   0.772  11.369  0.3622  0.1345  0.7023
  962MOL0     C26874   2.270   0.657  11.442 -0.7084  0.0171  0.9807
  962MOL0     C26875   2.159   0.692  11.533  0.1709  0.5953 -0.0255
  962MOL0     O26876   2.089   0.574  11.590  0.2713  0.0573 -0.1108
  962MOL0     C26877   1.995   0.599  11.684  0.1024  0.4421 -0.1576
  962MOL0     C26878   1.921   0.487  11.719  0.4208  0.2881 -0.5542
  962MOL0     C26879   1.821   0.496  11.807 -0.1603 -0.2594  0.6009
  962MOL0     C26880   1.778   0.621  11.857 -0.7176  0.2647  0.2246
  962MOL0     C26881   1.665   0.622  11.956 -0.1658 -0.0436  0.0596
  962MOL0     O26882   1.601   0.506  11.997 -0.5946 -0.4575 -0.0252
  962MOL0     C26883   1.506   0.515  12.093 -0.9664 -0.1333 -0.7116
  962MOL0     C26884   1.521   0.578  12.220  0.0764  1.1758  0.3264
  962MOL0     C26885   1.421   0.586  12.319 -0.3618 -0.1749 -0.6194
  962MOL0     C26886   1.299   0.544  12.286  0.3359  0.1571 -0.3409
  962MOL0     O26887   1.209   0.539  12.385  0.0531  0.3468  0.6452
  962MOL0     C26888   1.079   0.598  12.365  0.2863  0.4529 -0.2150
  962MOL0     C26889   0.972   0.491  12.400 -0.2411  0.3766  0.4349
  962MOL0     C26890   0.951   0.371  12.302 -0.0760  0.1404 -0.7668
  962MOL0     C26891   0.832   0.284  12.350  0.7180  0.1864 -0.2794
  962MOL0     C26892   0.695   0.363  12.344 -0.0680  0.7509  0.5060
  962MOL0     C26893   0.584   0.266  12.351 -0.4054 -0.5994  0.0174
  962MOL0     C26894   0.440   0.331  12.335 -1.8776  0.5386 -0.2263
  962MOL0     C26895   0.411   0.378  12.186 -0.6126 -0.8235 -0.5857
  962MOL0    Cl26896   0.236   0.407  12.158  0.0363  0.3504 -0.2122
  962MOL0     C26897   1.278   0.481  12.163 -1.1942  0.1520 -0.3877
  962MOL0     C26898   1.384   0.460  12.079  0.1314  0.2557  0.5757
  962MOL0     O26899   1.635   0.737  11.996 -0.3145  0.0249 -0.7442
  962MOL0     C26900   1.855   0.728  11.828 -0.8256 -0.5086  0.3692
  962MOL0     C26901   1.964   0.727  11.737 -0.0725  0.3778  0.5225
  962MOL0     N26902   2.532   0.965  11.205 -0.4053  1.0330  0.3490
  962MOL0     N26903   2.592   1.014  11.108 -0.8194 -0.0053  0.1303
  962MOL0     C26904   3.603   1.449  10.888  0.1125  0.5283  0.1558
  962MOL0     C26905   3.743   1.464  10.914  0.1881  1.1992  0.6067
  962MOL0     C26906   4.167   1.602  10.806  0.3272 -0.0364  0.3721
  962MOL0     C26907   4.224   1.725  10.832  0.1140  0.6088 -0.2259
  962MOL0     C26908   4.351   1.759  10.789 -0.2765 -0.4990  0.2008
  962MOL0     C26909   4.430   1.668  10.722  0.0864 -0.4616 -0.1818
  962MOL0     O26910   4.558   1.698  10.668 -0.2718  0.5293  0.7761
  962MOL0     C26911   4.620   1.830  10.666  0.5625  0.5728 -0.3150
  962MOL0     C26912   4.753   1.822  10.594 -0.0282  0.4228 -0.8902
  962MOL0     C26913   4.747   1.801  10.450 -0.2632 -0.4890 -0.0731
  962MOL0     C26914   4.853   1.869  10.370 -0.3114  0.6130 -0.0003
  962MOL0     C26915   4.980   1.806  10.394 -0.3114 -0.0602 -1.4441
  962MOL0     C26916   5.088   1.760  10.422 -0.0664  0.1722  0.1251
  962MOL0     C26917   4.381   1.538  10.690  0.1066  0.0135  0.4246
  962MOL0     C26918   4.246   1.508  10.729 -0.5999  0.7781 -0.1042
  962MOL0     H26919   3.872   1.401  10.612  0.5017 -0.8413  1.2834
  962MOL0     H26920   3.619   1.396  10.549 -0.7929  1.8686  0.2055
  962MOL0     H26921   3.462   1.225  10.617  1.7940  0.2517  1.1939
  962MOL0     H26922   3.324   1.332  10.567  3.4876  2.6951 -0.6028
  962MOL0     H26923   3.332   1.150  10.812  1.4473  0.2091 -0.5372
  962MOL0     H26924   3.287   1.099  10.654 -1.2128  1.1429 -0.2791
  962MOL0     H26925   3.114   1.283  10.650 -0.4575 -0.2482 -0.6575
  962MOL0     H26926   3.138   1.327  10.815 -5.9648 -1.7868  1.7871
  962MOL0     H26927   3.048   1.061  10.718  3.0004  0.0171 -1.2101
  962MOL0     H26928   3.103   1.098  10.880  2.3224  1.6215 -2.0508
  962MOL0     H26929   2.880   1.223  10.713 -2.9193  0.3357  0.9664
  962MOL0     H26930   2.926   1.310  10.854  0.0747  0.9628 -1.7684
  962MOL0     H26931   2.708   1.155  10.854 -0.1870 -1.3451  0.0001
  962MOL0     H26932   2.811   1.121  10.999 -0.6319 -2.5690  0.2737
  962MOL0     H26933   2.821   0.960  10.748  0.8851  1.4019  0.1523
  962MOL0     H26934   2.875   0.914  10.914 -0.5541 -0.8524 -1.1801
  962MOL0     H26935   2.657   0.818  10.828 -2.2549  0.6362  0.4520
  962MOL0     H26936   2.590   0.971  10.805 -2.9900 -2.0236  1.1034
  962MOL0     H26937   2.532   0.715  10.997  2.8359  1.3567 -1.1303
  962MOL0     H26938   2.510   0.658  11.298  2.4561  2.9602  0.5546
  962MOL0     H26939   2.387   0.655  11.179 -1.4028 -2.4012  1.9919
  962MOL0     H26940   2.264   0.834  11.314  2.3739  1.4362 -0.6194
  962MOL0     H26941   2.397   0.841  11.427  1.9715  1.7916 -2.6957
  962MOL0     H26942   2.220   0.585  11.376 -1.7665  1.6134 -0.0373
  962MOL0     H26943   2.359   0.613  11.488  0.5258  0.9574 -0.4169
  962MOL0     H26944   2.083   0.751  11.481 -0.5123  0.0065  0.2973
  962MOL0     H26945   2.204   0.756  11.610  1.2143 -1.1440  0.8656
  962MOL0     H26946   1.947   0.387  11.688 -2.9272 -0.6532 -0.7584
  962MOL0     H26947   1.769   0.404  11.830  0.2193 -0.7504 -0.4603
  962MOL0     H26948   1.617   0.615  12.256 -1.3501  2.9662  2.5791
  962MOL0     H26949   1.436   0.628  12.418 -3.6364  2.1591 -0.9381
  962MOL0     H26950   1.068   0.649  12.269 -0.2961  1.6918  0.4725
  962MOL0     H26951   1.074   0.673  12.445 -1.4378 -2.5714  2.7508
  962MOL0     H26952   0.876   0.543  12.402  0.2652  1.3435  0.4235
  962MOL0     H26953   0.993   0.444  12.497  0.0088  0.1978  0.2952
  962MOL0     H26954   1.041   0.309  12.309  0.2433  0.5410 -1.3530
  962MOL0     H26955   0.934   0.413  12.203  0.2775 -0.1487 -0.9512
  962MOL0     H26956   0.826   0.191  12.292 -0.2148 -1.7333  2.6433
  962MOL0     H26957   0.857   0.255  12.453 -1.1202 -1.2743 -0.1795
  962MOL0     H26958   0.685   0.427  12.256  2.8174  0.3120 -0.2619
  962MOL0     H26959   0.684   0.417  12.439  0.2692 -2.1518  2.3309
  962MOL0     H26960   0.590   0.230  12.454  0.0358  0.4312  0.3578
  962MOL0     H26961   0.603   0.178  12.287  1.9627  0.5929 -1.0474
  962MOL0     H26962   0.360   0.264  12.366 -1.8236  0.0935 -1.0262
  962MOL0     H26963   0.432   0.414  12.405 -4.8086 -0.7600  1.1132
  962MOL0     H26964   0.448   0.295  12.124 -0.2582 -0.6548 -0.6028
  962MOL0     H26965   0.459   0.473  12.161 -0.2451 -1.1921 -1.3211
  962MOL0     H26966   1.182   0.439  12.135 -1.0157  0.7358 -1.9639
  962MOL0     H26967   1.354   0.399  11.994 -0.2984 -0.4936  1.2394
  962MOL0     H26968   1.850   0.825  11.875  3.4680  2.2977 -3.9999
  962MOL0     H26969   2.036   0.807  11.719 -2.2671  2.1024 -1.1111
  962MOL0     H26970   3.531   1.468  10.967 -0.9282  3.4887 -1.3446
  962MOL0     H26971   3.774   1.479  11.017 -0.7663 -1.5739  1.4005
  962MOL0     H26972   4.156   1.793  10.882 -1.4360 -1.0427  0.0257
  962MOL0     H26973   4.399   1.856  10.800  0.1062 -0.5274 -1.1185
  962MOL0     H26974   4.647   1.842  10.772  1.9799 -0.3793 -0.5415
  962MOL0     H26975   4.557   1.910  10.627 -0.6596  0.1641  0.7517
  962MOL0     H26976   4.803   1.917  10.614  2.2954 -1.1641  1.5799
  962MOL0     H26977   4.814   1.745  10.644 -1.7883  0.6408  1.7805
  962MOL0     H26978   4.653   1.847  10.418  0.6094  0.2521 -1.6947
  962MOL0     H26979   4.749   1.693  10.432  0.8585 -0.8765  2.0063
  962MOL0     H26980   4.836   1.852  10.263  0.3035  2.7710 -0.4859
  962MOL0     H26981   4.855   1.976  10.390 -1.7762  1.1220 -2.1134
  962MOL0     H26982   5.179   1.709  10.446  1.2604  0.9420 -2.7840
  962MOL0     H26983   4.438   1.473  10.625  0.5698  0.9597 -0.1434
  962MOL0     H26984   4.196   1.415  10.705 -1.1105  0.4852  1.9825
  963MOL0     O26985   8.194   5.241   3.388  0.5713  0.1283 -0.2848
  963MOL0     C26986   8.254   5.285   3.293 -0.2725  0.5284 -0.3727
  963MOL0     O26987   8.234   5.260   3.169 -0.3081  0.0326  0.4222
  963MOL0     C26988   8.147   5.158   3.143 -0.3106  0.7453  0.6403
  963MOL0     C26989   8.183   5.021   3.131 -0.2477  1.3257  0.5084
  963MOL0     C26990   8.091   4.922   3.093  0.0041  0.2839 -0.7222
  963MOL0     C26991   7.959   4.954   3.061 -0.6612  0.2948 -0.6397
  963MOL0     O26992   7.857   4.864   3.023  0.5103 -0.6940  0.5022
  963MOL0     C26993   7.884   4.739   3.073 -1.4757 -0.5314  0.1296
  963MOL0     C26994   7.784   4.637   3.036 -0.6727 -0.2501 -0.6080
  963MOL0     C26995   7.652   4.662   3.121 -0.3770 -0.2607 -0.3281
  963MOL0     C26996   7.530   4.588   3.067  0.5511 -1.0080 -0.1462
  963MOL0     C26997   7.395   4.605   3.150 -0.6317 -0.3180  0.0923
  963MOL0     C26998   7.405   4.573   3.299  0.5794 -0.3499  0.5830
  963MOL0     C26999   7.267   4.553   3.376  0.1071 -0.1667  0.9943
  963MOL0     C27000   7.176   4.673   3.358  0.1877  0.5304 -0.0277
  963MOL0     N27001   7.049   4.661   3.432  0.6632  0.0323 -0.7634
  963MOL0     C27002   6.932   4.729   3.413  0.6000  0.0963 -0.0811
  963MOL0     C27003   6.838   4.667   3.496 -0.0313 -0.2519 -0.6773
  963MOL0     C27004   6.700   4.703   3.519 -0.0418 -0.4746  0.8080
  963MOL0     C27005   6.668   4.735   3.661 -0.1538 -0.3659  0.2272
  963MOL0     C27006   6.542   4.812   3.674  0.7265 -0.0966  0.4070
  963MOL0     C27007   6.512   4.823   3.828 -0.6137 -0.3919  0.1332
  963MOL0     O27008   6.382   4.874   3.849 -0.3613 -0.4521 -0.6092
  963MOL0     C27009   6.338   4.877   3.981  0.2545 -0.6862  0.8671
  963MOL0     C27010   6.207   4.932   3.982 -0.3298 -0.6189 -0.5920
  963MOL0     C27011   6.132   4.943   4.101 -0.1742 -0.0398 -0.2433
  963MOL0     C27012   6.190   4.898   4.215  0.0226  1.1407 -0.3180
  963MOL0     C27013   6.123   4.900   4.344  0.2794  0.0634  0.3586
  963MOL0     O27014   6.000   4.971   4.353 -0.2790 -0.5407 -0.5560
  963MOL0     C27015   5.958   5.012   4.473 -0.0776  0.8437  0.1433
  963MOL0     C27016   6.040   5.089   4.555 -0.1111 -0.1666  0.2659
  963MOL0     C27017   5.988   5.149   4.669 -0.5228  0.2374  0.0194
  963MOL0     C27018   5.857   5.131   4.709  0.8627 -0.0149  0.7888
  963MOL0     O27019   5.800   5.197   4.818 -0.2206  0.3512  0.0829
  963MOL0     C27020   5.858   5.318   4.875  0.6698  0.3269  0.1410
  963MOL0     C27021   5.747   5.378   4.971  0.3839 -0.3909  0.3361
  963MOL0     C27022   5.617   5.421   4.913  1.2094 -0.2696  0.6363
  963MOL0     C27023   5.552   5.517   5.006  0.0458 -0.8957  0.5083
  963MOL0     C27024   5.431   5.588   4.930  0.0783 -0.6829 -0.3654
  963MOL0     C27025   5.365   5.682   5.036  0.2169  0.3853  0.1606
  963MOL0     C27026   5.224   5.718   4.997  0.6284 -0.2674  0.4652
  963MOL0     C27027   5.182   5.827   5.097  0.0516 -0.1690 -0.6048
  963MOL0    Cl27028   5.018   5.881   5.090  0.0203 -0.2199  0.0198
  963MOL0     C27029   5.778   5.040   4.629 -0.2903 -0.3557 -0.4098
  963MOL0     C27030   5.830   4.982   4.514 -0.4941 -0.6023  0.2285
  963MOL0     O27031   6.185   4.851   4.438  0.0098 -0.1160  0.0844
  963MOL0     C27032   6.324   4.841   4.216 -0.9523 -0.7743 -0.0510
  963MOL0     C27033   6.393   4.828   4.097 -0.4380 -0.7044  0.6346
  963MOL0     N27034   6.909   4.569   3.563 -0.6788  0.4885 -0.7617
  963MOL0     N27035   7.029   4.567   3.526  1.0486  0.4676 -0.0701
  963MOL0     C27036   7.928   5.093   3.061  0.4513 -0.4395 -0.0246
  963MOL0     C27037   8.015   5.189   3.095 -0.8040 -0.0476 -0.5738
  963MOL0     C27038   8.374   5.363   3.331 -0.0837 -0.2048  0.2469
  963MOL0     C27039   8.491   5.367   3.253  0.1765 -0.3550  0.5896
  963MOL0     C27040   8.609   5.433   3.302 -0.5727 -0.4179  0.7344
  963MOL0     C27041   8.610   5.482   3.432  0.2044 -0.1946  0.6072
  963MOL0     O27042   8.720   5.530   3.495 -0.5118 -0.4226  0.3660
  963MOL0     C27043   8.849   5.529   3.428 -0.2546 -0.5796  0.3828
  963MOL0     C27044   8.911   5.391   3.428 -0.2317  0.8852  0.1817
  963MOL0     C27045   9.011   5.369   3.309  0.1143  0.9563 -0.0075
  963MOL0     C27046   9.148   5.423   3.321 -0.5079 -0.5400  0.2341
  963MOL0     C27047   9.156   5.574   3.299 -0.0489  1.5131 -0.3875
  963MOL0     C27048   9.158   5.692   3.275 -0.2338  0.2674 -0.4222
  963MOL0     C27049   8.488   5.486   3.506 -0.4397  0.1372  1.0241
  963MOL0     C27050   8.373   5.432   3.450  0.5931 -0.9898  0.2534
  963MOL0     H27051   8.283   4.992   3.163 -0.3864 -0.2354 -0.3593
  963MOL0     H27052   8.138   4.825   3.083  0.8472  0.4638  1.1794
  963MOL0     H27053   7.887   4.735   3.182  0.4120 -0.2665  0.1314
  963MOL0     H27054   7.984   4.704   3.045 -1.4221 -0.6080  0.4196
  963MOL0     H27055   7.821   4.539   3.070 -1.6837  0.7412  4.0133
  963MOL0     H27056   7.770   4.638   2.927  2.2700 -0.0903 -1.0730
  963MOL0     H27057   7.633   4.768   3.101  0.0757  0.0005  0.5944
  963MOL0     H27058   7.663   4.637   3.227 -0.7608 -3.6130 -0.9472
  963MOL0     H27059   7.505   4.637   2.972 -2.4256  3.9873  2.8338
  963MOL0     H27060   7.548   4.480   3.063 -1.0719 -1.5845  3.8227
  963MOL0     H27061   7.320   4.542   3.102 -0.9424  0.3345 -0.2848
  963MOL0     H27062   7.358   4.708   3.145 -1.6969 -0.6816  0.1433
  963MOL0     H27063   7.468   4.652   3.340  1.5976 -0.8235 -0.0250
  963MOL0     H27064   7.447   4.472   3.308 -0.1679 -0.7393 -0.1344
  963MOL0     H27065   7.217   4.462   3.343 -0.7778  0.9152 -0.8016
  963MOL0     H27066   7.294   4.534   3.481  1.0056 -2.1818  0.4320
  963MOL0     H27067   7.151   4.681   3.252 -0.5515  0.7519  0.1539
  963MOL0     H27068   7.223   4.767   3.390 -1.4253  0.5441  2.6722
  963MOL0     H27069   6.920   4.809   3.341  0.9673 -1.0247 -1.4289
  963MOL0     H27070   6.636   4.624   3.480 -0.7331 -0.1497  1.2622
  963MOL0     H27071   6.682   4.791   3.456 -0.2168 -0.9752  0.1526
  963MOL0     H27072   6.752   4.792   3.700 -1.0041  1.7964 -0.9013
  963MOL0     H27073   6.664   4.637   3.710  0.0067 -2.4236 -3.4428
  963MOL0     H27074   6.551   4.914   3.636 -3.2872 -0.3137 -1.6670
  963MOL0     H27075   6.453   4.779   3.621 -0.0187  2.0596  0.2089
  963MOL0     H27076   6.585   4.882   3.886 -1.3546 -1.4052  2.2035
  963MOL0     H27077   6.514   4.720   3.863  3.4283 -0.0267  1.5566
  963MOL0     H27078   6.178   4.993   3.897  0.4838 -1.4470 -1.4847
  963MOL0     H27079   6.033   4.987   4.104 -1.5864 -3.0192  2.1751
  963MOL0     H27080   6.139   5.110   4.515 -1.3098  0.5144 -2.6389
  963MOL0     H27081   6.043   5.227   4.719  0.2212  0.0881 -0.5464
  963MOL0     H27082   5.876   5.394   4.798  1.0865  0.2627  0.1763
  963MOL0     H27083   5.956   5.296   4.918  0.4001 -1.0960  0.0777
  963MOL0     H27084   5.797   5.472   4.996 -2.4550  1.5957 -0.9102
  963MOL0     H27085   5.725   5.317   5.059 -2.9400 -2.1566 -1.5214
  963MOL0     H27086   5.559   5.330   4.899  1.2524 -0.7411  2.9899
  963MOL0     H27087   5.627   5.470   4.816 -2.1133 -3.0579 -1.3388
  963MOL0     H27088   5.508   5.467   5.093  0.8283 -2.0042  0.2877
  963MOL0     H27089   5.624   5.593   5.038  3.2686 -2.5966 -2.0896
  963MOL0     H27090   5.360   5.508   4.906 -1.2244 -0.1176  1.3792
  963MOL0     H27091   5.466   5.641   4.841 -1.3972  0.9715 -0.0237
  963MOL0     H27092   5.432   5.768   5.048 -0.6150  1.2862 -1.2960
  963MOL0     H27093   5.364   5.627   5.131 -2.5328  2.2461  1.3482
  963MOL0     H27094   5.231   5.764   4.898 -1.1035 -0.0944  0.3970
  963MOL0     H27095   5.154   5.634   5.000  0.0546  0.1231 -1.0719
  963MOL0     H27096   5.243   5.918   5.095 -0.7332  0.3654 -0.5738
  963MOL0     H27097   5.187   5.784   5.197 -3.3268  1.7630  0.5568
  963MOL0     H27098   5.676   5.031   4.666 -1.2783  2.7407 -2.0085
  963MOL0     H27099   5.771   4.912   4.456 -0.9110 -0.6937  0.7540
  963MOL0     H27100   6.372   4.806   4.306 -0.6907 -0.0189  0.1124
  963MOL0     H27101   6.491   4.785   4.111 -0.0270  0.2387  0.7581
  963MOL0     H27102   7.829   5.126   3.033  1.6223  2.1388 -1.5488
  963MOL0     H27103   7.988   5.294   3.095  1.4579  0.6405 -2.5945
  963MOL0     H27104   8.489   5.306   3.164 -2.0442  1.0923 -0.4439
  963MOL0     H27105   8.686   5.437   3.225  0.4035  0.2172  1.7353
  963MOL0     H27106   8.916   5.603   3.471 -0.0555 -1.2980  1.3524
  963MOL0     H27107   8.840   5.566   3.325  2.3125  0.6255  0.5321
  963MOL0     H27108   8.970   5.383   3.520  0.4158 -0.3476 -0.3138
  963MOL0     H27109   8.831   5.315   3.425 -0.8140  1.5008 -2.8368
  963MOL0     H27110   8.968   5.399   3.213 -1.2204  0.5715  0.4365
  963MOL0     H27111   9.028   5.261   3.301  1.7802  1.3300 -3.5799
  963MOL0     H27112   9.184   5.405   3.423 -1.6814  0.4966  0.8623
  963MOL0     H27113   9.197   5.374   3.236 -2.8782 -0.2407 -1.3983
  963MOL0     H27114   9.180   5.793   3.247 -0.4823 -0.0966 -1.9740
  963MOL0     H27115   8.488   5.529   3.606  1.2759 -2.2055  2.1480
  963MOL0     H27116   8.281   5.439   3.507  0.0334  1.6309 -0.8609
  964MOL0     O27117   3.950  10.142   8.575  0.6426 -0.2295 -0.3060
  964MOL0     C27118   3.966  10.023   8.551 -0.4333  0.9134  0.1815
  964MOL0     O27119   3.874   9.927   8.575  0.0557  0.3538  0.7488
  964MOL0     C27120   3.741   9.951   8.587 -0.1028 -0.6518 -0.3408
  964MOL0     C27121   3.665  10.032   8.492  0.2933 -0.1139  0.3149
  964MOL0     C27122   3.529  10.045   8.511 -0.5771 -0.0698 -0.3534
  964MOL0     C27123   3.462   9.981   8.612  0.1379  1.0358 -0.0700
  964MOL0     O27124   3.329  10.014   8.619 -0.0849 -0.7397 -0.5149
  964MOL0     C27125   3.251   9.947   8.714  0.4921  0.6878  0.1211
  964MOL0     C27126   3.108   9.972   8.670  0.3507 -0.1257  0.0350
  964MOL0     C27127   3.017   9.914   8.782 -1.0012  0.3671 -0.5587
  964MOL0     C27128   2.877   9.938   8.751  0.5979  0.0732 -0.3608
  964MOL0     C27129   2.791   9.930   8.867  0.2198  0.4602 -0.9747
  964MOL0     C27130   2.769   9.777   8.892 -0.4299 -0.1065 -0.1670
  964MOL0     C27131   2.702   9.749   9.028  0.5289 -0.4036  0.2512
  964MOL0     C27132   2.565   9.685   9.017 -0.2746  0.7237  1.0491
  964MOL0     N27133   2.473   9.790   8.964  0.0430  0.1137 -0.5664
  964MOL0     C27134   2.463   9.819   8.826 -1.0750 -0.4745 -0.1191
  964MOL0     C27135   2.372   9.922   8.829  0.2172 -0.5328  0.1700
  964MOL0     C27136   2.323  10.007   8.719 -0.0854 -0.0047  0.4886
  964MOL0     C27137   2.412  10.133   8.703 -0.0194 -0.1909  0.8721
  964MOL0     C27138   2.432  10.229   8.818  0.6574  0.1178 -0.3503
  964MOL0     C27139   2.550  10.323   8.787  0.6291  0.7707 -0.4324
  964MOL0     O27140   2.666  10.247   8.816  0.7212 -0.1686  0.4857
  964MOL0     C27141   2.784  10.306   8.785 -0.7119  0.2707  0.0623
  964MOL0     C27142   2.885  10.274   8.868 -0.9391  1.5235 -1.2232
  964MOL0     C27143   3.018  10.321   8.855  0.3317  0.1603  0.1774
  964MOL0     C27144   3.051  10.391   8.742 -1.1317  0.5045 -0.5501
  964MOL0     C27145   3.191  10.434   8.722  0.2309  0.9863 -0.2678
  964MOL0     O27146   3.221  10.475   8.598 -0.6235 -0.5471  0.0214
  964MOL0     C27147   3.356  10.499   8.581 -0.4990  0.3191 -0.4515
  964MOL0     C27148   3.438  10.392   8.555 -0.0101  0.6121  0.0492
  964MOL0     C27149   3.575  10.403   8.518  0.0268 -0.7843  0.3331
  964MOL0     C27150   3.626  10.536   8.510 -0.1819  0.8802  0.1007
  964MOL0     O27151   3.760  10.567   8.493  0.0875 -0.1724 -0.4133
  964MOL0     C27152   3.830  10.482   8.408 -0.1359 -0.0743  0.3588
  964MOL0     C27153   3.972  10.531   8.404  1.0930 -0.7614  0.2210
  964MOL0     C27154   4.062  10.425   8.350  0.4796  0.6520  0.6446
  964MOL0     C27155   4.208  10.457   8.396 -0.3450 -0.3607 -0.4427
  964MOL0     C27156   4.305  10.393   8.297 -0.2445  0.2283 -0.3842
  964MOL0     C27157   4.450  10.422   8.329  0.1161 -0.6630 -0.3593
  964MOL0     C27158   4.550  10.373   8.221  0.1080  0.0529  0.1091
  964MOL0     C27159   4.676  10.332   8.293 -0.1753 -0.2938  0.5950
  964MOL0    Cl27160   4.816  10.285   8.192  0.2642 -0.5711 -0.0267
  964MOL0     C27161   3.541  10.644   8.525 -0.2250 -0.0044 -0.7792
  964MOL0     C27162   3.412  10.620   8.557 -1.0538 -0.0599 -0.5279
  964MOL0     O27163   3.264  10.429   8.827  0.4978 -0.0556 -0.1822
  964MOL0     C27164   2.951  10.419   8.652  0.7767 -0.8266 -0.0481
  964MOL0     C27165   2.815  10.384   8.671  0.2962  1.0481  0.3428
  964MOL0     N27166   2.308   9.934   8.956 -0.1510 -0.0315  0.5336
  964MOL0     N27167   2.374   9.853   9.035 -0.3004  0.0431 -0.3161
  964MOL0     C27168   3.530   9.894   8.702 -0.4603  1.0781 -0.6025
  964MOL0     C27169   3.671   9.881   8.688 -0.0085  0.4600 -0.5396
  964MOL0     C27170   4.094   9.983   8.493 -0.6533  0.0325 -0.5836
  964MOL0     C27171   4.188  10.080   8.455 -0.1293 -0.0724 -0.6631
  964MOL0     C27172   4.321  10.050   8.414  0.0383 -0.0958  0.2326
  964MOL0     C27173   4.352   9.919   8.402  0.1799  0.1271  0.7011
  964MOL0     O27174   4.476   9.889   8.352 -0.3375  0.2474 -0.6282
  964MOL0     C27175   4.521   9.754   8.358 -0.3575 -1.1407  0.0143
  964MOL0     C27176   4.667   9.763   8.299  0.7041 -0.0067  0.2062
  964MOL0     C27177   4.738   9.634   8.280 -0.0097 -0.1869  0.1032
  964MOL0     C27178   4.647   9.511   8.231 -1.1039 -0.0579  0.6757
  964MOL0     C27179   4.730   9.389   8.246 -0.1983 -0.3796 -0.4500
  964MOL0     C27180   4.781   9.284   8.249 -0.3904  1.1943  0.0806
  964MOL0     C27181   4.256   9.820   8.446 -0.6032 -0.0474 -0.5254
  964MOL0     C27182   4.131   9.847   8.486  0.3108 -0.5126  0.3523
  964MOL0     H27183   3.709  10.069   8.400 -2.1237 -0.4865 -1.0808
  964MOL0     H27184   3.469  10.114   8.452 -2.1366  0.6142  1.9049
  964MOL0     H27185   3.269   9.984   8.815  0.2947  0.5741  0.1985
  964MOL0     H27186   3.262   9.839   8.710  0.6406  0.6897  0.4949
  964MOL0     H27187   3.091   9.927   8.572 -0.1470 -2.2481  1.0425
  964MOL0     H27188   3.088  10.079   8.659  0.4636 -0.3194 -2.8339
  964MOL0     H27189   3.050   9.968   8.870 -2.2397  0.1874  0.0394
  964MOL0     H27190   3.048   9.809   8.788 -1.6961  0.2582  2.7817
  964MOL0     H27191   2.867  10.036   8.703  0.5357 -0.3704 -1.2708
  964MOL0     H27192   2.849   9.863   8.676 -0.2084 -0.4246  0.4244
  964MOL0     H27193   2.694   9.972   8.838 -0.5644 -1.7354 -1.7362
  964MOL0     H27194   2.829   9.985   8.954  1.0710  0.4374 -1.3248
  964MOL0     H27195   2.869   9.733   8.884  1.9327  4.8042 -1.8185
  964MOL0     H27196   2.715   9.734   8.807  1.3668  0.5086 -1.6982
  964MOL0     H27197   2.764   9.679   9.084  1.5483  0.6676  0.4951
  964MOL0     H27198   2.696   9.837   9.093 -3.9994  0.8550 -1.4688
  964MOL0     H27199   2.534   9.641   9.112  0.1173  0.3857  1.0239
  964MOL0     H27200   2.569   9.603   8.944 -0.0698 -0.1866  2.0554
  964MOL0     H27201   2.524   9.779   8.746  0.6387  2.5143 -0.4648
  964MOL0     H27202   2.216  10.029   8.726 -0.4366 -0.2896 -2.4493
  964MOL0     H27203   2.329   9.946   8.629  0.6921 -1.8621  1.7534
  964MOL0     H27204   2.376  10.198   8.622 -0.2175 -1.1569  0.1608
  964MOL0     H27205   2.507  10.095   8.663  0.4327  0.8126  0.9675
  964MOL0     H27206   2.341  10.289   8.829  1.9076  2.1117 -0.4277
  964MOL0     H27207   2.460  10.173   8.908 -0.3051 -0.8709 -0.6377
  964MOL0     H27208   2.542  10.413   8.849 -0.5969  2.0654 -2.3385
  964MOL0     H27209   2.542  10.355   8.683  0.3366 -0.3057 -0.7559
  964MOL0     H27210   2.855  10.210   8.951 -1.8931  1.8016 -1.3460
  964MOL0     H27211   3.089  10.284   8.928 -2.0778 -1.2506  1.9993
  964MOL0     H27212   3.393  10.296   8.577  0.4981  0.3854  0.1211
  964MOL0     H27213   3.629  10.313   8.490 -1.9450 -1.7034 -0.7003
  964MOL0     H27214   3.792  10.468   8.306 -2.0780 -0.0359  1.0525
  964MOL0     H27215   3.825  10.383   8.455 -1.8441  0.3536  1.1553
  964MOL0     H27216   4.010  10.551   8.505 -1.2520 -2.3586  1.4931
  964MOL0     H27217   3.979  10.620   8.340 -0.1432 -1.1711 -0.5058
  964MOL0     H27218   4.050  10.412   8.242  2.5540 -3.9432  0.7368
  964MOL0     H27219   4.036  10.329   8.394  1.0720  0.3068  0.2453
  964MOL0     H27220   4.229  10.565   8.393 -0.1445 -0.1624  3.0675
  964MOL0     H27221   4.219  10.428   8.501  1.2962  1.4802 -0.0287
  964MOL0     H27222   4.286  10.435   8.198  0.9040 -0.7174 -1.0393
  964MOL0     H27223   4.277  10.287   8.292 -3.1732  0.8120  1.3239
  964MOL0     H27224   4.458  10.362   8.420 -2.6915 -1.1728 -0.3471
  964MOL0     H27225   4.465  10.528   8.348 -0.1674 -0.4353 -1.3358
  964MOL0     H27226   4.517  10.280   8.174 -0.7813  0.2693  0.2934
  964MOL0     H27227   4.577  10.451   8.149  2.3043 -2.0762 -1.5535
  964MOL0     H27228   4.653  10.251   8.363  1.4728 -0.8772  0.5053
  964MOL0     H27229   4.706  10.423   8.344  0.3559 -0.3268  0.3516
  964MOL0     H27230   3.579  10.745   8.514 -1.5614  0.4712 -1.2483
  964MOL0     H27231   3.359  10.712   8.580  0.0445  0.1381  1.4162
  964MOL0     H27232   2.971  10.472   8.559  0.6067 -0.9307 -0.1437
  964MOL0     H27233   2.736  10.408   8.601  0.7463 -0.2902 -0.6610
  964MOL0     H27234   3.489   9.839   8.786 -2.3625 -0.2087 -2.2802
  964MOL0     H27235   3.723   9.829   8.768  0.4908  2.8143  0.7616
  964MOL0     H27236   4.162  10.185   8.461 -1.3093 -0.4015  0.6391
  964MOL0     H27237   4.387  10.133   8.389 -0.5981 -0.0371 -1.3509
  964MOL0     H27238   4.466   9.682   8.297  1.9477 -1.5052 -1.7425
  964MOL0     H27239   4.533   9.730   8.464  1.7824 -1.5258 -0.2693
  964MOL0     H27240   4.662   9.815   8.204 -1.8919 -0.4840  0.0051
  964MOL0     H27241   4.734   9.822   8.363  1.7089 -0.6079 -0.2689
  964MOL0     H27242   4.796   9.615   8.370  2.4112 -0.6742 -1.4579
  964MOL0     H27243   4.815   9.641   8.202  0.4652 -0.2259  0.5685
  964MOL0     H27244   4.566   9.496   8.303  0.0481 -2.9113  1.5382
  964MOL0     H27245   4.607   9.529   8.131  0.2803  1.2455  0.3196
  964MOL0     H27246   4.803   9.179   8.258  0.6505  1.5443  1.9322
  964MOL0     H27247   4.285   9.715   8.440  1.7516  0.1878  3.5211
  964MOL0     H27248   4.061   9.766   8.505 -0.5160  1.0377  5.9806
  965MOL0     O27249   0.401  10.007   0.902  0.4484  0.1586 -1.0114
  965MOL0     C27250   0.437  10.100   0.978  0.0934 -0.5453 -0.6655
  965MOL0     O27251   0.350  10.196   1.034  1.0070 -0.7294 -0.3618
  965MOL0     C27252   0.218  10.170   1.065  0.5604 -0.2160  0.3286
  965MOL0     C27253   0.141  10.278   1.091  0.2457 -0.1975  0.2422
  965MOL0     C27254   0.004  10.267   1.128  0.2104  0.4944 -0.2468
  965MOL0     C27255  -0.052  10.137   1.146 -0.1413 -0.0856  1.1079
  965MOL0     O27256  -0.175  10.111   1.199  1.0672  0.5560  0.3969
  965MOL0     C27257  -0.266  10.212   1.228 -0.3380  0.6277 -0.0044
  965MOL0     C27258  -0.400  10.148   1.281  0.0399 -0.2952  0.0358
  965MOL0     C27259  -0.518  10.180   1.194  0.1059  0.2140 -1.2736
  965MOL0     C27260  -0.650  10.168   1.263  0.6110 -0.6241 -0.5313
  965MOL0     C27261  -0.774  10.157   1.173 -0.2643 -0.4767 -0.0501
  965MOL0     C27262  -0.911  10.178   1.253 -0.2930 -1.1310  0.1853
  965MOL0     C27263  -1.029  10.211   1.157  0.2881 -0.4064  0.4289
  965MOL0     C27264  -1.033  10.352   1.085 -0.0827  0.4619  0.3331
  965MOL0     N27265  -1.094  10.349   0.949 -1.2902 -0.2751  0.0547
  965MOL0     C27266  -1.225  10.350   0.920 -0.2246 -0.0362 -0.2384
  965MOL0     C27267  -1.230  10.314   0.788  0.9432 -0.1540 -0.9405
  965MOL0     C27268  -1.360  10.305   0.704 -0.2456  0.0055  0.1481
  965MOL0     C27269  -1.386  10.440   0.615 -0.7311 -0.2797  0.4308
  965MOL0     C27270  -1.497  10.424   0.509  0.8171 -0.7067  0.1372
  965MOL0     C27271  -1.482  10.299   0.425  0.1182 -0.7732  0.5107
  965MOL0     O27272  -1.541  10.304   0.295  0.6045 -0.1909 -0.4117
  965MOL0     C27273  -1.677  10.320   0.283 -0.1525 -0.1044 -0.8076
  965MOL0     C27274  -1.768  10.312   0.396 -0.7590  0.0594  0.5119
  965MOL0     C27275  -1.902  10.313   0.360 -0.5115  0.8055 -0.0677
  965MOL0     C27276  -1.949  10.324   0.233  0.0152 -0.0083  0.2258
  965MOL0     C27277  -2.097  10.330   0.203 -0.1187 -0.2328 -0.3104
  965MOL0     O27278  -2.186  10.300   0.306  0.2420 -0.6678 -0.3407
  965MOL0     C27279  -2.324  10.308   0.282  0.4877  1.3214 -0.0174
  965MOL0     C27280  -2.401  10.239   0.380  0.4964  0.1575 -0.3748
  965MOL0     C27281  -2.543  10.251   0.381 -0.1533  0.4110  0.1601
  965MOL0     C27282  -2.608  10.339   0.296 -0.9822 -0.2017  0.6687
  965MOL0     O27283  -2.745  10.333   0.291  0.4959 -0.3213 -0.1706
  965MOL0     C27284  -2.809  10.407   0.186  0.1080  0.2663  0.0499
  965MOL0     C27285  -2.968  10.398   0.209 -0.3535  0.4895  0.6035
  965MOL0     C27286  -3.036  10.456   0.082 -0.2005  1.1399  0.2291
  965MOL0     C27287  -3.002  10.603   0.071  0.2617  0.1218  1.1508
  965MOL0     C27288  -3.097  10.671  -0.037  0.3498 -0.4291 -0.7894
  965MOL0     C27289  -3.242  10.686   0.019 -0.0767  0.1324  0.0622
  965MOL0     C27290  -3.327  10.751  -0.084 -1.2174 -0.0402  0.0554
  965MOL0     C27291  -3.475  10.738  -0.045 -0.6344  0.2037  0.5321
  965MOL0    Cl27292  -3.571  10.814  -0.173  0.3668  0.0533  0.2000
  965MOL0     C27293  -2.524  10.416   0.208  0.1699 -0.0098 -1.5777
  965MOL0     C27294  -2.385  10.402   0.204  0.5828 -0.3220  0.4804
  965MOL0     O27295  -2.132  10.349   0.085 -0.2135 -0.0600  0.0281
  965MOL0     C27296  -1.856  10.331   0.128  0.4069 -0.1811 -0.1556
  965MOL0     C27297  -1.722  10.326   0.154 -0.7216  0.5246  0.9368
  965MOL0     N27298  -1.103  10.304   0.736  0.3329 -0.2231  0.0447
  965MOL0     N27299  -1.022  10.319   0.836  0.0586  0.0483 -0.0395
  965MOL0     C27300   0.028  10.024   1.122 -0.1700 -0.9944 -0.0654
  965MOL0     C27301   0.164  10.039   1.082  0.5682 -0.2604 -0.9110
  965MOL0     C27302   0.578  10.107   0.997 -1.0922  0.5443 -0.0590
  965MOL0     C27303   0.649  10.220   1.039 -1.2206  0.3167  0.8671
  965MOL0     C27304   0.792  10.225   1.036  1.3020  0.5060 -0.1268
  965MOL0     C27305   0.863  10.114   0.995 -0.4621 -0.4110  0.1019
  965MOL0     O27306   1.000  10.114   1.015 -0.5900  0.2105 -0.1270
  965MOL0     C27307   1.082  10.075   0.907  0.5553 -0.1625 -0.4701
  965MOL0     C27308   1.226  10.040   0.971  0.3896  0.1979  0.3649
  965MOL0     C27309   1.332   9.996   0.870  0.7386 -0.4781 -0.9477
  965MOL0     C27310   1.366  10.103   0.771 -0.2517 -0.2334 -0.1079
  965MOL0     C27311   1.486  10.059   0.696 -0.3096 -0.2704 -0.4874
  965MOL0     C27312   1.588  10.014   0.641  0.3439 -0.0833 -0.3744
  965MOL0     C27313   0.795  10.003   0.955 -1.0860  0.0604 -0.7112
  965MOL0     C27314   0.658   9.995   0.961  0.0165  0.9373 -0.4646
  965MOL0     H27315   0.190  10.375   1.094 -0.1587  0.0670  4.7719
  965MOL0     H27316  -0.060  10.355   1.132 -0.3190  0.1433 -0.8139
  965MOL0     H27317  -0.287  10.268   1.137 -0.0313  1.9121  0.6915
  965MOL0     H27318  -0.229  10.282   1.305  1.6795 -0.6993  0.3233
  965MOL0     H27319  -0.428  10.182   1.381  0.3139 -0.7229  0.2624
  965MOL0     H27320  -0.391  10.040   1.296  2.3507  0.1350  2.3928
  965MOL0     H27321  -0.511  10.105   1.115 -1.5693 -0.3003 -0.9660
  965MOL0     H27322  -0.498  10.283   1.163  0.9894  0.4158 -0.1087
  965MOL0     H27323  -0.652  10.086   1.335  2.7381 -1.6006 -1.5254
  965MOL0     H27324  -0.668  10.256   1.326 -1.9153 -2.2289  1.1845
  965MOL0     H27325  -0.769  10.055   1.134  1.2154 -1.2063  1.8700
  965MOL0     H27326  -0.769  10.233   1.095 -2.2829  0.9069  1.0917
  965MOL0     H27327  -0.907  10.263   1.323 -1.9754 -0.2679 -0.6970
  965MOL0     H27328  -0.935  10.084   1.303 -3.0236 -0.2892  0.6257
  965MOL0     H27329  -1.020  10.132   1.081  0.6186 -1.3394  1.4105
  965MOL0     H27330  -1.125  10.203   1.210 -1.1133 -0.8176 -2.0043
  965MOL0     H27331  -0.932  10.394   1.077 -0.0875  0.4757  0.3517
  965MOL0     H27332  -1.095  10.418   1.145  0.9087  1.0118  0.7827
  965MOL0     H27333  -1.307  10.375   0.987 -1.1458 -1.2099 -0.8700
  965MOL0     H27334  -1.442  10.277   0.769  0.6123 -2.4830  0.2635
  965MOL0     H27335  -1.344  10.213   0.646  0.1176  0.0005  0.2506
  965MOL0     H27336  -1.298  10.480   0.564 -0.3539  0.8583  1.8984
  965MOL0     H27337  -1.420  10.523   0.678 -1.8338  1.8114 -2.7180
  965MOL0     H27338  -1.587  10.410   0.569 -1.8049  2.4147 -2.6715
  965MOL0     H27339  -1.503  10.516   0.451  3.4467  0.6611  1.8106
  965MOL0     H27340  -1.528  10.221   0.486  1.6237 -0.8880  1.5328
  965MOL0     H27341  -1.378  10.266   0.420  0.0523 -0.7845 -1.5481
  965MOL0     H27342  -1.741  10.294   0.499  1.5738 -0.2558 -0.0876
  965MOL0     H27343  -1.968  10.304   0.446 -0.0176 -2.2428  0.0988
  965MOL0     H27344  -2.361  10.171   0.454  0.5027  0.2117 -0.3278
  965MOL0     H27345  -2.596  10.187   0.451  1.7948  0.4561  1.7506
  965MOL0     H27346  -2.782  10.381   0.084 -3.3523 -0.1417 -0.8650
  965MOL0     H27347  -2.784  10.514   0.190 -0.0732  0.2929  2.7880
  965MOL0     H27348  -3.000  10.461   0.293  0.3578  2.0473 -0.2522
  965MOL0     H27349  -3.006  10.297   0.224  1.6333 -0.2924  0.7536
  965MOL0     H27350  -3.142  10.430   0.076  0.1827 -0.7961  1.1651
  965MOL0     H27351  -2.987  10.410  -0.005 -0.9414  1.7776 -0.5424
  965MOL0     H27352  -3.008  10.648   0.170 -1.2103 -3.5715  2.8983
  965MOL0     H27353  -2.900  10.617   0.034 -0.0569  0.8756  0.5260
  965MOL0     H27354  -3.098  10.624  -0.136 -4.8548 -0.5425 -0.9336
  965MOL0     H27355  -3.049  10.769  -0.048 -0.5299  0.4827  2.6067
  965MOL0     H27356  -3.239  10.742   0.113 -0.8457  0.2561  0.0193
  965MOL0     H27357  -3.287  10.590   0.047  2.3974 -1.1939 -0.2348
  965MOL0     H27358  -3.298  10.856  -0.081  2.6277 -0.9586  2.1764
  965MOL0     H27359  -3.316  10.701  -0.181 -0.4984  1.1793 -0.5067
  965MOL0     H27360  -3.500  10.786   0.051  0.3275  1.7888  0.0397
  965MOL0     H27361  -3.499  10.632  -0.036  1.0234 -0.2252  0.3205
  965MOL0     H27362  -2.570  10.492   0.146 -0.1834  2.3612  1.3547
  965MOL0     H27363  -2.332  10.476   0.145 -0.2161  0.6868  1.0109
  965MOL0     H27364  -1.891  10.337   0.025  0.7080 -2.0971 -0.4115
  965MOL0     H27365  -1.638  10.328   0.086  1.8327  0.0947  3.8700
  965MOL0     H27366  -0.017   9.926   1.139  0.7057 -1.5134 -0.6570
  965MOL0     H27367   0.213   9.943   1.065  2.4648 -0.0475  2.4555
  965MOL0     H27368   0.592  10.312   1.045 -1.5616  0.4019 -2.1779
  965MOL0     H27369   0.843  10.316   1.066  1.5184 -0.2321  1.8628
  965MOL0     H27370   1.110  10.160   0.844  1.6103  0.8348  1.2620
  965MOL0     H27371   1.046  10.003   0.833 -1.8926  0.0646  0.4380
  965MOL0     H27372   1.254  10.133   1.022 -2.0919  1.9895 -1.2522
  965MOL0     H27373   1.220   9.960   1.045 -0.1006  1.8201  2.1778
  965MOL0     H27374   1.310   9.908   0.810 -1.1475  0.9784 -2.5248
  965MOL0     H27375   1.423   9.979   0.929  1.6952 -0.1033 -2.2745
  965MOL0     H27376   1.282  10.119   0.703 -2.0678 -1.0219  1.8496
  965MOL0     H27377   1.392  10.197   0.821 -0.7139 -0.3081  0.2767
  965MOL0     H27378   1.678   9.993   0.587 -0.1800 -2.3211 -0.4834
  965MOL0     H27379   0.853   9.927   0.903 -0.0626  1.6307 -1.9659
  965MOL0     H27380   0.608   9.908   0.919 -0.7220  2.2640 -2.4485
  966MOL0     O27381   4.793  10.695   8.309 -0.0450  0.8872  0.3757
  966MOL0     C27382   4.766  10.821   8.308 -0.2182 -0.2076  0.2294
  966MOL0     O27383   4.645  10.870   8.288 -0.2285 -0.2319  0.3645
  966MOL0     C27384   4.553  10.807   8.216  0.1472  1.5270 -0.3149
  966MOL0     C27385   4.570  10.720   8.110 -0.2420  0.4261 -0.0867
  966MOL0     C27386   4.463  10.660   8.045 -0.0765 -0.0308 -0.6087
  966MOL0     C27387   4.332  10.697   8.083  0.0836  0.2922  0.4178
  966MOL0     O27388   4.228  10.644   8.009 -0.8925 -0.0800 -0.0968
  966MOL0     C27389   4.091  10.672   8.029 -0.1583 -0.0809 -0.1146
  966MOL0     C27390   3.991  10.576   7.966 -0.1110 -0.6353 -0.8696
  966MOL0     C27391   4.001  10.580   7.815  0.2833  0.3176  0.0837
  966MOL0     C27392   3.907  10.461   7.760  0.0495  0.7871  1.1487
  966MOL0     C27393   3.751  10.481   7.785 -0.7426 -0.0634  0.4963
  966MOL0     C27394   3.708  10.625   7.761 -0.0143 -0.1351  0.1614
  966MOL0     C27395   3.561  10.628   7.765 -0.3584 -0.5592  0.1464
  966MOL0     C27396   3.498  10.750   7.700  0.4438  0.2715  0.5435
  966MOL0     N27397   3.356  10.742   7.709  0.0427  0.1620 -0.4496
  966MOL0     C27398   3.283  10.813   7.805  0.3030 -1.5275 -0.1735
  966MOL0     C27399   3.152  10.785   7.779  0.0122 -1.2241  0.0210
  966MOL0     C27400   3.033  10.855   7.846 -0.0225 -0.1332  0.2583
  966MOL0     C27401   2.980  10.970   7.763 -0.9182 -0.4074  0.1083
  966MOL0     C27402   2.833  11.003   7.796  0.1617  0.2729 -0.4997
  966MOL0     C27403   2.737  10.900   7.745 -0.3310  0.4515 -0.4698
  966MOL0     O27404   2.606  10.949   7.757 -0.1078  0.2747  0.1334
  966MOL0     C27405   2.503  10.856   7.718 -0.4145 -0.1270 -0.5306
  966MOL0     C27406   2.374  10.887   7.773 -0.8355  0.6125 -0.5728
  966MOL0     C27407   2.265  10.810   7.736 -0.0664 -0.4781 -0.1452
  966MOL0     C27408   2.269  10.707   7.641 -0.2753  0.4581 -0.3807
  966MOL0     C27409   2.152  10.622   7.603 -0.5015  0.2758 -0.8665
  966MOL0     O27410   2.036  10.630   7.673  0.1137  0.1492  0.1355
  966MOL0     C27411   1.925  10.557   7.647  0.3511  0.3407  0.2915
  966MOL0     C27412   1.811  10.617   7.703 -0.2785  0.0164 -0.4360
  966MOL0     C27413   1.680  10.563   7.676 -0.1817  0.1502  0.1959
  966MOL0     C27414   1.656  10.456   7.592 -0.1962 -0.3037  0.5838
  966MOL0     O27415   1.533  10.410   7.564 -0.2237  0.1226 -0.9863
  966MOL0     C27416   1.427  10.505   7.561 -0.3726 -0.5553 -0.4972
  966MOL0     C27417   1.308  10.429   7.501  0.0947 -0.2408 -0.3173
  966MOL0     C27418   1.267  10.306   7.580 -0.5318  0.6745 -0.0027
  966MOL0     C27419   1.130  10.252   7.526  0.2824  0.7857 -0.0229
  966MOL0     C27420   1.051  10.159   7.618 -0.7994  0.0316 -0.5335
  966MOL0     C27421   0.994  10.234   7.727 -0.3379  0.0477 -1.3404
  966MOL0     C27422   0.884  10.179   7.816 -0.3576 -0.3659 -0.3053
  966MOL0     C27423   0.762  10.133   7.739 -0.5408  0.3014 -0.9947
  966MOL0    Cl27424   0.654  10.039   7.839  0.0891  0.4455  0.1299
  966MOL0     C27425   1.771  10.401   7.524  0.2661  0.2672 -0.1658
  966MOL0     C27426   1.902  10.451   7.550  0.0027  0.5042 -0.3562
  966MOL0     O27427   2.166  10.555   7.502  0.2821  0.1372  0.2272
  966MOL0     C27428   2.395  10.680   7.579 -0.3399 -0.3385 -0.3940
  966MOL0     C27429   2.505  10.756   7.617  0.2967 -0.1133 -0.1892
  966MOL0     N27430   3.144  10.694   7.674 -0.3011  0.4642 -0.1016
  966MOL0     N27431   3.263  10.659   7.645 -0.7043  0.1348  0.4464
  966MOL0     C27432   4.309  10.784   8.189 -0.8067 -0.5338 -0.1375
  966MOL0     C27433   4.424  10.843   8.250  0.3215 -0.3119 -0.0108
  966MOL0     C27434   4.863  10.923   8.333 -0.2221 -1.1919  0.7133
  966MOL0     C27435   4.833  11.062   8.346  0.2747  0.3833 -0.5856
  966MOL0     C27436   4.931  11.146   8.393 -0.0787 -0.0283 -0.1276
  966MOL0     C27437   5.062  11.114   8.399  0.3449  0.1905 -0.4696
  966MOL0     O27438   5.148  11.206   8.446 -0.3352 -0.4034  0.3080
  966MOL0     C27439   5.288  11.176   8.458  0.2080 -0.4281  0.3984
  966MOL0     C27440   5.345  11.266   8.568 -0.4368  0.2220 -0.0390
  966MOL0     C27441   5.500  11.281   8.570  0.3056  0.3309 -0.2669
  966MOL0     C27442   5.543  11.424   8.571 -0.2865  0.7170 -0.6188
  966MOL0     C27443   5.690  11.428   8.528 -0.9830  0.1957  0.7304
  966MOL0     C27444   5.810  11.433   8.503  0.0032  0.4947  0.1333
  966MOL0     C27445   5.101  10.984   8.367 -0.6696 -1.2348  0.0502
  966MOL0     C27446   5.001  10.885   8.339 -0.1638  0.6872 -0.0751
  966MOL0     H27447   4.674  10.712   8.081  0.2931  2.4581  1.0189
  966MOL0     H27448   4.459  10.588   7.964 -3.6959  1.4566 -1.9568
  966MOL0     H27449   4.074  10.775   7.995 -0.4654 -0.4085 -0.9621
  966MOL0     H27450   4.069  10.685   8.136  2.4297 -1.5723  0.6913
  966MOL0     H27451   3.890  10.606   7.998 -0.1304 -1.3505 -0.2449
  966MOL0     H27452   4.013  10.480   8.014 -2.0366 -0.3549  0.7125
  966MOL0     H27453   4.104  10.563   7.781 -0.6931 -2.2842 -1.9596
  966MOL0     H27454   3.970  10.676   7.772  0.3675 -0.3354 -1.5123
  966MOL0     H27455   3.923  10.458   7.652 -1.7085 -2.2478  0.8734
  966MOL0     H27456   3.922  10.360   7.798 -0.1203  1.0914  2.0480
  966MOL0     H27457   3.731  10.441   7.885 -1.5447  0.7985  0.6957
  966MOL0     H27458   3.704  10.418   7.709  3.9677 -0.4641 -2.4767
  966MOL0     H27459   3.737  10.653   7.659 -4.8409 -2.7652 -2.2529
  966MOL0     H27460   3.743  10.692   7.840 -0.5559  1.5395 -0.9654
  966MOL0     H27461   3.524  10.536   7.717 -0.7157 -0.6397  0.5725
  966MOL0     H27462   3.536  10.619   7.871 -1.2398 -0.7816 -0.0681
  966MOL0     H27463   3.513  10.740   7.592 -0.0457  0.0598  0.4941
  966MOL0     H27464   3.532  10.844   7.745 -0.8238 -0.8177  4.0630
  966MOL0     H27465   3.318  10.874   7.888 -1.5459 -2.0412  1.0596
  966MOL0     H27466   3.063  10.898   7.942 -1.4083  0.5857  0.3886
  966MOL0     H27467   2.959  10.778   7.865  1.0099 -1.1417  0.3220
  966MOL0     H27468   2.996  10.949   7.657  0.2589 -0.6572  0.3228
  966MOL0     H27469   3.038  11.060   7.787 -3.0932  0.6618  1.7733
  966MOL0     H27470   2.819  11.023   7.903  1.7844 -4.0889  0.7308
  966MOL0     H27471   2.812  11.094   7.739  0.0361  0.8868  0.5023
  966MOL0     H27472   2.746  10.804   7.797 -0.8476 -1.2266 -3.2869
  966MOL0     H27473   2.764  10.880   7.641 -0.4594  0.3551 -0.4839
  966MOL0     H27474   2.369  10.970   7.843  0.7633 -1.3118  1.9977
  966MOL0     H27475   2.167  10.826   7.778 -1.1698 -1.8889 -2.0087
  966MOL0     H27476   1.809  10.699   7.775 -0.7602 -0.3943  0.0243
  966MOL0     H27477   1.597  10.603   7.735 -1.2177  1.8001 -2.2132
  966MOL0     H27478   1.455  10.589   7.496 -0.2360  0.6654  1.0705
  966MOL0     H27479   1.405  10.540   7.662 -0.8685 -2.1481 -0.0222
  966MOL0     H27480   1.337  10.402   7.399  3.4900 -0.4790  0.5903
  966MOL0     H27481   1.222  10.495   7.513  0.4898 -0.1206  2.3334
  966MOL0     H27482   1.274  10.327   7.688  1.8194  0.0807  0.0233
  966MOL0     H27483   1.339  10.226   7.561 -3.1726 -1.0847 -3.6601
  966MOL0     H27484   1.059  10.328   7.492  1.2178  1.7196  0.0353
  966MOL0     H27485   1.167  10.209   7.432 -1.0363  0.8468 -0.5955
  966MOL0     H27486   1.117  10.078   7.650 -1.2880 -0.6565 -1.2597
  966MOL0     H27487   0.977  10.121   7.548  0.7630  0.0265 -2.2822
  966MOL0     H27488   0.963  10.333   7.693  0.9673 -0.3471 -3.9073
  966MOL0     H27489   1.073  10.258   7.799 -1.3776 -2.0724  0.6276
  966MOL0     H27490   0.930  10.100   7.876 -0.8181 -1.7562 -1.7275
  966MOL0     H27491   0.844  10.253   7.886 -0.7578  0.1916 -1.1149
  966MOL0     H27492   0.783  10.078   7.647  1.7448  0.5269 -0.6797
  966MOL0     H27493   0.698  10.215   7.707 -2.0963 -1.3248 -2.2569
  966MOL0     H27494   1.755  10.314   7.461  1.8341 -0.2162  0.0600
  966MOL0     H27495   1.982  10.415   7.486 -1.3684 -2.4251 -0.6122
  966MOL0     H27496   2.399  10.600   7.506  0.9137  0.9385 -1.8138
  966MOL0     H27497   2.600  10.747   7.565  0.2299 -1.9230 -0.0630
  966MOL0     H27498   4.211  10.817   8.223 -0.9598 -1.3933  0.3001
  966MOL0     H27499   4.411  10.902   8.341 -0.7284 -1.4404  0.5959
  966MOL0     H27500   4.729  11.092   8.348 -0.1413 -1.0137  0.5148
  966MOL0     H27501   4.892  11.246   8.405 -0.6105 -0.0116 -1.7896
  966MOL0     H27502   5.334  11.188   8.359 -1.9904 -2.7148 -1.0380
  966MOL0     H27503   5.313  11.074   8.490  1.9088 -0.3660 -0.6045
  966MOL0     H27504   5.303  11.367   8.566 -0.5391  0.1713 -0.4145
  966MOL0     H27505   5.314  11.219   8.663  0.2081  2.4412  1.3413
  966MOL0     H27506   5.530  11.240   8.473 -0.4081 -1.4847  0.2333
  966MOL0     H27507   5.549  11.224   8.650  0.4830  1.0691  0.1650
  966MOL0     H27508   5.487  11.471   8.490  1.2237  3.4228 -0.2054
  966MOL0     H27509   5.525  11.476   8.665 -1.1246  0.3793 -0.5832
  966MOL0     H27510   5.913  11.461   8.505  0.0269  0.3568  1.2341
  966MOL0     H27511   5.205  10.952   8.369 -0.2800 -0.0073  1.7878
  966MOL0     H27512   5.023  10.783   8.310 -1.1363  1.1113 -2.5841
  967MOL0     O27513   6.653   4.300   9.542  0.1786  0.4317  0.2857
  967MOL0     C27514   6.720   4.208   9.597  0.5677 -0.7924  0.2652
  967MOL0     O27515   6.789   4.212   9.712  0.6578 -0.4747  0.4005
  967MOL0     C27516   6.814   4.339   9.766  0.5018  0.2238 -1.5250
  967MOL0     C27517   6.718   4.430   9.818  0.2805 -0.3714 -0.2888
  967MOL0     C27518   6.756   4.533   9.914 -0.0484 -0.8187 -0.3049
  967MOL0     C27519   6.897   4.560   9.934  0.2231  0.3237  0.2787
  967MOL0     O27520   6.950   4.669  10.003  0.0065 -0.7052  0.1621
  967MOL0     C27521   6.871   4.748  10.095 -0.0008 -0.1467  0.8841
  967MOL0     C27522   6.950   4.850  10.167  0.0040  0.2756 -0.2628
  967MOL0     C27523   6.997   4.953  10.071 -0.8843 -0.7258  0.1569
  967MOL0     C27524   7.088   5.057  10.133 -0.8359  0.3226  1.4773
  967MOL0     C27525   7.235   5.015  10.146 -0.5227 -0.0903  0.3906
  967MOL0     C27526   7.331   5.106  10.222 -0.3775 -0.0145 -0.3510
  967MOL0     C27527   7.435   5.025  10.302 -0.0654 -0.0438  0.0523
  967MOL0     C27528   7.528   5.112  10.381 -0.9659 -0.0718 -0.6532
  967MOL0     N27529   7.461   5.176  10.494 -0.0173 -1.0582 -0.7515
  967MOL0     C27530   7.418   5.302  10.500  0.7511  0.1083  0.2112
  967MOL0     C27531   7.388   5.324  10.632 -0.3706  0.2231 -0.0846
  967MOL0     C27532   7.332   5.452  10.682  0.1533  0.1481  0.4036
  967MOL0     C27533   7.180   5.433  10.699 -0.1278  0.3681 -0.5172
  967MOL0     C27534   7.130   5.531  10.794 -0.4195 -0.6224 -0.5489
  967MOL0     C27535   6.992   5.489  10.837 -0.2965 -0.8558  0.2828
  967MOL0     O27536   6.906   5.609  10.823  0.8159  0.4321 -0.0465
  967MOL0     C27537   6.771   5.595  10.854 -0.2209 -0.5799  0.1630
  967MOL0     C27538   6.706   5.484  10.909 -0.2891  0.4493  0.4195
  967MOL0     C27539   6.572   5.488  10.936  0.6707 -1.0180 -0.2588
  967MOL0     C27540   6.491   5.604  10.905 -0.7587 -0.6607  0.1479
  967MOL0     C27541   6.347   5.610  10.929  0.4648  0.0948 -0.3197
  967MOL0     O27542   6.279   5.500  10.977 -0.0742 -0.7813  0.0373
  967MOL0     C27543   6.144   5.521  11.011  0.3294  0.1677 -0.4224
  967MOL0     C27544   6.051   5.465  10.922  1.2739  0.1291  0.1142
  967MOL0     C27545   5.912   5.474  10.957 -0.2789 -0.5307 -0.2891
  967MOL0     C27546   5.866   5.538  11.070 -0.2845  0.6163  0.0417
  967MOL0     O27547   5.737   5.554  11.115  0.0554  0.2156 -0.3339
  967MOL0     C27548   5.626   5.523  11.032 -0.9877  0.4021  0.3676
  967MOL0     C27549   5.509   5.608  11.058  0.3891 -0.8594 -0.3442
  967MOL0     C27550   5.395   5.574  10.960  0.0019 -0.2587 -0.4192
  967MOL0     C27551   5.263   5.647  10.984  0.9912  0.0128 -0.4902
  967MOL0     C27552   5.161   5.620  10.872 -0.1123 -0.0235  0.6015
  967MOL0     C27553   5.030   5.670  10.910 -0.6848  0.2729 -0.5703
  967MOL0     C27554   4.930   5.655  10.789  0.1294 -0.8100  1.2023
  967MOL0     C27555   4.793   5.619  10.838  0.0749 -0.6503  1.3079
  967MOL0    Cl27556   4.694   5.651  10.699  0.3537 -0.4416  0.0423
  967MOL0     C27557   5.963   5.603  11.153 -0.1778  0.0139 -0.5460
  967MOL0     C27558   6.095   5.585  11.122 -0.1196 -0.3699  0.7508
  967MOL0     O27559   6.294   5.719  10.911  0.6885  0.0308  0.0933
  967MOL0     C27560   6.554   5.715  10.854  0.0993  0.4703 -0.4031
  967MOL0     C27561   6.690   5.710  10.829  0.0068 -0.0391  0.3177
  967MOL0     N27562   7.406   5.205  10.695  0.8927  0.1386  0.3101
  967MOL0     N27563   7.467   5.126  10.617 -0.4062 -0.3930  0.1697
  967MOL0     C27564   6.986   4.460   9.876 -0.3202 -0.6107 -0.4905
  967MOL0     C27565   6.943   4.352   9.800  0.2859  0.0803  0.2147
  967MOL0     C27566   6.721   4.077   9.527 -0.4535 -0.5397 -0.0732
  967MOL0     C27567   6.797   3.964   9.573  0.7199 -0.6904  0.3663
  967MOL0     C27568   6.798   3.843   9.513 -0.0485  0.2945  0.6358
  967MOL0     C27569   6.715   3.825   9.397  0.1473 -0.3754 -0.7503
  967MOL0     O27570   6.700   3.704   9.328  0.0357  0.1023  0.6880
  967MOL0     C27571   6.780   3.590   9.374 -0.2093 -0.4321  0.7935
  967MOL0     C27572   6.723   3.457   9.313 -1.3153 -0.4438 -0.5895
  967MOL0     C27573   6.740   3.448   9.169 -0.2264 -0.3049  0.4076
  967MOL0     C27574   6.638   3.371   9.090 -0.1135 -0.7878 -0.4647
  967MOL0     C27575   6.684   3.375   8.949  0.0086 -0.4269  0.4227
  967MOL0     C27576   6.729   3.381   8.828 -0.6021  0.3315 -0.2324
  967MOL0     C27577   6.625   3.930   9.357  0.1266 -0.4970  0.1036
  967MOL0     C27578   6.640   4.054   9.415 -0.5675 -0.4035  0.4657
  967MOL0     H27579   6.614   4.407   9.800  0.2763  0.5945 -1.6450
  967MOL0     H27580   6.678   4.595   9.956  2.4485  1.6654  1.0389
  967MOL0     H27581   6.823   4.688  10.173  0.3504 -0.1122  1.1279
  967MOL0     H27582   6.794   4.804  10.042  0.3652  0.5338  1.0675
  967MOL0     H27583   7.033   4.792  10.207 -0.9330 -2.3541 -1.9207
  967MOL0     H27584   6.884   4.897  10.241  0.0809  1.1604 -0.7490
  967MOL0     H27585   6.919   5.014  10.024  0.6384  2.9283  1.9278
  967MOL0     H27586   7.051   4.899   9.993 -0.8360 -0.2752 -0.1277
  967MOL0     H27587   7.080   5.143  10.065  0.4594  1.2195  2.4245
  967MOL0     H27588   7.046   5.092  10.227 -0.7639  3.0796  0.5797
  967MOL0     H27589   7.275   5.007  10.045 -4.6270  1.5180 -1.6077
  967MOL0     H27590   7.238   4.916  10.192 -0.4800 -1.3237 -2.0884
  967MOL0     H27591   7.273   5.159  10.298  2.2682  1.6338  0.6499
  967MOL0     H27592   7.385   5.177  10.159  1.7646 -1.1845  0.0658
  967MOL0     H27593   7.398   4.952  10.374  2.3366  0.3642  1.8392
  967MOL0     H27594   7.497   4.975  10.227  0.0378  0.3941 -0.1572
  967MOL0     H27595   7.568   5.193  10.319 -2.2041  0.5292 -0.6896
  967MOL0     H27596   7.608   5.045  10.414 -1.1762 -0.1839 -0.3704
  967MOL0     H27597   7.407   5.364  10.411  0.9216 -1.1884 -0.7537
  967MOL0     H27598   7.342   5.534  10.610  0.9796 -0.0384  0.2964
  967MOL0     H27599   7.382   5.481  10.775 -0.7272 -0.4303  1.0685
  967MOL0     H27600   7.154   5.334  10.738 -0.9905  0.6444 -0.3836
  967MOL0     H27601   7.130   5.433  10.601 -1.6416  2.5174  0.1916
  967MOL0     H27602   7.191   5.549  10.883 -1.3927 -0.2469  0.0630
  967MOL0     H27603   7.113   5.624  10.738  2.0160 -1.1663 -2.3301
  967MOL0     H27604   6.993   5.460  10.943  0.5604 -1.4415  0.1253
  967MOL0     H27605   6.945   5.413  10.774 -0.4726 -0.8372  0.3895
  967MOL0     H27606   6.765   5.399  10.940 -1.9254 -1.7680 -2.0729
  967MOL0     H27607   6.530   5.404  10.990  0.3260 -0.5641  0.1913
  967MOL0     H27608   6.080   5.406  10.836  1.2951  1.0687 -0.5317
  967MOL0     H27609   5.830   5.429  10.903  0.7242  0.0344 -2.3556
  967MOL0     H27610   5.596   5.419  11.045  0.5096  0.0541  1.2272
  967MOL0     H27611   5.654   5.535  10.927  0.8000  2.1463  0.9739
  967MOL0     H27612   5.559   5.705  11.059  1.8625 -1.5061  3.4804
  967MOL0     H27613   5.473   5.591  11.160  0.4151  1.2146  0.0580
  967MOL0     H27614   5.385   5.466  10.973 -2.9598  0.0537  0.6233
  967MOL0     H27615   5.426   5.589  10.856 -0.1002  4.9885  0.0475
  967MOL0     H27616   5.228   5.596  11.075 -1.6728 -0.0895 -1.4816
  967MOL0     H27617   5.283   5.754  10.997  0.0514 -0.0121  1.7032
  967MOL0     H27618   5.142   5.513  10.864 -0.2257  0.0028  0.5233
  967MOL0     H27619   5.179   5.672  10.777 -1.6254 -2.3322 -1.0459
  967MOL0     H27620   5.026   5.776  10.937 -2.1886  0.2776 -0.7615
  967MOL0     H27621   4.991   5.617  10.997 -0.1704 -0.7092 -0.9166
  967MOL0     H27622   4.926   5.748  10.733  0.7136 -0.8875  1.0228
  967MOL0     H27623   4.972   5.584  10.717  3.7444 -1.6563  3.8471
  967MOL0     H27624   4.754   5.683  10.918 -2.4990  0.2067 -0.4799
  967MOL0     H27625   4.773   5.516  10.868 -4.4251  0.5378  3.2854
  967MOL0     H27626   5.935   5.637  11.252 -0.2284  0.6811 -0.7859
  967MOL0     H27627   6.166   5.611  11.200 -0.5162 -0.9859  1.3351
  967MOL0     H27628   6.500   5.807  10.833  0.2411  0.1715 -2.2691
  967MOL0     H27629   6.736   5.797  10.785 -0.4936  1.6014  2.8501
  967MOL0     H27630   7.093   4.475   9.885 -0.6340  1.4483  0.3949
  967MOL0     H27631   7.013   4.279   9.761 -0.1693  0.8976 -2.3484
  967MOL0     H27632   6.852   3.981   9.665 -1.0916  2.5932  0.9748
  967MOL0     H27633   6.870   3.768   9.542  1.3394  0.3574 -2.2503
  967MOL0     H27634   6.778   3.584   9.483 -0.3319 -3.2817  0.7284
  967MOL0     H27635   6.883   3.604   9.340 -0.9002  0.4784 -1.0479
  967MOL0     H27636   6.774   3.377   9.368 -2.3056  0.9718  2.6433
  967MOL0     H27637   6.618   3.448   9.341 -2.1240  1.3831 -2.7491
  967MOL0     H27638   6.838   3.400   9.156 -0.5921 -0.9117 -0.1801
  967MOL0     H27639   6.744   3.546   9.122 -0.0837 -0.1067  0.8336
  967MOL0     H27640   6.627   3.270   9.129 -1.2528  0.4656  2.7997
  967MOL0     H27641   6.539   3.416   9.093 -0.2922 -1.1947 -0.0121
  967MOL0     H27642   6.776   3.381   8.732 -0.2824  2.4529 -0.1132
  967MOL0     H27643   6.551   3.920   9.277  0.0998  0.1393  0.0414
  967MOL0     H27644   6.584   4.136   9.373 -0.2429 -0.2648  0.2935
  968MOL0     O27645   0.256   4.475   0.574 -0.1278  0.1247 -0.1345
  968MOL0     C27646   0.340   4.419   0.642  0.1548  0.7016  0.2293
  968MOL0     O27647   0.322   4.383   0.774 -0.1749  0.0606 -0.2005
  968MOL0     C27648   0.193   4.371   0.819  0.3540  0.2771 -1.2656
  968MOL0     C27649   0.074   4.341   0.743  0.1490 -0.3375  0.2082
  968MOL0     C27650  -0.056   4.332   0.810  0.0402  0.7888 -0.4010
  968MOL0     C27651  -0.074   4.366   0.941 -0.2060 -0.1004 -0.1134
  968MOL0     O27652  -0.190   4.342   1.009 -0.0673  0.6222 -0.0125
  968MOL0     C27653  -0.285   4.444   0.994 -1.0385  1.0836 -0.1542
  968MOL0     C27654  -0.418   4.402   1.049 -0.0680  0.3932 -0.0758
  968MOL0     C27655  -0.521   4.484   0.971  0.6741  0.6528 -0.2032
  968MOL0     C27656  -0.659   4.459   1.028 -0.4659  0.1106  0.4576
  968MOL0     C27657  -0.756   4.552   0.945  0.4339 -0.3164 -0.6041
  968MOL0     C27658  -0.904   4.511   0.988 -1.0758  0.4104 -0.5439
  968MOL0     C27659  -1.021   4.582   0.922  0.5462 -0.0467 -0.0300
  968MOL0     C27660  -1.148   4.535   0.995 -0.7268  0.6837 -0.4940
  968MOL0     N27661  -1.269   4.618   0.956 -0.4524 -0.3697  0.1638
  968MOL0     C27662  -1.281   4.757   0.964  0.0315  0.5848 -0.4768
  968MOL0     C27663  -1.393   4.789   0.892 -0.2284 -0.2713  0.2506
  968MOL0     C27664  -1.452   4.934   0.871  0.0674 -0.0166  0.0448
  968MOL0     C27665  -1.353   5.039   0.915 -0.4708 -0.8865 -0.6351
  968MOL0     C27666  -1.225   5.053   0.834 -0.6214 -0.2555  0.5946
  968MOL0     C27667  -1.132   5.169   0.859 -0.4828 -0.0293  0.7022
  968MOL0     O27668  -1.005   5.146   0.794 -0.1812 -0.5800 -0.0476
  968MOL0     C27669  -0.909   5.090   0.883 -0.1599  1.3684  0.2853
  968MOL0     C27670  -0.780   5.108   0.835 -0.1877  0.1923 -0.0435
  968MOL0     C27671  -0.673   5.039   0.897  0.6125 -0.0723 -0.5523
  968MOL0     C27672  -0.693   4.960   1.014  0.0687  0.3110  0.2900
  968MOL0     C27673  -0.581   4.889   1.076 -0.3733  0.0072 -0.7167
  968MOL0     O27674  -0.463   4.883   1.005 -0.0981 -0.2767  0.1648
  968MOL0     C27675  -0.339   4.851   1.054 -1.0557  0.1009 -0.9319
  968MOL0     C27676  -0.237   4.830   0.961  0.1658 -0.0599  0.3767
  968MOL0     C27677  -0.107   4.796   0.997  0.4429 -0.5262  0.9285
  968MOL0     C27678  -0.073   4.793   1.139  1.2874 -0.5564  0.0337
  968MOL0     O27679   0.052   4.752   1.184  0.1250  0.4248 -0.0194
  968MOL0     C27680   0.163   4.777   1.094  0.7652 -0.0004  0.2901
  968MOL0     C27681   0.277   4.704   1.154  0.3581 -0.9877 -0.4472
  968MOL0     C27682   0.306   4.731   1.305  0.3799  0.4739 -0.0266
  968MOL0     C27683   0.343   4.879   1.333 -0.4433 -0.4132 -0.3207
  968MOL0     C27684   0.351   4.913   1.488  0.8607 -0.0002 -0.0434
  968MOL0     C27685   0.450   4.834   1.569 -0.0445 -0.3411  0.3030
  968MOL0     C27686   0.453   4.871   1.716 -0.1482  0.8183  0.1070
  968MOL0     C27687   0.496   4.753   1.806 -0.5800  0.3226  0.1775
  968MOL0    Cl27688   0.644   4.677   1.751  0.2518  0.0597 -0.1377
  968MOL0     C27689  -0.170   4.826   1.233 -0.0094 -0.1120  0.0743
  968MOL0     C27690  -0.297   4.845   1.189  0.2334  0.0022  0.4720
  968MOL0     O27691  -0.597   4.848   1.186  0.1926  0.0606 -0.1899
  968MOL0     C27692  -0.826   4.955   1.067  0.3146  0.0051 -0.1139
  968MOL0     C27693  -0.941   5.001   0.994  0.0871  0.2193  0.4372
  968MOL0     N27694  -1.438   4.670   0.843  0.3059 -0.2685 -0.2596
  968MOL0     N27695  -1.363   4.572   0.875 -0.4603  0.6098  0.1093
  968MOL0     C27696   0.036   4.403   1.008 -0.6480 -0.5692 -0.3180
  968MOL0     C27697   0.167   4.405   0.954  0.4264  0.0560 -0.0920
  968MOL0     C27698   0.479   4.418   0.592  0.1998  0.0885  0.6689
  968MOL0     C27699   0.590   4.380   0.671  0.2463 -0.8235 -1.1153
  968MOL0     C27700   0.722   4.407   0.636 -0.9922  0.4813 -0.3087
  968MOL0     C27701   0.758   4.461   0.518 -0.5485 -0.0389 -0.0848
  968MOL0     O27702   0.897   4.471   0.495  0.6652  0.5113 -0.7647
  968MOL0     C27703   0.930   4.411   0.370 -0.0603  0.7519 -0.3038
  968MOL0     C27704   1.083   4.407   0.338 -1.2617 -0.0980  0.1573
  968MOL0     C27705   1.164   4.314   0.436 -0.0336  0.0275  0.4592
  968MOL0     C27706   1.313   4.330   0.430  0.0929  0.5297 -1.2529
  968MOL0     C27707   1.374   4.291   0.303  0.4307 -0.0376  0.4503
  968MOL0     C27708   1.432   4.270   0.194 -0.2682 -1.1802  0.2710
  968MOL0     C27709   0.653   4.490   0.418 -0.2110 -0.0315 -0.7356
  968MOL0     C27710   0.516   4.486   0.465  0.2265  0.4479  0.1737
  968MOL0     H27711   0.080   4.310   0.640  1.5057 -1.1973  0.5180
  968MOL0     H27712  -0.143   4.308   0.750 -1.0630  0.9971  1.0634
  968MOL0     H27713  -0.289   4.483   0.892  0.2404 -1.5475 -1.3199
  968MOL0     H27714  -0.243   4.525   1.053 -0.6646  0.1163  0.9271
  968MOL0     H27715  -0.418   4.431   1.155 -1.1303  1.2585 -0.2954
  968MOL0     H27716  -0.425   4.295   1.027 -0.5522  0.0033  1.7888
  968MOL0     H27717  -0.523   4.449   0.867 -1.2528 -0.5934  0.1931
  968MOL0     H27718  -0.504   4.592   0.975 -0.6722  0.8918 -0.6047
  968MOL0     H27719  -0.685   4.353   1.020  0.0730 -0.0425  0.7077
  968MOL0     H27720  -0.653   4.498   1.130 -1.0007  1.8859 -0.1601
  968MOL0     H27721  -0.743   4.537   0.838  2.6027 -4.6674  0.0461
  968MOL0     H27722  -0.740   4.657   0.969  0.2509 -0.6836  1.3471
  968MOL0     H27723  -0.899   4.538   1.094 -1.3911 -1.6375  0.0276
  968MOL0     H27724  -0.920   4.403   0.978 -1.4840  0.3941  0.1890
  968MOL0     H27725  -0.999   4.689   0.925  1.4846 -0.1746 -1.3891
  968MOL0     H27726  -1.028   4.544   0.820 -1.3854 -2.8468  1.0034
  968MOL0     H27727  -1.129   4.547   1.102  3.5725 -1.7021 -0.7848
  968MOL0     H27728  -1.165   4.430   0.969  3.4619 -0.6251  1.3373
  968MOL0     H27729  -1.217   4.827   1.018  0.3099 -1.1902  1.6256
  968MOL0     H27730  -1.539   4.959   0.932  1.1446  0.5203  1.4282
  968MOL0     H27731  -1.473   4.948   0.765 -3.5723  0.4149  0.6958
  968MOL0     H27732  -1.335   5.026   1.022  0.0675  0.8358 -0.4893
  968MOL0     H27733  -1.413   5.128   0.891 -2.9750 -1.9349  1.2359
  968MOL0     H27734  -1.167   4.963   0.854  1.0484  0.7155  0.3242
  968MOL0     H27735  -1.249   5.054   0.727 -2.7576  2.0158  0.9961
  968MOL0     H27736  -1.113   5.194   0.964 -1.7050 -0.0738  0.9423
  968MOL0     H27737  -1.182   5.258   0.822 -0.2894 -0.2398 -0.0738
  968MOL0     H27738  -0.773   5.174   0.749  1.0829  1.2443  0.8383
  968MOL0     H27739  -0.578   5.039   0.845  0.1124  0.7485 -1.5162
  968MOL0     H27740  -0.264   4.828   0.856 -3.6655 -5.3328  1.0863
  968MOL0     H27741  -0.040   4.776   0.914 -1.5725  4.0355 -2.1791
  968MOL0     H27742   0.169   4.886   1.090 -1.0389  0.1375  0.6297
  968MOL0     H27743   0.148   4.736   0.994 -0.1019  1.5287 -0.2333
  968MOL0     H27744   0.370   4.732   1.103 -0.6669  4.1188 -0.0519
  968MOL0     H27745   0.268   4.595   1.155  2.8691 -1.2783  0.7576
  968MOL0     H27746   0.383   4.665   1.348  1.6698  1.0599 -1.3385
  968MOL0     H27747   0.214   4.721   1.362 -0.3367  3.2483 -0.5592
  968MOL0     H27748   0.443   4.894   1.292  0.0593  1.5831  1.4248
  968MOL0     H27749   0.273   4.942   1.277 -0.9193 -1.7065 -1.2177
  968MOL0     H27750   0.254   4.883   1.530 -0.0496  1.5269 -0.9263
  968MOL0     H27751   0.358   5.021   1.506 -3.8240  0.4505  0.4719
  968MOL0     H27752   0.548   4.861   1.528  0.7591 -1.1871  1.5877
  968MOL0     H27753   0.429   4.728   1.557  2.7998 -0.9004 -0.3414
  968MOL0     H27754   0.527   4.950   1.733  2.0503 -0.6716 -1.9041
  968MOL0     H27755   0.351   4.906   1.734 -1.5369 -2.3441 -0.8989
  968MOL0     H27756   0.412   4.682   1.803 -0.7076  0.4739  0.1662
  968MOL0     H27757   0.513   4.784   1.910  1.7473  0.7055 -0.2658
  968MOL0     H27758  -0.153   4.821   1.340  1.2137 -1.4745 -0.1654
  968MOL0     H27759  -0.377   4.872   1.256  0.3707  1.1219  0.2045
  968MOL0     H27760  -0.859   4.891   1.148 -1.4244 -0.2943 -1.0151
  968MOL0     H27761  -1.040   4.978   1.030 -0.1111  0.1090 -0.1613
  968MOL0     H27762   0.037   4.422   1.115  0.0404 -0.2730 -0.3731
  968MOL0     H27763   0.254   4.426   1.017  0.9305 -1.4917 -0.2155
  968MOL0     H27764   0.575   4.358   0.777 -2.7643  0.5329 -1.1695
  968MOL0     H27765   0.804   4.388   0.705 -2.0986  1.7668  1.4262
  968MOL0     H27766   0.881   4.468   0.291 -3.1123 -0.8689  0.2749
  968MOL0     H27767   0.892   4.309   0.357  0.1842  0.7557 -1.1176
  968MOL0     H27768   1.089   4.376   0.233 -1.9271  1.0428 -0.2397
  968MOL0     H27769   1.127   4.506   0.350 -1.0073 -0.2278  0.2940
  968MOL0     H27770   1.144   4.209   0.415  1.3045  0.3141 -3.0182
  968MOL0     H27771   1.133   4.325   0.540 -1.1798  0.0173  0.1292
  968MOL0     H27772   1.347   4.429   0.460  1.3285  0.1645 -1.3909
  968MOL0     H27773   1.356   4.263   0.505 -0.1977  0.3577 -1.2401
  968MOL0     H27774   1.455   4.242   0.094 -1.5379  1.8107 -0.9967
  968MOL0     H27775   0.674   4.532   0.320  0.0469  0.6339 -0.3991
  968MOL0     H27776   0.428   4.511   0.407 -2.1809  1.5303  3.9491
  969MOL0     O27777   0.346  10.319   9.840  0.3418 -0.2484 -0.3873
  969MOL0     C27778   0.366  10.266   9.948 -0.2448  0.0128  0.8291
  969MOL0     O27779   0.279  10.190  10.027 -0.7810  0.0705 -0.0843
  969MOL0     C27780   0.162  10.156   9.966  1.0084 -0.2753 -0.0922
  969MOL0     C27781   0.137  10.077   9.847  0.1595  0.5518  0.3503
  969MOL0     C27782   0.008  10.054   9.802  0.4990 -0.4606  0.4298
  969MOL0     C27783  -0.108  10.095   9.869  0.6189 -0.8294 -0.4237
  969MOL0     O27784  -0.221  10.041   9.823 -0.4319  0.5947 -0.0568
  969MOL0     C27785  -0.347  10.106   9.830 -0.2803  0.4284 -0.4705
  969MOL0     C27786  -0.444  10.035   9.741  0.0345  0.3901 -0.0846
  969MOL0     C27787  -0.580  10.068   9.789 -0.3763  0.5823 -0.8339
  969MOL0     C27788  -0.664   9.978   9.697 -0.4468 -0.5895  0.2893
  969MOL0     C27789  -0.811   9.996   9.745  0.3935 -0.5264 -0.5684
  969MOL0     C27790  -0.896   9.889   9.668 -0.1510 -0.2060  0.1146
  969MOL0     C27791  -1.046   9.900   9.690 -0.0102 -0.1706  0.2874
  969MOL0     C27792  -1.088   9.855   9.827 -1.0317  0.1803  0.9464
  969MOL0     N27793  -1.229   9.830   9.877  1.1246  0.1104 -0.0744
  969MOL0     C27794  -1.327   9.764   9.807  0.3501 -1.2273  0.6940
  969MOL0     C27795  -1.432   9.762   9.894  0.2022  0.9152  0.5940
  969MOL0     C27796  -1.561   9.688   9.879  0.2636 -0.0937  0.2451
  969MOL0     C27797  -1.677   9.761   9.925  0.5017  0.4265 -0.1821
  969MOL0     C27798  -1.805   9.675   9.897 -0.3396  0.1953 -0.1306
  969MOL0     C27799  -1.919   9.749   9.957  0.4690 -1.0370  0.7203
  969MOL0     O27800  -2.039   9.666   9.951  0.2459 -0.7718 -0.4623
  969MOL0     C27801  -2.161   9.724   9.952  0.5213 -0.1505  0.6210
  969MOL0     C27802  -2.187   9.860   9.986 -0.2277 -0.5781  1.2682
  969MOL0     C27803  -2.309   9.917   9.969  0.0816 -0.2250  0.4979
  969MOL0     C27804  -2.420   9.842   9.937 -0.7548  0.2605  0.3185
  969MOL0     C27805  -2.555   9.911   9.922  0.5681  1.0604  0.0257
  969MOL0     O27806  -2.653   9.842   9.852 -0.7244 -0.3164 -1.2645
  969MOL0     C27807  -2.783   9.896   9.849  0.0114 -0.0655 -0.6614
  969MOL0     C27808  -2.825  10.009   9.780  0.6389  0.5754 -0.4189
  969MOL0     C27809  -2.959  10.049   9.771 -0.0632  1.0352  0.5172
  969MOL0     C27810  -3.055   9.965   9.841 -0.3047  0.1358 -0.1192
  969MOL0     O27811  -3.189   9.998   9.829 -0.2568 -0.4171 -0.6247
  969MOL0     C27812  -3.257  10.029   9.954 -0.8456 -0.6838  1.3338
  969MOL0     C27813  -3.396  10.077   9.919  0.7159  0.3833 -0.5753
  969MOL0     C27814  -3.470  10.097  10.053  0.3874  0.2327 -0.5730
  969MOL0     C27815  -3.612  10.158  10.039  0.3878 -0.5387  1.0738
  969MOL0     C27816  -3.675  10.186  10.171 -0.0905 -0.2268  0.0283
  969MOL0     C27817  -3.817  10.249  10.179  0.3585 -0.3673  1.1297
  969MOL0     C27818  -3.870  10.248  10.319  0.4023  0.3407 -0.1748
  969MOL0     C27819  -4.010  10.309  10.322 -0.0313  1.0639  0.2073
  969MOL0    Cl27820  -4.019  10.479  10.286 -0.2024  0.0636  0.3686
  969MOL0     C27821  -3.015   9.853   9.921 -0.7624  0.1632  0.9767
  969MOL0     C27822  -2.875   9.828   9.929  0.8762  0.4105 -0.1428
  969MOL0     O27823  -2.569  10.027   9.964  0.5696 -0.3048  0.3478
  969MOL0     C27824  -2.402   9.716   9.893 -0.2260  0.1346  0.4491
  969MOL0     C27825  -2.270   9.655   9.903  0.2726 -0.1577 -0.6209
  969MOL0     N27826  -1.402   9.839  10.005 -0.2906 -0.5551  0.5762
  969MOL0     N27827  -1.283   9.886   9.993 -0.4375  0.5707 -0.4778
  969MOL0     C27828  -0.084  10.174   9.981  0.0123 -0.5313  1.0802
  969MOL0     C27829   0.051  10.206  10.033  0.5528  0.3550 -0.5828
  969MOL0     C27830   0.502  10.282  10.007  0.6726 -0.2158  0.1269
  969MOL0     C27831   0.523  10.270  10.142 -0.3679  0.6003 -0.6662
  969MOL0     C27832   0.650  10.266  10.199  0.7507  0.1961  0.4601
  969MOL0     C27833   0.765  10.280  10.116 -0.4327  0.2998 -0.2357
  969MOL0     O27834   0.892  10.292  10.172  0.3337  0.3394  0.2605
  969MOL0     C27835   0.998  10.305  10.086  0.5284  0.7020  0.3746
  969MOL0     C27836   1.125  10.305  10.171  0.6956 -0.4130  0.3150
  969MOL0     C27837   1.151  10.451  10.228  0.2738 -0.1685 -0.3374
  969MOL0     C27838   1.291  10.456  10.301 -0.6978  0.2960 -0.2700
  969MOL0     C27839   1.412  10.458  10.206  0.3911 -0.7324 -0.2815
  969MOL0     C27840   1.523  10.474  10.166  0.7681 -0.0388  0.2461
  969MOL0     C27841   0.743  10.297   9.982 -0.0738 -0.2663 -0.4141
  969MOL0     C27842   0.613  10.302   9.919 -1.1039 -0.0770 -0.1854
  969MOL0     H27843   0.217  10.039   9.785 -1.9880  0.7278 -2.7347
  969MOL0     H27844  -0.009  10.004   9.707  0.3898  1.5513 -0.6762
  969MOL0     H27845  -0.339  10.212   9.804  2.8362  0.3364 -0.2368
  969MOL0     H27846  -0.380  10.093   9.934 -2.3971 -0.6937 -1.2297
  969MOL0     H27847  -0.426   9.927   9.744 -1.5167  0.1097  0.4337
  969MOL0     H27848  -0.426  10.068   9.639 -1.7513  0.0846 -0.5352
  969MOL0     H27849  -0.590  10.176   9.792  2.7466  0.9813  2.7522
  969MOL0     H27850  -0.593  10.028   9.890  1.1222  2.3587  0.1197
  969MOL0     H27851  -0.648  10.006   9.592  2.4569 -0.4326  0.6895
  969MOL0     H27852  -0.637   9.872   9.702  1.1415 -0.2158  0.2804
  969MOL0     H27853  -0.845  10.098   9.723  2.2859  0.1410 -0.5334
  969MOL0     H27854  -0.820   9.977   9.852 -1.4561 -1.0412 -0.7762
  969MOL0     H27855  -0.873   9.789   9.705 -2.1846 -0.1958  1.5869
  969MOL0     H27856  -0.869   9.902   9.563 -0.5303  1.4936  0.1960
  969MOL0     H27857  -1.076  10.003   9.667  0.3523 -0.3470 -1.0240
  969MOL0     H27858  -1.104   9.843   9.617  1.1734 -1.5491  0.3849
  969MOL0     H27859  -1.044   9.933   9.889 -0.3829  0.1037  0.5877
  969MOL0     H27860  -1.035   9.761   9.846  2.2950  2.0624  1.6003
  969MOL0     H27861  -1.310   9.730   9.706 -0.7415  0.0052  0.0677
  969MOL0     H27862  -1.550   9.607   9.952  0.5564  0.6029  0.9994
  969MOL0     H27863  -1.581   9.652   9.778 -0.9977 -2.5058  1.2622
  969MOL0     H27864  -1.679   9.853   9.866  2.6607  1.9247  1.9053
  969MOL0     H27865  -1.670   9.780  10.033 -2.2723 -0.1328  0.1870
  969MOL0     H27866  -1.824   9.649   9.792  1.7513 -0.5059 -0.3976
  969MOL0     H27867  -1.810   9.581   9.952 -2.7506  2.1931  3.4761
  969MOL0     H27868  -1.929   9.839   9.896  2.6495 -1.0427  0.2710
  969MOL0     H27869  -1.906   9.778  10.061 -0.7264 -3.2260  1.5376
  969MOL0     H27870  -2.107   9.918  10.029 -2.0948  2.6482  0.7309
  969MOL0     H27871  -2.312  10.024   9.989 -0.1901 -0.0747 -0.3122
  969MOL0     H27872  -2.755  10.078   9.734 -2.8722  3.2741 -2.2083
  969MOL0     H27873  -2.992  10.139   9.721 -4.2889  0.2320  1.5007
  969MOL0     H27874  -3.212  10.115  10.004 -2.6976 -0.0697  2.0279
  969MOL0     H27875  -3.251   9.944  10.022 -0.6272 -1.4472  0.3840
  969MOL0     H27876  -3.445   9.996   9.864 -0.1687  0.4765  0.0455
  969MOL0     H27877  -3.393  10.170   9.862  1.1965  0.2000 -0.8493
  969MOL0     H27878  -3.410  10.161  10.118  1.1308 -1.8833  0.9269
  969MOL0     H27879  -3.465   9.999  10.101  2.9055  0.2944 -0.5919
  969MOL0     H27880  -3.606  10.252   9.984 -1.4039 -0.4588  0.9558
  969MOL0     H27881  -3.671  10.088   9.979  0.8493 -2.5307  2.8243
  969MOL0     H27882  -3.607  10.250  10.228 -1.1351  2.1486 -1.2462
  969MOL0     H27883  -3.685  10.090  10.222 -1.1462 -0.6632 -0.9593
  969MOL0     H27884  -3.880  10.196  10.107  3.7455 -0.0427 -2.4136
  969MOL0     H27885  -3.813  10.350  10.137  1.9344 -0.9782 -0.3101
  969MOL0     H27886  -3.872  10.147  10.362  0.3392  1.3403  2.3920
  969MOL0     H27887  -3.806  10.311  10.381  2.3013  0.3586 -2.0813
  969MOL0     H27888  -4.051  10.290  10.422  0.9540 -0.5597  0.3423
  969MOL0     H27889  -4.067  10.262  10.242  0.8789  3.1823 -1.7982
  969MOL0     H27890  -3.082   9.794   9.983 -0.9282  0.6020  1.2193
  969MOL0     H27891  -2.846   9.748   9.996 -0.2409 -1.5248 -1.8343
  969MOL0     H27892  -2.474   9.663   9.832  1.4400 -0.5936 -0.9579
  969MOL0     H27893  -2.263   9.551   9.873 -1.2048 -1.1365  2.1359
  969MOL0     H27894  -0.170  10.203  10.042  1.6704 -1.5936  4.1248
  969MOL0     H27895   0.064  10.257  10.128  3.4903 -0.2871 -0.5503
  969MOL0     H27896   0.436  10.257  10.206  2.2607 -1.3825  2.8367
  969MOL0     H27897   0.667  10.238  10.302  0.0694 -0.5426  0.3791
  969MOL0     H27898   0.994  10.393  10.021  0.7808  0.0723 -0.5165
  969MOL0     H27899   0.998  10.219  10.019 -1.1811  1.6312 -0.8908
  969MOL0     H27900   1.111  10.233  10.252 -3.0676  0.1420  0.3700
  969MOL0     H27901   1.214  10.278  10.114  0.0154 -1.7266 -0.1479
  969MOL0     H27902   1.072  10.490  10.292  1.2286  0.4729  0.4833
  969MOL0     H27903   1.147  10.525  10.147  1.8257  2.4292  1.8123
  969MOL0     H27904   1.310  10.552  10.349 -1.4251  0.1939  0.2262
  969MOL0     H27905   1.301  10.373  10.371 -0.7248 -0.2236 -0.8710
  969MOL0     H27906   1.619  10.480  10.119 -0.1093  0.5192 -1.5706
  969MOL0     H27907   0.826  10.319   9.916  1.3840 -0.0471  1.4324
  969MOL0     H27908   0.595  10.312   9.812 -1.2984  0.0720 -0.1398
  970MOL0     O27909  10.172  11.058   9.390 -0.3730 -0.2762  0.1384
  970MOL0     C27910  10.183  11.112   9.498  0.2908 -0.3600  0.2497
  970MOL0     O27911  10.075  11.121   9.583 -0.3625 -0.4614  0.4094
  970MOL0     C27912   9.955  11.052   9.568 -0.2809 -0.3054  0.2524
  970MOL0     C27913   9.834  11.114   9.545 -0.0833 -0.0742 -0.6540
  970MOL0     C27914   9.716  11.038   9.533 -0.0004 -0.4882 -1.0194
  970MOL0     C27915   9.714  10.896   9.537  0.3808 -0.4277 -0.5677
  970MOL0     O27916   9.601  10.825   9.521  0.9958  0.1865 -0.0816
  970MOL0     C27917   9.477  10.890   9.475 -0.2627 -0.0847 -0.2597
  970MOL0     C27918   9.368  10.784   9.483  0.7970 -0.2795  0.0368
  970MOL0     C27919   9.225  10.843   9.444  0.3753  0.9640  0.9933
  970MOL0     C27920   9.134  10.715   9.421 -0.8146  0.1321  0.1488
  970MOL0     C27921   8.981  10.735   9.412  0.8162 -0.1256 -0.2734
  970MOL0     C27922   8.916  10.611   9.339 -0.0093  0.5359  0.1502
  970MOL0     C27923   8.772  10.648   9.278  0.2186  0.6130 -0.2187
  970MOL0     C27924   8.672  10.631   9.386 -0.4378  0.3687  0.0072
  970MOL0     N27925   8.549  10.686   9.323 -0.2073 -0.5086 -0.7858
  970MOL0     C27926   8.455  10.632   9.241 -0.3752  0.0434  1.3886
  970MOL0     C27927   8.351  10.714   9.228  0.7891  0.2631  0.2289
  970MOL0     C27928   8.229  10.711   9.130 -0.4953  0.8005  0.2462
  970MOL0     C27929   8.115  10.629   9.200  0.1594  0.0464 -0.5697
  970MOL0     C27930   7.973  10.628   9.125 -0.4440  0.5010 -0.1103
  970MOL0     C27931   7.893  10.759   9.149  0.2984  0.2958 -0.0290
  970MOL0     O27932   7.812  10.776   9.034  0.2336  0.7910  0.2024
  970MOL0     C27933   7.696  10.849   9.043  0.6083 -0.5646  0.8766
  970MOL0     C27934   7.670  10.951   9.135  0.7892  0.1312 -0.4018
  970MOL0     C27935   7.546  11.012   9.134 -0.3763  0.4993  0.0686
  970MOL0     C27936   7.450  10.983   9.036 -0.0368 -0.0408  0.5484
  970MOL0     C27937   7.320  11.055   9.034 -0.3899 -0.2680  0.4546
  970MOL0     O27938   7.306  11.159   9.116 -0.0403  0.3075  0.0322
  970MOL0     C27939   7.196  11.232   9.122  0.1337 -0.5240 -0.6229
  970MOL0     C27940   7.142  11.259   9.248  0.4323  0.4187 -0.7092
  970MOL0     C27941   7.022  11.327   9.259 -0.5942 -0.2141 -0.8090
  970MOL0     C27942   6.956  11.385   9.144 -0.1499  0.4230 -0.4752
  970MOL0     O27943   6.845  11.469   9.139  0.3870  0.3018 -0.7793
  970MOL0     C27944   6.788  11.496   9.271 -0.5164 -0.3083 -0.1063
  970MOL0     C27945   6.672  11.597   9.246 -0.2999  0.6710  0.7020
  970MOL0     C27946   6.576  11.610   9.365 -0.7565  0.3974 -0.2755
  970MOL0     C27947   6.485  11.494   9.378 -0.1304 -0.4156 -0.4255
  970MOL0     C27948   6.364  11.513   9.460  1.0641  0.3868  0.2873
  970MOL0     C27949   6.262  11.397   9.435  1.0296 -0.3115  0.5263
  970MOL0     C27950   6.139  11.397   9.533  0.0170  0.8509 -0.1238
  970MOL0     C27951   6.055  11.271   9.523  0.0730  0.2119 -0.2657
  970MOL0    Cl27952   5.934  11.264   9.391  0.2509  0.1680 -0.2757
  970MOL0     C27953   7.019  11.356   9.021  0.3478  0.1217  0.8119
  970MOL0     C27954   7.135  11.284   9.014 -0.6673 -0.2272  0.6305
  970MOL0     O27955   7.226  11.005   8.969 -0.1454 -0.1553  0.0786
  970MOL0     C27956   7.477  10.892   8.932 -0.5201 -0.4237  0.4184
  970MOL0     C27957   7.602  10.830   8.937 -0.0862  0.4684  0.0072
  970MOL0     N27958   8.386  10.831   9.301  0.5474 -0.1743 -0.6364
  970MOL0     N27959   8.502  10.810   9.355  0.1340 -0.5800 -0.2098
  970MOL0     C27960   9.839  10.829   9.553  0.2646  0.5784 -0.6082
  970MOL0     C27961   9.960  10.907   9.566  0.8463 -0.1467 -0.1520
  970MOL0     C27962  10.309  11.179   9.534  0.0582 -0.3944 -0.0209
  970MOL0     C27963  10.415  11.182   9.441 -0.5558  0.5804 -0.0785
  970MOL0     C27964  10.538  11.234   9.477 -0.0722  0.3920  0.0385
  970MOL0     C27965  10.563  11.265   9.610 -0.6991  0.1655 -0.0415
  970MOL0     O27966  10.684  11.331   9.640  0.3845  0.4984  0.6145
  970MOL0     C27967  10.799  11.282   9.583 -0.6130 -0.1205  0.3656
  970MOL0     C27968  10.921  11.321   9.662  0.0346 -0.1182  0.2590
  970MOL0     C27969  10.963  11.465   9.636 -0.4293  0.7110  0.1435
  970MOL0     C27970  11.086  11.511   9.728  0.1159 -0.3431  0.1328
  970MOL0     C27971  11.204  11.434   9.692 -0.0787  0.3707 -0.1616
  970MOL0     C27972  11.283  11.349   9.658 -0.0682 -0.2172 -0.8925
  970MOL0     C27973  10.464  11.261   9.702 -0.5970 -0.0489 -0.3440
  970MOL0     C27974  10.340  11.216   9.664  0.1793 -1.1586 -0.5150
  970MOL0     H27975   9.837  11.222   9.542  1.3452 -0.1092 -2.3247
  970MOL0     H27976   9.626  11.098   9.525  1.0355  1.1077 -1.1065
  970MOL0     H27977   9.492  10.911   9.368 -1.5977 -2.4823 -0.9951
  970MOL0     H27978   9.453  10.978   9.535  0.6896 -0.6312  0.9559
  970MOL0     H27979   9.360  10.749   9.586  0.0854  1.6260  0.6841
  970MOL0     H27980   9.402  10.700   9.422  2.6158  0.7401 -0.4319
  970MOL0     H27981   9.230  10.889   9.345  0.1690  1.6227  1.2890
  970MOL0     H27982   9.179  10.905   9.521 -1.4546 -0.2691  0.9623
  970MOL0     H27983   9.170  10.676   9.326  1.0929 -1.6924  1.5282
  970MOL0     H27984   9.148  10.633   9.492  1.5824 -1.4040 -1.9256
  970MOL0     H27985   8.970  10.819   9.343  0.6713 -0.4011 -0.5879
  970MOL0     H27986   8.927  10.753   9.506 -1.2099  0.4798 -1.4978
  970MOL0     H27987   8.919  10.513   9.388  0.1179  0.5053  0.0823
  970MOL0     H27988   8.980  10.597   9.252  0.0538  0.1680  0.2553
  970MOL0     H27989   8.773  10.745   9.228  3.1931  0.9188  0.2845
  970MOL0     H27990   8.748  10.580   9.196  2.2504  2.0887 -2.1426
  970MOL0     H27991   8.692  10.683   9.479 -0.7858 -0.3301  0.4839
  970MOL0     H27992   8.669  10.525   9.414  4.0822 -0.3853 -1.4261
  970MOL0     H27993   8.459  10.539   9.186 -3.8680  0.5843  0.0041
  970MOL0     H27994   8.246  10.665   9.033 -1.7215  2.2898 -0.7082
  970MOL0     H27995   8.188  10.810   9.106 -1.7247  0.1258 -0.5228
  970MOL0     H27996   8.100  10.652   9.306 -1.6474 -1.6782 -0.3699
  970MOL0     H27997   8.155  10.527   9.209 -0.1658 -0.0557 -0.2580
  970MOL0     H27998   7.991  10.619   9.017  1.3757  1.0181  0.1268
  970MOL0     H27999   7.927  10.537   9.164  1.5097 -0.4392  0.0968
  970MOL0     H28000   7.954  10.850   9.149  2.0547 -0.7571  2.3599
  970MOL0     H28001   7.836  10.759   9.242 -0.1348 -1.3513 -0.2648
  970MOL0     H28002   7.746  10.963   9.212 -0.2008 -0.0996  0.6436
  970MOL0     H28003   7.510  11.080   9.210  0.3794 -0.3114  1.1869
  970MOL0     H28004   7.196  11.218   9.332 -0.0227 -1.1694 -1.1496
  970MOL0     H28005   6.979  11.335   9.359 -1.3634 -3.2270 -0.7974
  970MOL0     H28006   6.852  11.539   9.348 -3.2237  4.5709 -0.1689
  970MOL0     H28007   6.736  11.409   9.313  0.4194 -0.4703  0.7594
  970MOL0     H28008   6.611  11.575   9.158 -0.8096 -0.4275  1.3062
  970MOL0     H28009   6.716  11.696   9.231  0.5260  0.5519  2.1338
  970MOL0     H28010   6.511  11.697   9.350  0.1942  1.2569  0.3871
  970MOL0     H28011   6.630  11.628   9.459 -2.3971 -2.0000  1.2209
  970MOL0     H28012   6.454  11.470   9.275  1.4511 -0.4284 -0.9289
  970MOL0     H28013   6.543  11.410   9.415 -0.1829 -0.7765 -1.1376
  970MOL0     H28014   6.318  11.610   9.444 -1.3106 -0.8765 -1.0700
  970MOL0     H28015   6.401  11.503   9.563 -0.4394 -2.3002  0.6619
  970MOL0     H28016   6.305  11.297   9.435 -2.0126 -1.7506 -0.2119
  970MOL0     H28017   6.224  11.399   9.332 -0.8086 -3.0225  1.0726
  970MOL0     H28018   6.172  11.399   9.637 -2.0809  1.4373  0.5813
  970MOL0     H28019   6.078  11.485   9.510 -0.8137 -0.2635 -2.4067
  970MOL0     H28020   6.010  11.276   9.622  1.1142 -2.4712  0.4314
  970MOL0     H28021   6.095  11.170   9.516 -0.8478 -0.0700 -2.0741
  970MOL0     H28022   6.977  11.393   8.928 -0.7300 -0.0426  1.2165
  970MOL0     H28023   7.189  11.271   8.921  0.0912  0.3048  0.9941
  970MOL0     H28024   7.405  10.878   8.852 -0.6197  3.4068 -0.3657
  970MOL0     H28025   7.632  10.762   8.858  1.5031  0.5246  0.5206
  970MOL0     H28026   9.846  10.721   9.549 -1.0862  0.3970  1.0521
  970MOL0     H28027  10.057  10.860   9.579  0.4354 -0.8856  0.3177
  970MOL0     H28028  10.424  11.171   9.333  0.2906  2.1989 -0.2120
  970MOL0     H28029  10.619  11.244   9.406  2.7163  2.7653  3.2407
  970MOL0     H28030  10.814  11.311   9.478 -0.1732  2.1908  1.0286
  970MOL0     H28031  10.795  11.173   9.592  1.3918 -0.5123 -2.1287
  970MOL0     H28032  10.911  11.312   9.770  3.7364  0.9273  0.8592
  970MOL0     H28033  11.000  11.255   9.624 -0.7965  0.2582 -2.2773
  970MOL0     H28034  10.875  11.528   9.653 -0.6161  0.7317 -0.8617
  970MOL0     H28035  10.989  11.475   9.530  1.3375 -1.8200  0.2650
  970MOL0     H28036  11.105  11.618   9.718  2.3896 -0.6431  0.7204
  970MOL0     H28037  11.060  11.491   9.832  1.0478  1.1127  0.6720
  970MOL0     H28038  11.355  11.281   9.617  0.9564  0.2225  0.1096
  970MOL0     H28039  10.482  11.286   9.806 -0.4754  1.1380 -0.6395
  970MOL0     H28040  10.259  11.208   9.736  1.5787 -2.0430  1.0395
  971MOL0     O28041   3.536  10.912   8.029 -0.5205  0.3177 -0.1114
  971MOL0     C28042   3.621  10.848   8.091  0.4896  0.0049  0.9480
  971MOL0     O28043   3.614  10.716   8.121  0.3014 -0.3178  0.7675
  971MOL0     C28044   3.501  10.639   8.125  0.2377  0.8829  0.8305
  971MOL0     C28045   3.516  10.493   8.118 -0.2281 -0.3349 -0.0165
  971MOL0     C28046   3.415  10.402   8.119  0.0792 -0.2971  0.4376
  971MOL0     C28047   3.283  10.455   8.117 -0.0039 -0.7873  0.8145
  971MOL0     O28048   3.171  10.379   8.121  0.1207 -0.1537 -0.6271
  971MOL0     C28049   3.128  10.340   8.255  0.0181  0.3148  0.2919
  971MOL0     C28050   2.971  10.320   8.252  0.4661  0.3242  0.3309
  971MOL0     C28051   2.917  10.225   8.354  0.4329 -0.8218 -0.3742
  971MOL0     C28052   2.763  10.248   8.375 -0.7018  0.2345  0.9689
  971MOL0     C28053   2.684  10.145   8.296 -0.5621 -0.0902  1.2719
  971MOL0     C28054   2.536  10.190   8.286 -0.3758  0.1643  0.0325
  971MOL0     C28055   2.450  10.075   8.252  0.4241  0.1371 -0.5491
  971MOL0     C28056   2.314  10.118   8.215  0.8260  0.6594 -0.0667
  971MOL0     N28057   2.238  10.195   8.311  0.0661 -0.4410 -0.1285
  971MOL0     C28058   2.148  10.146   8.407  1.0020  0.0978 -0.0206
  971MOL0     C28059   2.120  10.258   8.485 -0.9538  0.2174 -0.2378
  971MOL0     C28060   2.050  10.278   8.616 -0.0986  0.0332  0.0573
  971MOL0     C28061   1.961  10.155   8.661 -0.1162 -0.6053  0.3109
  971MOL0     C28062   1.892  10.150   8.790 -0.3560  1.0064 -0.2121
  971MOL0     C28063   1.991  10.163   8.909 -0.5017  0.6967  0.1835
  971MOL0     O28064   1.907  10.159   9.021  0.1831 -0.6515  0.4773
  971MOL0     C28065   1.960  10.120   9.148 -0.2339  1.1605 -0.5677
  971MOL0     C28066   1.878  10.129   9.257  0.2466  0.0546 -0.4396
  971MOL0     C28067   1.927  10.100   9.389 -0.6904 -0.6943 -0.5552
  971MOL0     C28068   2.068  10.065   9.409  0.3108  0.9451 -0.3291
  971MOL0     C28069   2.112  10.014   9.549 -0.0807 -0.6337  0.6443
  971MOL0     O28070   2.244   9.962   9.551  0.4366 -0.8608 -0.3017
  971MOL0     C28071   2.286   9.902   9.670 -0.2829  0.2241 -0.0603
  971MOL0     C28072   2.419   9.880   9.667 -0.0604  0.4427 -0.0282
  971MOL0     C28073   2.488   9.842   9.781  0.6610 -0.2630 -0.8663
  971MOL0     C28074   2.426   9.808   9.900  0.1387  0.0509  0.0915
  971MOL0     O28075   2.492   9.756  10.006  0.1179 -0.0353 -0.1722
  971MOL0     C28076   2.616   9.821  10.043 -0.2421  0.4795 -0.3408
  971MOL0     C28077   2.693   9.745  10.144 -0.5629  0.9170 -0.5581
  971MOL0     C28078   2.843   9.792  10.151 -0.2626 -0.6121  0.0421
  971MOL0     C28079   2.855   9.945  10.179 -0.0502  0.4418 -0.5288
  971MOL0     C28080   3.005   9.987  10.175  0.1682 -0.0596  0.1106
  971MOL0     C28081   3.022  10.122  10.245  0.5348 -0.3693  0.2689
  971MOL0     C28082   3.160  10.179  10.205 -0.2493 -0.6193  0.4186
  971MOL0     C28083   3.278  10.083  10.235 -0.6421 -0.2059  0.8581
  971MOL0    Cl28084   3.429  10.190  10.220  0.1535 -0.4917 -0.0514
  971MOL0     C28085   2.287   9.833   9.903  0.1811  0.4846 -0.2579
  971MOL0     C28086   2.225   9.882   9.792  0.0512 -0.7619  0.4506
  971MOL0     O28087   2.033  10.031   9.640 -0.2331 -0.1749 -0.2275
  971MOL0     C28088   2.149  10.064   9.293  0.6038  0.3236  0.5296
  971MOL0     C28089   2.099  10.089   9.164  0.1331  0.6719 -0.0024
  971MOL0     N28090   2.189  10.365   8.435  0.6024  0.5017  0.4728
  971MOL0     N28091   2.256  10.330   8.329 -0.0855  0.2399  0.0557
  971MOL0     C28092   3.260  10.593   8.114  0.4766 -0.1240 -0.0201
  971MOL0     C28093   3.367  10.683   8.121  0.2122 -0.9396 -0.2315
  971MOL0     C28094   3.754  10.916   8.115 -0.8217  0.8145 -0.5152
  971MOL0     C28095   3.829  10.865   8.226 -0.3334 -0.7055  1.0287
  971MOL0     C28096   3.944  10.931   8.255 -0.2309  0.8249  0.4433
  971MOL0     C28097   4.008  11.030   8.171  0.7025 -0.3320 -0.2070
  971MOL0     O28098   4.123  11.085   8.232  0.0910 -0.5189  0.4970
  971MOL0     C28099   4.219  11.126   8.135 -0.5023 -0.0299  0.8425
  971MOL0     C28100   4.351  11.151   8.200  0.1660  0.0801  0.0441
  971MOL0     C28101   4.360  11.288   8.252 -0.1668  0.2121 -0.5838
  971MOL0     C28102   4.493  11.321   8.330  0.5639 -0.3986  0.2818
  971MOL0     C28103   4.615  11.330   8.241  0.5260 -0.1746  0.3620
  971MOL0     C28104   4.714  11.348   8.169  0.7776  0.1292  0.8117
  971MOL0     C28105   3.941  11.056   8.051  0.6306  1.5127 -0.5466
  971MOL0     C28106   3.809  11.006   8.021  0.5492  0.6347  0.0149
  971MOL0     H28107   3.614  10.447   8.115 -0.2844 -0.4959  0.5969
  971MOL0     H28108   3.417  10.294   8.113 -2.9288 -0.3497 -2.1406
  971MOL0     H28109   3.162  10.406   8.335  0.1826  0.0499  0.4459
  971MOL0     H28110   3.175  10.243   8.276 -0.5708 -0.2059 -0.7093
  971MOL0     H28111   2.947  10.285   8.151 -0.7511 -0.3516  0.8225
  971MOL0     H28112   2.923  10.417   8.266  0.9130  0.3982  1.4228
  971MOL0     H28113   2.968  10.244   8.449  0.2957 -0.4548 -0.3702
  971MOL0     H28114   2.925  10.119   8.329 -1.8888 -1.3940  1.0463
  971MOL0     H28115   2.750  10.220   8.480 -0.4290 -0.2622  0.8712
  971MOL0     H28116   2.720  10.348   8.361 -1.8529 -0.3668 -0.0029
  971MOL0     H28117   2.701  10.052   8.352  1.7242 -0.5868 -0.1157
  971MOL0     H28118   2.727  10.138   8.196 -1.2430 -1.1809  1.0370
  971MOL0     H28119   2.527  10.267   8.208 -0.8949  0.8209  0.7348
  971MOL0     H28120   2.502  10.232   8.380 -1.7496  2.6330 -1.4575
  971MOL0     H28121   2.495  10.018   8.170  0.6237  1.8667 -1.6768
  971MOL0     H28122   2.450  10.009   8.340  1.7208 -1.2999 -1.5787
  971MOL0     H28123   2.261  10.027   8.185  1.1548  1.3186 -2.9018
  971MOL0     H28124   2.312  10.175   8.121 -1.1447  2.6705  1.1093
  971MOL0     H28125   2.113  10.044   8.418  1.3008  0.2006  2.4300
  971MOL0     H28126   1.994  10.372   8.607 -1.0060 -0.0161  3.7453
  971MOL0     H28127   2.121  10.310   8.693  1.1126  0.0579 -1.0165
  971MOL0     H28128   2.027  10.068   8.651  0.5398  0.0518 -1.6908
  971MOL0     H28129   1.885  10.140   8.583  1.2832 -0.1955 -1.2085
  971MOL0     H28130   1.815  10.228   8.796 -0.8626  0.7748 -2.6163
  971MOL0     H28131   1.842  10.053   8.797 -0.7406  0.9994 -2.3327
  971MOL0     H28132   2.050  10.255   8.901 -0.9617  1.1047  1.2841
  971MOL0     H28133   2.042  10.066   8.914 -3.9822 -1.2509  1.3385
  971MOL0     H28134   1.773  10.149   9.244 -0.0776 -0.8344  0.6687
  971MOL0     H28135   1.864  10.118   9.475  0.9837 -1.6349  0.9485
  971MOL0     H28136   2.479   9.899   9.578  1.0351 -0.2424  0.5437
  971MOL0     H28137   2.596   9.833   9.774  0.8513  1.0427 -0.0227
  971MOL0     H28138   2.589   9.915  10.093  2.1476  0.4855  1.0485
  971MOL0     H28139   2.678   9.847   9.956 -0.8468 -0.1321 -0.9693
  971MOL0     H28140   2.688   9.638  10.118  0.3076  0.4661  0.9925
  971MOL0     H28141   2.650   9.766  10.242  0.5498  0.1303  0.1356
  971MOL0     H28142   2.898   9.780  10.057 -3.8171 -1.9160 -2.0646
  971MOL0     H28143   2.895   9.735  10.229  0.1169  1.5588  1.4620
  971MOL0     H28144   2.798  10.010  10.112  0.4194  0.9196 -0.4691
  971MOL0     H28145   2.821   9.953  10.283 -0.0327  0.9117 -0.5541
  971MOL0     H28146   3.035   9.998  10.071  2.9315  1.7724  0.9842
  971MOL0     H28147   3.066   9.904  10.213 -0.8319 -0.4465  0.9512
  971MOL0     H28148   3.002  10.118  10.353 -1.3140 -1.3225 -0.0542
  971MOL0     H28149   2.943  10.186  10.203  0.5751 -1.7845 -2.1741
  971MOL0     H28150   3.164  10.198  10.098 -1.0723 -3.7005 -0.2484
  971MOL0     H28151   3.164  10.276  10.255 -2.9701 -0.2032 -0.0267
  971MOL0     H28152   3.276   9.998  10.168  0.0793  0.6593 -0.2942
  971MOL0     H28153   3.265  10.044  10.337 -1.4905  0.8961  1.1901
  971MOL0     H28154   2.238   9.829  10.000  2.6743 -1.4169  1.0810
  971MOL0     H28155   2.119   9.904   9.804  0.2640 -1.0138  3.8127
  971MOL0     H28156   2.252  10.031   9.298  1.1065  1.1998 -2.2197
  971MOL0     H28157   2.171  10.084   9.083  1.9930 -2.2739  1.6464
  971MOL0     H28158   3.160  10.634   8.100 -0.2407 -0.9422  2.2909
  971MOL0     H28159   3.355  10.791   8.124 -0.3775 -1.0131  2.0596
  971MOL0     H28160   3.800  10.788   8.296 -1.2091 -1.8384 -0.4931
  971MOL0     H28161   3.991  10.928   8.353  0.2473  2.4226  0.2791
  971MOL0     H28162   4.190  11.222   8.093 -1.8397 -0.2483  1.2112
  971MOL0     H28163   4.230  11.049   8.057 -2.3702  0.8439 -0.3328
  971MOL0     H28164   4.360  11.093   8.293 -0.0257  0.4866  0.3199
  971MOL0     H28165   4.437  11.129   8.136  1.2254  2.8055  0.3988
  971MOL0     H28166   4.277  11.327   8.312  1.9334  2.4555  1.0834
  971MOL0     H28167   4.352  11.362   8.172 -1.8620  2.1067  1.1905
  971MOL0     H28168   4.480  11.416   8.382 -2.8421  0.1863 -1.3281
  971MOL0     H28169   4.515  11.245   8.405  0.8235 -0.9524 -0.3371
  971MOL0     H28170   4.797  11.348   8.101  0.6986 -0.0660  0.7136
  971MOL0     H28171   3.978  11.130   7.981  1.2429  0.4953 -1.3201
  971MOL0     H28172   3.756  11.033   7.930  0.1208  0.0645  0.0934
  972MOL0     O28173   8.564   1.759   8.040  0.4437  0.1278  0.0978
  972MOL0     C28174   8.597   1.859   7.974 -0.0803 -0.0440  0.3127
  972MOL0     O28175   8.558   1.987   7.997 -0.5119  0.6441 -0.2613
  972MOL0     C28176   8.491   2.006   8.116  0.8337 -0.5087  0.8956
  972MOL0     C28177   8.556   2.029   8.237 -0.1071  0.3689 -0.0227
  972MOL0     C28178   8.482   2.035   8.359  0.1578 -0.6244 -0.3130
  972MOL0     C28179   8.345   2.012   8.363 -0.6959  0.0492  0.4994
  972MOL0     O28180   8.282   2.015   8.485  0.3713  0.2525  0.2784
  972MOL0     C28181   8.140   1.963   8.488  0.7147  0.8975 -0.2349
  972MOL0     C28182   8.086   1.954   8.632 -0.1639  0.2305 -0.0245
  972MOL0     C28183   8.191   1.896   8.725  0.1215  0.5683  0.0451
  972MOL0     C28184   8.156   1.749   8.766 -0.5960 -0.6914  0.0026
  972MOL0     C28185   8.263   1.678   8.848  0.3562  0.4562  0.2831
  972MOL0     C28186   8.206   1.536   8.894  0.5649 -0.6499 -0.5413
  972MOL0     C28187   8.309   1.483   8.988  0.1789 -0.3686 -0.5653
  972MOL0     C28188   8.379   1.364   8.937  0.1430  0.2360  0.0769
  972MOL0     N28189   8.290   1.244   8.927  1.0024  0.3440 -0.9947
  972MOL0     C28190   8.234   1.177   9.033 -0.2818 -0.6311  0.3611
  972MOL0     C28191   8.159   1.084   8.970 -0.4683 -0.2390  0.1170
  972MOL0     C28192   8.091   0.974   9.039 -0.4512 -0.0122 -0.7423
  972MOL0     C28193   7.936   0.974   9.017  0.1850 -0.3228  0.6348
  972MOL0     C28194   7.869   1.115   9.054 -0.5303 -0.3374  0.3438
  972MOL0     C28195   7.720   1.131   9.037  0.2514 -0.0151  0.3339
  972MOL0     O28196   7.674   1.245   9.123 -0.2722 -0.1425  0.5331
  972MOL0     C28197   7.531   1.266   9.138  0.2389  0.0549 -0.3131
  972MOL0     C28198   7.427   1.183   9.084  1.1867 -0.0308 -0.1664
  972MOL0     C28199   7.289   1.203   9.101  0.4171  0.0011 -0.2415
  972MOL0     C28200   7.246   1.318   9.170 -0.6711  0.0595  0.1417
  972MOL0     C28201   7.109   1.343   9.195 -0.0772  1.0167 -0.9843
  972MOL0     O28202   7.018   1.238   9.176  0.6146 -0.4624 -0.2924
  972MOL0     C28203   6.890   1.250   9.221  0.1512  0.7825  0.9645
  972MOL0     C28204   6.792   1.275   9.118  0.3227 -0.9838 -0.3892
  972MOL0     C28205   6.661   1.294   9.166 -0.3517  0.3978  0.5747
  972MOL0     C28206   6.627   1.293   9.304 -0.3717 -0.6212 -0.3777
  972MOL0     O28207   6.500   1.300   9.352 -0.2240 -0.5661  0.0598
  972MOL0     C28208   6.406   1.198   9.304  0.2779  0.9672 -0.0970
  972MOL0     C28209   6.259   1.231   9.336 -0.3704  0.0893  0.4828
  972MOL0     C28210   6.169   1.149   9.241 -0.2078 -0.3652  0.2976
  972MOL0     C28211   6.015   1.154   9.273  0.1888  0.7056 -0.0750
  972MOL0     C28212   5.934   1.055   9.187 -0.3232 -0.4341 -0.5754
  972MOL0     C28213   5.788   1.058   9.231  0.5749 -0.0731  0.5245
  972MOL0     C28214   5.758   0.935   9.307  0.2710 -0.5998  0.2026
  972MOL0     C28215   5.653   0.855   9.236 -0.1249  0.1292  0.2114
  972MOL0    Cl28216   5.734   0.772   9.096 -0.0251  0.0855  0.1075
  972MOL0     C28217   6.723   1.267   9.399 -0.2439  0.0548 -0.6686
  972MOL0     C28218   6.856   1.243   9.358 -0.1852  0.3061  0.1900
  972MOL0     O28219   7.072   1.452   9.225 -0.0100  0.7778  0.4527
  972MOL0     C28220   7.353   1.399   9.228 -0.3431 -0.4980 -1.0739
  972MOL0     C28221   7.489   1.380   9.210  0.4924  0.3413 -0.2152
  972MOL0     N28222   8.179   1.089   8.832  0.2932 -0.0710  0.1597
  972MOL0     N28223   8.267   1.175   8.815 -0.4753 -0.0234  0.1907
  972MOL0     C28224   8.284   1.990   8.233  0.3957  0.2645  0.1326
  972MOL0     C28225   8.352   1.986   8.115  0.1142 -0.5996  0.5371
  972MOL0     C28226   8.676   1.828   7.855  0.2862  0.3709 -0.6522
  972MOL0     C28227   8.731   1.699   7.838  0.6574  0.4697  0.0555
  972MOL0     C28228   8.813   1.674   7.732 -1.5341  0.2872 -0.0859
  972MOL0     C28229   8.834   1.766   7.627  0.3762  0.6400  0.5975
  972MOL0     O28230   8.930   1.734   7.532 -0.4164 -0.0766  0.2190
  972MOL0     C28231   8.908   1.788   7.404  0.0025 -0.7704  0.4651
  972MOL0     C28232   8.940   1.684   7.297 -0.1708 -0.7637 -0.3834
  972MOL0     C28233   9.059   1.720   7.219 -0.1292  0.4128  0.6258
  972MOL0     C28234   9.183   1.713   7.304  0.0925 -0.4141 -0.3412
  972MOL0     C28235   9.303   1.753   7.222 -0.7360  0.1513 -0.5114
  972MOL0     C28236   9.409   1.779   7.154 -0.1366 -0.0745  0.1260
  972MOL0     C28237   8.767   1.883   7.641  0.1951 -0.2505 -0.3466
  972MOL0     C28238   8.701   1.922   7.756 -0.4661 -0.2011 -0.7580
  972MOL0     H28239   8.663   2.046   8.241 -0.2838  1.4051  3.4216
  972MOL0     H28240   8.528   2.046   8.456  0.7054  1.9646 -0.7734
  972MOL0     H28241   8.137   1.861   8.448 -0.5967  0.1311  1.6856
  972MOL0     H28242   8.075   2.031   8.432 -0.8715  0.3250  0.8607
  972MOL0     H28243   7.987   1.908   8.639 -2.1487  4.2005  1.4160
  972MOL0     H28244   8.062   2.054   8.668  0.4653 -0.1790  1.5920
  972MOL0     H28245   8.189   1.953   8.818 -1.4072 -1.2634  1.2233
  972MOL0     H28246   8.293   1.908   8.688 -0.1717  0.5310 -0.7826
  972MOL0     H28247   8.071   1.757   8.833  0.0524 -1.1002  0.8990
  972MOL0     H28248   8.130   1.681   8.683  0.1248 -2.4672  1.1640
  972MOL0     H28249   8.283   1.738   8.937  2.9407 -1.0434  0.8430
  972MOL0     H28250   8.357   1.662   8.793  0.9480  0.3423  1.2976
  972MOL0     H28251   8.194   1.465   8.812 -0.7711  1.6042 -2.4564
  972MOL0     H28252   8.102   1.536   8.927  1.2267 -1.8156  1.7322
  972MOL0     H28253   8.384   1.562   8.997 -1.1331  1.5240 -4.2357
  972MOL0     H28254   8.257   1.463   9.082  1.2362  2.2105  0.6722
  972MOL0     H28255   8.471   1.344   8.993 -0.4699 -1.0582  0.6755
  972MOL0     H28256   8.412   1.390   8.836 -1.4943 -0.2160 -0.6081
  972MOL0     H28257   8.261   1.186   9.138  0.9555  0.0367  0.0108
  972MOL0     H28258   8.098   0.977   9.148 -1.8574  1.1498 -0.6523
  972MOL0     H28259   8.135   0.878   9.010  2.8156  0.8895  0.7731
  972MOL0     H28260   7.890   0.899   9.082  0.6256 -1.4566 -0.3149
  972MOL0     H28261   7.912   0.937   8.917 -0.4845 -1.9640  1.3733
  972MOL0     H28262   7.885   1.134   9.161  0.6758  0.9984 -0.0398
  972MOL0     H28263   7.918   1.195   8.998 -0.8645 -1.2776 -1.3396
  972MOL0     H28264   7.663   1.044   9.071 -0.6064  0.0175 -0.9448
  972MOL0     H28265   7.696   1.155   8.933  0.6199  0.3333  0.3298
  972MOL0     H28266   7.451   1.094   9.027 -1.6913 -1.1980  0.2963
  972MOL0     H28267   7.222   1.135   9.050  1.5817 -2.3187  1.1408
  972MOL0     H28268   6.824   1.276   9.014 -2.2274 -0.8202 -1.2254
  972MOL0     H28269   6.587   1.311   9.088  0.9396 -0.3477 -0.8529
  972MOL0     H28270   6.432   1.100   9.346  0.9543  0.1574 -2.2757
  972MOL0     H28271   6.417   1.187   9.196 -2.2852  2.0638 -0.5321
  972MOL0     H28272   6.242   1.339   9.332 -0.3632  0.0468 -1.7032
  972MOL0     H28273   6.259   1.200   9.441  3.6511  1.6837  1.1814
  972MOL0     H28274   6.201   1.044   9.243  0.5977 -0.1383 -0.3496
  972MOL0     H28275   6.182   1.177   9.137 -2.1362 -0.8964 -0.1302
  972MOL0     H28276   5.987   1.134   9.377  0.8054 -1.3817 -0.2715
  972MOL0     H28277   5.975   1.255   9.256 -2.2133  0.6678  4.0810
  972MOL0     H28278   5.972   0.952   9.185 -1.9586 -1.2096 -5.3665
  972MOL0     H28279   5.934   1.083   9.081 -0.9976  0.5109 -0.3388
  972MOL0     H28280   5.731   1.049   9.138  2.0704 -0.7304 -0.3674
  972MOL0     H28281   5.763   1.150   9.285 -0.1305 -0.7379  1.3633
  972MOL0     H28282   5.844   0.879   9.346  0.9869  2.5446  3.6739
  972MOL0     H28283   5.715   0.969   9.401 -0.4840  0.8572 -0.6376
  972MOL0     H28284   5.569   0.913   9.198 -0.1652 -0.7658 -1.1294
  972MOL0     H28285   5.625   0.780   9.311  1.1706  0.9598  1.6014
  972MOL0     H28286   6.690   1.269   9.502  1.0798 -3.2197 -0.0524
  972MOL0     H28287   6.934   1.226   9.431 -0.0889 -0.8394 -0.1536
  972MOL0     H28288   7.321   1.490   9.279  0.0788  0.7023 -2.8557
  972MOL0     H28289   7.563   1.449   9.247  2.0910 -0.5639 -1.5804
  972MOL0     H28290   8.176   1.981   8.227  0.4801 -0.0662 -1.0449
  972MOL0     H28291   8.293   1.960   8.027 -0.9959 -1.2137  1.4365
  972MOL0     H28292   8.715   1.621   7.913 -0.4119  0.0480 -0.5845
  972MOL0     H28293   8.871   1.582   7.726  1.3300  1.8543  1.5411
  972MOL0     H28294   8.972   1.877   7.408  0.5008 -1.1546  1.1737
  972MOL0     H28295   8.807   1.827   7.390  0.2604 -0.3118 -0.1788
  972MOL0     H28296   8.964   1.590   7.348  0.6776  0.1144  0.9012
  972MOL0     H28297   8.861   1.675   7.222 -1.8351 -0.0245  1.2161
  972MOL0     H28298   9.051   1.818   7.171 -1.8384  0.3825  0.7986
  972MOL0     H28299   9.070   1.644   7.141  1.5770  0.9608  0.2893
  972MOL0     H28300   9.169   1.785   7.385  2.5891  1.5435 -1.4938
  972MOL0     H28301   9.199   1.611   7.340  1.6212  0.1389  0.6039
  972MOL0     H28302   9.498   1.790   7.095  0.6200  1.0246  1.4269
  972MOL0     H28303   8.790   1.953   7.561 -0.1786 -1.8183 -1.9011
  972MOL0     H28304   8.662   2.023   7.755 -0.4349 -0.1927 -1.2971
  973MOL0     O28305  11.079   8.914   1.604  0.4295 -0.0837 -0.1851
  973MOL0     C28306  11.157   8.918   1.699 -1.0172  0.1111  0.1228
  973MOL0     O28307  11.140   8.978   1.815  0.3929  0.2100 -0.6485
  973MOL0     C28308  11.042   9.074   1.816 -0.4114  0.5571 -0.4095
  973MOL0     C28309  11.043   9.188   1.732 -1.0832  0.4207  1.2250
  973MOL0     C28310  10.959   9.302   1.758 -0.5617 -0.3740 -0.4944
  973MOL0     C28311  10.872   9.299   1.866  0.5546  0.3208  0.1454
  973MOL0     O28312  10.787   9.400   1.900 -0.0350 -0.4480 -0.7692
  973MOL0     C28313  10.757   9.501   1.806  0.0742 -1.1015  0.5850
  973MOL0     C28314  10.667   9.606   1.872  0.1709  0.8532  0.5048
  973MOL0     C28315  10.524   9.560   1.856 -0.6187  0.2502  0.1082
  973MOL0     C28316  10.421   9.661   1.897 -0.0357 -0.7448 -0.0024
  973MOL0     C28317  10.290   9.596   1.923 -0.0048  0.3794 -0.4060
  973MOL0     C28318  10.178   9.700   1.933  0.0187  0.4748  0.6725
  973MOL0     C28319  10.040   9.633   1.947 -0.3472 -0.4005  0.6513
  973MOL0     C28320   9.939   9.753   1.939  0.4042  0.2265  0.0226
  973MOL0     N28321   9.792   9.722   1.954 -0.4246  0.0616 -0.1798
  973MOL0     C28322   9.711   9.779   2.049 -0.2609 -0.5092  0.1087
  973MOL0     C28323   9.582   9.760   1.988 -0.4726 -0.3017 -0.0826
  973MOL0     C28324   9.453   9.816   2.054  0.7993 -0.2859  0.4131
  973MOL0     C28325   9.339   9.810   1.954 -0.4523  0.3689 -0.4505
  973MOL0     C28326   9.200   9.815   2.019 -1.1658 -0.3031 -0.5885
  973MOL0     C28327   9.099   9.784   1.908  0.9412  0.2680 -0.5800
  973MOL0     O28328   8.968   9.793   1.956 -0.6584 -0.1827  0.5110
  973MOL0     C28329   8.864   9.723   1.895 -0.6495  0.3549  0.5488
  973MOL0     C28330   8.852   9.673   1.766  0.3279  0.9204  0.6784
  973MOL0     C28331   8.731   9.627   1.707 -0.0395 -0.4690  0.2506
  973MOL0     C28332   8.613   9.627   1.783  0.0375 -0.2659  0.2262
  973MOL0     C28333   8.479   9.588   1.735  0.5429  0.2824 -0.9562
  973MOL0     O28334   8.476   9.536   1.612  0.2491  0.3224 -0.5862
  973MOL0     C28335   8.353   9.519   1.553  0.1875  0.1678 -0.8176
  973MOL0     C28336   8.341   9.532   1.418 -0.2036  0.2555 -0.0400
  973MOL0     C28337   8.225   9.498   1.351 -0.4152 -0.5034 -0.4332
  973MOL0     C28338   8.117   9.434   1.418  0.0950  0.4151  0.2544
  973MOL0     O28339   8.008   9.394   1.346 -0.0617 -0.3514 -0.2895
  973MOL0     C28340   7.897   9.358   1.430 -0.0831 -0.4717  0.3507
  973MOL0     C28341   7.779   9.327   1.341  0.1305  0.2773 -0.6507
  973MOL0     C28342   7.649   9.261   1.408 -0.7056 -0.2817  0.7739
  973MOL0     C28343   7.540   9.234   1.298 -0.0606 -0.2751 -0.0248
  973MOL0     C28344   7.414   9.164   1.360 -0.6314  0.4633 -0.2649
  973MOL0     C28345   7.326   9.101   1.253  0.3183  0.9957 -0.2729
  973MOL0     C28346   7.185   9.062   1.310 -0.5913 -0.7586 -0.1239
  973MOL0     C28347   7.125   8.960   1.215 -0.4869 -0.0632  0.4721
  973MOL0    Cl28348   6.953   8.936   1.254 -0.3459  0.0763  0.0844
  973MOL0     C28349   8.128   9.418   1.555 -1.2704  0.5067 -0.1689
  973MOL0     C28350   8.241   9.467   1.618 -0.7842 -0.3255  0.1476
  973MOL0     O28351   8.382   9.614   1.808  0.3361  0.3793 -0.5747
  973MOL0     C28352   8.626   9.667   1.918  0.8739 -0.4164  0.4529
  973MOL0     C28353   8.749   9.709   1.972 -0.4770 -0.8205 -0.1614
  973MOL0     N28354   9.585   9.687   1.880 -0.8092  0.0468 -0.2747
  973MOL0     N28355   9.715   9.667   1.862 -0.8129  0.5507  0.2511
  973MOL0     C28356  10.874   9.187   1.951  0.2849  0.1804 -0.4491
  973MOL0     C28357  10.951   9.072   1.921  0.5592  0.0199 -1.0634
  973MOL0     C28358  11.286   8.859   1.669  0.4588  0.1944  0.7522
  973MOL0     C28359  11.307   8.786   1.547  0.0752 -0.3422  0.0312
  973MOL0     C28360  11.427   8.729   1.515 -0.0490 -0.3407  0.5342
  973MOL0     C28361  11.539   8.755   1.601 -0.0446 -0.7657 -0.0367
  973MOL0     O28362  11.663   8.692   1.579 -0.4116 -0.4860 -0.2413
  973MOL0     C28363  11.729   8.762   1.465 -0.0828 -0.8000 -0.0553
  973MOL0     C28364  11.873   8.714   1.463  0.3239  0.3307 -0.2176
  973MOL0     C28365  11.874   8.559   1.450 -0.2563 -0.0094  0.6812
  973MOL0     C28366  12.016   8.508   1.409 -0.2950 -0.1286  0.5911
  973MOL0     C28367  12.112   8.486   1.520 -0.0059  0.3607  0.4655
  973MOL0     C28368  12.181   8.455   1.613 -0.1736  0.8990 -0.1172
  973MOL0     C28369  11.520   8.822   1.723  0.5413 -0.9459 -0.5223
  973MOL0     C28370  11.394   8.876   1.757 -0.4166  0.1819 -0.5128
  973MOL0     H28371  11.113   9.199   1.650 -1.4228  2.0217  1.1159
  973MOL0     H28372  10.962   9.387   1.691  0.3171  1.6799  1.9530
  973MOL0     H28373  10.713   9.466   1.712 -1.0198 -1.3077  1.1603
  973MOL0     H28374  10.852   9.544   1.772 -0.9110  2.2553  1.7925
  973MOL0     H28375  10.669   9.692   1.806  0.9584 -1.0405 -2.1098
  973MOL0     H28376  10.696   9.622   1.976  1.3111  1.4139  0.1208
  973MOL0     H28377  10.502   9.476   1.922 -1.6418  0.8334  0.5325
  973MOL0     H28378  10.504   9.540   1.751 -1.5563  1.8461 -0.0516
  973MOL0     H28379  10.454   9.713   1.987 -1.4758  0.9933 -0.4172
  973MOL0     H28380  10.405   9.738   1.820 -0.4530 -1.7185 -0.9155
  973MOL0     H28381  10.303   9.540   2.016  2.4085  0.8710 -0.3847
  973MOL0     H28382  10.255   9.530   1.843 -1.2762  1.6370 -0.9258
  973MOL0     H28383  10.178   9.756   1.839 -0.0301  0.9278  0.9439
  973MOL0     H28384  10.196   9.764   2.020 -1.9756 -0.2877  1.7276
  973MOL0     H28385  10.011   9.565   1.866  1.9763 -2.6021  1.5256
  973MOL0     H28386  10.027   9.578   2.041 -2.4478 -0.2266  0.5025
  973MOL0     H28387   9.951   9.812   1.847  0.0488  0.5059  0.1489
  973MOL0     H28388   9.972   9.826   2.014  3.8025 -1.5881  0.4752
  973MOL0     H28389   9.747   9.836   2.134  2.5334  2.5414 -2.8199
  973MOL0     H28390   9.488   9.915   2.084  0.4169 -0.6909  2.3340
  973MOL0     H28391   9.435   9.759   2.145 -0.6846 -0.4175  0.0605
  973MOL0     H28392   9.353   9.715   1.903  1.9230 -0.3962  1.4571
  973MOL0     H28393   9.349   9.888   1.878  1.0901  1.0442  0.3963
  973MOL0     H28394   9.190   9.738   2.096  1.5726  0.3161  0.4948
  973MOL0     H28395   9.186   9.916   2.059  1.1831  1.3858 -3.6239
  973MOL0     H28396   9.129   9.695   1.852  2.1797 -0.1493  0.6545
  973MOL0     H28397   9.100   9.859   1.829  1.8778 -1.4373 -2.2635
  973MOL0     H28398   8.937   9.685   1.700 -0.3762  0.3680 -0.3653
  973MOL0     H28399   8.714   9.594   1.605  0.6923 -0.8761  0.2544
  973MOL0     H28400   8.423   9.568   1.356 -0.8409  0.5700 -0.7296
  973MOL0     H28401   8.220   9.518   1.245  2.0081  1.1788 -0.3068
  973MOL0     H28402   7.864   9.452   1.476 -0.8852 -0.1602 -0.8181
  973MOL0     H28403   7.912   9.274   1.498  0.2691 -2.2103 -1.7659
  973MOL0     H28404   7.822   9.267   1.260  0.9627 -1.2918  0.8869
  973MOL0     H28405   7.743   9.421   1.299 -0.0229  0.3726 -0.3058
  973MOL0     H28406   7.608   9.316   1.493  0.5286 -1.3515  2.1094
  973MOL0     H28407   7.687   9.164   1.441  0.0522 -0.4121 -0.4051
  973MOL0     H28408   7.504   9.319   1.239  0.1385 -1.0233 -1.2528
  973MOL0     H28409   7.585   9.170   1.222  0.7574  2.4364 -1.9527
  973MOL0     H28410   7.361   9.246   1.408 -1.8417 -0.3729 -0.1377
  973MOL0     H28411   7.443   9.085   1.430  1.1553  0.5572 -0.8369
  973MOL0     H28412   7.375   9.016   1.204  0.8018  1.1410 -0.0527
  973MOL0     H28413   7.310   9.172   1.172 -0.4764  0.6336 -0.4375
  973MOL0     H28414   7.190   9.028   1.414 -2.6778 -0.2639  0.1833
  973MOL0     H28415   7.120   9.150   1.313  1.2238  0.6647 -0.3885
  973MOL0     H28416   7.172   8.862   1.219  0.0718  0.2021  0.5200
  973MOL0     H28417   7.136   9.013   1.119 -4.2129  2.5297  1.2240
  973MOL0     H28418   8.048   9.370   1.611 -1.0601 -1.6745 -1.6274
  973MOL0     H28419   8.237   9.451   1.726 -1.3553 -0.6899  0.0816
  973MOL0     H28420   8.539   9.660   1.984 -0.6839  2.5635 -1.1045
  973MOL0     H28421   8.757   9.751   2.072  2.3699 -0.1869 -0.5512
  973MOL0     H28422  10.818   9.190   2.044  0.3000 -0.5241 -0.4148
  973MOL0     H28423  10.953   8.989   1.991 -0.0584  0.6239 -0.3008
  973MOL0     H28424  11.234   8.769   1.468  1.8006 -1.9905 -1.2965
  973MOL0     H28425  11.443   8.671   1.425  0.7129 -1.0755  1.1307
  973MOL0     H28426  11.724   8.870   1.482 -0.2680 -0.6481 -1.0200
  973MOL0     H28427  11.689   8.741   1.366  2.3556  1.0880 -1.5693
  973MOL0     H28428  11.945   8.752   1.390 -1.2411  2.4290 -0.7669
  973MOL0     H28429  11.904   8.740   1.565 -0.0806  0.4560 -0.1256
  973MOL0     H28430  11.803   8.518   1.378  2.5818 -3.2810 -0.5386
  973MOL0     H28431  11.857   8.518   1.550  1.2694 -0.1318  0.9096
  973MOL0     H28432  12.002   8.408   1.367 -3.8640 -0.7532  2.8285
  973MOL0     H28433  12.051   8.574   1.329 -0.0272 -1.1981 -0.2022
  973MOL0     H28434  12.256   8.433   1.687 -2.7758 -2.8625  1.7258
  973MOL0     H28435  11.604   8.815   1.791  0.1677 -0.2381  0.0312
  973MOL0     H28436  11.370   8.928   1.849 -1.2433  1.5075 -1.4387
  974MOL0     O28437   6.398   4.288   4.457 -0.1122  0.3009 -0.3964
  974MOL0     C28438   6.476   4.325   4.542 -0.7411  0.1784  0.3473
  974MOL0     O28439   6.450   4.371   4.663 -0.4220  0.4042 -1.0940
  974MOL0     C28440   6.332   4.328   4.714 -0.0309  0.1603 -0.3400
  974MOL0     C28441   6.226   4.410   4.756 -0.3803  0.4240 -0.3487
  974MOL0     C28442   6.109   4.349   4.812  0.1477 -0.6853 -0.2207
  974MOL0     C28443   6.089   4.212   4.808  0.0111 -0.2951  0.2760
  974MOL0     O28444   5.972   4.145   4.845 -0.0104  0.3757  0.3889
  974MOL0     C28445   5.847   4.222   4.863 -0.3793  0.5258 -0.9442
  974MOL0     C28446   5.724   4.134   4.846  0.1575 -0.0560 -0.4202
  974MOL0     C28447   5.601   4.208   4.888  0.3373  0.3536 -0.0953
  974MOL0     C28448   5.476   4.116   4.909  0.2405  0.0925 -0.0960
  974MOL0     C28449   5.358   4.197   4.968 -0.0974 -0.2735 -0.7380
  974MOL0     C28450   5.255   4.093   5.028 -1.0817 -0.5257 -0.0997
  974MOL0     C28451   5.130   4.144   5.098  0.9121  0.8755 -0.6121
  974MOL0     C28452   5.150   4.265   5.189  0.6685 -0.6674  0.4951
  974MOL0     N28453   5.053   4.291   5.297  0.1261 -0.5868  0.3185
  974MOL0     C28454   4.947   4.379   5.282  0.9568 -0.9020 -0.4516
  974MOL0     C28455   4.857   4.356   5.385  0.7674  0.4157  0.3854
  974MOL0     C28456   4.730   4.433   5.424 -0.0398 -0.1303  0.5841
  974MOL0     C28457   4.647   4.487   5.307  0.3716 -0.8805  1.1692
  974MOL0     C28458   4.512   4.538   5.355  0.2946  0.4727  0.3272
  974MOL0     C28459   4.433   4.607   5.251 -0.2615 -1.3245 -0.2299
  974MOL0     O28460   4.391   4.508   5.155  0.5336 -0.6578 -0.2153
  974MOL0     C28461   4.258   4.481   5.142 -0.0794 -1.3781 -0.0218
  974MOL0     C28462   4.170   4.494   5.246 -0.3129  0.5746 -0.7788
  974MOL0     C28463   4.034   4.454   5.229  1.6408 -0.7762  0.6108
  974MOL0     C28464   3.986   4.409   5.105  0.0598  0.4879  0.7525
  974MOL0     C28465   3.855   4.342   5.096  0.6334  0.2188  0.6454
  974MOL0     O28466   3.816   4.306   4.965 -0.9645  0.2822  0.0050
  974MOL0     C28467   3.685   4.265   4.931 -0.6393  0.2633  0.2093
  974MOL0     C28468   3.564   4.278   4.997  0.8255  0.5378 -0.5025
  974MOL0     C28469   3.440   4.216   4.952 -0.1514  0.8163 -0.0863
  974MOL0     C28470   3.431   4.156   4.827 -1.3615 -0.1284  0.4678
  974MOL0     O28471   3.309   4.094   4.802 -0.1056  0.2853 -0.1001
  974MOL0     C28472   3.311   4.025   4.676 -0.3256 -0.0962  0.0168
  974MOL0     C28473   3.170   3.966   4.677  0.4389 -0.2331 -0.4424
  974MOL0     C28474   3.136   3.866   4.794  0.0831 -0.1332 -0.6256
  974MOL0     C28475   3.008   3.791   4.782 -0.4505  0.2925 -0.4830
  974MOL0     C28476   2.981   3.695   4.902  0.4878 -0.1724 -0.1652
  974MOL0     C28477   2.885   3.588   4.844  0.0776  0.4985 -0.6000
  974MOL0     C28478   2.752   3.643   4.806 -0.8281  0.1124 -0.2662
  974MOL0     C28479   2.640   3.549   4.806 -0.4778  0.7227 -1.0476
  974MOL0    Cl28480   2.663   3.412   4.688  0.0447 -0.5314 -0.1777
  974MOL0     C28481   3.555   4.142   4.757  0.4581  0.1948 -0.0131
  974MOL0     C28482   3.672   4.200   4.808 -0.2280  0.6941  0.0789
  974MOL0     O28483   3.783   4.340   5.196  0.7347  0.0637 -0.5527
  974MOL0     C28484   4.071   4.415   4.997  0.4242  0.0292 -0.0807
  974MOL0     C28485   4.207   4.455   5.014 -0.1418 -0.2292 -0.4843
  974MOL0     N28486   4.911   4.242   5.452  0.1126  0.6752  0.2604
  974MOL0     N28487   5.023   4.213   5.399 -0.2899  0.5910  1.0008
  974MOL0     C28488   6.201   4.138   4.784 -0.5122 -0.0276  0.0206
  974MOL0     C28489   6.316   4.194   4.738 -0.8795 -0.2320 -0.1085
  974MOL0     C28490   6.615   4.316   4.501  0.5459  0.5903 -0.3687
  974MOL0     C28491   6.655   4.261   4.375  0.0907  1.0739  0.5214
  974MOL0     C28492   6.788   4.268   4.333 -0.2032 -0.3088 -0.1796
  974MOL0     C28493   6.894   4.317   4.417 -1.0194 -0.1029  0.6782
  974MOL0     O28494   7.022   4.310   4.371 -0.4793  0.3111  0.7691
  974MOL0     C28495   7.129   4.335   4.458  0.6582  0.4639  0.2511
  974MOL0     C28496   7.262   4.329   4.389 -0.0972 -0.0566  0.1149
  974MOL0     C28497   7.376   4.372   4.481  0.5905  0.3755 -0.4240
  974MOL0     C28498   7.515   4.327   4.432  0.6217  0.0068 -0.0402
  974MOL0     C28499   7.619   4.344   4.541  0.4085  0.3690  0.0899
  974MOL0     C28500   7.688   4.351   4.641  0.3371  0.3799 -0.0935
  974MOL0     C28501   6.850   4.366   4.542 -0.3851 -0.0966  0.0715
  974MOL0     C28502   6.712   4.376   4.573 -1.0470 -0.1305  0.4799
  974MOL0     H28503   6.243   4.517   4.760  2.9254  0.0044 -1.0527
  974MOL0     H28504   6.044   4.424   4.857  0.6718 -1.2129  1.5094
  974MOL0     H28505   5.841   4.300   4.787 -1.5722 -0.8478 -2.3302
  974MOL0     H28506   5.851   4.260   4.965 -0.5305 -1.0344 -0.3356
  974MOL0     H28507   5.741   4.047   4.909  0.7824  0.9238  0.8067
  974MOL0     H28508   5.699   4.105   4.743 -3.2376  0.5457  0.1270
  974MOL0     H28509   5.589   4.281   4.807  0.1737  0.2752 -0.1421
  974MOL0     H28510   5.611   4.258   4.985 -1.9028 -0.3837  0.5710
  974MOL0     H28511   5.447   4.065   4.816  2.1888 -1.1690 -0.0707
  974MOL0     H28512   5.508   4.035   4.976 -0.1535  1.0558  1.2859
  974MOL0     H28513   5.308   4.254   4.889 -0.8574  1.2762  0.8002
  974MOL0     H28514   5.383   4.269   5.046  1.9378 -1.7511  0.0775
  974MOL0     H28515   5.309   4.033   5.103 -0.4674  0.2319  0.0724
  974MOL0     H28516   5.224   4.031   4.943  1.6752 -0.0827 -1.5429
  974MOL0     H28517   5.043   4.151   5.033 -1.1277  0.5207  1.9202
  974MOL0     H28518   5.106   4.062   5.165  1.6586  1.7814  0.8269
  974MOL0     H28519   5.163   4.350   5.121 -1.6274 -0.4637  0.2328
  974MOL0     H28520   5.239   4.256   5.252 -0.1957  1.4362  2.1344
  974MOL0     H28521   4.947   4.450   5.200  0.0657  0.2263  0.4965
  974MOL0     H28522   4.757   4.511   5.496  1.0043  1.3615 -1.3270
  974MOL0     H28523   4.653   4.377   5.478 -0.5731  0.8638  0.8780
  974MOL0     H28524   4.629   4.414   5.228 -1.3553  0.9972 -0.2927
  974MOL0     H28525   4.692   4.576   5.263 -1.5620  0.2274  1.3054
  974MOL0     H28526   4.455   4.464   5.413 -0.3201  0.8297  0.1935
  974MOL0     H28527   4.531   4.606   5.438 -1.2567 -0.0602  1.1694
  974MOL0     H28528   4.497   4.680   5.201  0.2480 -2.0999 -0.7287
  974MOL0     H28529   4.349   4.663   5.293 -0.5857 -0.5139 -1.8847
  974MOL0     H28530   4.215   4.519   5.342 -1.6360 -2.3784  0.7591
  974MOL0     H28531   3.973   4.439   5.317  1.1792 -3.8653 -0.1166
  974MOL0     H28532   3.561   4.322   5.096 -0.5351 -2.5550  0.9562
  974MOL0     H28533   3.363   4.220   5.029 -0.5932  1.7685 -0.5591
  974MOL0     H28534   3.387   3.947   4.662  0.0213  0.7428 -3.6784
  974MOL0     H28535   3.330   4.093   4.592 -2.7482 -0.2830 -0.7491
  974MOL0     H28536   3.157   3.913   4.582 -0.4423  0.4885 -0.7429
  974MOL0     H28537   3.102   4.051   4.691  0.9684  0.1487 -0.1586
  974MOL0     H28538   3.121   3.922   4.887 -1.9645 -0.9502 -0.4126
  974MOL0     H28539   3.220   3.797   4.798  1.6330  1.6794 -0.3079
  974MOL0     H28540   2.923   3.860   4.779 -2.5315 -1.7226  3.6744
  974MOL0     H28541   2.996   3.741   4.686 -2.1748 -3.8284  1.5929
  974MOL0     H28542   2.940   3.753   4.986  2.3118 -0.6882  1.1581
  974MOL0     H28543   3.073   3.645   4.933 -0.4081 -2.0063 -0.3220
  974MOL0     H28544   2.868   3.518   4.926  2.8313 -2.4438 -2.2807
  974MOL0     H28545   2.917   3.524   4.761 -0.5977 -1.3362  0.4943
  974MOL0     H28546   2.720   3.723   4.872 -0.3298 -0.2904  0.4702
  974MOL0     H28547   2.762   3.695   4.710 -0.4407  2.2309  0.8684
  974MOL0     H28548   2.544   3.595   4.782 -1.1713 -0.6195 -0.9687
  974MOL0     H28549   2.629   3.512   4.908 -0.5272 -1.7786 -1.8906
  974MOL0     H28550   3.568   4.080   4.669 -2.2380 -0.1639 -0.2631
  974MOL0     H28551   3.771   4.200   4.763  0.4063  0.6499  1.4161
  974MOL0     H28552   4.043   4.400   4.894 -1.6048 -1.1120  0.5965
  974MOL0     H28553   4.277   4.465   4.932  1.0835  0.0860  0.5677
  974MOL0     H28554   6.179   4.032   4.793 -2.7875  0.4757  1.2739
  974MOL0     H28555   6.403   4.133   4.715 -1.1618  0.3065 -3.0014
  974MOL0     H28556   6.583   4.216   4.307 -0.0945  0.8788  0.8472
  974MOL0     H28557   6.818   4.238   4.233 -1.3935  4.5297 -2.2955
  974MOL0     H28558   7.132   4.246   4.521  3.3608 -0.2085 -0.6761
  974MOL0     H28559   7.115   4.425   4.518 -1.7925  0.0050  0.4566
  974MOL0     H28560   7.283   4.230   4.347  2.8083  1.0159 -1.2553
  974MOL0     H28561   7.272   4.387   4.297 -1.9767 -2.8329 -1.9804
  974MOL0     H28562   7.365   4.334   4.583 -1.2294 -0.1790 -0.7868
  974MOL0     H28563   7.384   4.479   4.502  3.8344 -0.0703  1.3199
  974MOL0     H28564   7.505   4.221   4.409  0.7632 -0.6467  2.6174
  974MOL0     H28565   7.537   4.387   4.343 -0.1923  2.5201  1.3556
  974MOL0     H28566   7.741   4.377   4.730 -0.1453  0.5785  0.1387
  974MOL0     H28567   6.922   4.398   4.617 -1.6601  1.1085  0.8296
  974MOL0     H28568   6.692   4.419   4.670  1.1899 -0.6646  1.2345
  975MOL0     O28569   7.515   4.058  10.750 -0.0985  0.1910  0.2632
  975MOL0     C28570   7.598   4.141  10.769  0.4077 -0.1922  0.1030
  975MOL0     O28571   7.606   4.260  10.707  0.6168  0.2601 -0.0536
  975MOL0     C28572   7.509   4.298  10.613  0.0297 -0.1301 -0.8101
  975MOL0     C28573   7.373   4.259  10.603  0.4733  0.9734 -0.3395
  975MOL0     C28574   7.294   4.304  10.493  0.4495  0.7523 -0.0826
  975MOL0     C28575   7.343   4.395  10.404 -0.0912 -0.0663  0.5066
  975MOL0     O28576   7.269   4.412  10.291  0.6815 -0.5513 -0.2823
  975MOL0     C28577   7.204   4.536  10.276 -0.1900  0.0544 -0.4911
  975MOL0     C28578   7.063   4.513  10.341 -0.3852  0.7601  0.5071
  975MOL0     C28579   6.973   4.408  10.274  0.1896  0.3339  0.5442
  975MOL0     C28580   6.840   4.400  10.350  0.5608 -0.0463  0.1660
  975MOL0     C28581   6.770   4.269  10.303  0.2278 -0.0803 -0.0028
  975MOL0     C28582   6.744   4.260  10.150  0.3085 -0.0025  0.2206
  975MOL0     C28583   6.673   4.128  10.118 -0.0172  0.5225  0.0489
  975MOL0     C28584   6.570   4.147  10.005  0.9592  0.3587  0.5164
  975MOL0     N28585   6.502   4.023   9.972  0.4676 -0.5213  1.4023
  975MOL0     C28586   6.538   3.933   9.883  0.0809  0.0573  0.2873
  975MOL0     C28587   6.442   3.837   9.880  0.3653  0.8949  0.1573
  975MOL0     C28588   6.434   3.712   9.798 -0.0909 -0.1079 -1.0692
  975MOL0     C28589   6.434   3.756   9.652  0.1434  0.2610 -0.1312
  975MOL0     C28590   6.441   3.628   9.557  0.1097 -0.4802  0.4402
  975MOL0     C28591   6.326   3.528   9.588  0.0221  0.3163 -0.9108
  975MOL0     O28592   6.332   3.429   9.484 -0.0798 -0.3912 -0.1261
  975MOL0     C28593   6.261   3.441   9.365 -0.4817 -0.4781 -0.9831
  975MOL0     C28594   6.306   3.368   9.252  0.3934 -0.6526  0.1496
  975MOL0     C28595   6.237   3.372   9.135 -0.7111 -0.3023  0.4486
  975MOL0     C28596   6.113   3.447   9.130  0.1943 -0.0107 -0.0317
  975MOL0     C28597   6.015   3.433   9.009 -0.2919 -0.0250 -0.6414
  975MOL0     O28598   5.905   3.516   8.995 -0.3896  0.0055 -0.5986
  975MOL0     C28599   5.844   3.511   8.877  0.1654 -0.2072 -0.2371
  975MOL0     C28600   5.900   3.556   8.752 -0.6596 -0.5992 -0.1168
  975MOL0     C28601   5.821   3.547   8.637 -0.8877  0.6746 -0.0319
  975MOL0     C28602   5.696   3.488   8.639 -0.1323 -0.0830 -0.4922
  975MOL0     O28603   5.608   3.469   8.530 -0.4923  0.1039 -0.1756
  975MOL0     C28604   5.632   3.555   8.419  0.7190 -0.2749  0.4508
  975MOL0     C28605   5.531   3.522   8.310  0.0112  1.0334  1.0356
  975MOL0     C28606   5.385   3.562   8.354  0.4096  0.5948  1.1066
  975MOL0     C28607   5.282   3.491   8.259  0.2628 -0.1654 -0.2467
  975MOL0     C28608   5.146   3.506   8.328 -0.8520  0.6709 -0.6485
  975MOL0     C28609   5.037   3.462   8.232  0.5285 -0.2984  0.1047
  975MOL0     C28610   4.983   3.593   8.169  0.0388  0.1418 -0.8884
  975MOL0     C28611   4.878   3.578   8.061 -0.4323  0.9078 -0.5527
  975MOL0    Cl28612   4.728   3.502   8.120 -0.2894 -0.0081  0.0789
  975MOL0     C28613   5.639   3.446   8.764 -0.1115  0.1023 -0.0232
  975MOL0     C28614   5.715   3.461   8.880  0.6867 -0.2591  0.1914
  975MOL0     O28615   6.037   3.335   8.940  0.1270 -0.1351 -0.0611
  975MOL0     C28616   6.070   3.522   9.236 -0.7784  0.3645 -0.4925
  975MOL0     C28617   6.145   3.522   9.347 -1.3769 -0.4609 -0.8252
  975MOL0     N28618   6.346   3.868   9.969  0.8296  0.1183 -0.5375
  975MOL0     N28619   6.386   3.976  10.028  0.4620 -0.0398  0.4858
  975MOL0     C28620   7.470   4.447  10.427  0.3415  0.9804 -1.0445
  975MOL0     C28621   7.559   4.393  10.524  0.5083  0.1452 -0.3398
  975MOL0     C28622   7.700   4.108  10.871  0.5471 -0.4357 -0.7987
  975MOL0     C28623   7.683   4.031  10.981  0.6530  0.5592  0.9792
  975MOL0     C28624   7.787   3.989  11.067 -0.4115  0.1695  0.3057
  975MOL0     C28625   7.915   4.040  11.036 -0.1278  1.0612  0.5935
  975MOL0     O28626   8.025   4.011  11.110  0.9846  0.1135  0.1715
  975MOL0     C28627   8.030   3.923  11.217  0.1108  0.0973 -0.0905
  975MOL0     C28628   8.183   3.916  11.247  0.0146  0.8140 -0.6790
  975MOL0     C28629   8.231   4.027  11.331 -0.6162 -0.7020  0.1142
  975MOL0     C28630   8.377   3.999  11.382  0.5831  0.1538  0.1220
  975MOL0     C28631   8.473   4.068  11.301  0.5528 -0.3886  0.0238
  975MOL0     C28632   8.559   4.133  11.243  0.7028  0.2002 -0.9163
  975MOL0     C28633   7.937   4.126  10.928 -0.1841  0.3468 -0.2172
  975MOL0     C28634   7.827   4.158  10.848 -0.4184  0.7775 -0.6115
  975MOL0     H28635   7.332   4.189  10.675  1.0375  1.1169  0.1310
  975MOL0     H28636   7.192   4.268  10.504  1.2174 -1.5591 -0.0007
  975MOL0     H28637   7.182   4.559  10.171 -0.1261  2.0713 -0.1133
  975MOL0     H28638   7.251   4.624  10.322 -1.7951 -0.2927  2.0033
  975MOL0     H28639   7.009   4.608  10.341  0.0911  1.1049  3.2577
  975MOL0     H28640   7.080   4.494  10.447  0.9365  2.2412  0.5840
  975MOL0     H28641   7.034   4.317  10.281  2.5112  1.7437 -0.2574
  975MOL0     H28642   6.965   4.439  10.169  3.2962  1.2134  0.4549
  975MOL0     H28643   6.859   4.387  10.457 -1.2401 -0.0371  0.5072
  975MOL0     H28644   6.780   4.488  10.327  2.0455  1.5867  2.1766
  975MOL0     H28645   6.672   4.264  10.352 -0.2145  4.6422  0.1043
  975MOL0     H28646   6.842   4.195  10.339  2.8166  1.3523 -1.9414
  975MOL0     H28647   6.841   4.261  10.100  1.5381 -2.3242  2.3207
  975MOL0     H28648   6.672   4.340  10.128 -0.1867 -1.0327 -2.2242
  975MOL0     H28649   6.749   4.054  10.091 -0.7268 -0.5388  0.8521
  975MOL0     H28650   6.624   4.095  10.210 -0.5417 -1.0533 -0.7665
  975MOL0     H28651   6.614   4.189   9.914 -0.5121 -0.3118 -0.5566
  975MOL0     H28652   6.495   4.220  10.036  2.0533  1.7330  0.0331
  975MOL0     H28653   6.633   3.940   9.831 -0.4138 -1.4420 -0.8702
  975MOL0     H28654   6.346   3.653   9.824  0.0001  0.2989  0.2610
  975MOL0     H28655   6.524   3.653   9.819  0.7097  0.3990 -2.9313
  975MOL0     H28656   6.524   3.816   9.633 -1.9273  3.1134 -1.5979
  975MOL0     H28657   6.347   3.820   9.635  0.5998  2.2741  3.8529
  975MOL0     H28658   6.438   3.661   9.453  3.1783  4.5376  1.5883
  975MOL0     H28659   6.533   3.569   9.562 -0.6506 -2.0123 -1.9075
  975MOL0     H28660   6.224   3.567   9.590 -0.6223 -1.2882 -0.7420
  975MOL0     H28661   6.346   3.485   9.686 -0.6430  2.9927  0.5006
  975MOL0     H28662   6.397   3.309   9.259  0.8630  0.0583  0.1299
  975MOL0     H28663   6.269   3.323   9.043  2.0839 -1.5729  1.9749
  975MOL0     H28664   6.003   3.590   8.743  0.3270 -2.9590  1.3798
  975MOL0     H28665   5.870   3.582   8.547 -0.2723  1.2267  0.5037
  975MOL0     H28666   5.732   3.535   8.380  0.1517 -2.4897  0.0324
  975MOL0     H28667   5.624   3.658   8.456  0.0247  0.5785 -1.9083
  975MOL0     H28668   5.540   3.413   8.309 -3.0175  0.7140  1.1157
  975MOL0     H28669   5.572   3.557   8.214  0.5033 -2.4367 -0.1566
  975MOL0     H28670   5.383   3.671   8.351 -0.6267  0.5678 -1.4321
  975MOL0     H28671   5.370   3.532   8.458 -2.4719  1.2854  0.9802
  975MOL0     H28672   5.274   3.533   8.158 -1.9018 -2.4109 -1.1240
  975MOL0     H28673   5.307   3.385   8.246  1.6728  0.3378 -2.2534
  975MOL0     H28674   5.135   3.606   8.372 -2.4025  1.2779 -2.2858
  975MOL0     H28675   5.152   3.441   8.415  1.9435 -0.9539 -1.9388
  975MOL0     H28676   4.954   3.412   8.283 -1.4508  2.5888 -0.0238
  975MOL0     H28677   5.066   3.395   8.151 -0.5255  2.2128 -2.5051
  975MOL0     H28678   4.940   3.667   8.238 -0.0027 -0.1681 -0.5772
  975MOL0     H28679   5.066   3.646   8.121 -0.0779 -0.0323 -1.2848
  975MOL0     H28680   4.921   3.528   7.974  0.2313  2.6151 -1.2392
  975MOL0     H28681   4.851   3.681   8.036  0.1098  0.9831 -0.8270
  975MOL0     H28682   5.539   3.404   8.770 -0.2237  0.5075  1.1977
  975MOL0     H28683   5.660   3.439   8.971  0.4742  2.1877  0.7032
  975MOL0     H28684   5.989   3.590   9.212  0.3613  1.2038 -2.1554
  975MOL0     H28685   6.118   3.602   9.415  2.3314  1.7910 -1.6979
  975MOL0     H28686   7.508   4.525  10.361 -1.2590  2.2073 -0.5722
  975MOL0     H28687   7.658   4.431  10.548  1.7464 -1.4945 -2.4146
  975MOL0     H28688   7.585   3.987  10.996  1.7445 -1.7756  1.6979
  975MOL0     H28689   7.769   3.934  11.159  1.0742 -1.3642 -0.2744
  975MOL0     H28690   7.990   3.825  11.190  2.1842 -0.4628 -1.4417
  975MOL0     H28691   7.975   3.966  11.301 -2.7231 -1.0050 -1.2535
  975MOL0     H28692   8.201   3.833  11.317  0.5095  1.5870  0.1196
  975MOL0     H28693   8.235   3.891  11.154 -4.8321 -0.3723 -3.3981
  975MOL0     H28694   8.175   4.055  11.421 -0.0356 -1.5861  0.7716
  975MOL0     H28695   8.232   4.114  11.265  0.4599 -2.2346 -2.0153
  975MOL0     H28696   8.391   4.041  11.482 -0.0278  0.8671 -0.0740
  975MOL0     H28697   8.401   3.893  11.386 -0.2681 -0.0875 -0.7402
  975MOL0     H28698   8.621   4.187  11.174  1.5675 -0.8168 -0.9645
  975MOL0     H28699   8.036   4.151  10.894 -0.2389 -1.9775 -2.3660
  975MOL0     H28700   7.854   4.222  10.764  2.3616 -2.0333 -2.0507
  976MOL0     O28701   6.816   0.689   7.457 -0.4056  0.0865 -0.9006
  976MOL0     C28702   6.806   0.616   7.558  0.1149 -0.2180  0.1501
  976MOL0     O28703   6.912   0.541   7.613 -0.5730  1.0158 -0.5984
  976MOL0     C28704   7.042   0.570   7.576  0.5304 -0.3859  0.0713
  976MOL0     C28705   7.093   0.696   7.555 -0.2489 -0.7283  0.4002
  976MOL0     C28706   7.232   0.709   7.529  0.1062  0.1399 -0.3579
  976MOL0     C28707   7.318   0.599   7.509 -0.4321  0.2148 -0.3712
  976MOL0     O28708   7.447   0.622   7.468 -0.2001 -0.3798  0.3586
  976MOL0     C28709   7.542   0.528   7.512 -0.4751 -0.1333 -0.0178
  976MOL0     C28710   7.678   0.586   7.490  0.4291 -0.9055 -0.0255
  976MOL0     C28711   7.700   0.629   7.343  0.3296  0.1451 -0.4095
  976MOL0     C28712   7.838   0.690   7.313  0.1854 -0.5255  0.4039
  976MOL0     C28713   7.851   0.763   7.180  0.9160  0.3338 -0.5992
  976MOL0     C28714   7.951   0.867   7.203 -0.0619  1.1105 -0.0890
  976MOL0     C28715   7.991   0.946   7.077  0.3956 -0.5510 -0.6903
  976MOL0     C28716   8.108   0.896   7.000 -0.1257  0.1065  0.3699
  976MOL0     N28717   8.107   0.758   6.956  0.3493 -0.6504 -0.6508
  976MOL0     C28718   8.024   0.717   6.856  0.5805  0.7810 -0.5470
  976MOL0     C28719   8.038   0.582   6.858  0.6604  0.2881  0.5690
  976MOL0     C28720   7.967   0.482   6.759  0.1886 -0.1739  0.0134
  976MOL0     C28721   7.831   0.437   6.819  0.0426  0.6132  0.0970
  976MOL0     C28722   7.785   0.312   6.749 -0.3274  0.9083  0.3294
  976MOL0     C28723   7.729   0.330   6.605  0.7991 -0.0497  0.1655
  976MOL0     O28724   7.627   0.243   6.564  0.2744  0.1454 -0.1353
  976MOL0     C28725   7.500   0.244   6.620 -0.4717 -0.1373 -0.5035
  976MOL0     C28726   7.466   0.340   6.720  0.3204 -0.4183 -0.5927
  976MOL0     C28727   7.332   0.375   6.759 -0.4657  0.9087  0.2113
  976MOL0     C28728   7.222   0.310   6.701 -0.0249  0.5524  1.0754
  976MOL0     C28729   7.085   0.350   6.724  0.2352 -0.7182 -0.4000
  976MOL0     O28730   7.055   0.427   6.843  0.0514 -0.0694  0.4802
  976MOL0     C28731   6.919   0.462   6.865  0.1503 -0.8257  0.0558
  976MOL0     C28732   6.810   0.368   6.871 -0.3943 -0.1648 -0.1665
  976MOL0     C28733   6.675   0.414   6.885 -0.3082 -0.1234  0.7760
  976MOL0     C28734   6.649   0.548   6.897  0.0921 -0.5293  0.5631
  976MOL0     O28735   6.523   0.589   6.921  0.7708 -0.3675 -1.0914
  976MOL0     C28736   6.505   0.725   6.964  0.2705  0.2896 -0.1698
  976MOL0     C28737   6.369   0.759   7.005 -0.2893 -0.5725 -0.2175
  976MOL0     C28738   6.262   0.722   6.893  0.6441 -0.4918 -0.5251
  976MOL0     C28739   6.120   0.766   6.937  0.1183 -0.1585  0.0782
  976MOL0     C28740   6.009   0.739   6.825 -0.3632 -0.4231  0.2261
  976MOL0     C28741   5.861   0.744   6.871 -0.2168 -0.3194  0.6464
  976MOL0     C28742   5.759   0.734   6.747  0.2626  0.6673 -0.1659
  976MOL0     C28743   5.762   0.594   6.676  0.4531  0.2935 -1.0726
  976MOL0    Cl28744   5.709   0.482   6.802 -0.3202 -0.2708 -0.0248
  976MOL0     C28745   6.760   0.637   6.890 -0.5321 -0.0717 -0.4473
  976MOL0     C28746   6.885   0.597   6.871  0.9103 -0.0089 -0.5914
  976MOL0     O28747   7.007   0.317   6.643 -0.1427  0.7719  1.1824
  976MOL0     C28748   7.252   0.203   6.610  0.0051 -0.5182  0.3137
  976MOL0     C28749   7.383   0.173   6.568  0.7548 -0.2345 -0.2500
  976MOL0     N28750   8.107   0.547   6.973 -0.3475  0.0981 -0.5704
  976MOL0     N28751   8.143   0.655   7.029  0.4145  0.0013  0.0578
  976MOL0     C28752   7.256   0.476   7.525 -0.0410  0.9512  0.3663
  976MOL0     C28753   7.124   0.463   7.563  0.7952  0.5468  0.2097
  976MOL0     C28754   6.674   0.618   7.615  0.5556  0.2982 -0.1438
  976MOL0     C28755   6.574   0.705   7.569  0.0545 -0.4581  0.2170
  976MOL0     C28756   6.446   0.698   7.620 -0.4007 -1.4669 -0.0236
  976MOL0     C28757   6.424   0.610   7.727 -0.5198 -0.4936 -0.1304
  976MOL0     O28758   6.300   0.578   7.775 -0.6666 -0.0445  0.4574
  976MOL0     C28759   6.189   0.673   7.763 -0.0104 -0.2750  0.5425
  976MOL0     C28760   6.064   0.621   7.828 -0.0794 -0.0716  0.2769
  976MOL0     C28761   5.997   0.519   7.736  0.2004  0.3413 -0.0300
  976MOL0     C28762   5.882   0.448   7.814  0.0553 -0.4722 -1.1250
  976MOL0     C28763   5.790   0.388   7.725  0.2171  0.1501  0.3819
  976MOL0     C28764   5.711   0.330   7.643  0.4362 -0.3337  0.1127
  976MOL0     C28765   6.529   0.532   7.777  0.1159 -0.6724 -0.1265
  976MOL0     C28766   6.650   0.531   7.719 -0.0479 -0.3831 -0.1074
  976MOL0     H28767   7.025   0.777   7.581  0.5172 -0.0695  0.3989
  976MOL0     H28768   7.272   0.809   7.517 -0.6044  0.5197  0.3304
  976MOL0     H28769   7.540   0.432   7.459 -1.6312  0.5337 -1.2469
  976MOL0     H28770   7.528   0.514   7.620 -1.9530  0.7543 -0.0628
  976MOL0     H28771   7.750   0.507   7.510 -1.5593 -2.8289 -0.1607
  976MOL0     H28772   7.695   0.667   7.561  1.9422 -1.8290  0.6876
  976MOL0     H28773   7.627   0.702   7.307 -2.0575 -1.9243 -0.0600
  976MOL0     H28774   7.686   0.550   7.269  1.5876 -1.3471  0.8732
  976MOL0     H28775   7.856   0.752   7.402 -1.5360 -1.0783  1.1841
  976MOL0     H28776   7.925   0.624   7.319  1.9426  1.2340 -2.8510
  976MOL0     H28777   7.753   0.804   7.155 -0.2513 -1.7201  0.3533
  976MOL0     H28778   7.881   0.691   7.103 -0.1511 -1.7889  0.8701
  976MOL0     H28779   8.041   0.817   7.241  0.5476  3.0916  1.2416
  976MOL0     H28780   7.910   0.934   7.279 -1.2581 -0.9343  1.1335
  976MOL0     H28781   7.907   0.947   7.008 -1.9521 -0.5153  1.9852
  976MOL0     H28782   8.009   1.048   7.113 -1.3106 -1.2439  2.4295
  976MOL0     H28783   8.189   0.904   7.073 -2.0700  2.4998  2.4943
  976MOL0     H28784   8.127   0.968   6.920  2.1822 -1.5957 -0.6987
  976MOL0     H28785   7.971   0.773   6.779 -0.3443 -1.1909 -1.4095
  976MOL0     H28786   8.025   0.390   6.754 -1.0754 -0.9716 -0.4400
  976MOL0     H28787   7.959   0.526   6.660 -0.1213  0.1290  0.1707
  976MOL0     H28788   7.756   0.516   6.814 -0.4900  0.1606  0.7576
  976MOL0     H28789   7.841   0.400   6.922 -1.4674 -1.3483 -0.4199
  976MOL0     H28790   7.870   0.244   6.756  1.5250  3.0905  0.0543
  976MOL0     H28791   7.707   0.264   6.809 -1.3492  3.8339  1.5219
  976MOL0     H28792   7.803   0.337   6.525  0.0605  0.5120 -0.4874
  976MOL0     H28793   7.694   0.433   6.595  0.3511  0.1229  2.7609
  976MOL0     H28794   7.542   0.402   6.766 -0.9110  1.0220 -0.4291
  976MOL0     H28795   7.323   0.461   6.825 -2.3740  0.1760  0.9626
  976MOL0     H28796   6.826   0.261   6.873 -3.8474 -0.9248 -2.9502
  976MOL0     H28797   6.597   0.338   6.888  0.8182 -1.3104  1.0472
  976MOL0     H28798   6.520   0.791   6.878 -0.5580 -1.1211 -1.4523
  976MOL0     H28799   6.571   0.735   7.051 -0.5936 -0.7775  0.6493
  976MOL0     H28800   6.374   0.866   7.025  3.9655 -0.0046 -3.0093
  976MOL0     H28801   6.341   0.709   7.099 -0.1203 -0.1620  0.0551
  976MOL0     H28802   6.265   0.613   6.887  1.3080 -0.5729  0.7953
  976MOL0     H28803   6.285   0.767   6.796  2.7867  1.2893  0.7214
  976MOL0     H28804   6.092   0.703   7.022 -0.3447  0.1637  0.1691
  976MOL0     H28805   6.118   0.866   6.983 -0.6667 -0.7492  1.4076
  976MOL0     H28806   6.018   0.636   6.790  3.3347 -0.0083 -0.4391
  976MOL0     H28807   6.037   0.797   6.736 -2.2133 -1.9765 -1.4471
  976MOL0     H28808   5.850   0.845   6.912 -2.4671  0.8790 -2.5177
  976MOL0     H28809   5.825   0.665   6.937 -0.5816 -0.4248  0.3267
  976MOL0     H28810   5.658   0.755   6.781  0.3335 -0.3732  0.7763
  976MOL0     H28811   5.796   0.813   6.681  2.0772  0.8405  0.9994
  976MOL0     H28812   5.853   0.557   6.628  1.3639 -2.0180  2.1691
  976MOL0     H28813   5.701   0.595   6.585  1.7093 -1.5217 -1.9865
  976MOL0     H28814   6.747   0.745   6.902  0.9048  0.5585 -3.5740
  976MOL0     H28815   6.969   0.666   6.876  0.3109  0.6354  1.9226
  976MOL0     H28816   7.178   0.146   6.555 -1.2551 -0.3187  1.7341
  976MOL0     H28817   7.405   0.100   6.490  1.4293  1.7273 -1.9718
  976MOL0     H28818   7.309   0.385   7.501  3.6998  3.2093 -0.8941
  976MOL0     H28819   7.070   0.369   7.567 -4.3530  3.0420 -1.7610
  976MOL0     H28820   6.596   0.768   7.484  1.8945 -1.1263  0.1515
  976MOL0     H28821   6.369   0.756   7.569  0.7205  0.8997  0.8389
  976MOL0     H28822   6.175   0.686   7.655 -1.9185 -0.1102  0.7677
  976MOL0     H28823   6.217   0.774   7.792  0.6560 -0.2281 -0.2520
  976MOL0     H28824   6.093   0.568   7.919 -0.7171  1.4186  1.3848
  976MOL0     H28825   5.999   0.701   7.863  0.6622 -0.2719  2.2234
  976MOL0     H28826   6.070   0.447   7.699  2.5504  1.2424  2.5373
  976MOL0     H28827   5.950   0.566   7.649 -2.3102 -1.0346  0.5001
  976MOL0     H28828   5.924   0.371   7.879 -0.6816  2.3858  3.1692
  976MOL0     H28829   5.828   0.519   7.878 -1.7318 -1.6708 -1.2350
  976MOL0     H28830   5.641   0.280   7.580  0.6177  0.0642 -0.4136
  976MOL0     H28831   6.505   0.454   7.849  0.6421 -0.0708  0.7094
  976MOL0     H28832   6.709   0.445   7.750 -2.5609 -1.3548  2.2952
  977MOL0     O28833   6.677   8.598   0.073 -0.2515 -0.3996 -0.2013
  977MOL0     C28834   6.645   8.531   0.171 -0.6355 -0.1551  0.1821
  977MOL0     O28835   6.722   8.470   0.260  0.4580  0.3527  0.7526
  977MOL0     C28836   6.855   8.486   0.257 -0.4104  0.7363  0.6741
  977MOL0     C28837   6.934   8.596   0.223  0.3347  0.4269  0.4154
  977MOL0     C28838   7.072   8.581   0.217 -0.3730 -0.8548 -0.1725
  977MOL0     C28839   7.144   8.466   0.254 -0.5155  0.0831 -0.4932
  977MOL0     O28840   7.283   8.462   0.235 -0.0240 -0.4919  0.3790
  977MOL0     C28841   7.356   8.354   0.299  0.0754 -0.1280  0.6122
  977MOL0     C28842   7.495   8.407   0.328 -0.8310  0.0019  0.9402
  977MOL0     C28843   7.494   8.513   0.444 -0.2815  0.2040  0.0639
  977MOL0     C28844   7.637   8.565   0.481 -0.0305  0.0512  0.8229
  977MOL0     C28845   7.642   8.672   0.599 -0.4913  0.7788 -0.2307
  977MOL0     C28846   7.784   8.724   0.619  0.4910  0.2593 -0.2915
  977MOL0     C28847   7.802   8.803   0.746 -0.5076 -0.5556  1.3049
  977MOL0     C28848   7.954   8.841   0.748 -0.1205  0.2597 -0.7133
  977MOL0     N28849   8.044   8.753   0.828 -0.2128  0.8116  0.0483
  977MOL0     C28850   8.011   8.674   0.941  0.0440 -0.4574  0.5184
  977MOL0     C28851   8.133   8.630   0.979  0.0067  0.7013 -0.7527
  977MOL0     C28852   8.158   8.552   1.105  0.0923 -0.3056 -0.2863
  977MOL0     C28853   8.063   8.592   1.220  0.1635 -0.2985  0.0874
  977MOL0     C28854   7.948   8.496   1.219  0.3458  0.1502 -0.0561
  977MOL0     C28855   7.876   8.482   1.345  0.0715  0.3234 -0.3945
  977MOL0     O28856   7.753   8.410   1.323 -0.3773 -0.1552  0.2682
  977MOL0     C28857   7.661   8.397   1.426 -0.3158  0.6631 -0.1363
  977MOL0     C28858   7.543   8.325   1.392  0.3456 -0.7701  0.9049
  977MOL0     C28859   7.438   8.318   1.485  0.2954 -0.8210  0.7302
  977MOL0     C28860   7.440   8.397   1.603  0.1624  0.2350  0.4250
  977MOL0     C28861   7.330   8.398   1.703 -0.0695 -0.2565  0.8325
  977MOL0     O28862   7.216   8.340   1.658 -0.2480 -0.7548  0.4134
  977MOL0     C28863   7.103   8.319   1.736 -0.1986 -0.1938  0.2900
  977MOL0     C28864   6.991   8.276   1.660 -0.8427 -0.3740  0.0246
  977MOL0     C28865   6.875   8.247   1.733 -0.3162  0.1662  0.1494
  977MOL0     C28866   6.867   8.248   1.870 -0.2186  0.2612  0.3670
  977MOL0     O28867   6.751   8.204   1.924  0.8640  0.7166 -0.1664
  977MOL0     C28868   6.761   8.128   2.045  0.3336  0.1736 -0.4878
  977MOL0     C28869   6.623   8.065   2.073  0.3504  0.1421  0.1598
  977MOL0     C28870   6.621   7.994   2.210 -0.5143 -0.4112  0.2323
  977MOL0     C28871   6.491   7.936   2.253  0.5052 -0.3444 -0.0479
  977MOL0     C28872   6.509   7.832   2.368 -0.2771 -0.5345  0.6226
  977MOL0     C28873   6.571   7.697   2.325  0.3472  0.1608  0.0634
  977MOL0     C28874   6.535   7.600   2.442 -0.1205 -0.0068 -0.2415
  977MOL0     C28875   6.589   7.453   2.425 -0.2893 -0.0940  0.4815
  977MOL0    Cl28876   6.567   7.359   2.570  0.1287  0.1816  0.2057
  977MOL0     C28877   6.984   8.284   1.940 -0.1272 -0.3115  0.5310
  977MOL0     C28878   7.104   8.315   1.878  0.2769  0.2006 -0.0363
  977MOL0     O28879   7.349   8.448   1.813 -0.3835 -0.6272  0.2743
  977MOL0     C28880   7.563   8.458   1.643 -0.3373 -0.1084 -0.3087
  977MOL0     C28881   7.676   8.445   1.559  0.0947 -0.3247  1.0050
  977MOL0     N28882   8.230   8.649   0.886  0.5956  0.5877 -0.0411
  977MOL0     N28883   8.178   8.737   0.804 -0.5581  0.0952 -0.4472
  977MOL0     C28884   7.067   8.359   0.307  0.3639  0.3933 -0.1858
  977MOL0     C28885   6.930   8.372   0.310  0.4678  0.5543  0.1764
  977MOL0     C28886   6.495   8.513   0.189 -0.1719 -0.2872  1.3604
  977MOL0     C28887   6.407   8.560   0.084  0.5284  0.2249  0.5164
  977MOL0     C28888   6.273   8.540   0.093 -0.7905 -0.1940 -0.2786
  977MOL0     C28889   6.226   8.477   0.205  0.5190  0.4292 -0.5930
  977MOL0     O28890   6.093   8.467   0.239 -0.2182 -0.0964  0.4926
  977MOL0     C28891   6.003   8.476   0.126 -0.1660  0.5242 -0.4660
  977MOL0     C28892   5.880   8.392   0.151  0.2371 -0.6469 -0.5350
  977MOL0     C28893   5.897   8.245   0.158  0.1196 -0.1698  0.1507
  977MOL0     C28894   5.774   8.159   0.187  0.3933 -0.0548  0.0324
  977MOL0     C28895   5.686   8.197   0.077 -0.5126  0.0497 -0.0084
  977MOL0     C28896   5.623   8.239  -0.016 -0.3934  0.3548  0.2270
  977MOL0     C28897   6.306   8.428   0.307  0.9390 -0.6125 -0.9770
  977MOL0     C28898   6.442   8.433   0.295  0.4773 -1.0925 -0.7385
  977MOL0     H28899   6.891   8.694   0.204  0.9139  0.4089 -1.0780
  977MOL0     H28900   7.130   8.671   0.200 -2.8869  0.7866 -0.4908
  977MOL0     H28901   7.351   8.278   0.220 -0.5119  2.5770 -2.1691
  977MOL0     H28902   7.304   8.309   0.384  0.4570 -1.9501 -0.0909
  977MOL0     H28903   7.532   8.456   0.238 -0.1300 -0.6787  0.8440
  977MOL0     H28904   7.555   8.320   0.357 -2.5397 -1.7469 -0.4663
  977MOL0     H28905   7.459   8.459   0.533  2.5052 -0.2036  1.0377
  977MOL0     H28906   7.433   8.600   0.419  1.2476  1.0953 -0.7119
  977MOL0     H28907   7.703   8.481   0.504  1.3766  0.3305 -1.7389
  977MOL0     H28908   7.681   8.606   0.389 -0.6195 -0.9189  0.0930
  977MOL0     H28909   7.610   8.632   0.695  0.7285  3.4082  1.3688
  977MOL0     H28910   7.566   8.749   0.586 -1.6079 -0.2633 -0.0775
  977MOL0     H28911   7.813   8.785   0.532  1.3927 -1.5413 -1.3023
  977MOL0     H28912   7.846   8.634   0.623  1.0263  0.6528  0.6571
  977MOL0     H28913   7.742   8.894   0.746  0.6818  0.3425 -1.3466
  977MOL0     H28914   7.773   8.756   0.841  1.6811  0.3555  2.5062
  977MOL0     H28915   7.966   8.937   0.798  0.4235 -0.0118 -0.3091
  977MOL0     H28916   7.989   8.852   0.645 -0.3285  0.9014 -0.7204
  977MOL0     H28917   7.916   8.658   0.990 -0.5571  0.4119 -0.3458
  977MOL0     H28918   8.255   8.588   1.140 -0.4775  2.3913 -1.1993
  977MOL0     H28919   8.159   8.445   1.084  5.1227 -0.6329  0.4084
  977MOL0     H28920   8.036   8.698   1.220  1.8142  0.1634  1.0784
  977MOL0     H28921   8.122   8.575   1.311  0.0663  1.1194  0.4319
  977MOL0     H28922   7.876   8.517   1.140 -1.1841  0.6367  1.4128
  977MOL0     H28923   7.986   8.396   1.194  2.9019  0.9375  0.3731
  977MOL0     H28924   7.868   8.588   1.372  0.0098  0.7173 -1.8374
  977MOL0     H28925   7.938   8.431   1.419 -0.2884 -0.3994 -0.5924
  977MOL0     H28926   7.553   8.268   1.300  4.0290  0.7214  0.2001
  977MOL0     H28927   7.348   8.258   1.476 -0.6882 -0.1945  4.5826
  977MOL0     H28928   7.006   8.269   1.553 -0.4660 -2.5188  0.1806
  977MOL0     H28929   6.787   8.221   1.675 -2.3449  1.9728  2.2023
  977MOL0     H28930   6.794   8.197   2.123 -1.6607  1.3625 -0.6441
  977MOL0     H28931   6.839   8.053   2.028  1.6403  1.4788 -0.4597
  977MOL0     H28932   6.586   8.008   1.987 -1.4692  0.9900  0.3562
  977MOL0     H28933   6.553   8.148   2.082  1.1322  0.8599 -0.1609
  977MOL0     H28934   6.664   8.065   2.283 -0.5032 -0.7462  0.5542
  977MOL0     H28935   6.683   7.905   2.200 -0.3132 -0.1492 -1.0557
  977MOL0     H28936   6.430   8.022   2.282 -2.7640 -1.7583 -2.0874
  977MOL0     H28937   6.447   7.878   2.171  2.5796 -2.3766  0.1675
  977MOL0     H28938   6.414   7.839   2.421  0.9434  1.2506  2.7789
  977MOL0     H28939   6.579   7.880   2.437  0.9514 -0.1228 -0.8347
  977MOL0     H28940   6.680   7.703   2.324  0.7215 -3.8951 -0.1142
  977MOL0     H28941   6.542   7.662   2.225  1.5800  1.7335 -0.9164
  977MOL0     H28942   6.582   7.634   2.535 -0.7873 -3.4264  1.4850
  977MOL0     H28943   6.429   7.599   2.467 -1.3643 -1.7887 -4.7005
  977MOL0     H28944   6.697   7.440   2.410 -0.3052 -1.2803  1.2600
  977MOL0     H28945   6.538   7.415   2.336  2.6792  1.7491 -2.2154
  977MOL0     H28946   6.981   8.284   2.049  0.6233  0.4723  0.5575
  977MOL0     H28947   7.193   8.332   1.939 -1.8404 -0.5404  3.5109
  977MOL0     H28948   7.575   8.496   1.744  0.5643  2.8395 -1.4247
  977MOL0     H28949   7.773   8.483   1.592 -0.5488  1.9392  0.5129
  977MOL0     H28950   7.106   8.258   0.319 -1.2183 -0.1585  0.5363
  977MOL0     H28951   6.873   8.290   0.351  2.7871  1.0919  5.2922
  977MOL0     H28952   6.442   8.611  -0.006 -1.6162 -0.3884 -0.7589
  977MOL0     H28953   6.212   8.576   0.011 -1.9605  2.3390  1.5741
  977MOL0     H28954   6.052   8.446   0.032  1.2845 -0.0827  0.4479
  977MOL0     H28955   5.978   8.582   0.126  0.6801  0.7519 -1.9253
  977MOL0     H28956   5.835   8.429   0.243 -1.5928 -0.6610 -1.3801
  977MOL0     H28957   5.803   8.412   0.076 -2.5053 -1.7077  1.8219
  977MOL0     H28958   5.970   8.234   0.238  0.6469  0.4405 -0.2336
  977MOL0     H28959   5.946   8.214   0.065 -0.8489 -2.0392  0.2200
  977MOL0     H28960   5.795   8.051   0.187 -0.1708 -0.1781 -0.9336
  977MOL0     H28961   5.705   8.181   0.269 -0.6827  0.4674 -0.9777
  977MOL0     H28962   5.578   8.267  -0.109  1.2907  0.7300 -0.5034
  977MOL0     H28963   6.265   8.380   0.395 -0.3770 -0.0202 -1.2351
  977MOL0     H28964   6.509   8.402   0.374 -1.4415  0.4019  1.6488
  978MOL0     O28965   1.510  10.217   2.093 -0.8686  0.0686  0.2988
  978MOL0     C28966   1.513  10.342   2.116  0.3655  0.7363 -0.2666
  978MOL0     O28967   1.407  10.413   2.161  0.0773  0.1956  0.3014
  978MOL0     C28968   1.289  10.337   2.190 -1.2661 -0.2243  1.0489
  978MOL0     C28969   1.248  10.304   2.322  0.2438 -0.3482  0.0253
  978MOL0     C28970   1.127  10.244   2.352  0.0972 -0.1275  0.5946
  978MOL0     C28971   1.041  10.213   2.247 -0.5950 -1.0926  0.4808
  978MOL0     O28972   0.929  10.134   2.247  0.4021 -0.5649  0.2982
  978MOL0     C28973   0.879  10.075   2.369 -0.2473 -0.1813 -0.5381
  978MOL0     C28974   0.768   9.977   2.345 -0.5136  0.2300  0.3753
  978MOL0     C28975   0.709   9.919   2.475 -0.6815 -0.1709  0.0743
  978MOL0     C28976   0.807   9.834   2.559 -0.0673 -0.3161 -0.1326
  978MOL0     C28977   0.838   9.694   2.486 -0.7469 -0.4872 -1.4486
  978MOL0     C28978   0.966   9.636   2.553  0.8873 -0.0954  1.0117
  978MOL0     C28979   0.990   9.493   2.514  0.1085  0.1293 -0.4802
  978MOL0     C28980   0.984   9.456   2.364  0.2125 -0.0431  0.1243
  978MOL0     N28981   1.095   9.520   2.295 -0.8750  0.2042  0.6423
  978MOL0     C28982   1.229   9.511   2.321  0.2576  0.1670 -0.4443
  978MOL0     C28983   1.295   9.588   2.229  0.3974  1.0729  0.1229
  978MOL0     C28984   1.444   9.615   2.224 -0.8883  0.0334 -0.8329
  978MOL0     C28985   1.464   9.766   2.268 -0.0018  0.3689 -0.8226
  978MOL0     C28986   1.611   9.816   2.290 -0.4407  0.5436  0.4562
  978MOL0     C28987   1.680   9.864   2.163  0.3294  0.6006  0.1610
  978MOL0     O28988   1.797   9.933   2.191  0.0413 -0.0709  0.0515
  978MOL0     C28989   1.864   9.985   2.077 -0.5117 -0.3562 -1.2324
  978MOL0     C28990   1.818   9.993   1.945  0.5186 -0.8348  0.4148
  978MOL0     C28991   1.898  10.042   1.839  0.4565 -1.1486 -0.0405
  978MOL0     C28992   2.025  10.096   1.876 -0.4100 -0.7711  0.2463
  978MOL0     C28993   2.108  10.140   1.760 -0.2475 -0.7943 -0.1266
  978MOL0     O28994   2.091  10.079   1.637 -0.7121  0.1106 -0.0991
  978MOL0     C28995   2.180  10.121   1.542 -0.4378  0.4129  0.2789
  978MOL0     C28996   2.114  10.161   1.428 -0.6481 -0.4564 -0.0118
  978MOL0     C28997   2.192  10.198   1.315  0.2212  0.9451  0.1296
  978MOL0     C28998   2.335  10.183   1.310 -0.4153 -0.8221 -0.1081
  978MOL0     O28999   2.408  10.235   1.212 -0.9262  0.0607  0.0792
  978MOL0     C29000   2.553  10.222   1.194 -0.8301 -0.3127 -0.5295
  978MOL0     C29001   2.592  10.284   1.058  0.7393 -0.5914 -0.2516
  978MOL0     C29002   2.735  10.272   1.018 -0.1494  0.1034  0.1597
  978MOL0     C29003   2.760  10.358   0.889 -0.3191  0.2768  0.0122
  978MOL0     C29004   2.898  10.337   0.825 -0.7203 -0.4977  0.0069
  978MOL0     C29005   2.899  10.409   0.693 -0.1450  0.3395  0.7123
  978MOL0     C29006   3.047  10.425   0.655  0.7948 -0.2331 -0.0481
  978MOL0     C29007   3.127  10.295   0.640  0.6004 -0.0724  0.2091
  978MOL0    Cl29008   3.031  10.177   0.549  0.1806  0.3307  0.1882
  978MOL0     C29009   2.395  10.136   1.430  1.1416  0.2585 -0.1251
  978MOL0     C29010   2.318  10.096   1.545 -0.6789 -0.1114 -0.3906
  978MOL0     O29011   2.181  10.237   1.780 -0.4712  0.0096  0.2115
  978MOL0     C29012   2.069  10.099   2.005 -0.4391 -0.1601  0.5042
  978MOL0     C29013   1.992  10.030   2.097 -0.0024 -0.3380 -0.5669
  978MOL0     N29014   1.198   9.624   2.142  0.4734  0.1623  0.1964
  978MOL0     N29015   1.083   9.576   2.180  0.1113 -0.0471  0.7810
  978MOL0     C29016   1.066  10.261   2.120 -1.2243 -0.5793  0.9023
  978MOL0     C29017   1.191  10.334   2.081 -0.0793  0.7498  0.5905
  978MOL0     C29018   1.648  10.409   2.097 -0.1161  0.5076  0.4894
  978MOL0     C29019   1.761  10.341   2.041  0.1540 -0.0808  0.2133
  978MOL0     C29020   1.884  10.406   2.018  0.1172 -0.5389 -0.4698
  978MOL0     C29021   1.905  10.540   2.039  0.0633 -1.0241  0.0372
  978MOL0     O29022   2.023  10.608   2.030 -0.4147  0.4652  0.8263
  978MOL0     C29023   2.136  10.541   1.964 -0.2522  0.0810 -0.5791
  978MOL0     C29024   2.231  10.659   1.925  0.2391 -0.1329  0.0142
  978MOL0     C29025   2.371  10.600   1.909  0.4548  0.3742 -0.2192
  978MOL0     C29026   2.469  10.714   1.894 -0.2452  0.8502  0.4100
  978MOL0     C29027   2.615  10.679   1.888 -0.3156 -0.5967  0.4871
  978MOL0     C29028   2.729  10.665   1.857 -0.7144 -0.3447 -0.2340
  978MOL0     C29029   1.790  10.613   2.090  0.0306  0.2571 -0.0158
  978MOL0     C29030   1.666  10.549   2.124  0.2307 -0.0229  0.8570
  978MOL0     H29031   1.328  10.312   2.396 -0.0014 -1.1739  0.3912
  978MOL0     H29032   1.112  10.212   2.454 -0.3625  0.9445  0.8801
  978MOL0     H29033   0.845  10.156   2.434  3.1408  1.9706 -1.1915
  978MOL0     H29034   0.963  10.022   2.415 -2.1851 -3.7829 -0.7883
  978MOL0     H29035   0.813   9.897   2.285 -0.5273  1.7197 -1.7382
  978MOL0     H29036   0.680  10.017   2.293 -0.6534  0.8658  1.0797
  978MOL0     H29037   0.625   9.852   2.453  0.2110 -0.9348 -1.1653
  978MOL0     H29038   0.680  10.001   2.540  0.0362 -0.5938  0.9484
  978MOL0     H29039   0.900   9.887   2.578  1.0379 -1.8707 -0.9097
  978MOL0     H29040   0.761   9.807   2.655  2.2848 -1.0798  0.8527
  978MOL0     H29041   0.846   9.706   2.378 -2.2454 -3.2201 -1.9743
  978MOL0     H29042   0.752   9.627   2.503 -1.8067  1.1919  0.1457
  978MOL0     H29043   0.956   9.632   2.662 -0.2278 -4.1205  0.9282
  978MOL0     H29044   1.055   9.691   2.522  1.2325 -0.0622  2.0167
  978MOL0     H29045   1.092   9.465   2.545  0.0551 -3.4806 -2.9167
  978MOL0     H29046   0.923   9.428   2.571 -1.1192  1.9896  0.2785
  978MOL0     H29047   0.899   9.487   2.303  1.6787 -0.2348 -2.1055
  978MOL0     H29048   0.994   9.348   2.374  2.2637  0.1886  0.9102
  978MOL0     H29049   1.277   9.470   2.409  1.2909 -0.8869 -1.4661
  978MOL0     H29050   1.479   9.603   2.121  1.7834 -0.8699  0.1099
  978MOL0     H29051   1.496   9.541   2.284 -1.0440  0.0354 -0.6950
  978MOL0     H29052   1.419   9.777   2.367  0.1451 -2.1989 -0.3995
  978MOL0     H29053   1.419   9.842   2.203  0.6703 -0.2731 -2.0768
  978MOL0     H29054   1.620   9.888   2.372  0.9009  0.2735  0.5654
  978MOL0     H29055   1.671   9.734   2.331  0.6781  1.7801  1.3606
  978MOL0     H29056   1.617   9.936   2.110  0.1298  1.3975  1.4261
  978MOL0     H29057   1.705   9.774   2.106 -2.3058 -1.1846  1.5704
  978MOL0     H29058   1.720   9.948   1.935 -0.8965  2.0599  0.3722
  978MOL0     H29059   1.856  10.029   1.740 -1.6354  0.0323  0.6261
  978MOL0     H29060   2.005  10.162   1.429 -0.7996 -3.2020 -1.6406
  978MOL0     H29061   2.149  10.222   1.218 -0.0037 -0.7307 -0.2134
  978MOL0     H29062   2.574  10.115   1.207 -2.6259 -0.6296  0.0439
  978MOL0     H29063   2.616  10.262   1.273 -0.1248 -1.1844 -0.6324
  978MOL0     H29064   2.579  10.393   1.061  1.0522 -0.5471  2.5314
  978MOL0     H29065   2.529  10.238   0.982 -2.1352  2.6853 -0.1507
  978MOL0     H29066   2.766  10.168   1.005 -0.1871  0.0632  0.3808
  978MOL0     H29067   2.799  10.315   1.095 -2.2477  2.1000  0.9228
  978MOL0     H29068   2.681  10.349   0.814 -0.7379  2.2839  0.1563
  978MOL0     H29069   2.750  10.465   0.907 -1.7211  0.1347  0.2067
  978MOL0     H29070   2.917  10.231   0.805  2.8560 -0.2597  1.5070
  978MOL0     H29071   2.981  10.374   0.886 -0.7265 -1.5264  0.6497
  978MOL0     H29072   2.850  10.505   0.711 -1.5819 -0.2017 -0.0860
  978MOL0     H29073   2.840  10.353   0.620 -0.6417  0.8545  0.7081
  978MOL0     H29074   3.047  10.468   0.554  1.1855 -0.4525 -0.1428
  978MOL0     H29075   3.101  10.490   0.724  0.3814 -0.9551  0.9839
  978MOL0     H29076   3.157  10.259   0.739 -1.0825 -0.9727  0.4315
  978MOL0     H29077   3.224  10.295   0.590  1.2326 -2.7651  1.2404
  978MOL0     H29078   2.502  10.118   1.429  1.1645  0.3808  0.2147
  978MOL0     H29079   2.372  10.061   1.633  0.9338  1.6858 -0.5952
  978MOL0     H29080   2.170  10.130   2.029 -0.3143  1.3451 -1.7054
  978MOL0     H29081   2.014  10.028   2.203 -2.5470  0.1723  0.0393
  978MOL0     H29082   0.993  10.246   2.042 -1.2445 -1.6741  1.1127
  978MOL0     H29083   1.218  10.386   1.990  1.8980 -2.1324 -0.6195
  978MOL0     H29084   1.760  10.245   1.991  0.8193  0.7990 -1.5557
  978MOL0     H29085   1.955  10.337   1.974 -1.8612 -3.1340  0.1736
  978MOL0     H29086   2.109  10.488   1.873 -0.5645 -1.6839  0.4912
  978MOL0     H29087   2.197  10.477   2.029  1.2091 -1.7893 -3.5961
  978MOL0     H29088   2.192  10.716   1.840 -0.8298  0.0198  0.5953
  978MOL0     H29089   2.244  10.732   2.005  1.9126  2.2050 -2.2167
  978MOL0     H29090   2.370  10.520   1.834 -1.2580 -0.7587  0.9349
  978MOL0     H29091   2.395  10.559   2.007 -0.6799 -1.5175 -0.6764
  978MOL0     H29092   2.434  10.765   1.804 -1.7890  1.8762  1.5418
  978MOL0     H29093   2.461  10.788   1.974  1.9141  2.7568 -0.9909
  978MOL0     H29094   2.827  10.659   1.812  0.0832 -0.0790  1.4033
  978MOL0     H29095   1.800  10.711   2.135  0.3658 -0.5581  1.7945
  978MOL0     H29096   1.594  10.597   2.189 -0.5856 -1.3116  0.9456
  979MOL0     O29097   0.646   7.107   6.677 -0.0229 -0.4539  0.2713
  979MOL0     C29098   0.685   7.217   6.713 -0.0757 -0.2141  0.2179
  979MOL0     O29099   0.653   7.330   6.646  0.7044  0.3015 -0.2721
  979MOL0     C29100   0.569   7.330   6.535  0.0060  0.3003  0.8797
  979MOL0     C29101   0.433   7.321   6.548 -0.1563  0.1297  0.5600
  979MOL0     C29102   0.364   7.302   6.432 -0.0307 -0.1507  0.1584
  979MOL0     C29103   0.422   7.308   6.302 -0.1297  0.2377  0.2640
  979MOL0     O29104   0.349   7.312   6.188  0.5075 -0.0343  0.4481
  979MOL0     C29105   0.227   7.234   6.189  0.4447 -0.5577 -0.2265
  979MOL0     C29106   0.250   7.086   6.188  0.3404  1.3188 -0.0943
  979MOL0     C29107   0.125   7.006   6.220  0.4648  0.2431 -0.1730
  979MOL0     C29108   0.011   7.037   6.127 -0.1175 -0.2267 -0.4196
  979MOL0     C29109  -0.104   6.947   6.162 -0.2913 -0.1068  0.2287
  979MOL0     C29110  -0.226   6.951   6.064 -0.4230 -0.2124  0.3639
  979MOL0     C29111  -0.362   6.912   6.124 -0.6314  0.8516  0.4621
  979MOL0     C29112  -0.484   6.940   6.034  0.5596  0.5844 -1.4543
  979MOL0     N29113  -0.609   6.950   6.111 -0.4183 -0.4399  0.0859
  979MOL0     C29114  -0.655   6.865   6.208 -0.0837 -0.8773 -0.3278
  979MOL0     C29115  -0.767   6.915   6.246 -0.0488 -0.4522 -0.4824
  979MOL0     C29116  -0.854   6.870   6.365  0.1275 -0.1130  0.4252
  979MOL0     C29117  -0.989   6.833   6.304  0.5775 -0.1157  0.1135
  979MOL0     C29118  -1.089   6.784   6.414 -0.1157 -0.2550 -0.3698
  979MOL0     C29119  -1.226   6.797   6.357 -0.3201  0.2342  0.6500
  979MOL0     O29120  -1.244   6.697   6.256  0.7078 -0.5169 -0.0886
  979MOL0     C29121  -1.364   6.692   6.192  0.1796 -0.2476  0.3399
  979MOL0     C29122  -1.472   6.772   6.211 -0.9353 -0.1381  0.3003
  979MOL0     C29123  -1.573   6.779   6.118 -0.3896 -0.5569 -0.6423
  979MOL0     C29124  -1.586   6.683   6.018  0.1766  0.0045  0.5830
  979MOL0     C29125  -1.699   6.682   5.919  0.0466  0.4763 -0.7177
  979MOL0     O29126  -1.764   6.803   5.904 -0.0862  0.6063  0.5629
  979MOL0     C29127  -1.898   6.815   5.857 -0.1838 -0.0286 -0.1342
  979MOL0     C29128  -1.998   6.717   5.893  0.4818  0.4066  0.4246
  979MOL0     C29129  -2.132   6.740   5.849 -0.0750  0.3689 -1.3196
  979MOL0     C29130  -2.164   6.846   5.766  0.8925  0.2337  0.1955
  979MOL0     O29131  -2.284   6.851   5.705  0.3013  0.5022  0.1814
  979MOL0     C29132  -2.370   6.949   5.759 -0.3539 -0.5254  0.2243
  979MOL0     C29133  -2.513   6.903   5.747  0.2265 -0.2090  0.6127
  979MOL0     C29134  -2.550   6.887   5.597  0.2848 -0.0605  0.2167
  979MOL0     C29135  -2.695   6.835   5.573 -0.4171 -0.1258 -0.4824
  979MOL0     C29136  -2.715   6.684   5.602  0.8786 -0.3815 -0.0947
  979MOL0     C29137  -2.854   6.631   5.615  0.2951  0.3932  0.4691
  979MOL0     C29138  -2.928   6.678   5.488  0.4203  0.8607  0.7500
  979MOL0     C29139  -3.072   6.636   5.487 -0.2144  0.0980 -0.7747
  979MOL0    Cl29140  -3.184   6.700   5.610 -0.1769 -0.1235 -0.3363
  979MOL0     C29141  -2.065   6.933   5.724  0.3063  0.4835 -0.9008
  979MOL0     C29142  -1.932   6.916   5.765  0.6373 -0.0432 -0.1068
  979MOL0     O29143  -1.721   6.577   5.858  0.0447  0.2161  0.3320
  979MOL0     C29144  -1.482   6.592   6.002 -0.3251  0.0574  0.3409
  979MOL0     C29145  -1.372   6.598   6.091 -0.8301  0.2351  0.0158
  979MOL0     N29146  -0.781   7.032   6.189  0.5802 -1.2811 -0.2719
  979MOL0     N29147  -0.690   7.056   6.099 -0.0214  0.3757 -0.2056
  979MOL0     C29148   0.557   7.326   6.290  0.5439 -0.4853 -0.1884
  979MOL0     C29149   0.629   7.339   6.408 -0.1276 -0.0139  0.2526
  979MOL0     C29150   0.777   7.224   6.826 -0.0841 -0.3767 -0.3725
  979MOL0     C29151   0.831   7.349   6.861  0.0289 -0.0312 -0.3728
  979MOL0     C29152   0.920   7.373   6.966 -1.2511  0.6274 -0.5125
  979MOL0     C29153   0.963   7.254   7.042  0.3479 -0.1726 -0.1533
  979MOL0     O29154   1.049   7.277   7.146  0.6931  0.0231  0.3763
  979MOL0     C29155   1.130   7.165   7.192 -0.5562 -0.3085  0.4050
  979MOL0     C29156   1.265   7.206   7.257 -0.0801  0.0668  0.3412
  979MOL0     C29157   1.229   7.306   7.361 -0.3644  0.3692 -0.5192
  979MOL0     C29158   1.348   7.349   7.444 -0.1633 -0.1725  0.1406
  979MOL0     C29159   1.318   7.449   7.550 -0.3623 -0.6326 -0.0884
  979MOL0     C29160   1.309   7.533   7.633  0.6906 -0.3318 -0.9083
  979MOL0     C29161   0.901   7.130   7.014 -0.3159 -0.5298  0.3125
  979MOL0     C29162   0.819   7.116   6.909 -0.1967  0.6834 -0.6648
  979MOL0     H29163   0.385   7.307   6.644 -0.4628 -1.3425  0.2229
  979MOL0     H29164   0.256   7.294   6.441 -0.3253 -0.4503 -2.5672
  979MOL0     H29165   0.159   7.257   6.106  2.4805  0.4768 -1.6668
  979MOL0     H29166   0.171   7.259   6.280 -0.6695  0.0310 -1.0457
  979MOL0     H29167   0.316   7.066   6.273  1.6582 -1.1302 -1.6029
  979MOL0     H29168   0.303   7.052   6.099  0.8705 -0.4688  0.8616
  979MOL0     H29169   0.093   7.022   6.323  0.9271 -2.2645  0.4285
  979MOL0     H29170   0.150   6.899   6.225 -0.7437 -0.1056 -1.0936
  979MOL0     H29171  -0.023   7.139   6.150  2.0744  0.4438  0.1380
  979MOL0     H29172   0.032   7.026   6.020 -0.6665  3.1814 -0.9966
  979MOL0     H29173  -0.142   6.964   6.263  0.3970 -0.0033  0.4717
  979MOL0     H29174  -0.062   6.846   6.158  0.9672  0.4104  0.0423
  979MOL0     H29175  -0.200   6.890   5.977 -1.1532  0.0476 -0.0434
  979MOL0     H29176  -0.242   7.054   6.030 -1.8389 -1.2538 -2.4682
  979MOL0     H29177  -0.351   6.805   6.145  3.5407  0.6806 -1.5510
  979MOL0     H29178  -0.373   6.953   6.225 -2.2173  1.4301  0.0754
  979MOL0     H29179  -0.500   6.869   5.952 -0.3031 -1.9762  0.7462
  979MOL0     H29180  -0.474   7.040   5.992  1.4459  0.6070 -1.2134
  979MOL0     H29181  -0.598   6.782   6.248  0.7393 -0.4333 -0.5487
  979MOL0     H29182  -0.859   6.951   6.438  0.2674 -1.2198  1.6885
  979MOL0     H29183  -0.801   6.788   6.415 -0.4725 -0.1901  0.9499
  979MOL0     H29184  -0.978   6.751   6.232  0.6869 -1.5334  1.6844
  979MOL0     H29185  -1.019   6.926   6.254  2.9902  0.8873  0.3646
  979MOL0     H29186  -1.077   6.678   6.440 -0.5637 -0.1446  0.3123
  979MOL0     H29187  -1.094   6.847   6.503  1.1926  2.7565 -2.2748
  979MOL0     H29188  -1.249   6.898   6.321  0.5866 -0.4483 -2.0880
  979MOL0     H29189  -1.302   6.779   6.434 -0.3987 -0.0148  0.5135
  979MOL0     H29190  -1.461   6.854   6.282  0.0270  0.4411 -0.4835
  979MOL0     H29191  -1.651   6.851   6.142 -0.3470 -1.2026  1.6094
  979MOL0     H29192  -1.963   6.630   5.946 -0.4866  0.5608  1.3561
  979MOL0     H29193  -2.200   6.660   5.874  0.8020  0.3145  1.1874
  979MOL0     H29194  -2.347   7.044   5.710  2.7264 -0.2068  1.9846
  979MOL0     H29195  -2.362   6.982   5.863 -0.9943  2.4720 -0.5673
  979MOL0     H29196  -2.578   6.983   5.785  0.4551  0.9450 -1.2997
  979MOL0     H29197  -2.534   6.809   5.798 -0.7723 -1.8030 -2.5032
  979MOL0     H29198  -2.476   6.823   5.549 -1.5720 -0.8371 -1.7940
  979MOL0     H29199  -2.542   6.986   5.551 -0.6140  0.8630  1.9391
  979MOL0     H29200  -2.744   6.886   5.657  1.1227 -2.5325  2.0818
  979MOL0     H29201  -2.730   6.876   5.478  1.1440 -1.2461 -1.6033
  979MOL0     H29202  -2.659   6.661   5.693 -0.4658 -2.6925  0.2054
  979MOL0     H29203  -2.680   6.617   5.524 -0.7843  1.4523 -2.5762
  979MOL0     H29204  -2.897   6.672   5.707 -1.0658  0.6605 -0.2574
  979MOL0     H29205  -2.853   6.521   5.611 -0.0269  0.3918  0.4100
  979MOL0     H29206  -2.932   6.787   5.476 -0.5646  0.8184  0.6025
  979MOL0     H29207  -2.887   6.636   5.396 -1.5907 -0.2924  0.3131
  979MOL0     H29208  -3.073   6.527   5.476  1.3497 -0.3568  2.5599
  979MOL0     H29209  -3.111   6.672   5.391  1.0206  0.5336 -1.1337
  979MOL0     H29210  -2.101   7.011   5.659  1.5943  0.6946 -1.3776
  979MOL0     H29211  -1.851   6.981   5.734 -0.0386  0.2156 -1.3839
  979MOL0     H29212  -1.479   6.518   5.923  0.4208 -1.7531  1.9805
  979MOL0     H29213  -1.289   6.537   6.059 -0.3229  1.0654 -0.2914
  979MOL0     H29214   0.605   7.329   6.193 -2.2199  1.9456 -1.6600
  979MOL0     H29215   0.738   7.349   6.404  0.0713 -2.1266 -0.8351
  979MOL0     H29216   0.788   7.434   6.809 -1.8102  1.4483  3.2141
  979MOL0     H29217   0.950   7.476   6.981  1.4326 -0.4471  2.4074
  979MOL0     H29218   1.159   7.106   7.105  1.0035 -1.7276  1.8073
  979MOL0     H29219   1.082   7.089   7.254  0.0437 -0.2712  0.9340
  979MOL0     H29220   1.315   7.114   7.291  1.3433  1.5157  2.4008
  979MOL0     H29221   1.332   7.250   7.183 -0.2850  1.0551  0.7275
  979MOL0     H29222   1.153   7.271   7.432 -0.6382  0.7408 -0.6264
  979MOL0     H29223   1.182   7.392   7.313 -1.8108 -0.7524 -1.2081
  979MOL0     H29224   1.390   7.266   7.501 -0.6989  0.2434  1.1581
  979MOL0     H29225   1.427   7.395   7.383 -0.2318  0.3697  0.4532
  979MOL0     H29226   1.305   7.606   7.711 -1.1730  0.0796 -1.3532
  979MOL0     H29227   0.922   7.044   7.076 -2.5278  0.0548  1.9917
  979MOL0     H29228   0.794   7.016   6.878  2.7909  0.0093 -1.2225
  980MOL0     O29229   5.181   4.692   2.603  0.7405 -0.7147  0.3886
  980MOL0     C29230   5.111   4.780   2.652  0.4770 -0.6929 -0.3848
  980MOL0     O29231   5.144   4.868   2.758 -0.0556  0.1327  0.7215
  980MOL0     C29232   5.270   4.848   2.806 -0.2536  0.2280  0.2557
  980MOL0     C29233   5.325   4.718   2.833  0.4193  0.4985  0.0449
  980MOL0     C29234   5.457   4.712   2.898 -0.5114 -0.4514  1.1032
  980MOL0     C29235   5.524   4.830   2.937 -0.2794 -0.7080  0.6884
  980MOL0     O29236   5.641   4.824   3.011 -0.2992  0.5335 -0.5527
  980MOL0     C29237   5.702   4.698   3.037 -0.0289 -0.3706 -0.0285
  980MOL0     C29238   5.833   4.723   3.101  0.2006 -0.3159  0.1923
  980MOL0     C29239   5.821   4.822   3.223 -0.3589  0.0955  0.0172
  980MOL0     C29240   5.947   4.815   3.312 -0.5247 -0.4208  0.5187
  980MOL0     C29241   5.936   4.853   3.459  0.3605  0.2313 -0.3775
  980MOL0     C29242   5.839   4.759   3.536  0.3920  0.2033 -0.0750
  980MOL0     C29243   5.875   4.753   3.681  0.0708 -0.0917 -0.0154
  980MOL0     C29244   5.792   4.867   3.753 -0.9460 -0.0055  0.2979
  980MOL0     N29245   5.779   4.827   3.895 -0.5832  0.1239 -0.1293
  980MOL0     C29246   5.660   4.847   3.967  0.1187 -0.2241 -0.1492
  980MOL0     C29247   5.686   4.797   4.089 -0.4937  0.8214 -1.2434
  980MOL0     C29248   5.600   4.807   4.214 -0.5798  0.3309 -0.2185
  980MOL0     C29249   5.641   4.709   4.322 -0.1557  0.9319 -1.0894
  980MOL0     C29250   5.554   4.726   4.443 -0.4090  0.5669 -0.7518
  980MOL0     C29251   5.423   4.649   4.443 -0.6183 -0.1020  0.2046
  980MOL0     O29252   5.356   4.669   4.566  0.2638  0.1791 -0.2806
  980MOL0     C29253   5.265   4.579   4.618 -0.4062  0.3308 -0.5347
  980MOL0     C29254   5.202   4.478   4.541  0.1744  0.3187  0.6694
  980MOL0     C29255   5.104   4.397   4.599 -0.2506 -0.5174  0.3453
  980MOL0     C29256   5.057   4.426   4.727 -0.6374 -0.0777  0.4939
  980MOL0     C29257   4.930   4.368   4.778  0.2191  0.4948 -0.0065
  980MOL0     O29258   4.859   4.288   4.695 -0.4119  0.0013 -0.2290
  980MOL0     C29259   4.736   4.241   4.731 -0.3133  0.3369  0.2215
  980MOL0     C29260   4.682   4.225   4.863  0.5603  0.4020 -0.0639
  980MOL0     C29261   4.543   4.189   4.887 -0.0256  0.8556  0.1796
  980MOL0     C29262   4.458   4.164   4.773  0.1022  0.1309 -0.1319
  980MOL0     O29263   4.327   4.125   4.784  0.5168  0.0409  0.2688
  980MOL0     C29264   4.274   4.078   4.909  0.6604  0.5140  0.2662
  980MOL0     C29265   4.131   4.043   4.887  0.2578 -0.2239  0.1803
  980MOL0     C29266   4.053   4.007   5.014 -0.4641  0.1678 -0.5414
  980MOL0     C29267   3.922   3.949   4.965  0.8028  0.9496 -0.1983
  980MOL0     C29268   3.838   3.911   5.091 -0.0686  0.0148  0.7351
  980MOL0     C29269   3.693   3.870   5.072  0.8354 -0.0902 -0.5640
  980MOL0     C29270   3.621   3.875   5.209  0.6206  0.1416 -0.9192
  980MOL0     C29271   3.465   3.851   5.198 -0.3344  0.5642 -0.1833
  980MOL0    Cl29272   3.420   3.693   5.129  0.0973  0.4804 -0.0140
  980MOL0     C29273   4.511   4.179   4.648 -0.3498  0.1476  0.1402
  980MOL0     C29274   4.648   4.210   4.627  0.8331  0.3694 -0.5154
  980MOL0     O29275   4.908   4.389   4.894  0.2513 -1.0009 -0.8070
  980MOL0     C29276   5.127   4.521   4.809 -0.3649 -0.5974  0.2491
  980MOL0     C29277   5.231   4.594   4.754 -0.0121  0.0637 -0.3512
  980MOL0     N29278   5.813   4.750   4.093  0.1968 -0.1714  0.3626
  980MOL0     N29279   5.870   4.770   3.978  0.7022  0.3914 -0.6087
  980MOL0     C29280   5.463   4.954   2.901 -0.1591 -1.4660  0.0786
  980MOL0     C29281   5.340   4.959   2.846 -0.5184 -0.2407 -0.4672
  980MOL0     C29282   4.967   4.767   2.613  0.3368  0.1380  0.1287
  980MOL0     C29283   4.916   4.652   2.547 -0.6919  0.3125 -0.6129
  980MOL0     C29284   4.780   4.641   2.517 -0.3237 -0.3764  0.4490
  980MOL0     C29285   4.686   4.747   2.530  0.2057 -0.1545  0.0347
  980MOL0     O29286   4.554   4.726   2.484 -0.0172 -0.0029  0.5713
  980MOL0     C29287   4.472   4.842   2.487  0.6545 -0.0228 -0.1687
  980MOL0     C29288   4.332   4.803   2.438 -0.1674  0.3039 -0.0640
  980MOL0     C29289   4.260   4.698   2.522  0.3062  0.6559  1.2650
  980MOL0     C29290   4.147   4.632   2.447  0.2344  0.9715  0.5151
  980MOL0     C29291   4.099   4.525   2.530  0.4948 -0.2629 -0.3098
  980MOL0     C29292   4.055   4.438   2.610 -0.3005 -0.1353  0.2901
  980MOL0     C29293   4.728   4.862   2.597  0.0343  0.5529  0.0889
  980MOL0     C29294   4.869   4.872   2.635  0.1790 -0.5209 -0.2862
  980MOL0     H29295   5.265   4.631   2.808 -1.6862  1.7206  0.6842
  980MOL0     H29296   5.493   4.614   2.928  1.2615  0.4732  2.1548
  980MOL0     H29297   5.719   4.634   2.950 -0.1727 -1.1481  0.5058
  980MOL0     H29298   5.639   4.641   3.106  2.0712 -0.7875  1.6345
  980MOL0     H29299   5.902   4.762   3.026 -1.3922  0.5574 -0.8819
  980MOL0     H29300   5.862   4.623   3.136 -0.7635 -1.4005 -1.9361
  980MOL0     H29301   5.732   4.811   3.285  0.7477  1.5090  1.9361
  980MOL0     H29302   5.806   4.923   3.184 -1.1910 -0.2847 -0.6796
  980MOL0     H29303   6.000   4.721   3.298 -0.3789  0.1578 -4.6336
  980MOL0     H29304   6.007   4.898   3.273  0.1902 -1.1907 -0.0498
  980MOL0     H29305   5.889   4.952   3.460  0.0087  0.1117  2.4050
  980MOL0     H29306   6.041   4.856   3.490  1.1065 -3.3641 -2.0511
  980MOL0     H29307   5.856   4.656   3.504 -1.9124 -0.5792  0.9806
  980MOL0     H29308   5.731   4.771   3.519  0.2122  1.7895  1.8302
  980MOL0     H29309   5.833   4.662   3.724  1.9555 -1.0894 -0.1872
  980MOL0     H29310   5.982   4.752   3.705  0.0302 -2.8769  0.4331
  980MOL0     H29311   5.688   4.866   3.720 -1.1592 -3.5948  0.7208
  980MOL0     H29312   5.839   4.964   3.735 -2.0820  0.1900 -1.9199
  980MOL0     H29313   5.565   4.893   3.945 -0.1026 -0.4318  0.3670
  980MOL0     H29314   5.493   4.799   4.194 -0.1976  1.8007 -3.5073
  980MOL0     H29315   5.614   4.909   4.253 -4.1684  0.0075  2.3781
  980MOL0     H29316   5.746   4.721   4.349  0.4449 -3.0356 -1.0667
  980MOL0     H29317   5.631   4.605   4.288  0.4682  0.6516 -0.4252
  980MOL0     H29318   5.611   4.706   4.534  2.2401  0.9852 -2.2041
  980MOL0     H29319   5.531   4.832   4.461 -0.9448  0.0406  2.1512
  980MOL0     H29320   5.454   4.544   4.433  0.7565  0.0651  2.2517
  980MOL0     H29321   5.360   4.681   4.359 -1.3670  0.2692  0.8894
  980MOL0     H29322   5.219   4.459   4.435  0.1437 -3.3819  1.1966
  980MOL0     H29323   5.070   4.320   4.530  1.5336 -0.8427 -0.2464
  980MOL0     H29324   4.750   4.225   4.947  0.8100  3.1538 -0.1689
  980MOL0     H29325   4.500   4.181   4.987  1.1266 -0.3008  0.6216
  980MOL0     H29326   4.269   4.149   4.992 -0.8680  0.6796  0.0594
  980MOL0     H29327   4.328   3.987   4.937 -3.0007 -2.3722 -1.2601
  980MOL0     H29328   4.128   3.960   4.815 -0.5252  0.1185 -0.1890
  980MOL0     H29329   4.086   4.126   4.833  0.8273 -0.4948 -0.7552
  980MOL0     H29330   4.039   4.092   5.081 -4.2522 -0.4908 -0.3037
  980MOL0     H29331   4.104   3.928   5.071 -1.0312 -0.0449 -0.3252
  980MOL0     H29332   3.868   4.032   4.919  0.0977  1.8627  2.1454
  980MOL0     H29333   3.928   3.865   4.896 -0.2102 -1.6075  2.6062
  980MOL0     H29334   3.823   4.009   5.138 -3.3334  0.2085 -0.4544
  980MOL0     H29335   3.898   3.840   5.150 -0.0828  1.5679  2.7419
  980MOL0     H29336   3.680   3.774   5.021 -4.0956 -1.2167  2.1837
  980MOL0     H29337   3.636   3.942   5.013 -1.7478  0.9486  2.9060
  980MOL0     H29338   3.663   3.807   5.284 -0.9027  3.6464  3.5446
  980MOL0     H29339   3.639   3.977   5.243 -1.7722  0.2643  0.2216
  980MOL0     H29340   3.416   3.925   5.134 -0.6741 -0.0388 -0.6467
  980MOL0     H29341   3.421   3.855   5.298 -0.7488  2.3379 -0.4079
  980MOL0     H29342   4.445   4.165   4.562 -0.0963  0.2159 -0.0667
  980MOL0     H29343   4.703   4.220   4.534 -1.5200  0.6538 -1.9620
  980MOL0     H29344   5.089   4.536   4.909 -0.2682 -0.9176  0.3376
  980MOL0     H29345   5.276   4.654   4.831  1.5260  1.1198 -1.9862
  980MOL0     H29346   5.513   5.044   2.936 -1.1840 -0.4780 -0.9303
  980MOL0     H29347   5.287   5.053   2.842 -0.4111 -0.1611 -0.0831
  980MOL0     H29348   4.988   4.578   2.514 -0.0900  0.8972 -0.6402
  980MOL0     H29349   4.754   4.561   2.449 -2.0522  0.9965 -0.6233
  980MOL0     H29350   4.515   4.919   2.423  0.7579  0.3030  0.2852
  980MOL0     H29351   4.468   4.874   2.591  0.7839 -0.6216  0.0285
  980MOL0     H29352   4.271   4.894   2.428  0.2204  0.3736 -2.1981
  980MOL0     H29353   4.340   4.778   2.332 -0.4369  0.6644 -0.1729
  980MOL0     H29354   4.213   4.749   2.607 -1.2386 -0.2126  0.9594
  980MOL0     H29355   4.329   4.624   2.564 -0.5873 -0.7266  0.3699
  980MOL0     H29356   4.075   4.715   2.436 -1.9898 -0.8932  0.1517
  980MOL0     H29357   4.189   4.603   2.350 -0.3705 -0.6862  0.7290
  980MOL0     H29358   4.012   4.369   2.680  1.5592 -0.9690  0.6720
  980MOL0     H29359   4.668   4.952   2.602  0.3390  0.8444 -1.1092
  980MOL0     H29360   4.900   4.967   2.678 -0.1395 -0.9450  0.9297
  981MOL0     O29361  10.755   6.980   5.375 -0.3531 -0.3077  0.5148
  981MOL0     C29362  10.775   6.979   5.495 -0.8321 -0.2629 -0.6235
  981MOL0     O29363  10.683   6.939   5.592  0.4301  0.2200 -0.0822
  981MOL0     C29364  10.559   6.912   5.553 -0.1062 -0.1873 -0.5268
  981MOL0     C29365  10.532   6.787   5.492  1.0539 -0.1184  1.2373
  981MOL0     C29366  10.393   6.762   5.465 -0.8898 -0.3331  0.5058
  981MOL0     C29367  10.288   6.843   5.497 -0.0280 -0.5685 -0.3857
  981MOL0     O29368  10.159   6.824   5.471  0.4560  1.0926  0.1335
  981MOL0     C29369  10.128   6.772   5.344 -0.8264 -0.0053 -0.2221
  981MOL0     C29370   9.982   6.742   5.342 -0.3232 -0.0291  1.0484
  981MOL0     C29371   9.968   6.663   5.204  0.4871 -0.7616 -0.4518
  981MOL0     C29372   9.826   6.610   5.174  0.5064  0.8471 -0.0174
  981MOL0     C29373   9.721   6.720   5.189  0.9286 -0.0509 -0.1395
  981MOL0     C29374   9.583   6.658   5.141 -0.4435  0.1010  0.0138
  981MOL0     C29375   9.516   6.771   5.052  0.5016  0.1957 -0.3550
  981MOL0     C29376   9.379   6.719   5.011  0.4616  0.8442 -0.0209
  981MOL0     N29377   9.311   6.789   4.903  0.4732 -0.5938 -0.4542
  981MOL0     C29378   9.297   6.927   4.880 -0.1452  0.4959  1.2755
  981MOL0     C29379   9.260   6.947   4.751 -0.2947  0.1266 -0.2134
  981MOL0     C29380   9.251   7.086   4.700 -0.1457  0.0784 -0.4110
  981MOL0     C29381   9.096   7.120   4.673 -1.6508  0.2039  0.1574
  981MOL0     C29382   9.029   7.134   4.814 -0.4573  0.6813  0.2554
  981MOL0     C29383   8.882   7.152   4.793 -0.1831  0.2151  0.3781
  981MOL0     O29384   8.825   7.207   4.906  0.4720  0.2270  0.7784
  981MOL0     C29385   8.692   7.229   4.888  0.1307 -0.0167 -0.1605
  981MOL0     C29386   8.629   7.272   4.998  0.6151  0.5126  0.2541
  981MOL0     C29387   8.492   7.311   4.996  0.7303 -0.3410 -0.2400
  981MOL0     C29388   8.417   7.294   4.878  0.1227 -0.7547  0.3384
  981MOL0     C29389   8.278   7.321   4.871 -0.4056 -0.1665 -0.8210
  981MOL0     O29390   8.209   7.314   4.985  0.0114  0.0007  0.2117
  981MOL0     C29391   8.075   7.318   4.980 -0.3918 -1.1117  0.0352
  981MOL0     C29392   7.987   7.254   4.886 -0.4315 -0.5451  0.6991
  981MOL0     C29393   7.850   7.292   4.882 -0.4394  0.8003  0.5696
  981MOL0     C29394   7.792   7.384   4.973  0.2848  0.0668  0.2081
  981MOL0     O29395   7.661   7.422   4.971 -0.1081  0.0023  0.5313
  981MOL0     C29396   7.570   7.365   4.871 -0.6291 -0.6333 -0.2716
  981MOL0     C29397   7.429   7.430   4.886 -0.7225  0.7149 -0.1845
  981MOL0     C29398   7.338   7.362   4.992 -0.7860 -1.2720  0.5911
  981MOL0     C29399   7.192   7.439   5.005  0.1615 -0.8769 -0.2771
  981MOL0     C29400   7.124   7.434   5.151  0.2082 -0.4265  0.1211
  981MOL0     C29401   6.975   7.467   5.150  0.5449 -0.0857 -0.1719
  981MOL0     C29402   6.914   7.445   5.288  0.2097  0.3115  0.4043
  981MOL0     C29403   6.765   7.444   5.281  0.1946  0.0478 -0.4455
  981MOL0    Cl29404   6.697   7.605   5.225 -0.0727 -0.1681 -0.0100
  981MOL0     C29405   7.882   7.444   5.062 -0.3270  0.1638  0.0177
  981MOL0     C29406   8.021   7.403   5.072 -0.3479  0.1264 -0.6438
  981MOL0     O29407   8.232   7.331   4.755  0.7698 -0.7830 -0.0515
  981MOL0     C29408   8.485   7.257   4.761 -0.1305 -0.7234  0.1789
  981MOL0     C29409   8.621   7.223   4.770 -0.6652 -0.2515  0.9041
  981MOL0     N29410   9.245   6.825   4.692 -0.1052  0.0834 -0.5778
  981MOL0     N29411   9.276   6.731   4.779  0.3161 -0.6396 -0.8013
  981MOL0     C29412  10.324   6.969   5.554 -0.5820 -0.5201 -0.5687
  981MOL0     C29413  10.457   7.005   5.575 -0.2061 -0.7879  0.1476
  981MOL0     C29414  10.914   7.009   5.534  0.6037  0.5026 -0.7460
  981MOL0     C29415  10.946   7.001   5.678 -0.2260  0.2977  0.2048
  981MOL0     C29416  11.073   7.039   5.720  0.5855  0.2274  0.5949
  981MOL0     C29417  11.167   7.108   5.634  0.0352 -0.8203 -0.8394
  981MOL0     O29418  11.290   7.150   5.688 -0.0184  1.1005 -0.1571
  981MOL0     C29419  11.366   7.240   5.610  0.4250 -0.5398  0.2048
  981MOL0     C29420  11.468   7.304   5.692 -0.8838  0.8214 -0.2424
  981MOL0     C29421  11.538   7.202   5.789 -0.1181  0.3379  0.0008
  981MOL0     C29422  11.648   7.283   5.865  0.1627  0.5149 -0.1657
  981MOL0     C29423  11.754   7.304   5.764  0.2152  0.3659 -0.1514
  981MOL0     C29424  11.841   7.322   5.680 -0.5290  0.5419  0.0701
  981MOL0     C29425  11.136   7.117   5.500  0.6797  0.4016 -0.0090
  981MOL0     C29426  11.010   7.067   5.445  0.0628  0.1023  0.1432
  981MOL0     H29427  10.607   6.715   5.461 -0.1150 -0.1980 -1.7292
  981MOL0     H29428  10.361   6.669   5.419 -1.8635  1.4551 -2.7173
  981MOL0     H29429  10.196   6.691   5.313 -0.2689  0.3711  0.0028
  981MOL0     H29430  10.139   6.853   5.271 -1.9212 -0.4574 -0.9116
  981MOL0     H29431   9.918   6.830   5.336 -0.4020 -0.1635 -0.9227
  981MOL0     H29432   9.947   6.675   5.421  0.5517  0.7433  2.1193
  981MOL0     H29433  10.028   6.572   5.215  2.3326  0.4338 -0.1732
  981MOL0     H29434  10.003   6.729   5.124  2.1963 -3.3838 -2.0376
  981MOL0     H29435   9.819   6.591   5.067  0.7149 -0.5263  0.1877
  981MOL0     H29436   9.797   6.526   5.237 -3.1782  2.4145  0.5962
  981MOL0     H29437   9.752   6.808   5.132 -0.0869  0.3514 -0.0973
  981MOL0     H29438   9.704   6.761   5.289 -0.1452 -0.4072 -0.1666
  981MOL0     H29439   9.520   6.636   5.228 -0.5013  3.6906  1.0142
  981MOL0     H29440   9.601   6.563   5.090 -0.4518 -0.5483  1.1702
  981MOL0     H29441   9.494   6.863   5.106 -1.1192  0.0348 -0.6730
  981MOL0     H29442   9.576   6.797   4.964  0.7456  1.0344  0.0574
  981MOL0     H29443   9.311   6.720   5.097  2.1884  1.8474  1.4255
  981MOL0     H29444   9.394   6.619   4.971  0.0354  0.7980 -0.0727
  981MOL0     H29445   9.316   7.015   4.942  0.9336  2.0356 -1.0788
  981MOL0     H29446   9.290   7.093   4.598 -2.5906 -1.5313 -1.5363
  981MOL0     H29447   9.292   7.157   4.773 -3.0371  1.4127  0.0528
  981MOL0     H29448   9.057   7.039   4.611  1.9854 -1.1510 -0.6064
  981MOL0     H29449   9.077   7.213   4.619 -1.2647  0.9627  1.2833
  981MOL0     H29450   9.037   7.054   4.889 -1.7065  2.0550  1.9495
  981MOL0     H29451   9.049   7.228   4.867 -1.2531  1.4886 -0.8471
  981MOL0     H29452   8.833   7.055   4.783  2.3569 -1.4536  2.7424
  981MOL0     H29453   8.873   7.213   4.703  1.1523 -0.8568 -0.5184
  981MOL0     H29454   8.688   7.279   5.089  1.2117 -4.0953  0.4422
  981MOL0     H29455   8.448   7.342   5.090  0.1893 -0.8237 -0.3300
  981MOL0     H29456   8.026   7.184   4.813 -0.1596  0.5401 -0.2033
  981MOL0     H29457   7.795   7.244   4.803  1.8453  0.4380 -0.8911
  981MOL0     H29458   7.568   7.256   4.883 -0.4888 -0.9237 -2.5090
  981MOL0     H29459   7.609   7.377   4.769  0.4042 -1.5185 -0.0026
  981MOL0     H29460   7.366   7.424   4.797 -1.0049 -1.0388  0.0819
  981MOL0     H29461   7.443   7.536   4.905  1.7523  0.4117 -0.0166
  981MOL0     H29462   7.388   7.367   5.089 -2.2637 -0.1600  1.3371
  981MOL0     H29463   7.318   7.259   4.964 -0.9931 -1.3971  1.1828
  981MOL0     H29464   7.216   7.544   4.983  1.5912 -1.5637 -2.2335
  981MOL0     H29465   7.119   7.415   4.927 -2.4619  0.3582  1.6389
  981MOL0     H29466   7.183   7.502   5.213 -0.2665 -0.1199  0.2385
  981MOL0     H29467   7.137   7.334   5.193 -3.0890 -0.6394  0.8972
  981MOL0     H29468   6.923   7.401   5.080  0.9016 -0.8881  0.3052
  981MOL0     H29469   6.965   7.571   5.117  2.6596  0.7948  1.7179
  981MOL0     H29470   6.946   7.352   5.336 -0.7595  1.0726  2.6774
  981MOL0     H29471   6.939   7.532   5.349 -1.4692  1.4131 -0.4164
  981MOL0     H29472   6.723   7.419   5.378 -1.9959 -1.1347 -1.6078
  981MOL0     H29473   6.730   7.363   5.216  0.4176 -2.3711  2.2782
  981MOL0     H29474   7.831   7.519   5.121 -2.9119 -2.0201  0.7847
  981MOL0     H29475   8.092   7.438   5.146 -0.9040 -0.9124  0.4240
  981MOL0     H29476   8.437   7.242   4.665  1.4634  0.4719 -0.8513
  981MOL0     H29477   8.666   7.209   4.672  1.1056  0.2223  1.6102
  981MOL0     H29478  10.245   7.036   5.585  0.5868  0.8426 -0.4465
  981MOL0     H29479  10.464   7.102   5.625 -1.5131 -1.0060  0.8046
  981MOL0     H29480  10.878   6.954   5.748  1.6017  0.2792  2.0299
  981MOL0     H29481  11.115   7.017   5.818 -0.8800  0.3227  1.2562
  981MOL0     H29482  11.297   7.315   5.572  0.5419  0.0132  1.0612
  981MOL0     H29483  11.405   7.196   5.518  2.7754  0.5745  0.6136
  981MOL0     H29484  11.546   7.346   5.627 -0.8506  1.4240  0.1745
  981MOL0     H29485  11.430   7.392   5.745 -1.1570 -0.1038  1.1469
  981MOL0     H29486  11.586   7.125   5.728  0.4154  0.8535 -0.2322
  981MOL0     H29487  11.474   7.158   5.866  0.9471  0.2927  0.8745
  981MOL0     H29488  11.605   7.377   5.901  0.7080  0.8034 -0.2567
  981MOL0     H29489  11.694   7.237   5.952  0.5476  2.3633  0.6651
  981MOL0     H29490  11.916   7.335   5.605 -2.8536 -0.0731 -2.5097
  981MOL0     H29491  11.219   7.138   5.434  4.4023 -5.0500  2.2523
  981MOL0     H29492  10.982   7.070   5.340  0.4664  1.7582  0.0500
  982MOL0     O29493   5.428   7.132   3.065  0.1756  0.3176 -0.5370
  982MOL0     C29494   5.404   7.085   2.952  0.2648 -0.0267  0.2395
  982MOL0     O29495   5.282   7.030   2.902 -0.3336 -0.3884  0.0761
  982MOL0     C29496   5.177   7.028   2.989  1.1042  0.2938  0.6781
  982MOL0     C29497   5.178   6.949   3.097 -0.1864 -0.2629 -0.0316
  982MOL0     C29498   5.072   6.954   3.185 -0.6842  0.8860  1.2029
  982MOL0     C29499   4.960   7.037   3.160  0.3557 -0.1891  1.1483
  982MOL0     O29500   4.860   7.022   3.254  0.1610  0.4135 -0.0927
  982MOL0     C29501   4.742   7.095   3.229 -0.4990 -0.2595 -0.3754
  982MOL0     C29502   4.641   7.035   3.328 -0.2371 -0.8489 -0.1245
  982MOL0     C29503   4.616   6.897   3.278 -0.1889  0.4024 -0.4261
  982MOL0     C29504   4.498   6.833   3.342  0.1002 -0.0570  0.5179
  982MOL0     C29505   4.497   6.679   3.317  0.0809  0.5329 -1.0241
  982MOL0     C29506   4.495   6.636   3.170  1.4023  0.0945 -0.1241
  982MOL0     C29507   4.365   6.657   3.097  0.5836 -0.0183  0.0166
  982MOL0     C29508   4.243   6.588   3.151 -0.3690 -0.0272  0.6906
  982MOL0     N29509   4.130   6.612   3.056  0.8982  0.1260  0.1275
  982MOL0     C29510   4.051   6.732   3.065 -0.0084 -0.4212  1.0723
  982MOL0     C29511   3.988   6.728   2.947 -0.2090 -0.6352 -0.4691
  982MOL0     C29512   3.893   6.839   2.913  0.2691  0.1621  0.8228
  982MOL0     C29513   3.759   6.785   2.880 -0.0335  0.8412  0.5222
  982MOL0     C29514   3.701   6.701   2.997  0.1816 -0.3772  0.3485
  982MOL0     C29515   3.574   6.635   2.951  0.5446  0.3565 -0.4099
  982MOL0     O29516   3.483   6.741   2.923  0.2151 -0.6095  0.6470
  982MOL0     C29517   3.363   6.703   2.869  0.2140 -0.6504 -0.1031
  982MOL0     C29518   3.318   6.573   2.853  0.4732 -0.4004  0.6696
  982MOL0     C29519   3.190   6.547   2.810 -0.2244 -0.2332  0.6942
  982MOL0     C29520   3.098   6.656   2.783  1.4992  0.1631  0.4628
  982MOL0     C29521   2.949   6.639   2.758 -0.3236  0.7895  0.3388
  982MOL0     O29522   2.904   6.509   2.759 -0.1269 -0.6896 -0.3311
  982MOL0     C29523   2.774   6.490   2.734  0.7272  0.5076  0.0921
  982MOL0     C29524   2.661   6.534   2.807  0.4767  0.1815 -0.7452
  982MOL0     C29525   2.522   6.508   2.773  0.0393  0.6872 -0.2602
  982MOL0     C29526   2.501   6.418   2.664  0.0729  0.5121  0.1151
  982MOL0     O29527   2.376   6.385   2.618 -0.1810 -0.5530  0.1068
  982MOL0     C29528   2.265   6.367   2.698 -0.1795  0.7399  0.0764
  982MOL0     C29529   2.142   6.355   2.605  0.6593  0.3269 -0.1887
  982MOL0     C29530   2.167   6.270   2.473 -0.2258 -0.0341  0.9599
  982MOL0     C29531   2.046   6.208   2.414 -0.0881 -0.4774  0.4389
  982MOL0     C29532   2.082   6.124   2.282 -0.1112 -0.4713  0.8387
  982MOL0     C29533   2.136   5.993   2.322 -0.1544  0.4493 -0.6986
  982MOL0     C29534   2.219   5.928   2.208 -0.4523  0.6098  0.6908
  982MOL0     C29535   2.294   5.805   2.251  0.0621  0.2331 -0.4310
  982MOL0    Cl29536   2.419   5.772   2.135  0.1840  0.6592  0.1421
  982MOL0     C29537   2.612   6.373   2.592  0.0569  0.3945  0.1359
  982MOL0     C29538   2.748   6.412   2.624  0.4822  0.4358  0.0162
  982MOL0     O29539   2.888   6.742   2.748  0.3925 -0.4908  0.5702
  982MOL0     C29540   3.147   6.788   2.802  0.5704  0.0145  0.5611
  982MOL0     C29541   3.277   6.808   2.836  0.8634 -0.1141  0.3711
  982MOL0     N29542   4.008   6.615   2.876 -0.1222 -0.5136 -0.1498
  982MOL0     N29543   4.103   6.551   2.940  0.0940  0.3577 -0.0896
  982MOL0     C29544   4.951   7.124   3.042  0.0694  0.0890  0.1469
  982MOL0     C29545   5.067   7.116   2.960  0.0804  0.1454 -0.0386
  982MOL0     C29546   5.510   7.113   2.850 -0.3862  0.7678 -0.1459
  982MOL0     C29547   5.474   7.130   2.718 -0.2162 -0.5987 -0.5209
  982MOL0     C29548   5.566   7.183   2.627  0.7118  0.0853  0.6590
  982MOL0     C29549   5.695   7.208   2.662  1.5943  0.1785 -0.9784
  982MOL0     O29550   5.781   7.287   2.594  0.1261 -0.1961  1.0197
  982MOL0     C29551   5.768   7.296   2.453  0.1289  0.2700 -0.7370
  982MOL0     C29552   5.860   7.216   2.364  0.6680  0.0091  0.4432
  982MOL0     C29553   5.838   7.250   2.215  0.4262  0.5930 -0.2355
  982MOL0     C29554   5.947   7.174   2.143 -0.0301  0.0862  0.1885
  982MOL0     C29555   5.908   7.038   2.104 -0.7382  0.8107  0.1515
  982MOL0     C29556   5.871   6.929   2.071  0.2386  0.0192  0.0351
  982MOL0     C29557   5.737   7.179   2.785 -0.4804  0.3191 -1.0260
  982MOL0     C29558   5.643   7.146   2.883 -0.4163  0.5376 -0.5873
  982MOL0     H29559   5.258   6.882   3.126 -0.5260 -0.3349  0.7711
  982MOL0     H29560   5.073   6.901   3.279  0.0448 -2.4537 -0.5000
  982MOL0     H29561   4.699   7.094   3.128 -1.2360  1.5888 -0.1377
  982MOL0     H29562   4.766   7.201   3.247 -1.1194 -0.2851  0.6392
  982MOL0     H29563   4.548   7.091   3.342  0.3831 -0.1160  1.4553
  982MOL0     H29564   4.689   7.041   3.427  1.7470  0.7192 -1.0953
  982MOL0     H29565   4.700   6.829   3.293 -0.5459 -0.1969 -1.1052
  982MOL0     H29566   4.596   6.898   3.171 -0.2565  0.8024 -0.4127
  982MOL0     H29567   4.514   6.828   3.450 -0.2544 -0.2226  0.5646
  982MOL0     H29568   4.407   6.886   3.314  1.2648  0.7680 -1.9047
  982MOL0     H29569   4.409   6.636   3.368  1.0972 -2.1256 -1.3608
  982MOL0     H29570   4.594   6.638   3.347 -0.3560 -0.2436 -0.6109
  982MOL0     H29571   4.496   6.527   3.164 -0.7613 -0.0062  0.6244
  982MOL0     H29572   4.588   6.671   3.125  2.2000 -3.0481 -1.1789
  982MOL0     H29573   4.344   6.765   3.093  2.6311  0.4531  0.3108
  982MOL0     H29574   4.381   6.623   2.995  1.8499  0.5929 -0.0104
  982MOL0     H29575   4.224   6.641   3.245  1.7273  1.0732  0.5356
  982MOL0     H29576   4.266   6.482   3.166 -1.6687 -0.1177  2.3023
  982MOL0     H29577   4.055   6.803   3.147 -1.0769  0.4946  0.3514
  982MOL0     H29578   3.929   6.879   2.817 -1.1230 -0.6398 -0.0730
  982MOL0     H29579   3.893   6.908   2.997 -1.6581 -0.9083  1.7795
  982MOL0     H29580   3.762   6.723   2.790 -0.3619  2.0216 -0.3102
  982MOL0     H29581   3.694   6.870   2.859 -0.2952  0.6945  0.7357
  982MOL0     H29582   3.773   6.619   3.005  0.6017 -0.0430  0.0523
  982MOL0     H29583   3.698   6.771   3.081 -0.0443  2.5194 -1.9230
  982MOL0     H29584   3.535   6.578   3.036 -1.7186 -1.3486 -2.4285
  982MOL0     H29585   3.589   6.563   2.870 -1.5963  1.4657 -1.9056
  982MOL0     H29586   3.374   6.481   2.867  1.6375  0.3084  0.8428
  982MOL0     H29587   3.154   6.447   2.788  0.7735 -1.0189  2.4508
  982MOL0     H29588   2.692   6.583   2.898 -1.1839 -3.4572  2.0256
  982MOL0     H29589   2.447   6.559   2.833  1.2311  0.5064  1.4784
  982MOL0     H29590   2.241   6.453   2.761 -0.6817  1.2490 -0.7958
  982MOL0     H29591   2.281   6.279   2.761 -2.0570  1.4352  1.6073
  982MOL0     H29592   2.124   6.458   2.572  3.7796  0.3672 -2.1711
  982MOL0     H29593   2.061   6.313   2.665  1.5469  0.0105  0.8348
  982MOL0     H29594   2.249   6.202   2.499  0.5488 -0.3068 -1.8253
  982MOL0     H29595   2.207   6.333   2.393  0.8570 -0.6570  0.9871
  982MOL0     H29596   2.005   6.140   2.489  1.5944 -0.7510  1.1489
  982MOL0     H29597   1.974   6.287   2.392 -2.1851 -2.5925 -0.7699
  982MOL0     H29598   2.153   6.184   2.225 -1.8064 -0.2440 -1.1491
  982MOL0     H29599   1.999   6.106   2.213  2.9838 -2.0214 -2.8751
  982MOL0     H29600   2.051   5.929   2.350 -1.7762  2.2889 -1.1642
  982MOL0     H29601   2.197   5.998   2.413  1.7315 -2.2392 -1.7303
  982MOL0     H29602   2.159   5.893   2.124 -0.4633 -0.0389  0.9613
  982MOL0     H29603   2.293   6.003   2.177  1.4920 -1.0515  1.0816
  982MOL0     H29604   2.220   5.725   2.258 -2.4877  2.4292 -0.2799
  982MOL0     H29605   2.342   5.818   2.348  0.9656  0.7180 -0.9340
  982MOL0     H29606   2.608   6.310   2.504  1.6058 -0.8543  0.8883
  982MOL0     H29607   2.834   6.391   2.561  1.0186  2.5533 -0.0196
  982MOL0     H29608   3.083   6.875   2.795  2.4060  1.6438  2.5719
  982MOL0     H29609   3.302   6.912   2.855 -0.2583  0.5690 -1.5470
  982MOL0     H29610   4.871   7.194   3.023  0.5737  0.2609 -1.4487
  982MOL0     H29611   5.082   7.188   2.880  2.9535 -0.2989  0.0184
  982MOL0     H29612   5.374   7.109   2.681 -0.4007  1.4870 -1.3536
  982MOL0     H29613   5.529   7.189   2.525 -0.4552  1.6678  1.1200
  982MOL0     H29614   5.771   7.400   2.417 -3.0444  0.3000 -1.2366
  982MOL0     H29615   5.670   7.269   2.412 -0.0871 -0.1350  0.0315
  982MOL0     H29616   5.963   7.236   2.394  1.0849 -1.2306 -0.0935
  982MOL0     H29617   5.835   7.113   2.393  1.1531 -0.4539 -0.7483
  982MOL0     H29618   5.850   7.356   2.194 -1.6750  0.4430 -2.6026
  982MOL0     H29619   5.741   7.220   2.174 -0.2077  1.5994  0.4883
  982MOL0     H29620   5.966   7.222   2.047 -0.7208  0.7996  0.4012
  982MOL0     H29621   6.041   7.165   2.197 -0.7051 -5.3074  1.1001
  982MOL0     H29622   5.838   6.828   2.056  2.1313 -0.3923 -1.7569
  982MOL0     H29623   5.836   7.211   2.818 -1.6113  3.2555 -0.1171
  982MOL0     H29624   5.684   7.146   2.983 -0.9325  2.7502 -0.3358
  983MOL0     O29625  11.031   7.250   8.279 -0.3755 -0.4145 -0.4527
  983MOL0     C29626  11.140   7.235   8.221  0.6858  0.6600 -0.7112
  983MOL0     O29627  11.172   7.130   8.141  0.1859 -0.6930 -0.4919
  983MOL0     C29628  11.077   7.030   8.131 -0.7616  0.2197  0.1624
  983MOL0     C29629  10.980   7.041   8.026 -0.0569  0.3466 -0.9390
  983MOL0     C29630  10.877   6.951   8.028 -0.4399  0.4364  0.8784
  983MOL0     C29631  10.871   6.838   8.115 -0.7956 -0.5537  0.1774
  983MOL0     O29632  10.777   6.744   8.115  0.2729  0.6197 -0.3526
  983MOL0     C29633  10.679   6.750   8.014  0.4135  0.1452 -0.0015
  983MOL0     C29634  10.581   6.633   8.022  0.0430 -0.1972 -0.0719
  983MOL0     C29635  10.469   6.648   7.914 -0.1955 -0.2642 -0.5395
  983MOL0     C29636  10.510   6.574   7.790 -0.1229 -0.0693 -0.3087
  983MOL0     C29637  10.423   6.596   7.665  0.0663  0.0942 -0.4635
  983MOL0     C29638  10.286   6.514   7.679  0.7748  0.4321  0.4822
  983MOL0     C29639  10.244   6.451   7.542  0.5998 -0.0890  0.2418
  983MOL0     C29640  10.151   6.558   7.467 -0.0466  1.3164 -0.5017
  983MOL0     N29641  10.112   6.509   7.335  0.2568 -0.6834  0.6440
  983MOL0     C29642   9.985   6.456   7.319  0.0967 -0.4158  0.2915
  983MOL0     C29643   9.980   6.442   7.186  0.3738 -0.3469 -0.4019
  983MOL0     C29644   9.853   6.389   7.115  0.3992  0.2866  0.5105
  983MOL0     C29645   9.879   6.327   6.983 -0.3921 -0.7105  0.2934
  983MOL0     C29646   9.878   6.417   6.864 -0.0986  0.3268  0.3848
  983MOL0     C29647   9.735   6.451   6.804 -0.0748  0.4114 -0.0800
  983MOL0     O29648   9.762   6.543   6.698  0.2716  0.6456 -0.4388
  983MOL0     C29649   9.649   6.578   6.631  0.1582 -0.2176 -1.0588
  983MOL0     C29650   9.636   6.712   6.602 -0.6874  0.1023 -0.5647
  983MOL0     C29651   9.516   6.768   6.555 -0.7820  0.0129 -0.4334
  983MOL0     C29652   9.410   6.683   6.530  1.0813  0.5113 -0.5298
  983MOL0     C29653   9.291   6.746   6.473 -0.2050 -0.8384  0.3019
  983MOL0     O29654   9.307   6.869   6.404 -0.0475  0.8877  1.0117
  983MOL0     C29655   9.199   6.915   6.332  0.3157  1.2050 -0.0593
  983MOL0     C29656   9.081   6.939   6.389 -0.0831 -1.0221 -0.0777
  983MOL0     C29657   8.983   7.018   6.326 -0.5028 -0.6416  0.1361
  983MOL0     C29658   9.005   7.057   6.193 -0.2649 -0.3758  0.1258
  983MOL0     O29659   8.909   7.149   6.144  0.4050  0.1988 -0.1859
  983MOL0     C29660   8.958   7.250   6.062  0.0254 -0.2833  0.0077
  983MOL0     C29661   8.856   7.344   6.007  0.9336  0.4029  0.3194
  983MOL0     C29662   8.917   7.470   5.958  0.5547 -0.2856  0.9214
  983MOL0     C29663   8.816   7.573   5.913  0.7209 -0.1211 -0.8004
  983MOL0     C29664   8.757   7.545   5.771 -0.0670  0.9046  0.6273
  983MOL0     C29665   8.676   7.657   5.714  0.0717 -0.7820 -0.0637
  983MOL0     C29666   8.532   7.631   5.751  0.5020 -0.1436  0.2451
  983MOL0     C29667   8.448   7.761   5.735  0.1949  0.9503 -0.2243
  983MOL0    Cl29668   8.274   7.718   5.762 -0.1465 -0.1352  0.0694
  983MOL0     C29669   9.115   7.015   6.125 -0.3583  0.3053  0.0213
  983MOL0     C29670   9.214   6.951   6.200  0.1626  0.0866  0.2730
  983MOL0     O29671   9.189   6.682   6.484  0.5602 -0.3521  0.4328
  983MOL0     C29672   9.420   6.543   6.558  0.4741 -0.3633  0.2072
  983MOL0     C29673   9.537   6.485   6.607 -0.7822 -0.1673  0.3184
  983MOL0     N29674  10.098   6.487   7.123  0.4441 -0.7092  0.2322
  983MOL0     N29675  10.180   6.514   7.216 -0.8191  0.1636 -0.3867
  983MOL0     C29676  10.977   6.820   8.206 -0.1264  0.4295 -0.1350
  983MOL0     C29677  11.076   6.919   8.220 -0.2629 -0.7406  0.1980
  983MOL0     C29678  11.250   7.338   8.228 -0.0494 -0.1151  0.3525
  983MOL0     C29679  11.385   7.315   8.182  0.2277  0.5104 -0.3052
  983MOL0     C29680  11.484   7.424   8.202  0.0286  1.3610  0.9376
  983MOL0     C29681  11.450   7.536   8.277  0.8235  1.0360 -0.6408
  983MOL0     O29682  11.543   7.634   8.295 -0.0184 -0.2868 -0.4187
  983MOL0     C29683  11.660   7.610   8.382 -0.2487  0.6241  0.2216
  983MOL0     C29684  11.635   7.652   8.529 -0.3737  0.0220  0.5411
  983MOL0     C29685  11.667   7.804   8.528 -0.2000 -0.2944 -0.0673
  983MOL0     C29686  11.628   7.856   8.673  0.7104 -0.2372  0.6583
  983MOL0     C29687  11.674   7.993   8.689 -0.2933 -0.5202 -0.4202
  983MOL0     C29688  11.718   8.103   8.710 -0.2027 -0.2597  0.6579
  983MOL0     C29689  11.315   7.540   8.336 -0.8713 -0.3617 -0.1541
  983MOL0     C29690  11.219   7.450   8.304 -0.7480  0.6749 -0.0089
  983MOL0     H29691  10.995   7.121   7.953 -0.3618  1.4079  0.1257
  983MOL0     H29692  10.807   6.972   7.947 -1.0499 -2.3960  0.5782
  983MOL0     H29693  10.719   6.758   7.912  1.3957 -0.5434  0.3229
  983MOL0     H29694  10.621   6.842   8.025  0.0722 -0.0523 -0.1268
  983MOL0     H29695  10.544   6.629   8.125  2.9097  1.0784  1.1009
  983MOL0     H29696  10.637   6.541   8.002  0.6460  0.2560 -0.5126
  983MOL0     H29697  10.444   6.753   7.895 -1.1057 -0.5019 -0.6945
  983MOL0     H29698  10.374   6.612   7.953  0.1755 -0.4306  0.2470
  983MOL0     H29699  10.609   6.604   7.754  0.4003 -0.9968  0.3405
  983MOL0     H29700  10.508   6.470   7.822 -2.1093  0.7360  2.5746
  983MOL0     H29701  10.469   6.559   7.574 -1.7656 -3.1241 -0.2392
  983MOL0     H29702  10.399   6.702   7.653 -1.6974 -0.3168 -0.8997
  983MOL0     H29703  10.216   6.579   7.734 -0.0356 -1.9392  2.4180
  983MOL0     H29704  10.305   6.432   7.748  1.3473  1.3685  1.4841
  983MOL0     H29705  10.328   6.424   7.479 -1.4663 -0.5778 -2.4604
  983MOL0     H29706  10.184   6.364   7.570  1.2594 -1.1014 -1.3884
  983MOL0     H29707  10.209   6.648   7.445 -1.4047  2.2286 -0.4837
  983MOL0     H29708  10.071   6.589   7.535  1.3529  0.3152  1.7111
  983MOL0     H29709   9.914   6.431   7.396  1.3382 -0.4759  1.4554
  983MOL0     H29710   9.780   6.469   7.098  0.5157  0.5343  1.1484
  983MOL0     H29711   9.810   6.311   7.178  1.5892 -1.6364 -0.9545
  983MOL0     H29712   9.809   6.247   6.954  0.0974 -0.8213 -0.6253
  983MOL0     H29713   9.973   6.272   6.986  0.4098  0.5656 -0.7455
  983MOL0     H29714   9.937   6.501   6.902  0.2970 -0.2153  1.0195
  983MOL0     H29715   9.930   6.360   6.786 -0.7028 -0.4183  0.5143
  983MOL0     H29716   9.660   6.488   6.874  1.1386  0.2408  1.3401
  983MOL0     H29717   9.696   6.354   6.772 -2.6490  1.5649 -0.7374
  983MOL0     H29718   9.720   6.774   6.631  0.0484 -0.1787 -1.9954
  983MOL0     H29719   9.514   6.876   6.539  0.9067  0.2328  0.5862
  983MOL0     H29720   9.082   6.932   6.497  4.0381  0.1927  0.1398
  983MOL0     H29721   8.892   7.053   6.374 -1.5665 -0.6362 -1.7759
  983MOL0     H29722   9.007   7.201   5.977 -0.8285 -1.9940  0.4422
  983MOL0     H29723   9.024   7.314   6.120 -1.3501  1.9049 -0.7052
  983MOL0     H29724   8.783   7.361   6.087 -2.4384 -0.4149 -2.3819
  983MOL0     H29725   8.793   7.302   5.928  2.0714  0.4071 -0.6120
  983MOL0     H29726   8.978   7.448   5.870 -0.7514  0.5128 -0.2200
  983MOL0     H29727   8.974   7.525   6.033 -0.3322  1.7419  0.1815
  983MOL0     H29728   8.736   7.570   5.987  1.1464  0.6923 -0.2983
  983MOL0     H29729   8.865   7.671   5.910  0.2106  0.1137 -2.0094
  983MOL0     H29730   8.700   7.452   5.773 -0.5107  1.1887  1.5152
  983MOL0     H29731   8.845   7.518   5.712 -0.3676 -2.5288  1.5579
  983MOL0     H29732   8.684   7.673   5.606  2.8299  1.0990  0.3079
  983MOL0     H29733   8.719   7.753   5.746  0.2666 -1.0129  0.3734
  983MOL0     H29734   8.495   7.553   5.685  0.0338  0.9834 -0.8636
  983MOL0     H29735   8.530   7.597   5.855 -1.2316  0.1256  0.3315
  983MOL0     H29736   8.466   7.789   5.631  1.6889 -0.3353 -0.3453
  983MOL0     H29737   8.477   7.848   5.794 -2.0763  1.0352  0.8855
  983MOL0     H29738   9.122   7.025   6.017 -0.6673 -0.4283 -0.0759
  983MOL0     H29739   9.312   6.937   6.155 -0.2834 -2.0328 -0.1433
  983MOL0     H29740   9.334   6.487   6.523  0.7789 -0.0456 -1.1253
  983MOL0     H29741   9.556   6.378   6.613 -0.8705 -0.4106 -2.3183
  983MOL0     H29742  10.979   6.732   8.270  4.7688 -0.6212 -1.3216
  983MOL0     H29743  11.139   6.910   8.308  2.4695 -0.0949 -1.5480
  983MOL0     H29744  11.417   7.229   8.124  2.6887  0.7338  0.6050
  983MOL0     H29745  11.573   7.424   8.139 -0.7227 -0.1465 -0.1956
  983MOL0     H29746  11.754   7.646   8.340 -0.1482 -0.8734 -0.9242
  983MOL0     H29747  11.669   7.501   8.386 -0.1978  0.6594  1.3391
  983MOL0     H29748  11.532   7.631   8.558 -0.6863 -1.2224 -1.3042
  983MOL0     H29749  11.703   7.597   8.594 -0.1916 -0.1238  0.2315
  983MOL0     H29750  11.605   7.856   8.454 -1.1779 -1.2549  0.0459
  983MOL0     H29751  11.775   7.819   8.516 -0.0189 -1.3697  0.0850
  983MOL0     H29752  11.519   7.849   8.680  0.5734 -0.3743 -1.1191
  983MOL0     H29753  11.670   7.787   8.747  0.4581  0.0650  1.0847
  983MOL0     H29754  11.746   8.201   8.740 -1.4114  0.0084  0.9600
  983MOL0     H29755  11.293   7.625   8.400 -2.7304  1.2022 -2.7027
  983MOL0     H29756  11.118   7.467   8.341 -0.8925  0.3345 -0.2358
  984MOL0     O29757   1.047   4.050   6.049 -0.4125  0.4883  0.3246
  984MOL0     C29758   0.991   3.936   6.041 -0.5177 -0.4261  0.1213
  984MOL0     O29759   1.050   3.825   5.991  0.8001 -0.2774 -0.1185
  984MOL0     C29760   1.172   3.831   5.926 -0.2359  0.2069 -0.1028
  984MOL0     C29761   1.193   3.825   5.786 -0.0250  0.2019  0.0862
  984MOL0     C29762   1.319   3.844   5.729  0.7272  0.0049  0.2659
  984MOL0     C29763   1.429   3.861   5.816 -0.7039 -0.5063  1.0803
  984MOL0     O29764   1.568   3.875   5.772  0.0747  0.6623  0.1854
  984MOL0     C29765   1.609   3.866   5.631  0.2233  0.6881 -0.3235
  984MOL0     C29766   1.749   3.910   5.633 -0.4147  1.2073  1.6571
  984MOL0     C29767   1.815   3.896   5.492 -0.6307 -0.2801 -0.6161
  984MOL0     C29768   1.963   3.939   5.496 -0.4366  0.9022  0.3032
  984MOL0     C29769   2.050   3.902   5.375  0.8669 -0.4660  0.5137
  984MOL0     C29770   2.184   3.973   5.388 -0.1429 -0.6589  0.0836
  984MOL0     C29771   2.306   3.907   5.308 -0.6987  0.5383  0.2611
  984MOL0     C29772   2.382   3.792   5.374 -0.5681  0.0999  0.3113
  984MOL0     N29773   2.302   3.666   5.385 -0.3409 -0.0762 -0.1048
  984MOL0     C29774   2.227   3.639   5.500 -0.0137 -0.4061  0.3427
  984MOL0     C29775   2.166   3.523   5.472 -0.2600  0.3090 -0.3637
  984MOL0     C29776   2.064   3.457   5.563  0.0936  0.7512  0.0430
  984MOL0     C29777   1.958   3.374   5.485  0.3301 -0.3997 -0.4857
  984MOL0     C29778   1.842   3.329   5.577  1.0309 -0.2586  0.1390
  984MOL0     C29779   1.749   3.448   5.619  0.5769  0.0465  0.0180
  984MOL0     O29780   1.667   3.421   5.736  0.1825  0.3114 -0.6782
  984MOL0     C29781   1.557   3.335   5.724  0.1676 -0.1500  0.2642
  984MOL0     C29782   1.483   3.326   5.834  0.7753 -0.8467 -0.1772
  984MOL0     C29783   1.367   3.252   5.840  0.6118 -0.1757  0.3505
  984MOL0     C29784   1.306   3.200   5.722  0.3204  0.4052 -0.1765
  984MOL0     C29785   1.171   3.158   5.712  0.7383  1.1775 -0.2833
  984MOL0     O29786   1.104   3.158   5.841 -0.8481 -0.0544  0.1807
  984MOL0     C29787   0.990   3.088   5.848 -0.6261 -0.0481 -0.0540
  984MOL0     C29788   1.002   2.948   5.841  0.8898 -0.2194  0.6964
  984MOL0     C29789   0.884   2.868   5.832 -0.4577 -0.7136 -0.4622
  984MOL0     C29790   0.758   2.940   5.844 -0.3890  0.7370 -0.1580
  984MOL0     O29791   0.641   2.863   5.848 -0.3261  0.5722  0.4178
  984MOL0     C29792   0.619   2.764   5.750 -0.5890 -0.4723  0.4460
  984MOL0     C29793   0.464   2.728   5.742  1.3496 -0.9193  0.4007
  984MOL0     C29794   0.407   2.813   5.628  0.5640 -0.2879  0.2049
  984MOL0     C29795   0.255   2.790   5.627 -0.4009  0.0932  0.0638
  984MOL0     C29796   0.199   2.898   5.536  0.6328 -0.1531  0.6854
  984MOL0     C29797   0.060   2.857   5.484  0.1999 -0.0051  0.5413
  984MOL0     C29798   0.007   2.955   5.382 -0.3147 -0.4640 -0.8660
  984MOL0     C29799  -0.125   2.923   5.331  0.6303 -0.9654  0.4945
  984MOL0    Cl29800  -0.240   2.991   5.439 -0.3455  0.2988 -0.3466
  984MOL0     C29801   0.756   3.080   5.844  0.7788  0.6752  0.1511
  984MOL0     C29802   0.870   3.154   5.857  0.1794 -0.5546  0.2919
  984MOL0     O29803   1.119   3.120   5.605  0.2743  0.0658  0.5163
  984MOL0     C29804   1.387   3.213   5.613  0.6000 -0.0213 -0.1847
  984MOL0     C29805   1.516   3.264   5.608 -0.1906 -0.2806 -0.3377
  984MOL0     N29806   2.209   3.476   5.350  0.6843  0.4735 -0.3039
  984MOL0     N29807   2.285   3.565   5.298 -0.8809 -0.2439  0.2080
  984MOL0     C29808   1.411   3.847   5.950  0.4786  0.3164  0.7591
  984MOL0     C29809   1.286   3.841   6.005  0.6506  0.0855  0.3608
  984MOL0     C29810   0.860   3.925   6.104 -0.5946  0.3103 -0.1396
  984MOL0     C29811   0.778   3.811   6.088 -0.4085  0.3101 -0.3285
  984MOL0     C29812   0.657   3.792   6.165 -0.5150  0.5347 -0.1400
  984MOL0     C29813   0.615   3.894   6.258 -1.0740  0.0136  1.0434
  984MOL0     O29814   0.490   3.903   6.316  0.1365  0.0148 -0.0624
  984MOL0     C29815   0.410   3.785   6.319 -0.5863 -0.3460 -0.2172
  984MOL0     C29816   0.322   3.778   6.197  0.1951  0.1230  1.3681
  984MOL0     C29817   0.240   3.648   6.182 -0.0997  0.8130  0.0767
  984MOL0     C29818   0.142   3.649   6.061  0.0824 -0.8389  0.2281
  984MOL0     C29819   0.051   3.529   6.061 -0.0458 -0.4728 -0.4172
  984MOL0     C29820  -0.012   3.432   6.079  0.1422  0.7886 -0.2229
  984MOL0     C29821   0.705   3.999   6.269  0.1265  0.0952  0.0350
  984MOL0     C29822   0.818   4.020   6.194  0.2830 -0.7229 -0.4015
  984MOL0     H29823   1.110   3.802   5.720 -0.2151  2.9547 -0.7548
  984MOL0     H29824   1.317   3.848   5.620  0.8775  1.6713  0.2908
  984MOL0     H29825   1.546   3.932   5.571 -0.6739  0.9544  0.8717
  984MOL0     H29826   1.602   3.764   5.591 -0.3853  0.6507 -0.1355
  984MOL0     H29827   1.803   3.839   5.696  0.3510 -2.7130 -2.8251
  984MOL0     H29828   1.755   4.014   5.665  0.3665  2.1298 -1.1829
  984MOL0     H29829   1.755   3.958   5.424 -1.5016  0.7442  1.0217
  984MOL0     H29830   1.801   3.793   5.458  0.6843 -0.5772 -0.3250
  984MOL0     H29831   1.966   4.046   5.520  1.3900  0.4623  2.4345
  984MOL0     H29832   2.006   3.898   5.589 -1.9644  1.3490  1.2375
  984MOL0     H29833   1.999   3.956   5.294  0.7058  2.4187  2.3701
  984MOL0     H29834   2.059   3.796   5.352 -0.6383 -0.2062 -1.5951
  984MOL0     H29835   2.213   3.991   5.492 -0.1786 -1.4239  0.2292
  984MOL0     H29836   2.171   4.073   5.346  0.9959 -0.6934 -0.3866
  984MOL0     H29837   2.274   3.894   5.205 -1.6254  2.2102  0.3049
  984MOL0     H29838   2.375   3.990   5.291  1.1258 -0.8860  0.3679
  984MOL0     H29839   2.406   3.826   5.475  0.1573  1.5303 -0.3181
  984MOL0     H29840   2.472   3.780   5.313  0.2455 -0.5135  1.5889
  984MOL0     H29841   2.205   3.707   5.582  0.1671 -0.0618  0.1105
  984MOL0     H29842   2.017   3.539   5.617 -1.2679 -0.8346  1.4116
  984MOL0     H29843   2.109   3.386   5.633  3.0696  1.8149 -0.6792
  984MOL0     H29844   2.009   3.292   5.434  2.4726  0.7444 -0.3364
  984MOL0     H29845   1.915   3.441   5.410  0.0062 -0.7896 -0.6460
  984MOL0     H29846   1.776   3.254   5.532  0.5245  1.1923 -1.6365
  984MOL0     H29847   1.880   3.281   5.668  0.5153  2.6658  2.0547
  984MOL0     H29848   1.688   3.475   5.532  1.1827 -2.2687 -1.2280
  984MOL0     H29849   1.810   3.534   5.646  3.1940 -1.0324 -1.9864
  984MOL0     H29850   1.501   3.373   5.931  1.1150 -0.4694 -0.4212
  984MOL0     H29851   1.313   3.242   5.933  1.5935  1.6857  1.1905
  984MOL0     H29852   1.101   2.904   5.836  0.4616 -1.2121  0.7308
  984MOL0     H29853   0.888   2.760   5.825 -4.3823 -1.1727  1.1513
  984MOL0     H29854   0.675   2.680   5.792  3.4830  0.7884 -1.8826
  984MOL0     H29855   0.658   2.792   5.652  2.8826 -1.5506  1.3671
  984MOL0     H29856   0.398   2.743   5.829  0.5506 -3.6013  0.3315
  984MOL0     H29857   0.458   2.624   5.710  1.5296  0.2624 -4.0662
  984MOL0     H29858   0.459   2.786   5.536 -1.0914 -2.8375 -0.0854
  984MOL0     H29859   0.423   2.920   5.643 -1.8797  0.2678 -0.5482
  984MOL0     H29860   0.246   2.697   5.571  0.3003 -0.8789  1.4961
  984MOL0     H29861   0.205   2.784   5.724 -1.4581 -2.6082 -0.5644
  984MOL0     H29862   0.261   2.900   5.446  0.7027 -2.0979  0.6275
  984MOL0     H29863   0.189   2.988   5.597 -0.4197  0.0114  0.2903
  984MOL0     H29864  -0.013   2.850   5.565 -4.9052  3.0898 -3.1998
  984MOL0     H29865   0.058   2.756   5.442  0.4322 -0.3574  1.3637
  984MOL0     H29866   0.015   3.059   5.417  4.5410 -0.3105 -1.7072
  984MOL0     H29867   0.079   2.957   5.299  2.8519 -1.0513  1.6522
  984MOL0     H29868  -0.140   2.816   5.317  0.4881 -0.5825 -3.3750
  984MOL0     H29869  -0.134   2.973   5.234 -0.1938  2.5746  2.2142
  984MOL0     H29870   0.656   3.119   5.829 -0.2333 -1.7619  0.0603
  984MOL0     H29871   0.876   3.263   5.860 -0.2078 -0.4536 -1.3580
  984MOL0     H29872   1.342   3.192   5.517  0.4515  2.2471 -0.6529
  984MOL0     H29873   1.570   3.267   5.514  0.1863 -0.6988 -0.1392
  984MOL0     H29874   1.496   3.853   6.017  1.4165  0.2346 -0.3922
  984MOL0     H29875   1.267   3.835   6.111 -1.4910 -0.4788  0.0006
  984MOL0     H29876   0.805   3.729   6.023 -2.3723 -1.2273  0.7002
  984MOL0     H29877   0.595   3.708   6.136 -0.3380  0.1609  0.5455
  984MOL0     H29878   0.346   3.798   6.407 -0.6419 -1.1092 -0.1353
  984MOL0     H29879   0.455   3.686   6.332 -2.0158 -1.5116 -3.1517
  984MOL0     H29880   0.257   3.866   6.198  1.1404  0.8481  1.6223
  984MOL0     H29881   0.373   3.787   6.100 -2.4526 -0.2725 -0.1466
  984MOL0     H29882   0.188   3.626   6.276  2.1645 -1.0864  0.9810
  984MOL0     H29883   0.316   3.571   6.168  0.9874  1.5587  1.5673
  984MOL0     H29884   0.071   3.732   6.069 -1.6992 -2.3768  0.9566
  984MOL0     H29885   0.184   3.662   5.961  2.1804  1.1875  1.2762
  984MOL0     H29886  -0.072   3.344   6.093 -0.4537  0.8100 -2.3253
  984MOL0     H29887   0.665   4.083   6.324  0.6384  0.5272 -0.2503
  984MOL0     H29888   0.873   4.110   6.219 -0.9237 -0.5383  1.8177
  985MOL0     O29889   0.143   3.101   9.872  0.1180 -0.1806 -0.7313
  985MOL0     C29890   0.245   3.029   9.878 -0.0457  0.6465  0.5672
  985MOL0     O29891   0.250   2.894   9.905  0.9933  0.7897  0.4677
  985MOL0     C29892   0.125   2.836   9.907  0.6321 -0.8025 -0.4912
  985MOL0     C29893   0.049   2.807   9.795  0.1376  0.6212 -0.1131
  985MOL0     C29894  -0.078   2.749   9.811 -0.8379  0.2154  0.5252
  985MOL0     C29895  -0.136   2.718   9.931 -0.1942 -0.4962 -0.2093
  985MOL0     O29896  -0.257   2.651   9.927  0.3101 -0.6398  1.0255
  985MOL0     C29897  -0.338   2.661  10.043 -0.8389  0.0244  0.1289
  985MOL0     C29898  -0.464   2.576  10.015 -0.0459  0.0263  0.3549
  985MOL0     C29899  -0.569   2.650   9.922 -0.4134 -0.0375 -0.5434
  985MOL0     C29900  -0.681   2.549   9.888 -0.1366 -0.6677 -0.1713
  985MOL0     C29901  -0.780   2.617   9.797 -0.7659  0.0431  0.5781
  985MOL0     C29902  -0.912   2.542   9.777  0.0585 -0.4588 -0.6191
  985MOL0     C29903  -1.008   2.620   9.688  0.0757  0.3017  0.6418
  985MOL0     C29904  -1.089   2.523   9.591  0.6339  0.1165 -0.4496
  985MOL0     N29905  -1.195   2.473   9.670  0.8608  0.3859  0.7269
  985MOL0     C29906  -1.307   2.540   9.703 -0.7772  0.1515 -0.9113
  985MOL0     C29907  -1.372   2.456   9.789 -0.5440  0.5381 -0.8924
  985MOL0     C29908  -1.511   2.483   9.848  0.1524  0.7297  0.3820
  985MOL0     C29909  -1.521   2.582   9.964 -0.2695 -1.0025  0.3003
  985MOL0     C29910  -1.531   2.725   9.914 -0.3754 -0.3506 -0.3239
  985MOL0     C29911  -1.678   2.773   9.888  0.2396  0.7265 -0.4806
  985MOL0     O29912  -1.764   2.773   9.996 -0.5980 -0.3436  0.5596
  985MOL0     C29913  -1.889   2.827   9.991 -0.3781 -0.8891 -1.0267
  985MOL0     C29914  -1.940   2.879   9.871 -0.2270  0.1865 -0.2418
  985MOL0     C29915  -2.079   2.922   9.859  0.4925  0.0613 -0.1480
  985MOL0     C29916  -2.150   2.937   9.978  0.2874  0.4479 -0.5186
  985MOL0     C29917  -2.295   2.994   9.976  0.2261  0.8958  0.2787
  985MOL0     O29918  -2.355   3.003   9.854  0.4360 -0.1601 -0.0426
  985MOL0     C29919  -2.490   3.037   9.865 -0.2523  0.3630 -0.2456
  985MOL0     C29920  -2.535   3.172   9.852 -0.4354 -0.0287 -0.2303
  985MOL0     C29921  -2.672   3.197   9.845  0.1721 -0.8856 -0.1697
  985MOL0     C29922  -2.764   3.088   9.861  0.3645 -0.3079  0.6800
  985MOL0     O29923  -2.903   3.109   9.872 -0.1746  0.0559 -0.3202
  985MOL0     C29924  -2.964   3.244   9.892 -0.7598  0.1541  0.7552
  985MOL0     C29925  -3.114   3.225   9.932  0.8617 -0.1961  0.2730
  985MOL0     C29926  -3.202   3.131   9.837  0.1507  0.0681 -0.0642
  985MOL0     C29927  -3.348   3.131   9.899 -0.3038 -1.2253 -0.9133
  985MOL0     C29928  -3.446   3.051   9.818  0.7241  0.3368  1.2661
  985MOL0     C29929  -3.593   3.070   9.873 -0.0810 -0.8146 -0.1801
  985MOL0     C29930  -3.694   2.955   9.853 -0.2410  0.5398  0.0422
  985MOL0     C29931  -3.718   2.959   9.700  0.3765  0.2467  0.2669
  985MOL0    Cl29932  -3.825   3.099   9.652 -0.0487  0.2556  0.4292
  985MOL0     C29933  -2.717   2.963   9.888  0.1214  0.0867 -0.2352
  985MOL0     C29934  -2.581   2.934   9.885 -0.7683  1.1459  0.4119
  985MOL0     O29935  -2.343   3.035  10.083  0.1273  0.5025  0.3153
  985MOL0     C29936  -2.087   2.885  10.102 -0.4430  0.3559  0.5873
  985MOL0     C29937  -1.961   2.833  10.108 -0.1609  0.6242  0.0886
  985MOL0     N29938  -1.302   2.334   9.799 -0.8719 -0.2164  0.3295
  985MOL0     N29939  -1.193   2.347   9.727 -0.9493 -0.7189 -0.2013
  985MOL0     C29940  -0.056   2.752  10.045  0.4787  0.8009  0.3555
  985MOL0     C29941   0.073   2.802  10.035 -0.2858 -0.3459  0.0715
  985MOL0     C29942   0.387   3.092   9.857 -0.3934 -0.6891 -0.1568
  985MOL0     C29943   0.394   3.228   9.827 -0.1453  0.2633  0.5806
  985MOL0     C29944   0.517   3.294   9.806  0.2184  0.1608  0.3783
  985MOL0     C29945   0.644   3.219   9.802 -0.1971  0.9994 -0.1019
  985MOL0     O29946   0.762   3.284   9.774  0.2941  0.0494 -0.0090
  985MOL0     C29947   0.887   3.217   9.819 -0.3957  0.4660 -0.4743
  985MOL0     C29948   0.947   3.141   9.711 -0.0361  0.3587 -0.5501
  985MOL0     C29949   1.055   3.050   9.765 -0.5400  0.4464 -0.0083
  985MOL0     C29950   1.112   2.961   9.652 -0.0151 -0.3671  0.2746
  985MOL0     C29951   1.251   2.932   9.655 -0.3458 -1.1477  0.0948
  985MOL0     C29952   1.369   2.911   9.665 -0.4742  0.4867 -0.1441
  985MOL0     C29953   0.634   3.082   9.829  1.1590  0.1047  0.3039
  985MOL0     C29954   0.510   3.022   9.853 -0.4196 -0.5422  0.3154
  985MOL0     H29955   0.090   2.823   9.696  2.5064  1.3937  0.9157
  985MOL0     H29956  -0.139   2.734   9.722 -1.6510  0.4067  1.0428
  985MOL0     H29957  -0.368   2.764  10.064 -1.8322 -0.0273 -0.9218
  985MOL0     H29958  -0.288   2.625  10.133  1.3576 -2.0841 -1.8002
  985MOL0     H29959  -0.493   2.556  10.119  2.7149  2.2405  1.6960
  985MOL0     H29960  -0.431   2.488   9.959 -0.9502  1.5499 -2.8161
  985MOL0     H29961  -0.522   2.692   9.833 -1.6605  1.0906 -0.7004
  985MOL0     H29962  -0.616   2.721   9.990 -1.9174 -0.0223 -1.5529
  985MOL0     H29963  -0.643   2.464   9.829  0.5170  1.0221 -2.3169
  985MOL0     H29964  -0.740   2.515   9.974 -0.8063  0.1264 -0.3094
  985MOL0     H29965  -0.725   2.625   9.703  1.6465  1.4056  2.0114
  985MOL0     H29966  -0.803   2.716   9.837  0.4769  2.4953 -4.0429
  985MOL0     H29967  -0.960   2.534   9.875 -0.5478 -1.1365 -0.9708
  985MOL0     H29968  -0.897   2.439   9.744 -1.4983 -1.2352  0.9629
  985MOL0     H29969  -1.084   2.675   9.745 -2.3055 -0.0244 -1.9925
  985MOL0     H29970  -0.937   2.683   9.633 -1.0813  0.4050 -0.7931
  985MOL0     H29971  -1.030   2.443   9.544 -1.3924 -0.6418 -1.8634
  985MOL0     H29972  -1.129   2.587   9.512 -0.7670 -0.1599  0.0130
  985MOL0     H29973  -1.342   2.636   9.666 -2.3701 -0.3144 -0.6686
  985MOL0     H29974  -1.551   2.390   9.889 -0.7097  0.7324 -0.4241
  985MOL0     H29975  -1.585   2.508   9.771  0.0169  0.3783  0.4001
  985MOL0     H29976  -1.430   2.565  10.022  0.2786  0.8473  0.0412
  985MOL0     H29977  -1.616   2.561  10.015 -2.8579  3.6310 -1.9611
  985MOL0     H29978  -1.479   2.793   9.982  0.6618 -1.1914 -0.2341
  985MOL0     H29979  -1.478   2.753   9.823 -1.4048  1.7721 -0.3255
  985MOL0     H29980  -1.717   2.713   9.805  1.2234  1.4051 -1.4594
  985MOL0     H29981  -1.675   2.872   9.841 -0.7612  0.7677 -0.4860
  985MOL0     H29982  -1.889   2.877   9.775  0.6966  1.4364  0.1982
  985MOL0     H29983  -2.112   2.959   9.762  1.0506 -0.1999 -0.4389
  985MOL0     H29984  -2.461   3.251   9.845  0.0908 -0.4307  0.7141
  985MOL0     H29985  -2.704   3.300   9.828 -2.0563 -1.3328  0.8306
  985MOL0     H29986  -2.955   3.286   9.792  1.2168 -0.2338  0.7256
  985MOL0     H29987  -2.918   3.309   9.967 -2.7672  2.6038 -0.0076
  985MOL0     H29988  -3.164   3.323   9.933  0.4152 -0.4246  1.3982
  985MOL0     H29989  -3.117   3.201  10.039 -0.2737 -0.7984  0.1206
  985MOL0     H29990  -3.149   3.035   9.831  1.7170  0.9154 -0.3329
  985MOL0     H29991  -3.195   3.181   9.740  0.6795  2.3359  1.0814
  985MOL0     H29992  -3.339   3.085   9.998  1.3398 -1.5556 -1.1963
  985MOL0     H29993  -3.374   3.237   9.903 -0.9364 -1.3114 -2.1362
  985MOL0     H29994  -3.419   2.945   9.810  4.1607  0.9701  2.6979
  985MOL0     H29995  -3.440   3.092   9.717 -2.1618  1.2162  1.3434
  985MOL0     H29996  -3.627   3.164   9.830  2.5455 -0.8779 -2.6432
  985MOL0     H29997  -3.597   3.086   9.982  2.5447  1.3224 -0.2886
  985MOL0     H29998  -3.650   2.862   9.890 -1.6651  0.3332  1.2871
  985MOL0     H29999  -3.792   2.970   9.899 -1.6085 -0.3618 -2.4337
  985MOL0     H30000  -3.766   2.867   9.666  2.1867 -0.2702 -1.0332
  985MOL0     H30001  -3.629   2.962   9.636  0.1876 -0.7705 -0.0742
  985MOL0     H30002  -2.792   2.897   9.931  1.2336 -0.2157  1.3361
  985MOL0     H30003  -2.559   2.831   9.909 -2.6870  0.7736  0.7765
  985MOL0     H30004  -2.154   2.885  10.188 -1.1015  0.7914  0.0852
  985MOL0     H30005  -1.917   2.803  10.203 -0.6477  0.8629  0.3954
  985MOL0     H30006  -0.094   2.723  10.143  0.2269  0.7095  0.2294
  985MOL0     H30007   0.116   2.822  10.132 -2.9323  1.9206  0.8888
  985MOL0     H30008   0.301   3.284   9.822 -1.9392 -2.5748 -0.0020
  985MOL0     H30009   0.514   3.398   9.776 -4.3276 -0.3229 -1.6111
  985MOL0     H30010   0.864   3.158   9.908  1.5280 -1.5449 -1.2203
  985MOL0     H30011   0.956   3.294   9.853 -3.6735  1.8886  3.8390
  985MOL0     H30012   0.868   3.069   9.686 -0.7218  0.7270  0.4720
  985MOL0     H30013   0.982   3.194   9.622  2.3174 -2.4241 -1.4498
  985MOL0     H30014   1.018   2.983   9.843 -1.8716  0.3468 -0.6864
  985MOL0     H30015   1.129   3.112   9.815 -0.7391 -0.0171  0.8728
  985MOL0     H30016   1.066   2.862   9.639 -1.4496  0.3504 -0.2787
  985MOL0     H30017   1.097   3.021   9.562  1.0393  0.4050  0.5852
  985MOL0     H30018   1.473   2.890   9.663 -0.4312  0.1774  2.0257
  985MOL0     H30019   0.717   3.012   9.837 -2.3318 -4.4454  1.0537
  985MOL0     H30020   0.513   2.913   9.850  0.3957 -0.5554  1.2084
  986MOL0     O30021   2.825   1.115   2.784 -0.5824 -0.5595  0.6648
  986MOL0     C30022   2.831   1.019   2.705 -0.1638 -0.6135 -0.5219
  986MOL0     O30023   2.723   0.952   2.656 -0.0663 -0.0766 -0.1212
  986MOL0     C30024   2.598   1.009   2.667  0.6952 -0.3110  0.1297
  986MOL0     C30025   2.571   1.144   2.669 -0.2537  0.4220 -0.6288
  986MOL0     C30026   2.441   1.193   2.675 -0.6067 -0.1644  0.4096
  986MOL0     C30027   2.330   1.105   2.657  0.1957  0.0267  0.2704
  986MOL0     O30028   2.202   1.140   2.675 -0.0092  0.0998  0.1775
  986MOL0     C30029   2.168   1.248   2.762  0.1894  0.1727  0.1259
  986MOL0     C30030   2.030   1.228   2.800  0.4278 -0.3420  0.1891
  986MOL0     C30031   1.933   1.227   2.675  0.6464  0.0851 -0.5847
  986MOL0     C30032   1.783   1.212   2.727  0.3883  0.1859 -0.6051
  986MOL0     C30033   1.686   1.225   2.614 -0.4858 -0.3835 -0.0875
  986MOL0     C30034   1.681   1.095   2.525  0.3122 -0.2696 -0.0571
  986MOL0     C30035   1.629   1.131   2.384  0.9853 -0.0771  0.3497
  986MOL0     C30036   1.654   1.010   2.294  1.1627 -0.5550 -0.3891
  986MOL0     N30037   1.797   0.979   2.258 -0.0944 -0.0509  0.1343
  986MOL0     C30038   1.875   1.081   2.200  0.6971 -0.3487 -0.6966
  986MOL0     C30039   1.985   1.020   2.165  0.1285  0.0119  0.1328
  986MOL0     C30040   2.104   1.084   2.093  0.1287  1.3294 -0.1735
  986MOL0     C30041   2.239   1.014   2.124  0.0560 -0.9152  0.1530
  986MOL0     C30042   2.306   1.076   2.256 -0.7232  0.5688  0.0883
  986MOL0     C30043   2.433   0.998   2.305  0.7032 -0.3777  0.0121
  986MOL0     O30044   2.539   1.002   2.204  0.3248  1.0995 -0.6921
  986MOL0     C30045   2.640   0.916   2.219 -0.0280  0.1736 -0.1925
  986MOL0     C30046   2.653   0.816   2.314 -0.7974  0.6364 -0.3942
  986MOL0     C30047   2.762   0.721   2.306  0.1164 -0.3749 -0.1753
  986MOL0     C30048   2.854   0.730   2.205 -0.6271  0.2348  0.3108
  986MOL0     C30049   2.969   0.635   2.199 -0.3959 -0.3603  0.1067
  986MOL0     O30050   3.062   0.668   2.100  0.5726 -0.1585  0.3461
  986MOL0     C30051   3.186   0.613   2.109  0.2117  0.3942  0.3754
  986MOL0     C30052   3.252   0.576   2.223 -0.6205 -0.7642 -0.4682
  986MOL0     C30053   3.385   0.523   2.211 -0.0283  0.2966  0.0592
  986MOL0     C30054   3.447   0.519   2.087 -0.4489 -0.0634 -0.6789
  986MOL0     O30055   3.579   0.479   2.068 -0.0981 -0.1656 -0.1410
  986MOL0     C30056   3.624   0.348   2.112 -0.3477 -0.2479  0.4530
  986MOL0     C30057   3.775   0.354   2.095 -0.7768 -0.2036 -0.1761
  986MOL0     C30058   3.841   0.457   2.181 -1.1090  0.3781 -0.1085
  986MOL0     C30059   3.991   0.442   2.171 -0.2747  0.3768  0.1297
  986MOL0     C30060   4.062   0.492   2.306 -0.4190  0.1931 -0.8077
  986MOL0     C30061   4.203   0.428   2.318  0.4756 -0.3073  0.4431
  986MOL0     C30062   4.296   0.455   2.198  0.8754  0.4713 -0.3922
  986MOL0     C30063   4.425   0.370   2.202 -0.1938  0.9220 -0.0539
  986MOL0    Cl30064   4.554   0.440   2.106 -0.3541 -0.5821  0.5627
  986MOL0     C30065   3.392   0.575   1.978  0.8303 -0.3958  0.0299
  986MOL0     C30066   3.255   0.610   1.988  0.4798 -0.3514 -0.1454
  986MOL0     O30067   2.978   0.537   2.279 -0.7755 -0.3267  0.0451
  986MOL0     C30068   2.845   0.839   2.119 -0.6957  0.2481 -1.6087
  986MOL0     C30069   2.740   0.934   2.120 -0.8052  0.8050 -0.8203
  986MOL0     N30070   1.983   0.890   2.205  0.5858  0.1235  0.2375
  986MOL0     N30071   1.873   0.860   2.261  0.7686  0.8613 -0.2687
  986MOL0     C30072   2.356   0.968   2.652  0.1966 -0.3796 -0.2030
  986MOL0     C30073   2.488   0.920   2.653  0.3093 -0.4086 -0.1665
  986MOL0     C30074   2.960   0.946   2.687  0.7937 -0.0810  0.6547
  986MOL0     C30075   2.975   0.828   2.602  0.1700 -0.9637 -0.0714
  986MOL0     C30076   3.092   0.771   2.571  0.7327 -0.0528  0.8019
  986MOL0     C30077   3.210   0.832   2.622  0.3072  0.4335 -0.3114
  986MOL0     O30078   3.337   0.785   2.575 -0.7851 -0.1648  0.2994
  986MOL0     C30079   3.406   0.887   2.511  0.0925 -0.4091  0.0834
  986MOL0     C30080   3.498   0.824   2.404 -0.3133  0.2151  0.2694
  986MOL0     C30081   3.633   0.761   2.468  0.6237 -0.0780  0.2205
  986MOL0     C30082   3.616   0.666   2.589  0.7149 -0.2119 -0.7144
  986MOL0     C30083   3.739   0.581   2.590  0.6806  0.9138  0.1222
  986MOL0     C30084   3.827   0.500   2.607  0.5356 -0.1979 -0.3806
  986MOL0     C30085   3.200   0.948   2.706  0.7572 -0.0092  0.8843
  986MOL0     C30086   3.079   1.001   2.739  0.4919 -0.9242  0.2078
  986MOL0     H30087   2.653   1.215   2.678  1.3506 -1.4709  0.6324
  986MOL0     H30088   2.425   1.300   2.681  1.0926  0.0573  2.6568
  986MOL0     H30089   2.182   1.348   2.719  1.3482  0.0902  0.2830
  986MOL0     H30090   2.213   1.251   2.861 -1.0386 -1.3924  0.7779
  986MOL0     H30091   2.004   1.303   2.875 -1.5332 -1.6571  0.9126
  986MOL0     H30092   2.021   1.134   2.854 -0.3604 -1.1037 -1.2262
  986MOL0     H30093   1.955   1.147   2.604 -2.2352 -0.6124 -0.8504
  986MOL0     H30094   1.938   1.327   2.631  1.2158  0.8834  1.1900
  986MOL0     H30095   1.777   1.114   2.775  0.9643  0.7937  0.7632
  986MOL0     H30096   1.755   1.294   2.794 -1.7908  0.3863 -1.6873
  986MOL0     H30097   1.725   1.308   2.554 -0.4599  0.0993  0.5832
  986MOL0     H30098   1.586   1.246   2.653 -1.0717 -2.6298 -0.2331
  986MOL0     H30099   1.615   1.026   2.578 -0.1234 -1.6874 -2.3180
  986MOL0     H30100   1.784   1.059   2.520  0.1220 -0.8461  0.1558
  986MOL0     H30101   1.522   1.154   2.392  0.4420 -2.3859  0.2488
  986MOL0     H30102   1.674   1.216   2.332 -1.9881  0.8134 -1.0094
  986MOL0     H30103   1.596   1.033   2.203 -0.8898  0.6896  1.1413
  986MOL0     H30104   1.608   0.924   2.344  3.5740 -0.9074  1.3641
  986MOL0     H30105   1.846   1.182   2.173  1.3918 -0.5414 -2.2611
  986MOL0     H30106   2.110   1.190   2.121  0.6139  1.2370  0.0848
  986MOL0     H30107   2.083   1.084   1.985  2.1879  2.4551 -0.6345
  986MOL0     H30108   2.310   1.029   2.042  0.8522 -1.7881  0.6668
  986MOL0     H30109   2.230   0.906   2.132  2.2033 -1.1634 -0.0934
  986MOL0     H30110   2.338   1.175   2.222  0.8648 -0.4798 -1.6296
  986MOL0     H30111   2.230   1.079   2.334  1.1130 -0.0578  2.0003
  986MOL0     H30112   2.393   0.899   2.326 -2.0216  0.4744 -0.6909
  986MOL0     H30113   2.467   1.047   2.396 -0.6176 -0.1976  0.4312
  986MOL0     H30114   2.583   0.807   2.397  0.3736 -0.8501  0.4903
  986MOL0     H30115   2.766   0.646   2.385  0.2720 -0.0387  0.1424
  986MOL0     H30116   3.204   0.585   2.319 -0.1826 -1.8043 -0.1401
  986MOL0     H30117   3.437   0.483   2.297 -1.7052 -2.1681  0.0284
  986MOL0     H30118   3.592   0.264   2.051  2.7183 -0.7604 -0.6108
  986MOL0     H30119   3.607   0.328   2.218  0.2791  0.7985  0.7693
  986MOL0     H30120   3.817   0.361   1.994  3.9108 -0.1811  1.5031
  986MOL0     H30121   3.808   0.257   2.133 -3.8769 -0.4801  2.1813
  986MOL0     H30122   3.810   0.431   2.283 -0.7812 -3.7594 -0.8844
  986MOL0     H30123   3.809   0.559   2.158 -1.8127  0.2917  0.4593
  986MOL0     H30124   4.033   0.351   2.128 -1.0257  0.0176  0.1457
  986MOL0     H30125   4.019   0.513   2.093  0.8497 -0.3514 -0.1547
  986MOL0     H30126   4.002   0.461   2.392  2.8359  1.7499  2.2769
  986MOL0     H30127   4.061   0.601   2.317 -2.1535  0.0570  0.9995
  986MOL0     H30128   4.186   0.320   2.326 -2.7218  0.2419  3.9327
  986MOL0     H30129   4.252   0.456   2.411  0.1401  1.0872  0.2122
  986MOL0     H30130   4.238   0.437   2.107 -2.5652 -2.0415  2.0329
  986MOL0     H30131   4.316   0.562   2.207 -2.7351  1.4674 -2.4896
  986MOL0     H30132   4.405   0.272   2.159 -0.1627  1.6231 -1.7331
  986MOL0     H30133   4.458   0.362   2.306  0.4823 -2.4301 -0.4030
  986MOL0     H30134   3.436   0.565   1.879  0.5471 -3.8024  0.1249
  986MOL0     H30135   3.200   0.634   1.898  1.1518  1.8919 -0.0219
  986MOL0     H30136   2.925   0.861   2.048  0.6898 -2.3920 -0.9928
  986MOL0     H30137   2.738   1.011   2.044  1.0232  0.1209 -1.6326
  986MOL0     H30138   2.272   0.900   2.650 -0.2200  0.1628 -1.6120
  986MOL0     H30139   2.526   0.818   2.645  2.0061  0.2241 -0.4142
  986MOL0     H30140   2.889   0.780   2.556  0.4614  0.9796 -2.8727
  986MOL0     H30141   3.079   0.683   2.510 -2.9879  0.3299  0.8421
  986MOL0     H30142   3.470   0.952   2.572 -1.0804  1.2896 -0.4407
  986MOL0     H30143   3.332   0.952   2.462  1.5040 -1.2038 -3.4486
  986MOL0     H30144   3.444   0.754   2.339  1.2187  2.1661 -3.3733
  986MOL0     H30145   3.526   0.908   2.340  2.8144  0.6062  1.9403
  986MOL0     H30146   3.698   0.843   2.500  0.3866  1.9216 -3.7531
  986MOL0     H30147   3.685   0.702   2.392 -0.2269 -2.4151  1.3647
  986MOL0     H30148   3.591   0.722   2.680 -2.8007 -2.0004 -0.3949
  986MOL0     H30149   3.531   0.597   2.590 -0.8224  1.4623  2.5350
  986MOL0     H30150   3.913   0.439   2.625  1.2067  1.5914  3.6947
  986MOL0     H30151   3.288   1.003   2.738  1.0045 -0.9200  1.8008
  986MOL0     H30152   3.084   1.091   2.800  0.1071 -2.2850  2.3596
  987MOL0     O30153   5.730   7.639   7.242 -0.3891 -0.3710  0.0789
  987MOL0     C30154   5.836   7.702   7.230  1.0571  0.1848  0.1387
  987MOL0     O30155   5.859   7.822   7.286 -1.0792  0.1888 -0.2912
  987MOL0     C30156   5.802   7.859   7.402  0.9848  0.2730 -0.0481
  987MOL0     C30157   5.797   7.994   7.426  0.6268 -0.8862 -0.7315
  987MOL0     C30158   5.740   8.039   7.554 -0.8731 -0.5640  0.8376
  987MOL0     C30159   5.672   7.958   7.638 -0.2906 -1.1036 -0.7018
  987MOL0     O30160   5.608   8.007   7.745  0.5703  0.0237 -0.0954
  987MOL0     C30161   5.467   8.042   7.718  0.2723 -0.0182 -0.4522
  987MOL0     C30162   5.380   7.941   7.796  0.2663  0.1746 -0.7612
  987MOL0     C30163   5.377   7.946   7.945 -0.2643  0.4841 -0.9838
  987MOL0     C30164   5.261   8.037   7.989 -0.5478 -0.5576 -0.1164
  987MOL0     C30165   5.253   8.059   8.142  0.1110  0.5171 -0.6302
  987MOL0     C30166   5.368   8.152   8.201 -0.4333 -0.1981  0.2232
  987MOL0     C30167   5.344   8.158   8.351  0.5463 -0.2022  0.9420
  987MOL0     C30168   5.423   8.050   8.427  0.1686 -0.2358 -1.8086
  987MOL0     N30169   5.373   8.060   8.564  0.1138  0.3457 -0.4526
  987MOL0     C30170   5.257   7.999   8.619 -0.1239 -0.2615 -0.6175
  987MOL0     C30171   5.260   8.020   8.751 -0.4458  0.1439  0.4662
  987MOL0     C30172   5.147   7.967   8.841 -0.9109 -0.1432 -0.6941
  987MOL0     C30173   5.004   7.962   8.776  0.1427  0.7154 -0.5115
  987MOL0     C30174   4.915   7.916   8.889 -0.5307  0.7238 -0.2555
  987MOL0     C30175   4.764   7.939   8.861  0.7607  0.0589  0.3112
  987MOL0     O30176   4.726   7.858   8.749  0.0533  0.2920 -0.4259
  987MOL0     C30177   4.594   7.866   8.709 -0.2331  0.1345  0.2298
  987MOL0     C30178   4.492   7.943   8.770 -0.3523  0.3747 -0.7241
  987MOL0     C30179   4.361   7.939   8.731  0.2625  0.1032  0.2142
  987MOL0     C30180   4.317   7.853   8.628 -0.1222 -0.8090  0.7283
  987MOL0     C30181   4.172   7.847   8.584 -0.5797  0.4197  0.5378
  987MOL0     O30182   4.083   7.918   8.657 -0.5780 -0.1934 -0.6908
  987MOL0     C30183   3.952   7.905   8.632  0.1950 -0.4865 -0.1821
  987MOL0     C30184   3.878   7.786   8.627  0.7264  0.5685  0.0060
  987MOL0     C30185   3.741   7.791   8.616  1.1174  0.6048 -0.0281
  987MOL0     C30186   3.669   7.905   8.590 -1.1635 -0.5360 -0.3904
  987MOL0     O30187   3.532   7.905   8.569  0.1056  0.5607 -0.2411
  987MOL0     C30188   3.471   8.028   8.550  0.2473  0.1265  0.0094
  987MOL0     C30189   3.328   8.003   8.512 -0.1797  0.0083  0.1264
  987MOL0     C30190   3.244   8.132   8.537 -0.1976 -0.2999  0.5675
  987MOL0     C30191   3.285   8.251   8.448  0.0918 -0.8924  0.4272
  987MOL0     C30192   3.221   8.376   8.502  0.2568 -0.3247  0.5716
  987MOL0     C30193   3.075   8.379   8.462  0.0420  0.9000 -0.1446
  987MOL0     C30194   3.037   8.520   8.436  0.1233 -0.3015 -0.9174
  987MOL0     C30195   2.892   8.540   8.396 -0.4803  0.6588 -0.1408
  987MOL0    Cl30196   2.864   8.718   8.369  0.0699 -0.0898  0.1081
  987MOL0     C30197   3.745   8.021   8.579  0.1688  0.7112  0.4672
  987MOL0     C30198   3.883   8.023   8.597 -0.0081  1.1192  0.1228
  987MOL0     O30199   4.145   7.759   8.499  0.1182 -0.6618 -0.2959
  987MOL0     C30200   4.418   7.774   8.568  1.2005 -0.6062  0.2645
  987MOL0     C30201   4.553   7.782   8.604  0.6095  0.4433  0.3577
  987MOL0     N30202   5.372   8.082   8.780  0.6506  0.2940  0.0291
  987MOL0     N30203   5.442   8.107   8.671 -0.8195 -0.8210  0.0666
  987MOL0     C30204   5.674   7.820   7.614  0.1694 -0.6448 -0.4139
  987MOL0     C30205   5.743   7.772   7.504 -0.5752 -0.6008  0.2472
  987MOL0     C30206   5.937   7.645   7.137  0.6620  0.0361  0.3045
  987MOL0     C30207   6.072   7.685   7.144  1.0200 -0.2018 -0.1042
  987MOL0     C30208   6.175   7.630   7.065 -0.5624 -0.1228 -0.1527
  987MOL0     C30209   6.141   7.522   6.985  0.2509  0.2480 -0.7206
  987MOL0     O30210   6.250   7.460   6.926  0.4834 -0.0047 -0.1503
  987MOL0     C30211   6.229   7.317   6.918  0.1416  0.1840 -0.1864
  987MOL0     C30212   6.361   7.261   6.966  0.1691 -0.3262  0.3299
  987MOL0     C30213   6.474   7.310   6.877  0.3967  0.3977  0.4194
  987MOL0     C30214   6.582   7.204   6.877  0.4877  0.3584 -0.3906
  987MOL0     C30215   6.634   7.184   7.010 -0.2273  0.2567 -0.5593
  987MOL0     C30216   6.664   7.133   7.114 -0.8760  0.4317  0.3163
  987MOL0     C30217   6.007   7.481   6.970  0.5352  0.5199 -0.0200
  987MOL0     C30218   5.905   7.543   7.047  0.1576 -0.5186  0.3009
  987MOL0     H30219   5.836   8.061   7.350 -0.7789  0.9425  0.0910
  987MOL0     H30220   5.746   8.145   7.581 -2.1698  0.3207 -1.9993
  987MOL0     H30221   5.435   8.037   7.614 -3.0228  1.1646  0.3786
  987MOL0     H30222   5.445   8.144   7.749  0.4590  0.1069 -0.7286
  987MOL0     H30223   5.405   7.839   7.763 -2.2742  0.4352 -4.0999
  987MOL0     H30224   5.281   7.948   7.749 -0.0441 -1.2272 -0.3827
  987MOL0     H30225   5.478   7.972   7.979  0.3975 -0.6471 -2.0030
  987MOL0     H30226   5.355   7.847   7.986 -1.1268  0.9208 -0.3435
  987MOL0     H30227   5.286   8.132   7.940 -0.6529 -0.6575 -0.3654
  987MOL0     H30228   5.161   8.009   7.956 -1.0132  1.4204 -0.5480
  987MOL0     H30229   5.270   7.961   8.189 -0.4165  1.1552  0.9478
  987MOL0     H30230   5.155   8.103   8.158  1.6123  3.8104  0.2332
  987MOL0     H30231   5.353   8.251   8.155 -0.8251  0.6514  2.1119
  987MOL0     H30232   5.465   8.113   8.169 -0.4336 -0.4917  0.5767
  987MOL0     H30233   5.374   8.257   8.385 -1.0997  0.8282 -0.4004
  987MOL0     H30234   5.238   8.139   8.372 -0.1278 -0.7746 -2.4063
  987MOL0     H30235   5.525   8.086   8.414  0.1710  0.8444  0.6221
  987MOL0     H30236   5.420   7.948   8.386  2.0589 -0.4999 -1.3651
  987MOL0     H30237   5.177   7.941   8.573  0.6250 -1.1888 -0.7785
  987MOL0     H30238   5.144   8.025   8.934 -2.1562  0.2170 -0.9352
  987MOL0     H30239   5.175   7.866   8.874  2.1996  0.1517 -2.1475
  987MOL0     H30240   5.007   7.889   8.695  0.2845 -0.5998  0.6368
  987MOL0     H30241   4.976   8.060   8.736  1.6978  1.3884 -0.0437
  987MOL0     H30242   4.941   7.812   8.914  0.9719  0.7475 -1.5802
  987MOL0     H30243   4.945   7.968   8.981 -3.8716 -0.4935  1.7010
  987MOL0     H30244   4.743   8.044   8.839  0.8876 -0.0955 -0.5871
  987MOL0     H30245   4.710   7.909   8.951  0.6036 -1.3405 -0.2297
  987MOL0     H30246   4.522   8.015   8.845  0.9804 -0.6008 -0.2868
  987MOL0     H30247   4.295   8.009   8.782  2.4656  3.6903 -1.4561
  987MOL0     H30248   3.924   7.688   8.631  0.1645  0.3361  0.8300
  987MOL0     H30249   3.674   7.706   8.613 -1.3032  2.2366  2.1968
  987MOL0     H30250   3.514   8.077   8.462  1.1514  0.0020  0.3781
  987MOL0     H30251   3.480   8.090   8.639 -1.2996  2.7828 -1.5318
  987MOL0     H30252   3.285   7.922   8.570  1.1366 -2.0183 -1.5895
  987MOL0     H30253   3.328   7.968   8.408  0.2318 -2.9550  1.0276
  987MOL0     H30254   3.268   8.162   8.639  0.0598  2.4001 -0.2172
  987MOL0     H30255   3.138   8.108   8.529  0.2117 -2.8292  1.5968
  987MOL0     H30256   3.392   8.274   8.452 -0.7131  3.3593  2.4419
  987MOL0     H30257   3.249   8.230   8.346 -0.2835  2.5830 -0.2673
  987MOL0     H30258   3.267   8.466   8.459 -1.1752 -0.4443 -1.3322
  987MOL0     H30259   3.227   8.392   8.610 -1.6483  0.9142  0.5375
  987MOL0     H30260   3.016   8.335   8.542  0.3095 -0.4754 -0.6665
  987MOL0     H30261   3.054   8.319   8.373  2.2028  0.7400 -0.5991
  987MOL0     H30262   3.059   8.578   8.526  0.2978  2.3902 -2.5746
  987MOL0     H30263   3.088   8.551   8.344 -0.5124 -2.1161 -1.9349
  987MOL0     H30264   2.825   8.499   8.473 -2.0113 -0.4788 -1.9878
  987MOL0     H30265   2.875   8.495   8.298  1.2672  2.3486 -1.2884
  987MOL0     H30266   3.703   8.119   8.556 -1.7431  0.0545  0.9788
  987MOL0     H30267   3.944   8.109   8.575  0.2058  0.7520 -0.7776
  987MOL0     H30268   4.402   7.711   8.481  2.1388  1.3961 -1.4818
  987MOL0     H30269   4.631   7.721   8.561  1.0841  1.2674  0.0173
  987MOL0     H30270   5.614   7.758   7.680  1.0471  0.5534  1.6158
  987MOL0     H30271   5.733   7.665   7.492  2.6002 -0.8681 -0.9033
  987MOL0     H30272   6.088   7.769   7.211  0.6976 -1.6311  1.8451
  987MOL0     H30273   6.275   7.673   7.075  0.3081 -2.2196  0.9545
  987MOL0     H30274   6.216   7.282   6.816  1.5588  0.8677 -0.6321
  987MOL0     H30275   6.151   7.270   6.979 -1.0504  2.9327  0.5785
  987MOL0     H30276   6.378   7.297   7.068  1.2086 -0.2477  0.1403
  987MOL0     H30277   6.350   7.153   6.974 -0.5909 -0.2382  0.5181
  987MOL0     H30278   6.507   7.410   6.907  1.4473  0.0164  0.5709
  987MOL0     H30279   6.432   7.311   6.776 -2.4657  0.8735  1.5298
  987MOL0     H30280   6.555   7.109   6.829  3.4110 -0.5386 -0.4307
  987MOL0     H30281   6.665   7.231   6.811  0.2706 -2.1534 -1.8436
  987MOL0     H30282   6.705   7.081   7.198 -0.6954 -3.2500 -1.8271
  987MOL0     H30283   5.974   7.402   6.903 -0.6746 -0.7468  1.9819
  987MOL0     H30284   5.801   7.512   7.035  0.4625 -1.0283 -1.3721
  988MOL0     O30285   3.557  10.345   2.245  0.2814  0.0947  0.7753
  988MOL0     C30286   3.453  10.408   2.218 -0.7577 -0.2931 -0.3921
  988MOL0     O30287   3.452  10.509   2.118  0.6075 -0.3339 -0.3461
  988MOL0     C30288   3.561  10.534   2.044 -0.0229  0.5789 -0.1569
  988MOL0     C30289   3.561  10.504   1.908  0.5679 -0.2193 -0.2634
  988MOL0     C30290   3.668  10.550   1.835 -0.3241  0.1556  0.2320
  988MOL0     C30291   3.785  10.603   1.896 -0.1969 -0.7644 -0.9833
  988MOL0     O30292   3.888  10.637   1.810  0.4248  0.1236  0.2939
  988MOL0     C30293   3.888  10.777   1.786 -0.5662  0.3757  0.3024
  988MOL0     C30294   3.970  10.814   1.659 -0.4712  0.4115  0.0460
  988MOL0     C30295   3.996  10.962   1.648  0.4635 -0.0270 -0.5108
  988MOL0     C30296   4.072  10.997   1.512  0.0703 -0.2551 -0.2570
  988MOL0     C30297   4.166  11.115   1.526 -0.6590 -0.2538 -0.4985
  988MOL0     C30298   4.106  11.238   1.480  0.0857  0.3119  0.0546
  988MOL0     C30299   4.191  11.362   1.504 -1.0961 -0.8759 -0.4007
  988MOL0     C30300   4.337  11.366   1.444 -0.3021 -0.0765  0.0518
  988MOL0     N30301   4.395  11.504   1.459 -0.2563  0.3171 -0.0813
  988MOL0     C30302   4.454  11.560   1.572  0.0508 -0.7284  1.1425
  988MOL0     C30303   4.466  11.689   1.546  0.1682  0.5162  0.6962
  988MOL0     C30304   4.511  11.787   1.652  0.3885  0.2673 -0.6638
  988MOL0     C30305   4.402  11.877   1.693 -0.0030 -0.7154 -0.2977
  988MOL0     C30306   4.463  12.003   1.750  0.0640  1.2860 -0.3210
  988MOL0     C30307   4.363  12.099   1.806  0.7301 -1.1164 -0.1514
  988MOL0     O30308   4.274  12.046   1.898  0.2303  0.1358  0.3612
  988MOL0     C30309   4.187  12.126   1.971  0.5154  0.1820  0.4544
  988MOL0     C30310   4.109  12.063   2.073 -0.0230 -0.1515  0.2303
  988MOL0     C30311   4.034  12.137   2.167  0.1931  0.3953 -0.4907
  988MOL0     C30312   4.008  12.270   2.141  0.7161  0.6693 -0.2135
  988MOL0     C30313   3.914  12.350   2.231 -0.1508 -0.1630 -0.0136
  988MOL0     O30314   3.925  12.480   2.217  0.0402 -0.5693 -0.4821
  988MOL0     C30315   3.825  12.564   2.260 -0.2906 -0.1770  0.1197
  988MOL0     C30316   3.860  12.688   2.312 -0.6822  0.0591 -0.8638
  988MOL0     C30317   3.760  12.787   2.341 -0.0120  0.0248  0.1560
  988MOL0     C30318   3.626  12.751   2.328  0.1696 -0.1821 -0.1110
  988MOL0     O30319   3.513  12.830   2.358 -0.1784  0.0063 -0.2085
  988MOL0     C30320   3.524  12.957   2.429 -0.2148 -0.0873 -0.6967
  988MOL0     C30321   3.392  12.981   2.509 -0.1017 -0.5418  0.1156
  988MOL0     C30322   3.261  12.946   2.438  0.2480 -0.2522  0.2803
  988MOL0     C30323   3.206  13.053   2.334 -0.0906  0.3136 -0.2509
  988MOL0     C30324   3.071  13.007   2.271 -0.6104  0.4694  0.8224
  988MOL0     C30325   3.014  13.103   2.163 -0.3033 -0.4818 -0.7266
  988MOL0     C30326   2.870  13.057   2.120 -0.3055 -0.2315  0.3644
  988MOL0     C30327   2.817  13.133   2.001 -0.2381 -0.7135  0.7635
  988MOL0    Cl30328   2.659  13.070   1.950 -0.2789 -0.3060  0.1327
  988MOL0     C30329   3.595  12.624   2.277  0.1340  0.3878 -0.7859
  988MOL0     C30330   3.690  12.534   2.244  0.5975 -0.3338 -0.1337
  988MOL0     O30331   3.841  12.284   2.303 -0.1671 -0.0227 -0.1744
  988MOL0     C30332   4.079  12.335   2.037 -0.3701 -0.2568  0.2768
  988MOL0     C30333   4.168  12.264   1.950 -0.1440 -0.1774 -0.4598
  988MOL0     N30334   4.420  11.711   1.410 -0.2575 -0.3435  0.0632
  988MOL0     N30335   4.375  11.603   1.364 -0.4482  0.1573  0.2412
  988MOL0     C30336   3.787  10.624   2.029 -0.3043  0.0208  0.2145
  988MOL0     C30337   3.673  10.594   2.101 -0.2699 -1.0632 -0.3558
  988MOL0     C30338   3.328  10.366   2.274  0.1020 -0.0648 -0.0123
  988MOL0     C30339   3.207  10.431   2.236  0.0032 -0.5234  0.0014
  988MOL0     C30340   3.092  10.409   2.301  0.2626  0.5615 -0.0725
  988MOL0     C30341   3.092  10.313   2.401  0.1999 -0.7058 -0.0589
  988MOL0     O30342   2.971  10.270   2.464 -0.0550 -0.0660 -0.5229
  988MOL0     C30343   2.844  10.285   2.393  0.8258 -0.5651 -0.2433
  988MOL0     C30344   2.752  10.384   2.464 -0.1191 -0.0607  0.5221
  988MOL0     C30345   2.646  10.434   2.357  0.5818  0.0582 -0.0002
  988MOL0     C30346   2.547  10.528   2.428 -0.1773 -0.9382  0.8045
  988MOL0     C30347   2.446  10.458   2.504 -0.6678  0.2461  0.5343
  988MOL0     C30348   2.359  10.406   2.560 -0.0886 -0.3650  0.2313
  988MOL0     C30349   3.201  10.239   2.440 -0.3741  0.2891 -0.2687
  988MOL0     C30350   3.325  10.267   2.377  0.5588 -0.2361  0.4494
  988MOL0     H30351   3.470  10.462   1.866 -1.1646  1.4319  1.5782
  988MOL0     H30352   3.669  10.543   1.727  2.2430  1.1981  0.1417
  988MOL0     H30353   3.926  10.834   1.871 -1.0506  1.3234 -0.0979
  988MOL0     H30354   3.784  10.805   1.767 -0.5933 -1.7716 -3.6412
  988MOL0     H30355   3.917  10.781   1.570  0.4967 -1.1600  0.0129
  988MOL0     H30356   4.068  10.765   1.658 -0.7557 -0.2719 -3.0106
  988MOL0     H30357   4.059  10.999   1.729  2.0106 -1.7708 -0.8374
  988MOL0     H30358   3.908  11.026   1.643  1.1163  0.8213 -3.2882
  988MOL0     H30359   4.133  10.918   1.469  1.7372  1.9345 -2.1751
  988MOL0     H30360   4.003  11.016   1.429  1.2199  1.1482 -0.9361
  988MOL0     H30361   4.249  11.083   1.462  2.4104 -0.4804  3.1622
  988MOL0     H30362   4.206  11.124   1.628 -0.6896 -0.2004 -0.4911
  988MOL0     H30363   4.002  11.234   1.513 -0.1589  0.4510 -0.6783
  988MOL0     H30364   4.088  11.228   1.373  2.8083 -1.9249 -0.2980
  988MOL0     H30365   4.128  11.439   1.458 -1.0728 -1.6118 -1.6906
  988MOL0     H30366   4.205  11.382   1.611  3.3883  1.7143 -1.2442
  988MOL0     H30367   4.339  11.328   1.341 -2.1086  1.8739 -0.7638
  988MOL0     H30368   4.385  11.301   1.518  1.0451  0.7388 -0.0683
  988MOL0     H30369   4.458  11.513   1.670 -2.3045 -0.5955  1.3714
  988MOL0     H30370   4.592  11.846   1.607  0.8868  2.5468  2.7938
  988MOL0     H30371   4.544  11.729   1.738 -2.9346 -0.5615  0.1874
  988MOL0     H30372   4.326  11.827   1.753  0.7614  0.7851  2.0409
  988MOL0     H30373   4.347  11.921   1.609  0.7918  1.1557  0.1021
  988MOL0     H30374   4.535  11.981   1.829  0.3235  0.7779 -0.6909
  988MOL0     H30375   4.514  12.048   1.664 -3.3033  0.1354 -3.2115
  988MOL0     H30376   4.297  12.136   1.728 -4.4902 -0.5493  3.9966
  988MOL0     H30377   4.415  12.181   1.857 -1.6687 -0.6451  1.6997
  988MOL0     H30378   4.126  11.958   2.094  2.0178  0.0020 -0.4760
  988MOL0     H30379   4.016  12.081   2.258  1.4242 -1.1972 -1.1776
  988MOL0     H30380   3.962  12.715   2.335 -1.1433  2.0725 -1.0210
  988MOL0     H30381   3.782  12.885   2.381  0.0696 -1.2407  3.5828
  988MOL0     H30382   3.530  13.040   2.359 -1.2524  0.3325 -0.3123
  988MOL0     H30383   3.607  12.967   2.499 -3.4323  0.0093  3.5076
  988MOL0     H30384   3.398  13.085   2.543  0.6330 -1.7438  4.3049
  988MOL0     H30385   3.407  12.922   2.600 -0.8263 -0.0413  0.5651
  988MOL0     H30386   3.183  12.948   2.514 -1.6140  0.1962 -1.5352
  988MOL0     H30387   3.262  12.845   2.396 -0.5708  0.2640 -1.0696
  988MOL0     H30388   3.191  13.145   2.392 -0.7797  0.1860 -0.2167
  988MOL0     H30389   3.276  13.067   2.252 -0.1943 -0.0672 -0.4064
  988MOL0     H30390   2.994  13.002   2.349 -1.2348  1.8393  0.3235
  988MOL0     H30391   3.068  12.906   2.229 -1.0979  0.4950  0.7966
  988MOL0     H30392   3.092  13.102   2.086  1.5760  0.0961  1.0497
  988MOL0     H30393   3.007  13.205   2.201  0.5010 -0.9843  0.8595
  988MOL0     H30394   2.875  12.950   2.101  2.2739 -0.1005  0.0090
  988MOL0     H30395   2.794  13.067   2.199  0.9475 -0.8625  1.6970
  988MOL0     H30396   2.896  13.111   1.928 -0.1057 -0.2772  0.7678
  988MOL0     H30397   2.813  13.241   2.017 -2.4286 -0.4672 -0.9925
  988MOL0     H30398   3.489  12.611   2.256  0.0228  1.2002 -0.7624
  988MOL0     H30399   3.661  12.435   2.210  0.6934 -0.9482  1.4879
  988MOL0     H30400   4.077  12.443   2.023 -1.9618  0.2574  3.4642
  988MOL0     H30401   4.222  12.337   1.891  0.9035 -0.2332  0.3984
  988MOL0     H30402   3.873  10.672   2.074 -0.1616  0.2800 -0.3311
  988MOL0     H30403   3.674  10.619   2.207 -0.9156 -1.0893 -0.3417
  988MOL0     H30404   3.210  10.506   2.158  0.4068 -0.2178  0.3069
  988MOL0     H30405   2.999  10.464   2.287 -3.1582 -4.2872  0.8010
  988MOL0     H30406   2.793  10.189   2.399 -2.0672  0.9060  0.8383
  988MOL0     H30407   2.856  10.308   2.287 -0.6796  0.9560 -0.1379
  988MOL0     H30408   2.692  10.328   2.536 -6.1211  2.4474 -1.8067
  988MOL0     H30409   2.804  10.473   2.502  2.9367 -0.3780 -2.3980
  988MOL0     H30410   2.597  10.349   2.309 -1.6762  0.8697  0.7443
  988MOL0     H30411   2.712  10.484   2.286  1.6016 -0.8831  0.2618
  988MOL0     H30412   2.599  10.603   2.489 -1.1160  2.4859 -2.2944
  988MOL0     H30413   2.504  10.599   2.357  1.5928  0.4180  1.0255
  988MOL0     H30414   2.280  10.350   2.607 -0.0006 -1.0742 -0.4417
  988MOL0     H30415   3.195  10.171   2.524 -0.8610  1.4854  0.6970
  988MOL0     H30416   3.419  10.223   2.410  1.2261  0.1247 -0.9155
  989MOL0     O30417   1.587   6.892   0.354  0.1162  0.2512 -0.0676
  989MOL0     C30418   1.651   6.998   0.348 -0.4764 -0.0561 -0.3109
  989MOL0     O30419   1.599   7.114   0.350  0.1595  0.1178  0.6874
  989MOL0     C30420   1.470   7.120   0.361  0.5516 -0.2577  0.8962
  989MOL0     C30421   1.422   7.227   0.443  0.2198  0.6553  0.3642
  989MOL0     C30422   1.284   7.259   0.456 -0.5492 -0.6015 -0.8465
  989MOL0     C30423   1.190   7.181   0.388 -0.1917 -0.1109  0.0585
  989MOL0     O30424   1.050   7.208   0.382 -0.0324  0.0203 -0.9179
  989MOL0     C30425   0.992   7.249   0.505  0.8150 -0.0642  0.3078
  989MOL0     C30426   0.838   7.254   0.490 -0.0066 -0.4296 -0.5462
  989MOL0     C30427   0.787   7.111   0.492 -0.0661  0.2152  0.2211
  989MOL0     C30428   0.636   7.104   0.484  0.5056  0.3732 -0.1715
  989MOL0     C30429   0.555   7.148   0.608  0.7017 -0.0065  0.5221
  989MOL0     C30430   0.409   7.174   0.575  0.0865  0.5573 -0.1049
  989MOL0     C30431   0.319   7.226   0.689 -0.1348  0.5253  0.9335
  989MOL0     C30432   0.179   7.270   0.655 -0.5324  0.4767 -0.7490
  989MOL0     N30433   0.086   7.154   0.663  0.2460  0.0845 -0.1013
  989MOL0     C30434   0.010   7.117   0.780  0.2332 -0.2466 -0.6794
  989MOL0     C30435  -0.034   6.996   0.757  0.5144 -0.1268 -0.2734
  989MOL0     C30436  -0.125   6.926   0.855 -0.7337  0.3741  0.2217
  989MOL0     C30437  -0.273   6.964   0.829  1.0685 -0.6417  1.1163
  989MOL0     C30438  -0.326   6.937   0.690  0.2825  0.2926  0.4818
  989MOL0     C30439  -0.480   6.966   0.686 -0.2152 -0.0886 -0.0797
  989MOL0     O30440  -0.536   6.858   0.760 -0.2105 -0.5391  0.1063
  989MOL0     C30441  -0.676   6.858   0.777 -0.3250 -1.0623  0.2916
  989MOL0     C30442  -0.763   6.969   0.754 -0.1407 -0.1425  0.0054
  989MOL0     C30443  -0.900   6.960   0.753 -0.6991 -0.0395  0.1919
  989MOL0     C30444  -0.956   6.841   0.790 -0.1090  0.2535  0.7237
  989MOL0     C30445  -1.103   6.831   0.803 -0.3875 -0.5166 -1.1849
  989MOL0     O30446  -1.143   6.710   0.843  0.1886 -0.0377  0.5016
  989MOL0     C30447  -1.278   6.692   0.854 -1.0390 -1.0998  0.4263
  989MOL0     C30448  -1.341   6.717   0.973  0.1763  1.3159 -0.1216
  989MOL0     C30449  -1.482   6.736   0.985 -0.1660  0.0917  0.1679
  989MOL0     C30450  -1.562   6.725   0.869 -0.0450  0.9505  0.5417
  989MOL0     O30451  -1.693   6.746   0.858  0.2580 -0.5518 -0.1500
  989MOL0     C30452  -1.776   6.774   0.975 -0.8373 -0.8493  0.0695
  989MOL0     C30453  -1.918   6.745   0.935  0.8741 -0.5642 -0.0471
  989MOL0     C30454  -2.015   6.807   1.037 -0.8065 -0.2228 -0.0422
  989MOL0     C30455  -2.159   6.801   0.995  0.7519  0.0752 -0.0652
  989MOL0     C30456  -2.256   6.887   1.077 -0.1979 -0.5248  0.1051
  989MOL0     C30457  -2.399   6.900   1.002 -0.4336  0.4596  0.5403
  989MOL0     C30458  -2.500   6.997   1.070  0.0259 -0.0113 -0.9558
  989MOL0     C30459  -2.595   6.918   1.166 -0.2314  0.1369  0.6580
  989MOL0    Cl30460  -2.729   6.855   1.077  0.2945  0.2995 -0.1409
  989MOL0     C30461  -1.496   6.693   0.749  0.2173  0.0168  0.1260
  989MOL0     C30462  -1.353   6.683   0.733  0.6644  0.4443  0.2453
  989MOL0     O30463  -1.171   6.930   0.772 -0.0257 -0.1580  0.7617
  989MOL0     C30464  -0.875   6.727   0.816  0.3291 -0.3721  0.0575
  989MOL0     C30465  -0.737   6.738   0.806 -0.1547  0.6727 -0.3317
  989MOL0     N30466   0.028   6.948   0.643 -0.2084 -0.2270  0.3549
  989MOL0     N30467   0.092   7.039   0.583  0.0834 -0.5803 -0.9963
  989MOL0     C30468   1.232   7.078   0.299  0.1575 -1.2486 -0.1075
  989MOL0     C30469   1.372   7.053   0.275 -0.0744 -0.5354 -0.2514
  989MOL0     C30470   1.796   6.990   0.325 -0.4545 -0.0640  1.0083
  989MOL0     C30471   1.876   7.108   0.295 -0.8790  0.3754  0.6429
  989MOL0     C30472   2.019   7.108   0.284  0.0981  1.4353  0.0366
  989MOL0     C30473   2.080   6.984   0.289 -0.3985  0.8884  0.4811
  989MOL0     O30474   2.214   6.991   0.275 -0.1375 -0.0407  0.0572
  989MOL0     C30475   2.279   6.894   0.193 -0.1761  0.6958 -0.2109
  989MOL0     C30476   2.428   6.912   0.184  0.3351 -0.7755  0.2635
  989MOL0     C30477   2.503   6.894   0.319  0.0157 -0.1926 -0.3476
  989MOL0     C30478   2.653   6.888   0.310  0.3141  0.0473  0.1244
  989MOL0     C30479   2.725   6.980   0.226 -0.7446 -0.5866  0.2876
  989MOL0     C30480   2.778   7.059   0.151 -0.8364 -0.2473 -0.5670
  989MOL0     C30481   2.007   6.866   0.295  0.2153 -0.2897 -0.5070
  989MOL0     C30482   1.864   6.866   0.315  0.2345 -0.1536 -0.4606
  989MOL0     H30483   1.489   7.282   0.509 -0.0739  1.3200  0.1176
  989MOL0     H30484   1.241   7.347   0.502 -4.0469 -3.3759  1.7815
  989MOL0     H30485   1.022   7.353   0.524  1.4426 -0.1997  0.0578
  989MOL0     H30486   1.027   7.190   0.590  3.6459  1.8969  0.6443
  989MOL0     H30487   0.812   7.311   0.401 -1.1274  2.7190  1.6303
  989MOL0     H30488   0.806   7.313   0.576 -0.5800  1.4285 -1.9901
  989MOL0     H30489   0.827   7.058   0.580 -1.0876 -2.6869 -0.9541
  989MOL0     H30490   0.827   7.063   0.403  1.8776  2.2829 -0.1164
  989MOL0     H30491   0.590   7.168   0.408  0.8517  0.2845 -0.4610
  989MOL0     H30492   0.608   7.001   0.460  1.2639 -0.0474  0.6887
  989MOL0     H30493   0.589   7.235   0.665  0.4727  0.4451 -0.0206
  989MOL0     H30494   0.555   7.061   0.675 -0.2684 -0.3739  0.0651
  989MOL0     H30495   0.361   7.086   0.532  2.8875 -1.0405 -0.1998
  989MOL0     H30496   0.403   7.248   0.495 -0.6061  0.9599  0.3047
  989MOL0     H30497   0.323   7.143   0.761  0.8808  0.3990  0.7587
  989MOL0     H30498   0.373   7.310   0.732  1.5117 -0.4306  0.8287
  989MOL0     H30499   0.178   7.321   0.559 -1.2594  3.2078  0.6008
  989MOL0     H30500   0.152   7.343   0.732  0.8451 -1.3409  1.6071
  989MOL0     H30501  -0.008   7.173   0.871  1.2454 -3.5527  1.7610
  989MOL0     H30502  -0.089   6.944   0.957  0.8591 -1.3913  0.0237
  989MOL0     H30503  -0.122   6.818   0.841  1.7031 -0.2870  4.1932
  989MOL0     H30504  -0.281   7.070   0.856 -0.2692 -1.0850  2.6732
  989MOL0     H30505  -0.336   6.902   0.894  0.4533 -2.5988 -1.1814
  989MOL0     H30506  -0.279   7.000   0.614 -1.0521  2.7862  1.6190
  989MOL0     H30507  -0.310   6.833   0.658  0.3397  0.5047 -0.1977
  989MOL0     H30508  -0.506   6.964   0.580  0.7344 -3.2622 -0.3805
  989MOL0     H30509  -0.504   7.057   0.741  0.1866 -1.2162  2.1344
  989MOL0     H30510  -0.726   7.070   0.740  0.1039  0.0207  1.6507
  989MOL0     H30511  -0.953   7.054   0.763  0.2214  0.4474  0.6399
  989MOL0     H30512  -1.289   6.734   1.066  0.2823  0.4226 -0.0075
  989MOL0     H30513  -1.512   6.748   1.089  1.8753 -2.7173  1.2136
  989MOL0     H30514  -1.757   6.882   0.986  4.1749 -1.3936 -0.6985
  989MOL0     H30515  -1.732   6.716   1.056 -0.3032  0.5070  0.7891
  989MOL0     H30516  -1.926   6.636   0.943  0.6918 -0.4125  3.2245
  989MOL0     H30517  -1.927   6.780   0.832 -0.1180 -0.1727  0.1638
  989MOL0     H30518  -1.987   6.912   1.048  0.0395 -0.3455 -0.9101
  989MOL0     H30519  -2.000   6.755   1.132  2.1708 -1.0284 -0.8321
  989MOL0     H30520  -2.165   6.850   0.897  2.5580  0.7848  0.1251
  989MOL0     H30521  -2.190   6.697   0.982 -0.3478  0.2852  0.8033
  989MOL0     H30522  -2.213   6.986   1.094 -2.6011  0.9345 -1.7304
  989MOL0     H30523  -2.278   6.838   1.173  0.4518 -1.6950 -0.3219
  989MOL0     H30524  -2.442   6.803   0.976 -0.6565  0.9843 -1.1898
  989MOL0     H30525  -2.395   6.948   0.904 -0.4445  0.2400  0.4315
  989MOL0     H30526  -2.447   7.073   1.129 -1.4597 -1.1391  2.0330
  989MOL0     H30527  -2.561   7.043   0.993 -1.8194  0.6170  0.7953
  989MOL0     H30528  -2.629   6.981   1.249  3.7626  2.3132  0.9068
  989MOL0     H30529  -2.538   6.844   1.223  0.4789  2.8991  3.9292
  989MOL0     H30530  -1.552   6.713   0.659 -0.7444  0.9188  0.8900
  989MOL0     H30531  -1.292   6.679   0.644  1.1779  0.0216  0.6153
  989MOL0     H30532  -0.907   6.632   0.859  0.7383 -1.1982 -1.3822
  989MOL0     H30533  -0.672   6.652   0.821  0.3946  0.9614 -0.9947
  989MOL0     H30534   1.154   7.026   0.244 -0.3766  0.6029 -1.2201
  989MOL0     H30535   1.404   6.981   0.200  1.0116 -0.5930  0.2446
  989MOL0     H30536   1.830   7.206   0.287  1.4841  1.3828 -2.1174
  989MOL0     H30537   2.080   7.192   0.256 -0.3193  1.8533  0.3668
  989MOL0     H30538   2.236   6.888   0.093  1.4181 -1.3320 -0.8571
  989MOL0     H30539   2.261   6.797   0.239  2.6799 -0.6098 -1.5169
  989MOL0     H30540   2.472   6.841   0.112 -4.3440 -2.1292 -1.6338
  989MOL0     H30541   2.450   7.014   0.152  2.4873 -1.6521 -1.3231
  989MOL0     H30542   2.472   6.799   0.364  0.7155 -0.8054 -1.1400
  989MOL0     H30543   2.483   6.982   0.381 -0.5205  0.2802 -1.1727
  989MOL0     H30544   2.695   6.884   0.411 -0.0050 -0.4245  0.2426
  989MOL0     H30545   2.667   6.791   0.261 -2.2576  0.4968 -1.6677
  989MOL0     H30546   2.835   7.115   0.079  3.4202 -1.5067  1.5293
  989MOL0     H30547   2.058   6.772   0.274  2.0860  0.7891 -1.0323
  989MOL0     H30548   1.815   6.770   0.309 -0.7456  0.3071  0.0169
  990MOL0     O30549   1.201   8.982   2.328  0.2307  0.6280 -0.0433
  990MOL0     C30550   1.165   8.875   2.283  0.7695 -0.6339 -0.0645
  990MOL0     O30551   1.033   8.840   2.247 -0.8338  0.9464 -0.3520
  990MOL0     C30552   0.938   8.935   2.259  0.3434 -0.0148 -0.0050
  990MOL0     C30553   0.882   8.965   2.387 -0.6402 -0.2513  0.7023
  990MOL0     C30554   0.784   9.058   2.402 -0.5274  0.2184  0.0231
  990MOL0     C30555   0.742   9.131   2.288  0.7469 -0.1257  0.1214
  990MOL0     O30556   0.644   9.221   2.313 -0.1050  0.5061  0.3273
  990MOL0     C30557   0.614   9.322   2.215  0.2201 -0.6941  0.5841
  990MOL0     C30558   0.503   9.412   2.267 -0.4302 -0.0726 -0.9293
  990MOL0     C30559   0.459   9.510   2.170 -0.2522 -0.3805  0.5705
  990MOL0     C30560   0.355   9.610   2.218  0.4348 -0.0407 -1.0026
  990MOL0     C30561   0.346   9.739   2.135  0.5592  0.2479 -0.7679
  990MOL0     C30562   0.260   9.715   2.006 -0.1814 -0.7487 -0.5491
  990MOL0     C30563   0.220   9.845   1.923 -0.2174  0.7493 -1.1524
  990MOL0     C30564   0.124   9.820   1.813 -0.5819  0.3115  0.3224
  990MOL0     N30565  -0.017   9.794   1.858 -0.1502  0.1694 -0.4075
  990MOL0     C30566  -0.087   9.898   1.920  0.2469  0.0303  0.6189
  990MOL0     C30567  -0.213   9.843   1.925  0.2533  0.3033 -0.4710
  990MOL0     C30568  -0.344   9.908   1.935  0.9221 -0.6310  0.3161
  990MOL0     C30569  -0.385   9.953   2.078  0.6427 -0.4159 -0.1745
  990MOL0     C30570  -0.438   9.839   2.165 -0.0445 -0.2957 -0.4998
  990MOL0     C30571  -0.471   9.891   2.304  0.1424 -0.1739  0.0142
  990MOL0     O30572  -0.539  10.019   2.300 -0.1562 -0.1911 -0.0669
  990MOL0     C30573  -0.673  10.020   2.276 -0.1821  0.6656 -0.4226
  990MOL0     C30574  -0.740  10.145   2.266 -0.9522 -1.3215  0.6803
  990MOL0     C30575  -0.883  10.158   2.243 -0.7068 -0.4905 -0.2899
  990MOL0     C30576  -0.958  10.039   2.246  0.3137  0.7832  0.3078
  990MOL0     C30577  -1.107  10.042   2.230 -0.3646  0.1457  0.6521
  990MOL0     O30578  -1.157  10.152   2.173  0.2449 -0.6308  0.2623
  990MOL0     C30579  -1.292  10.160   2.177  0.9556 -0.6113 -0.2113
  990MOL0     C30580  -1.363  10.167   2.303  0.0931 -0.6080 -0.6903
  990MOL0     C30581  -1.507  10.188   2.310  0.4233 -0.0295  0.0859
  990MOL0     C30582  -1.584  10.170   2.193 -0.3172  1.4421 -0.2929
  990MOL0     O30583  -1.714  10.195   2.179 -0.2448  0.0135  0.2959
  990MOL0     C30584  -1.783  10.249   2.290  0.2227 -0.3647  0.5162
  990MOL0     C30585  -1.921  10.291   2.235  0.6367  0.5671  0.3294
  990MOL0     C30586  -2.012  10.167   2.192  0.8817 -1.2911 -0.5431
  990MOL0     C30587  -2.144  10.229   2.154  0.4956  0.1346 -0.4580
  990MOL0     C30588  -2.230  10.129   2.082  0.4635  0.4391  0.2921
  990MOL0     C30589  -2.365  10.177   2.034  0.3542 -0.3555  0.4273
  990MOL0     C30590  -2.455  10.077   1.958 -0.3778  0.4794 -0.1157
  990MOL0     C30591  -2.406  10.037   1.821 -0.9152  0.4436  0.0963
  990MOL0    Cl30592  -2.394  10.178   1.708 -0.1654  0.2008  0.0706
  990MOL0     C30593  -1.514  10.145   2.073 -0.0485  0.1850  0.0215
  990MOL0     C30594  -1.375  10.141   2.060 -0.7248  0.2291 -0.9357
  990MOL0     O30595  -1.164   9.946   2.272  0.6150  0.8717 -0.1233
  990MOL0     C30596  -0.892   9.915   2.250  0.2285  0.3433  0.3172
  990MOL0     C30597  -0.755   9.908   2.260 -0.7086  0.3723  0.8687
  990MOL0     N30598  -0.203   9.711   1.889  0.5047  0.3233 -0.1479
  990MOL0     N30599  -0.089   9.681   1.847 -0.7693  0.7001  0.5664
  990MOL0     C30600   0.805   9.107   2.163  0.3130  0.2727 -0.3165
  990MOL0     C30601   0.897   9.010   2.146  0.3787  1.4699 -0.1160
  990MOL0     C30602   1.269   8.785   2.251  0.4952  0.3800  1.2710
  990MOL0     C30603   1.239   8.662   2.182 -0.5069  0.4263 -0.1726
  990MOL0     C30604   1.335   8.563   2.166 -0.1005 -0.1499 -0.0679
  990MOL0     C30605   1.470   8.590   2.199 -0.4501  0.1369  0.3823
  990MOL0     O30606   1.574   8.509   2.173 -0.0980  0.3586 -0.8285
  990MOL0     C30607   1.559   8.375   2.114 -0.6816 -0.2107  0.1037
  990MOL0     C30608   1.685   8.292   2.130 -0.7832  0.3521  0.6577
  990MOL0     C30609   1.799   8.360   2.048 -0.8810 -0.2008 -0.5550
  990MOL0     C30610   1.902   8.264   1.990 -0.1832 -0.1315  0.0214
  990MOL0     C30611   2.001   8.226   2.092 -0.4333 -0.2708  0.2919
  990MOL0     C30612   2.064   8.200   2.193  0.2417  0.1097  0.2095
  990MOL0     C30613   1.500   8.718   2.256 -0.3022 -0.0485 -0.1621
  990MOL0     C30614   1.401   8.805   2.283  0.0546 -0.5688 -0.4563
  990MOL0     H30615   0.921   8.924   2.480  0.9825  0.6707  0.4459
  990MOL0     H30616   0.741   9.078   2.500  1.6911  4.1615  0.4449
  990MOL0     H30617   0.579   9.273   2.123  2.5531  3.1541 -2.6911
  990MOL0     H30618   0.699   9.387   2.193 -0.8873  1.2755  1.8343
  990MOL0     H30619   0.550   9.461   2.353  0.2047 -1.7661 -0.2747
  990MOL0     H30620   0.420   9.345   2.294 -0.7938  0.0094 -1.8119
  990MOL0     H30621   0.427   9.467   2.074 -1.6171 -0.8836  1.2193
  990MOL0     H30622   0.548   9.567   2.145 -1.8107  1.0958 -2.1720
  990MOL0     H30623   0.265   9.551   2.240  0.9977 -1.7279 -2.9199
  990MOL0     H30624   0.392   9.649   2.313 -1.0242 -3.6211  1.2255
  990MOL0     H30625   0.450   9.763   2.110  1.1814 -0.9657  0.5049
  990MOL0     H30626   0.298   9.813   2.199 -0.4116 -0.2463 -0.9017
  990MOL0     H30627   0.167   9.662   2.025  0.4936 -0.8703  3.1467
  990MOL0     H30628   0.327   9.662   1.937  3.2904  2.3516  0.0885
  990MOL0     H30629   0.180   9.915   1.997 -0.3489 -1.7325  1.2618
  990MOL0     H30630   0.306   9.896   1.879  2.9927 -1.9916  1.4577
  990MOL0     H30631   0.157   9.741   1.744 -2.0691 -1.9827  2.0862
  990MOL0     H30632   0.132   9.911   1.754 -1.4934 -0.3188 -0.8254
  990MOL0     H30633  -0.064  10.004   1.929  0.7164 -0.2364  3.8706
  990MOL0     H30634  -0.420   9.840   1.896 -0.3006  0.0123  1.5130
  990MOL0     H30635  -0.345   9.994   1.868  1.2897  0.7075  1.9569
  990MOL0     H30636  -0.468  10.021   2.057  0.4338 -0.8108 -0.6697
  990MOL0     H30637  -0.302  10.011   2.118 -0.6943  1.9886 -0.7383
  990MOL0     H30638  -0.521   9.784   2.119 -0.7807 -0.4973  1.0194
  990MOL0     H30639  -0.360   9.765   2.179  0.3243 -0.0527 -1.2029
  990MOL0     H30640  -0.376   9.909   2.355  0.3503  1.0463 -0.7632
  990MOL0     H30641  -0.512   9.809   2.364 -0.1943  0.9346  1.3496
  990MOL0     H30642  -0.682  10.236   2.251 -0.2395 -1.5181  2.0556
  990MOL0     H30643  -0.935  10.250   2.218  1.4470  1.4003  1.7185
  990MOL0     H30644  -1.314  10.165   2.400 -0.4925 -0.5267 -0.3843
  990MOL0     H30645  -1.557  10.208   2.404  1.2192 -1.3477  0.8154
  990MOL0     H30646  -1.731  10.332   2.338  0.9301 -0.8890  0.6765
  990MOL0     H30647  -1.782  10.182   2.377  2.6958 -2.1162 -0.7499
  990MOL0     H30648  -1.913  10.362   2.152 -0.7685 -1.9587 -2.1031
  990MOL0     H30649  -1.969  10.337   2.322 -0.2097  2.3538 -1.0064
  990MOL0     H30650  -2.026  10.093   2.272 -1.5781  0.5802  0.8951
  990MOL0     H30651  -1.968  10.113   2.107 -0.1647 -1.0444 -1.2588
  990MOL0     H30652  -2.197  10.255   2.246 -2.3380 -1.8430 -1.3674
  990MOL0     H30653  -2.133  10.321   2.096 -0.5677 -0.7738 -2.1841
  990MOL0     H30654  -2.243  10.046   2.152  0.6969  1.6596  1.8376
  990MOL0     H30655  -2.175  10.074   2.005  0.4511 -1.3233  1.4642
  990MOL0     H30656  -2.354  10.260   1.964  0.4488 -0.1834  0.6441
  990MOL0     H30657  -2.410  10.212   2.128 -1.7602 -2.7791  0.4194
  990MOL0     H30658  -2.461   9.980   2.008  0.2989 -0.4396 -1.7409
  990MOL0     H30659  -2.555  10.117   1.944 -0.9401  0.4391  3.0020
  990MOL0     H30660  -2.467   9.959   1.776  0.3995 -1.5500  1.5907
  990MOL0     H30661  -2.305   9.997   1.839 -1.3017 -1.9272 -2.3148
  990MOL0     H30662  -1.574  10.143   1.982 -0.1973  1.0007  0.0921
  990MOL0     H30663  -1.321  10.138   1.966  2.5723  1.7940  0.7461
  990MOL0     H30664  -0.944   9.820   2.255  1.5408 -0.5172 -1.2600
  990MOL0     H30665  -0.712   9.810   2.246  0.0239  0.7128  0.6525
  990MOL0     H30666   0.776   9.159   2.072 -0.5883  0.8912  0.3098
  990MOL0     H30667   0.928   8.967   2.051 -1.6700  1.7647 -0.9656
  990MOL0     H30668   1.141   8.626   2.151 -1.2555  2.2312 -0.0153
  990MOL0     H30669   1.310   8.464   2.131  1.9460 -1.5260  2.0340
  990MOL0     H30670   1.547   8.392   2.007 -1.2815  3.0469  0.5604
  990MOL0     H30671   1.474   8.325   2.162 -0.7166  1.3332  1.7850
  990MOL0     H30672   1.725   8.273   2.230  0.7914 -0.4215 -0.0784
  990MOL0     H30673   1.667   8.189   2.096 -0.2599  0.0175  1.3868
  990MOL0     H30674   1.855   8.426   2.116 -0.0214 -0.3470 -1.1046
  990MOL0     H30675   1.766   8.422   1.964  2.1463  0.8433 -1.1060
  990MOL0     H30676   1.862   8.172   1.949 -3.3048  0.8317  0.6755
  990MOL0     H30677   1.965   8.307   1.911  2.1549 -0.1842  1.7341
  990MOL0     H30678   2.112   8.177   2.286  1.6913 -0.4729 -0.6600
  990MOL0     H30679   1.606   8.739   2.270 -0.0443 -0.9777 -0.6326
  990MOL0     H30680   1.437   8.894   2.333 -0.4182  0.0163 -1.1367
  991MOL0     O30681   3.899   1.012   9.241 -1.0721 -0.1293 -0.2298
  991MOL0     C30682   3.980   0.920   9.216 -0.0999  0.5257  0.1209
  991MOL0     O30683   3.944   0.785   9.190 -1.3900  0.1497  0.0396
  991MOL0     C30684   3.810   0.758   9.185 -0.0669 -0.2105 -0.8452
  991MOL0     C30685   3.719   0.776   9.292  0.4671 -0.3711 -0.4066
  991MOL0     C30686   3.583   0.732   9.284 -0.4415  0.8004 -1.1790
  991MOL0     C30687   3.533   0.668   9.166  0.4880  0.1415 -0.4710
  991MOL0     O30688   3.413   0.599   9.156  0.1043 -0.3349 -0.8625
  991MOL0     C30689   3.318   0.627   9.260  0.2325  0.7996  0.4229
  991MOL0     C30690   3.180   0.579   9.208  0.3363 -0.0088  0.1967
  991MOL0     C30691   3.063   0.623   9.299 -0.1810 -0.2418 -0.3428
  991MOL0     C30692   2.929   0.591   9.236  0.5128 -0.5994  1.1109
  991MOL0     C30693   2.901   0.443   9.228  0.1829  0.6525 -0.3647
  991MOL0     C30694   2.795   0.407   9.122 -0.0395  0.7602 -0.6398
  991MOL0     C30695   2.650   0.419   9.175 -0.2840 -0.0818  0.8038
  991MOL0     C30696   2.553   0.325   9.113  0.0591  0.3092 -0.7527
  991MOL0     N30697   2.413   0.359   9.132 -0.6110 -0.4018 -0.9278
  991MOL0     C30698   2.342   0.471   9.086 -0.3807 -0.2793 -0.3077
  991MOL0     C30699   2.218   0.458   9.148  0.8813  0.0372 -0.0691
  991MOL0     C30700   2.101   0.550   9.133 -0.2137  0.0319  0.3936
  991MOL0     C30701   2.044   0.543   8.991  0.0758 -0.3989  0.6199
  991MOL0     C30702   1.943   0.654   8.962  0.5263 -0.1173 -0.2972
  991MOL0     C30703   1.816   0.633   9.046 -0.1188 -0.3519 -0.2762
  991MOL0     O30704   1.742   0.526   8.991 -0.1274  0.6858 -0.1331
  991MOL0     C30705   1.621   0.495   9.051  0.3413  0.5981 -0.2937
  991MOL0     C30706   1.563   0.369   9.030  0.1617 -0.0137  0.1873
  991MOL0     C30707   1.442   0.328   9.089 -0.2437 -0.0401 -0.7752
  991MOL0     C30708   1.375   0.421   9.170 -0.4000  0.4259 -0.5569
  991MOL0     C30709   1.246   0.382   9.234 -0.5196 -0.3176  0.0819
  991MOL0     O30710   1.179   0.492   9.287  1.0366  0.7220  0.9336
  991MOL0     C30711   1.060   0.472   9.345  0.3457 -0.5710  0.7093
  991MOL0     C30712   0.955   0.392   9.295 -0.8653  0.3420 -0.6578
  991MOL0     C30713   0.827   0.403   9.346  0.4963  0.9396  0.1950
  991MOL0     C30714   0.794   0.477   9.470 -0.3741  0.1922  0.1437
  991MOL0     O30715   0.673   0.487   9.536  0.5428 -0.5074  0.6097
  991MOL0     C30716   0.581   0.386   9.507  0.1908  0.6712 -0.1475
  991MOL0     C30717   0.468   0.381   9.603 -0.0649 -0.3489  0.3884
  991MOL0     C30718   0.396   0.517   9.604  0.2680  0.2469  0.4678
  991MOL0     C30719   0.270   0.507   9.698 -0.5475  0.5489  0.1696
  991MOL0     C30720   0.185   0.630   9.693  0.9663  0.1590 -0.5358
  991MOL0     C30721   0.114   0.640   9.557  0.9152  0.2871  0.2680
  991MOL0     C30722   0.013   0.750   9.557  0.8367 -0.4674 -0.5452
  991MOL0     C30723  -0.063   0.765   9.426  0.5300 -0.8781 -0.2836
  991MOL0    Cl30724  -0.194   0.645   9.444  0.0005  0.0812  0.1102
  991MOL0     C30725   0.901   0.558   9.516 -0.8838  0.6496  0.3096
  991MOL0     C30726   1.027   0.549   9.458 -0.0988 -0.7170 -0.6355
  991MOL0     O30727   1.217   0.264   9.248 -0.1819 -0.5720  0.1760
  991MOL0     C30728   1.438   0.544   9.201 -0.2642  0.4346  0.2552
  991MOL0     C30729   1.555   0.576   9.142  0.2989  0.6183 -0.3100
  991MOL0     N30730   2.212   0.338   9.214 -0.0845  0.6511 -0.3165
  991MOL0     N30731   2.329   0.285   9.214  0.3988  0.2179  0.5610
  991MOL0     C30732   3.630   0.636   9.067  0.4461 -0.0155 -0.0810
  991MOL0     C30733   3.763   0.683   9.080  0.0346  0.9801  0.0919
  991MOL0     C30734   4.124   0.954   9.200  1.0936 -0.3815  0.6820
  991MOL0     C30735   4.178   1.082   9.221 -0.3339  0.5041  0.0086
  991MOL0     C30736   4.309   1.103   9.193 -0.0334 -0.7705  0.2739
  991MOL0     C30737   4.387   1.017   9.130 -0.3679  0.0351 -0.4044
  991MOL0     O30738   4.522   1.064   9.105  0.0215  0.4083  0.0392
  991MOL0     C30739   4.617   0.974   9.045 -0.2405 -0.0299 -0.3054
  991MOL0     C30740   4.732   1.045   8.980  0.0499  0.3591 -0.2362
  991MOL0     C30741   4.832   0.962   8.900  0.4212 -0.9392 -0.6619
  991MOL0     C30742   4.776   0.882   8.781  0.1217  0.6963 -0.5495
  991MOL0     C30743   4.695   0.762   8.811  0.6689 -0.3971 -0.9039
  991MOL0     C30744   4.621   0.666   8.839 -0.9316  0.5126  0.5761
  991MOL0     C30745   4.343   0.890   9.105  0.4137  0.9420  0.0055
  991MOL0     C30746   4.211   0.865   9.141  0.4964  0.3445 -1.0803
  991MOL0     H30747   3.746   0.843   9.373  1.5246 -1.3051  0.0247
  991MOL0     H30748   3.519   0.761   9.367 -0.8482  1.2660 -1.6432
  991MOL0     H30749   3.315   0.736   9.268 -0.4332  1.1270 -2.8089
  991MOL0     H30750   3.344   0.580   9.355  1.4002  0.6402  0.0514
  991MOL0     H30751   3.186   0.470   9.204  1.0573  0.0588 -2.3916
  991MOL0     H30752   3.168   0.625   9.110  3.1076  3.0494  1.1028
  991MOL0     H30753   3.059   0.731   9.317  0.6147 -0.4877  1.5379
  991MOL0     H30754   3.070   0.578   9.398  0.8014  2.5761  0.9741
  991MOL0     H30755   2.855   0.645   9.296  1.9865  2.8517  0.0346
  991MOL0     H30756   2.921   0.642   9.140 -0.2956  1.4880  2.2144
  991MOL0     H30757   2.870   0.417   9.329 -5.2028  1.9500 -1.3971
  991MOL0     H30758   2.989   0.385   9.197  0.6756 -0.2471  2.4241
  991MOL0     H30759   2.819   0.307   9.084 -0.7108 -0.3377  1.6431
  991MOL0     H30760   2.821   0.469   9.035  1.0966 -3.2438 -3.4617
  991MOL0     H30761   2.647   0.397   9.282 -0.9738 -1.3105  0.5480
  991MOL0     H30762   2.623   0.523   9.157 -3.2770 -0.9869 -0.6334
  991MOL0     H30763   2.580   0.224   9.147 -0.6314 -0.0944 -1.3796
  991MOL0     H30764   2.566   0.323   9.005  3.1753  3.4787 -0.5953
  991MOL0     H30765   2.379   0.552   9.024 -0.0209  0.1402  0.4378
  991MOL0     H30766   2.125   0.653   9.161  0.4237 -0.7683  3.0977
  991MOL0     H30767   2.037   0.515   9.214  1.0848  0.9045  1.8408
  991MOL0     H30768   2.010   0.442   8.967 -1.0405 -0.0293  0.5859
  991MOL0     H30769   2.131   0.568   8.929 -0.4144 -3.3049 -1.4263
  991MOL0     H30770   1.983   0.755   8.972  0.2199 -0.0919  0.7985
  991MOL0     H30771   1.908   0.638   8.860  0.8818  0.5657 -0.5301
  991MOL0     H30772   1.763   0.729   9.047  1.5123  0.5867 -0.7248
  991MOL0     H30773   1.843   0.620   9.151 -0.3302 -0.8148 -0.2744
  991MOL0     H30774   1.612   0.306   8.956  1.0999 -0.9265  1.5317
  991MOL0     H30775   1.411   0.226   9.071  2.5147 -1.9170  3.5448
  991MOL0     H30776   0.974   0.350   9.197 -0.4242  1.8785 -1.2726
  991MOL0     H30777   0.750   0.345   9.295 -0.9055  1.2444  1.8556
  991MOL0     H30778   0.638   0.293   9.519 -0.4581  0.0277 -1.8821
  991MOL0     H30779   0.538   0.405   9.409 -2.4951 -1.6721  0.4366
  991MOL0     H30780   0.502   0.352   9.703 -1.0594  0.7557  1.0700
  991MOL0     H30781   0.390   0.309   9.576 -0.1321 -0.5829  1.1730
  991MOL0     H30782   0.349   0.538   9.507  2.1327  1.1772 -0.2898
  991MOL0     H30783   0.463   0.602   9.625  0.8878 -0.1671  0.1852
  991MOL0     H30784   0.212   0.418   9.672 -0.6813  0.6050  0.2705
  991MOL0     H30785   0.307   0.503   9.801 -0.5862 -0.7979  0.1508
  991MOL0     H30786   0.248   0.715   9.720  0.3482  1.2944 -2.4889
  991MOL0     H30787   0.102   0.622   9.763  2.6525 -0.8241  1.4453
  991MOL0     H30788   0.058   0.546   9.542 -0.9202  1.5409 -1.2861
  991MOL0     H30789   0.183   0.664   9.475  2.7487  0.5198  1.8155
  991MOL0     H30790  -0.055   0.741   9.642  2.8043  1.1815  1.3184
  991MOL0     H30791   0.063   0.845   9.579  0.3762 -0.4074  0.2760
  991MOL0     H30792  -0.007   0.746   9.334  0.6027  0.5896 -0.5768
  991MOL0     H30793  -0.104   0.867   9.423  1.7080 -0.3499  0.7765
  991MOL0     H30794   0.873   0.617   9.603 -3.1841 -1.6773  1.2899
  991MOL0     H30795   1.110   0.600   9.505  1.0092 -2.5841 -0.4522
  991MOL0     H30796   1.393   0.612   9.273 -0.2999  0.9269 -0.2234
  991MOL0     H30797   1.602   0.661   9.190 -0.0784  0.7959 -0.2478
  991MOL0     H30798   3.603   0.572   8.984 -1.4413 -1.1547  1.3294
  991MOL0     H30799   3.828   0.654   8.999 -1.0010  0.0282 -0.4293
  991MOL0     H30800   4.127   1.163   9.272 -1.0112  1.1473 -1.6173
  991MOL0     H30801   4.346   1.202   9.217  1.7111 -1.1509 -0.6946
  991MOL0     H30802   4.566   0.925   8.961 -2.8359  3.5837 -1.0785
  991MOL0     H30803   4.650   0.894   9.112 -0.7772  0.4765  0.5760
  991MOL0     H30804   4.689   1.116   8.909  1.4674 -2.6114 -4.4594
  991MOL0     H30805   4.793   1.102   9.050  0.0839 -0.8522  0.7658
  991MOL0     H30806   4.889   0.899   8.968  1.7667  0.3372 -0.5459
  991MOL0     H30807   4.906   1.036   8.867 -1.2115  0.6883 -0.8838
  991MOL0     H30808   4.713   0.944   8.717  1.3611  2.8991  0.2443
  991MOL0     H30809   4.860   0.854   8.716 -0.2538  0.5635 -0.9856
  991MOL0     H30810   4.559   0.586   8.875  0.7882 -0.0737  2.4170
  991MOL0     H30811   4.393   0.812   9.049 -0.3808  0.6089 -0.2590
  991MOL0     H30812   4.191   0.760   9.122  0.0329  0.7460 -3.0375
  992MOL0     O30813   7.326  10.337   4.360  1.0190 -0.0384 -0.3216
  992MOL0     C30814   7.351  10.434   4.430 -0.4700  0.6241  0.2160
  992MOL0     O30815   7.265  10.484   4.526  0.8005 -0.6159  0.8374
  992MOL0     C30816   7.140  10.419   4.535 -0.9515 -0.5123  0.7060
  992MOL0     C30817   7.101  10.369   4.655  0.1738  0.2528 -1.1813
  992MOL0     C30818   6.973  10.300   4.660  0.1679  0.2173  0.2015
  992MOL0     C30819   6.895  10.282   4.544  0.3202  0.0200  0.5183
  992MOL0     O30820   6.783  10.204   4.557  0.7684  0.0848  0.3150
  992MOL0     C30821   6.661  10.276   4.576  0.4288 -0.0598  0.4880
  992MOL0     C30822   6.564  10.205   4.474  0.1359 -1.1746 -0.1912
  992MOL0     C30823   6.574  10.235   4.319 -0.1074 -0.2001  0.6141
  992MOL0     C30824   6.491  10.362   4.290  0.1539 -0.9056  0.4953
  992MOL0     C30825   6.515  10.417   4.151 -0.0020  0.4111 -0.0806
  992MOL0     C30826   6.493  10.308   4.039 -0.1998  0.4518 -1.2830
  992MOL0     C30827   6.500  10.359   3.896  0.9784  0.8980 -0.1185
  992MOL0     C30828   6.644  10.414   3.864  0.4369 -0.0568  0.2087
  992MOL0     N30829   6.661  10.445   3.717  0.2697  0.0203  0.1586
  992MOL0     C30830   6.739  10.377   3.636 -0.4735 -0.4367 -0.7365
  992MOL0     C30831   6.719  10.426   3.513  0.2846  1.1063  0.3655
  992MOL0     C30832   6.786  10.353   3.393 -0.4357  0.9661  0.5802
  992MOL0     C30833   6.919  10.416   3.353 -0.3610  0.6874  0.2389
  992MOL0     C30834   7.030  10.380   3.463 -0.9671  0.7390  0.3589
  992MOL0     C30835   7.174  10.423   3.423  0.8024 -0.6700 -0.2837
  992MOL0     O30836   7.238  10.452   3.547 -0.4911 -0.5247  0.4814
  992MOL0     C30837   7.373  10.439   3.544  0.8795 -1.4764 -0.6297
  992MOL0     C30838   7.453  10.431   3.428  0.2446  0.3689 -0.9838
  992MOL0     C30839   7.590  10.418   3.441  0.8187 -0.1970 -0.0104
  992MOL0     C30840   7.653  10.419   3.565  0.0414  0.6525  0.3930
  992MOL0     C30841   7.798  10.396   3.564  0.9799  0.1500 -0.2599
  992MOL0     O30842   7.851  10.350   3.445  0.0228 -0.3240 -0.1554
  992MOL0     C30843   7.991  10.350   3.435  0.4627 -0.2121  0.3396
  992MOL0     C30844   8.044  10.418   3.325  0.5253 -0.4414 -0.1570
  992MOL0     C30845   8.185  10.418   3.306 -0.6185 -1.0908 -0.0434
  992MOL0     C30846   8.281  10.370   3.394  0.1113 -0.4190  0.0252
  992MOL0     O30847   8.415  10.395   3.390 -0.5814 -0.6720 -0.1198
  992MOL0     C30848   8.444  10.540   3.349 -0.4714  0.6019 -0.6334
  992MOL0     C30849   8.559  10.587   3.433  0.0520 -0.0798  0.1623
  992MOL0     C30850   8.682  10.506   3.434  0.2490  0.6138  0.2897
  992MOL0     C30851   8.742  10.505   3.289 -0.3487 -0.3804 -0.6840
  992MOL0     C30852   8.891  10.476   3.302  0.7378 -0.0002 -0.3093
  992MOL0     C30853   8.963  10.510   3.168 -0.8443 -0.5662 -0.2865
  992MOL0     C30854   9.121  10.514   3.184  0.3743 -0.2190 -0.5557
  992MOL0     C30855   9.189  10.604   3.082  0.5512 -0.8650 -0.0424
  992MOL0    Cl30856   9.369  10.600   3.094 -0.5063  0.2577 -0.0720
  992MOL0     C30857   8.226  10.298   3.502  0.4031 -0.3932 -0.3259
  992MOL0     C30858   8.084  10.301   3.523 -0.6300  0.5547  0.7501
  992MOL0     O30859   7.857  10.415   3.673  0.0446  0.0767  0.1950
  992MOL0     C30860   7.575  10.451   3.674 -0.1887  0.6973 -0.0410
  992MOL0     C30861   7.436  10.453   3.671  0.1614  0.7531  0.1769
  992MOL0     N30862   6.629  10.526   3.524 -0.1410 -0.1764  0.5140
  992MOL0     N30863   6.584  10.526   3.645 -0.2443  0.1125 -0.4391
  992MOL0     C30864   6.932  10.344   4.429 -0.2055 -0.3991  0.4590
  992MOL0     C30865   7.053  10.416   4.424 -0.0580  0.2099 -0.6802
  992MOL0     C30866   7.488  10.495   4.416 -0.0810  0.0951  1.3114
  992MOL0     C30867   7.569  10.451   4.306 -0.1683 -0.3175  0.0894
  992MOL0     C30868   7.690  10.518   4.281 -0.1915  0.2688  0.2095
  992MOL0     C30869   7.731  10.623   4.367 -0.5845 -0.0479  0.2857
  992MOL0     O30870   7.849  10.680   4.328  0.4740  0.3048  0.6403
  992MOL0     C30871   7.906  10.783   4.418  0.4667 -0.0729  0.1633
  992MOL0     C30872   7.953  10.730   4.554 -0.4682 -0.4771 -0.1283
  992MOL0     C30873   8.073  10.625   4.529  0.4314 -0.2134  1.1059
  992MOL0     C30874   8.119  10.556   4.656 -0.5370 -0.5131  0.2199
  992MOL0     C30875   8.003  10.489   4.711 -0.7265  0.8229 -0.0401
  992MOL0     C30876   7.902  10.443   4.747  0.4846 -0.1341 -0.4511
  992MOL0     C30877   7.647  10.670   4.461  0.1683  0.1639  0.0808
  992MOL0     C30878   7.535  10.593   4.500  0.1499 -0.0620 -0.9507
  992MOL0     H30879   7.151  10.387   4.749 -2.7564  0.3721  0.4880
  992MOL0     H30880   6.933  10.244   4.744  0.1496 -0.2599 -0.1169
  992MOL0     H30881   6.663  10.383   4.552  0.6693 -0.0021  0.7610
  992MOL0     H30882   6.625  10.268   4.679  0.0935  0.8753  0.4553
  992MOL0     H30883   6.462  10.217   4.512  0.6127 -1.1793  1.1670
  992MOL0     H30884   6.587  10.099   4.491 -1.7476 -1.5423  0.3658
  992MOL0     H30885   6.533  10.151   4.262  0.2122 -0.6892  1.0939
  992MOL0     H30886   6.677  10.256   4.288  0.3081 -2.2884  0.4151
  992MOL0     H30887   6.391  10.323   4.307 -0.2062  0.3868  1.5203
  992MOL0     H30888   6.514  10.440   4.363  1.1483 -1.2330  0.5404
  992MOL0     H30889   6.621  10.443   4.145  0.2138  0.6927  3.3246
  992MOL0     H30890   6.445  10.501   4.149 -2.1516 -1.1262  2.9944
  992MOL0     H30891   6.397  10.263   4.064  0.7106 -0.8555 -0.0313
  992MOL0     H30892   6.562  10.223   4.049 -2.4156 -1.2485  0.6908
  992MOL0     H30893   6.480  10.270   3.836  0.9120  1.2761 -0.6624
  992MOL0     H30894   6.420  10.430   3.874  0.4269  0.5610  0.7520
  992MOL0     H30895   6.719  10.339   3.893  0.5884  0.0991  0.2251
  992MOL0     H30896   6.659  10.500   3.929 -1.4970 -0.2597  0.9709
  992MOL0     H30897   6.807  10.301   3.675  0.7085  0.7091 -0.4914
  992MOL0     H30898   6.721  10.361   3.305 -0.9830 -2.2869  0.5872
  992MOL0     H30899   6.795  10.246   3.409  0.5870  0.3232 -3.3556
  992MOL0     H30900   6.902  10.524   3.349  1.4360  0.9667 -1.8537
  992MOL0     H30901   6.950  10.384   3.254 -0.9434  1.6729 -0.2798
  992MOL0     H30902   7.010  10.450   3.545  2.2885  4.2744 -1.5061
  992MOL0     H30903   7.022  10.275   3.493 -1.3747  1.2020  1.9595
  992MOL0     H30904   7.181  10.501   3.346 -2.0576 -1.3449 -1.3423
  992MOL0     H30905   7.215  10.335   3.374  1.1665 -0.8432  0.3217
  992MOL0     H30906   7.413  10.417   3.328 -1.8762  0.9077 -0.2664
  992MOL0     H30907   7.646  10.416   3.348 -0.2055  0.3308 -0.6532
  992MOL0     H30908   7.992  10.476   3.249 -1.3792  0.7089  1.9156
  992MOL0     H30909   8.219  10.458   3.210  0.3304 -0.4935  0.5287
  992MOL0     H30910   8.356  10.605   3.359 -0.6604  1.1761 -4.6397
  992MOL0     H30911   8.476  10.536   3.245 -0.3916  1.9882 -0.6800
  992MOL0     H30912   8.533  10.604   3.537 -1.4649  1.2390 -0.4035
  992MOL0     H30913   8.586  10.690   3.408  2.3044  0.0667  2.7693
  992MOL0     H30914   8.673  10.401   3.465 -0.1353  1.0407  1.6668
  992MOL0     H30915   8.752  10.546   3.508  1.6423  0.1250 -0.6938
  992MOL0     H30916   8.704  10.421   3.230  0.9157 -2.6096  1.4602
  992MOL0     H30917   8.731  10.599   3.235  1.2650  1.4938  1.9937
  992MOL0     H30918   8.910  10.373   3.334 -0.5219 -0.5551 -1.2391
  992MOL0     H30919   8.936  10.536   3.381 -2.4634 -0.5497  2.1448
  992MOL0     H30920   8.929  10.610   3.140 -2.8340 -1.0177  0.3368
  992MOL0     H30921   8.945  10.443   3.084 -2.5385  0.0395 -0.4483
  992MOL0     H30922   9.147  10.542   3.286 -1.6389  2.2237 -0.6248
  992MOL0     H30923   9.154  10.411   3.164  1.2163 -1.2316  4.6445
  992MOL0     H30924   9.151  10.705   3.099  2.4748  0.1865 -1.6576
  992MOL0     H30925   9.159  10.580   2.979  1.3538  1.1196 -0.7750
  992MOL0     H30926   8.299  10.260   3.572  1.8506  1.7583 -0.5735
  992MOL0     H30927   8.053  10.252   3.615  2.4116 -1.0103  1.0555
  992MOL0     H30928   7.620  10.466   3.771  3.3111  0.0384 -1.4068
  992MOL0     H30929   7.384  10.469   3.765 -0.2198  2.5339 -0.3110
  992MOL0     H30930   6.869  10.343   4.340 -0.8355 -0.1118  0.8880
  992MOL0     H30931   7.081  10.472   4.335  1.8726  1.0867  0.4256
  992MOL0     H30932   7.524  10.378   4.240 -2.3634  1.4390 -0.4920
  992MOL0     H30933   7.747  10.470   4.202 -1.7653  0.9609 -1.4193
  992MOL0     H30934   7.836  10.865   4.437 -1.0617 -1.0117 -1.2168
  992MOL0     H30935   7.994  10.829   4.371  0.5749  0.0732  0.5091
  992MOL0     H30936   7.984  10.812   4.620  1.5743 -0.5091 -0.9505
  992MOL0     H30937   7.873  10.682   4.610  0.2401 -0.8745  0.5635
  992MOL0     H30938   8.163  10.667   4.483 -0.0826 -1.2327 -0.9788
  992MOL0     H30939   8.043  10.546   4.459  0.4999 -0.0685  0.9111
  992MOL0     H30940   8.199  10.483   4.641 -2.7438 -2.9739 -0.5062
  992MOL0     H30941   8.154  10.623   4.734  0.2968 -1.7329  0.9223
  992MOL0     H30942   7.812  10.400   4.787  0.4414 -0.0985 -0.5096
  992MOL0     H30943   7.678  10.757   4.518  0.5240 -0.0792  0.2605
  992MOL0     H30944   7.488  10.624   4.593  1.8209 -1.1682  0.3344
  993MOL0     O30945   3.260   9.737   6.410  0.2105  0.7301 -0.4396
  993MOL0     C30946   3.327   9.841   6.423 -0.7053  0.3429 -0.4116
  993MOL0     O30947   3.269   9.961   6.462 -1.0165 -0.0446 -0.2946
  993MOL0     C30948   3.139   9.995   6.483  0.2194 -0.3542  0.3455
  993MOL0     C30949   3.115  10.134   6.489  0.7290  0.1023 -0.3102
  993MOL0     C30950   2.987  10.189   6.527  0.0257  0.5157 -0.4652
  993MOL0     C30951   2.882  10.099   6.547  0.6720 -0.2798 -0.9768
  993MOL0     O30952   2.758  10.138   6.588 -0.3375 -0.2697  0.2989
  993MOL0     C30953   2.681  10.051   6.676 -0.2625  0.0950 -0.8592
  993MOL0     C30954   2.585  10.127   6.763  0.2481  0.5084  0.0955
  993MOL0     C30955   2.460  10.192   6.693  0.2384 -0.4256 -0.5482
  993MOL0     C30956   2.342  10.233   6.782  0.0385 -0.8850 -0.5345
  993MOL0     C30957   2.228  10.290   6.691 -0.1291 -0.8299 -0.2737
  993MOL0     C30958   2.102  10.310   6.767  0.4235  0.3134  1.1248
  993MOL0     C30959   1.993  10.374   6.689 -0.5319 -0.4233 -0.3887
  993MOL0     C30960   1.872  10.388   6.786  0.3953  0.0014  0.1643
  993MOL0     N30961   1.774  10.490   6.749  0.6339  0.1960 -0.5512
  993MOL0     C30962   1.679  10.542   6.830  0.3598 -0.0576 -0.1497
  993MOL0     C30963   1.598  10.614   6.750 -0.4483  0.5805 -0.0857
  993MOL0     C30964   1.482  10.688   6.796  0.3061 -0.1339 -0.4031
  993MOL0     C30965   1.360  10.610   6.743  0.1119 -0.9436  0.2787
  993MOL0     C30966   1.235  10.678   6.796 -0.1459 -0.1125 -0.0024
  993MOL0     C30967   1.113  10.638   6.720  0.5962  0.0847 -0.5553
  993MOL0     O30968   1.007  10.611   6.811  0.0368 -0.5449 -0.0560
  993MOL0     C30969   0.873  10.580   6.773 -0.5153 -0.2990 -0.3394
  993MOL0     C30970   0.818  10.590   6.646  0.5916  0.9599  0.5013
  993MOL0     C30971   0.686  10.577   6.622  0.5400  0.2109 -0.5085
  993MOL0     C30972   0.596  10.557   6.728  0.2358  0.3734  0.2993
  993MOL0     C30973   0.448  10.545   6.699  0.2598 -0.5049  0.2542
  993MOL0     O30974   0.363  10.533   6.813 -0.2001  0.4529 -0.3530
  993MOL0     C30975   0.228  10.495   6.784 -0.8320 -0.6622 -0.6646
  993MOL0     C30976   0.176  10.399   6.864  1.6943  0.9160  0.0131
  993MOL0     C30977   0.048  10.354   6.856  0.1430  0.1926  0.0645
  993MOL0     C30978  -0.045  10.406   6.777 -0.6669  0.3383 -0.0039
  993MOL0     O30979  -0.175  10.356   6.770 -0.3586  0.7904 -0.3248
  993MOL0     C30980  -0.253  10.437   6.698  0.1411 -0.6030 -0.5159
  993MOL0     C30981  -0.401  10.403   6.718  0.6766 -0.0780  0.6492
  993MOL0     C30982  -0.486  10.507   6.652 -0.1748 -0.0585 -0.0143
  993MOL0     C30983  -0.626  10.458   6.637  0.2345  0.0149 -0.6950
  993MOL0     C30984  -0.658  10.398   6.504  0.7248 -0.0942 -0.3106
  993MOL0     C30985  -0.785  10.314   6.499 -0.1299 -0.9430 -0.1368
  993MOL0     C30986  -0.812  10.281   6.352  0.3150  0.6915 -0.1280
  993MOL0     C30987  -0.885  10.392   6.268 -0.2490  0.5025 -0.5097
  993MOL0    Cl30988  -0.963  10.344   6.124  0.0577  0.2695  0.1831
  993MOL0     C30989   0.009  10.503   6.684  0.1296  0.2621  0.2080
  993MOL0     C30990   0.145  10.545   6.685  1.3135 -0.7428  0.1473
  993MOL0     O30991   0.415  10.534   6.580 -0.2193 -0.5504 -0.0227
  993MOL0     C30992   0.646  10.562   6.858 -0.6710  0.2098  0.3054
  993MOL0     C30993   0.784  10.567   6.872  0.0973  0.4642 -0.5161
  993MOL0     N30994   1.651  10.600   6.621  0.0254 -0.4689 -0.7119
  993MOL0     N30995   1.751  10.521   6.620  0.2129  0.1698  0.5330
  993MOL0     C30996   2.907   9.966   6.530  0.2068  0.5490 -0.2410
  993MOL0     C30997   3.025   9.918   6.493 -0.2751  0.0049 -0.8428
  993MOL0     C30998   3.466   9.832   6.376 -0.9705  0.4385 -0.2925
  993MOL0     C30999   3.557   9.930   6.413 -0.2841  0.5610  0.2111
  993MOL0     C31000   3.686   9.924   6.363 -0.2654 -0.5940 -0.5475
  993MOL0     C31001   3.730   9.821   6.280  0.0097 -0.1893 -0.3017
  993MOL0     O31002   3.862   9.807   6.244  0.7657  0.7285 -0.1394
  993MOL0     C31003   3.949   9.917   6.268  0.3122  0.7304 -0.6949
  993MOL0     C31004   4.088   9.886   6.230 -0.3518 -0.0653 -0.4618
  993MOL0     C31005   4.190   9.993   6.269  0.4985 -0.4192 -0.2357
  993MOL0     C31006   4.335   9.947   6.256  0.1686 -0.3017  0.5458
  993MOL0     C31007   4.426  10.030   6.333 -0.3192  0.1309 -0.0774
  993MOL0     C31008   4.495  10.096   6.404 -0.7214 -0.6885  0.9410
  993MOL0     C31009   3.637   9.720   6.243 -0.0805  0.7033 -0.6228
  993MOL0     C31010   3.508   9.724   6.299 -0.0506 -0.8283  0.2147
  993MOL0     H31011   3.203  10.196   6.471  2.0923 -1.1242  1.7789
  993MOL0     H31012   2.968  10.293   6.555 -2.2526  0.2554 -0.8281
  993MOL0     H31013   2.743   9.990   6.742 -2.1323 -1.8779 -0.7963
  993MOL0     H31014   2.616   9.986   6.616 -0.3655  0.8019 -1.5264
  993MOL0     H31015   2.638  10.201   6.823 -0.6327  0.5018  0.8945
  993MOL0     H31016   2.539  10.048   6.824  1.6521  1.6073  2.7212
  993MOL0     H31017   2.415  10.118   6.626  0.2975 -0.3874 -0.6299
  993MOL0     H31018   2.491  10.273   6.627  0.9408 -1.3533 -1.4033
  993MOL0     H31019   2.291  10.158   6.842  1.3609 -0.3836  1.3433
  993MOL0     H31020   2.382  10.316   6.842 -3.9861  0.4823  0.6003
  993MOL0     H31021   2.196  10.225   6.609 -2.5869 -1.0350  0.7331
  993MOL0     H31022   2.262  10.386   6.652  0.1933 -1.5374 -1.7886
  993MOL0     H31023   2.129  10.376   6.850  0.2892 -1.2229  2.4631
  993MOL0     H31024   2.056  10.217   6.803  2.1135 -1.0367 -0.0343
  993MOL0     H31025   2.017  10.470   6.643  0.3099 -0.1774  0.5260
  993MOL0     H31026   1.971  10.312   6.602 -1.0438 -0.5807 -0.1522
  993MOL0     H31027   1.907  10.410   6.887 -2.9983  2.3413  1.0483
  993MOL0     H31028   1.815  10.295   6.795  0.2366  0.0938  0.1345
  993MOL0     H31029   1.668  10.522   6.936  1.5567  2.5523  0.5442
  993MOL0     H31030   1.483  10.789   6.753  0.2858  0.4101  0.8244
  993MOL0     H31031   1.480  10.692   6.905 -0.5179 -1.6605 -0.3400
  993MOL0     H31032   1.376  10.511   6.788  0.2456 -0.8168  0.5129
  993MOL0     H31033   1.368  10.615   6.634  0.5877 -3.9579  0.1001
  993MOL0     H31034   1.225  10.655   6.902  2.6014 -4.1535 -0.3780
  993MOL0     H31035   1.246  10.786   6.789 -3.3334  0.2835 -0.4655
  993MOL0     H31036   1.130  10.552   6.655  1.2667 -0.1962 -0.0205
  993MOL0     H31037   1.085  10.729   6.666  1.4086  1.1107  0.6779
  993MOL0     H31038   0.875  10.619   6.558 -2.4998 -0.7342 -2.2254
  993MOL0     H31039   0.656  10.582   6.518  0.4119 -1.5010 -0.5794
  993MOL0     H31040   0.250  10.372   6.938  2.8752 -2.7275 -2.1925
  993MOL0     H31041   0.015  10.281   6.930 -0.4720  0.9506  0.5539
  993MOL0     H31042  -0.223  10.447   6.593  0.7474  1.8992 -0.1835
  993MOL0     H31043  -0.244  10.535   6.746 -1.0085  0.2829 -2.0082
  993MOL0     H31044  -0.420  10.386   6.824 -4.3296 -2.1864 -0.3171
  993MOL0     H31045  -0.421  10.303   6.677 -0.2538 -0.0259  0.9716
  993MOL0     H31046  -0.450  10.528   6.550  2.5875 -2.1474  0.4246
  993MOL0     H31047  -0.472  10.599   6.709 -0.1479  2.0370 -3.1349
  993MOL0     H31048  -0.648  10.389   6.720  0.2896  3.4343  2.4286
  993MOL0     H31049  -0.688  10.547   6.649  0.4227 -0.0719  1.3832
  993MOL0     H31050  -0.582  10.329   6.468  0.2657 -0.6401 -0.2586
  993MOL0     H31051  -0.670  10.478   6.431 -1.5160  0.9991  1.1257
  993MOL0     H31052  -0.869  10.368   6.543 -1.3267 -3.0478  0.2857
  993MOL0     H31053  -0.777  10.224   6.560  1.9270 -0.8429 -0.1710
  993MOL0     H31054  -0.719  10.255   6.300  0.6342  1.7018 -0.0952
  993MOL0     H31055  -0.876  10.193   6.360  0.1315  0.8005 -0.3868
  993MOL0     H31056  -0.811  10.472   6.252  0.9182 -0.1824  1.1127
  993MOL0     H31057  -0.954  10.439   6.338 -0.6986 -0.5398 -0.2436
  993MOL0     H31058  -0.045  10.554   6.605  0.3263  2.8586  1.6208
  993MOL0     H31059   0.167  10.625   6.615 -0.8794  0.6797  0.9858
  993MOL0     H31060   0.582  10.547   6.944 -1.7508  0.4237 -0.4297
  993MOL0     H31061   0.819  10.559   6.975 -0.7938 -0.0487 -0.2397
  993MOL0     H31062   2.825   9.897   6.548  0.1557 -0.6114 -4.1409
  993MOL0     H31063   3.042   9.811   6.485  2.9184  0.4679 -1.6041
  993MOL0     H31064   3.532  10.015   6.475  0.0958  0.2075  0.8582
  993MOL0     H31065   3.751  10.005   6.395 -2.6784  2.5681 -2.8884
  993MOL0     H31066   3.948   9.936   6.376 -3.9692  0.5861 -0.5210
  993MOL0     H31067   3.917  10.006   6.213 -1.4016 -0.5730 -1.8990
  993MOL0     H31068   4.113   9.794   6.282 -0.4071 -1.7004 -3.1230
  993MOL0     H31069   4.104   9.872   6.123  2.3559  1.7090 -0.3988
  993MOL0     H31070   4.173  10.017   6.375 -0.7171  2.2650 -0.9799
  993MOL0     H31071   4.180  10.085   6.212  0.3373 -0.8592 -0.9293
  993MOL0     H31072   4.356   9.844   6.289 -0.2769 -0.9493 -1.1010
  993MOL0     H31073   4.365   9.941   6.151  1.5217  0.8017  0.8386
  993MOL0     H31074   4.564  10.157   6.458 -0.0612 -0.6087  0.0329
  993MOL0     H31075   3.661   9.630   6.186 -1.9927  0.6445 -1.4379
  993MOL0     H31076   3.439   9.648   6.263 -2.0932  1.9066 -2.0796
  994MOL0     O31077   7.980   0.175   3.572  0.9202 -0.0386 -0.2941
  994MOL0     C31078   7.986   0.122   3.682  0.3691 -0.0563  0.2579
  994MOL0     O31079   7.876   0.084   3.762 -0.3332 -0.3334  0.5165
  994MOL0     C31080   7.751   0.119   3.730  0.1793 -0.4736  0.8871
  994MOL0     C31081   7.708   0.255   3.701 -0.4291  0.6169  0.2709
  994MOL0     C31082   7.578   0.283   3.670 -0.6114  0.2587 -0.1174
  994MOL0     C31083   7.479   0.185   3.677  0.0333 -0.2204  0.0528
  994MOL0     O31084   7.348   0.231   3.682  0.2348 -0.4824 -0.4849
  994MOL0     C31085   7.237   0.143   3.663  0.5080  0.6717  0.3069
  994MOL0     C31086   7.104   0.211   3.694  1.0641  0.4682  0.5125
  994MOL0     C31087   6.987   0.102   3.700 -0.1572  0.3365 -0.4065
  994MOL0     C31088   6.866   0.164   3.781  0.7545  0.7133 -0.0229
  994MOL0     C31089   6.764   0.047   3.817 -0.8140 -0.0978 -0.0005
  994MOL0     C31090   6.656   0.099   3.903  0.7721 -0.0397  0.1690
  994MOL0     C31091   6.551  -0.005   3.951  0.1412  0.1082 -0.0228
  994MOL0     C31092   6.431   0.057   4.025 -0.2904 -0.2571  1.0299
  994MOL0     N31093   6.340  -0.060   4.059 -0.3148  0.5976 -0.1528
  994MOL0     C31094   6.247  -0.048   4.164 -0.8920  0.0377  1.0657
  994MOL0     C31095   6.177  -0.168   4.152 -0.3998 -0.0376 -0.3539
  994MOL0     C31096   6.074  -0.215   4.255 -0.9736  0.2524 -0.5032
  994MOL0     C31097   5.935  -0.231   4.187  0.4080  0.4181 -0.5514
  994MOL0     C31098   5.848  -0.325   4.267  0.1799 -0.5928 -0.1659
  994MOL0     C31099   5.713  -0.333   4.210 -0.0925 -0.1209  0.1081
  994MOL0     O31100   5.650  -0.431   4.302 -0.0478  0.3073  0.0166
  994MOL0     C31101   5.517  -0.440   4.322 -0.2306  0.3444 -0.3940
  994MOL0     C31102   5.474  -0.564   4.374 -0.7682 -0.3706  0.0253
  994MOL0     C31103   5.330  -0.575   4.387 -0.8224 -0.0482  0.2333
  994MOL0     C31104   5.241  -0.475   4.350  0.9690  0.2491 -0.2841
  994MOL0     C31105   5.096  -0.497   4.375  0.2268 -0.4157  0.4134
  994MOL0     O31106   5.019  -0.413   4.304 -0.6296 -0.8501  0.5219
  994MOL0     C31107   4.888  -0.408   4.321 -0.7345  0.0279  0.5119
  994MOL0     C31108   4.800  -0.406   4.206 -0.5364  0.5742 -0.3396
  994MOL0     C31109   4.657  -0.391   4.230 -0.7465 -0.2806 -0.0066
  994MOL0     C31110   4.604  -0.386   4.363  0.2846  0.7111  0.3413
  994MOL0     O31111   4.470  -0.378   4.380  0.7466  0.2528  0.2930
  994MOL0     C31112   4.372  -0.383   4.274  0.0064 -0.5520 -0.7258
  994MOL0     C31113   4.237  -0.396   4.334  0.1387  0.0085  0.2561
  994MOL0     C31114   4.124  -0.357   4.233 -0.0593  0.1567  0.4690
  994MOL0     C31115   3.983  -0.401   4.284  0.0789  0.3406  0.4608
  994MOL0     C31116   3.862  -0.341   4.214 -0.1410 -0.3030  0.2370
  994MOL0     C31117   3.731  -0.390   4.268  0.7013 -0.0389 -0.1419
  994MOL0     C31118   3.610  -0.309   4.223  0.6219 -0.9227 -1.0202
  994MOL0     C31119   3.481  -0.363   4.290  0.7295 -0.4030  0.5406
  994MOL0    Cl31120   3.470  -0.332   4.470  0.1219  0.1606  0.3708
  994MOL0     C31121   4.696  -0.400   4.472  1.1988 -0.6106  0.4163
  994MOL0     C31122   4.831  -0.401   4.447 -0.3264 -0.3550 -0.0795
  994MOL0     O31123   5.057  -0.587   4.444  0.1746 -0.7329 -0.1502
  994MOL0     C31124   5.293  -0.362   4.302  0.4358 -0.1991  0.3699
  994MOL0     C31125   5.424  -0.335   4.294 -0.0010  0.3511 -0.7931
  994MOL0     N31126   6.234  -0.240   4.047  0.6643 -0.5680 -0.1100
  994MOL0     N31127   6.325  -0.167   3.987 -0.0967  0.3742 -0.3281
  994MOL0     C31128   7.513   0.049   3.705  0.1389 -0.9043 -0.1684
  994MOL0     C31129   7.648   0.020   3.728  0.6977  0.2161  0.2225
  994MOL0     C31130   8.114   0.113   3.750 -0.1826 -0.6455 -0.0740
  994MOL0     C31131   8.135   0.028   3.851  0.5725 -0.4934  0.3224
  994MOL0     C31132   8.259   0.016   3.910 -0.5210 -0.1095 -0.1036
  994MOL0     C31133   8.364   0.092   3.874 -0.5016 -0.3800 -0.0758
  994MOL0     O31134   8.473   0.111   3.955  0.1837 -0.5648 -0.3560
  994MOL0     C31135   8.587   0.175   3.904  0.8165  0.7317 -0.3405
  994MOL0     C31136   8.707   0.178   3.991 -0.2540 -1.1210  0.4390
  994MOL0     C31137   8.781   0.044   4.005 -0.5147 -0.0865  0.4606
  994MOL0     C31138   8.908   0.064   4.097  0.3006 -0.1279 -0.7979
  994MOL0     C31139   9.023   0.118   4.026  0.3181  0.1096 -0.0164
  994MOL0     C31140   9.115   0.163   3.972  0.5163  0.1090  0.3700
  994MOL0     C31141   8.343   0.189   3.776 -0.1369  1.0960  0.4291
  994MOL0     C31142   8.218   0.195   3.712  0.0925 -0.2419 -0.1193
  994MOL0     H31143   7.775   0.340   3.687  2.3291 -1.2127  1.3248
  994MOL0     H31144   7.543   0.384   3.658 -0.8038  0.3493  1.0522
  994MOL0     H31145   7.254   0.058   3.730 -3.7765 -0.2934  0.4489
  994MOL0     H31146   7.238   0.103   3.561 -1.5784  0.4033  0.3346
  994MOL0     H31147   7.072   0.285   3.621  0.5668  1.4541  1.6847
  994MOL0     H31148   7.114   0.260   3.792  0.5774 -1.3356  1.5183
  994MOL0     H31149   7.019   0.005   3.740 -0.8720  0.1634 -0.2426
  994MOL0     H31150   6.956   0.080   3.597  0.2932 -0.5841 -0.3640
  994MOL0     H31151   6.900   0.186   3.882 -0.6939 -1.9029  1.1593
  994MOL0     H31152   6.812   0.238   3.722 -0.1513  0.2700  0.2291
  994MOL0     H31153   6.813  -0.031   3.874 -4.0966  0.0987  3.4977
  994MOL0     H31154   6.735   0.020   3.715  2.7172 -1.0092 -0.8996
  994MOL0     H31155   6.593   0.171   3.849  0.8031  0.1288  0.3587
  994MOL0     H31156   6.697   0.154   3.988  1.4300 -1.6338  0.9217
  994MOL0     H31157   6.514  -0.061   3.865 -0.2484 -0.6229  0.6086
  994MOL0     H31158   6.601  -0.074   4.019 -0.4940 -0.3021  0.0375
  994MOL0     H31159   6.377   0.123   3.957 -0.4600 -1.8700 -0.4754
  994MOL0     H31160   6.468   0.112   4.113  0.3849 -0.0908  0.6487
  994MOL0     H31161   6.245   0.025   4.243 -2.6652  0.7723  0.4085
  994MOL0     H31162   6.055  -0.145   4.337 -0.5361  1.0860 -1.0942
  994MOL0     H31163   6.104  -0.318   4.278  0.0410  1.0935  2.4170
  994MOL0     H31164   5.952  -0.282   4.092 -0.3505 -0.6547 -0.1246
  994MOL0     H31165   5.889  -0.132   4.180 -1.3243 -0.3967 -1.2405
  994MOL0     H31166   5.888  -0.427   4.270 -3.1715 -2.0255  2.6157
  994MOL0     H31167   5.844  -0.297   4.373  0.9141 -2.3442  0.3675
  994MOL0     H31168   5.729  -0.364   4.106 -1.2226  0.5749 -0.2900
  994MOL0     H31169   5.662  -0.236   4.208 -3.2013 -1.6339 -1.3414
  994MOL0     H31170   5.543  -0.647   4.384  2.2542  2.2206  2.7101
  994MOL0     H31171   5.300  -0.666   4.437 -3.0027  0.8417  0.6523
  994MOL0     H31172   4.844  -0.397   4.107  0.8629 -1.6322  0.0194
  994MOL0     H31173   4.597  -0.363   4.144 -1.3548  0.2225  0.5771
  994MOL0     H31174   4.401  -0.460   4.201  2.2953 -0.5025  0.0287
  994MOL0     H31175   4.357  -0.284   4.232 -0.6700  0.6463  2.0834
  994MOL0     H31176   4.220  -0.341   4.427  0.0715 -0.5933  0.6091
  994MOL0     H31177   4.233  -0.501   4.366 -0.6081 -0.5350 -1.5071
  994MOL0     H31178   4.140  -0.406   4.136  2.1641  1.9943 -0.1726
  994MOL0     H31179   4.137  -0.250   4.217 -0.2354 -0.0737 -1.5142
  994MOL0     H31180   3.970  -0.508   4.266 -1.2729  0.5840 -0.0754
  994MOL0     H31181   3.974  -0.389   4.393  1.4354  0.1032  0.6223
  994MOL0     H31182   3.862  -0.360   4.106  1.2755 -1.6327  0.4293
  994MOL0     H31183   3.859  -0.233   4.233 -0.7282 -0.6360  2.3108
  994MOL0     H31184   3.728  -0.404   4.376 -0.9432 -4.7039 -0.5649
  994MOL0     H31185   3.718  -0.489   4.223  0.6550  0.0394 -0.3010
  994MOL0     H31186   3.613  -0.206   4.260  0.4571 -0.6628 -1.7185
  994MOL0     H31187   3.602  -0.310   4.114 -1.3089  2.8444 -1.0690
  994MOL0     H31188   3.475  -0.470   4.268  0.5926 -0.1011 -1.0363
  994MOL0     H31189   3.398  -0.313   4.239 -0.4516 -1.5986  1.2654
  994MOL0     H31190   4.663  -0.401   4.575  3.0452  1.7427  1.1537
  994MOL0     H31191   4.894  -0.400   4.536  0.0510  0.4441 -0.3468
  994MOL0     H31192   5.227  -0.289   4.255 -0.1853 -0.6446  0.5442
  994MOL0     H31193   5.457  -0.236   4.263  3.7145 -0.5687 -0.3228
  994MOL0     H31194   7.442  -0.033   3.717  0.0801 -0.7247  0.8297
  994MOL0     H31195   7.679  -0.084   3.734  0.5457 -0.0286 -2.2384
  994MOL0     H31196   8.060  -0.035   3.898  1.0855 -1.9778 -0.7938
  994MOL0     H31197   8.270  -0.048   3.997 -0.8371 -0.5201 -0.3650
  994MOL0     H31198   8.574   0.282   3.891  1.3827  0.7757 -0.5960
  994MOL0     H31199   8.606   0.129   3.806 -0.2193  0.1001 -0.2701
  994MOL0     H31200   8.779   0.249   3.949 -1.5146  0.9665  1.6478
  994MOL0     H31201   8.673   0.211   4.089 -4.1479 -0.8240 -0.8219
  994MOL0     H31202   8.805   0.010   3.903 -2.1717  2.2642 -0.8231
  994MOL0     H31203   8.716  -0.032   4.049 -0.6835  0.2209  0.7469
  994MOL0     H31204   8.878   0.123   4.183  1.2402  0.2144 -0.6865
  994MOL0     H31205   8.941  -0.031   4.140 -1.1571  0.4805  1.8021
  994MOL0     H31206   9.211   0.193   3.934  1.0916 -0.5838  1.2243
  994MOL0     H31207   8.420   0.263   3.758  1.2759  0.4316  3.1424
  994MOL0     H31208   8.204   0.278   3.644 -0.2516 -2.1970 -2.5800
  995MOL0     O31209   3.588   5.393  10.503  0.8475  0.8944 -0.0056
  995MOL0     C31210   3.668   5.364  10.414 -0.6370 -0.5195 -0.3198
  995MOL0     O31211   3.645   5.294  10.300  0.5878  0.1420 -0.7681
  995MOL0     C31212   3.516   5.249  10.272  0.3393  0.5366  0.3738
  995MOL0     C31213   3.393   5.316  10.298  0.5466 -0.5925  0.2444
  995MOL0     C31214   3.277   5.245  10.266  0.2769 -0.2134 -0.0301
  995MOL0     C31215   3.266   5.129  10.190 -0.5821  0.2315 -0.7284
  995MOL0     O31216   3.145   5.081  10.157 -0.0260  1.0592 -0.0589
  995MOL0     C31217   3.122   4.938  10.134 -0.5155  0.1108 -0.5315
  995MOL0     C31218   2.971   4.904  10.144 -0.2336  0.3910  0.7458
  995MOL0     C31219   2.902   4.939  10.019  0.7195  0.3638  0.4763
  995MOL0     C31220   2.753   4.898  10.036  0.0117 -0.0460  0.4354
  995MOL0     C31221   2.671   4.947   9.913  0.4770 -0.1177  0.4885
  995MOL0     C31222   2.523   4.912   9.918 -0.2844  0.0711  0.5061
  995MOL0     C31223   2.503   4.756   9.905  0.0433  0.4590  0.0721
  995MOL0     C31224   2.357   4.717   9.873  0.2507  0.6525  1.3874
  995MOL0     N31225   2.260   4.732   9.981 -0.0598 -0.1122 -0.4840
  995MOL0     C31226   2.173   4.839   9.998 -0.0033 -0.2022 -1.4055
  995MOL0     C31227   2.103   4.813  10.107  0.3876 -0.6624 -1.1277
  995MOL0     C31228   1.986   4.893  10.154 -0.0808 -0.5209 -0.0304
  995MOL0     C31229   1.865   4.876  10.056  1.5318 -0.5548  0.6774
  995MOL0     C31230   1.830   4.735  10.024 -0.8341  0.1084  0.3949
  995MOL0     C31231   1.689   4.705   9.965  0.6021  0.3251  0.1040
  995MOL0     O31232   1.682   4.755   9.836 -0.0809 -0.5039 -0.3941
  995MOL0     C31233   1.553   4.788   9.807  0.0610 -0.5083  0.4966
  995MOL0     C31234   1.438   4.728   9.848  0.8538  0.2443 -0.0080
  995MOL0     C31235   1.311   4.757   9.791  0.2830 -0.2512  0.7185
  995MOL0     C31236   1.300   4.850   9.688 -0.1367 -0.7930  0.5963
  995MOL0     C31237   1.173   4.865   9.612 -0.5264 -0.1036 -0.2603
  995MOL0     O31238   1.063   4.805   9.660  0.3580  0.2500 -0.4339
  995MOL0     C31239   0.938   4.827   9.599 -0.7368 -0.6127 -0.1200
  995MOL0     C31240   0.886   4.954   9.582  0.3214  0.8352  0.6995
  995MOL0     C31241   0.766   4.968   9.518 -0.7168 -0.3962 -0.1775
  995MOL0     C31242   0.691   4.849   9.471 -0.7178  0.0701  0.3471
  995MOL0     O31243   0.575   4.852   9.401  0.2715 -0.5427 -0.1012
  995MOL0     C31244   0.546   4.975   9.335 -0.0703 -0.2377  0.2842
  995MOL0     C31245   0.429   4.964   9.246 -0.1673  0.1798  0.2275
  995MOL0     C31246   0.294   4.936   9.319  0.1432  0.5070  0.2818
  995MOL0     C31247   0.176   4.907   9.227  0.7635 -0.2040 -0.6223
  995MOL0     C31248   0.039   4.883   9.298 -0.5341 -0.1817  0.4776
  995MOL0     C31249  -0.078   4.839   9.214 -1.0617  0.1493  0.0424
  995MOL0     C31250  -0.118   4.938   9.101  0.5189  0.0102  0.1357
  995MOL0     C31251  -0.230   4.902   9.007 -0.1681 -0.2506 -0.1598
  995MOL0    Cl31252  -0.382   4.861   9.104 -0.2184 -0.1881 -0.0328
  995MOL0     C31253   0.750   4.721   9.488  0.0239  0.7285  0.3838
  995MOL0     C31254   0.877   4.723   9.540 -0.4100 -0.0211 -0.8618
  995MOL0     O31255   1.178   4.920   9.509  0.9822 -0.2047 -0.4767
  995MOL0     C31256   1.414   4.923   9.648  0.3961 -0.5256  0.6448
  995MOL0     C31257   1.536   4.884   9.706 -0.2522 -0.2907  0.6674
  995MOL0     N31258   2.151   4.695  10.162  0.3967  0.1474  0.2549
  995MOL0     N31259   2.236   4.645  10.083 -0.4715 -0.4357  0.4103
  995MOL0     C31260   3.387   5.068  10.159  0.1818 -0.4928  0.9062
  995MOL0     C31261   3.511   5.133  10.203 -0.3444 -0.2442  0.8434
  995MOL0     C31262   3.808   5.407  10.423  0.3177  0.4583 -0.4096
  995MOL0     C31263   3.904   5.354  10.335 -1.1164  0.6075  0.6251
  995MOL0     C31264   4.048   5.381  10.358 -0.0633 -0.1721 -0.6296
  995MOL0     C31265   4.083   5.470  10.466 -0.0287  0.0990  0.2052
  995MOL0     O31266   4.212   5.500  10.497 -0.5525 -0.2645 -0.4674
  995MOL0     C31267   4.316   5.435  10.419 -0.4935 -0.2119  0.8360
  995MOL0     C31268   4.460   5.465  10.467 -0.0673 -0.0565  0.3014
  995MOL0     C31269   4.513   5.589  10.384  0.1463  0.2097 -0.1976
  995MOL0     C31270   4.451   5.720  10.432  0.1103 -0.3062 -0.0267
  995MOL0     C31271   4.324   5.767  10.376  0.4259  0.5314  0.2445
  995MOL0     C31272   4.223   5.819  10.341  0.1241 -0.4808 -0.3911
  995MOL0     C31273   3.986   5.531  10.544 -0.2114  0.9533 -0.5942
  995MOL0     C31274   3.852   5.496  10.524 -0.6975 -0.2000  0.0045
  995MOL0     H31275   3.392   5.418  10.337  0.1179  0.7989 -3.1061
  995MOL0     H31276   3.184   5.291  10.297  0.1891  0.0217 -0.6311
  995MOL0     H31277   3.161   4.873  10.214  1.1117 -1.4517 -2.4720
  995MOL0     H31278   3.165   4.908  10.038  1.0367 -0.5525  0.3251
  995MOL0     H31279   2.921   4.961  10.224 -1.9480 -0.2663  0.1854
  995MOL0     H31280   2.952   4.798  10.159 -2.3326  0.9113  2.3567
  995MOL0     H31281   2.944   4.893   9.929 -1.3631 -2.3989  0.7836
  995MOL0     H31282   2.912   5.047  10.002  1.6739 -0.1628 -3.0716
  995MOL0     H31283   2.741   4.789  10.042 -1.7820  0.0873 -0.2030
  995MOL0     H31284   2.715   4.956  10.120  2.8536  3.4688 -0.4298
  995MOL0     H31285   2.709   4.910   9.818 -3.4410 -1.3887 -0.7864
  995MOL0     H31286   2.680   5.056   9.911 -2.6904  0.2550  1.2719
  995MOL0     H31287   2.470   4.964   9.836  0.0829  0.2290  0.3673
  995MOL0     H31288   2.485   4.956  10.011  1.8717 -0.3131  1.6195
  995MOL0     H31289   2.572   4.712   9.832 -1.1249 -1.6684  0.1892
  995MOL0     H31290   2.540   4.715   9.999  2.0835 -0.6127 -1.1109
  995MOL0     H31291   2.361   4.611   9.846 -0.8669  0.9772 -0.2098
  995MOL0     H31292   2.324   4.774   9.785 -0.4754  1.7895  2.3668
  995MOL0     H31293   2.160   4.919   9.926 -1.6178  0.7863 -0.0855
  995MOL0     H31294   2.012   4.999  10.154  2.1355 -1.0164  0.6097
  995MOL0     H31295   1.961   4.875  10.259  0.0102  1.7015  0.4196
  995MOL0     H31296   1.886   4.925   9.961 -0.4718 -0.8961  0.0044
  995MOL0     H31297   1.777   4.922  10.103  0.6417 -0.8635 -0.6336
  995MOL0     H31298   1.908   4.686   9.965 -1.2981 -0.8079  0.5173
  995MOL0     H31299   1.834   4.677  10.117  4.4599  0.4256  0.6635
  995MOL0     H31300   1.613   4.753  10.028 -1.5729 -1.3504 -1.0773
  995MOL0     H31301   1.677   4.596   9.963  4.5080 -0.2465 -2.3791
  995MOL0     H31302   1.438   4.646   9.919  3.6161 -1.2365 -1.5228
  995MOL0     H31303   1.217   4.715   9.827  0.0343 -0.2337  0.1139
  995MOL0     H31304   0.936   5.041   9.622  0.3075  0.4653  1.5448
  995MOL0     H31305   0.739   5.072   9.502  3.4388  0.6760 -1.4488
  995MOL0     H31306   0.630   4.996   9.269  0.9397 -2.4944  0.7893
  995MOL0     H31307   0.544   5.069   9.392  0.4953  1.1360 -1.8646
  995MOL0     H31308   0.445   4.880   9.178 -0.1154  0.0407  0.4131
  995MOL0     H31309   0.416   5.061   9.196  0.5964  0.1405 -0.0624
  995MOL0     H31310   0.270   5.013   9.393 -0.1582 -0.4505  1.2122
  995MOL0     H31311   0.317   4.853   9.386 -1.6601 -0.8980 -0.7504
  995MOL0     H31312   0.160   4.993   9.161 -2.1794 -0.5098 -0.4719
  995MOL0     H31313   0.197   4.827   9.156  1.6618  0.7161 -1.4213
  995MOL0     H31314   0.011   4.980   9.339 -0.0161 -0.9397  2.7325
  995MOL0     H31315   0.054   4.814   9.381 -2.2246  1.8896  2.6268
  995MOL0     H31316  -0.163   4.830   9.282 -0.0765 -0.8959  1.1952
  995MOL0     H31317  -0.066   4.737   9.175  1.5744 -0.6601  2.6013
  995MOL0     H31318  -0.140   5.042   9.129  0.5630  0.6425 -2.0201
  995MOL0     H31319  -0.033   4.953   9.034 -1.3962 -0.8087 -2.6688
  995MOL0     H31320  -0.203   4.824   8.935  1.4387  0.8397 -0.7892
  995MOL0     H31321  -0.261   4.991   8.950  0.4159  0.6615  0.9010
  995MOL0     H31322   0.704   4.632   9.447  1.6576  0.1070 -0.1553
  995MOL0     H31323   0.924   4.625   9.544 -0.3331  0.0617  2.0088
  995MOL0     H31324   1.415   5.002   9.573  1.1387 -0.5651  0.6008
  995MOL0     H31325   1.628   4.939   9.690  0.1601 -1.1497  0.0038
  995MOL0     H31326   3.386   4.979  10.097  0.1442  2.7717 -4.3784
  995MOL0     H31327   3.608   5.088  10.183  0.6922  2.0507  0.5017
  995MOL0     H31328   3.892   5.281  10.256  0.4079  1.9174 -0.9106
  995MOL0     H31329   4.120   5.339  10.289 -0.3967  0.9486 -1.7250
  995MOL0     H31330   4.304   5.468  10.316 -1.1807  1.1248  1.3222
  995MOL0     H31331   4.313   5.325  10.422  1.1289 -0.2666  1.1485
  995MOL0     H31332   4.467   5.482  10.575  4.0486  2.5445 -0.1820
  995MOL0     H31333   4.527   5.384  10.437  1.7908  1.0097  1.3872
  995MOL0     H31334   4.492   5.576  10.278 -4.5260  0.2430  0.5239
  995MOL0     H31335   4.622   5.587  10.391  0.3929  0.1518 -3.1068
  995MOL0     H31336   4.434   5.711  10.540 -1.6032  0.6395 -0.1798
  995MOL0     H31337   4.527   5.796  10.413  0.0220 -0.4028 -0.7994
  995MOL0     H31338   4.132   5.870  10.320  0.4646  0.5725  0.5921
  995MOL0     H31339   4.015   5.596  10.626  2.9150 -0.7135 -0.2244
  995MOL0     H31340   3.783   5.526  10.602  2.9401 -2.1760  4.4220
  996MOL0     O31341   6.212   0.388   7.412  0.0247 -0.4926 -0.4522
  996MOL0     C31342   6.297   0.466   7.376  0.3322 -0.7865  0.0417
  996MOL0     O31343   6.272   0.599   7.368 -0.7868 -0.3548  0.5410
  996MOL0     C31344   6.155   0.659   7.350 -0.7414 -0.1392 -0.6338
  996MOL0     C31345   6.152   0.794   7.377  0.2581  0.0711  1.2962
  996MOL0     C31346   6.031   0.870   7.353  0.4263  0.5358  0.3812
  996MOL0     C31347   5.909   0.805   7.311  0.4187  0.8168  0.1200
  996MOL0     O31348   5.785   0.861   7.286  0.4861 -0.7832 -0.5272
  996MOL0     C31349   5.768   1.000   7.312  0.0682 -0.6454 -0.3006
  996MOL0     C31350   5.618   1.034   7.281  0.2405 -0.1042 -0.7151
  996MOL0     C31351   5.601   1.173   7.224 -0.4590 -0.5110 -0.1061
  996MOL0     C31352   5.594   1.282   7.324  0.1162  0.5810 -0.0482
  996MOL0     C31353   5.630   1.411   7.259  0.4148 -0.7041  0.4164
  996MOL0     C31354   5.634   1.544   7.346  0.3176  0.1831  0.0539
  996MOL0     C31355   5.650   1.674   7.263 -0.3336 -0.3705 -0.4852
  996MOL0     C31356   5.523   1.697   7.185  0.0645 -0.0375 -0.4719
  996MOL0     N31357   5.503   1.830   7.128 -0.6673  0.6241  0.4134
  996MOL0     C31358   5.554   1.868   7.004 -0.1704  0.5268  0.2126
  996MOL0     C31359   5.508   1.989   6.974 -0.0850  0.4372  0.2933
  996MOL0     C31360   5.526   2.054   6.839  0.3205  0.2644  0.6856
  996MOL0     C31361   5.424   2.173   6.799  0.0046  0.0538  0.2951
  996MOL0     C31362   5.459   2.244   6.663 -0.2295  0.2388  0.3341
  996MOL0     C31363   5.370   2.350   6.610  0.1184 -0.5091  0.3499
  996MOL0     O31364   5.299   2.430   6.713 -0.3026  0.2475  0.7133
  996MOL0     C31365   5.182   2.391   6.768  0.1159 -0.1742  0.4574
  996MOL0     C31366   5.116   2.472   6.857 -0.6080 -0.7466 -0.1772
  996MOL0     C31367   4.984   2.445   6.903 -0.5757 -0.0479 -0.2676
  996MOL0     C31368   4.913   2.328   6.856 -0.4317 -0.7470  0.5518
  996MOL0     C31369   4.773   2.305   6.881  0.0995 -1.0610 -0.3170
  996MOL0     O31370   4.711   2.196   6.827  0.1260 -0.5168 -0.0135
  996MOL0     C31371   4.582   2.172   6.866  0.7615  0.1184  0.0031
  996MOL0     C31372   4.481   2.204   6.782  0.0407  0.3652 -0.1501
  996MOL0     C31373   4.342   2.180   6.822 -0.1760 -0.2770  0.1984
  996MOL0     C31374   4.321   2.114   6.942 -0.0999  0.1145 -0.9004
  996MOL0     O31375   4.193   2.086   6.977  1.0696  0.3599  0.3696
  996MOL0     C31376   4.158   2.083   7.110 -0.5217  0.2722  0.6796
  996MOL0     C31377   4.000   2.077   7.124  0.3897  0.3830 -0.0259
  996MOL0     C31378   3.977   2.054   7.273 -0.1052  0.8578  0.7727
  996MOL0     C31379   3.826   2.010   7.297  0.5466 -0.4192  0.3694
  996MOL0     C31380   3.800   1.954   7.438  0.4909 -0.0752 -0.1791
  996MOL0     C31381   3.642   1.955   7.467  0.1709 -0.3126  0.4228
  996MOL0     C31382   3.596   1.952   7.617  1.0854  0.0022 -1.0387
  996MOL0     C31383   3.652   1.829   7.693  0.5241  0.7570  0.4174
  996MOL0    Cl31384   3.561   1.672   7.638 -0.3190 -0.4344 -0.0562
  996MOL0     C31385   4.428   2.081   7.026  0.0716 -0.2047  0.1345
  996MOL0     C31386   4.553   2.101   6.980 -0.0594  0.1731 -0.2122
  996MOL0     O31387   4.719   2.388   6.957 -0.0501  1.1714 -0.0029
  996MOL0     C31388   4.988   2.240   6.771 -0.4258 -0.0895 -0.0488
  996MOL0     C31389   5.113   2.272   6.724 -0.1398  0.2874  0.4544
  996MOL0     N31390   5.423   2.027   7.075  0.0730 -0.0088 -0.3193
  996MOL0     N31391   5.428   1.930   7.175 -0.6428  0.3737 -1.3212
  996MOL0     C31392   5.918   0.667   7.293 -0.5529 -0.0127 -0.0376
  996MOL0     C31393   6.041   0.600   7.314  0.0662 -0.3236  0.1003
  996MOL0     C31394   6.436   0.426   7.355 -0.3343  0.3681 -0.3921
  996MOL0     C31395   6.499   0.316   7.421  0.2148 -1.2709 -0.1321
  996MOL0     C31396   6.638   0.298   7.414  0.3597 -0.0928  0.1208
  996MOL0     C31397   6.720   0.382   7.328 -0.2988 -0.1363  0.6126
  996MOL0     O31398   6.853   0.354   7.321 -0.3614 -0.3942  0.2638
  996MOL0     C31399   6.934   0.429   7.220 -0.8359 -0.6130  0.6474
  996MOL0     C31400   7.064   0.351   7.210 -0.2525  0.3640 -1.1548
  996MOL0     C31401   7.182   0.441   7.174 -0.0719  0.2921  1.0066
  996MOL0     C31402   7.295   0.346   7.133  0.5326  0.1008  0.2002
  996MOL0     C31403   7.414   0.416   7.092  0.2152 -0.2966 -0.4707
  996MOL0     C31404   7.525   0.458   7.063  0.8701  0.0264 -0.0498
  996MOL0     C31405   6.659   0.496   7.273 -0.5192 -0.3181 -0.5308
  996MOL0     C31406   6.521   0.522   7.288  0.8340 -0.2644 -0.3966
  996MOL0     H31407   6.241   0.852   7.401  0.9807  0.1987 -1.3444
  996MOL0     H31408   6.033   0.977   7.369  2.0173  0.2685  2.4054
  996MOL0     H31409   5.837   1.060   7.253 -0.0286 -0.3772 -0.1412
  996MOL0     H31410   5.788   1.010   7.419 -2.5835  0.0908  0.1906
  996MOL0     H31411   5.555   1.025   7.370  2.1814  1.7225  0.9468
  996MOL0     H31412   5.584   0.967   7.201 -0.6326  0.6225 -0.9627
  996MOL0     H31413   5.509   1.172   7.164 -0.4167  1.1953 -0.2499
  996MOL0     H31414   5.681   1.185   7.151 -0.7764 -1.9089 -0.7214
  996MOL0     H31415   5.494   1.295   7.366  0.8850  3.3465  1.1770
  996MOL0     H31416   5.667   1.269   7.404 -0.8445 -0.7661  0.6498
  996MOL0     H31417   5.553   1.438   7.186  1.9911  0.5696 -0.8415
  996MOL0     H31418   5.726   1.395   7.210  1.4043  0.2161  1.9552
  996MOL0     H31419   5.710   1.530   7.424  0.0116  0.0382  0.3290
  996MOL0     H31420   5.542   1.551   7.404 -0.9254 -1.5022 -1.5823
  996MOL0     H31421   5.658   1.748   7.343  0.5217 -1.1101  0.1317
  996MOL0     H31422   5.747   1.674   7.212  0.1627  2.7784  0.2796
  996MOL0     H31423   5.438   1.655   7.240  0.1862 -0.7845 -0.8499
  996MOL0     H31424   5.528   1.632   7.098 -1.8038 -1.8923  0.7157
  996MOL0     H31425   5.620   1.799   6.952 -1.4869 -0.8376  0.2666
  996MOL0     H31426   5.532   1.980   6.759  1.1518 -0.4525  1.3841
  996MOL0     H31427   5.622   2.107   6.839  0.4784  0.0284 -0.9675
  996MOL0     H31428   5.411   2.248   6.877 -0.1704  0.5073 -0.1644
  996MOL0     H31429   5.320   2.141   6.789  0.0234  0.2619 -0.6816
  996MOL0     H31430   5.556   2.280   6.697 -0.4846  0.3432  0.9645
  996MOL0     H31431   5.467   2.171   6.582 -1.7345  0.6882 -0.2648
  996MOL0     H31432   5.293   2.313   6.542 -1.9350  1.9477  1.1866
  996MOL0     H31433   5.424   2.421   6.547 -2.4395  0.3551 -1.0208
  996MOL0     H31434   5.171   2.557   6.895  3.5065 -2.3726 -1.8942
  996MOL0     H31435   4.938   2.511   6.977 -1.6122 -1.9515  0.8661
  996MOL0     H31436   4.504   2.253   6.688 -3.1132 -1.2502 -1.9316
  996MOL0     H31437   4.259   2.211   6.761  0.0376  0.7831  0.4355
  996MOL0     H31438   4.199   2.163   7.172  0.2014  0.7895 -0.4375
  996MOL0     H31439   4.205   1.994   7.152  2.4202  1.7249  0.7610
  996MOL0     H31440   3.955   1.992   7.072 -1.7182  0.7695  1.0372
  996MOL0     H31441   3.947   2.169   7.095  0.3481  0.9382  1.7056
  996MOL0     H31442   4.007   2.139   7.335  1.4170  0.4133  0.6789
  996MOL0     H31443   4.032   1.965   7.305 -2.7936 -0.5565  1.8504
  996MOL0     H31444   3.765   2.098   7.278  1.1711  0.4543  2.2314
  996MOL0     H31445   3.798   1.930   7.228  1.8753  0.3232 -1.0823
  996MOL0     H31446   3.845   2.032   7.500 -0.2808  1.1953 -1.1756
  996MOL0     H31447   3.845   1.859   7.469 -2.7119 -0.8821  2.6058
  996MOL0     H31448   3.610   1.863   7.417  0.8684 -1.6571  2.3351
  996MOL0     H31449   3.599   2.046   7.425  0.5255 -0.3465 -0.0258
  996MOL0     H31450   3.636   2.042   7.665  0.7928 -0.0908 -0.6252
  996MOL0     H31451   3.487   1.942   7.616  0.9749  1.0097 -0.5206
  996MOL0     H31452   3.649   1.836   7.802  2.3592  0.3979  0.5203
  996MOL0     H31453   3.761   1.824   7.684  0.6370  0.1916  1.8453
  996MOL0     H31454   4.417   2.042   7.126  1.4996  2.1060  1.2634
  996MOL0     H31455   4.633   2.064   7.044 -1.7578  2.1167  3.3293
  996MOL0     H31456   4.933   2.163   6.719  0.4694 -1.3512  0.8234
  996MOL0     H31457   5.146   2.208   6.643 -3.1094  0.8905 -1.3693
  996MOL0     H31458   5.836   0.600   7.271 -0.5266 -0.9315  2.4302
  996MOL0     H31459   6.022   0.495   7.292 -0.5311 -0.1919 -0.0339
  996MOL0     H31460   6.440   0.247   7.481 -3.5238  2.3490  0.8389
  996MOL0     H31461   6.688   0.225   7.477  1.4595  0.6822  0.1806
  996MOL0     H31462   6.946   0.532   7.253 -3.9311  0.1025 -0.0666
  996MOL0     H31463   6.893   0.432   7.119  0.3583  2.2691  0.1635
  996MOL0     H31464   7.082   0.298   7.304 -1.3606 -2.3858 -2.4081
  996MOL0     H31465   7.046   0.272   7.137  0.2661 -1.3994  0.5709
  996MOL0     H31466   7.205   0.505   7.260 -0.7135  1.0513  0.6312
  996MOL0     H31467   7.158   0.496   7.083 -0.1131  0.1855  0.9534
  996MOL0     H31468   7.309   0.280   7.219 -2.3922 -1.6715 -0.5128
  996MOL0     H31469   7.259   0.270   7.062  0.5837 -0.7313  1.0498
  996MOL0     H31470   7.627   0.489   7.050  0.1316  2.2289 -0.8815
  996MOL0     H31471   6.725   0.566   7.223  1.6464 -0.7971  1.4890
  996MOL0     H31472   6.484   0.613   7.242 -2.0441 -1.3527 -0.4387
  997MOL0     O31473   1.464   3.558   4.589  0.4160 -0.2606 -0.6273
  997MOL0     C31474   1.530   3.637   4.667 -0.1410  0.5722 -0.5664
  997MOL0     O31475   1.489   3.667   4.793  0.2014 -0.0177 -0.3774
  997MOL0     C31476   1.361   3.644   4.829  0.3300  0.0799 -0.1275
  997MOL0     C31477   1.333   3.586   4.959 -0.1090 -0.5095  0.5899
  997MOL0     C31478   1.203   3.568   5.006 -0.1171 -0.6433  0.3364
  997MOL0     C31479   1.094   3.610   4.920  0.2763  0.6500 -0.0625
  997MOL0     O31480   0.978   3.602   4.991  0.2168 -0.0486  0.0136
  997MOL0     C31481   0.852   3.618   4.918  0.1904  0.7468 -0.4036
  997MOL0     C31482   0.750   3.550   5.011 -0.3862 -0.4428 -0.6034
  997MOL0     C31483   0.616   3.545   4.943  0.6499 -0.2362 -1.4714
  997MOL0     C31484   0.511   3.468   5.021  0.1752  0.2429 -0.4446
  997MOL0     C31485   0.362   3.488   4.999  0.2392 -0.3028  0.3061
  997MOL0     C31486   0.277   3.363   5.018 -1.2313  0.5961 -0.5291
  997MOL0     C31487   0.280   3.319   5.166  0.4044  0.2007 -0.6156
  997MOL0     C31488   0.193   3.193   5.184 -0.3323 -0.2114  0.1727
  997MOL0     N31489   0.052   3.220   5.176  1.2496 -0.6142  1.3509
  997MOL0     C31490  -0.034   3.302   5.249  0.0487 -0.5043 -0.6214
  997MOL0     C31491  -0.159   3.283   5.195 -0.7922 -0.0577 -0.2386
  997MOL0     C31492  -0.272   3.365   5.254  0.1040 -0.4810  0.3933
  997MOL0     C31493  -0.372   3.285   5.339  0.5152  0.3819 -0.0705
  997MOL0     C31494  -0.442   3.171   5.264  0.1001 -0.2203  0.2358
  997MOL0     C31495  -0.539   3.088   5.347  0.0250 -0.5638  0.4102
  997MOL0     O31496  -0.626   3.189   5.404  0.1191  0.5462  0.1952
  997MOL0     C31497  -0.761   3.208   5.362 -0.5318 -0.4878  0.2831
  997MOL0     C31498  -0.810   3.155   5.235 -0.2770 -0.0712  0.4690
  997MOL0     C31499  -0.942   3.171   5.191  0.6172 -0.1983  0.3463
  997MOL0     C31500  -1.029   3.241   5.269  0.2650 -0.8077  0.8914
  997MOL0     C31501  -1.171   3.252   5.225  0.4664 -0.8645  0.3016
  997MOL0     O31502  -1.254   3.310   5.321  0.5307  0.0417  0.0916
  997MOL0     C31503  -1.381   3.341   5.283  0.2290 -0.3445 -0.1706
  997MOL0     C31504  -1.480   3.311   5.377 -0.2506  0.1140  1.0033
  997MOL0     C31505  -1.610   3.349   5.354  0.0036 -0.0257 -0.5382
  997MOL0     C31506  -1.652   3.425   5.244 -0.1524 -0.4583  0.3288
  997MOL0     O31507  -1.789   3.443   5.223  0.4133 -0.4617 -0.3981
  997MOL0     C31508  -1.826   3.576   5.187  0.8256  0.2827 -0.9039
  997MOL0     C31509  -1.967   3.606   5.244  0.0479 -0.3948  0.7583
  997MOL0     C31510  -2.083   3.574   5.151  0.6067  0.3676 -0.0758
  997MOL0     C31511  -2.223   3.600   5.215 -0.2048  0.3476 -0.2568
  997MOL0     C31512  -2.337   3.588   5.106  0.9531  0.9275  0.3843
  997MOL0     C31513  -2.466   3.637   5.163  0.4200  0.1710 -0.5294
  997MOL0     C31514  -2.476   3.789   5.164  0.2307  0.2243 -0.5807
  997MOL0     C31515  -2.596   3.846   5.244  0.1218  0.4177 -0.4253
  997MOL0    Cl31516  -2.751   3.819   5.159  0.2611 -0.1968  0.2236
  997MOL0     C31517  -1.553   3.464   5.147  0.3259  0.0145 -0.0009
  997MOL0     C31518  -1.417   3.420   5.172  0.6515  0.0800  0.3442
  997MOL0     O31519  -1.211   3.198   5.119 -0.3863  0.1017 -0.3728
  997MOL0     C31520  -0.986   3.297   5.394  0.4092 -0.4105  0.3399
  997MOL0     C31521  -0.854   3.280   5.440  0.2082 -0.9614 -0.2156
  997MOL0     N31522  -0.146   3.201   5.086 -0.0283 -0.3457 -0.4380
  997MOL0     N31523  -0.026   3.160   5.075 -0.2966  0.1331  1.1999
  997MOL0     C31524   1.119   3.670   4.796 -0.8334 -0.4161 -0.0348
  997MOL0     C31525   1.254   3.684   4.753  0.4958 -0.7496 -0.3092
  997MOL0     C31526   1.668   3.684   4.628  0.4150 -0.1138  0.6059
  997MOL0     C31527   1.695   3.693   4.495 -0.2649  0.5985 -0.7276
  997MOL0     C31528   1.819   3.738   4.456  0.3448 -0.1856  0.1008
  997MOL0     C31529   1.920   3.781   4.540  0.2250  0.5682 -0.7798
  997MOL0     O31530   2.028   3.829   4.485  0.4170  0.0849  0.1667
  997MOL0     C31531   2.126   3.897   4.565 -0.3763  0.0560  0.6736
  997MOL0     C31532   2.236   3.939   4.460  0.2525  0.2827 -0.0851
  997MOL0     C31533   2.308   3.817   4.393 -0.2656 -1.1897  0.6756
  997MOL0     C31534   2.427   3.870   4.313 -0.2150  0.8306  0.0306
  997MOL0     C31535   2.383   3.932   4.188 -0.8612 -1.0846  0.4599
  997MOL0     C31536   2.347   3.983   4.086  1.0509 -1.2274 -0.8710
  997MOL0     C31537   1.891   3.777   4.679  0.0431  0.3670  0.5335
  997MOL0     C31538   1.761   3.734   4.717  0.2253  0.1224 -0.0038
  997MOL0     H31539   1.424   3.568   5.016  0.9903  1.9804 -0.2585
  997MOL0     H31540   1.185   3.535   5.108  2.4513  3.7692  2.5009
  997MOL0     H31541   0.865   3.580   4.816  4.4954  0.1898  0.1866
  997MOL0     H31542   0.830   3.726   4.916  0.2541  0.9659  3.5360
  997MOL0     H31543   0.739   3.612   5.101 -1.8648 -1.4932 -0.0255
  997MOL0     H31544   0.778   3.446   5.029  0.0400 -0.5724 -1.9324
  997MOL0     H31545   0.619   3.482   4.853 -1.6157 -1.2559 -0.8959
  997MOL0     H31546   0.575   3.643   4.918 -1.4481 -0.8486 -0.6102
  997MOL0     H31547   0.539   3.362   5.024 -0.6768 -0.0119 -1.0724
  997MOL0     H31548   0.521   3.509   5.122 -0.9507 -0.8776  0.1449
  997MOL0     H31549   0.347   3.517   4.894 -1.9938 -0.8381  0.4202
  997MOL0     H31550   0.328   3.575   5.056  0.6852 -0.2274  0.4591
  997MOL0     H31551   0.315   3.283   4.954  0.4083  1.8016 -1.1287
  997MOL0     H31552   0.174   3.391   4.994 -0.7029  2.6922 -0.5953
  997MOL0     H31553   0.383   3.292   5.191  1.6272  3.1837 -1.9480
  997MOL0     H31554   0.252   3.407   5.224  0.4841 -0.4504  0.4304
  997MOL0     H31555   0.216   3.126   5.267 -1.4299 -1.2580 -0.3138
  997MOL0     H31556   0.214   3.129   5.097 -2.1511  1.8979 -1.9550
  997MOL0     H31557   0.006   3.362   5.329  0.3176 -0.1807 -0.9913
  997MOL0     H31558  -0.335   3.409   5.176 -1.6190 -1.5688  1.1146
  997MOL0     H31559  -0.237   3.444   5.321  1.3143 -0.6776  0.0183
  997MOL0     H31560  -0.444   3.355   5.384  1.4184  0.9289  0.5514
  997MOL0     H31561  -0.318   3.248   5.426  0.2355  1.6156  0.6586
  997MOL0     H31562  -0.484   3.205   5.169 -0.6083  0.0476  0.6413
  997MOL0     H31563  -0.367   3.105   5.218 -0.5027  0.0219 -1.1741
  997MOL0     H31564  -0.495   3.041   5.436  1.4084  0.1891  0.1414
  997MOL0     H31565  -0.596   3.021   5.282 -2.7893  1.1404  0.9514
  997MOL0     H31566  -0.733   3.119   5.168  0.9417 -3.6656  3.4215
  997MOL0     H31567  -0.971   3.126   5.097  0.3670 -2.0806  1.2671
  997MOL0     H31568  -1.456   3.255   5.467 -0.5962 -0.2201  0.8907
  997MOL0     H31569  -1.685   3.323   5.428 -0.0271  0.9375 -0.2174
  997MOL0     H31570  -1.825   3.583   5.078  4.0798 -0.4491 -1.0159
  997MOL0     H31571  -1.754   3.651   5.221  1.6465  0.1334 -2.2451
  997MOL0     H31572  -1.973   3.713   5.263  0.7134  0.0537 -1.2882
  997MOL0     H31573  -1.979   3.548   5.336  3.5778 -1.4384  0.6883
  997MOL0     H31574  -2.075   3.474   5.106  1.3575  0.4812 -0.2183
  997MOL0     H31575  -2.078   3.644   5.067 -0.7097 -0.6442 -1.0309
  997MOL0     H31576  -2.245   3.544   5.306  0.4154  1.1654  0.4141
  997MOL0     H31577  -2.222   3.706   5.244 -1.2725  1.0503 -2.5432
  997MOL0     H31578  -2.349   3.482   5.084 -0.3765  1.4640 -1.8379
  997MOL0     H31579  -2.312   3.635   5.010 -1.0288  1.5005  0.1104
  997MOL0     H31580  -2.470   3.609   5.269 -0.4098 -3.1887 -1.3116
  997MOL0     H31581  -2.550   3.592   5.109  0.6431 -0.4291 -0.3841
  997MOL0     H31582  -2.389   3.832   5.213 -0.4326  2.1477 -0.9988
  997MOL0     H31583  -2.484   3.822   5.060 -0.2734 -0.4846 -0.7747
  997MOL0     H31584  -2.579   3.954   5.242  0.8733  0.3031 -0.3501
  997MOL0     H31585  -2.592   3.812   5.348  2.0050  0.0187 -0.6114
  997MOL0     H31586  -1.595   3.506   5.056 -3.5097 -2.1560  0.5228
  997MOL0     H31587  -1.339   3.444   5.100  0.8702 -0.9202  0.2344
  997MOL0     H31588  -1.059   3.356   5.449 -0.2598  2.7084 -3.4455
  997MOL0     H31589  -0.816   3.317   5.535  0.4779 -0.1526 -0.6381
  997MOL0     H31590   1.045   3.716   4.732  1.7041  0.6900 -2.4250
  997MOL0     H31591   1.269   3.730   4.655 -0.1648 -0.9407 -0.5082
  997MOL0     H31592   1.619   3.660   4.425  0.2766 -1.1126 -0.5456
  997MOL0     H31593   1.828   3.763   4.351  0.0090 -3.3343 -0.7792
  997MOL0     H31594   2.173   3.842   4.647 -1.4932  0.0359  1.3193
  997MOL0     H31595   2.094   3.993   4.607 -1.5331  0.8587 -1.8778
  997MOL0     H31596   2.193   4.005   4.384 -1.5016  0.5297  1.0504
  997MOL0     H31597   2.305   3.989   4.529 -0.2320 -1.5524  1.8343
  997MOL0     H31598   2.241   3.765   4.324 -3.0609  2.9723 -0.1391
  997MOL0     H31599   2.342   3.755   4.477  2.7490 -1.3191 -0.5069
  997MOL0     H31600   2.485   3.942   4.371  1.3917 -1.0249  0.8392
  997MOL0     H31601   2.492   3.786   4.286  1.3676  1.0348  2.8364
  997MOL0     H31602   2.301   4.032   4.003  0.3213 -1.1612 -0.4303
  997MOL0     H31603   1.941   3.820   4.765 -3.0841  0.7317  2.3537
  997MOL0     H31604   1.736   3.758   4.820  2.8455  1.9554  0.3070
  998MOL0     O31605   0.447   9.849   3.741 -0.6080  0.6693  0.5190
  998MOL0     C31606   0.537   9.785   3.682  0.0029  0.1735  0.2691
  998MOL0     O31607   0.516   9.686   3.586 -1.0025  0.3242 -0.5218
  998MOL0     C31608   0.387   9.641   3.586  0.0492  0.0700 -0.7255
  998MOL0     C31609   0.347   9.560   3.695  0.1909 -0.1207 -0.6433
  998MOL0     C31610   0.217   9.510   3.710  0.0833  0.0668  0.8313
  998MOL0     C31611   0.138   9.522   3.595  0.1255 -0.4968 -0.0862
  998MOL0     O31612   0.013   9.470   3.606  0.1619 -0.3158 -0.3933
  998MOL0     C31613  -0.093   9.564   3.593 -0.2337 -0.0484 -0.8782
  998MOL0     C31614  -0.135   9.632   3.731 -0.2770 -0.0289 -0.6436
  998MOL0     C31615  -0.148   9.523   3.839 -0.7982 -0.0577 -0.5748
  998MOL0     C31616  -0.220   9.578   3.962  0.1006 -0.5028  0.0720
  998MOL0     C31617  -0.220   9.474   4.079  0.1919 -1.1431 -0.6067
  998MOL0     C31618  -0.313   9.508   4.197  0.8988 -1.2010  0.0773
  998MOL0     C31619  -0.348   9.382   4.275  0.7021  0.3550  0.0354
  998MOL0     C31620  -0.451   9.420   4.382  0.3960 -0.4107  0.7489
  998MOL0     N31621  -0.499   9.305   4.450  0.0471  0.9618 -0.1303
  998MOL0     C31622  -0.576   9.207   4.405 -0.3085  0.5214 -0.0808
  998MOL0     C31623  -0.607   9.133   4.512 -0.5143  0.9032 -0.3144
  998MOL0     C31624  -0.683   8.999   4.513 -0.3522 -0.1936  0.0552
  998MOL0     C31625  -0.821   9.010   4.564 -0.4511 -0.3090 -0.0244
  998MOL0     C31626  -0.876   8.878   4.600 -0.1271 -0.6516 -1.2547
  998MOL0     C31627  -1.029   8.884   4.627 -0.5578 -0.2016  0.8316
  998MOL0     O31628  -1.112   8.911   4.514  0.1404  0.0402  0.0286
  998MOL0     C31629  -1.244   8.956   4.539 -0.4002  0.7527 -0.7342
  998MOL0     C31630  -1.301   9.001   4.661 -0.6914  0.5238  0.4908
  998MOL0     C31631  -1.438   9.024   4.661 -0.1821 -0.4422  0.8451
  998MOL0     C31632  -1.515   9.023   4.538 -0.6383 -0.3981 -0.2792
  998MOL0     C31633  -1.661   9.039   4.545  0.3605 -0.7005 -0.6525
  998MOL0     O31634  -1.731   8.992   4.439 -0.7698 -0.2246  0.9828
  998MOL0     C31635  -1.867   8.993   4.450 -0.0656  0.2457  0.9149
  998MOL0     C31636  -1.946   9.100   4.391 -1.2785 -0.1656  0.0269
  998MOL0     C31637  -2.085   9.096   4.380  0.7306  0.4471 -0.7257
  998MOL0     C31638  -2.147   8.989   4.446  0.1515 -0.7278  0.5836
  998MOL0     O31639  -2.283   8.994   4.441 -0.7348 -0.6852 -0.2684
  998MOL0     C31640  -2.350   9.049   4.555 -0.1149  0.0951 -0.2349
  998MOL0     C31641  -2.403   8.940   4.651  0.3373 -0.4988 -0.5165
  998MOL0     C31642  -2.531   8.869   4.622 -0.6120  0.4237  0.0943
  998MOL0     C31643  -2.585   8.794   4.744 -0.1294  0.3166 -0.5390
  998MOL0     C31644  -2.696   8.697   4.696  0.2291 -0.4343  0.7935
  998MOL0     C31645  -2.827   8.751   4.637 -0.3992 -0.3856  0.8017
  998MOL0     C31646  -2.942   8.647   4.640  0.1670  0.2402 -0.5146
  998MOL0     C31647  -3.041   8.686   4.529  0.8831  0.1662  0.5134
  998MOL0    Cl31648  -3.207   8.604   4.556  0.3670  0.3804 -0.1176
  998MOL0     C31649  -2.075   8.879   4.506 -0.3112  0.2011  0.1117
  998MOL0     C31650  -1.933   8.887   4.508 -0.3138  0.2942  0.1629
  998MOL0     O31651  -1.707   9.090   4.652 -0.0483 -0.7302 -0.4406
  998MOL0     C31652  -1.452   8.994   4.421 -0.1202 -0.3357 -0.4627
  998MOL0     C31653  -1.324   8.959   4.424 -0.2837 -0.5927 -0.2918
  998MOL0     N31654  -0.555   9.187   4.623 -0.3952  0.0438  0.0811
  998MOL0     N31655  -0.508   9.303   4.589 -0.2245 -0.5398  0.3477
  998MOL0     C31656   0.173   9.609   3.485  0.1500  0.0762 -0.3883
  998MOL0     C31657   0.300   9.665   3.483  0.2792 -0.0482 -0.1744
  998MOL0     C31658   0.668   9.804   3.732 -1.1313  0.5244 -0.0752
  998MOL0     C31659   0.691   9.891   3.844  0.0498 -0.5619 -0.0896
  998MOL0     C31660   0.817   9.908   3.900  1.1534 -0.2587 -1.3202
  998MOL0     C31661   0.926   9.827   3.862  0.6197 -0.5958  0.9910
  998MOL0     O31662   1.048   9.850   3.911  0.2296 -0.1672 -0.2778
  998MOL0     C31663   1.081   9.977   3.973  0.3794 -0.3370  0.5392
  998MOL0     C31664   1.228  10.004   3.979 -0.0257 -0.3689  0.3323
  998MOL0     C31665   1.313   9.879   4.002 -0.3028  0.3722 -0.4412
  998MOL0     C31666   1.455   9.912   3.945  0.0172  0.4471 -0.6372
  998MOL0     C31667   1.550   9.799   3.975 -0.4816 -0.2468  0.0307
  998MOL0     C31668   1.623   9.715   4.018 -0.2464  0.0838 -0.4312
  998MOL0     C31669   0.917   9.745   3.755  0.4544 -0.4067  0.8033
  998MOL0     C31670   0.786   9.727   3.703  0.1983  0.3321  0.0856
  998MOL0     H31671   0.427   9.558   3.768 -0.1900 -0.9868 -0.2447
  998MOL0     H31672   0.190   9.462   3.804 -2.8523  1.5612  0.8829
  998MOL0     H31673  -0.178   9.504   3.558  1.5153 -1.8591 -2.2756
  998MOL0     H31674  -0.079   9.645   3.521  0.0053  1.5580  0.9096
  998MOL0     H31675  -0.221   9.700   3.730 -1.5049 -1.3822  1.8969
  998MOL0     H31676  -0.056   9.703   3.754  0.9725 -1.8148  0.9643
  998MOL0     H31677  -0.048   9.492   3.869 -0.1452  0.7177 -1.8502
  998MOL0     H31678  -0.207   9.438   3.804  0.3826 -1.0145 -0.2725
  998MOL0     H31679  -0.173   9.672   3.991 -1.9716  0.0463  1.9233
  998MOL0     H31680  -0.323   9.607   3.939  0.7392  1.7019 -0.3158
  998MOL0     H31681  -0.115   9.471   4.110  0.0808  1.2802  0.2359
  998MOL0     H31682  -0.256   9.378   4.041  0.9535 -1.4144 -0.6643
  998MOL0     H31683  -0.399   9.566   4.162  0.3040 -1.9499  0.2664
  998MOL0     H31684  -0.262   9.579   4.262 -0.2956  1.1619 -1.4239
  998MOL0     H31685  -0.394   9.313   4.205 -0.1805  0.1604  0.7913
  998MOL0     H31686  -0.264   9.328   4.319  0.7695  0.9738  0.6990
  998MOL0     H31687  -0.528   9.482   4.334  1.2975 -2.2571 -3.5512
  998MOL0     H31688  -0.401   9.496   4.443  3.9993 -1.2115 -0.9411
  998MOL0     H31689  -0.610   9.196   4.302 -1.9706 -0.5793  0.5367
  998MOL0     H31690  -0.617   8.934   4.571  1.2871  3.6699  2.9731
  998MOL0     H31691  -0.681   8.964   4.410 -0.1534  0.5789 -0.2103
  998MOL0     H31692  -0.885   9.061   4.492 -2.4466 -0.9496  1.2063
  998MOL0     H31693  -0.815   9.072   4.654 -2.1518  0.7841 -0.6259
  998MOL0     H31694  -0.860   8.802   4.523 -0.6877 -0.7240 -1.3093
  998MOL0     H31695  -0.834   8.840   4.693 -1.6365 -0.1227 -0.3103
  998MOL0     H31696  -1.032   8.966   4.700  0.4963  0.6468 -0.0392
  998MOL0     H31697  -1.057   8.789   4.674 -1.5323 -0.2616  0.1508
  998MOL0     H31698  -1.237   9.002   4.749 -1.1848  1.6906  0.8598
  998MOL0     H31699  -1.480   9.054   4.756 -2.0147  0.3654 -0.1556
  998MOL0     H31700  -1.903   9.186   4.341  2.7776 -1.4641  0.9057
  998MOL0     H31701  -2.147   9.174   4.337  2.0924  1.4266 -0.9474
  998MOL0     H31702  -2.430   9.114   4.519  2.0056  2.0664 -1.6233
  998MOL0     H31703  -2.279   9.116   4.604  2.0490 -0.8233 -1.9406
  998MOL0     H31704  -2.414   8.989   4.749  3.9272 -0.2396 -0.1323
  998MOL0     H31705  -2.318   8.875   4.672  1.1778  0.7482  0.0830
  998MOL0     H31706  -2.500   8.793   4.549 -0.9345  0.9992 -0.6561
  998MOL0     H31707  -2.610   8.931   4.579 -0.7027 -0.0830 -0.4847
  998MOL0     H31708  -2.508   8.740   4.798 -0.9962  0.2990  0.7229
  998MOL0     H31709  -2.636   8.870   4.805  0.7114 -0.0896  0.6934
  998MOL0     H31710  -2.718   8.650   4.792 -0.0514  2.4431  2.2485
  998MOL0     H31711  -2.649   8.629   4.624  0.0405  1.6771 -1.4548
  998MOL0     H31712  -2.809   8.770   4.531  3.4758  0.8166  1.5174
  998MOL0     H31713  -2.866   8.843   4.681 -2.9447 -1.5785  1.2109
  998MOL0     H31714  -2.901   8.547   4.621 -1.5241 -0.3727 -1.1371
  998MOL0     H31715  -2.991   8.630   4.736  2.4958 -0.5875  0.6167
  998MOL0     H31716  -3.004   8.659   4.430  2.3709 -0.6225  1.2503
  998MOL0     H31717  -3.051   8.795   4.533  0.8470  0.1788  0.0861
  998MOL0     H31718  -2.118   8.786   4.543 -1.0302  0.3726 -0.2784
  998MOL0     H31719  -1.871   8.817   4.563 -1.3892  0.8817  2.2053
  998MOL0     H31720  -1.502   8.996   4.324 -0.1286  0.8403 -0.4458
  998MOL0     H31721  -1.289   8.929   4.326 -0.7473 -1.1342 -0.3007
  998MOL0     H31722   0.106   9.613   3.400  0.0332 -0.0162 -0.3004
  998MOL0     H31723   0.341   9.724   3.401  0.0528  0.2023 -0.1099
  998MOL0     H31724   0.607   9.949   3.880 -1.6678 -1.6624 -2.0804
  998MOL0     H31725   0.829   9.982   3.978  2.6753  0.1911 -1.9532
  998MOL0     H31726   1.039   9.970   4.073 -1.0307 -1.2110 -0.0767
  998MOL0     H31727   1.029  10.059   3.922 -0.6462 -0.5827  1.1691
  998MOL0     H31728   1.254  10.049   3.882  5.8728 -1.2541  1.1406
  998MOL0     H31729   1.253  10.081   4.052  0.7940 -0.9980  0.7371
  998MOL0     H31730   1.272   9.792   3.950 -0.4620  0.2798 -0.1626
  998MOL0     H31731   1.319   9.858   4.109 -1.2525 -0.8593 -0.5955
  998MOL0     H31732   1.459   9.931   3.837  0.5132 -1.2047 -0.9451
  998MOL0     H31733   1.490  10.000   3.999  2.4058 -1.5513  1.2999
  998MOL0     H31734   1.690   9.642   4.060  2.0684  1.8327 -0.8703
  998MOL0     H31735   1.009   9.707   3.713 -0.6592 -0.4997 -1.7213
  998MOL0     H31736   0.783   9.657   3.620  1.5937 -0.7918  0.9388
  999MOL0     O31737   4.347   2.712  10.023 -0.1130  0.1227 -0.7124
  999MOL0     C31738   4.276   2.811   9.997 -0.7891  0.1956 -1.1596
  999MOL0     O31739   4.320   2.942   9.987  0.5201 -0.1918  0.2087
  999MOL0     C31740   4.452   2.959   9.987  0.0696 -0.4255  1.3105
  999MOL0     C31741   4.519   2.920   9.863  0.1085 -0.0633 -0.2144
  999MOL0     C31742   4.659   2.927   9.858  0.8828 -0.8843  0.3339
  999MOL0     C31743   4.736   2.958   9.962 -1.3879  0.2238 -0.2876
  999MOL0     O31744   4.871   2.932   9.954 -0.3532  0.3515  0.5383
  999MOL0     C31745   4.963   3.015  10.034  0.4232  0.0351 -0.1205
  999MOL0     C31746   5.101   3.038   9.971  0.0403  0.4590  0.8278
  999MOL0     C31747   5.080   3.117   9.841 -0.6031  0.7106  0.3572
  999MOL0     C31748   5.209   3.149   9.766 -0.6345  0.7612  0.3906
  999MOL0     C31749   5.185   3.171   9.615  0.9523 -0.8993  0.9086
  999MOL0     C31750   5.097   3.291   9.585 -0.2892  0.7255  0.1502
  999MOL0     C31751   5.087   3.358   9.452 -0.1107  0.1212  0.6327
  999MOL0     C31752   5.028   3.273   9.350 -0.1809  0.3909 -0.4577
  999MOL0     N31753   5.024   3.342   9.224  0.1339 -0.1618  0.4128
  999MOL0     C31754   4.915   3.394   9.165  0.3847  0.5543 -0.9218
  999MOL0     C31755   4.950   3.439   9.045 -0.0732 -0.1498  0.6226
  999MOL0     C31756   4.855   3.492   8.945 -0.0786 -0.4848 -0.6465
  999MOL0     C31757   4.829   3.643   8.951  0.2721 -0.3147 -0.6656
  999MOL0     C31758   4.747   3.682   8.827 -0.9595  0.3920  0.6222
  999MOL0     C31759   4.715   3.828   8.827 -0.3311 -0.2856  0.5518
  999MOL0     O31760   4.617   3.854   8.726  1.2641  1.0004 -0.0598
  999MOL0     C31761   4.503   3.928   8.751  0.6315 -0.8060 -0.2299
  999MOL0     C31762   4.397   3.885   8.664  0.1635 -0.2430  0.0230
  999MOL0     C31763   4.271   3.944   8.660 -0.2938  0.8858 -0.0618
  999MOL0     C31764   4.240   4.039   8.755  0.0526  0.9921  0.5160
  999MOL0     C31765   4.113   4.106   8.756 -0.3950  0.4265 -0.4413
  999MOL0     O31766   4.005   4.036   8.703 -0.6448 -1.0872 -0.2673
  999MOL0     C31767   3.882   4.095   8.693 -0.0651 -0.4323 -0.2067
  999MOL0     C31768   3.814   4.099   8.567 -0.8019  0.6380 -0.1004
  999MOL0     C31769   3.682   4.143   8.556 -0.6114 -0.3492  0.5749
  999MOL0     C31770   3.610   4.188   8.667  0.0184  0.3740  0.0833
  999MOL0     O31771   3.497   4.265   8.663  0.1818 -0.2677 -0.5317
  999MOL0     C31772   3.491   4.351   8.553  0.1278  0.2740 -0.7483
  999MOL0     C31773   3.375   4.442   8.558  0.1240  0.1531 -0.0469
  999MOL0     C31774   3.244   4.373   8.591  0.4581  0.8978 -0.3490
  999MOL0     C31775   3.131   4.458   8.569 -0.0648  0.3179 -0.0277
  999MOL0     C31776   3.004   4.366   8.570 -0.4236 -0.5637 -0.2580
  999MOL0     C31777   2.890   4.469   8.558 -0.5636 -0.3101  0.5184
  999MOL0     C31778   2.760   4.412   8.607  0.0865  0.1634 -0.4409
  999MOL0     C31779   2.721   4.439   8.749 -0.1330 -0.3242 -0.1836
  999MOL0    Cl31780   2.560   4.381   8.777  0.5748 -0.1587 -0.1704
  999MOL0     C31781   3.673   4.174   8.792  0.5153 -0.1468 -0.4469
  999MOL0     C31782   3.808   4.133   8.800  0.3222  0.1320  0.5414
  999MOL0     O31783   4.115   4.216   8.803 -0.1571  0.1792 -0.3087
  999MOL0     C31784   4.347   4.086   8.846 -0.1568  0.1427  0.4925
  999MOL0     C31785   4.478   4.024   8.842 -0.2521 -0.4649  0.1119
  999MOL0     N31786   5.083   3.403   9.025  0.7443  0.8514  0.2840
  999MOL0     N31787   5.122   3.343   9.127 -0.2146 -0.4244 -0.5794
  999MOL0     C31788   4.671   2.996  10.075 -0.1914 -1.2349  0.0988
  999MOL0     C31789   4.538   2.997  10.090  1.2722 -0.9737  0.0055
  999MOL0     C31790   4.129   2.801   9.998 -0.0190  0.5295 -0.5846
  999MOL0     C31791   4.050   2.907  10.031 -0.5526  0.5136  0.0324
  999MOL0     C31792   3.906   2.895  10.028  0.0968 -0.5748 -0.2033
  999MOL0     C31793   3.850   2.769   9.990 -0.4568 -0.1084  0.8990
  999MOL0     O31794   3.715   2.754   9.965  0.4010  0.5961  0.4520
  999MOL0     C31795   3.615   2.853   9.991 -0.4065  0.6516  0.2256
  999MOL0     C31796   3.502   2.818   9.898 -0.3302  0.6850  0.5894
  999MOL0     C31797   3.416   2.701   9.961  0.4156 -0.2003  0.2925
  999MOL0     C31798   3.300   2.659   9.855 -0.6910 -0.5753 -0.3542
  999MOL0     C31799   3.217   2.560   9.923  1.1019  0.5665  0.2651
  999MOL0     C31800   3.150   2.473   9.979 -0.0400  0.4449 -0.5686
  999MOL0     C31801   3.933   2.666   9.955 -0.5475  0.5686  0.3221
  999MOL0     C31802   4.068   2.680   9.967 -0.8990 -0.3275 -0.4150
  999MOL0     H31803   4.468   2.879   9.777  0.1345 -1.9787  0.6280
  999MOL0     H31804   4.709   2.895   9.767 -0.4569 -3.6172  0.4518
  999MOL0     H31805   4.975   2.958  10.126  0.9741 -0.8768 -0.7467
  999MOL0     H31806   4.915   3.111  10.060 -0.1103 -0.2689  0.0360
  999MOL0     H31807   5.155   2.945   9.954 -1.9625 -1.9950  5.8621
  999MOL0     H31808   5.155   3.101  10.043  0.1461 -0.0742  1.2179
  999MOL0     H31809   5.025   3.210   9.856  0.1275  1.4036 -1.0148
  999MOL0     H31810   5.031   3.046   9.774  2.5808 -2.8814  1.5067
  999MOL0     H31811   5.267   3.231   9.810  1.0082  0.0073 -0.2971
  999MOL0     H31812   5.266   3.056   9.768 -1.0005  0.5171 -0.2521
  999MOL0     H31813   5.141   3.082   9.569  1.7069  0.9037 -3.8592
  999MOL0     H31814   5.287   3.186   9.579 -0.4686  3.1686 -2.1500
  999MOL0     H31815   5.145   3.368   9.647 -0.6385  1.7272 -0.7890
  999MOL0     H31816   4.995   3.272   9.620 -1.3248  1.9976 -1.9477
  999MOL0     H31817   5.016   3.440   9.468 -0.7184 -0.6569  2.1378
  999MOL0     H31818   5.180   3.396   9.408 -0.5613  0.2070 -0.2487
  999MOL0     H31819   4.926   3.247   9.377 -0.1370  0.6953  0.0068
  999MOL0     H31820   5.095   3.187   9.343  0.3361  0.8305 -1.0082
  999MOL0     H31821   4.822   3.386   9.222  1.1102 -0.6689  0.1571
  999MOL0     H31822   4.760   3.439   8.955 -0.4871  0.5150  1.1280
  999MOL0     H31823   4.884   3.469   8.842 -1.9177  1.9294 -1.8045
  999MOL0     H31824   4.924   3.698   8.957  0.3345 -0.5604  1.2273
  999MOL0     H31825   4.780   3.675   9.043  2.1156  3.2529 -0.7338
  999MOL0     H31826   4.799   3.660   8.733 -0.4129  1.6476  0.6123
  999MOL0     H31827   4.656   3.622   8.839 -0.4886 -0.0392  2.2361
  999MOL0     H31828   4.805   3.888   8.811  1.2196 -2.0336  2.1338
  999MOL0     H31829   4.686   3.851   8.930 -0.5992 -0.5635  0.5404
  999MOL0     H31830   4.411   3.809   8.589 -0.0912  0.1790 -0.4599
  999MOL0     H31831   4.190   3.924   8.590 -1.0455  2.2401  0.3814
  999MOL0     H31832   3.870   4.057   8.484 -1.8672  0.9673 -1.0151
  999MOL0     H31833   3.645   4.154   8.454  0.0379  3.6455  0.5837
  999MOL0     H31834   3.481   4.291   8.463 -0.7669 -0.2969 -0.2911
  999MOL0     H31835   3.586   4.404   8.544 -0.7071  1.9821 -0.0099
  999MOL0     H31836   3.368   4.495   8.463  2.0971  2.6210  1.0699
  999MOL0     H31837   3.380   4.514   8.640 -1.8107 -0.4436  0.6458
  999MOL0     H31838   3.238   4.328   8.691  1.4891  0.2959 -0.5410
  999MOL0     H31839   3.246   4.290   8.520  5.7430 -0.1669  0.5897
  999MOL0     H31840   3.130   4.539   8.642  2.3989  0.7693 -0.4102
  999MOL0     H31841   3.145   4.504   8.470  0.0938  0.5054  0.0807
  999MOL0     H31842   2.998   4.328   8.673 -0.9905  0.6237  0.1707
  999MOL0     H31843   3.000   4.289   8.493  1.2412 -0.5595 -0.3915
  999MOL0     H31844   2.879   4.503   8.455  2.5046  2.3522  0.8931
  999MOL0     H31845   2.910   4.561   8.615  1.4158  0.6728 -1.5624
  999MOL0     H31846   2.680   4.453   8.545  0.0041  1.5970  0.5662
  999MOL0     H31847   2.761   4.307   8.577 -0.5221  1.2446 -4.8421
  999MOL0     H31848   2.715   4.547   8.761 -0.9096 -0.5397  1.8781
  999MOL0     H31849   2.797   4.399   8.816  1.3137  2.3668 -0.0820
  999MOL0     H31850   3.620   4.211   8.880 -0.5595  0.7600 -1.4333
  999MOL0     H31851   3.853   4.118   8.898 -0.2483  0.0702  0.7938
  999MOL0     H31852   4.328   4.158   8.925  1.2908  0.1771  0.8295
  999MOL0     H31853   4.557   4.057   8.908  0.6111  0.9063 -1.5284
  999MOL0     H31854   4.734   3.038  10.153  2.5068  0.3715 -2.7292
  999MOL0     H31855   4.495   3.029  10.184 -3.0554 -1.6212 -1.5349
  999MOL0     H31856   4.097   2.999  10.064  4.4497 -1.3776 -0.9541
  999MOL0     H31857   3.857   2.986  10.061 -1.3916 -1.3507 -0.1821
  999MOL0     H31858   3.644   2.954   9.962 -0.3054 -0.0094 -2.1905
  999MOL0     H31859   3.584   2.848  10.096  0.2948 -1.8431  0.3915
  999MOL0     H31860   3.455   2.915   9.879  2.3914  1.7645 -1.3629
  999MOL0     H31861   3.546   2.787   9.803  0.5075 -1.1023  1.5213
  999MOL0     H31862   3.370   2.728  10.056  0.0712 -1.6449  0.5713
  999MOL0     H31863   3.465   2.606   9.984 -2.5524 -1.9148  0.1255
  999MOL0     H31864   3.236   2.747   9.844  0.8513  0.3119 -2.9938
  999MOL0     H31865   3.342   2.635   9.757 -1.0393 -0.4700 -0.5313
  999MOL0     H31866   3.103   2.385  10.019  3.1806 -1.5865 -0.8631
  999MOL0     H31867   3.882   2.574   9.927  1.3909 -1.4391  2.8628
  999MOL0     H31868   4.127   2.594   9.937 -2.0522 -0.8679 -1.1764
 1000MOL0     O31869  10.560   4.708   3.076  0.0585 -0.6132 -1.4471
 1000MOL0     C31870  10.596   4.826   3.096 -0.8804 -0.6897  0.6993
 1000MOL0     O31871  10.503   4.921   3.137  0.1547 -0.0779  0.9683
 1000MOL0     C31872  10.367   4.894   3.146  0.2066  0.3971 -0.8248
 1000MOL0     C31873  10.315   4.947   3.264  0.0683 -0.5057 -0.4436
 1000MOL0     C31874  10.184   4.920   3.289  0.7760 -0.6992 -0.2640
 1000MOL0     C31875  10.102   4.843   3.201 -0.4658 -0.8113 -0.7872
 1000MOL0     O31876   9.985   4.792   3.249  1.1042  0.2123 -0.9025
 1000MOL0     C31877   9.865   4.784   3.165 -0.2533 -0.2814 -0.0765
 1000MOL0     C31878   9.739   4.732   3.247 -0.6351  0.5531 -0.1509
 1000MOL0     C31879   9.633   4.699   3.143  0.0276 -0.1632  0.1140
 1000MOL0     C31880   9.520   4.606   3.199  0.4471 -0.2961 -0.7615
 1000MOL0     C31881   9.420   4.555   3.096 -0.3309  0.1864  0.5349
 1000MOL0     C31882   9.325   4.443   3.153  0.4160  0.1669  0.3619
 1000MOL0     C31883   9.232   4.486   3.272 -0.1843 -0.5583  0.7396
 1000MOL0     C31884   9.126   4.594   3.235 -0.3572 -0.0261 -0.1582
 1000MOL0     N31885   9.061   4.645   3.356 -1.0017 -0.5982  0.4086
 1000MOL0     C31886   9.118   4.724   3.454  0.0739  0.0313  0.5869
 1000MOL0     C31887   9.012   4.761   3.529 -0.7245 -0.1053 -0.4939
 1000MOL0     C31888   9.009   4.855   3.640 -0.3657  0.0554 -1.1089
 1000MOL0     C31889   8.947   4.786   3.758 -0.0607  0.6027  0.1745
 1000MOL0     C31890   8.940   4.886   3.879  0.0170 -0.3854  1.0505
 1000MOL0     C31891   8.865   4.836   3.997  0.4193  0.5772 -0.7993
 1000MOL0     O31892   8.722   4.807   3.971 -0.0854 -0.2244  0.0558
 1000MOL0     C31893   8.628   4.900   3.990 -0.3193  0.5889  0.2592
 1000MOL0     C31894   8.493   4.862   3.989 -0.3669 -0.7437 -0.2215
 1000MOL0     C31895   8.392   4.963   3.989 -0.2737 -0.3872  0.1474
 1000MOL0     C31896   8.421   5.106   3.993  0.0486 -0.2665 -0.0166
 1000MOL0     C31897   8.319   5.213   3.974 -0.1728  0.2508  0.6292
 1000MOL0     O31898   8.187   5.176   3.967 -0.1690 -0.1772 -0.3475
 1000MOL0     C31899   8.094   5.277   3.936  0.1225 -0.1255 -0.5586
 1000MOL0     C31900   8.005   5.321   4.029  0.6456  0.2364  0.1283
 1000MOL0     C31901   7.913   5.426   4.011  0.7608 -0.0315  0.1878
 1000MOL0     C31902   7.909   5.493   3.889 -0.8613  0.6709  0.2426
 1000MOL0     O31903   7.829   5.597   3.854  0.5855  0.4644 -0.0510
 1000MOL0     C31904   7.724   5.631   3.942  0.2676  1.1549  0.2462
 1000MOL0     C31905   7.636   5.737   3.865 -0.0235  1.7018 -0.1382
 1000MOL0     C31906   7.500   5.743   3.928  0.3886 -0.1722  0.0707
 1000MOL0     C31907   7.404   5.627   3.884 -0.2544 -0.1425 -0.5978
 1000MOL0     C31908   7.293   5.625   3.992 -0.5280  0.4937  0.3056
 1000MOL0     C31909   7.181   5.533   3.942 -0.4605 -0.4538  0.2361
 1000MOL0     C31910   7.068   5.513   4.044 -0.3969  0.0686 -0.0611
 1000MOL0     C31911   6.945   5.450   3.985  0.0646 -0.6382  0.4173
 1000MOL0    Cl31912   6.846   5.370   4.105  0.2161  0.2719 -0.1143
 1000MOL0     C31913   8.011   5.453   3.795  0.2773 -0.4619 -0.4986
 1000MOL0     C31914   8.093   5.343   3.812 -0.0289 -0.7328  0.2070
 1000MOL0     O31915   8.368   5.325   3.950 -0.4761 -0.3359 -0.2302
 1000MOL0     C31916   8.555   5.137   4.023 -0.0900 -0.0318 -0.8795
 1000MOL0     C31917   8.658   5.034   4.020 -0.3747 -0.7789 -0.0656
 1000MOL0     N31918   8.900   4.696   3.492 -0.4274  0.1410  0.7019
 1000MOL0     N31919   8.932   4.620   3.392 -0.2820  0.2371  0.5073
 1000MOL0     C31920  10.156   4.801   3.080  0.0054  0.1299  0.4183
 1000MOL0     C31921  10.289   4.824   3.056  0.7977  0.6604  0.6547
 1000MOL0     C31922  10.742   4.859   3.081 -0.2313 -0.0206 -0.0377
 1000MOL0     C31923  10.798   4.982   3.110 -0.3305  0.0022  0.0243
 1000MOL0     C31924  10.933   5.017   3.096  0.0477  0.3223 -0.2751
 1000MOL0     C31925  11.025   4.929   3.039 -0.3462  0.0727  0.2223
 1000MOL0     O31926  11.159   4.957   3.008  0.2491 -0.1013  0.2312
 1000MOL0     C31927  11.213   5.082   3.036  0.4927  0.5207 -0.2312
 1000MOL0     C31928  11.366   5.068   3.010 -0.8696 -0.4731  0.5257
 1000MOL0     C31929  11.417   5.020   2.875  0.2848  0.3036  0.6929
 1000MOL0     C31930  11.401   5.123   2.758 -0.3652  0.1806 -0.6992
 1000MOL0     C31931  11.515   5.213   2.765 -0.9131  0.4327 -0.1942
 1000MOL0     C31932  11.597   5.305   2.755 -0.1991 -0.4060  0.1176
 1000MOL0     C31933  10.973   4.796   3.005 -0.7072 -0.4217  0.2908
 1000MOL0     C31934  10.837   4.758   3.038  0.0538 -0.3355 -0.3482
 1000MOL0     H31935  10.372   5.011   3.330 -1.9252  1.0340 -0.1053
 1000MOL0     H31936  10.148   4.951   3.387  0.0163  2.3175 -1.3836
 1000MOL0     H31937   9.886   4.712   3.086  1.7582 -0.6341  0.7186
 1000MOL0     H31938   9.846   4.885   3.127 -0.2981 -0.2529  0.0200
 1000MOL0     H31939   9.694   4.809   3.312 -0.0080 -0.0552  1.0357
 1000MOL0     H31940   9.775   4.648   3.307 -0.7333 -0.4092 -1.4086
 1000MOL0     H31941   9.669   4.639   3.059 -5.7970 -3.4980 -0.5292
 1000MOL0     H31942   9.572   4.782   3.108 -0.2883  0.5442  2.2073
 1000MOL0     H31943   9.573   4.520   3.241  0.6894  0.9096  1.5749
 1000MOL0     H31944   9.475   4.663   3.282 -0.1019 -1.8113  0.0266
 1000MOL0     H31945   9.478   4.514   3.013  1.2549  2.7317  0.2825
 1000MOL0     H31946   9.366   4.642   3.056 -0.1169  1.3292  2.5861
 1000MOL0     H31947   9.392   4.364   3.189 -2.7898 -2.8267  0.3179
 1000MOL0     H31948   9.260   4.410   3.071 -0.3287  1.3682  0.4307
 1000MOL0     H31949   9.185   4.399   3.320  1.3500 -0.8349  1.8332
 1000MOL0     H31950   9.301   4.516   3.352  0.3354 -0.3856  0.2371
 1000MOL0     H31951   9.052   4.545   3.172  0.8088 -2.2436  0.0885
 1000MOL0     H31952   9.191   4.670   3.190  1.1805  0.7229  3.0583
 1000MOL0     H31953   9.218   4.765   3.449  1.2520 -2.6830 -1.3073
 1000MOL0     H31954   8.950   4.943   3.612  0.0225 -0.2450 -3.0573
 1000MOL0     H31955   9.112   4.885   3.664 -1.1532  0.3685  2.3145
 1000MOL0     H31956   8.998   4.694   3.790 -1.4584 -0.2830 -0.0529
 1000MOL0     H31957   8.848   4.750   3.730  0.7409  0.0815 -2.2200
 1000MOL0     H31958   9.044   4.902   3.907  0.7490  0.7137 -1.8742
 1000MOL0     H31959   8.904   4.982   3.839  1.7245  1.0065  2.6854
 1000MOL0     H31960   8.862   4.894   4.090 -0.3950  0.1760 -0.5646
 1000MOL0     H31961   8.901   4.736   4.024  0.0459  0.4957 -0.5819
 1000MOL0     H31962   8.460   4.760   3.975 -1.4580 -0.3107 -0.8795
 1000MOL0     H31963   8.296   4.915   3.972  1.0109 -2.7035 -0.9891
 1000MOL0     H31964   8.014   5.262   4.120  1.1034  1.1597  0.7065
 1000MOL0     H31965   7.845   5.449   4.092  0.8670  1.3304 -0.0692
 1000MOL0     H31966   7.762   5.656   4.042 -0.8957 -0.5130  1.1559
 1000MOL0     H31967   7.664   5.542   3.961 -1.4336  1.8140 -1.6889
 1000MOL0     H31968   7.638   5.719   3.758 -1.5777  0.6724 -0.0227
 1000MOL0     H31969   7.675   5.834   3.898  0.6496  1.5860 -0.5693
 1000MOL0     H31970   7.466   5.846   3.916  2.9069  0.6820 -0.3401
 1000MOL0     H31971   7.523   5.726   4.034  1.7096  1.5696  0.1026
 1000MOL0     H31972   7.366   5.631   3.781 -2.2747  0.7735  0.1318
 1000MOL0     H31973   7.465   5.538   3.900  2.2218  1.8264  1.8170
 1000MOL0     H31974   7.257   5.725   4.015 -0.2210  0.8229 -0.6128
 1000MOL0     H31975   7.332   5.571   4.078 -1.3547 -1.1327 -0.2829
 1000MOL0     H31976   7.215   5.431   3.920  3.2892  0.3065  1.6944
 1000MOL0     H31977   7.138   5.588   3.858 -0.1903  2.2607  1.7611
 1000MOL0     H31978   7.106   5.442   4.118 -1.1301 -1.1660 -0.8425
 1000MOL0     H31979   7.042   5.610   4.088 -0.6043  0.1401 -0.3361
 1000MOL0     H31980   6.974   5.385   3.902 -0.2421  0.2139 -0.3814
 1000MOL0     H31981   6.888   5.536   3.949  1.1570 -0.2434 -0.4553
 1000MOL0     H31982   8.011   5.508   3.702 -1.5077  1.4298  0.5197
 1000MOL0     H31983   8.164   5.312   3.735  0.5321  3.6053 -1.3088
 1000MOL0     H31984   8.579   5.243   4.033 -4.9355  1.1921  0.4493
 1000MOL0     H31985   8.752   5.073   4.057 -0.3066 -2.1733  1.3187
 1000MOL0     H31986  10.099   4.737   3.013 -0.0136  1.1226 -0.5335
 1000MOL0     H31987  10.327   4.797   2.959  0.0168 -4.0415  1.4254
 1000MOL0     H31988  10.732   5.053   3.159  2.1925  1.0715  2.0766
 1000MOL0     H31989  10.962   5.118   3.124 -1.0548  0.2320  1.3562
 1000MOL0     H31990  11.188   5.100   3.141 -4.3619 -0.7008 -0.9359
 1000MOL0     H31991  11.167   5.167   2.984  0.4790 -0.8961 -2.7325
 1000MOL0     H31992  11.422   5.162   3.016 -0.0801 -0.5132 -3.5825
 1000MOL0     H31993  11.403   5.007   3.094 -1.3852 -0.0944  1.0413
 1000MOL0     H31994  11.357   4.940   2.832 -2.0009  2.2432  0.0834
 1000MOL0     H31995  11.521   4.993   2.895  0.1944  0.3109  1.1878
 1000MOL0     H31996  11.412   5.068   2.664  1.7596  0.8930 -0.9308
 1000MOL0     H31997  11.307   5.179   2.768  1.0093  2.2432  2.1137
 1000MOL0     H31998  11.646   5.400   2.759 -2.3394  0.7636  0.2899
 1000MOL0     H31999  11.042   4.731   2.952 -0.0728  1.1855 -0.9625
 1000MOL0     H32000  10.811   4.652   3.036 -2.5652  0.2306 -1.8389
 1001MOL0     O32001   9.485   8.123  10.368 -0.0503  0.0598 -0.5578
 1001MOL0     C32002   9.481   8.064  10.476  0.0590 -0.1984 -0.2045
 1001MOL0     O32003   9.411   7.952  10.507  0.4891 -0.5724 -0.2661
 1001MOL0     C32004   9.296   7.914  10.444  0.5265 -0.0290 -0.3911
 1001MOL0     C32005   9.201   8.006  10.391  1.3440  0.8464  0.0287
 1001MOL0     C32006   9.086   7.950  10.337 -0.7126  0.8940  0.3673
 1001MOL0     C32007   9.073   7.808  10.330  0.2180  0.0503  0.4595
 1001MOL0     O32008   8.959   7.759  10.272 -0.0824 -0.5238 -0.1636
 1001MOL0     C32009   8.966   7.629  10.215 -0.3012 -0.1223  0.7191
 1001MOL0     C32010   8.866   7.540  10.283  0.3090  0.2857  1.0707
 1001MOL0     C32011   8.722   7.599  10.277  0.1470 -0.0570 -0.8745
 1001MOL0     C32012   8.664   7.615  10.135 -0.1798 -0.4431  1.6763
 1001MOL0     C32013   8.510   7.637  10.123 -0.8429  0.1100 -0.1755
 1001MOL0     C32014   8.428   7.511  10.137 -0.2149  0.6078  0.9091
 1001MOL0     C32015   8.286   7.539  10.088  0.5151  0.7313  0.5993
 1001MOL0     C32016   8.198   7.416  10.097 -0.0794 -0.4878  0.0642
 1001MOL0     N32017   8.053   7.451  10.075  0.0645  0.1079  1.1775
 1001MOL0     C32018   7.980   7.423   9.955  0.2170 -0.3274  1.2122
 1001MOL0     C32019   7.854   7.465   9.971 -1.0433 -0.5228  0.2733
 1001MOL0     C32020   7.760   7.506   9.869 -0.6670 -0.3435  0.4311
 1001MOL0     C32021   7.618   7.516   9.926 -0.0082  0.0934  0.2244
 1001MOL0     C32022   7.522   7.577   9.828 -0.1008 -0.2537 -0.4149
 1001MOL0     C32023   7.384   7.611   9.894  0.3437 -0.3195 -0.0848
 1001MOL0     O32024   7.348   7.517   9.994  0.1018 -0.2686 -0.0691
 1001MOL0     C32025   7.260   7.563  10.089  0.1047 -0.1753  0.3639
 1001MOL0     C32026   7.298   7.537  10.221  1.0509  1.0597  0.4891
 1001MOL0     C32027   7.207   7.572  10.329  0.0878  0.1204  0.5298
 1001MOL0     C32028   7.086   7.638  10.304 -0.9388  0.2040  0.3124
 1001MOL0     C32029   6.997   7.673  10.419  1.0108 -0.4208  0.0623
 1001MOL0     O32030   6.888   7.760  10.411  0.4850  1.1964  0.2266
 1001MOL0     C32031   6.829   7.780  10.534  0.2866  0.1718  0.8835
 1001MOL0     C32032   6.737   7.687  10.585  0.0777  0.4705  0.3927
 1001MOL0     C32033   6.656   7.715  10.696 -0.5309 -0.1554 -0.3194
 1001MOL0     C32034   6.661   7.841  10.749  0.2245  0.5879  0.2332
 1001MOL0     O32035   6.566   7.872  10.845 -0.4889 -0.1821  0.0609
 1001MOL0     C32036   6.489   7.997  10.821  0.3806  0.2969 -0.2507
 1001MOL0     C32037   6.349   7.974  10.857  0.4453  0.0929 -0.1234
 1001MOL0     C32038   6.259   8.105  10.822  1.0953  0.5000 -0.1456
 1001MOL0     C32039   6.111   8.072  10.849 -1.1531 -0.3910  0.5024
 1001MOL0     C32040   6.011   8.140  10.762 -0.3365 -0.7110  0.3541
 1001MOL0     C32041   5.870   8.135  10.813  1.2910 -0.2301 -0.3420
 1001MOL0     C32042   5.830   7.991  10.865  0.1034  0.4798  0.7275
 1001MOL0     C32043   5.689   8.005  10.924  0.4020 -0.4595  0.3407
 1001MOL0    Cl32044   5.583   8.058  10.797  0.0044 -0.2419  0.1832
 1001MOL0     C32045   6.743   7.938  10.693  0.3727  0.3843 -0.2584
 1001MOL0     C32046   6.826   7.910  10.589  0.6127  0.2204  0.6311
 1001MOL0     O32047   7.037   7.617  10.522 -0.2432  0.4192 -0.1399
 1001MOL0     C32048   7.060   7.679  10.171  0.1964  0.0821 -0.1018
 1001MOL0     C32049   7.146   7.636  10.075 -0.9092 -0.9803  0.1834
 1001MOL0     N32050   7.850   7.520  10.102  0.3170  0.5638  0.0508
 1001MOL0     N32051   7.966   7.503  10.162 -0.2432 -0.1963 -0.5082
 1001MOL0     C32052   9.161   7.723  10.397 -0.9699  1.1230 -0.1816
 1001MOL0     C32053   9.274   7.780  10.451 -0.2733 -0.1136 -0.1269
 1001MOL0     C32054   9.571   8.114  10.582  0.3713 -0.0244  0.1093
 1001MOL0     C32055   9.642   8.232  10.572 -0.1013  0.2528  0.3774
 1001MOL0     C32056   9.719   8.277  10.680 -0.6278  0.4265 -0.4725
 1001MOL0     C32057   9.717   8.208  10.806  0.4567 -0.5978 -0.3374
 1001MOL0     O32058   9.803   8.255  10.907 -0.4914  0.1078 -0.6924
 1001MOL0     C32059   9.815   8.200  11.040  0.0401  0.3453 -0.7840
 1001MOL0     C32060   9.934   8.246  11.115 -0.3526 -0.7603  0.0403
 1001MOL0     C32061   9.926   8.215  11.266  0.3857 -0.0937  0.2403
 1001MOL0     C32062  10.060   8.259  11.332 -0.3965 -0.1453  0.0885
 1001MOL0     C32063  10.186   8.199  11.281  0.5102  0.4532  0.0836
 1001MOL0     C32064  10.286   8.138  11.245  0.2050 -0.4441 -0.2404
 1001MOL0     C32065   9.634   8.102  10.826 -0.1205  0.3584  0.2182
 1001MOL0     C32066   9.572   8.051  10.713  0.3510 -0.2916 -0.2925
 1001MOL0     H32067   9.199   8.115  10.395 -2.3832  0.8985  0.5773
 1001MOL0     H32068   9.007   8.013  10.297 -0.7788 -0.3823 -1.7044
 1001MOL0     H32069   9.067   7.588  10.223 -0.8926 -2.1215 -1.0650
 1001MOL0     H32070   8.954   7.650  10.109 -2.0817  1.5135  1.1832
 1001MOL0     H32071   8.892   7.527  10.389  1.7750 -0.3743  0.6575
 1001MOL0     H32072   8.870   7.435  10.250  2.2726  1.1919 -1.8782
 1001MOL0     H32073   8.718   7.688  10.340  1.0623 -0.6345  0.0171
 1001MOL0     H32074   8.652   7.527  10.320 -1.7925  1.2846 -1.6128
 1001MOL0     H32075   8.710   7.698  10.081 -3.1125 -1.1086 -2.2386
 1001MOL0     H32076   8.692   7.520  10.088  2.9783  0.8456  0.7209
 1001MOL0     H32077   8.501   7.680  10.022  2.3793  0.5208 -0.4218
 1001MOL0     H32078   8.474   7.715  10.191 -0.1540 -0.6389  1.0873
 1001MOL0     H32079   8.433   7.492  10.245  1.9352  0.4569  0.8320
 1001MOL0     H32080   8.469   7.430  10.076  0.8834  3.1447 -1.9765
 1001MOL0     H32081   8.244   7.625  10.141  0.9394  0.9982  0.5048
 1001MOL0     H32082   8.297   7.561   9.982 -1.1408  1.6403  0.5943
 1001MOL0     H32083   8.203   7.372  10.197 -1.8486  0.1362  0.4753
 1001MOL0     H32084   8.222   7.339  10.024  1.8385 -0.3852  0.5393
 1001MOL0     H32085   8.015   7.376   9.863 -0.3605 -1.8838  1.7508
 1001MOL0     H32086   7.764   7.439   9.783  0.8153  1.4290 -0.9639
 1001MOL0     H32087   7.788   7.607   9.837  0.7462 -0.8769 -0.1026
 1001MOL0     H32088   7.610   7.558  10.027  3.4124  2.1200 -0.1787
 1001MOL0     H32089   7.595   7.409   9.933  0.8052 -0.0566  0.7034
 1001MOL0     H32090   7.568   7.665   9.782 -2.9473  1.1543 -0.8211
 1001MOL0     H32091   7.511   7.499   9.753  3.0672 -1.6548  0.4173
 1001MOL0     H32092   7.306   7.611   9.817  0.2047  2.2840 -0.0453
 1001MOL0     H32093   7.367   7.710   9.938  1.6851  1.6199 -3.4581
 1001MOL0     H32094   7.387   7.476  10.238  0.3705  0.4491  2.1320
 1001MOL0     H32095   7.242   7.543  10.428 -1.9803 -0.4125  1.1646
 1001MOL0     H32096   6.733   7.599  10.522 -1.9355  1.6825 -1.2898
 1001MOL0     H32097   6.600   7.643  10.754  0.5505 -1.6239 -1.0140
 1001MOL0     H32098   6.487   8.038  10.719 -0.3442 -0.1941 -0.4427
 1001MOL0     H32099   6.518   8.070  10.896 -0.2176  0.0879  0.1878
 1001MOL0     H32100   6.345   7.961  10.965  2.2026  0.7269  0.0393
 1001MOL0     H32101   6.299   7.893  10.802  0.5111  0.1461 -0.2642
 1001MOL0     H32102   6.266   8.129  10.715 -0.5901  2.3828  0.1057
 1001MOL0     H32103   6.285   8.191  10.885 -1.8171  1.4726 -0.1020
 1001MOL0     H32104   6.095   7.964  10.844 -2.8547 -0.3559  3.1281
 1001MOL0     H32105   6.092   8.103  10.952 -1.6181 -0.6731  0.5041
 1001MOL0     H32106   6.010   8.082  10.670 -1.1384 -4.2812  2.4252
 1001MOL0     H32107   6.036   8.245  10.742  0.9413 -1.3835 -1.8665
 1001MOL0     H32108   5.801   8.171  10.737  1.6034  0.4786 -0.3028
 1001MOL0     H32109   5.850   8.206  10.894 -1.9607 -0.1904 -1.0647
 1001MOL0     H32110   5.834   7.926  10.777  1.3941 -1.5974  2.2336
 1001MOL0     H32111   5.897   7.953  10.942  0.0004 -0.2262  0.4733
 1001MOL0     H32112   5.692   8.082  11.002 -0.2096 -0.1455  0.0589
 1001MOL0     H32113   5.656   7.908  10.961  3.0347 -0.6019  2.6659
 1001MOL0     H32114   6.739   8.041  10.728 -2.8321  0.5413 -0.8002
 1001MOL0     H32115   6.876   7.991  10.537 -1.0217 -0.7821 -2.7961
 1001MOL0     H32116   6.980   7.742  10.135  0.5569  0.0363 -1.0123
 1001MOL0     H32117   7.108   7.658   9.975  0.4777 -2.1111 -0.6166
 1001MOL0     H32118   9.149   7.617  10.419  1.1345  1.0443  0.8373
 1001MOL0     H32119   9.340   7.710  10.501 -0.8952 -0.4553  0.2327
 1001MOL0     H32120   9.637   8.294  10.483  0.8569  0.5578  0.5296
 1001MOL0     H32121   9.786   8.361  10.666  0.0901 -0.0506  0.0343
 1001MOL0     H32122   9.818   8.091  11.035  0.0622  0.3864 -2.7296
 1001MOL0     H32123   9.727   8.238  11.092  1.3112  3.9272 -0.9454
 1001MOL0     H32124  10.024   8.197  11.076  0.5683  0.7317  0.2248
 1001MOL0     H32125   9.942   8.354  11.103 -0.0910 -0.6596  1.0261
 1001MOL0     H32126   9.916   8.106  11.273  1.8654 -0.3833 -1.4042
 1001MOL0     H32127   9.844   8.267  11.317  0.8793 -0.5727  1.5622
 1001MOL0     H32128  10.062   8.368  11.328  1.1354 -0.1767 -0.5046
 1001MOL0     H32129  10.055   8.237  11.439  2.2544  0.6245  0.4241
 1001MOL0     H32130  10.383   8.108  11.213  0.2515  0.7785 -1.3081
 1001MOL0     H32131   9.630   8.045  10.918 -1.0413  1.9680  1.2234
 1001MOL0     H32132   9.517   7.958  10.724 -0.6049  0.1696 -1.0045
 1002MOL0     O32133   5.380   8.410   2.739  0.1073  0.2952  0.3983
 1002MOL0     C32134   5.476   8.346   2.704  0.8090  0.3393 -0.1055
 1002MOL0     O32135   5.471   8.226   2.644  0.1846  0.2599  0.6219
 1002MOL0     C32136   5.354   8.173   2.593  0.0898  0.5246 -0.2910
 1002MOL0     C32137   5.344   8.103   2.474 -0.0661 -0.1015  0.3209
 1002MOL0     C32138   5.224   8.045   2.426 -0.1543 -0.1742  0.5747
 1002MOL0     C32139   5.103   8.071   2.495 -0.6301 -0.7886  0.8362
 1002MOL0     O32140   4.986   8.053   2.421 -0.4385  0.3254 -0.3223
 1002MOL0     C32141   4.857   8.048   2.483  0.3633  0.7818  0.1126
 1002MOL0     C32142   4.738   8.025   2.388 -0.4269  0.1351  0.9752
 1002MOL0     C32143   4.607   8.046   2.471  0.3324 -0.6039 -0.6694
 1002MOL0     C32144   4.489   8.022   2.371 -0.0205 -0.1003 -0.4654
 1002MOL0     C32145   4.352   8.021   2.449 -0.9443 -0.1631  0.6848
 1002MOL0     C32146   4.240   8.021   2.347 -0.0874  0.7700  0.6360
 1002MOL0     C32147   4.098   8.003   2.406  0.8165  0.5096 -0.1116
 1002MOL0     C32148   4.062   8.111   2.507 -0.7592 -0.5314  0.0241
 1002MOL0     N32149   3.926   8.085   2.545  0.1140  1.1398 -0.3484
 1002MOL0     C32150   3.816   8.114   2.470 -0.6847  0.6392 -0.5781
 1002MOL0     C32151   3.725   8.024   2.491  0.1637 -0.2058 -0.1280
 1002MOL0     C32152   3.593   8.017   2.426  0.7480 -0.1275 -0.2355
 1002MOL0     C32153   3.475   8.040   2.521 -1.3101  0.5212 -0.3890
 1002MOL0     C32154   3.484   8.170   2.616 -0.0386 -0.4993  0.8451
 1002MOL0     C32155   3.346   8.219   2.666  0.6699  0.2750  0.6884
 1002MOL0     O32156   3.268   8.111   2.721 -0.1363  0.4943  0.5316
 1002MOL0     C32157   3.160   8.141   2.796  0.3980  0.5708  0.9308
 1002MOL0     C32158   3.126   8.259   2.861  0.0829  0.1964 -0.9419
 1002MOL0     C32159   3.020   8.272   2.945  1.3227 -0.7577  0.5553
 1002MOL0     C32160   2.939   8.163   2.978 -0.2212 -0.4318  0.3826
 1002MOL0     C32161   2.829   8.174   3.081  0.5756  0.6944 -0.2241
 1002MOL0     O32162   2.822   8.289   3.146  0.0534 -0.1406  0.5405
 1002MOL0     C32163   2.705   8.319   3.203  0.5469  0.4086  0.5026
 1002MOL0     C32164   2.691   8.301   3.341 -0.2201 -0.0406  0.1235
 1002MOL0     C32165   2.572   8.342   3.405  0.6771 -0.3036 -0.4440
 1002MOL0     C32166   2.463   8.395   3.330  0.7883  0.6410 -0.0374
 1002MOL0     O32167   2.345   8.443   3.387  0.2419  0.7010 -0.3093
 1002MOL0     C32168   2.345   8.433   3.534  0.2315 -0.5766 -0.1267
 1002MOL0     C32169   2.223   8.495   3.587 -0.3131  0.2905 -0.4995
 1002MOL0     C32170   2.096   8.412   3.546 -0.4955 -0.1193 -0.0882
 1002MOL0     C32171   1.971   8.449   3.631  0.5106  0.6455  0.2695
 1002MOL0     C32172   1.850   8.361   3.601  0.8906  0.0316  0.2352
 1002MOL0     C32173   1.718   8.410   3.667 -0.5199 -0.3177  0.1553
 1002MOL0     C32174   1.616   8.295   3.684  0.6061 -0.2791 -0.4242
 1002MOL0     C32175   1.635   8.238   3.822 -0.0940  0.2310 -0.6292
 1002MOL0    Cl32176   1.562   8.076   3.829  0.1413 -0.1966 -0.3385
 1002MOL0     C32177   2.481   8.406   3.191  0.4303  0.4207 -0.7333
 1002MOL0     C32178   2.600   8.369   3.128  1.0223 -0.1753 -0.4677
 1002MOL0     O32179   2.761   8.078   3.103 -0.7274 -0.2741 -0.0815
 1002MOL0     C32180   2.969   8.043   2.911  0.5131 -0.2571  1.1304
 1002MOL0     C32181   3.078   8.034   2.827  0.1375  0.2647  0.6183
 1002MOL0     N32182   3.766   7.942   2.591 -0.1551 -0.1082 -0.2490
 1002MOL0     N32183   3.888   7.981   2.626  0.2162  0.1229  1.2784
 1002MOL0     C32184   5.107   8.139   2.617 -0.2371  0.4498 -0.4009
 1002MOL0     C32185   5.232   8.182   2.666  0.5780  0.3581 -0.7315
 1002MOL0     C32186   5.606   8.411   2.715  0.2262  0.3538  0.8688
 1002MOL0     C32187   5.709   8.328   2.739 -0.6480 -0.7164 -0.2727
 1002MOL0     C32188   5.831   8.391   2.754 -0.4069 -0.7265  0.2424
 1002MOL0     C32189   5.855   8.527   2.758  0.3812 -0.0865 -0.1221
 1002MOL0     O32190   5.984   8.569   2.776 -0.0074 -0.2477 -0.0458
 1002MOL0     C32191   6.005   8.711   2.794 -0.0690  0.5184 -0.4075
 1002MOL0     C32192   5.952   8.758   2.941 -0.8038  0.1884  0.3577
 1002MOL0     C32193   6.005   8.676   3.055 -0.1117  0.3976 -0.4118
 1002MOL0     C32194   5.965   8.732   3.196  0.4303 -0.3351  0.5577
 1002MOL0     C32195   5.823   8.751   3.225 -0.0539  0.1966 -0.1687
 1002MOL0     C32196   5.700   8.762   3.245  0.5401  0.9436 -0.3113
 1002MOL0     C32197   5.744   8.610   2.736  0.4823  0.6543  0.7341
 1002MOL0     C32198   5.618   8.553   2.717  0.6563  0.2616  0.7153
 1002MOL0     H32199   5.429   8.090   2.408 -0.0996 -0.0432  0.2657
 1002MOL0     H32200   5.225   7.992   2.332 -1.2502  2.1692 -0.8584
 1002MOL0     H32201   4.848   8.143   2.537 -2.5572  1.9470 -2.1596
 1002MOL0     H32202   4.861   7.973   2.563  1.4738  1.4124  0.6676
 1002MOL0     H32203   4.747   7.922   2.351  1.2007  0.1953  1.1266
 1002MOL0     H32204   4.741   8.093   2.303 -1.4723  1.6963  2.1209
 1002MOL0     H32205   4.606   8.148   2.511  4.6997 -0.3162 -0.9105
 1002MOL0     H32206   4.600   7.976   2.555  0.1907 -0.5628 -0.6459
 1002MOL0     H32207   4.489   8.105   2.300 -0.2757  1.4247  1.2144
 1002MOL0     H32208   4.494   7.928   2.316 -0.0218 -0.3737 -0.0035
 1002MOL0     H32209   4.353   8.109   2.514  0.5383 -0.7721  1.5549
 1002MOL0     H32210   4.359   7.943   2.526  2.6265  0.0269  0.7273
 1002MOL0     H32211   4.277   7.947   2.276 -0.1570  2.0219 -0.7594
 1002MOL0     H32212   4.229   8.114   2.290 -0.1143 -0.2881 -1.1668
 1002MOL0     H32213   4.021   8.006   2.328  0.8704 -3.3417 -0.5166
 1002MOL0     H32214   4.094   7.909   2.462  1.8305  1.2072  1.1854
 1002MOL0     H32215   4.082   8.209   2.462  1.7570 -1.0556 -0.1430
 1002MOL0     H32216   4.121   8.103   2.599 -0.3232  2.1854  0.0600
 1002MOL0     H32217   3.807   8.193   2.396  3.5520  1.7438 -0.1945
 1002MOL0     H32218   3.577   7.919   2.381 -0.6301 -0.9428  1.8935
 1002MOL0     H32219   3.577   8.099   2.355 -0.6815  3.0412  3.4087
 1002MOL0     H32220   3.475   7.948   2.580  1.0296 -0.8207 -2.2760
 1002MOL0     H32221   3.384   8.046   2.461 -1.5091  0.2581 -0.1142
 1002MOL0     H32222   3.543   8.145   2.705  1.3041 -0.4842 -0.0282
 1002MOL0     H32223   3.531   8.256   2.569 -1.0112  0.3881  1.4488
 1002MOL0     H32224   3.299   8.267   2.580  1.6182  1.7540  0.9740
 1002MOL0     H32225   3.366   8.296   2.740 -0.4765  0.2446  1.0517
 1002MOL0     H32226   3.192   8.345   2.852 -0.1808  0.3561 -1.4212
 1002MOL0     H32227   2.998   8.370   2.985 -0.8788 -1.5673  1.5219
 1002MOL0     H32228   2.768   8.247   3.394  1.2190  0.8205 -1.0317
 1002MOL0     H32229   2.567   8.335   3.513 -1.6550 -0.4179 -0.5163
 1002MOL0     H32230   2.432   8.487   3.573 -1.4375  1.6463  0.6984
 1002MOL0     H32231   2.347   8.331   3.575 -0.2838 -0.9365 -0.9687
 1002MOL0     H32232   2.211   8.596   3.547 -0.8323  0.6255  0.4820
 1002MOL0     H32233   2.238   8.499   3.695  2.1679  1.5294 -0.8280
 1002MOL0     H32234   2.124   8.309   3.568  1.2667  0.4532  0.5310
 1002MOL0     H32235   2.065   8.418   3.441 -1.4598  2.6680  0.2548
 1002MOL0     H32236   1.994   8.455   3.738  0.7551  0.8091  0.2079
 1002MOL0     H32237   1.945   8.550   3.600 -1.7578 -0.4124 -1.5848
 1002MOL0     H32238   1.861   8.258   3.634  0.5326  0.0176  0.3075
 1002MOL0     H32239   1.837   8.374   3.493 -0.0384  1.2555  0.4624
 1002MOL0     H32240   1.678   8.503   3.625  0.8275  1.5667  2.7432
 1002MOL0     H32241   1.754   8.443   3.765 -0.1932 -1.1634  0.3277
 1002MOL0     H32242   1.514   8.334   3.671  0.6981  0.4009  0.7559
 1002MOL0     H32243   1.628   8.214   3.611  0.6199 -2.0658  1.4819
 1002MOL0     H32244   1.591   8.297   3.903  2.5791 -0.6778  1.6293
 1002MOL0     H32245   1.743   8.236   3.835 -0.3109  1.0615  1.8339
 1002MOL0     H32246   2.393   8.439   3.137 -0.2428 -0.5428 -0.2671
 1002MOL0     H32247   2.611   8.368   3.020 -1.0333 -2.9559 -0.7735
 1002MOL0     H32248   2.916   7.951   2.936  1.7014 -1.4029 -0.3480
 1002MOL0     H32249   3.114   7.941   2.786  1.3286  2.0994 -2.8515
 1002MOL0     H32250   5.011   8.157   2.665 -0.7230 -0.0256 -1.1810
 1002MOL0     H32251   5.231   8.228   2.765 -3.7503 -2.9963  1.1126
 1002MOL0     H32252   5.691   8.221   2.746  1.2321 -1.0468  0.0845
 1002MOL0     H32253   5.915   8.322   2.746  1.9837  1.6442  2.7681
 1002MOL0     H32254   5.966   8.762   2.706 -0.4724 -1.5364 -1.4792
 1002MOL0     H32255   6.112   8.735   2.789 -0.2451  1.2467 -0.7641
 1002MOL0     H32256   5.984   8.861   2.957  0.2345 -0.5310  3.3770
 1002MOL0     H32257   5.843   8.755   2.945 -0.7579 -0.6103  1.1985
 1002MOL0     H32258   6.114   8.675   3.045  0.2313  0.3875  2.4940
 1002MOL0     H32259   5.972   8.571   3.054  5.9927 -1.9161  0.6237
 1002MOL0     H32260   6.018   8.672   3.270  1.0800 -0.3284  0.1055
 1002MOL0     H32261   6.008   8.832   3.207 -0.7790  0.3180 -0.3495
 1002MOL0     H32262   5.597   8.777   3.272 -0.3885 -1.9878 -1.7720
 1002MOL0     H32263   5.751   8.716   2.717 -1.5636  0.5425 -0.8908
 1002MOL0     H32264   5.528   8.605   2.686 -0.2115 -1.2005  0.6571
 1003MOL0     O32265   4.678   5.474   2.998 -0.2831  0.5770 -0.8119
 1003MOL0     C32266   4.679   5.570   3.066  0.3021 -0.3044 -0.6475
 1003MOL0     O32267   4.591   5.675   3.053  0.6274 -0.0173 -0.5618
 1003MOL0     C32268   4.496   5.679   2.948  0.2533  0.2883 -0.5021
 1003MOL0     C32269   4.424   5.568   2.918  0.5393  0.9684  0.0650
 1003MOL0     C32270   4.324   5.571   2.828  0.0825 -0.0563 -0.1158
 1003MOL0     C32271   4.286   5.694   2.777 -0.1337  0.3886  0.3307
 1003MOL0     O32272   4.178   5.706   2.694  0.1636 -0.1259 -0.5016
 1003MOL0     C32273   4.095   5.594   2.663 -0.0669  0.3934 -0.0357
 1003MOL0     C32274   3.988   5.638   2.563  0.2746  0.4339 -0.7765
 1003MOL0     C32275   3.921   5.517   2.499 -0.7235  0.2509 -1.1814
 1003MOL0     C32276   3.812   5.561   2.400  0.2159  0.4624  0.7872
 1003MOL0     C32277   3.731   5.435   2.378  0.5377 -0.1393  0.1459
 1003MOL0     C32278   3.617   5.479   2.297 -1.0241  0.4408  0.9654
 1003MOL0     C32279   3.506   5.379   2.287 -0.3311  0.2365 -0.3226
 1003MOL0     C32280   3.521   5.262   2.194 -0.2055  0.0414  0.0306
 1003MOL0     N32281   3.403   5.186   2.153  0.3024  0.1782 -0.3585
 1003MOL0     C32282   3.303   5.169   2.239 -0.4760  0.1294 -0.1670
 1003MOL0     C32283   3.206   5.122   2.165 -0.0499  0.3202 -0.0554
 1003MOL0     C32284   3.079   5.082   2.217  0.2144 -0.3006  0.4946
 1003MOL0     C32285   2.972   5.178   2.174 -1.1111 -0.0901  0.0865
 1003MOL0     C32286   2.835   5.146   2.221 -0.2953 -0.3120  0.0214
 1003MOL0     C32287   2.774   5.043   2.137  0.5011  0.1259  0.1932
 1003MOL0     O32288   2.654   5.014   2.202  0.5630  0.0179  0.0366
 1003MOL0     C32289   2.577   4.906   2.167 -0.4987  0.3792  0.6082
 1003MOL0     C32290   2.450   4.898   2.222  1.1314 -1.0440 -0.0966
 1003MOL0     C32291   2.365   4.799   2.180 -0.3403  0.6876 -0.0007
 1003MOL0     C32292   2.396   4.706   2.079 -0.2131 -0.6217 -0.2083
 1003MOL0     C32293   2.309   4.595   2.029  0.0981  0.5098  0.3047
 1003MOL0     O32294   2.352   4.520   1.927  0.8112  0.4658 -0.5826
 1003MOL0     C32295   2.266   4.452   1.840 -0.8501  0.2005 -0.2203
 1003MOL0     C32296   2.134   4.488   1.816  0.2834 -0.6714  0.2252
 1003MOL0     C32297   2.064   4.429   1.716 -0.7542  0.6450  1.3231
 1003MOL0     C32298   2.132   4.326   1.636  0.6515 -0.4620  0.3243
 1003MOL0     O32299   2.075   4.269   1.529  0.5474  0.2058  0.0089
 1003MOL0     C32300   1.980   4.338   1.442  0.6274 -0.7136 -0.1404
 1003MOL0     C32301   1.854   4.252   1.426 -0.2272  0.9165 -0.2503
 1003MOL0     C32302   1.737   4.321   1.363  0.5274  0.5460 -0.0128
 1003MOL0     C32303   1.618   4.225   1.377  1.2562 -0.2914 -0.3210
 1003MOL0     C32304   1.489   4.295   1.325  0.6480 -0.1850 -0.5571
 1003MOL0     C32305   1.373   4.196   1.319  0.4566 -0.1551  1.5246
 1003MOL0     C32306   1.252   4.261   1.262 -0.1493 -1.1019 -0.5397
 1003MOL0     C32307   1.127   4.171   1.252 -0.7222  0.2976 -0.4396
 1003MOL0    Cl32308   1.061   4.118   1.409 -0.3625  0.3038 -0.2872
 1003MOL0     C32309   2.259   4.291   1.662  0.1341  0.7322 -0.0787
 1003MOL0     C32310   2.329   4.355   1.768  0.7774  0.2775  0.6364
 1003MOL0     O32311   2.196   4.580   2.086 -0.5348 -0.5302 -0.6808
 1003MOL0     C32312   2.536   4.702   2.048  0.6497 -0.1177 -0.4479
 1003MOL0     C32313   2.629   4.807   2.079  0.1126 -0.2479  0.4209
 1003MOL0     N32314   3.253   5.097   2.041  0.1654  0.0983 -0.4468
 1003MOL0     N32315   3.368   5.142   2.028  0.0501 -0.7273 -0.1309
 1003MOL0     C32316   4.345   5.812   2.814 -0.3015  0.5318 -0.4708
 1003MOL0     C32317   4.455   5.807   2.904  0.3667  1.0572 -0.6132
 1003MOL0     C32318   4.794   5.587   3.158  0.0208  0.6472 -0.3843
 1003MOL0     C32319   4.831   5.710   3.214  0.0876  0.3865 -0.1775
 1003MOL0     C32320   4.924   5.729   3.315  0.2157  0.0795 -0.2072
 1003MOL0     C32321   5.007   5.623   3.342 -0.4301  0.2912 -0.4590
 1003MOL0     O32322   5.106   5.661   3.430  0.7116  0.4450 -0.1320
 1003MOL0     C32323   5.212   5.560   3.447  0.9227 -0.5261 -0.0024
 1003MOL0     C32324   5.302   5.610   3.549 -0.2525  0.6194  0.3308
 1003MOL0     C32325   5.422   5.699   3.507 -0.0992 -0.1466 -0.4657
 1003MOL0     C32326   5.494   5.780   3.621  0.9428  0.1870 -0.3419
 1003MOL0     C32327   5.616   5.831   3.563  0.3228 -0.1758  0.0985
 1003MOL0     C32328   5.729   5.864   3.525  0.6645 -0.8775 -0.4910
 1003MOL0     C32329   4.990   5.499   3.280 -0.2280 -0.0352  0.7314
 1003MOL0     C32330   4.874   5.476   3.196 -1.2088  0.2613  0.0290
 1003MOL0     H32331   4.459   5.474   2.960  1.3686  1.9310  1.6611
 1003MOL0     H32332   4.266   5.483   2.802 -2.1754 -0.0746  4.1452
 1003MOL0     H32333   4.041   5.562   2.752 -0.4090  0.9122 -0.0555
 1003MOL0     H32334   4.149   5.510   2.617 -2.5351 -0.4714 -1.5689
 1003MOL0     H32335   4.033   5.697   2.483 -0.1825  0.4603 -1.0147
 1003MOL0     H32336   3.912   5.701   2.609 -0.6653 -1.9526  1.1591
 1003MOL0     H32337   3.884   5.441   2.569 -2.1615 -1.6003 -3.7473
 1003MOL0     H32338   3.994   5.463   2.438  1.4706 -0.3137  1.7481
 1003MOL0     H32339   3.753   5.636   2.454 -2.9592 -0.5180 -1.0563
 1003MOL0     H32340   3.852   5.594   2.304 -1.6779  0.8540  0.0946
 1003MOL0     H32341   3.697   5.394   2.474  2.6093  1.5229  1.7163
 1003MOL0     H32342   3.790   5.358   2.327 -2.2557 -2.1927 -0.1868
 1003MOL0     H32343   3.644   5.502   2.193  0.9868 -0.7988  1.1692
 1003MOL0     H32344   3.574   5.568   2.344 -2.0918 -0.3585  1.5563
 1003MOL0     H32345   3.476   5.358   2.390 -0.7677  4.3615  0.5594
 1003MOL0     H32346   3.421   5.431   2.241  1.1233  0.5520 -2.8166
 1003MOL0     H32347   3.590   5.197   2.249 -0.6604 -0.1334  0.3994
 1003MOL0     H32348   3.572   5.293   2.102 -2.3237  0.0807 -1.1802
 1003MOL0     H32349   3.297   5.214   2.338  0.5068  1.9296 -0.8773
 1003MOL0     H32350   3.085   5.068   2.325 -0.3331  1.5779  0.7921
 1003MOL0     H32351   3.055   4.987   2.169 -0.5548 -0.4073  1.0715
 1003MOL0     H32352   2.964   5.188   2.065 -2.1075  0.8202  0.2206
 1003MOL0     H32353   3.000   5.278   2.210 -0.4712  0.7177 -2.4753
 1003MOL0     H32354   2.848   5.124   2.327 -1.7519 -0.0685  0.2823
 1003MOL0     H32355   2.787   5.244   2.212  0.7192  0.4566  2.2570
 1003MOL0     H32356   2.843   4.959   2.140  2.5411  1.7144 -0.2319
 1003MOL0     H32357   2.763   5.085   2.036 -0.1267  0.6515  0.4690
 1003MOL0     H32358   2.404   4.974   2.285 -0.3979 -2.0687  0.0685
 1003MOL0     H32359   2.264   4.800   2.220  0.0490  0.0751  1.0630
 1003MOL0     H32360   2.092   4.571   1.871  1.0778 -0.9102  1.2199
 1003MOL0     H32361   1.965   4.450   1.676  0.6516 -1.5575 -4.2965
 1003MOL0     H32362   2.033   4.353   1.348  0.4692 -1.4772 -0.3523
 1003MOL0     H32363   1.959   4.443   1.466  3.0803 -0.1642 -0.1177
 1003MOL0     H32364   1.824   4.218   1.526  0.9147  0.2574 -0.1087
 1003MOL0     H32365   1.887   4.169   1.362 -1.1851  0.3692 -0.0671
 1003MOL0     H32366   1.756   4.337   1.257 -1.4783  1.4183 -0.2804
 1003MOL0     H32367   1.719   4.414   1.418  1.4681  0.7228  0.0251
 1003MOL0     H32368   1.632   4.134   1.319 -1.8834 -0.5552 -0.8005
 1003MOL0     H32369   1.602   4.196   1.481  0.7263 -0.2195 -0.3799
 1003MOL0     H32370   1.513   4.340   1.228  1.6353  1.9113  0.5991
 1003MOL0     H32371   1.465   4.382   1.386  2.3478  0.6751 -1.0598
 1003MOL0     H32372   1.361   4.148   1.416  2.4130 -1.7463  1.0569
 1003MOL0     H32373   1.403   4.111   1.256  2.1761 -0.6933  2.9778
 1003MOL0     H32374   1.233   4.340   1.335  2.1889  1.4629 -2.4963
 1003MOL0     H32375   1.268   4.318   1.170  0.3556 -0.7268 -0.2239
 1003MOL0     H32376   1.148   4.079   1.198  1.2096  0.9534 -0.8690
 1003MOL0     H32377   1.046   4.232   1.209 -0.9532  0.2684 -0.0453
 1003MOL0     H32378   2.308   4.227   1.589  1.4368  1.1960  0.3608
 1003MOL0     H32379   2.434   4.331   1.783  0.7091 -1.3726 -1.1467
 1003MOL0     H32380   2.566   4.614   1.992 -2.2576 -4.2195  3.7417
 1003MOL0     H32381   2.730   4.803   2.040 -1.3133 -0.4217 -3.7317
 1003MOL0     H32382   4.299   5.900   2.769  0.9724  1.1428 -0.6123
 1003MOL0     H32383   4.504   5.897   2.938 -1.1341  1.5048  0.4311
 1003MOL0     H32384   4.778   5.795   3.171  0.3296  1.5033  1.6299
 1003MOL0     H32385   4.933   5.830   3.353  0.2053  0.9864 -2.4431
 1003MOL0     H32386   5.269   5.538   3.356  0.5312  0.7312 -0.5844
 1003MOL0     H32387   5.164   5.468   3.481 -1.1199 -0.8268 -3.2450
 1003MOL0     H32388   5.237   5.663   3.618 -2.4900 -1.0240 -0.3870
 1003MOL0     H32389   5.357   5.524   3.589  1.8149  2.0248  0.6704
 1003MOL0     H32390   5.383   5.774   3.438  2.9391 -0.2522 -2.4921
 1003MOL0     H32391   5.491   5.632   3.456 -1.5370 -0.3996 -2.1572
 1003MOL0     H32392   5.430   5.862   3.654  2.4286  0.5595  1.8269
 1003MOL0     H32393   5.527   5.722   3.707 -0.0914 -1.3203 -0.9261
 1003MOL0     H32394   5.827   5.894   3.494 -0.0434  1.4228 -0.6906
 1003MOL0     H32395   5.055   5.415   3.301  0.1198  0.5104  1.8447
 1003MOL0     H32396   4.858   5.379   3.152 -1.3533  1.1618 -1.9878
 1004MOL0     O32397   3.039   1.627  10.589  0.2680  0.0841  0.4461
 1004MOL0     C32398   3.087   1.555  10.502  0.3252  1.0054 -0.9182
 1004MOL0     O32399   3.017   1.474  10.417  0.5053  0.1755  0.1393
 1004MOL0     C32400   2.882   1.447  10.432 -0.0856  0.3633  0.7022
 1004MOL0     C32401   2.816   1.456  10.555 -0.4292  0.1678  0.3229
 1004MOL0     C32402   2.679   1.433  10.561  0.0899 -0.1522 -0.3919
 1004MOL0     C32403   2.600   1.411  10.447 -0.1417  0.7394  0.0176
 1004MOL0     O32404   2.473   1.389  10.462 -0.0404  0.4352 -0.2408
 1004MOL0     C32405   2.437   1.279  10.550  0.0888 -0.1521 -0.1856
 1004MOL0     C32406   2.310   1.210  10.486 -0.1534 -0.8998  0.0025
 1004MOL0     C32407   2.252   1.113  10.592 -0.4106  0.2889 -0.2824
 1004MOL0     C32408   2.356   0.998  10.626  0.3848  0.4863  0.0582
 1004MOL0     C32409   2.295   0.908  10.735  0.2335  0.1011 -0.2241
 1004MOL0     C32410   2.173   0.841  10.698 -0.1931 -0.1758  1.1654
 1004MOL0     C32411   2.133   0.731  10.801  0.3373  0.0420 -0.1369
 1004MOL0     C32412   2.077   0.785  10.932  0.1956  0.1837  0.0902
 1004MOL0     N32413   2.011   0.683  11.014 -0.1243 -0.1410  0.2628
 1004MOL0     C32414   1.931   0.699  11.125  0.1012  0.7347 -0.7161
 1004MOL0     C32415   1.917   0.568  11.181 -0.0512 -0.0341  0.2245
 1004MOL0     C32416   1.842   0.525  11.302  0.2426  0.5566 -0.2643
 1004MOL0     C32417   1.743   0.629  11.358  0.0816  0.0370 -0.0029
 1004MOL0     C32418   1.646   0.563  11.466 -0.2126 -0.5005  0.8028
 1004MOL0     C32419   1.571   0.683  11.543 -0.6449  0.2019 -0.2875
 1004MOL0     O32420   1.468   0.618  11.622 -0.2670 -0.6613  0.5226
 1004MOL0     C32421   1.343   0.607  11.572 -0.1138  0.1398 -0.0353
 1004MOL0     C32422   1.309   0.647  11.444  0.3802 -0.1780  0.1220
 1004MOL0     C32423   1.168   0.635  11.411  0.0376  1.1128  0.6086
 1004MOL0     C32424   1.071   0.585  11.501  0.5223  0.1065  0.4713
 1004MOL0     C32425   0.929   0.575  11.462  0.8004 -0.5391  0.0880
 1004MOL0     O32426   0.891   0.643  11.343  0.5919 -1.0098 -0.1320
 1004MOL0     C32427   0.754   0.639  11.310 -0.5887  0.4550  0.2922
 1004MOL0     C32428   0.698   0.754  11.273 -0.0693 -0.2288  0.3281
 1004MOL0     C32429   0.565   0.768  11.236  0.1770  0.1420 -0.5848
 1004MOL0     C32430   0.479   0.656  11.253  0.1343  0.0912  0.3006
 1004MOL0     O32431   0.354   0.668  11.214  0.5518  0.1924  0.1150
 1004MOL0     C32432   0.254   0.619  11.315 -0.4539  0.6244  0.7227
 1004MOL0     C32433   0.117   0.593  11.253  0.2549 -0.7879 -0.2325
 1004MOL0     C32434   0.047   0.707  11.180 -0.4263 -0.4634  0.4952
 1004MOL0     C32435  -0.073   0.659  11.097  0.2197 -0.7119  0.3320
 1004MOL0     C32436  -0.160   0.771  11.036 -1.0812 -0.2892  0.1955
 1004MOL0     C32437  -0.282   0.728  10.954 -0.2200  0.5731 -0.4875
 1004MOL0     C32438  -0.364   0.847  10.914 -0.5897  0.1145 -0.1062
 1004MOL0     C32439  -0.520   0.838  10.932 -0.9381 -0.1169  0.0671
 1004MOL0    Cl32440  -0.617   0.988  10.879  0.3703  0.2972 -0.5561
 1004MOL0     C32441   0.537   0.534  11.295  0.5898 -0.4346  0.1738
 1004MOL0     C32442   0.671   0.522  11.325  0.4192 -0.2252  0.7396
 1004MOL0     O32443   0.856   0.507  11.535 -0.2208 -0.1687  0.5134
 1004MOL0     C32444   1.109   0.540  11.633 -0.3491  0.2741  0.0091
 1004MOL0     C32445   1.248   0.550  11.660 -0.6894  0.2522  0.0564
 1004MOL0     N32446   1.988   0.484  11.098  0.8432  0.2637  0.1273
 1004MOL0     N32447   2.040   0.555  11.004 -0.9651  0.7038 -0.6990
 1004MOL0     C32448   2.667   1.413  10.326  0.0368  0.8630  0.3574
 1004MOL0     C32449   2.807   1.424  10.319 -0.6025  0.2463  0.5681
 1004MOL0     C32450   3.226   1.561  10.458 -0.1787 -0.0577 -0.0065
 1004MOL0     C32451   3.320   1.634  10.533 -0.1497 -0.6148  0.4434
 1004MOL0     C32452   3.454   1.643  10.487  0.3085  0.5233  0.3933
 1004MOL0     C32453   3.491   1.582  10.371  0.1971 -0.2564  0.3919
 1004MOL0     O32454   3.621   1.583  10.329  0.0803 -0.5389  0.5454
 1004MOL0     C32455   3.710   1.676  10.395  0.1000 -0.0229 -0.0207
 1004MOL0     C32456   3.836   1.689  10.302 -0.0215 -0.7462  0.5383
 1004MOL0     C32457   3.955   1.752  10.369 -0.7323  0.0506 -0.0856
 1004MOL0     C32458   4.022   1.669  10.471 -0.4445  0.2786 -0.6952
 1004MOL0     C32459   4.116   1.562  10.422 -0.0783 -0.5865 -0.6506
 1004MOL0     C32460   4.183   1.476  10.378 -0.5915  0.1966  0.0449
 1004MOL0     C32461   3.398   1.514  10.295  0.5539 -0.1416  0.1465
 1004MOL0     C32462   3.275   1.491  10.345  0.3519  0.2982 -0.6121
 1004MOL0     H32463   2.874   1.461  10.647  0.6322  4.1091 -0.3642
 1004MOL0     H32464   2.618   1.449  10.649  0.5089  2.0539 -0.4387
 1004MOL0     H32465   2.407   1.325  10.644  0.5160 -1.2499  0.4996
 1004MOL0     H32466   2.519   1.209  10.568  0.3869  0.0612 -0.6631
 1004MOL0     H32467   2.353   1.166  10.395  3.3626  3.1287 -0.6198
 1004MOL0     H32468   2.230   1.278  10.457  0.0678 -1.1879 -1.3938
 1004MOL0     H32469   2.162   1.066  10.552 -0.9619  1.9454 -1.0995
 1004MOL0     H32470   2.218   1.172  10.678 -1.2200  0.5246 -0.7542
 1004MOL0     H32471   2.366   0.935  10.537  2.0842  2.8146 -1.5252
 1004MOL0     H32472   2.450   1.040  10.664 -1.0734  4.7192 -0.5768
 1004MOL0     H32473   2.264   0.962  10.825  0.8585 -0.1591  0.1546
 1004MOL0     H32474   2.377   0.840  10.762  0.3176 -1.0933 -3.1445
 1004MOL0     H32475   2.176   0.802  10.596 -0.3987 -0.2113  1.1733
 1004MOL0     H32476   2.090   0.911  10.694 -1.5787 -1.7832  0.4435
 1004MOL0     H32477   2.059   0.668  10.751 -1.4752  2.6547 -0.9601
 1004MOL0     H32478   2.221   0.668  10.816 -0.3247 -1.1991 -1.2801
 1004MOL0     H32479   2.005   0.865  10.916 -0.9025 -0.5197  1.2690
 1004MOL0     H32480   2.153   0.822  11.002 -0.3859 -0.5029  1.1232
 1004MOL0     H32481   1.892   0.790  11.168  0.5679 -0.2591  1.9659
 1004MOL0     H32482   1.917   0.497  11.377 -3.1561 -0.0741  3.2030
 1004MOL0     H32483   1.785   0.436  11.276  0.5156  0.9084 -2.1985
 1004MOL0     H32484   1.684   0.676  11.279 -0.8557  1.5651  1.5284
 1004MOL0     H32485   1.790   0.720  11.398 -0.3656 -1.0993  3.4629
 1004MOL0     H32486   1.577   0.495  11.415  0.2314 -0.6205  0.3638
 1004MOL0     H32487   1.708   0.509  11.538  1.6215  0.5083  0.0354
 1004MOL0     H32488   1.525   0.760  11.480 -2.1118 -1.4680 -1.3909
 1004MOL0     H32489   1.640   0.725  11.616  0.1812  0.2463 -1.0819
 1004MOL0     H32490   1.372   0.689  11.367  0.8659 -0.5390  0.3197
 1004MOL0     H32491   1.127   0.672  11.318 -1.3617 -0.9776  0.3431
 1004MOL0     H32492   0.757   0.845  11.260 -1.1256  0.2138 -1.7184
 1004MOL0     H32493   0.522   0.863  11.207  2.6354  1.5546  0.1070
 1004MOL0     H32494   0.250   0.700  11.388 -1.0989  1.5200 -0.2738
 1004MOL0     H32495   0.279   0.526  11.367 -1.9026 -0.4565 -0.4216
 1004MOL0     H32496   0.050   0.553  11.329 -2.0368 -0.2584 -1.8806
 1004MOL0     H32497   0.125   0.515  11.178 -1.0754 -0.1971 -1.0145
 1004MOL0     H32498   0.121   0.760  11.118 -0.8617 -0.0330  0.3401
 1004MOL0     H32499   0.013   0.785  11.249  3.3212  2.1169 -0.2556
 1004MOL0     H32500  -0.030   0.600  11.016  1.3260 -1.1080  1.1849
 1004MOL0     H32501  -0.132   0.589  11.158  0.5607 -1.3215 -0.0301
 1004MOL0     H32502  -0.100   0.827  10.964  1.4271 -2.2355  0.5891
 1004MOL0     H32503  -0.186   0.843  11.114  0.3968  0.8152 -0.2913
 1004MOL0     H32504  -0.338   0.662  11.022  2.4041 -2.3211 -0.9345
 1004MOL0     H32505  -0.249   0.670  10.868  1.5675  0.7825  0.0238
 1004MOL0     H32506  -0.325   0.930  10.974  0.7007  0.9008 -1.9414
 1004MOL0     H32507  -0.350   0.871  10.808 -1.7428  3.6361  0.4072
 1004MOL0     H32508  -0.554   0.805  11.031 -2.4398 -0.1049 -0.4248
 1004MOL0     H32509  -0.553   0.756  10.869 -1.6673 -0.8275  1.3390
 1004MOL0     H32510   0.470   0.449  11.299  0.4147 -0.3492 -0.7688
 1004MOL0     H32511   0.714   0.426  11.354 -1.4916 -1.1395  0.6715
 1004MOL0     H32512   1.036   0.504  11.705  0.0601 -0.0987  0.2414
 1004MOL0     H32513   1.287   0.517  11.756  0.2932  0.2281 -0.3421
 1004MOL0     H32514   2.609   1.409  10.234  1.1049  0.5291 -0.3239
 1004MOL0     H32515   2.864   1.416  10.227 -1.5976  0.3322 -0.0645
 1004MOL0     H32516   3.276   1.660  10.629 -0.7413  1.0001 -0.2377
 1004MOL0     H32517   3.534   1.671  10.554  0.8768 -0.3660  0.0959
 1004MOL0     H32518   3.744   1.642  10.493  0.0170 -2.4028 -0.7534
 1004MOL0     H32519   3.662   1.775  10.398  1.2228  0.6596 -2.6342
 1004MOL0     H32520   3.871   1.598  10.253  0.3885  0.8024 -2.2496
 1004MOL0     H32521   3.809   1.748  10.214  4.1390  0.2887 -0.2444
 1004MOL0     H32522   3.921   1.851  10.400 -1.0175 -0.1095  0.1144
 1004MOL0     H32523   4.032   1.782  10.297 -2.0655  2.9162 -0.4582
 1004MOL0     H32524   4.078   1.739  10.533  1.1721 -1.6697  0.1814
 1004MOL0     H32525   3.946   1.622  10.533  1.5910 -1.0585  0.9434
 1004MOL0     H32526   4.254   1.405  10.342 -1.3043 -0.9966  0.9290
 1004MOL0     H32527   3.418   1.474  10.196  0.2180  1.0944 -0.4355
 1004MOL0     H32528   3.211   1.424  10.288  0.8901 -1.4655  0.7322
 1005MOL0     O32529   3.163   3.350   9.914  0.3094 -0.1655 -0.0514
 1005MOL0     C32530   3.151   3.397   9.800 -0.4560  0.4211 -1.1301
 1005MOL0     O32531   3.248   3.450   9.728 -0.0359 -0.9168 -0.0674
 1005MOL0     C32532   3.374   3.444   9.774 -0.6328 -0.8054  0.0472
 1005MOL0     C32533   3.480   3.418   9.679  0.0443 -0.3373  0.6481
 1005MOL0     C32534   3.611   3.454   9.716 -0.3774  0.5282  0.9413
 1005MOL0     C32535   3.631   3.525   9.831 -0.9804  0.1301 -0.6869
 1005MOL0     O32536   3.760   3.565   9.858 -0.4288  0.5086  0.1359
 1005MOL0     C32537   3.787   3.685   9.938 -0.1646  1.0292  0.1035
 1005MOL0     C32538   3.934   3.715   9.918  0.0738 -0.6743  0.3239
 1005MOL0     C32539   4.025   3.650  10.026 -0.2127 -0.0047  0.1523
 1005MOL0     C32540   4.172   3.686   9.998 -0.7817  0.0158 -0.4520
 1005MOL0     C32541   4.271   3.655  10.117 -0.3023  0.6033  0.3136
 1005MOL0     C32542   4.313   3.509  10.134 -0.5081  0.4659 -0.3994
 1005MOL0     C32543   4.412   3.486  10.255  0.5490 -0.6804 -0.4212
 1005MOL0     C32544   4.473   3.343  10.230  0.1468 -0.5054 -1.1060
 1005MOL0     N32545   4.559   3.299  10.346 -0.2767  0.3249 -0.2871
 1005MOL0     C32546   4.574   3.358  10.471 -0.5435  0.2251  1.2521
 1005MOL0     C32547   4.670   3.285  10.537 -0.6836 -0.1931  0.3545
 1005MOL0     C32548   4.721   3.294  10.678 -0.3170  0.7823  0.1295
 1005MOL0     C32549   4.726   3.163  10.752  0.7853  0.8128 -0.1969
 1005MOL0     C32550   4.796   3.192  10.885  0.4202 -0.1438 -0.7315
 1005MOL0     C32551   4.780   3.080  10.985  0.0424  0.2706 -0.1650
 1005MOL0     O32552   4.823   2.951  10.927 -0.4603 -0.0242 -0.0553
 1005MOL0     C32553   4.952   2.906  10.933 -0.3632  1.4177 -0.2540
 1005MOL0     C32554   5.058   2.963  11.000 -0.0560 -0.0819 -0.2184
 1005MOL0     C32555   5.186   2.901  11.001 -0.3716  0.0184 -1.1792
 1005MOL0     C32556   5.204   2.771  10.946  0.0865  0.1586 -0.2040
 1005MOL0     C32557   5.333   2.699  10.952 -0.5097 -0.4678 -0.3186
 1005MOL0     O32558   5.441   2.788  10.946 -0.6658 -0.3047  0.1957
 1005MOL0     C32559   5.565   2.732  10.935  0.5612 -0.6522  0.2808
 1005MOL0     C32560   5.617   2.702  10.808  0.8340  0.5215  0.5557
 1005MOL0     C32561   5.741   2.630  10.798 -0.5473  0.3445 -0.2219
 1005MOL0     C32562   5.808   2.578  10.913 -0.2203  0.3614 -0.0928
 1005MOL0     O32563   5.924   2.494  10.909  0.5544 -0.0584 -0.9428
 1005MOL0     C32564   5.957   2.443  10.779 -0.0594 -1.5081  1.0056
 1005MOL0     C32565   6.057   2.323  10.790  0.0591 -0.1502 -0.7416
 1005MOL0     C32566   6.074   2.239  10.658 -0.1497 -0.3606 -0.1701
 1005MOL0     C32567   6.211   2.167  10.658 -0.2774 -0.8867 -1.4132
 1005MOL0     C32568   6.244   2.063  10.547  0.5985  0.5457  0.1349
 1005MOL0     C32569   6.341   1.954  10.590  0.1560 -0.0718  0.2398
 1005MOL0     C32570   6.477   2.008  10.627  0.6415 -0.1266  0.2391
 1005MOL0     C32571   6.583   1.902  10.624 -1.2154 -0.4233  1.1927
 1005MOL0    Cl32572   6.740   1.961  10.554 -0.0028  0.6870 -0.1175
 1005MOL0     C32573   5.747   2.597  11.034 -0.7709 -0.4427 -1.2077
 1005MOL0     C32574   5.633   2.676  11.044  0.4517 -0.1827 -0.3928
 1005MOL0     O32575   5.335   2.582  10.964 -0.4068  0.1850 -0.4353
 1005MOL0     C32576   5.094   2.716  10.879 -0.2155 -0.4589 -0.7638
 1005MOL0     C32577   4.972   2.783  10.863  0.7515 -0.0440  0.2691
 1005MOL0     N32578   4.722   3.199  10.441  0.5845  0.3849 -0.3742
 1005MOL0     N32579   4.660   3.210  10.331  0.6803 -0.5057 -0.2096
 1005MOL0     C32580   3.536   3.533   9.931 -0.3248  0.0894  0.1535
 1005MOL0     C32581   3.405   3.498   9.898 -0.1948 -0.1928 -0.6522
 1005MOL0     C32582   3.020   3.401   9.733  0.2789 -0.0715  0.3488
 1005MOL0     C32583   2.905   3.337   9.794  0.6979 -0.3762  0.4526
 1005MOL0     C32584   2.786   3.334   9.728 -0.5300  0.8388 -0.5006
 1005MOL0     C32585   2.770   3.390   9.607  0.7009  1.0561 -0.6313
 1005MOL0     O32586   2.643   3.371   9.561  0.8715 -0.0059  0.1294
 1005MOL0     C32587   2.600   3.455   9.447  0.3016  0.0956 -0.5346
 1005MOL0     C32588   2.442   3.451   9.431 -0.4829 -0.5892 -0.2349
 1005MOL0     C32589   2.418   3.569   9.333  0.1797 -0.1843  0.3296
 1005MOL0     C32590   2.276   3.573   9.279  0.1585 -0.1896 -0.0097
 1005MOL0     C32591   2.158   3.612   9.367 -1.2899 -0.2750  0.2193
 1005MOL0     C32592   2.059   3.628   9.432  0.3536 -0.2735  0.0319
 1005MOL0     C32593   2.873   3.464   9.541  0.4836  0.5029 -0.1987
 1005MOL0     C32594   2.995   3.469   9.611 -1.0573  0.0762 -0.1969
 1005MOL0     H32595   3.455   3.388   9.578  1.2242 -0.0843  0.2690
 1005MOL0     H32596   3.691   3.433   9.646 -0.1004 -0.2971  1.4854
 1005MOL0     H32597   3.775   3.671  10.046 -0.2462 -0.1758 -0.0455
 1005MOL0     H32598   3.718   3.764   9.909 -2.4025 -1.3701 -1.5413
 1005MOL0     H32599   3.944   3.824   9.923 -0.5705 -0.6660  2.6148
 1005MOL0     H32600   3.961   3.681   9.818 -1.8677 -2.2140  0.2478
 1005MOL0     H32601   4.010   3.542  10.025 -2.4969  0.2675 -1.1183
 1005MOL0     H32602   3.995   3.696  10.121  0.8132  1.4708 -0.1979
 1005MOL0     H32603   4.198   3.626   9.911 -1.7805  1.0851 -1.5131
 1005MOL0     H32604   4.177   3.792   9.973  0.6218 -0.6332 -3.3309
 1005MOL0     H32605   4.222   3.701  10.204 -0.6652 -1.1425  1.0637
 1005MOL0     H32606   4.360   3.718  10.120 -0.5857  0.9885  0.8617
 1005MOL0     H32607   4.369   3.489  10.042 -0.8134 -2.6682 -0.0097
 1005MOL0     H32608   4.235   3.434  10.150  1.3215 -1.3511  0.6090
 1005MOL0     H32609   4.489   3.562  10.263 -0.5402  0.2476  2.4347
 1005MOL0     H32610   4.357   3.495  10.350  3.4133 -0.0747  1.2833
 1005MOL0     H32611   4.540   3.365  10.147  0.6481  2.3055 -0.0740
 1005MOL0     H32612   4.407   3.260  10.204  0.5289 -1.9507  2.0014
 1005MOL0     H32613   4.528   3.450  10.506 -0.4460  0.6378  0.3424
 1005MOL0     H32614   4.653   3.362  10.731 -0.8874  0.5252 -0.2613
 1005MOL0     H32615   4.819   3.342  10.672 -0.7205  1.8335  1.4905
 1005MOL0     H32616   4.770   3.081  10.696  1.6521  1.2816 -0.2131
 1005MOL0     H32617   4.621   3.138  10.774  0.1455  2.6216 -0.9598
 1005MOL0     H32618   4.904   3.186  10.864 -0.0397 -1.8639 -3.0508
 1005MOL0     H32619   4.771   3.288  10.931  0.7180 -0.3089 -0.2234
 1005MOL0     H32620   4.675   3.069  11.013 -0.7571  3.7717 -1.2607
 1005MOL0     H32621   4.835   3.107  11.075 -0.2662  2.4695 -0.5809
 1005MOL0     H32622   5.055   3.060  11.050  0.9924  0.8346 -1.8672
 1005MOL0     H32623   5.276   2.950  11.037 -0.3834 -1.3024  0.7679
 1005MOL0     H32624   5.561   2.730  10.719 -0.2546 -3.4776 -0.1994
 1005MOL0     H32625   5.779   2.609  10.699 -0.7206 -0.1774 -0.1788
 1005MOL0     H32626   6.000   2.522  10.717  0.0241 -1.2593  1.3729
 1005MOL0     H32627   5.876   2.398  10.722  1.9146 -0.1369 -3.2670
 1005MOL0     H32628   6.026   2.253  10.868 -0.3752  1.1563  0.2874
 1005MOL0     H32629   6.153   2.362  10.826 -1.4948  1.8123  1.5142
 1005MOL0     H32630   6.065   2.302  10.569  1.2991 -1.3446 -1.0660
 1005MOL0     H32631   5.998   2.161  10.666  0.1146 -0.4707  1.6844
 1005MOL0     H32632   6.294   2.238  10.657 -0.6753 -0.3662  0.2997
 1005MOL0     H32633   6.214   2.111  10.752 -4.1042 -3.5474 -2.6070
 1005MOL0     H32634   6.284   2.116  10.461  0.4308  0.3607 -0.0587
 1005MOL0     H32635   6.149   2.022  10.511 -1.0075  2.1532  2.2504
 1005MOL0     H32636   6.348   1.876  10.513  2.4995 -0.8562  1.1708
 1005MOL0     H32637   6.298   1.913  10.682  1.3947  2.4106  2.0319
 1005MOL0     H32638   6.513   2.081  10.554 -2.0375  0.6924 -0.3396
 1005MOL0     H32639   6.478   2.059  10.723  0.5488  0.1066  0.1168
 1005MOL0     H32640   6.547   1.819  10.562  1.8525 -1.7809  1.0683
 1005MOL0     H32641   6.594   1.856  10.722 -0.1545 -2.5815  0.1438
 1005MOL0     H32642   5.793   2.565  11.127 -0.6540 -0.6932 -1.3509
 1005MOL0     H32643   5.593   2.705  11.141 -2.7680 -1.2923 -1.2438
 1005MOL0     H32644   5.108   2.613  10.847 -0.4999 -0.8635  0.3677
 1005MOL0     H32645   4.898   2.744  10.793  0.2006  0.7373  0.4112
 1005MOL0     H32646   3.567   3.579  10.024  3.7345 -0.8677 -0.5043
 1005MOL0     H32647   3.327   3.521   9.970  0.9446  0.2464  0.4972
 1005MOL0     H32648   2.909   3.284   9.888 -0.2235 -0.2294  0.5856
 1005MOL0     H32649   2.706   3.280   9.778  0.6290  1.0727  1.6863
 1005MOL0     H32650   2.640   3.407   9.357  1.3766  1.1510 -0.6378
 1005MOL0     H32651   2.633   3.556   9.473  2.1678 -0.4409 -0.6207
 1005MOL0     H32652   2.409   3.359   9.381  1.2492  0.0194 -2.7131
 1005MOL0     H32653   2.395   3.461   9.529 -0.9254 -3.7912 -0.0024
 1005MOL0     H32654   2.483   3.577   9.245 -2.2212 -1.0823 -1.6706
 1005MOL0     H32655   2.441   3.662   9.385  2.1621 -1.3337  1.6203
 1005MOL0     H32656   2.279   3.654   9.206 -1.8329  1.7116  1.8728
 1005MOL0     H32657   2.248   3.476   9.235  1.0822  0.1161 -1.3141
 1005MOL0     H32658   1.971   3.644   9.492 -1.2302  0.0283 -2.2503
 1005MOL0     H32659   2.857   3.506   9.442 -1.1082 -0.5953 -0.4454
 1005MOL0     H32660   3.080   3.516   9.562  0.2287 -1.7488  0.1471
 1006MOL0     O32661   0.360   6.076   1.094  0.1228  0.0883 -0.7101
 1006MOL0     C32662   0.416   6.110   1.198  0.1292 -0.1202  0.1430
 1006MOL0     O32663   0.351   6.165   1.308  0.0082 -0.1233 -0.4525
 1006MOL0     C32664   0.217   6.140   1.336  0.2118 -0.0529 -0.7565
 1006MOL0     C32665   0.148   6.021   1.307  0.5881 -1.0319  0.1291
 1006MOL0     C32666   0.013   6.001   1.324 -0.0394 -0.9272  0.1050
 1006MOL0     C32667  -0.059   6.121   1.358  0.0781 -0.2593 -0.1025
 1006MOL0     O32668  -0.200   6.133   1.358  0.9977 -0.2861 -0.1146
 1006MOL0     C32669  -0.269   6.007   1.367  0.2629 -0.3796 -0.2141
 1006MOL0     C32670  -0.399   6.036   1.430  0.5000 -0.7757 -0.1886
 1006MOL0     C32671  -0.471   5.908   1.451 -0.0693  0.1636 -0.2247
 1006MOL0     C32672  -0.613   5.935   1.506  0.2074  0.0535  0.1293
 1006MOL0     C32673  -0.671   5.815   1.580 -0.7035  0.5521  0.2223
 1006MOL0     C32674  -0.810   5.834   1.636  0.5194 -0.2822  0.4386
 1006MOL0     C32675  -0.828   5.938   1.749  0.3366 -0.4214 -0.2669
 1006MOL0     C32676  -0.981   5.940   1.782 -0.3783 -0.2058 -0.5595
 1006MOL0     N32677  -1.029   6.030   1.891 -0.1176 -0.3596  0.7852
 1006MOL0     C32678  -1.157   6.076   1.917 -0.6564 -0.3884  1.1481
 1006MOL0     C32679  -1.148   6.173   2.008  0.4821 -0.8430  0.5913
 1006MOL0     C32680  -1.260   6.256   2.065 -1.2302 -0.9511 -0.5755
 1006MOL0     C32681  -1.331   6.347   1.965  0.7220 -0.5524  0.1978
 1006MOL0     C32682  -1.472   6.396   2.014 -1.3747  0.1288  1.2629
 1006MOL0     C32683  -1.569   6.288   2.031  0.2636 -0.3187  0.3007
 1006MOL0     O32684  -1.702   6.344   2.056  0.5758  0.3698  0.0030
 1006MOL0     C32685  -1.796   6.266   2.122  0.7768 -1.0219  0.8161
 1006MOL0     C32686  -1.779   6.142   2.176  0.3662 -0.6147 -0.4646
 1006MOL0     C32687  -1.888   6.079   2.241  0.0757  0.3596  1.0226
 1006MOL0     C32688  -2.007   6.152   2.267 -0.1573 -1.0051  0.2568
 1006MOL0     C32689  -2.114   6.094   2.337 -0.3188  0.2864 -0.0526
 1006MOL0     O32690  -2.229   6.169   2.358  0.3364 -0.3525 -0.0034
 1006MOL0     C32691  -2.328   6.128   2.436 -0.9625  0.0951  0.1765
 1006MOL0     C32692  -2.315   6.084   2.574 -0.6413  0.7083 -0.2173
 1006MOL0     C32693  -2.428   6.058   2.653 -0.1615 -0.3701  0.0493
 1006MOL0     C32694  -2.550   6.096   2.612  0.7392  0.5596 -0.1951
 1006MOL0     O32695  -2.649   6.073   2.707 -0.3028 -0.0931  0.0524
 1006MOL0     C32696  -2.783   6.111   2.689  0.5965 -0.2225  0.3286
 1006MOL0     C32697  -2.868   6.052   2.804 -0.4274  0.1218  0.5534
 1006MOL0     C32698  -3.011   6.100   2.808  0.4084  0.4259 -1.1382
 1006MOL0     C32699  -3.096   6.045   2.936 -0.1867  0.0288  0.4599
 1006MOL0     C32700  -3.218   6.133   2.935  0.1679 -0.1800 -0.1566
 1006MOL0     C32701  -3.326   6.079   3.040 -0.2110 -1.1276  0.1941
 1006MOL0     C32702  -3.435   6.193   3.051 -0.2207 -0.5326 -0.2375
 1006MOL0     C32703  -3.558   6.138   3.126 -0.0288 -0.5452 -0.2993
 1006MOL0    Cl32704  -3.511   6.070   3.290  0.4572  0.0837  0.3139
 1006MOL0     C32705  -2.569   6.134   2.476  0.5541 -0.5365 -0.2190
 1006MOL0     C32706  -2.456   6.153   2.390  0.0169  0.3781 -0.7402
 1006MOL0     O32707  -2.092   5.983   2.394  0.3799 -0.6681  0.4255
 1006MOL0     C32708  -2.019   6.286   2.225 -0.2879  0.7242 -0.2360
 1006MOL0     C32709  -1.915   6.337   2.152  0.1818 -0.0093  0.3182
 1006MOL0     N32710  -1.012   6.197   2.022 -0.0896  0.3773 -0.2756
 1006MOL0     N32711  -0.944   6.104   1.965  0.0221 -0.0937 -0.1764
 1006MOL0     C32712   0.006   6.239   1.391 -0.0469  0.1103  0.5169
 1006MOL0     C32713   0.141   6.254   1.373 -0.1190  0.0622 -0.3258
 1006MOL0     C32714   0.565   6.095   1.209  0.3621  0.0838 -0.1045
 1006MOL0     C32715   0.649   6.055   1.107 -1.0902  0.0415 -0.1106
 1006MOL0     C32716   0.787   6.043   1.125  1.1190  0.4747 -0.6296
 1006MOL0     C32717   0.846   6.075   1.253 -0.7498 -0.3164  0.4581
 1006MOL0     O32718   0.982   6.044   1.279  0.1832 -0.3930 -0.4955
 1006MOL0     C32719   1.062   6.008   1.161 -0.1571  0.5630  0.3318
 1006MOL0     C32720   1.202   5.995   1.216  0.3654 -0.3129 -0.3011
 1006MOL0     C32721   1.221   5.857   1.277  0.4294  0.5485 -0.0945
 1006MOL0     C32722   1.349   5.847   1.359  0.1335  0.7530  0.1832
 1006MOL0     C32723   1.472   5.838   1.279  1.5420  0.6270 -1.4636
 1006MOL0     C32724   1.576   5.825   1.221 -0.2197  0.0078 -0.0206
 1006MOL0     C32725   0.765   6.132   1.355  0.4303 -0.2845 -0.6895
 1006MOL0     C32726   0.624   6.137   1.330 -0.0484  0.7457 -0.3947
 1006MOL0     H32727   0.210   5.944   1.262  0.3859 -1.1341  0.0215
 1006MOL0     H32728  -0.039   5.908   1.302 -1.3818 -0.2435  0.3122
 1006MOL0     H32729  -0.220   5.931   1.429 -0.2669  0.3266  1.1025
 1006MOL0     H32730  -0.305   5.975   1.269 -0.3358  1.1107 -0.5121
 1006MOL0     H32731  -0.458   6.107   1.372 -1.3667 -2.4430 -0.4203
 1006MOL0     H32732  -0.384   6.076   1.531 -0.7680 -1.3263  0.2392
 1006MOL0     H32733  -0.417   5.855   1.530  1.0103 -1.6003 -2.0640
 1006MOL0     H32734  -0.491   5.843   1.366 -6.3939  0.6008  0.4418
 1006MOL0     H32735  -0.613   6.017   1.578 -0.6562  0.5522 -0.4138
 1006MOL0     H32736  -0.688   5.963   1.431 -0.5741  2.1953  1.5997
 1006MOL0     H32737  -0.605   5.770   1.656 -0.6377 -1.5155 -0.9777
 1006MOL0     H32738  -0.672   5.747   1.494 -1.3198  2.2378 -1.1459
 1006MOL0     H32739  -0.855   5.738   1.663  0.3159 -0.0365  0.9973
 1006MOL0     H32740  -0.869   5.871   1.552 -1.1918  0.5318  1.9190
 1006MOL0     H32741  -0.775   5.904   1.838 -2.5694  0.0460  1.7896
 1006MOL0     H32742  -0.787   6.035   1.717  1.5713 -0.2476  1.6745
 1006MOL0     H32743  -1.007   5.841   1.822 -0.1935  0.5620  1.5937
 1006MOL0     H32744  -1.038   5.962   1.691 -2.4825 -0.1825  0.6969
 1006MOL0     H32745  -1.241   6.032   1.863  0.4744  0.6721 -1.6754
 1006MOL0     H32746  -1.218   6.331   2.134 -0.0989 -1.1196 -1.0489
 1006MOL0     H32747  -1.325   6.188   2.120 -0.4116 -0.3805  1.2043
 1006MOL0     H32748  -1.351   6.296   1.870 -0.6495  1.7067 -0.8075
 1006MOL0     H32749  -1.271   6.434   1.937  1.0409 -0.3914  1.3259
 1006MOL0     H32750  -1.450   6.440   2.111  0.9253  3.2926 -0.5172
 1006MOL0     H32751  -1.512   6.464   1.939 -3.4901  1.3038  3.3178
 1006MOL0     H32752  -1.544   6.236   2.124 -0.4064 -0.7271  0.2577
 1006MOL0     H32753  -1.581   6.219   1.947 -1.8276  1.4926 -0.9795
 1006MOL0     H32754  -1.680   6.096   2.179  0.4070 -0.4728  1.2973
 1006MOL0     H32755  -1.864   5.977   2.272  2.8035 -0.5857 -3.3253
 1006MOL0     H32756  -2.213   6.080   2.611 -1.3263  1.7839  1.9583
 1006MOL0     H32757  -2.418   6.017   2.753 -0.9230 -0.1585  0.2151
 1006MOL0     H32758  -2.820   6.070   2.594 -1.7807 -1.2608  1.6002
 1006MOL0     H32759  -2.801   6.219   2.683  1.5041 -0.1471 -2.1141
 1006MOL0     H32760  -2.821   6.083   2.898 -1.6186 -1.8499  1.8757
 1006MOL0     H32761  -2.859   5.943   2.811  1.5413  0.3547  2.9432
 1006MOL0     H32762  -3.052   6.067   2.712  0.3353  1.9206 -1.6452
 1006MOL0     H32763  -3.007   6.209   2.817  3.2273  0.2762  0.9830
 1006MOL0     H32764  -3.133   5.944   2.915 -1.6957  0.5951  0.3441
 1006MOL0     H32765  -3.039   6.049   3.029  0.3351  2.5384  0.0932
 1006MOL0     H32766  -3.265   6.133   2.837 -1.0103 -0.6008  0.3855
 1006MOL0     H32767  -3.189   6.234   2.967 -1.0402  0.1824 -0.1421
 1006MOL0     H32768  -3.291   6.059   3.141 -1.5640 -2.6284  0.4143
 1006MOL0     H32769  -3.364   5.980   3.011 -0.1584 -1.1720  0.2744
 1006MOL0     H32770  -3.397   6.280   3.105 -1.1175  1.1091 -2.1219
 1006MOL0     H32771  -3.467   6.227   2.952  1.2899  2.8212  0.2738
 1006MOL0     H32772  -3.609   6.055   3.076  0.9641 -0.1713 -2.0033
 1006MOL0     H32773  -3.627   6.223   3.136 -2.7298 -2.6900  0.4853
 1006MOL0     H32774  -2.665   6.171   2.442  0.7780  0.5355  0.2658
 1006MOL0     H32775  -2.472   6.191   2.289 -1.1732 -2.6302 -1.8053
 1006MOL0     H32776  -2.112   6.339   2.244 -0.4129  1.6675 -2.9546
 1006MOL0     H32777  -1.927   6.440   2.121 -0.0946  0.0801  0.7113
 1006MOL0     H32778  -0.056   6.327   1.405  2.1925  2.0326 -0.8594
 1006MOL0     H32779   0.191   6.349   1.387 -0.9383  0.3731  0.5191
 1006MOL0     H32780   0.602   6.028   1.013 -1.4868 -0.7401  0.3017
 1006MOL0     H32781   0.847   6.003   1.045 -0.7785 -2.4281 -0.7494
 1006MOL0     H32782   1.062   6.088   1.086 -0.2970 -0.0600 -0.3511
 1006MOL0     H32783   1.022   5.916   1.116 -1.0667  0.1548  1.8745
 1006MOL0     H32784   1.266   6.023   1.132 -0.3185  1.9785 -0.1119
 1006MOL0     H32785   1.218   6.074   1.289 -1.9026  0.3523 -0.4429
 1006MOL0     H32786   1.218   5.780   1.199 -2.1285 -1.2584  1.6312
 1006MOL0     H32787   1.139   5.842   1.347 -0.7682  1.2875 -1.2817
 1006MOL0     H32788   1.351   5.932   1.428  3.0973  1.7710 -0.9896
 1006MOL0     H32789   1.346   5.756   1.420 -0.8113  0.4587 -0.2794
 1006MOL0     H32790   1.662   5.811   1.159  1.0407  2.2748  1.0881
 1006MOL0     H32791   0.814   6.169   1.444  0.5978 -0.0578 -0.8783
 1006MOL0     H32792   0.556   6.182   1.401 -0.1056  0.9886 -0.6035
 1007MOL0     O32793   5.768   8.778  10.824 -0.0637 -0.4812 -0.1972
 1007MOL0     C32794   5.772   8.665  10.875  0.8616  0.3783  1.2479
 1007MOL0     O32795   5.667   8.569  10.878 -0.0824  0.0018  0.8455
 1007MOL0     C32796   5.549   8.629  10.852  0.6997 -0.0543 -0.5686
 1007MOL0     C32797   5.473   8.584  10.751 -0.7813  0.3704  0.6558
 1007MOL0     C32798   5.355   8.651  10.724  0.1392  0.7147 -1.0502
 1007MOL0     C32799   5.301   8.751  10.811  0.8627  0.3695  1.0578
 1007MOL0     O32800   5.194   8.833  10.780  0.6731  0.6415  0.1575
 1007MOL0     C32801   5.093   8.780  10.677 -0.3081  0.5200 -0.2885
 1007MOL0     C32802   4.963   8.871  10.673  0.2042 -0.4666 -0.0910
 1007MOL0     C32803   4.986   9.026  10.673 -0.0061  0.8427  0.5935
 1007MOL0     C32804   5.030   9.083  10.536  0.5387 -0.2435  0.0577
 1007MOL0     C32805   4.997   9.228  10.517 -0.1214 -0.5261  0.8744
 1007MOL0     C32806   5.069   9.332  10.614 -0.0250 -0.1071 -0.3465
 1007MOL0     C32807   5.009   9.469  10.585  0.2634 -0.8721  0.9517
 1007MOL0     C32808   5.081   9.590  10.643 -0.2187 -0.3271 -0.3961
 1007MOL0     N32809   5.087   9.596  10.785 -0.6424 -0.0556  0.6296
 1007MOL0     C32810   5.182   9.533  10.864  0.3654 -1.0344  0.0508
 1007MOL0     C32811   5.151   9.564  10.997 -0.1990 -1.0277  0.0573
 1007MOL0     C32812   5.206   9.488  11.109 -0.3938 -0.5009 -0.4588
 1007MOL0     C32813   5.359   9.499  11.119 -0.9345  0.7872 -0.0084
 1007MOL0     C32814   5.411   9.423  11.245 -0.5990  0.0095 -0.7369
 1007MOL0     C32815   5.559   9.416  11.231 -0.5838  0.1492  0.7684
 1007MOL0     O32816   5.613   9.376  11.360  0.0323 -0.1301  0.6629
 1007MOL0     C32817   5.751   9.365  11.379  0.7745 -0.0101 -0.2228
 1007MOL0     C32818   5.852   9.362  11.279  0.8021  0.2917  0.7569
 1007MOL0     C32819   5.988   9.362  11.318  0.0765  0.2528 -0.8530
 1007MOL0     C32820   6.032   9.350  11.454  0.3970 -0.0387  0.0146
 1007MOL0     C32821   6.175   9.363  11.485  0.0647  0.1188 -0.6129
 1007MOL0     O32822   6.264   9.325  11.393 -0.4613 -0.1261 -0.3950
 1007MOL0     C32823   6.406   9.332  11.417  0.8907 -0.2001 -0.1767
 1007MOL0     C32824   6.481   9.369  11.530 -1.1122  0.1337 -0.2836
 1007MOL0     C32825   6.621   9.376  11.525 -0.4322  0.1100 -0.7058
 1007MOL0     C32826   6.691   9.370  11.402  0.5636  0.3098  0.0620
 1007MOL0     O32827   6.820   9.410  11.389 -0.0797  0.1436  0.1878
 1007MOL0     C32828   6.902   9.388  11.266  0.2683  0.3921 -0.6194
 1007MOL0     C32829   7.045   9.444  11.278  0.4828 -0.7912  0.0565
 1007MOL0     C32830   7.126   9.359  11.373  0.4718 -0.2525 -0.1571
 1007MOL0     C32831   7.271   9.406  11.364 -0.1298 -0.1255 -0.2491
 1007MOL0     C32832   7.362   9.316  11.440  0.1742 -0.0605 -0.1546
 1007MOL0     C32833   7.509   9.360  11.420 -0.4753 -0.4648  0.3923
 1007MOL0     C32834   7.602   9.286  11.509  0.5711  0.2996 -0.8124
 1007MOL0     C32835   7.731   9.249  11.447 -0.1889 -0.1700 -1.3886
 1007MOL0    Cl32836   7.790   9.393  11.361 -0.4802 -0.0957  0.7468
 1007MOL0     C32837   6.617   9.350  11.284 -0.4650  0.5037 -0.7849
 1007MOL0     C32838   6.483   9.317  11.298 -0.1622 -0.6302  0.6719
 1007MOL0     O32839   6.203   9.394  11.601 -0.1896 -0.2063 -0.6062
 1007MOL0     C32840   5.929   9.343  11.549 -0.6250 -0.8280  0.5255
 1007MOL0     C32841   5.796   9.342  11.507  0.0878 -0.2450  0.6165
 1007MOL0     N32842   5.041   9.654  10.986  0.0790  0.3488  0.3666
 1007MOL0     N32843   5.009   9.679  10.862 -0.1340  0.3020  0.2169
 1007MOL0     C32844   5.377   8.799  10.912 -0.7856  0.2036 -0.3141
 1007MOL0     C32845   5.500   8.733  10.940 -0.2198  0.6620  0.6082
 1007MOL0     C32846   5.895   8.601  10.908  0.0347 -0.7632 -0.6438
 1007MOL0     C32847   6.017   8.671  10.897 -1.5574  0.6613 -0.6725
 1007MOL0     C32848   6.142   8.616  10.917 -0.5688  0.4381  0.3570
 1007MOL0     C32849   6.152   8.491  10.977  0.0707 -0.5051  0.0293
 1007MOL0     O32850   6.265   8.428  11.014 -0.6862 -0.9623  0.3105
 1007MOL0     C32851   6.384   8.474  10.947  0.1598 -0.1725 -0.0383
 1007MOL0     C32852   6.496   8.372  10.990 -0.5594 -0.2750 -0.6545
 1007MOL0     C32853   6.634   8.364  10.906  0.3481 -0.4486  0.2220
 1007MOL0     C32854   6.757   8.293  10.973 -0.0651  0.6443 -0.4111
 1007MOL0     C32855   6.852   8.374  11.046  0.1654 -0.3982  0.6920
 1007MOL0     C32856   6.924   8.434  11.126  0.5375 -0.4491  0.6077
 1007MOL0     C32857   6.029   8.415  10.998  0.2425 -0.0498 -0.4108
 1007MOL0     C32858   5.907   8.467  10.962  0.0283 -0.6194  0.8203
 1007MOL0     H32859   5.501   8.507  10.680 -1.3090  0.9177 -0.1510
 1007MOL0     H32860   5.291   8.617  10.643  1.7376 -1.5259 -1.4638
 1007MOL0     H32861   5.077   8.675  10.701  1.4708  0.5127  1.0919
 1007MOL0     H32862   5.150   8.779  10.584  2.2305  1.5254  1.1487
 1007MOL0     H32863   4.921   8.849  10.771  1.1127 -0.1768  0.3706
 1007MOL0     H32864   4.890   8.839  10.598 -2.4654 -1.3677  2.6939
 1007MOL0     H32865   5.061   9.058  10.746 -1.1114  2.0814  1.2343
 1007MOL0     H32866   4.891   9.076  10.697  0.3931  1.7207  0.3938
 1007MOL0     H32867   5.139   9.071  10.527  0.8197  1.8545  0.1882
 1007MOL0     H32868   4.983   9.027  10.455 -0.1836 -1.4695  1.2877
 1007MOL0     H32869   4.889   9.243  10.506  0.1674  1.3239  0.1948
 1007MOL0     H32870   5.035   9.257  10.418  1.0627  1.6475  1.9132
 1007MOL0     H32871   5.178   9.328  10.602  0.4113 -2.1434  3.0764
 1007MOL0     H32872   5.047   9.302  10.717  2.4235 -1.6046 -0.1690
 1007MOL0     H32873   5.004   9.484  10.477 -1.4132 -1.3389  0.9459
 1007MOL0     H32874   4.907   9.465  10.624  0.3659 -1.7161  1.1560
 1007MOL0     H32875   5.048   9.688  10.608  1.5312  0.7620  0.8420
 1007MOL0     H32876   5.185   9.591  10.609 -0.0771 -0.1340  0.0427
 1007MOL0     H32877   5.266   9.471  10.833  1.0861 -0.2150  0.3058
 1007MOL0     H32878   5.165   9.387  11.116  1.8678 -1.3989  1.0868
 1007MOL0     H32879   5.166   9.543  11.195  1.6598 -1.6323  1.3465
 1007MOL0     H32880   5.383   9.605  11.119 -2.4710  1.1530  0.4780
 1007MOL0     H32881   5.405   9.451  11.032 -2.0656 -1.4107  0.5200
 1007MOL0     H32882   5.384   9.468  11.341 -0.5510  1.1394 -1.2487
 1007MOL0     H32883   5.367   9.323  11.238  0.6278 -0.4366 -2.8838
 1007MOL0     H32884   5.603   9.502  11.180  1.5506 -1.2835  0.0886
 1007MOL0     H32885   5.583   9.335  11.162 -2.1332  0.6506 -0.4266
 1007MOL0     H32886   5.815   9.379  11.178  1.2417  0.3890  0.6101
 1007MOL0     H32887   6.059   9.371  11.236  1.1911 -0.1763  0.0351
 1007MOL0     H32888   6.421   9.383  11.619  1.1363 -3.6661  2.1311
 1007MOL0     H32889   6.671   9.409  11.615 -0.7228 -0.3591 -0.3685
 1007MOL0     H32890   6.858   9.440  11.180 -1.3070  0.8336  0.4085
 1007MOL0     H32891   6.907   9.281  11.245  1.7205 -0.1497  2.0941
 1007MOL0     H32892   7.036   9.546  11.316 -1.3697 -0.2818 -1.5787
 1007MOL0     H32893   7.094   9.461  11.181  2.5637 -2.0713  0.8033
 1007MOL0     H32894   7.124   9.252  11.349  0.2749 -0.6697  1.5625
 1007MOL0     H32895   7.076   9.361  11.470 -0.9906 -1.2730 -0.8514
 1007MOL0     H32896   7.300   9.404  11.259 -1.2739 -0.0164 -0.5739
 1007MOL0     H32897   7.284   9.507  11.403 -0.6291 -0.0981 -0.1581
 1007MOL0     H32898   7.350   9.211  11.412  0.1593  0.4606 -2.3434
 1007MOL0     H32899   7.337   9.323  11.546  0.6323 -0.7184  0.0006
 1007MOL0     H32900   7.514   9.469  11.430  0.6766 -0.5265  0.5315
 1007MOL0     H32901   7.537   9.329  11.319  0.8259 -3.0127  1.4668
 1007MOL0     H32902   7.617   9.351  11.595 -2.2291  1.2012 -0.9070
 1007MOL0     H32903   7.559   9.194  11.550 -0.9707  2.3244  2.5448
 1007MOL0     H32904   7.719   9.161  11.382 -0.4987  0.5651 -2.3628
 1007MOL0     H32905   7.800   9.221  11.527  0.0538  0.4927 -1.3637
 1007MOL0     H32906   6.655   9.346  11.182 -2.7831  0.9732 -1.7316
 1007MOL0     H32907   6.419   9.297  11.212  1.0666 -0.8593 -0.2162
 1007MOL0     H32908   5.947   9.340  11.656 -1.3374 -0.3975  0.6661
 1007MOL0     H32909   5.727   9.324  11.589  0.6206 -1.5128  0.8181
 1007MOL0     H32910   5.337   8.880  10.972 -0.2505  1.5764 -1.7559
 1007MOL0     H32911   5.567   8.764  11.019  2.3080 -0.1773 -1.0843
 1007MOL0     H32912   6.014   8.772  10.858 -0.9433  0.9156 -0.0747
 1007MOL0     H32913   6.231   8.675  10.896 -0.4832 -0.1638 -1.1428
 1007MOL0     H32914   6.418   8.571  10.986 -0.4497  0.0430 -0.0335
 1007MOL0     H32915   6.381   8.479  10.838  1.8127  1.3832 -0.0559
 1007MOL0     H32916   6.532   8.393  11.091  1.5178 -2.3158 -0.8778
 1007MOL0     H32917   6.451   8.273  10.989  0.0839 -0.7016  2.4826
 1007MOL0     H32918   6.672   8.462  10.875 -0.0155 -0.7402 -1.2091
 1007MOL0     H32919   6.608   8.333  10.805  1.5165 -2.0326  0.3731
 1007MOL0     H32920   6.723   8.216  11.044  0.2668  2.0507  1.3502
 1007MOL0     H32921   6.808   8.233  10.898 -1.1084 -1.8058  0.7260
 1007MOL0     H32922   6.983   8.500  11.187  0.5488 -0.3223  0.4611
 1007MOL0     H32923   6.025   8.322  11.054  2.9791  1.0890  2.0033
 1007MOL0     H32924   5.820   8.408  10.990 -1.2198 -0.6136 -2.5765
 1008MOL0     O32925   5.706   1.097   7.673  0.3458  0.1026  0.5467
 1008MOL0     C32926   5.804   1.025   7.688  0.3376  0.2648 -0.0449
 1008MOL0     O32927   5.795   0.904   7.740  0.3232 -0.0572  0.0826
 1008MOL0     C32928   5.687   0.872   7.816 -1.1818  0.4174 -0.4431
 1008MOL0     C32929   5.658   0.937   7.938 -0.1517 -0.0059 -1.0807
 1008MOL0     C32930   5.554   0.900   8.020  0.1444  0.5914 -0.2192
 1008MOL0     C32931   5.462   0.799   7.980  0.3203  1.2556  0.2273
 1008MOL0     O32932   5.352   0.756   8.045 -0.5878  0.1841  0.1390
 1008MOL0     C32933   5.354   0.761   8.191  0.1370 -0.6761  0.8495
 1008MOL0     C32934   5.312   0.627   8.250  0.3345  0.1146 -0.0787
 1008MOL0     C32935   5.160   0.616   8.270  0.4865 -0.1797  0.8496
 1008MOL0     C32936   5.120   0.490   8.348 -0.5199 -0.2472 -0.0928
 1008MOL0     C32937   4.966   0.491   8.371 -0.4423 -0.3014  0.5035
 1008MOL0     C32938   4.932   0.358   8.442 -0.1755  0.4913  0.0938
 1008MOL0     C32939   4.785   0.337   8.468  0.9226  0.1449  0.0147
 1008MOL0     C32940   4.721   0.422   8.581 -1.1236  0.5042 -0.8952
 1008MOL0     N32941   4.571   0.406   8.596 -0.2575  0.5103 -0.7902
 1008MOL0     C32942   4.476   0.423   8.489  1.0524 -0.0581 -0.5687
 1008MOL0     C32943   4.356   0.418   8.552 -0.0508 -0.0001 -0.2870
 1008MOL0     C32944   4.221   0.438   8.483 -0.3456  0.1078  0.0009
 1008MOL0     C32945   4.115   0.336   8.510  0.4023 -0.6804  0.4765
 1008MOL0     C32946   3.996   0.345   8.407 -0.0189  0.2185 -0.4342
 1008MOL0     C32947   3.932   0.208   8.387  0.0774  0.4866  0.3154
 1008MOL0     O32948   3.805   0.229   8.324 -0.1292  0.2832 -0.2629
 1008MOL0     C32949   3.711   0.126   8.343 -0.0177 -0.6799 -0.0141
 1008MOL0     C32950   3.581   0.159   8.324  0.4111 -0.7078  0.1329
 1008MOL0     C32951   3.475   0.070   8.350 -0.4692 -0.7270 -0.2839
 1008MOL0     C32952   3.499  -0.066   8.378 -0.0076  0.0240 -0.2041
 1008MOL0     C32953   3.386  -0.162   8.385  0.2007 -0.1066 -0.4710
 1008MOL0     O32954   3.269  -0.107   8.401  0.1698  0.3363 -0.7096
 1008MOL0     C32955   3.145  -0.175   8.394 -1.2849 -0.4377  0.5591
 1008MOL0     C32956   3.036  -0.108   8.442 -0.6921  0.8737  0.3176
 1008MOL0     C32957   2.908  -0.152   8.425 -0.4387  0.0412 -0.2127
 1008MOL0     C32958   2.884  -0.283   8.373 -0.5175  0.1649 -0.4676
 1008MOL0     O32959   2.759  -0.338   8.376  0.3061  0.5579  0.1759
 1008MOL0     C32960   2.722  -0.451   8.301 -0.0058  0.5172 -0.2871
 1008MOL0     C32961   2.574  -0.467   8.290 -0.6055  1.4700  0.0610
 1008MOL0     C32962   2.515  -0.377   8.180 -0.9095  0.2695 -0.0978
 1008MOL0     C32963   2.361  -0.385   8.173 -0.7116  0.5067  0.1863
 1008MOL0     C32964   2.317  -0.511   8.110  0.0066  0.4250  0.5130
 1008MOL0     C32965   2.163  -0.537   8.123 -1.2649 -0.6218 -0.5858
 1008MOL0     C32966   2.112  -0.637   8.014  0.1387 -0.0139 -0.6585
 1008MOL0     C32967   1.967  -0.677   8.052  0.4930 -0.5701 -0.4647
 1008MOL0    Cl32968   1.868  -0.533   8.051  0.3093 -0.0501 -0.5355
 1008MOL0     C32969   2.998  -0.351   8.326 -0.2439 -0.7667  0.5317
 1008MOL0     C32970   3.127  -0.302   8.340 -0.3671 -0.0188  0.1245
 1008MOL0     O32971   3.411  -0.284   8.387  0.1655  1.1531 -0.2279
 1008MOL0     C32972   3.640  -0.099   8.391 -0.0883  0.8375  0.6271
 1008MOL0     C32973   3.739  -0.003   8.363  0.4798 -0.2805 -0.3099
 1008MOL0     N32974   4.386   0.400   8.687 -0.1505  0.1665  0.1712
 1008MOL0     N32975   4.509   0.399   8.716 -0.8538  0.6996  0.3019
 1008MOL0     C32976   5.488   0.737   7.855  0.3862  0.4803  0.3320
 1008MOL0     C32977   5.602   0.768   7.779  0.9788 -0.2116 -0.2690
 1008MOL0     C32978   5.939   1.074   7.664 -0.7009  0.1217  1.2752
 1008MOL0     C32979   5.972   1.210   7.647 -0.1904 -0.3156 -0.5738
 1008MOL0     C32980   6.104   1.255   7.653 -0.1278  0.2759 -0.6413
 1008MOL0     C32981   6.207   1.166   7.660 -0.0830 -1.0912 -0.0315
 1008MOL0     O32982   6.339   1.201   7.645  0.3265 -0.3343 -0.2130
 1008MOL0     C32983   6.379   1.332   7.605 -0.2860  0.2033  0.2588
 1008MOL0     C32984   6.527   1.336   7.569 -0.4926  0.3728  0.5277
 1008MOL0     C32985   6.570   1.451   7.489 -0.1700 -0.3363  0.7600
 1008MOL0     C32986   6.721   1.468   7.490  0.0248 -0.0173  0.0875
 1008MOL0     C32987   6.793   1.354   7.427  0.7957 -0.1204 -0.2187
 1008MOL0     C32988   6.865   1.256   7.408  0.5945 -0.8240  0.7953
 1008MOL0     C32989   6.175   1.030   7.661 -0.3967 -0.5027  0.1960
 1008MOL0     C32990   6.043   0.984   7.664 -0.1485 -0.3632 -0.6254
 1008MOL0     H32991   5.730   1.012   7.970 -1.6361  0.0357  2.7244
 1008MOL0     H32992   5.537   0.957   8.111  0.0070 -0.0308  0.1572
 1008MOL0     H32993   5.297   0.851   8.215  1.8532  1.5421 -2.5439
 1008MOL0     H32994   5.453   0.789   8.227  0.2222  2.3728 -1.3973
 1008MOL0     H32995   5.357   0.626   8.350 -1.4238  2.1215  0.8172
 1008MOL0     H32996   5.345   0.548   8.181 -2.4464 -1.1878 -0.0622
 1008MOL0     H32997   5.115   0.604   8.171  1.6435 -2.2472  0.5140
 1008MOL0     H32998   5.118   0.701   8.325 -0.2162 -0.0978  0.2023
 1008MOL0     H32999   5.136   0.393   8.301  2.4889 -0.6762  1.5955
 1008MOL0     H33000   5.180   0.485   8.439 -0.4781 -2.0963 -0.1877
 1008MOL0     H33001   4.909   0.492   8.277 -0.1770 -0.8303  0.3316
 1008MOL0     H33002   4.941   0.585   8.420 -1.6557  0.6565 -1.8102
 1008MOL0     H33003   4.979   0.366   8.541 -1.3248 -0.6460  0.7601
 1008MOL0     H33004   4.970   0.270   8.390 -1.7486  0.1549 -0.5273
 1008MOL0     H33005   4.736   0.362   8.374 -0.3254 -0.2380  0.5354
 1008MOL0     H33006   4.765   0.232   8.491  0.9214 -0.3141 -1.9421
 1008MOL0     H33007   4.730   0.528   8.559 -5.3677  1.4433  0.9463
 1008MOL0     H33008   4.773   0.394   8.674 -2.5885  2.1328  0.4774
 1008MOL0     H33009   4.494   0.426   8.382 -0.1330  0.2185 -0.7767
 1008MOL0     H33010   4.240   0.450   8.376  0.2483  0.6322  0.1625
 1008MOL0     H33011   4.182   0.536   8.509 -5.1091 -0.7918 -2.5411
 1008MOL0     H33012   4.067   0.368   8.603  0.9100 -0.9515  0.8350
 1008MOL0     H33013   4.162   0.237   8.515  1.1109 -0.3934 -0.3220
 1008MOL0     H33014   3.922   0.418   8.440 -2.3751 -1.8162 -0.9201
 1008MOL0     H33015   4.034   0.384   8.313  0.3941  2.8357  0.7284
 1008MOL0     H33016   3.918   0.153   8.481 -0.2817  1.5717  0.9238
 1008MOL0     H33017   4.009   0.162   8.325 -1.4141 -1.0937 -0.4296
 1008MOL0     H33018   3.568   0.262   8.291  3.4836 -0.2857 -0.0023
 1008MOL0     H33019   3.374   0.108   8.338  0.0512  0.9025  0.2441
 1008MOL0     H33020   3.041  -0.010   8.490  1.5294  1.3753 -0.8038
 1008MOL0     H33021   2.823  -0.104   8.473  0.2741 -0.1512  1.3049
 1008MOL0     H33022   2.764  -0.543   8.343  0.4306 -0.0155 -1.8265
 1008MOL0     H33023   2.769  -0.452   8.202  2.2619  2.5447  0.6648
 1008MOL0     H33024   2.526  -0.459   8.388 -0.2117 -1.0706  0.5308
 1008MOL0     H33025   2.562  -0.572   8.262 -1.2230  1.7536 -0.7342
 1008MOL0     H33026   2.569  -0.396   8.087  1.5258 -0.5506  1.3863
 1008MOL0     H33027   2.554  -0.279   8.208 -0.4809  0.1535 -0.2745
 1008MOL0     H33028   2.315  -0.392   8.272 -1.3337  1.6336 -0.0009
 1008MOL0     H33029   2.317  -0.298   8.122  1.8080  0.2192 -2.7232
 1008MOL0     H33030   2.379  -0.582   8.165  2.7663  1.3775 -1.1945
 1008MOL0     H33031   2.343  -0.510   8.004 -1.0657 -1.9291  0.1601
 1008MOL0     H33032   2.108  -0.443   8.114 -0.2605  0.0408  0.0853
 1008MOL0     H33033   2.132  -0.578   8.220 -1.7347  1.8569  0.3802
 1008MOL0     H33034   2.121  -0.590   7.916  3.4203 -0.6474 -0.7616
 1008MOL0     H33035   2.180  -0.722   8.006 -1.5862 -1.2875 -2.5933
 1008MOL0     H33036   1.952  -0.730   8.146 -0.5159 -0.7941 -0.7456
 1008MOL0     H33037   1.931  -0.749   7.978  0.4048  0.9321 -1.9488
 1008MOL0     H33038   2.978  -0.444   8.273 -1.8130  1.0135 -2.2601
 1008MOL0     H33039   3.212  -0.361   8.308 -0.7486 -2.0088  2.4517
 1008MOL0     H33040   3.672  -0.201   8.405 -2.3719 -0.2300 -1.3323
 1008MOL0     H33041   3.841  -0.038   8.370  1.0646  1.5778  3.3750
 1008MOL0     H33042   5.420   0.659   7.824  0.8793 -0.1584  0.8190
 1008MOL0     H33043   5.613   0.728   7.679 -4.7286 -1.0803 -0.8811
 1008MOL0     H33044   5.888   1.279   7.644  2.6540  3.4760  0.2393
 1008MOL0     H33045   6.123   1.362   7.654  0.2347  0.2156 -0.9546
 1008MOL0     H33046   6.343   1.404   7.680 -0.1228 -1.1351  1.6755
 1008MOL0     H33047   6.320   1.366   7.519  1.1928 -0.9009 -1.2503
 1008MOL0     H33048   6.590   1.333   7.658  2.2779 -1.0385 -1.3547
 1008MOL0     H33049   6.553   1.242   7.519  3.1512  1.6809 -0.3338
 1008MOL0     H33050   6.528   1.542   7.532 -0.8836  1.1566 -2.7525
 1008MOL0     H33051   6.528   1.442   7.388  2.1781  0.6580 -0.3746
 1008MOL0     H33052   6.759   1.557   7.439 -0.0319 -0.3137 -0.4708
 1008MOL0     H33053   6.749   1.473   7.596  2.8776 -0.2558 -0.5608
 1008MOL0     H33054   6.931   1.173   7.392  0.0610 -0.9887 -0.6676
 1008MOL0     H33055   6.254   0.955   7.662 -0.3019 -0.4107  1.9069
 1008MOL0     H33056   6.028   0.877   7.670 -1.8992 -0.3278 -2.9114
 1009MOL0     O33057   9.577   1.587   2.878  0.3747  0.4240 -0.2466
 1009MOL0     C33058   9.481   1.586   2.797 -0.2060  0.9208 -0.1252
 1009MOL0     O33059   9.484   1.579   2.661 -0.6607  0.4706  0.7772
 1009MOL0     C33060   9.607   1.586   2.604  0.4311 -0.2337  0.7965
 1009MOL0     C33061   9.640   1.691   2.521 -0.3078 -0.3465 -0.5709
 1009MOL0     C33062   9.761   1.703   2.457  0.7396 -0.3397  0.0182
 1009MOL0     C33063   9.862   1.612   2.482  0.2854 -0.3676  0.2962
 1009MOL0     O33064   9.992   1.608   2.430 -0.2438 -0.5165  0.0959
 1009MOL0     C33065  10.045   1.740   2.382  0.7642  0.0533  0.1823
 1009MOL0     C33066  10.194   1.727   2.384  0.3032  0.0351 -0.2479
 1009MOL0     C33067  10.248   1.875   2.386 -0.6961  0.4449  0.4305
 1009MOL0     C33068  10.399   1.876   2.362  0.9206  0.9060  0.2990
 1009MOL0     C33069  10.450   2.018   2.362 -0.0344  0.0765 -0.2237
 1009MOL0     C33070  10.588   2.033   2.285 -0.6075  0.0748  0.6871
 1009MOL0     C33071  10.647   2.169   2.284 -0.5991 -0.0652 -1.0233
 1009MOL0     C33072  10.772   2.197   2.200  0.8683 -0.4988  0.3189
 1009MOL0     N33073  10.801   2.344   2.216 -0.4885 -0.1472  0.5764
 1009MOL0     C33074  10.898   2.396   2.297 -0.3211  0.1854  0.1496
 1009MOL0     C33075  10.884   2.531   2.288  0.8654 -0.1053 -0.2055
 1009MOL0     C33076  10.961   2.635   2.367 -0.4084  0.3504  1.2055
 1009MOL0     C33077  10.931   2.640   2.515  0.1989  0.3516 -0.4200
 1009MOL0     C33078  10.993   2.766   2.578  0.0158  0.3158  0.4760
 1009MOL0     C33079  10.933   2.782   2.721 -0.8089  0.2427  0.0065
 1009MOL0     O33080  10.794   2.776   2.733  0.5575 -0.1696  0.1163
 1009MOL0     C33081  10.740   2.797   2.856  0.2205  0.4643 -0.1223
 1009MOL0     C33082  10.609   2.785   2.868 -0.1966 -0.1957 -0.2263
 1009MOL0     C33083  10.544   2.779   2.989  0.3823 -0.3735 -0.0509
 1009MOL0     C33084  10.610   2.807   3.114 -0.5132  0.2243 -0.0226
 1009MOL0     C33085  10.539   2.825   3.242  0.1886  0.6346 -0.7197
 1009MOL0     O33086  10.405   2.805   3.246 -0.5273 -0.6507  0.4866
 1009MOL0     C33087  10.330   2.811   3.357  0.0660 -0.0421  0.2650
 1009MOL0     C33088  10.354   2.827   3.496  0.5574 -0.2758  0.5997
 1009MOL0     C33089  10.244   2.828   3.587 -0.3808  0.1464 -0.2149
 1009MOL0     C33090  10.110   2.809   3.554 -0.3510  0.4477  0.5943
 1009MOL0     O33091  10.004   2.805   3.635 -0.1633  0.0456 -0.5234
 1009MOL0     C33092  10.037   2.724   3.750 -0.4487 -0.0806  0.9136
 1009MOL0     C33093   9.906   2.662   3.795 -0.3671  0.6913  0.2443
 1009MOL0     C33094   9.926   2.585   3.929 -0.3663 -0.4698 -0.3368
 1009MOL0     C33095   9.792   2.536   3.987 -0.1243  0.4880  0.4317
 1009MOL0     C33096   9.802   2.485   4.132 -0.1865  0.9692  0.3396
 1009MOL0     C33097   9.668   2.469   4.209  0.2208 -0.9289  1.1672
 1009MOL0     C33098   9.577   2.368   4.143  0.9439  0.0894 -0.0853
 1009MOL0     C33099   9.448   2.332   4.219 -0.2787 -0.0676  0.6016
 1009MOL0    Cl33100   9.365   2.488   4.251  0.1959  0.0032  0.1618
 1009MOL0     C33101  10.088   2.803   3.418 -0.0622  0.8522  0.6206
 1009MOL0     C33102  10.192   2.803   3.326  0.0568  0.0245  0.4095
 1009MOL0     O33103  10.610   2.853   3.339 -0.3588  0.1031 -0.6560
 1009MOL0     C33104  10.750   2.821   3.108 -0.2826  0.0739  0.5823
 1009MOL0     C33105  10.812   2.816   2.979  0.2893 -0.8819  0.3129
 1009MOL0     N33106  10.775   2.544   2.203 -0.2412 -0.3907  0.0212
 1009MOL0     N33107  10.739   2.445   2.141  0.7812 -0.2361  0.5528
 1009MOL0     C33108   9.834   1.505   2.566 -1.0025 -0.2049 -0.4703
 1009MOL0     C33109   9.709   1.487   2.625 -0.5491 -0.0678  0.2516
 1009MOL0     C33110   9.345   1.585   2.858 -0.5057 -0.4177 -0.5118
 1009MOL0     C33111   9.224   1.594   2.778 -1.5185 -0.0520 -1.1968
 1009MOL0     C33112   9.105   1.596   2.842  1.4183  0.1578 -0.0202
 1009MOL0     C33113   9.089   1.589   2.981 -0.8920  0.1644 -0.1783
 1009MOL0     O33114   8.974   1.581   3.056 -0.2914 -0.8272  0.0793
 1009MOL0     C33115   8.848   1.615   2.994  0.6350  1.2809 -0.6220
 1009MOL0     C33116   8.775   1.686   3.102 -0.1381  0.2199 -0.4084
 1009MOL0     C33117   8.618   1.683   3.079  0.2266 -0.1322  0.4709
 1009MOL0     C33118   8.552   1.765   3.191  0.4542  0.2648 -0.0545
 1009MOL0     C33119   8.411   1.734   3.220 -0.0659  0.4276  0.2972
 1009MOL0     C33120   8.302   1.691   3.255  0.0918 -0.0809 -0.5385
 1009MOL0     C33121   9.206   1.587   3.059 -0.5033  0.4869 -0.4656
 1009MOL0     C33122   9.335   1.582   2.997 -0.1236 -0.1674  0.0699
 1009MOL0     H33123   9.563   1.768   2.530  1.1123  0.9902  0.6634
 1009MOL0     H33124   9.771   1.789   2.391  0.1716 -2.7086 -3.3443
 1009MOL0     H33125  10.020   1.819   2.454  0.4126 -0.9613  1.2106
 1009MOL0     H33126  10.014   1.770   2.282 -0.1764  2.0511  1.0111
 1009MOL0     H33127  10.233   1.665   2.302 -0.6247 -1.1565  0.1833
 1009MOL0     H33128  10.218   1.680   2.479  0.9057 -0.8799 -0.8337
 1009MOL0     H33129  10.233   1.916   2.487  2.0821 -3.1888  2.5962
 1009MOL0     H33130  10.207   1.933   2.303  0.5239 -1.2730 -1.4730
 1009MOL0     H33131  10.461   1.814   2.427  1.1368  0.3338 -0.4363
 1009MOL0     H33132  10.424   1.836   2.263  1.6688 -2.1748  1.6453
 1009MOL0     H33133  10.461   2.058   2.463  2.4401  1.3040 -0.8935
 1009MOL0     H33134  10.382   2.091   2.319 -1.0988 -2.5618 -3.4498
 1009MOL0     H33135  10.581   1.997   2.182 -1.9771 -0.9961  1.1302
 1009MOL0     H33136  10.664   1.971   2.332  0.4744  0.1738 -0.8536
 1009MOL0     H33137  10.577   2.242   2.242 -0.7502 -0.6542 -1.8227
 1009MOL0     H33138  10.671   2.208   2.384 -2.1167 -1.3990 -0.0863
 1009MOL0     H33139  10.748   2.177   2.095 -1.5725  2.5058  0.1920
 1009MOL0     H33140  10.854   2.138   2.242  0.4574  0.3421  2.4136
 1009MOL0     H33141  10.964   2.345   2.366  1.5135 -0.3274 -1.8406
 1009MOL0     H33142  10.945   2.732   2.319 -0.4375 -0.7389 -1.1208
 1009MOL0     H33143  11.067   2.609   2.369 -0.3922 -0.1345 -1.6998
 1009MOL0     H33144  10.967   2.544   2.553  0.5742  0.2514 -1.0120
 1009MOL0     H33145  10.824   2.637   2.538  0.9616  0.2961  3.8600
 1009MOL0     H33146  11.102   2.753   2.582 -0.2038 -1.7250  0.9873
 1009MOL0     H33147  10.973   2.849   2.510 -1.1451 -1.7357 -1.8823
 1009MOL0     H33148  10.972   2.876   2.762  0.6027 -1.2917  2.4318
 1009MOL0     H33149  10.990   2.709   2.779  1.9136  1.9865 -0.3094
 1009MOL0     H33150  10.551   2.754   2.781 -0.6881  2.1048 -0.7783
 1009MOL0     H33151  10.438   2.759   2.983  0.6501 -1.2922 -3.7101
 1009MOL0     H33152  10.451   2.850   3.540  1.0189 -1.9637  0.5427
 1009MOL0     H33153  10.255   2.846   3.693 -2.8082 -0.0885  0.1280
 1009MOL0     H33154  10.076   2.779   3.836 -1.6061  0.1132  1.3406
 1009MOL0     H33155  10.113   2.650   3.724 -1.0938 -0.4679  0.0728
 1009MOL0     H33156   9.873   2.593   3.717 -1.0888  0.6336  0.5910
 1009MOL0     H33157   9.824   2.735   3.795 -0.7308  0.2949  0.8192
 1009MOL0     H33158   9.983   2.646   3.999  0.9503  1.4144 -2.8818
 1009MOL0     H33159   9.989   2.499   3.901 -0.9134 -0.2908 -2.2295
 1009MOL0     H33160   9.733   2.627   3.992 -2.4625 -0.9724  0.9535
 1009MOL0     H33161   9.737   2.468   3.921  0.7939 -1.3141  1.4167
 1009MOL0     H33162   9.870   2.544   4.195  0.8785  0.5829 -0.4264
 1009MOL0     H33163   9.849   2.386   4.126 -2.7928 -0.2789 -1.6759
 1009MOL0     H33164   9.628   2.566   4.241  0.2251 -0.3504 -0.4624
 1009MOL0     H33165   9.704   2.420   4.300 -1.0208 -2.9681  0.6238
 1009MOL0     H33166   9.540   2.415   4.051 -1.0146 -0.5932  0.2975
 1009MOL0     H33167   9.629   2.273   4.132 -2.5311 -2.0120 -0.0100
 1009MOL0     H33168   9.468   2.274   4.309 -0.9699 -1.4751 -0.1154
 1009MOL0     H33169   9.387   2.271   4.151  0.2100  1.4336 -1.2822
 1009MOL0     H33170   9.982   2.792   3.400 -0.0160  2.3686 -0.9332
 1009MOL0     H33171  10.171   2.777   3.223 -0.4465 -1.7125  0.9181
 1009MOL0     H33172  10.808   2.848   3.196  0.2266 -0.3511  0.3857
 1009MOL0     H33173  10.919   2.833   2.971 -0.0625  0.7808 -1.7437
 1009MOL0     H33174   9.916   1.441   2.597 -0.9027  1.1624  2.3866
 1009MOL0     H33175   9.687   1.400   2.686 -1.7746  0.0969  0.0639
 1009MOL0     H33176   9.226   1.600   2.670  0.8452  1.4450 -1.1429
 1009MOL0     H33177   9.021   1.605   2.773  2.7605 -1.9123 -2.0544
 1009MOL0     H33178   8.798   1.520   2.973  0.2260  1.8248 -2.2579
 1009MOL0     H33179   8.854   1.675   2.903 -2.1286  2.5128 -0.1021
 1009MOL0     H33180   8.794   1.649   3.203 -0.9535  2.2592  0.5500
 1009MOL0     H33181   8.813   1.788   3.104  1.2328 -0.2672 -0.5307
 1009MOL0     H33182   8.585   1.579   3.087  2.4621 -0.7549  2.9094
 1009MOL0     H33183   8.586   1.718   2.981 -1.4687 -5.0576 -1.0680
 1009MOL0     H33184   8.611   1.746   3.281 -0.5718  1.9153  1.0159
 1009MOL0     H33185   8.559   1.873   3.180 -1.5877  0.3650 -0.7141
 1009MOL0     H33186   8.212   1.657   3.301  0.6455 -1.6433 -0.5584
 1009MOL0     H33187   9.198   1.587   3.167  2.7871  0.3967 -0.1015
 1009MOL0     H33188   9.423   1.555   3.055 -0.3088 -0.7131  0.1009
 1010MOL0     O33189   9.904   0.823   4.071  0.4050 -0.5861 -0.4752
 1010MOL0     C33190   9.962   0.892   3.991 -0.5122  0.0019 -0.2079
 1010MOL0     O33191   9.910   0.964   3.893  0.0815  0.1107 -0.1693
 1010MOL0     C33192   9.771   0.961   3.870 -0.7237 -0.2875  0.1653
 1010MOL0     C33193   9.679   0.860   3.890  0.8077 -0.4855  0.0535
 1010MOL0     C33194   9.547   0.871   3.840 -0.8141  0.4731 -0.5887
 1010MOL0     C33195   9.509   0.979   3.770  0.4963 -0.1335 -0.3066
 1010MOL0     O33196   9.380   0.979   3.733  0.2260  0.0832 -0.1468
 1010MOL0     C33197   9.325   1.115   3.692  0.5781 -0.2497 -0.5299
 1010MOL0     C33198   9.178   1.108   3.646 -0.0179  0.7576  0.4620
 1010MOL0     C33199   9.145   0.983   3.557 -0.5915  0.9337 -0.3290
 1010MOL0     C33200   8.995   0.971   3.529  0.0905 -0.6352 -0.4435
 1010MOL0     C33201   8.957   0.845   3.448 -0.2595 -0.2062  0.2041
 1010MOL0     C33202   8.816   0.857   3.395 -0.1254 -0.3876  0.4068
 1010MOL0     C33203   8.760   0.741   3.309  0.1411 -0.2384  0.0699
 1010MOL0     C33204   8.613   0.746   3.295  1.1465  0.0061  0.0594
 1010MOL0     N33205   8.570   0.631   3.214 -0.0091 -0.3035  0.6264
 1010MOL0     C33206   8.461   0.633   3.130  0.2268 -0.8390 -0.4579
 1010MOL0     C33207   8.433   0.502   3.114 -0.5341 -0.6103 -0.1518
 1010MOL0     C33208   8.309   0.448   3.046 -0.8793 -0.1425 -0.0654
 1010MOL0     C33209   8.211   0.411   3.160 -0.0479 -0.6099  0.6996
 1010MOL0     C33210   8.109   0.330   3.092 -1.0784 -0.1346  0.9069
 1010MOL0     C33211   7.993   0.297   3.187  0.1356 -0.6835  0.1480
 1010MOL0     O33212   7.868   0.325   3.121  0.3434 -1.5175 -0.1184
 1010MOL0     C33213   7.770   0.251   3.174  0.3559  0.4190  0.8295
 1010MOL0     C33214   7.763   0.214   3.308 -0.1281  0.9552  0.1918
 1010MOL0     C33215   7.651   0.141   3.346 -0.3098 -0.4619  0.4091
 1010MOL0     C33216   7.558   0.093   3.251  0.2293 -0.4848  0.7094
 1010MOL0     C33217   7.445   0.003   3.282  0.4494  0.2296 -0.4088
 1010MOL0     O33218   7.386  -0.070   3.182  0.0903  0.3048 -0.7056
 1010MOL0     C33219   7.287  -0.160   3.207 -0.6253 -0.2537 -0.5733
 1010MOL0     C33220   7.166  -0.125   3.273 -0.2225 -0.3376  0.3870
 1010MOL0     C33221   7.062  -0.213   3.281 -0.7355  0.9258 -0.2632
 1010MOL0     C33222   7.072  -0.341   3.220 -0.6589 -0.5216 -0.6302
 1010MOL0     O33223   6.971  -0.433   3.208  0.0884 -0.5428 -0.5153
 1010MOL0     C33224   6.840  -0.371   3.217  0.6495 -0.5271 -0.7285
 1010MOL0     C33225   6.731  -0.477   3.213 -0.7315 -0.3506  0.0034
 1010MOL0     C33226   6.610  -0.422   3.152  0.9032  0.4491 -0.1027
 1010MOL0     C33227   6.474  -0.493   3.187 -0.3267 -0.4157 -0.5362
 1010MOL0     C33228   6.375  -0.475   3.074  0.1089  0.2589 -0.4307
 1010MOL0     C33229   6.257  -0.566   3.095  0.6507  0.2620 -0.1894
 1010MOL0     C33230   6.134  -0.533   3.011 -0.3021 -0.1775  0.4031
 1010MOL0     C33231   6.023  -0.622   3.045  0.5930  0.2798 -0.1111
 1010MOL0    Cl33232   6.046  -0.791   2.990 -0.0536  0.0442  0.0081
 1010MOL0     C33233   7.197  -0.376   3.168 -0.0237  0.6683  0.1244
 1010MOL0     C33234   7.300  -0.290   3.163 -0.3556 -0.0314 -1.1089
 1010MOL0     O33235   7.415  -0.000   3.399 -0.0826  0.1241 -0.0720
 1010MOL0     C33236   7.575   0.127   3.116  0.2572 -0.3056  0.2087
 1010MOL0     C33237   7.679   0.205   3.078  0.1852  0.1967  0.4622
 1010MOL0     N33238   8.539   0.421   3.165  0.0483  0.4004 -0.5615
 1010MOL0     N33239   8.619   0.500   3.239 -0.4001 -0.3312  0.6057
 1010MOL0     C33240   9.597   1.090   3.761  0.3586  0.2464 -0.6734
 1010MOL0     C33241   9.730   1.078   3.805  0.7971 -0.2431  0.0392
 1010MOL0     C33242  10.112   0.911   3.998  0.6401  0.1308 -1.3022
 1010MOL0     C33243  10.191   0.863   4.102  0.1517  0.3301 -0.4999
 1010MOL0     C33244  10.330   0.890   4.112 -0.1838  0.5905  0.0066
 1010MOL0     C33245  10.394   0.942   4.004  0.0318  1.0811 -0.5719
 1010MOL0     O33246  10.528   0.958   4.020 -0.2591  0.1171 -0.3392
 1010MOL0     C33247  10.612   0.977   3.902  0.0070 -0.2838  0.4492
 1010MOL0     C33248  10.759   0.955   3.931  0.2139  0.0213 -0.1470
 1010MOL0     C33249  10.836   0.933   3.808 -0.3089 -0.2759  0.3172
 1010MOL0     C33250  10.982   0.934   3.846 -0.0024  0.8663 -0.6077
 1010MOL0     C33251  11.041   1.054   3.899 -0.2353  0.0730  0.6436
 1010MOL0     C33252  11.085   1.155   3.952  0.2701  1.0436  1.0473
 1010MOL0     C33253  10.322   0.963   3.884 -0.1305  0.4471  0.1603
 1010MOL0     C33254  10.179   0.961   3.891 -0.4138  0.0965 -0.1102
 1010MOL0     H33255   9.715   0.765   3.927  1.7034 -0.3434 -0.4182
 1010MOL0     H33256   9.474   0.792   3.853 -2.2657  2.0112  1.1602
 1010MOL0     H33257   9.378   1.143   3.601  1.6576 -2.0622 -0.5227
 1010MOL0     H33258   9.340   1.193   3.767  1.9318  1.0607 -2.0813
 1010MOL0     H33259   9.160   1.194   3.581  2.4572  0.8887 -0.1588
 1010MOL0     H33260   9.113   1.103   3.734 -0.6684  0.5263 -0.0249
 1010MOL0     H33261   9.183   0.893   3.607  0.2752  1.7013  0.4257
 1010MOL0     H33262   9.192   0.983   3.458  1.4551  0.1540  0.5839
 1010MOL0     H33263   8.933   0.976   3.619 -0.7544 -1.3415 -0.9592
 1010MOL0     H33264   8.974   1.062   3.473  1.6769  1.4928  2.1729
 1010MOL0     H33265   8.949   0.754   3.509 -1.5390 -0.0958  0.2198
 1010MOL0     H33266   9.028   0.832   3.365 -1.2970 -1.6317 -0.5080
 1010MOL0     H33267   8.829   0.950   3.338  0.0240  0.3838  1.6571
 1010MOL0     H33268   8.742   0.877   3.474  0.4507  4.1747  0.0473
 1010MOL0     H33269   8.805   0.748   3.210  0.2239 -2.3764 -0.0868
 1010MOL0     H33270   8.800   0.657   3.365  0.2389 -1.3985 -1.6813
 1010MOL0     H33271   8.590   0.847   3.260 -0.2615 -0.6032 -0.8823
 1010MOL0     H33272   8.560   0.737   3.390  0.6834 -0.5573 -0.2502
 1010MOL0     H33273   8.399   0.713   3.091 -2.6968 -1.4346  2.5421
 1010MOL0     H33274   8.343   0.357   2.995  0.8590  2.1913 -3.4720
 1010MOL0     H33275   8.280   0.516   2.965 -0.2120 -0.2101 -0.3677
 1010MOL0     H33276   8.158   0.498   3.201 -2.0535 -2.2682  1.7920
 1010MOL0     H33277   8.265   0.355   3.238 -0.1636 -1.5759  0.0979
 1010MOL0     H33278   8.073   0.385   3.004  1.3628  0.0536 -0.0622
 1010MOL0     H33279   8.158   0.239   3.057  1.9749  0.9170  2.0560
 1010MOL0     H33280   7.993   0.366   3.272 -0.6840  0.7963 -1.0042
 1010MOL0     H33281   7.996   0.193   3.221 -4.4341 -2.3308 -3.3813
 1010MOL0     H33282   7.844   0.229   3.379  0.4288 -0.6361 -0.0717
 1010MOL0     H33283   7.645   0.107   3.449  1.6918 -1.1191  0.3633
 1010MOL0     H33284   7.148  -0.030   3.321 -2.7636  1.5711 -3.8567
 1010MOL0     H33285   6.975  -0.185   3.339  1.5460  1.2954  3.3039
 1010MOL0     H33286   6.819  -0.303   3.135 -1.6417 -2.8348 -2.2252
 1010MOL0     H33287   6.818  -0.313   3.307  1.1307 -0.7901 -0.4320
 1010MOL0     H33288   6.710  -0.492   3.319 -0.0810  0.5439  0.2734
 1010MOL0     H33289   6.761  -0.569   3.163 -1.5792 -0.6567  0.0371
 1010MOL0     H33290   6.626  -0.441   3.045  1.4967  0.0809  0.0460
 1010MOL0     H33291   6.600  -0.314   3.164  0.0203  0.2157  1.5320
 1010MOL0     H33292   6.501  -0.595   3.215  0.7599 -0.4083 -1.4855
 1010MOL0     H33293   6.438  -0.445   3.278  1.0882 -0.6088  0.1438
 1010MOL0     H33294   6.425  -0.503   2.980 -0.1046  0.4751 -0.6116
 1010MOL0     H33295   6.329  -0.375   3.075  1.2812  0.8785 -2.3399
 1010MOL0     H33296   6.227  -0.572   3.200  0.8360  0.1265 -0.1435
 1010MOL0     H33297   6.276  -0.671   3.074 -4.7752 -1.3175  1.2565
 1010MOL0     H33298   6.104  -0.429   3.026  3.4274  1.5380 -2.5524
 1010MOL0     H33299   6.154  -0.545   2.904 -2.9688  1.7340 -0.4203
 1010MOL0     H33300   5.937  -0.577   2.993  2.5122  1.5763 -2.3422
 1010MOL0     H33301   6.002  -0.622   3.153  1.3228 -0.9295  0.0536
 1010MOL0     H33302   7.198  -0.479   3.134 -1.3501  0.6188  0.1743
 1010MOL0     H33303   7.398  -0.327   3.133  0.3025 -2.3415  3.1340
 1010MOL0     H33304   7.518   0.075   3.039 -0.5246  2.1750 -1.0189
 1010MOL0     H33305   7.678   0.233   2.973 -2.6273 -1.0201  0.0719
 1010MOL0     H33306   9.564   1.180   3.710  0.6566  0.3165 -0.7410
 1010MOL0     H33307   9.809   1.150   3.790  0.9806 -0.6074 -0.8083
 1010MOL0     H33308  10.144   0.819   4.190  1.5168 -0.3169 -0.0645
 1010MOL0     H33309  10.400   0.853   4.186  1.2151 -1.8178 -2.3503
 1010MOL0     H33310  10.600   1.082   3.875 -0.7932  0.0392  1.9980
 1010MOL0     H33311  10.579   0.917   3.817 -1.0839 -3.1420  2.7180
 1010MOL0     H33312  10.792   1.046   3.982  0.0439 -0.8979  1.6983
 1010MOL0     H33313  10.766   0.860   3.986  1.0597 -1.5669 -2.8179
 1010MOL0     H33314  10.815   1.001   3.724  2.7012  0.7816  0.3007
 1010MOL0     H33315  10.821   0.831   3.770 -2.7014 -0.9199  2.7253
 1010MOL0     H33316  11.003   0.856   3.920  1.0020  2.9674  1.4533
 1010MOL0     H33317  11.041   0.906   3.758 -2.5832 -1.0995 -1.8371
 1010MOL0     H33318  11.119   1.248   3.993  0.1239  1.0616  1.1284
 1010MOL0     H33319  10.382   0.996   3.800 -0.5136  0.6811 -0.0253
 1010MOL0     H33320  10.123   0.994   3.804 -2.2901  0.3323  1.1357
 1011MOL0     O33321   7.913  11.164   1.340  0.2010 -0.4603  0.6693
 1011MOL0     C33322   7.966  11.082   1.415 -0.4615  0.2231  0.0235
 1011MOL0     O33323   7.915  11.035   1.532 -0.3702  0.6592 -0.0908
 1011MOL0     C33324   7.823  11.111   1.601  0.1716 -0.6340  0.1323
 1011MOL0     C33325   7.687  11.070   1.600 -0.3508  0.2467  0.3059
 1011MOL0     C33326   7.585  11.143   1.666 -0.7529  0.5734  0.1363
 1011MOL0     C33327   7.622  11.267   1.723  0.0404 -0.2257 -0.0710
 1011MOL0     O33328   7.531  11.357   1.769 -0.1303 -0.7761 -0.0058
 1011MOL0     C33329   7.393  11.321   1.808  0.4511  0.4832  0.0159
 1011MOL0     C33330   7.323  11.451   1.805 -0.4236 -0.6661  0.7128
 1011MOL0     C33331   7.173  11.464   1.855  0.5501 -0.2261 -1.5901
 1011MOL0     C33332   7.170  11.409   1.998 -0.1416  0.5809 -0.5166
 1011MOL0     C33333   7.038  11.437   2.075 -0.4917 -0.0914  0.0271
 1011MOL0     C33334   6.997  11.582   2.074  0.7959 -0.8996  0.2455
 1011MOL0     C33335   6.882  11.600   2.170 -0.0244  0.0779  0.2309
 1011MOL0     C33336   6.756  11.535   2.122  0.2626  0.1211 -0.9234
 1011MOL0     N33337   6.651  11.559   2.229 -0.0218 -0.3687  0.2826
 1011MOL0     C33338   6.616  11.456   2.314 -1.1004  0.6712 -0.1797
 1011MOL0     C33339   6.526  11.513   2.403 -0.5557  0.2540  0.7899
 1011MOL0     C33340   6.466  11.444   2.520  0.1744  0.6274 -0.5773
 1011MOL0     C33341   6.337  11.506   2.545  0.1597  0.3840 -0.4891
 1011MOL0     C33342   6.274  11.435   2.666 -0.0421  0.4578 -0.0034
 1011MOL0     C33343   6.169  11.523   2.738  0.5565  0.3647  0.3366
 1011MOL0     O33344   6.085  11.432   2.807  0.2924 -0.5956 -0.1370
 1011MOL0     C33345   5.988  11.489   2.881  0.5583 -0.1770  0.7114
 1011MOL0     C33346   5.940  11.618   2.873 -0.0417 -0.5908 -0.0188
 1011MOL0     C33347   5.829  11.656   2.945  0.1139  0.4192  0.5081
 1011MOL0     C33348   5.749  11.578   3.024 -0.4460 -0.4721 -0.1205
 1011MOL0     C33349   5.638  11.639   3.097 -0.4832  0.1350 -0.3639
 1011MOL0     O33350   5.591  11.559   3.194 -1.0660 -0.3402  0.5196
 1011MOL0     C33351   5.492  11.614   3.265  0.8943  0.5505  0.0827
 1011MOL0     C33352   5.359  11.648   3.207 -0.6896 -0.3611  0.3256
 1011MOL0     C33353   5.256  11.692   3.294  0.6376 -0.1352  0.8645
 1011MOL0     C33354   5.272  11.698   3.432  0.8358  0.5438 -0.3497
 1011MOL0     O33355   5.165  11.740   3.497  0.1029  0.2739  0.0633
 1011MOL0     C33356   5.158  11.715   3.636 -0.1022  0.3515 -0.5404
 1011MOL0     C33357   5.008  11.744   3.666  0.4925  0.2752  0.0698
 1011MOL0     C33358   4.978  11.678   3.801  0.3379  0.5423 -1.0807
 1011MOL0     C33359   4.836  11.712   3.844 -0.0046 -0.4720  0.7361
 1011MOL0     C33360   4.812  11.676   3.982  0.3257  1.1900  0.0942
 1011MOL0     C33361   4.685  11.743   4.044  0.3775 -0.3715  0.1944
 1011MOL0     C33362   4.637  11.696   4.176 -0.2072  0.9837  0.2234
 1011MOL0     C33363   4.710  11.748   4.294 -0.1736 -0.1166 -0.3667
 1011MOL0    Cl33364   4.643  11.697   4.450 -0.2004  0.4483  0.1796
 1011MOL0     C33365   5.397  11.665   3.487  0.5843 -0.3662  0.3434
 1011MOL0     C33366   5.502  11.622   3.404 -0.2099  0.1724  0.2863
 1011MOL0     O33367   5.597  11.753   3.073 -0.7554 -0.3823  0.5439
 1011MOL0     C33368   5.801  11.443   3.033  0.2904 -0.2427  0.5733
 1011MOL0     C33369   5.916  11.401   2.961 -0.3635 -0.3872 -0.1009
 1011MOL0     N33370   6.511  11.650   2.361  0.1228  0.5051 -0.1355
 1011MOL0     N33371   6.582  11.674   2.257  0.2181  0.0410  0.3980
 1011MOL0     C33372   7.758  11.303   1.727  0.1878 -0.1677  0.4873
 1011MOL0     C33373   7.859  11.226   1.670  0.9315 -0.2585 -0.2298
 1011MOL0     C33374   8.098  11.025   1.362  0.1024  0.6549  0.1056
 1011MOL0     C33375   8.152  11.068   1.243 -0.0216  0.7722  0.1278
 1011MOL0     C33376   8.280  11.026   1.198  0.0733 -0.0166 -1.1987
 1011MOL0     C33377   8.361  10.939   1.281  1.0239  0.3870  0.5924
 1011MOL0     O33378   8.484  10.891   1.245 -0.3733 -0.7481  0.0829
 1011MOL0     C33379   8.599  10.981   1.263  0.5072 -0.3050 -0.5818
 1011MOL0     C33380   8.648  10.986   1.411  0.2821  0.0345 -0.3582
 1011MOL0     C33381   8.693  10.864   1.466 -0.4151  0.1916 -0.0026
 1011MOL0     C33382   8.677  10.857   1.621 -0.1103 -0.2946  0.0950
 1011MOL0     C33383   8.777  10.937   1.682  1.1184 -0.8506 -0.2367
 1011MOL0     C33384   8.857  11.010   1.738  0.4224  0.1543 -0.8948
 1011MOL0     C33385   8.300  10.898   1.408  0.3746 -0.8715 -0.2147
 1011MOL0     C33386   8.173  10.946   1.446  0.9353  0.0646  0.6002
 1011MOL0     H33387   7.670  10.972   1.558 -1.5439  0.7570 -0.4591
 1011MOL0     H33388   7.478  11.123   1.662 -0.3810 -2.2894  2.0187
 1011MOL0     H33389   7.375  11.276   1.906 -2.3653 -0.2725 -0.7682
 1011MOL0     H33390   7.341  11.256   1.738  2.7503 -1.6404  0.1453
 1011MOL0     H33391   7.320  11.481   1.700  1.9055  1.6675  1.2067
 1011MOL0     H33392   7.390  11.528   1.846  0.8906  0.8001 -3.6560
 1011MOL0     H33393   7.111  11.401   1.791 -1.0589  1.2321 -1.5247
 1011MOL0     H33394   7.130  11.564   1.857  1.6402  0.3011 -2.6534
 1011MOL0     H33395   7.180  11.302   2.013  3.7897  1.0101  1.1409
 1011MOL0     H33396   7.250  11.460   2.053 -0.3163  0.4303 -0.1222
 1011MOL0     H33397   7.031  11.396   2.176  3.9791  0.0172  0.5661
 1011MOL0     H33398   6.955  11.392   2.021 -0.7113  1.0787 -0.6606
 1011MOL0     H33399   6.963  11.613   1.975  0.5332  2.1152  1.1538
 1011MOL0     H33400   7.076  11.654   2.101 -0.6361  0.1964  1.7347
 1011MOL0     H33401   6.909  11.564   2.270  1.5298  0.3133 -0.0851
 1011MOL0     H33402   6.857  11.707   2.173  0.7130  0.2325  2.3231
 1011MOL0     H33403   6.769  11.428   2.104 -0.5474 -0.1736  0.1591
 1011MOL0     H33404   6.731  11.582   2.027 -0.3535  0.7395 -0.4637
 1011MOL0     H33405   6.657  11.356   2.317  0.1934  1.1751 -0.2327
 1011MOL0     H33406   6.527  11.436   2.611 -1.2018 -1.7991  0.2002
 1011MOL0     H33407   6.452  11.340   2.491 -1.5427  0.7545 -0.2725
 1011MOL0     H33408   6.281  11.490   2.453  2.0918 -1.0388 -1.4949
 1011MOL0     H33409   6.354  11.613   2.559  1.5500  0.7668 -4.1018
 1011MOL0     H33410   6.234  11.343   2.622 -0.2019 -0.3040  1.6558
 1011MOL0     H33411   6.347  11.413   2.744  2.0149  3.5735 -0.8347
 1011MOL0     H33412   6.115  11.580   2.662  0.4621  1.8349  1.4652
 1011MOL0     H33413   6.220  11.595   2.802 -0.7816  0.7904  0.9661
 1011MOL0     H33414   5.990  11.693   2.813  1.0164 -1.4268 -0.2013
 1011MOL0     H33415   5.797  11.756   2.915 -1.6801 -0.5285 -0.9157
 1011MOL0     H33416   5.338  11.643   3.100 -0.8419  1.4181  0.2451
 1011MOL0     H33417   5.157  11.717   3.256  0.7596  1.1285  1.3293
 1011MOL0     H33418   5.219  11.792   3.684 -1.3818  0.3055  1.2757
 1011MOL0     H33419   5.191  11.613   3.657 -0.0691  0.0683 -1.9057
 1011MOL0     H33420   4.951  11.706   3.581  0.2119  0.5181  0.1484
 1011MOL0     H33421   4.983  11.850   3.677 -0.1441  0.3386 -1.6564
 1011MOL0     H33422   5.048  11.713   3.877  0.7223  1.2374 -1.7438
 1011MOL0     H33423   4.997  11.570   3.797 -2.2319 -0.0103 -0.4874
 1011MOL0     H33424   4.832  11.821   3.840  1.3711 -0.4401 -0.5620
 1011MOL0     H33425   4.762  11.667   3.778  2.1686 -1.2824 -1.2710
 1011MOL0     H33426   4.899  11.715   4.036  2.3290 -1.3816 -1.0301
 1011MOL0     H33427   4.800  11.568   3.992 -0.5570  1.2941  0.2266
 1011MOL0     H33428   4.605  11.715   3.975 -1.4982  0.4027  1.9753
 1011MOL0     H33429   4.692  11.852   4.052 -0.7004 -0.4119  2.4176
 1011MOL0     H33430   4.537  11.739   4.186  0.4126  2.6038 -0.1554
 1011MOL0     H33431   4.639  11.587   4.180  1.4879  0.9404 -0.7830
 1011MOL0     H33432   4.703  11.858   4.293 -0.4607 -0.1270  0.2723
 1011MOL0     H33433   4.817  11.724   4.288  0.4586  2.2474  0.2816
 1011MOL0     H33434   5.419  11.684   3.592 -0.0570  1.4602  0.1819
 1011MOL0     H33435   5.596  11.595   3.449 -0.5863 -2.0710 -0.1462
 1011MOL0     H33436   5.750  11.371   3.097  0.3759  1.0871  2.1952
 1011MOL0     H33437   5.952  11.299   2.959 -1.1603 -0.7039  1.0352
 1011MOL0     H33438   7.771  11.403   1.766  1.2009  1.1023 -2.8171
 1011MOL0     H33439   7.958  11.270   1.665  0.5072  0.6169 -1.2898
 1011MOL0     H33440   8.099  11.140   1.182  1.6532  2.1055  0.1903
 1011MOL0     H33441   8.312  11.068   1.104  1.9915 -0.0233 -0.5808
 1011MOL0     H33442   8.578  11.079   1.219 -0.6513  0.2677  1.1458
 1011MOL0     H33443   8.682  10.930   1.212  1.0971  0.8777 -0.8269
 1011MOL0     H33444   8.733  11.053   1.424  0.0798  0.4768 -1.2459
 1011MOL0     H33445   8.567  11.027   1.472  0.9630  1.0863 -0.1297
 1011MOL0     H33446   8.795  10.861   1.427 -0.0921  1.9131  0.6103
 1011MOL0     H33447   8.641  10.785   1.411 -0.6517  2.3063 -3.1142
 1011MOL0     H33448   8.576  10.890   1.646 -0.2181 -0.5215 -0.0355
 1011MOL0     H33449   8.693  10.751   1.643  1.0725 -0.2900 -0.6600
 1011MOL0     H33450   8.927  11.059   1.801 -1.0252 -1.0399  1.8278
 1011MOL0     H33451   8.363  10.836   1.471 -0.5708 -1.2542  0.3765
 1011MOL0     H33452   8.122  10.918   1.538  1.8906 -2.0637  0.5455
 1012MOL0     O33453   2.529   2.910  10.524  0.3514 -0.2622 -0.7527
 1012MOL0     C33454   2.594   2.969  10.612  0.2830  0.0920  0.0445
 1012MOL0     O33455   2.541   3.056  10.702  0.4173  0.0619  0.3484
 1012MOL0     C33456   2.403   3.074  10.728 -1.0580 -0.0216 -0.0240
 1012MOL0     C33457   2.363   2.985  10.836 -0.3692  0.0489 -0.1748
 1012MOL0     C33458   2.229   2.983  10.868  0.1083  0.2524 -0.1860
 1012MOL0     C33459   2.138   3.074  10.810 -1.0337 -0.6742  0.4316
 1012MOL0     O33460   2.007   3.087  10.833  0.2684 -1.0002  0.4349
 1012MOL0     C33461   1.944   2.989  10.911  0.1463  0.1294 -1.2344
 1012MOL0     C33462   1.796   2.985  10.890 -0.6700 -0.0813  0.1547
 1012MOL0     C33463   1.725   2.880  10.972 -0.8009 -0.2461  0.6164
 1012MOL0     C33464   1.574   2.885  10.965 -0.2136 -1.0930 -0.1108
 1012MOL0     C33465   1.502   2.793  11.072  0.4390  1.0763 -0.0790
 1012MOL0     C33466   1.348   2.833  11.079 -0.2080  0.4640 -0.4223
 1012MOL0     C33467   1.275   2.743  11.183 -0.5691 -0.9150  0.2666
 1012MOL0     C33468   1.127   2.770  11.171  0.3807  0.7275 -0.7260
 1012MOL0     N33469   1.043   2.681  11.262  0.1694 -0.4483  0.3745
 1012MOL0     C33470   0.999   2.558  11.228  0.3478 -0.1801 -0.5048
 1012MOL0     C33471   0.947   2.510  11.348 -0.3098  0.5193  0.1568
 1012MOL0     C33472   0.897   2.372  11.374 -0.0138  0.0230 -0.4011
 1012MOL0     C33473   1.006   2.271  11.381 -0.4402 -0.0751  0.6538
 1012MOL0     C33474   0.966   2.129  11.433 -0.5164  0.4135  0.5391
 1012MOL0     C33475   1.077   2.020  11.416  0.3903 -0.1988 -0.5004
 1012MOL0     O33476   1.067   1.952  11.295  0.6298 -0.0897  0.0128
 1012MOL0     C33477   0.986   1.843  11.276  0.3064 -0.2450  1.0122
 1012MOL0     C33478   0.889   1.795  11.362  0.4954 -0.5802  0.2283
 1012MOL0     C33479   0.817   1.682  11.329  0.3709  0.1978 -0.5976
 1012MOL0     C33480   0.825   1.612  11.203  0.2859  0.1791 -1.4060
 1012MOL0     C33481   0.744   1.493  11.183  0.0065 -0.4177  0.0005
 1012MOL0     O33482   0.779   1.417  11.076  0.6818  0.1370 -0.2443
 1012MOL0     C33483   0.698   1.323  11.032 -0.2519  0.4840  0.1114
 1012MOL0     C33484   0.588   1.358  10.951  1.1133 -0.3398  1.1033
 1012MOL0     C33485   0.490   1.268  10.907  0.2889  0.1298  0.4632
 1012MOL0     C33486   0.497   1.139  10.949 -0.2319  0.3101  0.1959
 1012MOL0     O33487   0.408   1.032  10.912 -0.6357 -0.0057  1.0343
 1012MOL0     C33488   0.278   1.076  10.864 -0.2756  0.1782  0.2352
 1012MOL0     C33489   0.177   0.965  10.859  0.3493 -0.3151 -0.3579
 1012MOL0     C33490   0.201   0.852  10.757 -0.3278 -0.2496 -0.1386
 1012MOL0     C33491   0.092   0.744  10.764  0.1857  0.3873  0.8153
 1012MOL0     C33492   0.129   0.648  10.650  0.0232 -0.5737  0.6464
 1012MOL0     C33493   0.015   0.547  10.629 -0.0186 -0.3438  0.4157
 1012MOL0     C33494   0.049   0.438  10.520 -0.4851  0.6844 -0.3956
 1012MOL0     C33495  -0.064   0.337  10.503 -0.0227 -0.2695 -0.2282
 1012MOL0    Cl33496  -0.217   0.416  10.465 -0.1937  0.0682 -0.5060
 1012MOL0     C33497   0.611   1.095  11.018 -0.1103 -0.4758 -0.1204
 1012MOL0     C33498   0.709   1.186  11.072  0.6842  1.2758 -0.2411
 1012MOL0     O33499   0.654   1.467  11.271 -0.7168 -0.5883  0.6081
 1012MOL0     C33500   0.920   1.666  11.116  0.4280  0.0490  0.6365
 1012MOL0     C33501   0.999   1.777  11.152  0.0296 -0.0258 -0.3407
 1012MOL0     N33502   0.959   2.599  11.443 -0.4298  0.5241  0.1758
 1012MOL0     N33503   1.025   2.697  11.396 -0.3451  0.4566 -0.0304
 1012MOL0     C33504   2.185   3.170  10.716  0.7999  0.7169 -0.3538
 1012MOL0     C33505   2.316   3.163  10.671  0.2699  0.4921 -0.6586
 1012MOL0     C33506   2.739   2.947  10.615 -0.6206 -0.0292  0.8304
 1012MOL0     C33507   2.807   2.940  10.495 -0.7625  0.2886 -0.5000
 1012MOL0     C33508   2.948   2.933  10.492 -0.2143 -0.3888 -0.0789
 1012MOL0     C33509   3.028   2.939  10.612  0.4839  0.2771  0.4887
 1012MOL0     O33510   3.161   2.944  10.586 -0.0418 -0.3290  0.6335
 1012MOL0     C33511   3.249   2.975  10.691  0.3398 -0.3565 -0.2090
 1012MOL0     C33512   3.329   3.105  10.680 -0.5263 -1.1600 -0.2589
 1012MOL0     C33513   3.248   3.227  10.613  0.1295 -0.1859 -0.0402
 1012MOL0     C33514   3.327   3.359  10.630 -0.3285 -0.9616 -0.5955
 1012MOL0     C33515   3.330   3.390  10.779 -0.5436  0.1721 -0.0258
 1012MOL0     C33516   3.347   3.397  10.895  0.3622 -0.4988 -0.5100
 1012MOL0     C33517   2.955   2.946  10.728 -0.0559  0.2560  0.0049
 1012MOL0     C33518   2.821   2.952  10.735  0.3989 -0.3103 -0.0186
 1012MOL0     H33519   2.423   2.917  10.896 -3.6885 -3.2142 -0.1930
 1012MOL0     H33520   2.198   2.924  10.954  0.6817  1.4793  0.8963
 1012MOL0     H33521   1.956   3.002  11.018 -0.2041 -0.0219 -1.1746
 1012MOL0     H33522   1.981   2.890  10.880  0.0134 -0.8666  1.5196
 1012MOL0     H33523   1.773   2.983  10.783 -1.2395  3.4036  0.0914
 1012MOL0     H33524   1.763   3.082  10.927  2.6818  0.8479  1.0465
 1012MOL0     H33525   1.756   2.885  11.077  1.4725  2.3188 -0.0613
 1012MOL0     H33526   1.756   2.783  10.931  0.1103 -0.2699  1.3175
 1012MOL0     H33527   1.549   2.989  10.991  0.5158 -1.1051  0.7193
 1012MOL0     H33528   1.537   2.867  10.864 -1.0460  1.6640 -0.4008
 1012MOL0     H33529   1.548   2.811  11.170 -0.1777  1.0081  0.2257
 1012MOL0     H33530   1.516   2.691  11.034  0.9866  0.7652  0.9078
 1012MOL0     H33531   1.297   2.807  10.985 -1.2227 -3.1364  0.9675
 1012MOL0     H33532   1.320   2.938  11.086 -0.0014  0.6449 -1.9061
 1012MOL0     H33533   1.305   2.638  11.172 -2.0991 -1.4692  1.0278
 1012MOL0     H33534   1.305   2.766  11.285 -1.6169 -0.7691  0.5610
 1012MOL0     H33535   1.097   2.752  11.067  1.2025 -1.4553 -0.6456
 1012MOL0     H33536   1.112   2.871  11.209  1.6915  0.8418 -0.4903
 1012MOL0     H33537   1.008   2.500  11.137  2.1935 -3.7655  1.7202
 1012MOL0     H33538   0.826   2.344  11.296 -0.1557  0.9076 -0.5953
 1012MOL0     H33539   0.840   2.368  11.467 -1.3881 -2.9905 -1.2510
 1012MOL0     H33540   1.094   2.306  11.436  0.2692 -1.9427  0.7998
 1012MOL0     H33541   1.042   2.254  11.280 -1.6323 -1.7826  0.4650
 1012MOL0     H33542   0.953   2.137  11.542 -1.1703  0.2005  0.4755
 1012MOL0     H33543   0.872   2.096  11.389 -0.3448  0.5253  0.0863
 1012MOL0     H33544   1.069   1.949  11.498 -0.8264 -0.2262 -0.6220
 1012MOL0     H33545   1.175   2.069  11.415 -0.9303  2.6412 -1.6296
 1012MOL0     H33546   0.853   1.854  11.446 -2.6596 -0.7560 -0.8445
 1012MOL0     H33547   0.761   1.645  11.414  1.0755  2.3146  0.8801
 1012MOL0     H33548   0.574   1.462  10.922  1.2126 -1.1452 -2.1954
 1012MOL0     H33549   0.407   1.301  10.846  1.4274  1.6206 -0.3431
 1012MOL0     H33550   0.292   1.122  10.766  0.4924 -0.2379  0.1430
 1012MOL0     H33551   0.245   1.148  10.939 -3.0882  0.2273 -0.9391
 1012MOL0     H33552   0.084   1.012  10.823  1.2378 -0.0811 -2.5342
 1012MOL0     H33553   0.158   0.925  10.959 -2.5854 -0.1907 -0.7685
 1012MOL0     H33554   0.297   0.806  10.781 -1.2518 -1.4580  1.5122
 1012MOL0     H33555   0.207   0.895  10.657  3.5920  1.0159  0.4804
 1012MOL0     H33556   0.095   0.705  10.866 -3.4888 -1.5519  0.3342
 1012MOL0     H33557  -0.009   0.782  10.746  0.0345 -1.1164 -1.9307
 1012MOL0     H33558   0.226   0.604  10.675  2.0177  2.7325 -0.5051
 1012MOL0     H33559   0.157   0.702  10.559 -2.9928  0.8446  0.4307
 1012MOL0     H33560  -0.076   0.606  10.615  1.2873  2.3280  2.3180
 1012MOL0     H33561   0.017   0.492  10.723  2.7578  0.4368  0.8987
 1012MOL0     H33562   0.065   0.486  10.423 -1.9021 -0.9840 -1.5337
 1012MOL0     H33563   0.137   0.378  10.545  0.5569  0.7176 -3.5412
 1012MOL0     H33564  -0.085   0.279  10.594  1.2078 -1.2752 -0.5630
 1012MOL0     H33565  -0.034   0.266  10.426 -0.1574 -2.2139  1.4123
 1012MOL0     H33566   0.627   0.990  11.036  0.6833 -0.7871 -2.3850
 1012MOL0     H33567   0.792   1.153  11.133  0.1501 -0.1700 -0.2515
 1012MOL0     H33568   0.931   1.618  11.020  0.1708 -1.0059  1.1111
 1012MOL0     H33569   1.079   1.810  11.086 -1.2807  3.1024 -0.5021
 1012MOL0     H33570   2.116   3.238  10.667  1.3623  0.5256 -1.4468
 1012MOL0     H33571   2.352   3.229  10.592  0.5005  1.3163  0.1186
 1012MOL0     H33572   2.762   2.924  10.398  1.2861  0.1580 -1.4972
 1012MOL0     H33573   3.011   2.932  10.404  0.1531 -2.1410  0.1636
 1012MOL0     H33574   3.322   2.896  10.712 -0.5591 -0.9776  0.6727
 1012MOL0     H33575   3.191   2.993  10.782 -0.4670  0.4493 -0.8677
 1012MOL0     H33576   3.370   3.131  10.778 -0.2043 -1.6987 -0.2466
 1012MOL0     H33577   3.409   3.073  10.612 -0.1116 -3.6510  1.2876
 1012MOL0     H33578   3.152   3.232  10.664  1.3355 -1.6708  2.5636
 1012MOL0     H33579   3.239   3.212  10.505 -0.3246 -1.2870  0.1338
 1012MOL0     H33580   3.428   3.360  10.588 -0.8057  2.6472 -1.9985
 1012MOL0     H33581   3.268   3.436  10.580 -0.8142 -1.7218 -1.2078
 1012MOL0     H33582   3.369   3.399  11.000 -0.7569  1.4781 -0.2466
 1012MOL0     H33583   3.009   2.953  10.822  1.3231  0.0937 -0.7352
 1012MOL0     H33584   2.782   2.973  10.834  2.6112  3.7593  0.2051
 1013MOL0     O33585   0.352   0.231   4.900 -0.7593 -0.8369  0.0526
 1013MOL0     C33586   0.362   0.139   4.981  0.0447 -0.7550  0.1230
 1013MOL0     O33587   0.273   0.048   5.011  0.3880  0.6702 -0.1788
 1013MOL0     C33588   0.130   0.064   4.999  0.4706  0.1176 -0.4335
 1013MOL0     C33589   0.065   0.119   4.885 -0.7587  0.2884 -0.1495
 1013MOL0     C33590  -0.071   0.137   4.891  0.5845 -0.3003  0.5714
 1013MOL0     C33591  -0.147   0.106   5.003 -0.7462  0.1101 -1.2307
 1013MOL0     O33592  -0.285   0.121   5.019 -0.0630  0.2387 -0.3206
 1013MOL0     C33593  -0.367   0.071   4.919 -0.1929 -0.2861  0.0850
 1013MOL0     C33594  -0.425  -0.059   4.966 -0.7226 -0.4662  0.4181
 1013MOL0     C33595  -0.538  -0.103   4.884  0.5175 -0.3665 -0.1075
 1013MOL0     C33596  -0.653  -0.157   4.971  0.3878 -0.7274  0.0353
 1013MOL0     C33597  -0.776  -0.184   4.877  0.0400  0.0289 -0.0773
 1013MOL0     C33598  -0.845  -0.057   4.824  0.3095  0.5710 -1.0420
 1013MOL0     C33599  -0.861   0.051   4.929 -0.3127 -0.1625  0.0637
 1013MOL0     C33600  -0.934   0.016   5.058 -1.0409 -0.4743  0.1810
 1013MOL0     N33601  -1.064  -0.030   5.039 -0.1129 -0.2933  0.3412
 1013MOL0     C33602  -1.165   0.047   4.998 -0.0253  0.4136 -0.0822
 1013MOL0     C33603  -1.269  -0.037   5.019 -0.5483  0.1832 -0.7223
 1013MOL0     C33604  -1.409   0.008   4.980 -0.0530 -0.0670 -0.0314
 1013MOL0     C33605  -1.524  -0.074   5.046 -0.4602  0.1006  0.4991
 1013MOL0     C33606  -1.654  -0.005   5.013  0.7127 -0.8062  0.7365
 1013MOL0     C33607  -1.771  -0.067   5.086  0.0865 -0.5594 -0.1975
 1013MOL0     O33608  -1.895  -0.020   5.036 -0.1362  0.2197 -0.4951
 1013MOL0     C33609  -1.997  -0.012   5.134  0.1190  0.5309 -0.0028
 1013MOL0     C33610  -2.014  -0.102   5.234 -0.1513  0.9119  0.4493
 1013MOL0     C33611  -2.125  -0.099   5.320  0.5064  0.2037  0.6223
 1013MOL0     C33612  -2.228  -0.006   5.293 -0.2667 -0.1065 -0.0860
 1013MOL0     C33613  -2.362  -0.023   5.360 -0.5160 -0.2959  0.1737
 1013MOL0     O33614  -2.465   0.048   5.304 -0.3687  0.2817  0.6070
 1013MOL0     C33615  -2.591   0.038   5.353  0.5900  0.4011  0.2733
 1013MOL0     C33616  -2.631   0.136   5.450  0.1008  1.4398  0.1482
 1013MOL0     C33617  -2.758   0.138   5.506 -0.4943 -0.2937 -1.2017
 1013MOL0     C33618  -2.849   0.029   5.487 -0.5913  0.7334  0.4328
 1013MOL0     O33619  -2.971   0.014   5.549 -0.1362  0.6590 -0.1888
 1013MOL0     C33620  -2.997   0.097   5.667 -0.6814  0.3222 -0.1615
 1013MOL0     C33621  -3.128   0.050   5.735 -0.7908 -1.1748 -0.0224
 1013MOL0     C33622  -3.255   0.074   5.647  0.1844  0.0943 -0.7082
 1013MOL0     C33623  -3.271   0.223   5.611  0.4772  0.4980  0.6438
 1013MOL0     C33624  -3.369   0.235   5.490  0.3680  0.1057 -0.5600
 1013MOL0     C33625  -3.357   0.374   5.436  0.3936 -0.6502  0.3861
 1013MOL0     C33626  -3.444   0.390   5.304 -0.8696 -0.7632  0.1834
 1013MOL0     C33627  -3.402   0.513   5.221 -0.2491 -0.0218  0.7079
 1013MOL0    Cl33628  -3.396   0.667   5.311 -0.1633 -0.1664 -0.1049
 1013MOL0     C33629  -2.814  -0.074   5.398 -0.2360 -0.2322  0.5666
 1013MOL0     C33630  -2.688  -0.069   5.332  0.3854 -0.0607 -0.5051
 1013MOL0     O33631  -2.371  -0.096   5.459  0.1678  0.2834  0.1746
 1013MOL0     C33632  -2.219   0.078   5.181 -0.5678  0.1865  0.3188
 1013MOL0     C33633  -2.102   0.070   5.104 -1.1485 -0.9368 -0.5375
 1013MOL0     N33634  -1.233  -0.157   5.078  0.2626  0.3845  0.5728
 1013MOL0     N33635  -1.105  -0.155   5.086  0.7474 -0.3455 -0.2963
 1013MOL0     C33636  -0.071   0.060   5.113  0.1771 -0.6729 -0.3110
 1013MOL0     C33637   0.065   0.037   5.118  0.4723  0.9235  0.5103
 1013MOL0     C33638   0.494   0.135   5.041 -0.0843  0.6495 -0.6844
 1013MOL0     C33639   0.514   0.039   5.144  0.4764 -0.0989 -0.2164
 1013MOL0     C33640   0.631   0.017   5.208  0.5570 -0.2214  0.6560
 1013MOL0     C33641   0.743   0.103   5.173  0.3074  0.5458  0.9183
 1013MOL0     O33642   0.864   0.107   5.236  0.2079  0.2056 -0.0620
 1013MOL0     C33643   0.864   0.068   5.379 -0.2920  0.4361 -0.0438
 1013MOL0     C33644   0.934   0.174   5.461 -0.9696 -0.6603  0.0552
 1013MOL0     C33645   1.076   0.178   5.434 -0.1486 -0.0759 -0.4205
 1013MOL0     C33646   1.155   0.286   5.499  0.7882  0.3173  0.6406
 1013MOL0     C33647   1.300   0.265   5.473 -0.6748 -1.0269  0.1736
 1013MOL0     C33648   1.417   0.244   5.450  0.1492 -0.3826  0.5359
 1013MOL0     C33649   0.720   0.203   5.072  0.3218  0.0402  0.1137
 1013MOL0     C33650   0.605   0.215   4.997  0.0461 -0.1799 -0.3906
 1013MOL0     H33651   0.131   0.137   4.801 -0.8187  0.8383 -0.0810
 1013MOL0     H33652  -0.119   0.191   4.810 -0.7661  0.8759  2.0727
 1013MOL0     H33653  -0.320   0.047   4.823 -1.3055  2.0282 -1.1336
 1013MOL0     H33654  -0.442   0.150   4.906 -1.5374 -0.9753  2.8770
 1013MOL0     H33655  -0.455  -0.057   5.072 -1.5548 -1.4985  0.2147
 1013MOL0     H33656  -0.343  -0.131   4.971  1.2407  1.6550  0.4153
 1013MOL0     H33657  -0.508  -0.187   4.821 -0.1089 -1.1822  0.6660
 1013MOL0     H33658  -0.572  -0.020   4.821  0.1338 -0.9068 -0.6211
 1013MOL0     H33659  -0.617  -0.249   5.018  2.2578  0.1595  0.4595
 1013MOL0     H33660  -0.673  -0.084   5.049  0.5575 -0.3014 -0.3162
 1013MOL0     H33661  -0.852  -0.245   4.926  1.5233 -1.7749  0.0879
 1013MOL0     H33662  -0.732  -0.233   4.790  1.7649  0.0746  0.7347
 1013MOL0     H33663  -0.945  -0.077   4.784 -0.5634  1.3767  0.6628
 1013MOL0     H33664  -0.778  -0.017   4.747  1.4188  1.8393  0.5152
 1013MOL0     H33665  -0.762   0.096   4.942 -0.0414 -0.0727 -2.0074
 1013MOL0     H33666  -0.920   0.125   4.874  2.3245  1.0500 -1.3792
 1013MOL0     H33667  -0.939   0.105   5.121  0.2039 -1.3091  1.5295
 1013MOL0     H33668  -0.874  -0.056   5.115  0.1945  0.6635  0.3660
 1013MOL0     H33669  -1.169   0.144   4.948 -0.5861  0.6355  0.3824
 1013MOL0     H33670  -1.417   0.020   4.871 -0.6364  4.6491  0.2955
 1013MOL0     H33671  -1.411   0.112   5.014  0.3775  0.2142 -0.8275
 1013MOL0     H33672  -1.510  -0.079   5.155  3.3020 -1.7421  0.0923
 1013MOL0     H33673  -1.524  -0.178   5.013 -0.6479 -0.2941  1.6721
 1013MOL0     H33674  -1.648   0.100   5.042  2.0452  0.0630 -2.2699
 1013MOL0     H33675  -1.681  -0.012   4.907  1.1585 -3.4246  0.7284
 1013MOL0     H33676  -1.754  -0.046   5.192  1.3849  0.6129 -0.6044
 1013MOL0     H33677  -1.763  -0.174   5.064  2.7498 -0.2474 -1.2176
 1013MOL0     H33678  -1.941  -0.179   5.257 -1.7294 -0.7188  0.2276
 1013MOL0     H33679  -2.129  -0.168   5.404 -1.6814 -0.4758  0.0324
 1013MOL0     H33680  -2.568   0.220   5.477 -1.7772  2.3111  2.0797
 1013MOL0     H33681  -2.780   0.215   5.578  0.2863 -1.6971  0.6074
 1013MOL0     H33682  -3.007   0.201   5.637 -3.1442  0.0437 -0.5250
 1013MOL0     H33683  -2.913   0.092   5.737  0.6806  0.6462 -1.6971
 1013MOL0     H33684  -3.134   0.101   5.832  3.4578 -0.7154  0.1918
 1013MOL0     H33685  -3.121  -0.059   5.743 -0.0405 -1.1800 -0.6232
 1013MOL0     H33686  -3.344   0.034   5.698 -0.9650  1.3482 -1.6661
 1013MOL0     H33687  -3.234   0.014   5.558  2.2380 -2.4263  1.2944
 1013MOL0     H33688  -3.320   0.267   5.698 -2.9353 -0.9081 -0.4033
 1013MOL0     H33689  -3.176   0.272   5.587  2.0483 -2.0132  1.2692
 1013MOL0     H33690  -3.473   0.205   5.509  0.4786  0.6949  1.1625
 1013MOL0     H33691  -3.334   0.174   5.406 -0.5882  0.6863 -1.3982
 1013MOL0     H33692  -3.252   0.399   5.419  0.2665  0.9506  1.6798
 1013MOL0     H33693  -3.403   0.453   5.495 -0.8557 -0.9714 -0.1296
 1013MOL0     H33694  -3.445   0.305   5.234  1.1531  0.9361 -2.0819
 1013MOL0     H33695  -3.549   0.401   5.331 -1.1997 -0.1890 -1.2588
 1013MOL0     H33696  -3.482   0.533   5.149 -0.9190 -0.6016  1.2840
 1013MOL0     H33697  -3.307   0.499   5.167  0.6128 -0.4723  2.2861
 1013MOL0     H33698  -2.876  -0.157   5.366 -0.7109  0.2263  0.2699
 1013MOL0     H33699  -2.646  -0.152   5.275 -0.7918 -0.1714 -1.2353
 1013MOL0     H33700  -2.300   0.141   5.145  0.5774  0.7358 -1.4075
 1013MOL0     H33701  -2.099   0.127   5.012  0.0714  1.2659  0.7600
 1013MOL0     H33702  -0.133   0.040   5.200 -1.0228  0.7689 -0.7928
 1013MOL0     H33703   0.118  -0.006   5.202 -0.1026 -1.9886 -0.4960
 1013MOL0     H33704   0.429  -0.015   5.183  0.9669 -0.8708 -0.1860
 1013MOL0     H33705   0.642  -0.053   5.291 -1.0072 -0.4752  0.6806
 1013MOL0     H33706   0.921  -0.024   5.391 -1.0026 -0.4256 -2.5090
 1013MOL0     H33707   0.761   0.054   5.414 -0.6251  0.4050 -0.9895
 1013MOL0     H33708   0.895   0.273   5.434  1.0038  0.6989  1.8335
 1013MOL0     H33709   0.916   0.161   5.568  1.1303  0.0198  0.5416
 1013MOL0     H33710   1.079   0.188   5.325 -2.0271  0.3511 -0.4544
 1013MOL0     H33711   1.116   0.078   5.454 -0.2824  0.1386  0.9915
 1013MOL0     H33712   1.126   0.385   5.462 -0.2966 -0.0446  0.5099
 1013MOL0     H33713   1.133   0.284   5.606  1.0186  2.1245  0.7543
 1013MOL0     H33714   1.519   0.223   5.428 -0.4765 -3.4577  0.0683
 1013MOL0     H33715   0.800   0.273   5.049  0.3494  0.3901  1.2229
 1013MOL0     H33716   0.594   0.305   4.937 -3.2803  0.2137  0.6027
 1014MOL0     O33717   9.630   8.437   1.725  0.0236  0.1684 -0.0691
 1014MOL0     C33718   9.697   8.467   1.828 -0.6473  0.2269  0.4028
 1014MOL0     O33719   9.640   8.511   1.944 -0.7656  0.1719  0.4208
 1014MOL0     C33720   9.510   8.532   1.931  0.2570 -0.3403 -0.4981
 1014MOL0     C33721   9.461   8.654   1.878 -0.7193 -0.0477  0.2434
 1014MOL0     C33722   9.319   8.670   1.867 -0.0009 -0.2330  1.2513
 1014MOL0     C33723   9.225   8.576   1.908 -0.3780 -0.2487  0.1539
 1014MOL0     O33724   9.095   8.606   1.878 -0.3092 -0.4381 -0.6392
 1014MOL0     C33725   8.996   8.534   1.938  0.3208 -0.0308  0.1858
 1014MOL0     C33726   8.851   8.577   1.923 -0.4645  0.0405  0.1692
 1014MOL0     C33727   8.768   8.449   1.893 -0.2025 -0.0684  0.4958
 1014MOL0     C33728   8.618   8.478   1.885  0.1137  0.3605  0.5135
 1014MOL0     C33729   8.581   8.572   1.769  0.1774 -0.2808  0.1228
 1014MOL0     C33730   8.430   8.560   1.731  0.1166  0.4819  0.2697
 1014MOL0     C33731   8.394   8.643   1.605  0.1734  0.5657 -0.3522
 1014MOL0     C33732   8.258   8.601   1.544 -0.1768  0.4328  0.6408
 1014MOL0     N33733   8.146   8.597   1.644 -0.8717  0.1980  0.6712
 1014MOL0     C33734   8.107   8.704   1.730  1.0488  0.8757 -0.7789
 1014MOL0     C33735   8.012   8.643   1.805  0.2301 -0.1495 -0.7548
 1014MOL0     C33736   7.935   8.701   1.922  0.4106 -0.5622  0.0938
 1014MOL0     C33737   7.779   8.675   1.906  0.3131  0.7212  1.1653
 1014MOL0     C33738   7.703   8.719   2.031 -0.7562  0.3312 -0.4825
 1014MOL0     C33739   7.567   8.669   2.049  0.4920 -0.0210 -0.4391
 1014MOL0     O33740   7.507   8.725   2.169  0.3144  0.5682  0.0957
 1014MOL0     C33741   7.379   8.677   2.205  0.2471 -0.0053 -0.0061
 1014MOL0     C33742   7.344   8.694   2.336  0.2231 -0.2583  0.0476
 1014MOL0     C33743   7.214   8.667   2.377 -0.5092  0.1249 -0.0775
 1014MOL0     C33744   7.119   8.609   2.291 -0.0798  0.1015  0.3410
 1014MOL0     C33745   6.985   8.562   2.339 -0.6656  0.3619 -0.2966
 1014MOL0     O33746   6.903   8.511   2.242 -0.1973 -0.4491 -0.8018
 1014MOL0     C33747   6.769   8.466   2.262 -1.4255 -0.3826 -0.5874
 1014MOL0     C33748   6.690   8.469   2.146 -0.3463 -0.1391  0.0621
 1014MOL0     C33749   6.555   8.436   2.145 -0.1203 -0.0237  0.0249
 1014MOL0     C33750   6.489   8.402   2.264 -0.0644 -0.3349  0.0804
 1014MOL0     O33751   6.353   8.387   2.256  0.0486  0.3113  0.2621
 1014MOL0     C33752   6.284   8.320   2.366  0.2166  0.2373  0.9715
 1014MOL0     C33753   6.128   8.318   2.333 -0.9495  0.0783 -0.5567
 1014MOL0     C33754   6.054   8.255   2.453 -0.2839  0.0600  0.3077
 1014MOL0     C33755   5.906   8.224   2.433  0.0491  0.0205  0.5905
 1014MOL0     C33756   5.842   8.354   2.384  0.3625  0.6113  0.7817
 1014MOL0     C33757   5.686   8.342   2.397 -0.4375 -0.9682  0.3224
 1014MOL0     C33758   5.620   8.465   2.340  0.8096 -1.1544  0.0572
 1014MOL0     C33759   5.467   8.461   2.364 -0.4427  0.7515  0.0909
 1014MOL0    Cl33760   5.384   8.578   2.267 -0.1441  0.2666  0.3006
 1014MOL0     C33761   6.562   8.403   2.389  0.1700  0.2922 -0.1346
 1014MOL0     C33762   6.702   8.434   2.384  0.0586 -0.2277 -0.6841
 1014MOL0     O33763   6.975   8.555   2.460  0.4500  0.2767 -0.2478
 1014MOL0     C33764   7.166   8.579   2.164 -0.0045 -0.4607  0.0245
 1014MOL0     C33765   7.289   8.625   2.124  0.5823  0.0975  0.1539
 1014MOL0     N33766   8.006   8.508   1.768 -0.0247 -0.2055  0.4695
 1014MOL0     N33767   8.082   8.485   1.672  0.0123  0.1548 -0.4592
 1014MOL0     C33768   9.269   8.463   1.968 -0.2331 -0.0159 -0.5529
 1014MOL0     C33769   9.410   8.439   1.988  0.4572 -0.3649  0.5357
 1014MOL0     C33770   9.847   8.481   1.810 -0.2737  0.0506 -0.6514
 1014MOL0     C33771   9.909   8.443   1.693  0.6381 -0.0174  0.3241
 1014MOL0     C33772  10.046   8.453   1.681  0.5183  0.1534  0.1653
 1014MOL0     C33773  10.125   8.509   1.776  0.0761  0.4157  0.5265
 1014MOL0     O33774  10.258   8.518   1.751  0.2725  0.1161  0.3792
 1014MOL0     C33775  10.348   8.502   1.860  0.0500  0.3809  0.3924
 1014MOL0     C33776  10.481   8.452   1.816  0.1502  0.0985  0.8435
 1014MOL0     C33777  10.584   8.413   1.930  0.7488 -0.7747 -0.1858
 1014MOL0     C33778  10.526   8.300   2.019 -0.0993 -0.6226 -0.3324
 1014MOL0     C33779  10.631   8.261   2.109  0.9386  0.2174 -0.1555
 1014MOL0     C33780  10.712   8.211   2.183  0.7997  0.2769  0.3391
 1014MOL0     C33781  10.068   8.553   1.901  0.1075  0.6558  0.2611
 1014MOL0     C33782   9.928   8.533   1.914 -0.0018 -0.3838  0.9454
 1014MOL0     H33783   9.535   8.726   1.844 -0.0145 -1.0555 -0.3799
 1014MOL0     H33784   9.283   8.758   1.815 -1.6877 -2.3750 -1.5650
 1014MOL0     H33785   9.024   8.538   2.044  2.0742 -1.9935 -0.1221
 1014MOL0     H33786   9.000   8.429   1.908 -1.1457  0.0236 -0.2784
 1014MOL0     H33787   8.840   8.644   1.837 -0.2138 -1.3006 -0.9383
 1014MOL0     H33788   8.816   8.624   2.015  2.0290  0.3227  1.0611
 1014MOL0     H33789   8.767   8.389   1.985 -2.5024  0.5006  0.9021
 1014MOL0     H33790   8.809   8.388   1.812  3.7270  2.9562 -0.0880
 1014MOL0     H33791   8.573   8.382   1.858  0.1362  1.0376 -2.2519
 1014MOL0     H33792   8.579   8.523   1.977 -1.1958 -0.8669  0.5813
 1014MOL0     H33793   8.633   8.539   1.678  1.4599 -0.7817  1.0136
 1014MOL0     H33794   8.612   8.676   1.784 -0.2430  0.1720 -1.8550
 1014MOL0     H33795   8.358   8.575   1.812 -0.7688  1.2283 -0.6233
 1014MOL0     H33796   8.430   8.454   1.706  0.6717 -0.1706  2.7986
 1014MOL0     H33797   8.403   8.751   1.624  0.1202  0.9812 -2.4689
 1014MOL0     H33798   8.467   8.620   1.526 -1.0381 -4.6363 -0.2825
 1014MOL0     H33799   8.263   8.504   1.494 -0.4797  0.9119 -0.3439
 1014MOL0     H33800   8.236   8.682   1.474  0.0915 -1.2830 -1.5240
 1014MOL0     H33801   8.127   8.811   1.734 -0.1622  1.0814  0.2527
 1014MOL0     H33802   7.948   8.810   1.929 -2.0367 -0.2330  0.6135
 1014MOL0     H33803   7.975   8.653   2.012  0.1752  1.4344  1.3349
 1014MOL0     H33804   7.773   8.567   1.889 -0.6148  0.8451  0.6256
 1014MOL0     H33805   7.740   8.733   1.822 -1.8420 -2.2389 -0.0470
 1014MOL0     H33806   7.754   8.682   2.120 -1.2054 -0.5134 -0.5703
 1014MOL0     H33807   7.708   8.828   2.036 -0.2715  0.3309 -0.8566
 1014MOL0     H33808   7.557   8.560   2.051 -0.9383  0.1052  1.2893
 1014MOL0     H33809   7.514   8.709   1.962 -0.7261  0.9548  0.7182
 1014MOL0     H33810   7.421   8.721   2.407 -0.3613  1.6305  0.0217
 1014MOL0     H33811   7.199   8.689   2.482  1.8683  0.7570  0.1881
 1014MOL0     H33812   6.744   8.502   2.058 -0.2841  1.8151  0.7967
 1014MOL0     H33813   6.499   8.444   2.052  1.3287  2.5643 -0.7135
 1014MOL0     H33814   6.292   8.370   2.463 -1.0116 -0.6778  1.5732
 1014MOL0     H33815   6.309   8.214   2.373 -1.4855 -0.8194 -4.3417
 1014MOL0     H33816   6.119   8.253   2.245  0.8352  0.0252 -0.7295
 1014MOL0     H33817   6.097   8.420   2.307 -1.9031 -0.6131 -2.3209
 1014MOL0     H33818   6.059   8.323   2.538 -3.2091 -0.7521  1.2455
 1014MOL0     H33819   6.101   8.160   2.480  1.4593 -0.0059 -2.4860
 1014MOL0     H33820   5.890   8.143   2.361 -0.8595  0.9447 -0.2804
 1014MOL0     H33821   5.862   8.185   2.525 -3.2354 -0.5281 -1.0639
 1014MOL0     H33822   5.873   8.383   2.283  1.8189  2.5062  1.7197
 1014MOL0     H33823   5.867   8.436   2.452 -0.1058  2.1567 -0.8395
 1014MOL0     H33824   5.650   8.326   2.499  0.2443 -2.0184  0.4164
 1014MOL0     H33825   5.646   8.253   2.349 -3.2290 -0.4409  1.4626
 1014MOL0     H33826   5.654   8.559   2.386 -1.0199 -0.3437 -0.1534
 1014MOL0     H33827   5.644   8.468   2.234  1.3008 -2.0170  0.1386
 1014MOL0     H33828   5.456   8.487   2.469  1.3354  1.1235  0.2203
 1014MOL0     H33829   5.420   8.363   2.347 -1.6483  1.2651  0.3264
 1014MOL0     H33830   6.514   8.379   2.483  1.8377  0.4562  0.7991
 1014MOL0     H33831   6.727   8.467   2.485 -3.2112  2.2672 -0.5279
 1014MOL0     H33832   7.106   8.525   2.090  0.4676  0.2824 -0.9177
 1014MOL0     H33833   7.318   8.608   2.021  1.6988  0.3077  0.4254
 1014MOL0     H33834   9.198   8.393   2.011  0.6209 -0.5390  0.0522
 1014MOL0     H33835   9.440   8.343   2.029 -2.9933 -1.7122  0.2793
 1014MOL0     H33836   9.851   8.390   1.618  0.2736 -0.8284  1.1604
 1014MOL0     H33837  10.085   8.411   1.589  0.5479  0.3635  0.0832
 1014MOL0     H33838  10.308   8.434   1.936 -0.5152  0.0670 -0.1823
 1014MOL0     H33839  10.361   8.595   1.916 -2.3720  0.9693  0.0923
 1014MOL0     H33840  10.461   8.354   1.771 -2.5178 -0.1348  2.3164
 1014MOL0     H33841  10.520   8.527   1.747  0.8517 -0.8173  0.2174
 1014MOL0     H33842  10.600   8.496   1.999 -0.4612  1.0395 -1.9767
 1014MOL0     H33843  10.673   8.380   1.877  1.2960 -2.1984  1.5143
 1014MOL0     H33844  10.439   8.326   2.079 -0.9759  0.8081 -2.1393
 1014MOL0     H33845  10.501   8.214   1.956 -3.3346 -1.8016  2.2916
 1014MOL0     H33846  10.785   8.180   2.255  0.1873 -1.8247  0.1350
 1014MOL0     H33847  10.119   8.587   1.990 -1.7105  1.8625  0.9001
 1014MOL0     H33848   9.875   8.564   2.004 -1.6077  2.4433 -0.8048
 1015MOL0     O33849   8.388   6.027   8.666  0.7787 -0.5702 -0.5177
 1015MOL0     C33850   8.413   5.950   8.758 -0.1970  1.1265  0.4328
 1015MOL0     O33851   8.325   5.905   8.852  0.4081 -0.2388 -0.4012
 1015MOL0     C33852   8.193   5.944   8.855  0.5142 -0.1215  0.1326
 1015MOL0     C33853   8.098   5.847   8.878  0.0307 -0.1257  0.3430
 1015MOL0     C33854   7.959   5.865   8.865  0.2756  0.1495 -0.5988
 1015MOL0     C33855   7.911   6.005   8.849 -0.4991 -0.0345 -0.4130
 1015MOL0     O33856   7.787   6.054   8.853  0.3256  1.0930 -0.0645
 1015MOL0     C33857   7.686   5.949   8.839  0.1802 -0.4482 -0.0073
 1015MOL0     C33858   7.561   6.016   8.789 -0.0603  0.3348  0.7079
 1015MOL0     C33859   7.488   6.064   8.917 -1.4029  0.8577  0.5824
 1015MOL0     C33860   7.424   5.954   9.017  0.6233  0.0365  0.4326
 1015MOL0     C33861   7.333   6.022   9.120  0.4533  0.0793  0.4698
 1015MOL0     C33862   7.246   6.133   9.070 -0.1733  0.7178 -0.1828
 1015MOL0     C33863   7.140   6.173   9.178  0.4308  0.4443 -0.5721
 1015MOL0     C33864   7.088   6.307   9.130  0.1666 -0.0490 -0.8209
 1015MOL0     N33865   7.003   6.353   9.242 -0.3771  0.0363 -0.4402
 1015MOL0     C33866   6.999   6.480   9.295 -0.3807 -0.7503  0.7392
 1015MOL0     C33867   6.892   6.477   9.376 -1.3995 -0.5359 -0.5906
 1015MOL0     C33868   6.853   6.583   9.476  0.3145 -0.6040 -0.5996
 1015MOL0     C33869   6.711   6.634   9.438 -0.3166  0.2790  0.9056
 1015MOL0     C33870   6.584   6.546   9.477  1.0961  0.0706  0.0084
 1015MOL0     C33871   6.452   6.621   9.491 -0.3592 -0.9139  0.7280
 1015MOL0     O33872   6.337   6.539   9.511 -0.1702  0.5179  0.8189
 1015MOL0     C33873   6.206   6.600   9.510  0.1556 -0.7691 -0.1150
 1015MOL0     C33874   6.188   6.742   9.513  0.2329 -0.1559 -0.9250
 1015MOL0     C33875   6.066   6.801   9.555  0.0764  0.2226  0.1212
 1015MOL0     C33876   5.954   6.716   9.584 -0.2512  0.1121  0.2526
 1015MOL0     C33877   5.825   6.783   9.617  0.6772  0.1049  1.3199
 1015MOL0     O33878   5.716   6.712   9.590 -0.1265  0.0647 -0.3161
 1015MOL0     C33879   5.589   6.749   9.629  0.1328 -0.3596 -0.0396
 1015MOL0     C33880   5.491   6.650   9.658  0.4105  0.3169  0.6655
 1015MOL0     C33881   5.358   6.685   9.697 -0.7874 -0.5238 -0.5421
 1015MOL0     C33882   5.315   6.821   9.712  0.0664  0.1316 -0.9507
 1015MOL0     O33883   5.187   6.858   9.752  0.5291  0.1205 -0.1088
 1015MOL0     C33884   5.101   6.761   9.809 -0.5720 -0.3528 -0.3536
 1015MOL0     C33885   4.985   6.830   9.880  0.5548 -0.3359 -0.2391
 1015MOL0     C33886   4.904   6.716   9.951  0.1639  0.4742  0.3596
 1015MOL0     C33887   4.764   6.759  10.011  0.6940  0.0079 -0.0962
 1015MOL0     C33888   4.697   6.655  10.101 -0.3834 -0.1802  0.5181
 1015MOL0     C33889   4.551   6.674  10.125 -0.2110  0.4338 -0.3360
 1015MOL0     C33890   4.522   6.800  10.204  0.2218  1.0560 -0.9749
 1015MOL0     C33891   4.368   6.809  10.238  0.7073 -0.3406 -0.4663
 1015MOL0    Cl33892   4.328   6.688  10.366 -0.1134 -0.2981  0.2696
 1015MOL0     C33893   5.404   6.920   9.677 -0.8177 -0.3112 -0.2996
 1015MOL0     C33894   5.539   6.887   9.641 -0.6849  0.4520  0.8344
 1015MOL0     O33895   5.831   6.898   9.659  0.2384  0.2456  0.4270
 1015MOL0     C33896   5.972   6.579   9.580  0.4614 -0.0684 -0.1128
 1015MOL0     C33897   6.097   6.523   9.559  0.7334  0.4078  0.4583
 1015MOL0     N33898   6.834   6.351   9.378 -0.8287 -0.0155  0.2487
 1015MOL0     N33899   6.901   6.282   9.295 -0.4768  0.9597  0.3359
 1015MOL0     C33900   8.006   6.105   8.825  0.1515  0.8430  0.7018
 1015MOL0     C33901   8.144   6.075   8.839 -0.4124 -0.3275  0.2215
 1015MOL0     C33902   8.549   5.898   8.763 -0.4899  0.0093 -0.0789
 1015MOL0     C33903   8.656   5.977   8.730 -0.0341 -0.3993  0.2135
 1015MOL0     C33904   8.794   5.937   8.754 -0.0420  0.0225  0.4153
 1015MOL0     C33905   8.819   5.811   8.794  0.3190  0.5745 -0.1447
 1015MOL0     O33906   8.947   5.762   8.812  0.2086  0.2004  0.5465
 1015MOL0     C33907   8.985   5.624   8.789  0.2747 -0.2915 -0.7867
 1015MOL0     C33908   9.137   5.606   8.780  0.1457  0.3701  0.1292
 1015MOL0     C33909   9.200   5.670   8.661  0.3350  0.6317  0.2530
 1015MOL0     C33910   9.277   5.791   8.703  0.1952  0.3813 -0.8278
 1015MOL0     C33911   9.390   5.769   8.786 -0.2581  1.1694  0.5650
 1015MOL0     C33912   9.481   5.750   8.857 -0.3883 -0.0962 -0.5094
 1015MOL0     C33913   8.708   5.725   8.820  0.8692  0.0975  0.2424
 1015MOL0     C33914   8.574   5.767   8.807 -0.1051 -0.6582  0.3950
 1015MOL0     H33915   8.133   5.744   8.890  0.5296  0.0924  0.8195
 1015MOL0     H33916   7.887   5.784   8.877  3.3975 -2.6946  0.6989
 1015MOL0     H33917   7.677   5.895   8.933 -1.0897  0.0301  0.1708
 1015MOL0     H33918   7.704   5.871   8.765 -0.5192 -0.0166 -0.6517
 1015MOL0     H33919   7.500   5.948   8.728 -0.8584 -0.3748  2.2293
 1015MOL0     H33920   7.586   6.098   8.722  1.1830 -0.8513 -0.3441
 1015MOL0     H33921   7.407   6.126   8.878 -1.2005 -0.4410 -2.1930
 1015MOL0     H33922   7.561   6.130   8.966 -0.3774  3.8636 -4.2404
 1015MOL0     H33923   7.370   5.887   8.950 -0.8085  1.9092 -0.3831
 1015MOL0     H33924   7.502   5.903   9.075  0.4781 -0.7427 -0.0396
 1015MOL0     H33925   7.394   6.042   9.209 -0.8747  0.8707  1.2226
 1015MOL0     H33926   7.265   5.946   9.160  0.1214  1.0148  1.7473
 1015MOL0     H33927   7.190   6.108   8.980 -1.9631  2.9062  0.2392
 1015MOL0     H33928   7.306   6.219   9.038  0.0301  1.1933  1.3654
 1015MOL0     H33929   7.053   6.107   9.182 -2.2884  3.8138  0.8666
 1015MOL0     H33930   7.173   6.188   9.281 -1.4192  3.1124 -0.2629
 1015MOL0     H33931   7.030   6.305   9.037 -1.4926  0.3515  0.1752
 1015MOL0     H33932   7.166   6.383   9.120  0.3245  0.1592  1.4207
 1015MOL0     H33933   7.072   6.556   9.269  0.1912 -1.3534  0.5704
 1015MOL0     H33934   6.934   6.657   9.475 -0.5479  0.3846  0.3826
 1015MOL0     H33935   6.854   6.536   9.575  2.0195  0.1676 -0.2021
 1015MOL0     H33936   6.709   6.654   9.331  2.1683  1.4008  1.0142
 1015MOL0     H33937   6.695   6.736   9.474 -1.7148  1.0182 -1.5689
 1015MOL0     H33938   6.573   6.474   9.395  3.9908 -0.9046  0.3885
 1015MOL0     H33939   6.588   6.495   9.574  3.6510  1.7140  0.8485
 1015MOL0     H33940   6.429   6.682   9.403  1.1547  0.8376  1.4749
 1015MOL0     H33941   6.460   6.696   9.570 -0.8099 -0.3277  0.2312
 1015MOL0     H33942   6.268   6.808   9.481  0.9451 -1.6985 -2.5027
 1015MOL0     H33943   6.065   6.909   9.572  3.7908  0.8330 -2.2154
 1015MOL0     H33944   5.521   6.546   9.655  2.3317  0.8124  1.5440
 1015MOL0     H33945   5.299   6.594   9.707 -1.1763 -0.1982  0.2374
 1015MOL0     H33946   5.165   6.716   9.885  1.0959  1.3440 -0.6694
 1015MOL0     H33947   5.059   6.689   9.739  1.9706 -1.5293 -0.7749
 1015MOL0     H33948   4.935   6.874   9.794 -0.5338 -1.4022 -0.1873
 1015MOL0     H33949   5.024   6.908   9.946  3.9644 -0.7638 -1.5456
 1015MOL0     H33950   4.967   6.680  10.033  1.5608 -1.9781 -1.6705
 1015MOL0     H33951   4.879   6.633   9.884 -3.9360  3.1821 -1.8972
 1015MOL0     H33952   4.787   6.851  10.066 -0.8493 -1.0399  2.4633
 1015MOL0     H33953   4.699   6.779   9.925 -0.4304 -1.5879  0.3355
 1015MOL0     H33954   4.744   6.644  10.200  2.1394 -2.1342 -0.7714
 1015MOL0     H33955   4.705   6.554  10.059 -1.1823 -0.2807  0.5759
 1015MOL0     H33956   4.506   6.587  10.173 -0.9132  1.7470  1.5141
 1015MOL0     H33957   4.514   6.669  10.023  1.1224 -2.4418 -0.7710
 1015MOL0     H33958   4.573   6.799  10.300  0.1408  0.9893 -0.9314
 1015MOL0     H33959   4.559   6.889  10.152  2.9262  0.5738 -0.0256
 1015MOL0     H33960   4.311   6.784  10.148  4.0027  0.0054 -2.8285
 1015MOL0     H33961   4.344   6.909  10.276  1.8340 -0.1020 -0.3539
 1015MOL0     H33962   5.371   7.023   9.690 -0.7818 -0.2503 -0.6714
 1015MOL0     H33963   5.601   6.973   9.620  0.1213 -0.3757 -0.2921
 1015MOL0     H33964   5.900   6.500   9.599  0.4904 -0.5581 -1.8921
 1015MOL0     H33965   6.119   6.418   9.578  2.6295  0.8847  1.1015
 1015MOL0     H33966   7.985   6.211   8.813  0.4133  0.6971 -1.3854
 1015MOL0     H33967   8.221   6.151   8.833  1.1258 -1.8431 -0.1975
 1015MOL0     H33968   8.640   6.078   8.694  1.7361  0.2257  1.0373
 1015MOL0     H33969   8.883   5.997   8.740 -1.3278  1.9206 -0.0218
 1015MOL0     H33970   8.936   5.585   8.699  1.5074 -0.3889 -1.4293
 1015MOL0     H33971   8.955   5.566   8.877  3.1059 -0.8415 -0.1100
 1015MOL0     H33972   9.186   5.636   8.873  0.1581  2.4676 -0.5044
 1015MOL0     H33973   9.157   5.498   8.777 -1.7302 -0.0012 -1.9170
 1015MOL0     H33974   9.120   5.683   8.587 -0.3431  1.4278  1.1058
 1015MOL0     H33975   9.277   5.603   8.621  0.7580  0.1156  1.8544
 1015MOL0     H33976   9.308   5.855   8.619  3.4239 -1.8160 -1.4971
 1015MOL0     H33977   9.207   5.845   8.768 -2.3455 -3.3048 -0.1910
 1015MOL0     H33978   9.561   5.722   8.923 -1.9058  2.4106  2.7033
 1015MOL0     H33979   8.730   5.625   8.857  2.5145  0.0025 -0.8876
 1015MOL0     H33980   8.493   5.712   8.853  0.7163 -0.6862  1.8594
 1016MOL0     O33981   6.871   0.842   1.059 -0.2092  0.6405  0.1947
 1016MOL0     C33982   6.872   0.801   0.945 -0.5481 -0.3516 -1.1735
 1016MOL0     O33983   6.772   0.799   0.855  0.1792  0.3622 -0.4288
 1016MOL0     C33984   6.658   0.876   0.887 -0.1847 -0.0351 -0.1473
 1016MOL0     C33985   6.538   0.806   0.936  0.6405  0.1094 -0.0412
 1016MOL0     C33986   6.426   0.886   0.943 -0.1825 -0.4000 -0.8087
 1016MOL0     C33987   6.437   1.022   0.926 -0.0562 -0.1565 -0.1475
 1016MOL0     O33988   6.313   1.083   0.941  0.0719  0.8584 -0.0368
 1016MOL0     C33989   6.282   1.194   0.860 -1.1332  0.6255 -0.3741
 1016MOL0     C33990   6.136   1.244   0.875 -0.8454  0.1958 -0.0940
 1016MOL0     C33991   6.044   1.156   0.800  0.2580  0.1614 -0.2253
 1016MOL0     C33992   5.901   1.201   0.849 -0.3394  0.4704 -0.5613
 1016MOL0     C33993   5.795   1.102   0.801 -0.3465  0.1398  0.0314
 1016MOL0     C33994   5.658   1.132   0.858 -0.7863  0.4812 -0.2597
 1016MOL0     C33995   5.578   1.244   0.787 -0.0328 -0.1246 -0.3345
 1016MOL0     C33996   5.427   1.227   0.805 -0.5760  0.2210  0.4889
 1016MOL0     N33997   5.364   1.121   0.719 -0.4440  0.1291  0.1490
 1016MOL0     C33998   5.232   1.081   0.717 -0.1681 -0.0453 -0.0892
 1016MOL0     C33999   5.221   0.990   0.611 -1.0802 -0.2450  0.3280
 1016MOL0     C34000   5.111   0.900   0.557 -0.1414  0.1761  0.2585
 1016MOL0     C34001   4.980   0.919   0.645  0.1322  0.5067  0.1251
 1016MOL0     C34002   4.901   0.795   0.636  0.2243  0.8526 -0.0535
 1016MOL0     C34003   4.763   0.819   0.675  0.2293  1.2572  0.3997
 1016MOL0     O34004   4.681   0.882   0.572 -0.4377  0.0677 -0.1835
 1016MOL0     C34005   4.550   0.904   0.598  0.8465  0.0531  1.0048
 1016MOL0     C34006   4.478   0.893   0.713 -0.0472 -0.0123  0.0343
 1016MOL0     C34007   4.347   0.928   0.732 -0.6674  0.6577 -0.3528
 1016MOL0     C34008   4.271   0.977   0.623  0.0209  0.8011  0.2612
 1016MOL0     C34009   4.132   1.026   0.635  0.3684 -0.0870  0.3027
 1016MOL0     O34010   4.083   1.036   0.762  0.4892  0.8275  0.0871
 1016MOL0     C34011   3.953   1.081   0.777  0.3452  0.0842  0.2993
 1016MOL0     C34012   3.933   1.219   0.757 -0.3815  0.2890 -0.2734
 1016MOL0     C34013   3.802   1.267   0.777  0.4579  0.5827  0.3558
 1016MOL0     C34014   3.701   1.185   0.818 -0.3316  0.1227 -0.2502
 1016MOL0     O34015   3.570   1.243   0.822 -0.3532 -0.1594 -0.3958
 1016MOL0     C34016   3.460   1.168   0.878  1.0212 -1.4075 -0.8933
 1016MOL0     C34017   3.321   1.251   0.865 -0.6479 -0.1024 -0.8280
 1016MOL0     C34018   3.211   1.215   0.968 -0.2759  0.0619  0.3233
 1016MOL0     C34019   3.090   1.305   0.952 -1.0200  0.1299 -0.2715
 1016MOL0     C34020   2.982   1.259   1.051  0.3235  0.3484  0.1592
 1016MOL0     C34021   2.848   1.343   1.035 -0.5764 -0.1948 -0.7189
 1016MOL0     C34022   2.755   1.331   1.163  0.1033  0.0613 -0.3598
 1016MOL0     C34023   2.621   1.409   1.152 -0.4670  0.4883 -0.2483
 1016MOL0    Cl34024   2.649   1.585   1.205  0.0115  0.1369 -0.0863
 1016MOL0     C34025   3.726   1.050   0.853  1.2074  0.1111  0.1319
 1016MOL0     C34026   3.857   0.998   0.829  0.6963  0.3390 -0.2305
 1016MOL0     O34027   4.069   1.056   0.529 -0.5079 -0.1142 -0.0920
 1016MOL0     C34028   4.336   0.985   0.501  0.5966  0.0532 -0.3110
 1016MOL0     C34029   4.470   0.951   0.492 -0.2324  0.5336  0.1681
 1016MOL0     N34030   5.347   0.970   0.557 -0.0251  0.2502  0.5262
 1016MOL0     N34031   5.433   1.052   0.622 -0.4362  0.4103  0.3940
 1016MOL0     C34032   6.554   1.091   0.901 -1.1086 -0.0737 -0.1975
 1016MOL0     C34033   6.668   1.010   0.871  0.8725 -0.1897  1.0511
 1016MOL0     C34034   7.003   0.746   0.887 -0.4140 -0.7927  0.4227
 1016MOL0     C34035   7.017   0.690   0.756  0.2169  0.6473  0.2395
 1016MOL0     C34036   7.134   0.609   0.729 -0.8695  0.0236  0.0125
 1016MOL0     C34037   7.248   0.616   0.812 -0.0079  0.1443 -0.9010
 1016MOL0     O34038   7.376   0.571   0.791  0.2847 -1.0268 -0.2025
 1016MOL0     C34039   7.397   0.489   0.685 -0.0878 -0.5765  0.2411
 1016MOL0     C34040   7.545   0.453   0.693 -0.0304  0.3438  0.0886
 1016MOL0     C34041   7.592   0.341   0.600  0.3788  0.2121 -0.0901
 1016MOL0     C34042   7.716   0.270   0.642 -0.2632 -0.3668  0.3332
 1016MOL0     C34043   7.738   0.158   0.553 -0.1803  0.0573 -0.7071
 1016MOL0     C34044   7.758   0.076   0.464  0.8078 -0.2225 -0.4619
 1016MOL0     C34045   7.241   0.704   0.918  0.4519  0.0940  0.1716
 1016MOL0     C34046   7.119   0.758   0.957 -0.6704  0.3448 -1.2625
 1016MOL0     H34047   6.543   0.700   0.961 -0.5295 -0.1639 -0.8613
 1016MOL0     H34048   6.328   0.849   0.972 -0.2053 -1.1244 -1.7453
 1016MOL0     H34049   6.309   1.159   0.760 -1.0643 -0.6762  0.0743
 1016MOL0     H34050   6.351   1.275   0.886 -0.7556  0.4595 -0.8454
 1016MOL0     H34051   6.131   1.347   0.838 -0.7526 -0.3515 -1.6975
 1016MOL0     H34052   6.109   1.252   0.981  1.3805  0.7425  0.4701
 1016MOL0     H34053   6.072   1.056   0.836  1.0738  0.0867 -1.0370
 1016MOL0     H34054   6.050   1.163   0.692 -1.9132 -2.5361 -0.6357
 1016MOL0     H34055   5.893   1.206   0.958  1.3709 -4.3560  0.0187
 1016MOL0     H34056   5.883   1.300   0.806 -0.8304  1.1866  1.2078
 1016MOL0     H34057   5.829   0.999   0.817 -0.5464  0.0133 -0.3542
 1016MOL0     H34058   5.794   1.122   0.693  0.8330  0.2350  0.0194
 1016MOL0     H34059   5.674   1.161   0.962  0.8077 -3.3459  0.7377
 1016MOL0     H34060   5.602   1.039   0.862  0.3710 -0.1864  2.9841
 1016MOL0     H34061   5.609   1.341   0.827 -2.4016  1.3892 -1.9235
 1016MOL0     H34062   5.604   1.253   0.681 -1.0536  0.4095 -0.5504
 1016MOL0     H34063   5.391   1.326   0.775  0.3915  0.3089 -0.4216
 1016MOL0     H34064   5.398   1.210   0.910 -3.1204  0.1667 -0.1456
 1016MOL0     H34065   5.154   1.105   0.789 -1.9796 -2.1332 -1.1981
 1016MOL0     H34066   5.143   0.795   0.556 -0.7968 -0.0469 -2.3978
 1016MOL0     H34067   5.095   0.927   0.453  2.0934  0.1965 -0.1406
 1016MOL0     H34068   4.913   0.994   0.602  0.8343  2.5130  2.3178
 1016MOL0     H34069   5.000   0.941   0.751  0.7072 -0.0121  0.1313
 1016MOL0     H34070   4.901   0.747   0.538  2.9009 -1.1466  0.8082
 1016MOL0     H34071   4.943   0.717   0.700 -0.5890 -2.0198 -2.7908
 1016MOL0     H34072   4.755   0.883   0.763 -1.2025  2.1920 -0.3825
 1016MOL0     H34073   4.718   0.720   0.692 -0.3929  1.5225  0.3085
 1016MOL0     H34074   4.528   0.849   0.798  2.9686 -1.0761 -2.1318
 1016MOL0     H34075   4.303   0.909   0.829 -1.2235 -0.5569 -0.8134
 1016MOL0     H34076   4.019   1.278   0.726 -0.8772  0.8001 -0.7013
 1016MOL0     H34077   3.775   1.366   0.742  0.0373  1.2361  2.3910
 1016MOL0     H34078   3.476   1.154   0.986  0.8758 -0.0675 -0.6763
 1016MOL0     H34079   3.448   1.067   0.838 -0.7620 -0.6643 -2.3851
 1016MOL0     H34080   3.293   1.258   0.760 -0.0934 -0.5666 -1.0159
 1016MOL0     H34081   3.352   1.353   0.892  1.7848 -0.9724 -0.0682
 1016MOL0     H34082   3.258   1.222   1.066  1.1033 -0.3368 -0.2863
 1016MOL0     H34083   3.172   1.112   0.963  1.5080 -0.6957  1.2171
 1016MOL0     H34084   3.120   1.407   0.978  0.0357 -0.3405  0.3963
 1016MOL0     H34085   3.051   1.298   0.850  1.4463 -2.8918 -1.1648
 1016MOL0     H34086   3.029   1.282   1.147  1.3574 -1.9064  0.2477
 1016MOL0     H34087   2.938   1.159   1.052  0.7798  0.1421 -0.1794
 1016MOL0     H34088   2.795   1.299   0.950 -1.5048 -2.7099  1.0612
 1016MOL0     H34089   2.863   1.451   1.020 -0.2333 -0.2342 -0.6780
 1016MOL0     H34090   2.720   1.229   1.176  1.0712 -0.7787 -3.4846
 1016MOL0     H34091   2.806   1.367   1.253  1.7879  0.6123 -1.4843
 1016MOL0     H34092   2.558   1.362   1.227  0.7877 -1.2084 -0.2044
 1016MOL0     H34093   2.572   1.398   1.054  0.5273 -3.4806 -0.4609
 1016MOL0     H34094   3.654   0.984   0.901  1.0272  0.2065 -0.0045
 1016MOL0     H34095   3.868   0.900   0.872 -1.2276  0.2242  0.1057
 1016MOL0     H34096   4.289   1.026   0.412 -0.3633  1.4103  0.7771
 1016MOL0     H34097   4.527   0.945   0.400 -2.2567 -1.7342 -1.0676
 1016MOL0     H34098   6.569   1.198   0.910  0.4227 -0.0323 -2.5024
 1016MOL0     H34099   6.767   1.052   0.852  0.2001  1.4160  0.9909
 1016MOL0     H34100   6.938   0.687   0.681  1.8544 -0.4940 -1.5392
 1016MOL0     H34101   7.146   0.545   0.643 -2.3813 -1.2462  0.6923
 1016MOL0     H34102   7.376   0.530   0.586 -2.5540  0.0284  0.9508
 1016MOL0     H34103   7.333   0.401   0.696  0.4318 -0.7675  2.1228
 1016MOL0     H34104   7.611   0.538   0.674 -0.0914  0.0723 -1.4578
 1016MOL0     H34105   7.566   0.421   0.796  0.3147  2.5077  0.7402
 1016MOL0     H34106   7.602   0.373   0.496  0.5051  3.1759  0.7356
 1016MOL0     H34107   7.508   0.271   0.603  0.3080  0.3040  0.0661
 1016MOL0     H34108   7.802   0.339   0.640  0.6532 -1.2360  3.3257
 1016MOL0     H34109   7.707   0.237   0.746 -0.2257 -1.0963  0.1080
 1016MOL0     H34110   7.783   0.006   0.387  0.2124  0.2834 -1.1353
 1016MOL0     H34111   7.330   0.709   0.981 -0.4623 -0.9494  1.6092
 1016MOL0     H34112   7.115   0.813   1.051 -1.1998  0.6244 -1.4424
 1017MOL0     O34113   0.937   7.054   8.321  0.0182  0.4106  0.0997
 1017MOL0     C34114   1.034   7.128   8.323 -0.3890 -0.4097 -0.2611
 1017MOL0     O34115   1.025   7.257   8.288  0.4104 -0.4584 -0.8572
 1017MOL0     C34116   0.919   7.317   8.230 -0.0529  0.3255 -0.0616
 1017MOL0     C34117   0.779   7.290   8.240  0.5760 -0.6350  0.7181
 1017MOL0     C34118   0.690   7.371   8.170 -0.4901 -1.4546  0.5948
 1017MOL0     C34119   0.733   7.491   8.098  0.0828 -1.0100  0.3649
 1017MOL0     O34120   0.633   7.566   8.035  0.5810  0.5103 -0.0144
 1017MOL0     C34121   0.658   7.697   7.992  0.0911 -0.6460 -0.9963
 1017MOL0     C34122   0.546   7.763   7.910  0.3160 -0.0375  0.3166
 1017MOL0     C34123   0.536   7.677   7.782  0.0827  0.3243 -0.1633
 1017MOL0     C34124   0.406   7.722   7.703  0.7521  0.3226 -0.1457
 1017MOL0     C34125   0.340   7.600   7.633 -0.1337  0.3341 -1.1819
 1017MOL0     C34126   0.232   7.660   7.541  0.4470  0.2624  0.8101
 1017MOL0     C34127   0.142   7.549   7.490  0.4520  0.1922 -0.4174
 1017MOL0     C34128   0.048   7.595   7.381 -0.5190 -0.7094  0.7999
 1017MOL0     N34129  -0.056   7.498   7.382 -0.1447 -0.3700 -0.5358
 1017MOL0     C34130  -0.052   7.371   7.346 -1.0408 -0.6234  0.5834
 1017MOL0     C34131  -0.170   7.321   7.377  0.1630  0.4407  0.2090
 1017MOL0     C34132  -0.232   7.186   7.345 -0.7608  0.1510 -0.2473
 1017MOL0     C34133  -0.373   7.199   7.278  1.2758 -1.3758  0.0005
 1017MOL0     C34134  -0.453   7.068   7.268 -1.0435  0.0632 -0.4276
 1017MOL0     C34135  -0.570   7.091   7.175 -0.5884 -0.7173 -0.0370
 1017MOL0     O34136  -0.520   7.107   7.039  0.3108  0.4098  0.1457
 1017MOL0     C34137  -0.612   7.102   6.938  0.8629  0.3057  0.0066
 1017MOL0     C34138  -0.700   6.988   6.922  0.5098  0.7262 -0.9881
 1017MOL0     C34139  -0.817   6.986   6.841  0.3783  0.5339 -0.4464
 1017MOL0     C34140  -0.822   7.103   6.762  0.0251  0.5168  0.1715
 1017MOL0     C34141  -0.947   7.111   6.675  0.1450 -0.6642 -0.6689
 1017MOL0     O34142  -0.958   7.216   6.600  0.1868  0.2535  0.5136
 1017MOL0     C34143  -1.075   7.213   6.532 -0.5967  0.1722  0.4128
 1017MOL0     C34144  -1.180   7.276   6.591 -0.2201  0.3310  0.4429
 1017MOL0     C34145  -1.309   7.266   6.525  0.0734 -0.4758  0.1284
 1017MOL0     C34146  -1.324   7.226   6.392  0.1813  0.1691 -0.4235
 1017MOL0     O34147  -1.444   7.225   6.317 -0.3169 -0.5985 -0.6042
 1017MOL0     C34148  -1.563   7.196   6.393  0.6503  0.3179  0.3336
 1017MOL0     C34149  -1.683   7.153   6.304 -0.5173 -0.7851 -0.0692
 1017MOL0     C34150  -1.705   7.264   6.199 -0.1567  0.5433 -0.3192
 1017MOL0     C34151  -1.810   7.224   6.091  0.7265 -0.3187 -0.7281
 1017MOL0     C34152  -1.793   7.329   5.974 -0.5373 -0.3475  1.2697
 1017MOL0     C34153  -1.854   7.294   5.844 -0.1146  0.0355  0.6299
 1017MOL0     C34154  -1.866   7.412   5.744  0.2384  0.0026  0.2628
 1017MOL0     C34155  -1.913   7.373   5.602  0.2188  0.4552 -0.5503
 1017MOL0    Cl34156  -2.083   7.324   5.616 -0.3945 -0.4114  0.1382
 1017MOL0     C34157  -1.211   7.182   6.327 -0.6267  0.8929  0.0799
 1017MOL0     C34158  -1.088   7.171   6.396 -0.0670  0.3037 -0.1500
 1017MOL0     O34159  -1.027   7.019   6.681  0.1709  0.6247  0.0864
 1017MOL0     C34160  -0.731   7.213   6.764  0.9212  0.6916 -0.4866
 1017MOL0     C34161  -0.634   7.218   6.854 -0.0097  0.2177 -0.7918
 1017MOL0     N34162  -0.249   7.427   7.426  0.2392  0.1854 -0.4573
 1017MOL0     N34163  -0.180   7.531   7.430 -0.0456  0.4861  0.0004
 1017MOL0     C34164   0.875   7.514   8.088  0.4003  0.1175 -0.2388
 1017MOL0     C34165   0.962   7.421   8.142 -0.4826 -0.1507 -0.4919
 1017MOL0     C34166   1.167   7.077   8.372 -0.5599  0.7467 -0.4953
 1017MOL0     C34167   1.184   6.938   8.385 -0.7243  0.8434 -0.4802
 1017MOL0     C34168   1.317   6.884   8.413 -0.0270  0.3262  0.4322
 1017MOL0     C34169   1.421   6.966   8.445 -0.6060  0.2371  0.0506
 1017MOL0     O34170   1.541   6.906   8.479  0.2686 -0.8438 -0.1941
 1017MOL0     C34171   1.648   6.990   8.522  0.5506  0.1771 -0.2810
 1017MOL0     C34172   1.772   6.901   8.531 -0.6081  0.4802  0.0797
 1017MOL0     C34173   1.885   6.983   8.606 -0.1049 -0.7838  0.8321
 1017MOL0     C34174   2.028   6.946   8.565  0.1877 -0.1050  0.0616
 1017MOL0     C34175   2.050   6.954   8.415 -0.3760  0.7115  0.2740
 1017MOL0     C34176   2.087   6.936   8.302 -0.0597 -0.5778  0.3459
 1017MOL0     C34177   1.407   7.106   8.447 -0.0079 -0.5571  0.0748
 1017MOL0     C34178   1.282   7.163   8.401 -0.3527 -0.0572  0.0405
 1017MOL0     H34179   0.751   7.199   8.292 -1.6197  0.2463  1.1807
 1017MOL0     H34180   0.586   7.341   8.166 -0.2193 -2.4144  0.4815
 1017MOL0     H34181   0.747   7.702   7.929  1.6651 -2.0869  0.9594
 1017MOL0     H34182   0.675   7.754   8.084  0.7711 -2.3568  0.0022
 1017MOL0     H34183   0.566   7.868   7.887 -2.8533  0.8044  0.9494
 1017MOL0     H34184   0.453   7.766   7.968 -0.0807  3.0767 -0.2915
 1017MOL0     H34185   0.522   7.569   7.795 -0.9528  0.4949  0.2495
 1017MOL0     H34186   0.624   7.689   7.719 -0.3451  3.3021 -0.3097
 1017MOL0     H34187   0.337   7.777   7.769  0.3332  0.7674 -0.9444
 1017MOL0     H34188   0.442   7.794   7.630  2.4094  0.9266  1.2024
 1017MOL0     H34189   0.297   7.532   7.707  1.0636 -0.7115 -1.4277
 1017MOL0     H34190   0.409   7.542   7.571  2.1984  0.8679  0.7986
 1017MOL0     H34191   0.266   7.729   7.463 -2.2829  0.9168  0.1039
 1017MOL0     H34192   0.166   7.723   7.601  0.8759  1.0444  0.4770
 1017MOL0     H34193   0.204   7.478   7.436  0.1154  1.3106 -2.3817
 1017MOL0     H34194   0.102   7.500   7.579 -0.2365 -2.4870 -2.0788
 1017MOL0     H34195   0.096   7.590   7.283 -0.6075  0.7123  0.6719
 1017MOL0     H34196   0.016   7.698   7.394  1.3111  0.3562 -2.0454
 1017MOL0     H34197   0.041   7.327   7.309 -0.9073 -1.2028  1.5716
 1017MOL0     H34198  -0.253   7.126   7.433  0.4789 -1.2215 -0.8485
 1017MOL0     H34199  -0.170   7.124   7.279  0.1267  1.6354 -0.8714
 1017MOL0     H34200  -0.359   7.222   7.172  1.0939 -3.3234 -0.4945
 1017MOL0     H34201  -0.436   7.277   7.321  0.2932 -1.2434 -1.5959
 1017MOL0     H34202  -0.397   6.987   7.221  1.9109  2.2058 -0.8863
 1017MOL0     H34203  -0.486   7.036   7.367 -1.1563 -1.8753 -1.0648
 1017MOL0     H34204  -0.628   7.174   7.217  0.9962  1.0394 -1.2009
 1017MOL0     H34205  -0.643   7.012   7.195 -2.2341  1.0377  1.3277
 1017MOL0     H34206  -0.681   6.890   6.965 -0.7156  1.8803  2.5403
 1017MOL0     H34207  -0.881   6.900   6.830 -0.7442  1.4561 -1.4073
 1017MOL0     H34208  -1.159   7.304   6.693  3.0409  2.3760 -0.6533
 1017MOL0     H34209  -1.400   7.291   6.580 -1.0558 -2.2881 -0.8236
 1017MOL0     H34210  -1.587   7.282   6.455  0.2549 -0.3905  1.1832
 1017MOL0     H34211  -1.553   7.109   6.460 -1.6127  0.0325  0.3731
 1017MOL0     H34212  -1.775   7.146   6.363 -1.0035  2.2674 -0.3204
 1017MOL0     H34213  -1.666   7.052   6.264  0.4202  0.1387 -2.1309
 1017MOL0     H34214  -1.609   7.280   6.149  0.0420  2.1625  0.5209
 1017MOL0     H34215  -1.750   7.355   6.239 -1.0872  0.4623 -1.1341
 1017MOL0     H34216  -1.796   7.121   6.057  0.6579  0.0376 -1.8927
 1017MOL0     H34217  -1.913   7.233   6.127  0.9265 -0.1348 -0.1896
 1017MOL0     H34218  -1.687   7.328   5.948 -0.4071  0.5807  1.7508
 1017MOL0     H34219  -1.803   7.433   6.006 -0.0604 -0.3705  1.5124
 1017MOL0     H34220  -1.960   7.271   5.856  0.2024 -2.6896 -1.0696
 1017MOL0     H34221  -1.811   7.201   5.805  0.3967  0.2820  0.6053
 1017MOL0     H34222  -1.925   7.499   5.775  1.1685  2.1403 -3.2563
 1017MOL0     H34223  -1.766   7.453   5.729  0.8326 -1.6998 -0.6194
 1017MOL0     H34224  -1.849   7.290   5.571  2.4786  0.9581  2.3538
 1017MOL0     H34225  -1.909   7.461   5.537 -1.2061  2.9769  2.5420
 1017MOL0     H34226  -1.225   7.139   6.228  0.1870  1.0241 -0.0943
 1017MOL0     H34227  -1.002   7.141   6.336 -0.5295 -0.0255 -0.6617
 1017MOL0     H34228  -0.759   7.297   6.700  1.5237 -0.8072 -2.8774
 1017MOL0     H34229  -0.574   7.302   6.886  0.6364 -1.1737  1.9555
 1017MOL0     H34230   0.913   7.605   8.042 -0.3048 -0.0846 -1.2537
 1017MOL0     H34231   1.070   7.420   8.134 -0.4340  0.5243 -0.0669
 1017MOL0     H34232   1.111   6.864   8.354 -0.3074  0.9707 -1.8624
 1017MOL0     H34233   1.331   6.777   8.420  1.0452  0.4671  0.6444
 1017MOL0     H34234   1.625   7.033   8.621 -2.1443 -0.9851 -0.3087
 1017MOL0     H34235   1.657   7.072   8.450 -0.0685  0.4115 -0.1061
 1017MOL0     H34236   1.762   6.809   8.589  0.4293 -0.2979 -0.9207
 1017MOL0     H34237   1.794   6.877   8.427 -2.3369  2.6065 -0.8604
 1017MOL0     H34238   1.868   6.978   8.714 -1.8398 -0.7071  0.5965
 1017MOL0     H34239   1.861   7.089   8.588  2.5940 -0.0932  0.8460
 1017MOL0     H34240   2.107   7.004   8.615  0.6999 -2.2589  1.8795
 1017MOL0     H34241   2.043   6.844   8.600 -2.9424 -1.0708 -1.0345
 1017MOL0     H34242   2.130   6.923   8.205  1.6672  0.3850  0.9461
 1017MOL0     H34243   1.486   7.175   8.474  2.2705 -2.8037 -0.5129
 1017MOL0     H34244   1.252   7.267   8.391 -0.1085 -0.0333 -0.4805
 1018MOL0     O34245  10.557   1.835   1.962  0.0416 -0.7255 -0.0997
 1018MOL0     C34246  10.622   1.751   2.019  0.0148 -0.2009  0.1063
 1018MOL0     O34247  10.577   1.626   2.058 -0.0778 -0.5891 -0.2251
 1018MOL0     C34248  10.458   1.580   2.009 -0.1881 -0.9145  0.7595
 1018MOL0     C34249  10.417   1.580   1.869 -0.4969 -0.5238 -0.5042
 1018MOL0     C34250  10.299   1.515   1.834  0.3991  0.6643  0.1769
 1018MOL0     C34251  10.208   1.468   1.927  0.2241 -0.1457  0.1427
 1018MOL0     O34252  10.099   1.414   1.876  0.5140  0.3972 -0.7652
 1018MOL0     C34253   9.992   1.358   1.961 -0.5454  1.4348  0.3801
 1018MOL0     C34254   9.902   1.449   2.041  0.3150  0.3642 -0.3406
 1018MOL0     C34255   9.783   1.375   2.106 -0.6534  0.2073 -0.2479
 1018MOL0     C34256   9.697   1.473   2.184  0.6418  0.0263 -0.5308
 1018MOL0     C34257   9.551   1.397   2.202 -0.7084 -0.6188 -0.7199
 1018MOL0     C34258   9.453   1.500   2.254 -0.0460  0.0043 -0.3197
 1018MOL0     C34259   9.321   1.433   2.279  0.2364  0.3364 -0.1061
 1018MOL0     C34260   9.217   1.536   2.314 -0.1443 -0.5243  0.2243
 1018MOL0     N34261   9.118   1.479   2.401  0.6868 -0.9141  0.9242
 1018MOL0     C34262   8.979   1.483   2.388  0.0223  0.7081 -0.3908
 1018MOL0     C34263   8.940   1.428   2.506 -0.4382  0.0158 -0.2811
 1018MOL0     C34264   8.797   1.424   2.558  0.0382 -0.0412  0.2530
 1018MOL0     C34265   8.793   1.379   2.711 -0.1474 -0.3197  0.1067
 1018MOL0     C34266   8.659   1.386   2.759  0.6500  0.7172 -0.2638
 1018MOL0     C34267   8.617   1.294   2.878  0.5623  0.4565 -0.1104
 1018MOL0     O34268   8.510   1.364   2.949  0.7179 -0.0187  0.5535
 1018MOL0     C34269   8.381   1.348   2.922 -0.4901  0.3136 -0.2939
 1018MOL0     C34270   8.330   1.280   2.810 -0.6041 -0.0565 -0.2327
 1018MOL0     C34271   8.188   1.276   2.790 -0.0440  0.6966 -0.4756
 1018MOL0     C34272   8.105   1.336   2.881 -0.9894 -0.1370 -0.4775
 1018MOL0     C34273   7.963   1.327   2.870  0.6312  0.7029 -0.0477
 1018MOL0     O34274   7.916   1.253   2.770  0.8022  0.6593  0.1055
 1018MOL0     C34275   7.790   1.197   2.777 -0.3109  0.2535  0.7608
 1018MOL0     C34276   7.718   1.170   2.898  0.3384  0.0935 -0.3553
 1018MOL0     C34277   7.590   1.112   2.885 -0.0756 -0.9281  1.1938
 1018MOL0     C34278   7.538   1.079   2.750 -0.8030 -0.1542  0.5805
 1018MOL0     O34279   7.419   1.026   2.715  0.0581  0.1089  0.1237
 1018MOL0     C34280   7.321   1.006   2.823  0.1033  0.4570  0.3584
 1018MOL0     C34281   7.215   1.103   2.836  0.5554  0.4740  0.2496
 1018MOL0     C34282   7.119   1.115   2.711  0.4398  0.1360  0.9251
 1018MOL0     C34283   7.003   1.193   2.771  0.2803  0.4829  0.1849
 1018MOL0     C34284   6.896   1.216   2.667  0.2484  0.1980  0.0074
 1018MOL0     C34285   6.754   1.226   2.724 -0.6208  0.2107 -0.2021
 1018MOL0     C34286   6.660   1.276   2.615 -0.1800 -0.2200 -0.4059
 1018MOL0     C34287   6.522   1.309   2.660 -0.6014 -0.0934 -0.6121
 1018MOL0    Cl34288   6.502   1.468   2.762 -0.4192  0.2286  0.4778
 1018MOL0     C34289   7.617   1.105   2.637  0.1952 -1.2671 -0.1286
 1018MOL0     C34290   7.750   1.160   2.647  0.2217  0.0748 -0.6727
 1018MOL0     O34291   7.892   1.380   2.948  0.1588 -0.1441 -0.2423
 1018MOL0     C34292   8.157   1.413   2.977  0.1900  0.7345 -0.8792
 1018MOL0     C34293   8.295   1.420   2.995  0.6468 -0.0766 -0.6764
 1018MOL0     N34294   9.042   1.380   2.585 -0.7298 -0.2187  0.1721
 1018MOL0     N34295   9.148   1.403   2.517  0.0434 -0.1536  0.0103
 1018MOL0     C34296  10.237   1.477   2.059  0.4156  0.5607 -0.5790
 1018MOL0     C34297  10.361   1.522   2.099 -0.5574  0.3844  0.2273
 1018MOL0     C34298  10.765   1.781   2.046  0.5914 -0.4187  0.1385
 1018MOL0     C34299  10.843   1.689   2.120 -0.4716 -0.5528  0.6437
 1018MOL0     C34300  10.974   1.720   2.137 -0.7817  0.0988  0.1145
 1018MOL0     C34301  11.031   1.843   2.111  0.5142 -0.3925  0.4882
 1018MOL0     O34302  11.161   1.858   2.156  0.0080 -0.4234  0.5223
 1018MOL0     C34303  11.238   1.984   2.143  0.8084 -0.1826 -0.4452
 1018MOL0     C34304  11.203   2.082   2.245 -0.1143 -0.3256  0.1668
 1018MOL0     C34305  11.215   2.031   2.392 -0.4930  0.5190  0.0465
 1018MOL0     C34306  11.144   2.117   2.496  0.2090 -0.0479  0.7261
 1018MOL0     C34307  11.219   2.241   2.517 -1.6596 -1.2028 -0.4196
 1018MOL0     C34308  11.260   2.351   2.524 -0.9167 -0.3710 -0.2440
 1018MOL0     C34309  10.949   1.930   2.040  0.1421 -0.2760 -0.2075
 1018MOL0     C34310  10.819   1.909   2.004 -0.1553  0.3927  0.2038
 1018MOL0     H34311  10.482   1.616   1.790 -3.0879  0.2657 -2.4467
 1018MOL0     H34312  10.270   1.508   1.729 -1.6020  1.4484  0.6323
 1018MOL0     H34313  10.033   1.282   2.028 -0.2697  0.7164 -0.5891
 1018MOL0     H34314   9.926   1.305   1.892  1.0551 -2.6005  1.6482
 1018MOL0     H34315   9.850   1.519   1.976 -0.6770 -0.1282 -0.0926
 1018MOL0     H34316   9.964   1.502   2.115 -0.4205 -0.6480  1.0426
 1018MOL0     H34317   9.829   1.296   2.167 -0.3620  1.3872  1.1199
 1018MOL0     H34318   9.724   1.332   2.024 -1.6893  2.6839 -0.8990
 1018MOL0     H34319   9.745   1.480   2.282  0.2377 -0.0025 -0.3283
 1018MOL0     H34320   9.684   1.563   2.124  1.4530 -0.7198 -1.9050
 1018MOL0     H34321   9.558   1.311   2.269 -0.3003 -0.1920 -0.2058
 1018MOL0     H34322   9.524   1.366   2.100 -2.1799  0.3441 -0.6546
 1018MOL0     H34323   9.452   1.583   2.183  0.4335 -0.2244 -0.6016
 1018MOL0     H34324   9.495   1.540   2.347  1.1148 -1.6636 -0.0668
 1018MOL0     H34325   9.289   1.369   2.197  2.8513 -1.8718  0.4337
 1018MOL0     H34326   9.334   1.364   2.363 -1.7937  1.5768  1.3252
 1018MOL0     H34327   9.174   1.568   2.218  0.9995  0.0824 -0.1151
 1018MOL0     H34328   9.259   1.626   2.359 -0.4354  0.2650 -1.0123
 1018MOL0     H34329   8.910   1.526   2.316 -1.6976 -1.3065 -0.0697
 1018MOL0     H34330   8.740   1.352   2.498 -0.8708  0.6045  0.3154
 1018MOL0     H34331   8.756   1.525   2.547 -0.6652 -0.5345 -2.0565
 1018MOL0     H34332   8.859   1.442   2.771  0.2379 -1.0516  0.4633
 1018MOL0     H34333   8.839   1.280   2.717  0.3134 -0.3129 -2.2591
 1018MOL0     H34334   8.627   1.485   2.791 -1.2726  1.0611 -2.9164
 1018MOL0     H34335   8.592   1.359   2.676  0.7362  0.3563 -0.2181
 1018MOL0     H34336   8.696   1.281   2.953 -3.5615  0.6217  4.8489
 1018MOL0     H34337   8.584   1.196   2.842  1.3090 -0.8088  2.4192
 1018MOL0     H34338   8.397   1.235   2.738 -0.4977 -0.2314 -0.0243
 1018MOL0     H34339   8.159   1.198   2.720  0.6422 -1.4708  1.5186
 1018MOL0     H34340   7.768   1.191   2.992  3.3405 -0.2983 -1.7515
 1018MOL0     H34341   7.539   1.095   2.980 -3.0363  0.0455 -0.1028
 1018MOL0     H34342   7.370   0.993   2.920 -1.2367 -1.1326  0.8554
 1018MOL0     H34343   7.271   0.912   2.797  1.8462 -0.6044  0.6904
 1018MOL0     H34344   7.259   1.203   2.838 -0.6062  1.0349  3.4341
 1018MOL0     H34345   7.160   1.081   2.928 -1.7575  2.8117 -0.4516
 1018MOL0     H34346   7.086   1.015   2.682 -2.9469  1.6330 -0.9436
 1018MOL0     H34347   7.162   1.168   2.626  0.8405 -0.0440  1.0118
 1018MOL0     H34348   6.966   1.139   2.858 -3.0479 -1.1536 -2.0475
 1018MOL0     H34349   7.033   1.292   2.806 -2.1350  0.1346  3.7834
 1018MOL0     H34350   6.905   1.134   2.595 -1.3948  0.3206 -0.3732
 1018MOL0     H34351   6.906   1.313   2.618  0.4838  0.1766  0.0103
 1018MOL0     H34352   6.748   1.302   2.802 -1.0402 -0.7723  0.7497
 1018MOL0     H34353   6.725   1.132   2.771 -0.3401  0.3066  0.1690
 1018MOL0     H34354   6.693   1.368   2.565 -2.4013  0.0584 -1.4958
 1018MOL0     H34355   6.653   1.201   2.535 -2.6142 -0.5329  0.0154
 1018MOL0     H34356   6.473   1.227   2.714 -0.7605  0.5873  0.3184
 1018MOL0     H34357   6.458   1.328   2.573  1.2293 -1.1808 -2.2681
 1018MOL0     H34358   7.587   1.073   2.538  1.6782 -0.0554 -1.0381
 1018MOL0     H34359   7.818   1.178   2.564 -0.0937 -0.2369 -1.0044
 1018MOL0     H34360   8.095   1.480   3.036 -1.6651 -0.9386 -0.8450
 1018MOL0     H34361   8.342   1.479   3.072  1.0203 -1.4873  0.2070
 1018MOL0     H34362  10.174   1.451   2.144 -1.5321  2.7849 -1.2233
 1018MOL0     H34363  10.387   1.521   2.204 -2.1680 -0.4301  0.6541
 1018MOL0     H34364  10.806   1.590   2.146 -0.9181  0.1087  2.7287
 1018MOL0     H34365  11.032   1.640   2.183  2.3140  0.8461 -2.1285
 1018MOL0     H34366  11.227   2.024   2.041  2.7048  0.5528 -0.4001
 1018MOL0     H34367  11.344   1.966   2.160  0.8041  0.1432 -0.0424
 1018MOL0     H34368  11.271   2.168   2.239 -0.0139 -0.2592  1.8316
 1018MOL0     H34369  11.102   2.124   2.236 -0.1889 -0.0943  1.7867
 1018MOL0     H34370  11.322   2.027   2.417 -0.1173  2.8848 -0.9104
 1018MOL0     H34371  11.178   1.929   2.403  2.2990 -0.7237 -1.0930
 1018MOL0     H34372  11.041   2.137   2.466  0.0850  0.1803  1.2962
 1018MOL0     H34373  11.154   2.061   2.589 -3.4317  0.6402  1.6708
 1018MOL0     H34374  11.293   2.452   2.539  0.2030 -0.4985 -1.6317
 1018MOL0     H34375  11.002   2.019   2.006  1.9495 -1.0284  0.4828
 1018MOL0     H34376  10.766   1.983   1.945  0.5382  0.1163 -0.7974
 1019MOL0     O34377   0.884   9.585   0.681 -0.0308 -0.2936  0.2211
 1019MOL0     C34378   0.964   9.499   0.648 -0.0632 -0.7908  0.6883
 1019MOL0     O34379   0.948   9.361   0.669  0.3190 -0.3960  0.1959
 1019MOL0     C34380   0.829   9.326   0.730 -0.1870 -0.1580 -0.1448
 1019MOL0     C34381   0.705   9.321   0.664  0.3417  1.3931  0.5841
 1019MOL0     C34382   0.587   9.295   0.730 -0.8974 -0.5382  1.4038
 1019MOL0     C34383   0.587   9.261   0.865 -0.2385 -0.5928  0.4622
 1019MOL0     O34384   0.481   9.212   0.938 -0.5450 -0.5459 -0.1191
 1019MOL0     C34385   0.356   9.205   0.870 -0.6033 -0.4402  0.5371
 1019MOL0     C34386   0.242   9.171   0.964 -0.0289  0.5432 -0.2731
 1019MOL0     C34387   0.114   9.134   0.888  0.3320  0.0305  0.4472
 1019MOL0     C34388   0.011   9.060   0.975 -0.2807 -0.5030 -0.7301
 1019MOL0     C34389  -0.130   9.081   0.929  0.2903 -0.1533 -0.1655
 1019MOL0     C34390  -0.182   9.223   0.966  0.0232  0.1549 -0.2055
 1019MOL0     C34391  -0.332   9.228   0.938 -0.0333  0.4955 -0.2853
 1019MOL0     C34392  -0.412   9.363   0.941  0.1914 -0.1533  0.2333
 1019MOL0     N34393  -0.556   9.351   0.900 -0.3271  0.7996  0.7747
 1019MOL0     C34394  -0.587   9.349   0.767  0.0369 -0.0582 -0.6237
 1019MOL0     C34395  -0.725   9.380   0.769 -0.8304  0.2631 -0.2983
 1019MOL0     C34396  -0.807   9.367   0.648 -0.6891  0.4518 -0.0139
 1019MOL0     C34397  -0.920   9.278   0.687 -0.4246 -0.0647  0.5403
 1019MOL0     C34398  -1.036   9.272   0.603 -0.0500 -0.9683  0.2200
 1019MOL0     C34399  -1.147   9.184   0.649 -0.7542 -0.1638 -0.2541
 1019MOL0     O34400  -1.100   9.049   0.631  0.1000  0.0816  0.3545
 1019MOL0     C34401  -1.145   8.960   0.539 -0.7563  0.7107  0.3571
 1019MOL0     C34402  -1.075   8.838   0.525  0.2807 -0.0849  1.2618
 1019MOL0     C34403  -1.117   8.740   0.428  0.5190  0.3651 -1.1799
 1019MOL0     C34404  -1.240   8.762   0.363 -0.9390  0.7803  0.3611
 1019MOL0     C34405  -1.299   8.664   0.261 -0.7339 -0.3138  0.0855
 1019MOL0     O34406  -1.395   8.703   0.174  0.2956 -0.8364 -0.0753
 1019MOL0     C34407  -1.473   8.615   0.119  0.3493  0.3204  0.4026
 1019MOL0     C34408  -1.454   8.580  -0.019  0.8354 -0.3508 -0.5050
 1019MOL0     C34409  -1.545   8.490  -0.070  0.3745 -0.2813 -0.4457
 1019MOL0     C34410  -1.657   8.444   0.004  0.2084  0.1406 -0.0255
 1019MOL0     O34411  -1.732   8.354  -0.065  0.1929  0.5845  0.3470
 1019MOL0     C34412  -1.772   8.222  -0.012 -0.7321 -0.1884 -0.7667
 1019MOL0     C34413  -1.839   8.143  -0.120  0.5661  0.7920 -0.2769
 1019MOL0     C34414  -1.985   8.187  -0.142 -0.7439  0.0151 -0.2584
 1019MOL0     C34415  -2.035   8.119  -0.273 -0.1080 -0.2535 -0.1550
 1019MOL0     C34416  -2.185   8.168  -0.300 -0.5787  0.0602 -0.2845
 1019MOL0     C34417  -2.284   8.151  -0.178 -0.4793  0.1669  0.1321
 1019MOL0     C34418  -2.427   8.149  -0.206 -0.3507  0.0209  0.7287
 1019MOL0     C34419  -2.471   8.271  -0.288  0.1420  0.0740  0.3677
 1019MOL0    Cl34420  -2.642   8.242  -0.340 -0.1248 -0.1481  0.4951
 1019MOL0     C34421  -1.666   8.467   0.140  0.2502 -0.6994 -0.1577
 1019MOL0     C34422  -1.580   8.563   0.198  0.2199  0.1521  0.9222
 1019MOL0     O34423  -1.249   8.550   0.267 -0.0713 -0.3147 -0.7102
 1019MOL0     C34424  -1.312   8.876   0.379  0.4376  0.3441 -1.0718
 1019MOL0     C34425  -1.264   8.975   0.466 -0.6905  0.0774 -0.2544
 1019MOL0     N34426  -0.760   9.419   0.902  0.2950  0.0891  0.4439
 1019MOL0     N34427  -0.657   9.403   0.974  0.2367  0.1359  0.4231
 1019MOL0     C34428   0.714   9.272   0.935  0.0576 -0.5513 -0.4050
 1019MOL0     C34429   0.828   9.302   0.861 -1.1593 -0.5157 -0.3302
 1019MOL0     C34430   1.084   9.540   0.581 -0.6117 -0.2928 -0.2138
 1019MOL0     C34431   1.156   9.441   0.515 -1.0842  0.3971  1.3396
 1019MOL0     C34432   1.275   9.475   0.450  0.3998  0.8802 -0.1987
 1019MOL0     C34433   1.323   9.608   0.450 -0.3384 -0.6522  0.3095
 1019MOL0     O34434   1.443   9.640   0.386 -0.5201 -0.0535 -0.1045
 1019MOL0     C34435   1.523   9.527   0.325  0.2318 -0.0707 -0.2697
 1019MOL0     C34436   1.661   9.576   0.264  0.2892  0.0498 -0.3021
 1019MOL0     C34437   1.685   9.526   0.125  0.1630 -0.0351 -0.7403
 1019MOL0     C34438   1.715   9.379   0.131  1.0720 -0.3752 -0.0348
 1019MOL0     C34439   1.844   9.353   0.182  0.2299 -0.3092 -0.1110
 1019MOL0     C34440   1.943   9.336   0.242  0.5749 -0.0037 -1.1868
 1019MOL0     C34441   1.255   9.711   0.524  0.2941  0.5385 -0.1906
 1019MOL0     C34442   1.133   9.675   0.578 -0.1468  0.2588 -0.5784
 1019MOL0     H34443   0.706   9.347   0.559  1.4033  0.0646  0.2327
 1019MOL0     H34444   0.501   9.284   0.665  0.7950 -1.7323 -0.8089
 1019MOL0     H34445   0.354   9.119   0.802 -0.3734  0.6181 -0.8549
 1019MOL0     H34446   0.330   9.291   0.807  0.3379 -0.8830 -0.4896
 1019MOL0     H34447   0.227   9.260   1.027  1.0691 -0.3669  1.3397
 1019MOL0     H34448   0.284   9.091   1.026  0.2570  1.6213  0.9818
 1019MOL0     H34449   0.140   9.082   0.795 -0.2050  1.1465 -0.3470
 1019MOL0     H34450   0.064   9.223   0.848 -3.3203 -1.9558  0.2097
 1019MOL0     H34451   0.048   8.957   0.979  1.9559  0.2917  0.4572
 1019MOL0     H34452   0.011   9.097   1.078 -1.8359 -1.4481 -0.3551
 1019MOL0     H34453  -0.186   9.006   0.987  1.8031 -0.5740  0.8083
 1019MOL0     H34454  -0.145   9.065   0.822 -2.7067 -0.1005  0.1476
 1019MOL0     H34455  -0.128   9.290   0.899 -1.9170  0.6454 -1.3576
 1019MOL0     H34456  -0.166   9.252   1.070 -1.8100 -0.4601  0.2878
 1019MOL0     H34457  -0.344   9.190   0.836  2.2283 -0.4173 -0.2568
 1019MOL0     H34458  -0.381   9.166   1.015 -0.0686 -1.1400 -1.5704
 1019MOL0     H34459  -0.365   9.427   0.866  1.4212 -3.0599 -1.6769
 1019MOL0     H34460  -0.410   9.411   1.039  0.0275  1.4392 -0.5120
 1019MOL0     H34461  -0.520   9.327   0.684  0.5231  0.5033 -0.3882
 1019MOL0     H34462  -0.752   9.307   0.575 -0.3339 -1.7346  1.8979
 1019MOL0     H34463  -0.840   9.466   0.618  0.8663  1.1768  0.5680
 1019MOL0     H34464  -0.967   9.315   0.778 -0.3159  0.9968  0.1776
 1019MOL0     H34465  -0.881   9.175   0.690 -1.3620 -0.5224 -1.4360
 1019MOL0     H34466  -1.071   9.375   0.589  2.7242 -0.0734 -0.9887
 1019MOL0     H34467  -1.004   9.245   0.502  0.8020  0.8813 -0.0411
 1019MOL0     H34468  -1.230   9.213   0.585 -1.0380  4.9497  1.9701
 1019MOL0     H34469  -1.178   9.203   0.752 -0.1191 -1.8375  0.2910
 1019MOL0     H34470  -0.994   8.823   0.597 -0.5549  3.4306  3.1475
 1019MOL0     H34471  -1.061   8.648   0.417  1.6891  0.8982 -0.0428
 1019MOL0     H34472  -1.382   8.635  -0.078 -0.0742  0.6870 -0.6699
 1019MOL0     H34473  -1.536   8.463  -0.175 -1.8955 -0.5575 -0.6219
 1019MOL0     H34474  -1.837   8.243   0.074 -0.4339 -1.1269 -0.3016
 1019MOL0     H34475  -1.679   8.173   0.018 -0.0276  0.6112 -1.5601
 1019MOL0     H34476  -1.861   8.042  -0.084 -0.4457  0.9087 -0.5219
 1019MOL0     H34477  -1.783   8.128  -0.213 -2.5547 -1.9450 -1.9561
 1019MOL0     H34478  -1.985   8.296  -0.147 -0.3119  0.0602  0.5524
 1019MOL0     H34479  -2.039   8.148  -0.054  1.1298 -0.0564  0.9177
 1019MOL0     H34480  -1.973   8.150  -0.358  0.9974  0.6543  0.9394
 1019MOL0     H34481  -2.031   8.010  -0.271 -0.4230 -0.2692 -0.2771
 1019MOL0     H34482  -2.211   8.106  -0.386  0.1717 -1.1987  0.3800
 1019MOL0     H34483  -2.178   8.273  -0.330  0.3993  0.8292  2.3787
 1019MOL0     H34484  -2.272   8.236  -0.110 -0.5611  1.4624 -1.4105
 1019MOL0     H34485  -2.264   8.061  -0.118  1.7962 -0.3174 -1.2506
 1019MOL0     H34486  -2.448   8.061  -0.267  1.7506 -0.9496  1.3487
 1019MOL0     H34487  -2.477   8.148  -0.109 -1.6830 -0.7272  0.0759
 1019MOL0     H34488  -2.402   8.289  -0.372  1.5250 -0.2924  1.3802
 1019MOL0     H34489  -2.460   8.365  -0.234 -0.9971  1.8928 -2.3978
 1019MOL0     H34490  -1.747   8.425   0.199 -0.1051 -0.9423 -0.8056
 1019MOL0     H34491  -1.590   8.596   0.301 -0.0024  1.3534  0.5396
 1019MOL0     H34492  -1.387   8.895   0.304  0.3613  0.0802 -1.0626
 1019MOL0     H34493  -1.311   9.072   0.466 -0.1606  0.3472  0.6061
 1019MOL0     H34494   0.717   9.265   1.043 -2.7351 -1.1015 -0.2863
 1019MOL0     H34495   0.925   9.291   0.909 -0.0701  3.8179 -1.0793
 1019MOL0     H34496   1.130   9.336   0.507 -1.4664  0.6117 -1.0041
 1019MOL0     H34497   1.329   9.390   0.409 -3.4133 -2.1596  0.4402
 1019MOL0     H34498   1.468   9.491   0.238  0.4270 -2.1368  0.4131
 1019MOL0     H34499   1.535   9.439   0.390 -1.6705 -1.0552 -1.1672
 1019MOL0     H34500   1.662   9.685   0.253 -0.7636  0.1432  0.4181
 1019MOL0     H34501   1.744   9.544   0.329 -0.7760 -0.8845  0.6522
 1019MOL0     H34502   1.760   9.576   0.064 -1.9514  0.0314 -3.4897
 1019MOL0     H34503   1.597   9.544   0.062 -1.5374  1.6253  1.9314
 1019MOL0     H34504   1.642   9.322   0.190  0.4859  0.2677 -0.1194
 1019MOL0     H34505   1.710   9.343   0.028  1.5149 -2.2400  0.5585
 1019MOL0     H34506   2.026   9.324   0.308 -0.8052 -1.3121  0.4347
 1019MOL0     H34507   1.296   9.811   0.525 -1.7292  1.5413 -3.1287
 1019MOL0     H34508   1.089   9.760   0.630  0.9660  0.5814 -0.1434
 1020MOL0     O34509   6.511  10.490   9.731  0.1240 -0.4756 -0.8087
 1020MOL0     C34510   6.582  10.562   9.662  0.2727  0.1511  0.1329
 1020MOL0     O34511   6.537  10.672   9.595  0.1991 -0.1659 -0.2288
 1020MOL0     C34512   6.404  10.709   9.612 -0.2307 -0.8709 -0.0932
 1020MOL0     C34513   6.359  10.772   9.733  0.0110 -0.5839 -0.2329
 1020MOL0     C34514   6.230  10.824   9.740  0.6318 -0.4846  0.5118
 1020MOL0     C34515   6.143  10.822   9.629 -0.6938  0.1212 -0.8070
 1020MOL0     O34516   6.027  10.895   9.645 -0.2820 -0.4749  0.0780
 1020MOL0     C34517   5.941  10.909   9.532 -0.0587  0.1202  0.0151
 1020MOL0     C34518   5.799  10.953   9.579 -0.4686  0.6582 -0.3930
 1020MOL0     C34519   5.688  10.965   9.477 -0.3330 -0.0285 -0.5940
 1020MOL0     C34520   5.551  11.001   9.547  0.0479  1.0787  0.4666
 1020MOL0     C34521   5.455  11.046   9.440 -0.1775  0.1499  1.2119
 1020MOL0     C34522   5.329  11.093   9.493  0.3744  0.2267  0.1346
 1020MOL0     C34523   5.240  11.124   9.370 -0.3148  0.5382 -0.7127
 1020MOL0     C34524   5.099  11.142   9.437 -0.2717 -1.0276  0.1175
 1020MOL0     N34525   5.006  11.203   9.352  1.0338  0.6730 -0.4973
 1020MOL0     C34526   4.871  11.189   9.364 -0.2075  0.1282 -0.1130
 1020MOL0     C34527   4.817  11.281   9.284 -0.0180 -1.0153  0.7277
 1020MOL0     C34528   4.677  11.302   9.246 -0.0639  0.2690  0.2201
 1020MOL0     C34529   4.652  11.328   9.096  0.2565  0.0783  0.5187
 1020MOL0     C34530   4.503  11.356   9.063  0.0953 -0.6163  0.3451
 1020MOL0     C34531   4.428  11.226   9.065 -0.8514  0.3165 -0.0935
 1020MOL0     O34532   4.306  11.249   9.009  0.0450  0.4513  0.3942
 1020MOL0     C34533   4.210  11.154   9.029 -0.8929  0.2371 -0.8034
 1020MOL0     C34534   4.084  11.197   9.046 -0.9606  0.5343  1.4949
 1020MOL0     C34535   3.974  11.106   9.071 -0.0632 -0.0809 -0.0554
 1020MOL0     C34536   4.001  10.974   9.082 -0.4383 -0.0066  0.0800
 1020MOL0     C34537   3.895  10.881   9.121 -0.2751 -0.2879  0.9272
 1020MOL0     O34538   3.774  10.947   9.145 -0.2218 -0.2963 -0.3059
 1020MOL0     C34539   3.649  10.897   9.122  0.3496  0.4970 -0.8273
 1020MOL0     C34540   3.619  10.771   9.074 -0.5779  0.2731  0.3402
 1020MOL0     C34541   3.487  10.731   9.053 -0.4251  0.1435 -0.8580
 1020MOL0     C34542   3.387  10.810   9.102 -0.1545 -0.0356 -0.2905
 1020MOL0     O34543   3.251  10.774   9.122 -0.2868  0.3294 -0.3342
 1020MOL0     C34544   3.201  10.659   9.048 -0.9114 -0.6410 -0.5834
 1020MOL0     C34545   3.048  10.656   9.044 -0.2079  0.5056  0.6228
 1020MOL0     C34546   2.995  10.676   9.190 -0.8137  0.3788  0.5363
 1020MOL0     C34547   2.849  10.692   9.199  0.0806  0.6145 -0.6230
 1020MOL0     C34548   2.794  10.692   9.344 -0.1683  0.1448  0.2618
 1020MOL0     C34549   2.643  10.645   9.351 -0.5597  0.4515  0.0586
 1020MOL0     C34550   2.543  10.745   9.299  0.0639  0.0017  0.4687
 1020MOL0     C34551   2.422  10.681   9.234 -1.1060  0.6573 -0.7163
 1020MOL0    Cl34552   2.475  10.605   9.082  0.4964 -0.0969  0.3762
 1020MOL0     C34553   3.416  10.936   9.148 -0.0440  1.3176 -0.2063
 1020MOL0     C34554   3.544  10.977   9.158 -0.2067 -0.8648  0.3871
 1020MOL0     O34555   3.914  10.761   9.140  0.5968  0.0965 -0.4649
 1020MOL0     C34556   4.131  10.921   9.055 -0.6264  0.2120 -0.6946
 1020MOL0     C34557   4.235  11.015   9.029 -0.4581 -0.4464 -0.5009
 1020MOL0     N34558   4.915  11.359   9.230  0.1570  0.1922 -0.2531
 1020MOL0     N34559   5.024  11.304   9.263 -0.2010  0.6543 -0.0373
 1020MOL0     C34560   6.188  10.751   9.517 -0.0620 -0.2405  1.0928
 1020MOL0     C34561   6.316  10.695   9.502 -0.5820 -0.3982  0.2372
 1020MOL0     C34562   6.712  10.514   9.619  0.6537 -0.0343  0.5549
 1020MOL0     C34563   6.794  10.615   9.568 -0.2100  0.3442  0.4395
 1020MOL0     C34564   6.923  10.577   9.528  0.2745  0.2937  0.1080
 1020MOL0     C34565   6.980  10.450   9.559  0.3770 -1.0184 -0.0676
 1020MOL0     O34566   7.113  10.438   9.540 -0.2298  0.1026 -0.6820
 1020MOL0     C34567   7.193  10.493   9.650 -0.4150 -0.6446  0.4111
 1020MOL0     C34568   7.332  10.520   9.593  1.1668  0.2901 -0.2328
 1020MOL0     C34569   7.411  10.390   9.562  0.0700 -0.3009 -0.2612
 1020MOL0     C34570   7.441  10.315   9.693 -0.2216  0.0435 -0.7917
 1020MOL0     C34571   7.527  10.201   9.672 -0.4479  0.5935  0.1840
 1020MOL0     C34572   7.592  10.097   9.656 -0.0202 -0.0768 -0.7240
 1020MOL0     C34573   6.895  10.349   9.611 -0.3313  0.0311  0.5804
 1020MOL0     C34574   6.760  10.384   9.633  0.1246  0.8168  0.5702
 1020MOL0     H34575   6.437  10.773   9.809  1.0060  1.2311 -1.2076
 1020MOL0     H34576   6.191  10.872   9.829  0.8289  0.0940  0.2883
 1020MOL0     H34577   5.933  10.813   9.482  0.0924  0.8954 -1.5487
 1020MOL0     H34578   5.987  10.976   9.458  1.0369  0.3294  0.8466
 1020MOL0     H34579   5.798  11.046   9.636 -2.5082  0.3675  0.1203
 1020MOL0     H34580   5.768  10.874   9.648  1.6522  0.4862  0.4240
 1020MOL0     H34581   5.678  10.870   9.423  4.4421 -0.2410 -1.5323
 1020MOL0     H34582   5.715  11.031   9.395  1.2446 -0.9004 -0.8109
 1020MOL0     H34583   5.519  10.906   9.591 -2.2327  1.8978  0.7343
 1020MOL0     H34584   5.567  11.075   9.626  2.2454  2.0504 -0.8111
 1020MOL0     H34585   5.438  10.960   9.375  0.2428  0.7532  0.2921
 1020MOL0     H34586   5.501  11.127   9.382  0.9266 -0.2042  1.5735
 1020MOL0     H34587   5.351  11.179   9.558  2.4384  1.0041 -1.4841
 1020MOL0     H34588   5.288  11.005   9.543  1.4698  0.6155  1.8014
 1020MOL0     H34589   5.295  11.206   9.322  3.1833 -1.2020  0.0012
 1020MOL0     H34590   5.232  11.045   9.295  3.2666  0.2748 -1.0046
 1020MOL0     H34591   5.112  11.200   9.528 -2.8081 -0.3059  0.0788
 1020MOL0     H34592   5.056  11.046   9.468  0.4230 -2.2760 -2.4939
 1020MOL0     H34593   4.831  11.100   9.410  3.4345 -0.5204  2.2094
 1020MOL0     H34594   4.624  11.381   9.300 -2.6504  0.9212 -2.9771
 1020MOL0     H34595   4.629  11.206   9.272  1.3403 -1.0269 -1.7152
 1020MOL0     H34596   4.692  11.246   9.037  2.8621  1.7815 -0.2346
 1020MOL0     H34597   4.712  11.412   9.059  1.3808 -0.5806  0.8134
 1020MOL0     H34598   4.462  11.428   9.134 -0.5890 -1.3455  0.6981
 1020MOL0     H34599   4.491  11.400   8.964 -1.9087  1.5917  1.4742
 1020MOL0     H34600   4.414  11.193   9.168 -0.9022  3.5923  1.0921
 1020MOL0     H34601   4.487  11.152   9.011 -0.0662 -1.0542  2.4781
 1020MOL0     H34602   4.060  11.302   9.035 -1.8527  0.4289  2.3186
 1020MOL0     H34603   3.880  11.145   9.108 -1.5117 -1.6782 -1.8188
 1020MOL0     H34604   3.698  10.708   9.034  0.0141  2.8471 -3.0210
 1020MOL0     H34605   3.459  10.634   9.012  1.2932 -0.5986 -0.3410
 1020MOL0     H34606   3.249  10.569   9.087 -1.8096 -1.3002 -0.9619
 1020MOL0     H34607   3.229  10.677   8.944  2.7082  3.3353  0.7689
 1020MOL0     H34608   3.014  10.562   9.000  1.9694  0.3238 -0.8300
 1020MOL0     H34609   3.005  10.736   8.982  0.5388  0.7623  0.4291
 1020MOL0     H34610   3.044  10.763   9.233  0.1372  1.1897 -1.9994
 1020MOL0     H34611   3.040  10.596   9.249  1.5720  2.6645  2.0311
 1020MOL0     H34612   2.811  10.783   9.153  0.9917  0.8603 -0.9162
 1020MOL0     H34613   2.806  10.605   9.148  0.2078  0.1934 -0.0257
 1020MOL0     H34614   2.814  10.789   9.391  0.1790 -1.5318  3.9897
 1020MOL0     H34615   2.862  10.619   9.388  3.1438  2.8503  0.0976
 1020MOL0     H34616   2.624  10.632   9.458  0.2627 -0.2623  0.1278
 1020MOL0     H34617   2.636  10.545   9.309  2.2275 -0.1106  0.7194
 1020MOL0     H34618   2.515  10.804   9.386  0.2549 -0.8010  1.0839
 1020MOL0     H34619   2.592  10.812   9.227 -0.9366  0.5578  0.2903
 1020MOL0     H34620   2.338  10.747   9.211 -1.4799  1.3664  2.3172
 1020MOL0     H34621   2.383  10.611   9.308  0.7722  0.1450 -0.1515
 1020MOL0     H34622   3.341  11.010   9.174 -3.0008 -1.3372 -0.4071
 1020MOL0     H34623   3.566  11.075   9.198  1.3899 -0.6019 -1.0216
 1020MOL0     H34624   4.144  10.813   9.059 -1.5442  0.1269  0.2688
 1020MOL0     H34625   4.333  10.973   9.006 -0.3870 -0.9429  0.6567
 1020MOL0     H34626   6.131  10.735   9.427  0.2775  2.0381  0.4119
 1020MOL0     H34627   6.340  10.644   9.409  1.4344 -0.4167  0.7243
 1020MOL0     H34628   6.754  10.714   9.550 -0.9035  0.2016  1.1471
 1020MOL0     H34629   6.990  10.659   9.502 -1.4916  1.4971 -0.8649
 1020MOL0     H34630   7.191  10.432   9.741 -1.7553 -1.5875 -0.2104
 1020MOL0     H34631   7.147  10.590   9.670  0.7228  0.0149 -0.1127
 1020MOL0     H34632   7.312  10.593   9.514  0.9173  3.3577  2.4596
 1020MOL0     H34633   7.395  10.574   9.664  1.9408 -0.5054 -0.3044
 1020MOL0     H34634   7.494  10.422   9.499 -0.6172 -0.0283 -1.0462
 1020MOL0     H34635   7.342  10.337   9.495 -1.4697  1.6338 -0.2920
 1020MOL0     H34636   7.492  10.380   9.764  1.7150  0.5227 -2.5434
 1020MOL0     H34637   7.354  10.280   9.750  0.6909  2.5022  2.4278
 1020MOL0     H34638   7.632   9.998   9.649 -1.3762 -0.9071  2.0335
 1020MOL0     H34639   6.923  10.245   9.622 -1.2004 -0.5226 -1.9263
 1020MOL0     H34640   6.696  10.303   9.666  0.2823  0.1556 -0.6500
 1021MOL0     O34641   6.041   4.696   0.161 -0.4254 -0.3570  0.2839
 1021MOL0     C34642   6.030   4.579   0.200 -0.4668 -0.7477  0.3355
 1021MOL0     O34643   6.127   4.490   0.194 -0.3063 -0.2721 -0.1752
 1021MOL0     C34644   6.246   4.510   0.131  0.5192 -0.3535 -0.2631
 1021MOL0     C34645   6.265   4.603   0.028  0.4203 -0.2646  1.0672
 1021MOL0     C34646   6.388   4.611  -0.041  0.2074 -1.4700  0.0611
 1021MOL0     C34647   6.497   4.540  -0.006 -0.6783 -0.0911 -0.5375
 1021MOL0     O34648   6.621   4.574  -0.060 -0.2473 -0.6509  0.0507
 1021MOL0     C34649   6.740   4.498  -0.037 -0.6018 -0.7967 -0.1315
 1021MOL0     C34650   6.813   4.546   0.091  0.0206  0.0477 -1.4619
 1021MOL0     C34651   6.956   4.480   0.106  0.2261  0.6172  0.0926
 1021MOL0     C34652   7.005   4.518   0.244 -0.1746 -0.0834  0.5982
 1021MOL0     C34653   7.138   4.468   0.296 -0.1411 -0.3645  1.6767
 1021MOL0     C34654   7.123   4.321   0.333 -0.1360 -0.8055  0.1526
 1021MOL0     C34655   7.257   4.277   0.384  0.0993  0.4829 -0.4339
 1021MOL0     C34656   7.307   4.340   0.517 -0.5396  0.5979  1.1212
 1021MOL0     N34657   7.227   4.296   0.635  0.0325  0.5571  0.3796
 1021MOL0     C34658   7.109   4.354   0.676 -0.8995 -0.4633 -0.1792
 1021MOL0     C34659   7.064   4.286   0.783 -0.1048 -0.1443 -0.5536
 1021MOL0     C34660   6.938   4.302   0.862 -0.4673 -0.8961 -0.0004
 1021MOL0     C34661   6.885   4.163   0.899  0.6755  0.9529 -0.5391
 1021MOL0     C34662   6.758   4.163   0.978  1.2188  1.1195  0.2228
 1021MOL0     C34663   6.635   4.215   0.908 -0.3210  0.2219  0.5396
 1021MOL0     O34664   6.517   4.209   0.991 -0.2405  1.0112 -0.2529
 1021MOL0     C34665   6.401   4.238   0.932  0.4812  0.2816 -0.4527
 1021MOL0     C34666   6.288   4.196   1.001 -0.4954 -0.1283 -0.1616
 1021MOL0     C34667   6.164   4.229   0.954  0.4542 -0.0992 -0.0466
 1021MOL0     C34668   6.143   4.299   0.831 -0.0257 -0.1759 -0.0041
 1021MOL0     C34669   6.011   4.335   0.792 -0.0168 -0.2948 -0.0600
 1021MOL0     O34670   5.918   4.263   0.854 -0.6951 -0.8901  0.0777
 1021MOL0     C34671   5.787   4.287   0.833  0.0527  0.8660  0.4633
 1021MOL0     C34672   5.698   4.181   0.805  0.0190  0.4338  1.1341
 1021MOL0     C34673   5.561   4.197   0.789  0.7578 -0.4574 -0.9335
 1021MOL0     C34674   5.502   4.331   0.805 -0.4951  1.7465  0.1551
 1021MOL0     O34675   5.365   4.325   0.812  0.7645  1.1130 -0.4446
 1021MOL0     C34676   5.297   4.443   0.831 -0.2741 -1.2631 -0.0070
 1021MOL0     C34677   5.165   4.423   0.749  1.0751 -0.3777 -0.1708
 1021MOL0     C34678   5.059   4.535   0.753  0.9668  1.1041  0.3825
 1021MOL0     C34679   4.920   4.495   0.692 -0.0517 -0.4396 -0.6142
 1021MOL0     C34680   4.817   4.611   0.681 -0.2197  0.1708  0.0464
 1021MOL0     C34681   4.675   4.561   0.665 -0.1283 -0.2169 -0.1854
 1021MOL0     C34682   4.611   4.525   0.797  0.1441 -0.7489  0.4384
 1021MOL0     C34683   4.483   4.434   0.773  0.1630  0.0203 -0.2917
 1021MOL0    Cl34684   4.353   4.545   0.724 -0.2156  0.1316  0.0372
 1021MOL0     C34685   5.592   4.434   0.840  0.1023 -0.1232  1.3598
 1021MOL0     C34686   5.727   4.413   0.862 -0.7947  0.4987 -0.7402
 1021MOL0     O34687   5.994   4.425   0.703  0.9076  0.7307 -0.0149
 1021MOL0     C34688   6.257   4.319   0.755 -0.7566 -0.1728 -0.3679
 1021MOL0     C34689   6.385   4.294   0.807  0.6972  0.6966 -0.8136
 1021MOL0     N34690   7.157   4.180   0.804 -0.3328  0.4080 -0.0199
 1021MOL0     N34691   7.242   4.176   0.699 -0.4526  0.2173 -0.5670
 1021MOL0     C34692   6.469   4.441   0.094 -0.0307 -0.5873  0.0397
 1021MOL0     C34693   6.348   4.423   0.162  0.2159 -0.3487 -0.3097
 1021MOL0     C34694   5.898   4.547   0.255  0.1348  0.9572  0.2826
 1021MOL0     C34695   5.880   4.449   0.363 -0.1084 -0.5474  0.7901
 1021MOL0     C34696   5.765   4.425   0.423  0.2249 -0.7472  0.1412
 1021MOL0     C34697   5.649   4.480   0.384  0.0321  0.1174  0.8132
 1021MOL0     O34698   5.534   4.443   0.454  0.0429  0.2567 -0.5612
 1021MOL0     C34699   5.412   4.518   0.443 -1.4303 -0.0605 -0.8929
 1021MOL0     C34700   5.327   4.454   0.335  0.0324 -0.6204 -0.0943
 1021MOL0     C34701   5.188   4.514   0.350  0.4007  0.0147  0.4599
 1021MOL0     C34702   5.163   4.628   0.253  0.2651 -0.5689 -0.2005
 1021MOL0     C34703   5.024   4.660   0.260  0.2759 -0.1986  0.1930
 1021MOL0     C34704   4.906   4.688   0.247  0.6669  0.4683 -0.1034
 1021MOL0     C34705   5.666   4.580   0.277  0.2745 -0.1036  0.0968
 1021MOL0     C34706   5.787   4.615   0.220  0.5353 -0.1984  1.2470
 1021MOL0     H34707   6.186   4.666  -0.011 -0.2511 -0.8939  1.4107
 1021MOL0     H34708   6.391   4.682  -0.122 -1.3926  0.1805  1.3452
 1021MOL0     H34709   6.805   4.521  -0.121  2.0653  1.0475  2.2624
 1021MOL0     H34710   6.726   4.389  -0.038 -1.8525 -0.6698  0.8513
 1021MOL0     H34711   6.751   4.513   0.175  0.8861  0.6714 -0.5601
 1021MOL0     H34712   6.817   4.655   0.091  1.5003  0.3564  4.3432
 1021MOL0     H34713   7.018   4.507   0.021  0.3436 -0.6550 -0.2538
 1021MOL0     H34714   6.946   4.371   0.106 -0.8487  0.7033  0.3495
 1021MOL0     H34715   7.003   4.627   0.255  1.7930 -0.0398  0.8233
 1021MOL0     H34716   6.926   4.485   0.313 -1.3531 -0.1684 -0.7417
 1021MOL0     H34717   7.169   4.531   0.380  0.3620  0.5412  0.8419
 1021MOL0     H34718   7.213   4.473   0.217 -0.5037 -0.6834  1.3070
 1021MOL0     H34719   7.108   4.266   0.240  0.9050  1.4752 -1.4631
 1021MOL0     H34720   7.037   4.309   0.400 -2.9658  0.5615 -2.9234
 1021MOL0     H34721   7.260   4.168   0.398  0.6933  0.8012  2.8358
 1021MOL0     H34722   7.334   4.311   0.315  0.7766  1.0162  0.5547
 1021MOL0     H34723   7.302   4.449   0.508 -0.4923  0.4695 -0.8828
 1021MOL0     H34724   7.411   4.309   0.521 -1.1003 -1.6790 -0.0433
 1021MOL0     H34725   7.066   4.434   0.616 -0.7578 -1.2456 -1.3532
 1021MOL0     H34726   6.861   4.343   0.796  1.2293  0.3590 -1.2945
 1021MOL0     H34727   6.954   4.369   0.946 -1.6262 -0.7534  0.1233
 1021MOL0     H34728   6.960   4.110   0.957 -0.5873 -3.5297 -2.5778
 1021MOL0     H34729   6.869   4.102   0.810  1.6831  1.0499 -0.7923
 1021MOL0     H34730   6.741   4.056   0.995  2.0753  0.7057 -1.4016
 1021MOL0     H34731   6.779   4.210   1.075 -1.2951  1.5883  0.6052
 1021MOL0     H34732   6.602   4.155   0.823 -2.3466  0.8607  0.8111
 1021MOL0     H34733   6.659   4.320   0.888  0.4783  0.5318  2.8378
 1021MOL0     H34734   6.287   4.140   1.093 -0.5884  2.6332  1.6386
 1021MOL0     H34735   6.079   4.227   1.022  1.7119  1.3868  1.6492
 1021MOL0     H34736   5.724   4.077   0.787 -0.9042  0.2484  0.7711
 1021MOL0     H34737   5.494   4.120   0.754 -1.0617  0.4162  0.4297
 1021MOL0     H34738   5.352   4.525   0.785  1.4660 -2.4114 -0.0622
 1021MOL0     H34739   5.281   4.470   0.936 -1.6729 -0.0318 -0.5141
 1021MOL0     H34740   5.107   4.339   0.788  1.6972 -0.4534  0.6332
 1021MOL0     H34741   5.193   4.416   0.643  0.8983  2.0169 -0.4227
 1021MOL0     H34742   5.103   4.618   0.698  1.4320 -1.4186 -3.4298
 1021MOL0     H34743   5.038   4.571   0.854 -1.9246  2.4052 -0.5668
 1021MOL0     H34744   4.939   4.454   0.593  0.0451 -0.1050 -0.7361
 1021MOL0     H34745   4.890   4.413   0.758 -0.1259 -0.3517 -0.5382
 1021MOL0     H34746   4.842   4.660   0.587 -0.2929 -2.5243 -1.4990
 1021MOL0     H34747   4.819   4.676   0.768  0.5187 -0.9940  0.9336
 1021MOL0     H34748   4.678   4.469   0.607  1.6465 -2.6275  3.3417
 1021MOL0     H34749   4.610   4.637   0.621 -0.3539  1.9077  3.4292
 1021MOL0     H34750   4.685   4.469   0.855  1.0985 -0.6974 -0.6902
 1021MOL0     H34751   4.580   4.620   0.840  2.8285 -0.1139  1.1458
 1021MOL0     H34752   4.437   4.401   0.866  0.1253 -0.0326 -0.3292
 1021MOL0     H34753   4.501   4.345   0.711  2.2193 -1.0125  1.6431
 1021MOL0     H34754   5.560   4.536   0.861  1.0721  0.5231 -0.0947
 1021MOL0     H34755   5.790   4.494   0.898 -0.5394  0.1559 -0.4264
 1021MOL0     H34756   6.230   4.365   0.660  0.7166  1.0023 -0.2576
 1021MOL0     H34757   6.470   4.321   0.745  0.1684  2.3324 -0.8813
 1021MOL0     H34758   6.556   4.378   0.109  0.0759 -0.6098 -0.6503
 1021MOL0     H34759   6.339   4.349   0.240 -0.0060  1.5777  1.5721
 1021MOL0     H34760   5.967   4.390   0.392 -0.1110 -0.2653  1.3816
 1021MOL0     H34761   5.758   4.345   0.496  0.6755 -1.0735 -0.1592
 1021MOL0     H34762   5.422   4.626   0.432 -1.5330  0.1116  0.5276
 1021MOL0     H34763   5.370   4.508   0.543  1.7503  1.6056  0.7792
 1021MOL0     H34764   5.377   4.472   0.240  0.8366 -1.7646  0.0888
 1021MOL0     H34765   5.327   4.347   0.358  0.4077 -0.3106  1.4778
 1021MOL0     H34766   5.168   4.552   0.451 -3.2489  1.1183 -0.5236
 1021MOL0     H34767   5.126   4.425   0.341  0.1182  0.0607  1.7459
 1021MOL0     H34768   5.229   4.715   0.261 -0.7045  0.0760  1.0259
 1021MOL0     H34769   5.169   4.584   0.153  3.0795 -0.3074 -0.2486
 1021MOL0     H34770   4.802   4.715   0.251  0.1904 -0.9263 -1.9032
 1021MOL0     H34771   5.582   4.647   0.258 -0.3932  0.0199  2.9766
 1021MOL0     H34772   5.786   4.695   0.146 -0.5319 -2.2722 -1.1323
 1022MOL0     O34773   9.928   9.693   0.574  0.0646 -0.2538 -1.1130
 1022MOL0     C34774   9.977   9.807   0.594 -1.4719  0.2141 -0.1914
 1022MOL0     O34775   9.932   9.928   0.543 -0.0563  0.1870 -0.4066
 1022MOL0     C34776   9.830   9.919   0.458  0.0122 -1.2648  0.1929
 1022MOL0     C34777   9.855   9.946   0.323  0.0299 -0.1413  0.6870
 1022MOL0     C34778   9.751   9.924   0.233  0.1576  0.9795  0.9424
 1022MOL0     C34779   9.620   9.880   0.270 -0.0526 -0.7739 -0.2151
 1022MOL0     O34780   9.528   9.875   0.171 -0.1974  0.9035 -0.2891
 1022MOL0     C34781   9.390   9.901   0.196 -0.0391 -0.3748 -0.9240
 1022MOL0     C34782   9.323   9.921   0.068  0.2348 -0.6324  0.1630
 1022MOL0     C34783   9.171   9.970   0.083  0.2277 -1.3295  0.5053
 1022MOL0     C34784   9.079   9.874   0.163  0.0637 -0.0010 -0.4723
 1022MOL0     C34785   8.941   9.929   0.211 -0.4122  0.3421  0.1419
 1022MOL0     C34786   8.874   9.998   0.087  0.0414 -0.8635  0.7590
 1022MOL0     C34787   8.849   9.911  -0.034 -0.5016  0.5234 -0.0343
 1022MOL0     C34788   8.740   9.803  -0.012 -0.9018  0.8279  0.3082
 1022MOL0     N34789   8.598   9.853  -0.024 -0.1605  0.0433  0.3372
 1022MOL0     C34790   8.525   9.924   0.078  0.2116 -0.1000  0.1096
 1022MOL0     C34791   8.417   9.967   0.014 -0.1893 -0.1591 -0.1416
 1022MOL0     C34792   8.300  10.036   0.066  0.3197 -0.8100  0.0728
 1022MOL0     C34793   8.186   9.942   0.084  0.0385  0.1584 -0.0860
 1022MOL0     C34794   8.056  10.027   0.110 -0.1889 -0.7873  0.2757
 1022MOL0     C34795   7.923   9.960   0.127 -0.5244 -0.0175 -0.6003
 1022MOL0     O34796   7.833  10.036   0.210  0.2131  0.6042  0.2893
 1022MOL0     C34797   7.699   9.990   0.207  0.8474 -0.8255 -0.0244
 1022MOL0     C34798   7.653   9.861   0.190  0.3228  0.0637 -0.2508
 1022MOL0     C34799   7.510   9.834   0.206 -0.7440 -0.0965  0.1005
 1022MOL0     C34800   7.416   9.932   0.244  0.0029  0.4719  0.1920
 1022MOL0     C34801   7.276   9.904   0.273  0.3266 -0.0328  0.0979
 1022MOL0     O34802   7.220   9.785   0.231 -0.6545 -0.0215 -0.2340
 1022MOL0     C34803   7.087   9.756   0.275 -1.4395 -1.3018 -0.7424
 1022MOL0     C34804   7.059   9.657   0.371  0.6197  0.4716  0.0130
 1022MOL0     C34805   6.923   9.625   0.398  0.2183  0.0059 -0.7628
 1022MOL0     C34806   6.817   9.693   0.334  0.2404 -0.1244 -0.2107
 1022MOL0     O34807   6.689   9.666   0.370  0.2470 -0.6724  0.2610
 1022MOL0     C34808   6.601   9.776   0.406 -0.0163 -0.6808  0.6138
 1022MOL0     C34809   6.491   9.709   0.484 -0.6345  0.0899 -0.3561
 1022MOL0     C34810   6.401   9.820   0.533  0.6449  0.3876 -0.5920
 1022MOL0     C34811   6.285   9.757   0.614 -0.1005 -0.9143  0.1770
 1022MOL0     C34812   6.158   9.706   0.543  0.4004 -0.2853 -0.1582
 1022MOL0     C34813   6.052   9.658   0.642 -0.2088 -0.1953 -0.3300
 1022MOL0     C34814   5.912   9.711   0.609  0.1619  0.2135  0.3167
 1022MOL0     C34815   5.832   9.607   0.531 -0.2065  0.4916 -0.1341
 1022MOL0    Cl34816   5.666   9.676   0.520  0.1981  0.1693  0.8176
 1022MOL0     C34817   6.851   9.795   0.242 -0.4455  0.5019 -0.0040
 1022MOL0     C34818   6.985   9.820   0.216 -0.3619 -0.1903  0.2719
 1022MOL0     O34819   7.213  10.002   0.310  0.0932  0.3887  0.3184
 1022MOL0     C34820   7.465  10.063   0.250 -0.3200 -0.1650  0.2785
 1022MOL0     C34821   7.604  10.089   0.235 -0.4565 -0.9984 -0.0526
 1022MOL0     N34822   8.428   9.935  -0.124 -0.0080  0.2525 -0.2200
 1022MOL0     N34823   8.523   9.857  -0.137 -0.3893 -0.0276 -0.6715
 1022MOL0     C34824   9.589   9.873   0.405 -0.5372  1.0551 -0.1469
 1022MOL0     C34825   9.694   9.896   0.501  0.1874  0.0429  0.1019
 1022MOL0     C34826  10.097   9.811   0.678 -0.9952 -0.0919 -0.3233
 1022MOL0     C34827  10.163   9.690   0.719 -0.3940 -0.4933 -0.2665
 1022MOL0     C34828  10.272   9.699   0.803  0.3402  0.3139  0.0169
 1022MOL0     C34829  10.313   9.820   0.854  0.0659 -0.5817  0.2007
 1022MOL0     O34830  10.415   9.835   0.937  0.0413 -0.2173 -0.5707
 1022MOL0     C34831  10.525   9.746   0.925  0.2652  0.0590  0.4988
 1022MOL0     C34832  10.665   9.817   0.959  0.4005 -0.2505 -0.2589
 1022MOL0     C34833  10.770   9.700   0.964  0.8368 -0.3129  0.2507
 1022MOL0     C34834  10.903   9.772   0.966 -0.3071  0.0634 -0.1871
 1022MOL0     C34835  11.012   9.689   1.006 -1.2779  0.1106  0.1878
 1022MOL0     C34836  11.087   9.593   1.030  0.4714 -0.4690  0.3645
 1022MOL0     C34837  10.263   9.939   0.810 -0.1297 -0.3644 -1.1279
 1022MOL0     C34838  10.161   9.931   0.720  0.3300 -0.1367 -0.1532
 1022MOL0     H34839   9.954   9.975   0.289 -0.5883 -0.9994 -2.0796
 1022MOL0     H34840   9.775   9.942   0.129 -0.6510 -1.6706  0.2174
 1022MOL0     H34841   9.380   9.996   0.249 -1.5755 -0.5691 -0.8230
 1022MOL0     H34842   9.352   9.818   0.256 -0.0747 -0.7221 -1.4263
 1022MOL0     H34843   9.312   9.823   0.020 -1.8543  0.4468 -1.7710
 1022MOL0     H34844   9.385   9.994   0.016 -1.1116  0.3461 -0.1214
 1022MOL0     H34845   9.134   9.991  -0.018  2.0172  0.7789  0.2251
 1022MOL0     H34846   9.171  10.066   0.134  0.2263 -0.2309 -1.4708
 1022MOL0     H34847   9.065   9.778   0.113  2.5142 -1.3736  1.2168
 1022MOL0     H34848   9.133   9.862   0.258 -2.4335  2.4418  1.4094
 1022MOL0     H34849   8.945   9.997   0.297 -0.2044 -0.8248  1.0822
 1022MOL0     H34850   8.886   9.840   0.245  0.0515  0.8536  2.3883
 1022MOL0     H34851   8.941  10.079   0.058  2.2357 -2.4342  1.2198
 1022MOL0     H34852   8.781  10.046   0.118  0.8047  1.7300 -0.6265
 1022MOL0     H34853   8.833   9.976  -0.120 -0.8059  0.0853 -0.3173
 1022MOL0     H34854   8.939   9.854  -0.058  0.9520  2.6062  0.2550
 1022MOL0     H34855   8.761   9.741   0.075 -2.1189 -1.0240 -0.6507
 1022MOL0     H34856   8.751   9.732  -0.094  0.3150  0.9721  0.3228
 1022MOL0     H34857   8.531   9.927   0.187 -0.4114  1.3772  0.1220
 1022MOL0     H34858   8.264  10.110  -0.006  1.1140 -1.4840 -1.0505
 1022MOL0     H34859   8.329  10.076   0.164 -0.4622 -1.9876  0.7992
 1022MOL0     H34860   8.206   9.887   0.176 -1.8937 -0.5742 -0.0796
 1022MOL0     H34861   8.166   9.874   0.000  1.0070 -0.2924  0.0261
 1022MOL0     H34862   8.077  10.090   0.197  0.9113 -0.4805 -0.1966
 1022MOL0     H34863   8.038  10.084   0.018 -0.5614 -0.5003  0.5247
 1022MOL0     H34864   7.941   9.861   0.168  2.5374  0.1322 -1.3184
 1022MOL0     H34865   7.880   9.943   0.028  1.7544 -0.1018 -1.6451
 1022MOL0     H34866   7.711   9.775   0.156 -1.3475 -1.8325  1.3773
 1022MOL0     H34867   7.479   9.732   0.190  1.2193 -0.5762 -0.8998
 1022MOL0     H34868   7.139   9.595   0.409 -0.2852  0.3282  1.8134
 1022MOL0     H34869   6.895   9.542   0.462 -2.1061  0.3848 -1.1980
 1022MOL0     H34870   6.559   9.820   0.315  1.7841  1.3525  0.6977
 1022MOL0     H34871   6.657   9.849   0.464 -1.9133  1.1690  0.2349
 1022MOL0     H34872   6.537   9.651   0.565  0.1646  1.8743  0.5236
 1022MOL0     H34873   6.439   9.635   0.422  2.0463 -0.4542 -2.1326
 1022MOL0     H34874   6.347   9.874   0.455 -2.5119 -1.7811 -0.0946
 1022MOL0     H34875   6.460   9.888   0.596  1.4205 -0.8644  0.0781
 1022MOL0     H34876   6.325   9.673   0.671  1.0943 -1.2230 -1.0513
 1022MOL0     H34877   6.264   9.834   0.688  2.9228  0.3660 -0.1253
 1022MOL0     H34878   6.178   9.633   0.465 -0.5779  0.9447 -1.6424
 1022MOL0     H34879   6.120   9.790   0.484  0.5627  0.3604  0.6258
 1022MOL0     H34880   6.079   9.684   0.745  0.9424  1.3677 -0.9858
 1022MOL0     H34881   6.053   9.549   0.643  2.0032 -0.2490  2.2599
 1022MOL0     H34882   5.858   9.726   0.703 -0.1186 -1.3913  0.4541
 1022MOL0     H34883   5.914   9.805   0.554 -1.2685  0.5075  0.7455
 1022MOL0     H34884   5.817   9.519   0.594 -2.6668  0.4291 -0.6960
 1022MOL0     H34885   5.877   9.586   0.433  0.7045 -2.7797  0.8737
 1022MOL0     H34886   6.763   9.830   0.189 -0.9137 -3.4826 -2.2562
 1022MOL0     H34887   7.004   9.891   0.136 -1.3613 -2.0102 -1.6951
 1022MOL0     H34888   7.401  10.146   0.278 -1.8608 -0.6741 -1.5656
 1022MOL0     H34889   7.633  10.193   0.247 -0.9642 -0.9354  0.6764
 1022MOL0     H34890   9.490   9.850   0.443  0.0822 -0.6652  0.5120
 1022MOL0     H34891   9.666   9.889   0.605 -1.2180 -1.5830 -0.3613
 1022MOL0     H34892  10.122   9.592   0.697 -1.1536 -0.1785 -0.3003
 1022MOL0     H34893  10.311   9.610   0.852  2.7515  0.8516 -0.7849
 1022MOL0     H34894  10.524   9.694   0.828  0.7945 -1.7568  1.4284
 1022MOL0     H34895  10.508   9.661   0.992 -0.7109  1.2335  1.7724
 1022MOL0     H34896  10.692   9.895   0.887 -0.9200 -0.1178 -0.6325
 1022MOL0     H34897  10.662   9.872   1.054  1.1920  1.0497 -0.9540
 1022MOL0     H34898  10.769   9.641   0.873  3.0052 -0.3758  0.2226
 1022MOL0     H34899  10.763   9.636   1.053 -1.5715  2.3440  2.1916
 1022MOL0     H34900  10.919   9.806   0.863  1.3961  0.0177  0.0371
 1022MOL0     H34901  10.904   9.854   1.038 -1.0300 -2.9614  3.5488
 1022MOL0     H34902  11.163   9.524   1.062  0.1358  0.1437  2.7210
 1022MOL0     H34903  10.295  10.038   0.841 -0.4855  0.1386 -2.3111
 1022MOL0     H34904  10.126  10.030   0.694 -0.8391 -0.3477  0.5551
 1023MOL0     O34905   4.484   6.914   5.827 -0.0552 -0.5442  0.1737
 1023MOL0     C34906   4.465   6.805   5.883 -0.0865  0.9144  0.1463
 1023MOL0     O34907   4.362   6.714   5.862  0.3970 -0.1704  0.1601
 1023MOL0     C34908   4.241   6.771   5.822  0.0612  1.0366  0.3769
 1023MOL0     C34909   4.134   6.761   5.905 -0.2928 -1.6228 -0.1951
 1023MOL0     C34910   4.004   6.815   5.869 -0.4265 -0.3381 -0.3637
 1023MOL0     C34911   3.991   6.871   5.741  1.2796  0.0545 -0.2389
 1023MOL0     O34912   3.875   6.920   5.681 -1.2354 -0.3945  0.3061
 1023MOL0     C34913   3.757   6.889   5.751 -0.3129  0.1418 -0.0023
 1023MOL0     C34914   3.728   6.999   5.852 -0.0083  0.3319  0.1657
 1023MOL0     C34915   3.726   7.134   5.786  0.4673 -0.6595 -0.3758
 1023MOL0     C34916   3.625   7.168   5.664  0.2659 -0.0506 -0.5022
 1023MOL0     C34917   3.490   7.175   5.726  0.0114 -0.4596  0.5007
 1023MOL0     C34918   3.394   7.243   5.633 -0.5740 -0.4688 -0.6359
 1023MOL0     C34919   3.260   7.258   5.705  0.8688  0.3362 -0.1291
 1023MOL0     C34920   3.164   7.343   5.618  0.0379  0.2092 -0.6331
 1023MOL0     N34921   3.028   7.354   5.685 -0.2397 -0.0550 -0.1476
 1023MOL0     C34922   2.918   7.269   5.662 -0.1310  1.1108 -0.1545
 1023MOL0     C34923   2.820   7.316   5.753  0.4295 -0.5828 -0.6033
 1023MOL0     C34924   2.686   7.284   5.765  0.7567  0.1172  0.0251
 1023MOL0     C34925   2.607   7.269   5.627  0.5100  0.5284  0.5495
 1023MOL0     C34926   2.484   7.180   5.631 -0.4168  0.0539  0.0624
 1023MOL0     C34927   2.371   7.229   5.720 -0.4610 -0.9259  0.7068
 1023MOL0     O34928   2.281   7.127   5.754  0.0716 -0.1265 -0.9809
 1023MOL0     C34929   2.150   7.149   5.724  0.5092 -0.0998  0.1780
 1023MOL0     C34930   2.093   7.027   5.680  0.3522  0.1729 -0.1758
 1023MOL0     C34931   1.958   7.033   5.659  0.0299  0.4549 -0.6948
 1023MOL0     C34932   1.881   7.148   5.678 -0.3570 -0.4369 -0.8811
 1023MOL0     C34933   1.732   7.136   5.657  0.5849  0.6539 -0.3347
 1023MOL0     O34934   1.656   7.249   5.656  0.0531  0.1511  0.0250
 1023MOL0     C34935   1.521   7.242   5.624 -0.2580 -0.6223 -0.4085
 1023MOL0     C34936   1.482   7.207   5.490  0.3607 -0.1152 -0.4060
 1023MOL0     C34937   1.344   7.225   5.451 -0.2717  0.4524 -0.6197
 1023MOL0     C34938   1.246   7.271   5.538 -0.1368 -0.2117 -0.5854
 1023MOL0     O34939   1.109   7.258   5.515 -0.5963 -0.4219  0.0700
 1023MOL0     C34940   1.054   7.200   5.395 -1.1499 -0.1700  0.2152
 1023MOL0     C34941   0.902   7.213   5.410  0.5093  0.6070 -0.0057
 1023MOL0     C34942   0.827   7.097   5.345 -0.1636  0.3170 -0.1284
 1023MOL0     C34943   0.680   7.107   5.396  0.4439 -0.4916  0.0487
 1023MOL0     C34944   0.595   7.004   5.321 -0.1503  1.0955  0.3624
 1023MOL0     C34945   0.470   6.982   5.411  0.1530  0.0144  0.0365
 1023MOL0     C34946   0.363   6.899   5.341  0.0796 -0.5872 -0.2380
 1023MOL0     C34947   0.226   6.900   5.407 -0.0504  0.0164 -0.0075
 1023MOL0    Cl34948   0.106   6.787   5.327  0.1013  0.1422 -0.5646
 1023MOL0     C34949   1.285   7.298   5.669  0.2187 -0.6228 -0.6319
 1023MOL0     C34950   1.418   7.290   5.711 -0.0878  0.0941 -0.3225
 1023MOL0     O34951   1.673   7.023   5.653  0.0044 -0.3861 -0.5495
 1023MOL0     C34952   1.939   7.266   5.730  0.1060 -0.4996  0.9081
 1023MOL0     C34953   2.073   7.267   5.744 -0.2469 -0.3594 -0.2604
 1023MOL0     N34954   2.876   7.428   5.817  0.5048  0.3553 -0.5891
 1023MOL0     N34955   2.997   7.447   5.782 -0.0556  0.3208 -0.0183
 1023MOL0     C34956   4.105   6.888   5.667 -0.3362  0.3841 -0.1251
 1023MOL0     C34957   4.229   6.839   5.701 -0.2234 -0.4714 -0.0393
 1023MOL0     C34958   4.585   6.746   5.947  1.0835 -0.4428  0.1287
 1023MOL0     C34959   4.583   6.613   5.987 -0.1043  0.2234  0.2329
 1023MOL0     C34960   4.699   6.549   6.037 -0.5417  0.3315  0.3647
 1023MOL0     C34961   4.821   6.623   6.048  0.1213 -0.1723 -0.4797
 1023MOL0     O34962   4.954   6.575   6.068  0.2413  0.5335 -0.2410
 1023MOL0     C34963   4.977   6.430   6.070 -0.6600  0.0636 -0.4121
 1023MOL0     C34964   4.977   6.380   5.925 -0.3338 -0.4859 -0.3006
 1023MOL0     C34965   5.113   6.417   5.854  0.4598 -0.7262 -0.4245
 1023MOL0     C34966   5.121   6.370   5.706 -0.1961  0.8671 -1.1750
 1023MOL0     C34967   5.257   6.352   5.657 -0.0929  0.5428 -0.0111
 1023MOL0     C34968   5.371   6.345   5.620 -0.4164  0.2301  0.0721
 1023MOL0     C34969   4.809   6.759   6.028 -0.7195  1.3867 -0.7649
 1023MOL0     C34970   4.693   6.822   5.978  0.0876 -0.2421  0.1378
 1023MOL0     H34971   4.159   6.712   5.999  0.3754  2.0574  1.7050
 1023MOL0     H34972   3.923   6.816   5.941  0.0356  1.6889  0.1846
 1023MOL0     H34973   3.752   6.787   5.790 -0.5862  0.5381  1.0216
 1023MOL0     H34974   3.675   6.888   5.678  0.0028 -0.4656 -0.3631
 1023MOL0     H34975   3.802   7.009   5.932  0.8575  3.4150 -0.8817
 1023MOL0     H34976   3.627   6.984   5.891 -0.7181  0.3673 -1.5756
 1023MOL0     H34977   3.825   7.158   5.749  0.5692  1.7469  1.2005
 1023MOL0     H34978   3.707   7.205   5.867 -0.1200 -0.0939 -0.9888
 1023MOL0     H34979   3.655   7.265   5.625 -0.8625 -0.0439 -1.4040
 1023MOL0     H34980   3.634   7.097   5.581 -0.2242  1.7603 -2.1540
 1023MOL0     H34981   3.503   7.237   5.815  0.7829 -1.2350  0.9335
 1023MOL0     H34982   3.467   7.071   5.750 -0.2556 -0.8995 -1.4415
 1023MOL0     H34983   3.380   7.175   5.548  0.7981 -0.5405 -0.8373
 1023MOL0     H34984   3.434   7.342   5.607  2.3588 -1.2591  0.5040
 1023MOL0     H34985   3.214   7.159   5.707 -0.5778  0.9415 -1.3178
 1023MOL0     H34986   3.264   7.290   5.810 -0.9991  0.3913 -0.0479
 1023MOL0     H34987   3.146   7.287   5.526  0.8529  0.1494 -0.7633
 1023MOL0     H34988   3.201   7.443   5.593 -2.1693  1.6495  1.4435
 1023MOL0     H34989   2.916   7.184   5.595  4.0273  1.8662 -1.5215
 1023MOL0     H34990   2.631   7.358   5.825 -1.3961 -1.6381  0.3655
 1023MOL0     H34991   2.678   7.184   5.809  2.8866 -0.3619 -0.5633
 1023MOL0     H34992   2.675   7.222   5.554 -3.1594  0.2430 -3.0338
 1023MOL0     H34993   2.590   7.369   5.586  2.2763  1.3003  1.5546
 1023MOL0     H34994   2.451   7.191   5.527  2.8082  2.8259 -0.8389
 1023MOL0     H34995   2.511   7.077   5.657  4.0244  0.7841 -0.8528
 1023MOL0     H34996   2.325   7.310   5.663  1.8165 -0.2551 -0.2708
 1023MOL0     H34997   2.406   7.270   5.815  0.5178  1.6130 -0.6278
 1023MOL0     H34998   2.142   6.938   5.644  0.4887  0.8617 -1.7732
 1023MOL0     H34999   1.912   6.936   5.641  0.3116 -0.0733  1.2324
 1023MOL0     H35000   1.558   7.191   5.414  1.4380 -0.3807  0.6985
 1023MOL0     H35001   1.315   7.211   5.347  0.0851 -0.3552 -0.6190
 1023MOL0     H35002   1.094   7.098   5.395 -0.7485 -0.0154 -0.3751
 1023MOL0     H35003   1.080   7.255   5.305 -0.3533 -0.4576  0.2645
 1023MOL0     H35004   0.870   7.313   5.380 -0.2579  0.0501 -1.1199
 1023MOL0     H35005   0.868   7.212   5.514 -3.6187 -0.8607 -1.2068
 1023MOL0     H35006   0.879   7.006   5.375  1.4980  1.5308  0.8777
 1023MOL0     H35007   0.827   7.107   5.236  1.6536 -1.5143 -0.3355
 1023MOL0     H35008   0.675   7.089   5.504 -0.9051 -1.4427 -0.1431
 1023MOL0     H35009   0.645   7.208   5.376  1.0274 -0.0635  1.0878
 1023MOL0     H35010   0.642   6.907   5.310 -0.7904  0.9441 -1.2430
 1023MOL0     H35011   0.562   7.044   5.225 -2.0641 -2.0296 -0.4196
 1023MOL0     H35012   0.434   7.081   5.443  2.3147  0.7900  0.2651
 1023MOL0     H35013   0.503   6.936   5.505  1.3003  1.7877  0.5537
 1023MOL0     H35014   0.344   6.948   5.246  2.1184 -1.2782 -1.0621
 1023MOL0     H35015   0.405   6.798   5.333 -0.0389 -0.7949  1.3000
 1023MOL0     H35016   0.192   7.003   5.395 -3.9985 -0.9246  1.4593
 1023MOL0     H35017   0.234   6.882   5.515  0.9512 -0.6682 -0.1859
 1023MOL0     H35018   1.207   7.330   5.737  1.8446  0.5028  0.7849
 1023MOL0     H35019   1.441   7.316   5.814 -0.1050  0.6326 -0.4572
 1023MOL0     H35020   1.885   7.359   5.743  1.0265 -0.0466  1.6545
 1023MOL0     H35021   2.121   7.357   5.781 -1.4472 -0.2273  1.0681
 1023MOL0     H35022   4.099   6.938   5.571  0.0064 -1.0099 -0.8840
 1023MOL0     H35023   4.316   6.835   5.635  0.0397 -3.3305  0.3750
 1023MOL0     H35024   4.503   6.544   5.963  2.3126 -2.4139 -0.7578
 1023MOL0     H35025   4.692   6.442   6.053 -2.3064 -0.2011 -3.0462
 1023MOL0     H35026   4.893   6.381   6.121  0.7570  1.4779  3.6324
 1023MOL0     H35027   5.067   6.399   6.124 -1.4129 -1.6982 -0.0833
 1023MOL0     H35028   4.972   6.271   5.922  1.6881 -0.6132 -0.0065
 1023MOL0     H35029   4.891   6.419   5.869 -1.2460 -1.3665  0.4349
 1023MOL0     H35030   5.187   6.362   5.914 -1.1223 -1.7467  0.6664
 1023MOL0     H35031   5.134   6.524   5.858  1.0729 -0.7993 -1.4415
 1023MOL0     H35032   5.064   6.278   5.687  1.5536 -0.4606 -0.2853
 1023MOL0     H35033   5.078   6.454   5.651  0.8620  2.6437  0.5603
 1023MOL0     H35034   5.474   6.338   5.591 -0.2279 -1.7966  1.0743
 1023MOL0     H35035   4.899   6.816   6.050 -1.6182  1.4688  3.7633
 1023MOL0     H35036   4.703   6.931   5.980 -0.9972 -0.0893 -1.3503
 1024MOL0     O35037   4.452   1.749   0.940  0.3825 -0.0117 -0.5835
 1024MOL0     C35038   4.493   1.787   0.835  0.8141  0.9211 -0.0495
 1024MOL0     O35039   4.417   1.841   0.732 -0.2304 -0.3464  0.6098
 1024MOL0     C35040   4.286   1.878   0.749  0.1729 -0.2436  0.8996
 1024MOL0     C35041   4.194   1.799   0.825 -0.0672 -0.1216 -0.3312
 1024MOL0     C35042   4.065   1.826   0.829  0.6813 -0.4602 -1.1536
 1024MOL0     C35043   4.016   1.949   0.773 -1.2465  0.5385 -0.4775
 1024MOL0     O35044   3.880   1.971   0.776  0.3316  0.0520  0.1913
 1024MOL0     C35045   3.809   2.042   0.672  0.4128 -0.0507  0.6695
 1024MOL0     C35046   3.755   1.940   0.574 -0.5554 -0.0101 -0.3804
 1024MOL0     C35047   3.652   1.837   0.635  0.0085  0.1073  0.4055
 1024MOL0     C35048   3.601   1.746   0.522  0.6424 -0.1482 -0.0224
 1024MOL0     C35049   3.474   1.667   0.563  1.0676 -0.9494  0.3326
 1024MOL0     C35050   3.452   1.545   0.462  0.0861  0.6664 -0.9649
 1024MOL0     C35051   3.326   1.462   0.482 -0.1149 -1.6248  0.1160
 1024MOL0     C35052   3.297   1.362   0.374  0.3227 -0.3804  0.8896
 1024MOL0     N35053   3.148   1.343   0.349 -0.0053 -1.0059 -0.1915
 1024MOL0     C35054   3.068   1.270   0.427  0.1017  0.3561 -0.8800
 1024MOL0     C35055   2.939   1.301   0.381  0.2709 -0.4764  0.4510
 1024MOL0     C35056   2.822   1.230   0.437 -0.0815  0.5269  0.2980
 1024MOL0     C35057   2.698   1.228   0.343 -0.7313 -0.1033  0.9456
 1024MOL0     C35058   2.571   1.187   0.415  0.3245 -0.3216 -0.0145
 1024MOL0     C35059   2.459   1.172   0.314 -0.3348  0.1673  0.2143
 1024MOL0     O35060   2.352   1.136   0.404  0.3605  0.3648 -0.2146
 1024MOL0     C35061   2.226   1.108   0.345  0.5378 -0.8723 -0.4898
 1024MOL0     C35062   2.121   1.103   0.435  0.3294 -0.2083 -0.0826
 1024MOL0     C35063   1.990   1.086   0.383 -0.8713  0.4250  0.8099
 1024MOL0     C35064   1.966   1.067   0.241 -0.7498 -0.7217  0.4138
 1024MOL0     C35065   1.825   1.057   0.187 -0.1891 -1.0803  0.1538
 1024MOL0     O35066   1.803   1.086   0.050 -0.1626 -0.3140 -0.1533
 1024MOL0     C35067   1.667   1.085   0.021 -0.2338  0.6515 -0.0468
 1024MOL0     C35068   1.613   0.970  -0.033  0.5117  0.9091  1.5387
 1024MOL0     C35069   1.478   0.954  -0.060 -0.0661 -0.3517  0.0704
 1024MOL0     C35070   1.390   1.068  -0.040 -0.0248  0.8833 -0.2094
 1024MOL0     O35071   1.257   1.065  -0.045  0.4486  0.2009 -0.1597
 1024MOL0     C35072   1.195   0.932  -0.021  0.5863 -0.0305  0.0299
 1024MOL0     C35073   1.046   0.936  -0.022 -0.0249  0.1467  0.1524
 1024MOL0     C35074   0.966   0.941  -0.154 -0.4092  0.0888  0.5462
 1024MOL0     C35075   0.980   0.812  -0.239 -0.3609 -0.2599 -0.3481
 1024MOL0     C35076   0.862   0.793  -0.335 -0.0744 -0.0698 -0.5711
 1024MOL0     C35077   0.857   0.908  -0.430 -0.5131 -0.3613  0.5378
 1024MOL0     C35078   0.740   0.891  -0.525  1.0811  0.3481 -0.1598
 1024MOL0     C35079   0.764   0.930  -0.673 -0.6767  0.0028  0.5053
 1024MOL0    Cl35080   0.818   1.097  -0.664 -0.2108  0.0568  0.1494
 1024MOL0     C35081   1.448   1.183   0.018  0.0204 -0.0069 -0.1945
 1024MOL0     C35082   1.582   1.193   0.058 -0.0660 -0.7525  0.0846
 1024MOL0     O35083   1.736   1.028   0.273 -0.2600  0.6902  0.3033
 1024MOL0     C35084   2.081   1.061   0.152  0.0470 -0.0065  0.5052
 1024MOL0     C35085   2.207   1.089   0.206 -0.0658 -0.6894  0.2446
 1024MOL0     N35086   2.946   1.398   0.283 -0.3163  0.4142 -0.0979
 1024MOL0     N35087   3.070   1.424   0.274 -0.2089  0.8958 -0.4125
 1024MOL0     C35088   4.111   2.037   0.712  0.3838  0.9401  0.0465
 1024MOL0     C35089   4.241   1.993   0.692  0.6383 -0.2569 -0.1548
 1024MOL0     C35090   4.631   1.752   0.803 -0.6115  0.2332 -0.1759
 1024MOL0     C35091   4.712   1.680   0.895 -0.2161 -0.0724  0.1510
 1024MOL0     C35092   4.849   1.659   0.864  0.2832 -0.0495  0.4240
 1024MOL0     C35093   4.897   1.699   0.736  0.1206  0.7655  0.1666
 1024MOL0     O35094   5.028   1.666   0.709 -0.3734 -0.0181 -0.1994
 1024MOL0     C35095   5.123   1.664   0.814 -0.3360  0.5987  0.0360
 1024MOL0     C35096   5.259   1.678   0.744 -0.4095  0.3850  0.3027
 1024MOL0     C35097   5.374   1.662   0.849 -0.9121  0.1163 -0.0638
 1024MOL0     C35098   5.517   1.703   0.795  0.1462 -0.6508  0.5161
 1024MOL0     C35099   5.565   1.606   0.698 -0.5710  0.5384  0.4409
 1024MOL0     C35100   5.615   1.528   0.612  0.1710 -0.3446  0.3866
 1024MOL0     C35101   4.817   1.767   0.649 -0.1632 -0.7844  0.1435
 1024MOL0     C35102   4.692   1.801   0.683  0.8937  0.5760 -1.0424
 1024MOL0     H35103   4.217   1.709   0.882 -2.2920  0.6149  1.8824
 1024MOL0     H35104   3.990   1.764   0.878  0.6445  0.3658 -0.1303
 1024MOL0     H35105   3.859   2.116   0.610 -0.4199 -0.9739 -1.1981
 1024MOL0     H35106   3.722   2.095   0.712 -0.7913 -0.2616 -1.5369
 1024MOL0     H35107   3.834   1.884   0.523  0.3573  0.8800  0.0032
 1024MOL0     H35108   3.705   2.001   0.498 -0.0103  3.8972  2.0734
 1024MOL0     H35109   3.563   1.882   0.681 -0.8347 -0.5248 -0.5441
 1024MOL0     H35110   3.698   1.776   0.712 -2.6394 -0.3547  1.7611
 1024MOL0     H35111   3.582   1.811   0.436  2.4762  2.6243  1.5183
 1024MOL0     H35112   3.675   1.672   0.490  0.6269  0.0264 -0.4660
 1024MOL0     H35113   3.393   1.739   0.551  1.5468  0.1859  3.0218
 1024MOL0     H35114   3.480   1.640   0.669 -0.4215 -2.2939  0.1027
 1024MOL0     H35115   3.539   1.480   0.477  0.5641  1.5032 -0.0318
 1024MOL0     H35116   3.449   1.579   0.358  2.3007 -1.1110 -1.6909
 1024MOL0     H35117   3.329   1.421   0.583 -1.7313 -1.9613  0.0633
 1024MOL0     H35118   3.241   1.531   0.487  2.2629  1.5842 -0.7944
 1024MOL0     H35119   3.340   1.265   0.399 -0.8295 -1.1826 -0.1265
 1024MOL0     H35120   3.342   1.387   0.277  1.7924 -4.0537  0.4470
 1024MOL0     H35121   3.091   1.193   0.500 -1.2223 -1.9129 -2.7129
 1024MOL0     H35122   2.797   1.291   0.524 -1.1856  2.1470 -1.1062
 1024MOL0     H35123   2.850   1.127   0.464 -0.0109  0.6741  0.7934
 1024MOL0     H35124   2.714   1.169   0.252  1.0811 -1.1927  1.9161
 1024MOL0     H35125   2.695   1.332   0.307  1.3283 -0.3736 -0.1870
 1024MOL0     H35126   2.587   1.091   0.464 -2.4625 -2.1386 -2.3174
 1024MOL0     H35127   2.552   1.272   0.480  0.4778 -1.7494  1.9754
 1024MOL0     H35128   2.484   1.091   0.245  0.0935  1.0523 -0.6909
 1024MOL0     H35129   2.434   1.264   0.261 -0.2113 -0.5669 -1.1767
 1024MOL0     H35130   2.129   1.118   0.542 -2.8538  0.3344  0.1770
 1024MOL0     H35131   1.912   1.079   0.459 -0.2739 -1.8084  1.2851
 1024MOL0     H35132   1.684   0.900  -0.074 -0.8257  0.9338 -1.0183
 1024MOL0     H35133   1.450   0.854  -0.091  2.5362 -1.3327  0.7057
 1024MOL0     H35134   1.238   0.885   0.068 -0.5366 -1.3229 -0.0731
 1024MOL0     H35135   1.218   0.871  -0.109  1.7607  0.3015  0.0868
 1024MOL0     H35136   1.013   1.022   0.036 -0.8384  0.6359 -0.9831
 1024MOL0     H35137   0.998   0.857   0.037  0.0567 -0.5174 -0.6383
 1024MOL0     H35138   1.011   1.021  -0.214 -0.9832  0.7417  0.9601
 1024MOL0     H35139   0.861   0.956  -0.127 -0.6269  0.6306 -0.5497
 1024MOL0     H35140   1.080   0.815  -0.285  0.1334  2.7698  0.6824
 1024MOL0     H35141   0.965   0.728  -0.170  0.5149  0.4627  0.7503
 1024MOL0     H35142   0.774   0.795  -0.269  0.8294  3.0537  0.6907
 1024MOL0     H35143   0.878   0.699  -0.390 -0.5539  0.8159 -2.2903
 1024MOL0     H35144   0.954   0.924  -0.478 -0.1865  1.6424  1.7639
 1024MOL0     H35145   0.836   0.999  -0.373  4.1782  1.7765 -0.6683
 1024MOL0     H35146   0.707   0.787  -0.525  2.0677 -0.0922 -3.7791
 1024MOL0     H35147   0.653   0.945  -0.486  0.5965 -2.5790  3.2385
 1024MOL0     H35148   0.676   0.913  -0.735  0.5922 -3.0142 -0.6657
 1024MOL0     H35149   0.841   0.867  -0.717 -0.3754  0.0662  0.9319
 1024MOL0     H35150   1.389   1.274   0.027  1.5082  0.8612  1.3117
 1024MOL0     H35151   1.625   1.283   0.102 -0.5578  0.5779 -1.9981
 1024MOL0     H35152   2.063   1.029   0.050  0.8491 -0.2133  0.4235
 1024MOL0     H35153   2.298   1.096   0.146  0.3695 -0.8356  0.8813
 1024MOL0     H35154   4.079   2.123   0.654  0.1158 -1.0755 -3.0198
 1024MOL0     H35155   4.320   2.037   0.631  0.7238  0.4262  0.4520
 1024MOL0     H35156   4.680   1.649   0.994 -1.5218  0.2249 -0.1575
 1024MOL0     H35157   4.907   1.604   0.936  1.5793 -0.3695 -0.8193
 1024MOL0     H35158   5.125   1.569   0.867  1.0411  0.8841  0.5306
 1024MOL0     H35159   5.092   1.755   0.867  1.0694  2.3531 -1.9648
 1024MOL0     H35160   5.265   1.613   0.656 -0.2551  0.8607 -0.0421
 1024MOL0     H35161   5.261   1.776   0.695 -0.0434  0.0515 -0.3674
 1024MOL0     H35162   5.381   1.555   0.871  2.9928  0.4560  1.0240
 1024MOL0     H35163   5.358   1.714   0.944 -0.0469 -0.7757  0.5928
 1024MOL0     H35164   5.516   1.791   0.730 -0.2980 -0.8548  0.2429
 1024MOL0     H35165   5.586   1.729   0.876  1.8729  0.9439 -1.3623
 1024MOL0     H35166   5.658   1.473   0.530  0.8890 -0.9798  1.1802
 1024MOL0     H35167   4.867   1.808   0.561  0.2459  0.8847  1.1076
 1024MOL0     H35168   4.637   1.877   0.628 -0.8064 -0.3256 -0.6426
  11.21486  11.21486  11.21486
